FOO
138240
    1MOL0     O    1   2.032   1.185   3.493  0.5131  0.1565  0.6429
    1MOL0     C    2   1.934   1.241   3.438  0.1024 -0.4860  0.0331
    1MOL0     O    3   1.903   1.375   3.451  0.4559  0.0389  0.1571
    1MOL0     C    4   1.982   1.438   3.555 -0.0937 -0.4399  0.2718
    1MOL0     C    5   1.934   1.417   3.685 -0.2172 -0.7954 -0.1760
    1MOL0     C    6   2.005   1.485   3.787  0.5301 -0.4484 -0.3413
    1MOL0     C    7   2.116   1.559   3.761 -0.3111 -0.2857 -1.0984
    1MOL0     O    8   2.191   1.592   3.878 -0.2998  1.5224  0.1560
    1MOL0     C    9   2.224   1.472   3.953 -0.7098 -1.0048 -0.7071
    1MOL0     C   10   2.374   1.493   3.993 -0.3431  0.0471 -0.6286
    1MOL0     C   11   2.454   1.370   4.033  0.3535  0.4039  0.4766
    1MOL0     C   12   2.365   1.255   4.079  0.4276 -0.4263 -0.4605
    1MOL0     C   13   2.426   1.116   4.064 -1.3011 -0.7290 -1.0276
    1MOL0     C   14   2.527   1.099   4.188 -0.3073 -0.4204  0.6403
    1MOL0     C   15   2.619   0.981   4.160 -0.3145  0.2460 -0.2125
    1MOL0     C   16   2.674   0.919   4.292 -0.2506 -1.5554 -0.2956
    1MOL0     N   17   2.782   1.001   4.356  0.0532  0.0478  0.3032
    1MOL0     C   18   2.833   0.988   4.482  0.0303  0.4423  0.1663
    1MOL0     C   19   2.903   1.091   4.524 -0.2871 -0.6275 -0.0603
    1MOL0     C   20   2.956   1.116   4.671 -0.6705 -1.0701  0.0526
    1MOL0     C   21   3.101   1.141   4.668 -0.4849  0.0795 -0.0218
    1MOL0     C   22   3.173   1.015   4.625 -1.0552  0.7932  0.2745
    1MOL0     C   23   3.324   1.043   4.615 -0.9426  0.3245  0.5480
    1MOL0     O   24   3.376   1.061   4.748  0.2264 -0.0820  0.3096
    1MOL0     C   25   3.500   1.132   4.757 -0.2133 -0.8676  0.0722
    1MOL0     C   26   3.537   1.167   4.884 -0.1069 -1.1448  0.8332
    1MOL0     C   27   3.666   1.222   4.911 -0.2199 -0.6541  0.2263
    1MOL0     C   28   3.762   1.241   4.814 -0.9892 -0.0372 -0.3342
    1MOL0     C   29   3.898   1.290   4.852  0.6898  0.0782 -0.6310
    1MOL0     O   30   3.997   1.268   4.763 -0.0099  0.5289  0.2939
    1MOL0     C   31   4.116   1.329   4.805  0.7312  0.3091  0.5565
    1MOL0     C   32   4.171   1.449   4.747  0.5899  0.2364  0.5456
    1MOL0     C   33   4.296   1.495   4.793  0.6443  0.2062 -0.6360
    1MOL0     C   34   4.365   1.430   4.895  0.1334 -0.3408 -0.1594
    1MOL0     O   35   4.488   1.480   4.946  0.3248 -0.3901 -0.0458
    1MOL0     C   36   4.463   1.537   5.077 -0.1102  0.1240 -0.3273
    1MOL0     C   37   4.493   1.448   5.199  1.2452 -0.5169 -0.5356
    1MOL0     C   38   4.628   1.395   5.202 -0.0659 -0.0129  0.3928
    1MOL0     C   39   4.659   1.349   5.348 -0.0980  0.7017 -0.3910
    1MOL0     C   40   4.804   1.335   5.394 -0.2491 -0.1637 -0.1236
    1MOL0     C   41   4.809   1.314   5.542 -0.4028 -0.0593 -0.4196
    1MOL0     C   42   4.908   1.213   5.603  0.3480 -0.4094  0.9078
    1MOL0     C   43   5.056   1.257   5.578  0.0943  0.3381 -0.3708
    1MOL0    Cl   44   5.111   1.390   5.687  0.0279  0.3672  0.0610
    1MOL0     C   45   4.306   1.312   4.950 -0.7955  0.3803  0.8823
    1MOL0     C   46   4.192   1.256   4.895 -0.1060 -0.3406 -0.6934
    1MOL0     O   47   3.895   1.361   4.953 -0.4515 -0.3851 -0.4725
    1MOL0     C   48   3.722   1.210   4.684 -0.4104 -0.7442 -0.1278
    1MOL0     C   49   3.585   1.164   4.653 -0.0069  0.9409 -0.3923
    1MOL0     N   50   2.901   1.164   4.407 -0.0869 -0.3950 -0.3284
    1MOL0     N   51   2.836   1.119   4.308 -0.1716  0.0919 -0.4718
    1MOL0     C   52   2.159   1.583   3.633 -1.0567 -0.8535  0.8659
    1MOL0     C   53   2.095   1.516   3.530 -0.4070  0.2635  0.8507
    1MOL0     C   54   1.852   1.166   3.340 -0.2895 -0.5651 -0.1260
    1MOL0     C   55   1.790   1.238   3.240  0.3478 -0.2787  0.1571
    1MOL0     C   56   1.717   1.174   3.137 -1.0996  0.8940  0.2227
    1MOL0     C   57   1.716   1.034   3.133 -0.2189  0.0307 -0.6864
    1MOL0     O   58   1.664   0.983   3.018 -0.9280  0.0784 -0.0350
    1MOL0     C   59   1.638   0.841   2.997 -0.3043  0.0722  0.2805
    1MOL0     C   60   1.538   0.781   3.093  0.8467 -0.2579  0.2942
    1MOL0     C   61   1.475   0.645   3.032 -0.3195 -1.0756  0.3360
    1MOL0     C   62   1.335   0.670   2.968  0.1719  0.7102 -0.2359
    1MOL0     C   63   1.266   0.542   2.942  0.2542 -0.2172  1.0183
    1MOL0     C   64   1.197   0.450   2.901 -0.5163 -0.0688 -0.4780
    1MOL0     C   65   1.768   0.957   3.241 -0.9500  1.0543  0.1595
    1MOL0     C   66   1.840   1.020   3.340 -0.1333 -0.3622 -0.2096
    1MOL0     C   67   1.877   0.937   3.454 -0.0401 -0.5347  0.5763
    1MOL0     H   68   1.849   1.353   3.706 -0.0113 -2.6693 -4.2496
    1MOL0     H   69   1.974   1.466   3.889  3.1041 -3.1458  0.0669
    1MOL0     H   70   2.160   1.468   4.042  1.2016  0.5677  0.8336
    1MOL0     H   71   2.214   1.382   3.893  2.1022 -0.6009 -1.9452
    1MOL0     H   72   2.373   1.563   4.077 -0.8341 -0.8812  0.1495
    1MOL0     H   73   2.425   1.544   3.910  2.0600  0.7021  1.1566
    1MOL0     H   74   2.531   1.395   4.107  1.1981  0.0377 -0.2575
    1MOL0     H   75   2.504   1.331   3.944 -3.2879 -1.4324 -0.9716
    1MOL0     H   76   2.322   1.276   4.178 -0.5576 -0.5847 -0.8445
    1MOL0     H   77   2.267   1.260   4.030  0.3298 -0.7497 -0.3006
    1MOL0     H   78   2.346   1.041   4.060 -1.2574 -0.7374 -2.2120
    1MOL0     H   79   2.485   1.117   3.972  1.2085  2.4390  0.4495
    1MOL0     H   80   2.591   1.187   4.198  0.6123 -0.9846 -0.1949
    1MOL0     H   81   2.460   1.098   4.274 -1.2885  2.7766  0.0500
    1MOL0     H   82   2.692   1.020   4.089 -2.0466 -4.3865 -5.1868
    1MOL0     H   83   2.570   0.900   4.105 -0.0384  1.3396 -2.1557
    1MOL0     H   84   2.598   0.921   4.371 -1.1352  1.6918 -1.0545
    1MOL0     H   85   2.700   0.813   4.287 -0.5808 -1.8472  2.4234
    1MOL0     H   86   2.818   0.895   4.537 -3.1342  1.9883  2.2469
    1MOL0     H   87   2.913   1.206   4.716  2.5853  1.4360 -1.4037
    1MOL0     H   88   2.931   1.028   4.730 -1.4281 -0.5129  0.5882
    1MOL0     H   89   3.121   1.215   4.590 -1.5104  0.8067  0.3873
    1MOL0     H   90   3.146   1.160   4.766 -0.2779 -2.5140  0.4548
    1MOL0     H   91   3.143   0.974   4.529 -1.1948 -1.2481  1.1388
    1MOL0     H   92   3.161   0.938   4.702  1.4672  3.5231  3.7228
    1MOL0     H   93   3.350   1.126   4.549 -0.2697 -1.3159 -1.3774
    1MOL0     H   94   3.376   0.954   4.576 -1.9770  0.3674 -1.0083
    1MOL0     H   95   3.480   1.145   4.974 -1.5267 -1.8235 -0.2003
    1MOL0     H   96   3.684   1.255   5.013  0.6730 -2.1420  0.5932
    1MOL0     H   97   4.103   1.507   4.686 -1.6836 -3.1106 -0.4096
    1MOL0     H   98   4.329   1.595   4.767  2.3888  0.2566  1.4446
    1MOL0     H   99   4.535   1.619   5.081  0.5138 -0.3010 -1.8667
    1MOL0     H  100   4.357   1.559   5.088 -0.1668 -0.4407  0.3169
    1MOL0     H  101   4.467   1.512   5.284 -0.4988  2.6362 -3.1929
    1MOL0     H  102   4.431   1.358   5.207  0.5166  0.0976  1.7390
    1MOL0     H  103   4.643   1.318   5.126  1.5987  0.8798 -0.2195
    1MOL0     H  104   4.698   1.470   5.165 -0.8203 -0.2035 -1.5589
    1MOL0     H  105   4.610   1.256   5.378  5.3526 -2.4181  0.2305
    1MOL0     H  106   4.613   1.423   5.415 -0.9491 -1.5129  1.6229
    1MOL0     H  107   4.847   1.425   5.351 -1.8995 -0.4085 -2.4991
    1MOL0     H  108   4.853   1.249   5.348 -1.8555 -1.2810  0.1374
    1MOL0     H  109   4.825   1.408   5.595 -2.1834 -0.6154  1.2539
    1MOL0     H  110   4.711   1.289   5.583 -0.8675  1.4559 -0.5339
    1MOL0     H  111   4.892   1.117   5.554 -0.5367  1.4436 -2.7834
    1MOL0     H  112   4.894   1.196   5.710 -0.1973  1.9156  1.2495
    1MOL0     H  113   5.121   1.170   5.591 -2.4649 -1.3792  2.4333
    1MOL0     H  114   5.065   1.295   5.476 -0.9608 -0.9811 -0.9883
    1MOL0     H  115   4.358   1.243   5.016 -1.6623 -3.2263 -1.8538
    1MOL0     H  116   4.150   1.158   4.919 -0.0967 -0.4981 -1.3082
    1MOL0     H  117   3.774   1.221   4.589 -0.9313 -3.4995 -0.8295
    1MOL0     H  118   3.573   1.134   4.549 -2.2677  3.9654 -1.1517
    1MOL0     H  119   2.247   1.638   3.602 -1.9362  0.5375  0.7236
    1MOL0     H  120   2.137   1.541   3.432  0.2344 -1.8064  0.5424
    1MOL0     H  121   1.790   1.346   3.244 -0.2249 -0.3039  1.8475
    1MOL0     H  122   1.688   1.249   3.064 -0.8565 -0.4293 -1.2659
    1MOL0     H  123   1.728   0.782   2.974 -0.1408  1.0957 -1.9973
    1MOL0     H  124   1.585   0.845   2.901  0.4722 -1.9335 -0.2954
    1MOL0     H  125   1.470   0.859   3.126  1.7890  0.2289  1.1511
    1MOL0     H  126   1.588   0.757   3.188  0.7973 -0.2382  0.3256
    1MOL0     H  127   1.483   0.558   3.098 -2.1601 -2.1211 -0.7208
    1MOL0     H  128   1.531   0.611   2.944  0.3616  0.4515  0.1502
    1MOL0     H  129   1.267   0.730   3.030  0.2229  0.4006  0.1235
    1MOL0     H  130   1.351   0.730   2.878 -1.5393  3.2842  1.0491
    1MOL0     H  131   1.130   0.381   2.854 -2.1141  1.5051 -0.6019
    1MOL0     H  132   1.753   0.850   3.256  1.2019  1.1036  3.6809
    1MOL0     H  133   1.980   0.903   3.444 -0.4524 -1.3555 -1.3911
    1MOL0     H  134   1.861   0.983   3.552 -0.6320 -1.5324  0.9695
    1MOL0     H  135   1.810   0.851   3.457 -0.3398 -0.3198  0.1027
    2MOL0     O  136   5.462   0.912   0.607  0.1116 -0.4932 -0.2598
    2MOL0     C  137   5.588   0.907   0.602  0.0520  0.1853 -0.7104
    2MOL0     O  138   5.675   0.986   0.665  0.1081 -0.6488  0.1860
    2MOL0     C  139   5.633   1.105   0.721  0.6745  0.1212 -0.1920
    2MOL0     C  140   5.694   1.229   0.695  0.1549 -1.0592 -0.3742
    2MOL0     C  141   5.650   1.355   0.751 -0.1331  0.6584 -0.4431
    2MOL0     C  142   5.562   1.345   0.862  0.3999 -0.1158 -0.0873
    2MOL0     O  143   5.525   1.456   0.942  0.7005  0.3320  0.6873
    2MOL0     C  144   5.562   1.451   1.078 -0.6455 -0.7293  0.4369
    2MOL0     C  145   5.485   1.565   1.142  0.6654 -0.4342 -1.0413
    2MOL0     C  146   5.517   1.571   1.288  0.6685 -0.9837 -0.1095
    2MOL0     C  147   5.657   1.624   1.311  0.1420  0.0626 -0.3217
    2MOL0     C  148   5.657   1.696   1.457 -0.0362  0.0580  0.9353
    2MOL0     C  149   5.801   1.719   1.500  0.6181  0.2078  0.7437
    2MOL0     C  150   5.816   1.815   1.623  0.1202 -0.2228  0.9328
    2MOL0     C  151   5.768   1.968   1.608  0.4729  0.8084 -0.2899
    2MOL0     N  152   5.813   2.047   1.712 -0.2403  0.0499 -0.7545
    2MOL0     C  153   5.938   2.101   1.691  0.0744  0.2374 -0.4131
    2MOL0     C  154   5.945   2.214   1.763  0.3712  0.2650  0.6979
    2MOL0     C  155   6.068   2.297   1.770 -0.6484 -0.6501  0.3826
    2MOL0     C  156   6.149   2.288   1.906 -0.7008 -0.1559  0.3174
    2MOL0     C  157   6.228   2.414   1.922 -0.1290  0.0858 -0.1389
    2MOL0     C  158   6.314   2.461   1.804  0.5807  0.1304  0.3411
    2MOL0     O  159   6.391   2.553   1.867  0.0552  0.2625  0.9798
    2MOL0     C  160   6.527   2.545   1.850 -0.0344 -0.0783  0.2228
    2MOL0     C  161   6.612   2.633   1.921  0.0152  0.0114  0.3455
    2MOL0     C  162   6.746   2.645   1.897 -0.1645  0.4290 -0.2287
    2MOL0     C  163   6.818   2.577   1.798 -0.0184 -1.0090 -0.7251
    2MOL0     C  164   6.964   2.591   1.766 -0.6790  0.6538  0.2907
    2MOL0     O  165   7.010   2.546   1.648 -0.6367  0.1720 -0.7640
    2MOL0     C  166   7.146   2.531   1.642 -0.8869 -0.4199 -0.1194
    2MOL0     C  167   7.218   2.413   1.668 -0.0579 -0.3401 -1.4117
    2MOL0     C  168   7.349   2.412   1.674 -0.4233 -0.1518  0.4828
    2MOL0     C  169   7.422   2.525   1.658 -0.3131 -0.0550  0.7424
    2MOL0     O  170   7.558   2.510   1.681  0.3500  0.3633  0.3579
    2MOL0     C  171   7.647   2.617   1.649  0.2761 -0.3244 -0.4296
    2MOL0     C  172   7.790   2.579   1.680  0.1849  0.7174  0.2034
    2MOL0     C  173   7.891   2.669   1.612 -0.2199  0.6654  0.1792
    2MOL0     C  174   7.920   2.637   1.466  0.8168 -0.2941  0.1003
    2MOL0     C  175   7.934   2.753   1.375 -0.2603  0.3885  0.5892
    2MOL0     C  176   8.054   2.847   1.421 -0.2374  0.0404 -0.5761
    2MOL0     C  177   8.191   2.771   1.460 -0.3604  0.3052  0.0089
    2MOL0     C  178   8.314   2.862   1.459 -0.0145 -0.9469 -0.2351
    2MOL0    Cl  179   8.466   2.783   1.491 -0.4286  0.1805  0.1114
    2MOL0     C  180   7.362   2.643   1.620  0.7646 -0.9442  0.1772
    2MOL0     C  181   7.219   2.650   1.616 -0.7159 -0.2806  0.5870
    2MOL0     O  182   7.024   2.659   1.849  0.5735 -0.5383  0.3143
    2MOL0     C  183   6.741   2.480   1.726  0.0619  0.0987  0.3122
    2MOL0     C  184   6.606   2.465   1.764  0.0464 -0.2037  0.2628
    2MOL0     N  185   5.821   2.223   1.832 -0.1197  0.3228  0.5107
    2MOL0     N  186   5.736   2.137   1.781 -0.1192 -0.0246  0.2395
    2MOL0     C  187   5.506   1.215   0.890  0.0870 -0.1121 -0.5759
    2MOL0     C  188   5.544   1.102   0.832  0.9340 -0.3222  0.2629
    2MOL0     C  189   5.656   0.804   0.525 -0.1191  0.1892 -0.7262
    2MOL0     C  190   5.794   0.785   0.558  0.1563  0.0686  0.5888
    2MOL0     C  191   5.866   0.683   0.495  0.7786  0.0867  0.0777
    2MOL0     C  192   5.816   0.611   0.381  0.1929 -0.4540  0.1110
    2MOL0     O  193   5.885   0.514   0.307 -0.0584 -0.3877  0.7873
    2MOL0     C  194   6.016   0.471   0.339  0.2998  0.6137  0.2536
    2MOL0     C  195   6.062   0.359   0.240 -0.4963 -0.1879  0.9766
    2MOL0     C  196   6.216   0.347   0.218 -0.0814  0.3795  0.2276
    2MOL0     C  197   6.259   0.243   0.114 -0.4302  0.0613 -0.9406
    2MOL0     C  198   6.231   0.284  -0.023  0.3400 -0.0876 -0.3884
    2MOL0     C  199   6.198   0.307  -0.137 -0.2493 -0.6293  0.2071
    2MOL0     C  200   5.692   0.651   0.336  0.0253  0.1192 -0.5800
    2MOL0     C  201   5.604   0.731   0.410  0.5118  1.0570  0.0134
    2MOL0     C  202   5.470   0.749   0.353  0.3674 -0.2148  0.8880
    2MOL0     H  203   5.764   1.213   0.613 -1.2981  2.4343 -2.5178
    2MOL0     H  204   5.705   1.446   0.730 -0.0968  0.4482 -1.3075
    2MOL0     H  205   5.546   1.355   1.130 -0.8690 -0.5073  0.7836
    2MOL0     H  206   5.669   1.475   1.077 -1.1766  1.8653 -0.2745
    2MOL0     H  207   5.381   1.535   1.124  0.8418  0.5453 -4.5167
    2MOL0     H  208   5.506   1.662   1.096  1.5516  1.4072  2.8793
    2MOL0     H  209   5.494   1.475   1.334  0.4235 -1.7487 -1.7660
    2MOL0     H  210   5.437   1.642   1.307  1.7678  0.8122 -1.7706
    2MOL0     H  211   5.721   1.535   1.315 -0.3257 -0.2275  2.2991
    2MOL0     H  212   5.688   1.705   1.244  3.6925 -0.1269  0.8891
    2MOL0     H  213   5.610   1.795   1.452 -3.4612 -1.4232  0.9755
    2MOL0     H  214   5.600   1.645   1.536 -0.7263  0.8428  0.9585
    2MOL0     H  215   5.861   1.631   1.525  0.9098  0.5131  1.1168
    2MOL0     H  216   5.852   1.778   1.423 -1.6319  1.2938 -0.0220
    2MOL0     H  217   5.921   1.821   1.654 -0.1013  0.7867  1.5616
    2MOL0     H  218   5.768   1.761   1.705 -2.0996 -1.5366 -1.1234
    2MOL0     H  219   5.795   2.004   1.508 -3.1579 -0.7827 -2.0541
    2MOL0     H  220   5.658   1.968   1.608  0.4595  1.6752 -0.1775
    2MOL0     H  221   6.018   2.082   1.620  1.2390  0.3797  0.8166
    2MOL0     H  222   6.131   2.267   1.686  0.0040  0.3456  0.4936
    2MOL0     H  223   6.033   2.398   1.745 -1.2827 -1.1143 -0.6557
    2MOL0     H  224   6.091   2.275   1.997 -1.6806  1.7667  0.0224
    2MOL0     H  225   6.218   2.203   1.899 -0.4461  0.0586  0.1945
    2MOL0     H  226   6.293   2.395   2.008 -1.4484 -1.8899  0.4853
    2MOL0     H  227   6.155   2.493   1.947 -0.6788 -0.1525 -0.9443
    2MOL0     H  228   6.255   2.512   1.727 -3.9403  0.4073  3.5878
    2MOL0     H  229   6.381   2.386   1.760  0.8146  0.2123  0.5570
    2MOL0     H  230   6.568   2.687   2.005 -2.0176 -2.7162  1.1870
    2MOL0     H  231   6.800   2.726   1.946 -0.1821 -0.1900  0.8585
    2MOL0     H  232   7.160   2.323   1.688 -0.7645  0.6857  1.6132
    2MOL0     H  233   7.403   2.322   1.700  1.8920  1.4278  1.5774
    2MOL0     H  234   7.649   2.638   1.541 -0.7878 -0.4328 -0.4760
    2MOL0     H  235   7.620   2.708   1.703 -3.5792 -0.5404 -1.6781
    2MOL0     H  236   7.790   2.594   1.788  0.1373 -1.6955  0.5793
    2MOL0     H  237   7.805   2.477   1.644 -1.6737  0.4690  0.0465
    2MOL0     H  238   7.862   2.773   1.630  0.9099  0.8295  1.2265
    2MOL0     H  239   7.985   2.654   1.666 -0.4559  2.5673  1.1874
    2MOL0     H  240   7.837   2.579   1.425 -0.3515  0.3928  1.4099
    2MOL0     H  241   8.014   2.581   1.465  0.3008 -1.1708 -0.4691
    2MOL0     H  242   7.847   2.818   1.361  0.4876  0.9084 -2.3838
    2MOL0     H  243   7.957   2.719   1.274  0.0238  0.8644  0.4927
    2MOL0     H  244   8.063   2.936   1.359 -1.7499  0.0312 -0.8391
    2MOL0     H  245   8.026   2.895   1.515 -0.5772 -0.5339 -0.3793
    2MOL0     H  246   8.196   2.685   1.394  0.1214  0.9497 -0.8176
    2MOL0     H  247   8.181   2.738   1.564  3.4636 -4.1240 -0.7196
    2MOL0     H  248   8.324   2.914   1.364  0.0015 -3.1429 -1.4940
    2MOL0     H  249   8.301   2.940   1.535 -1.2168  0.3300 -1.6879
    2MOL0     H  250   7.415   2.737   1.612 -0.6857  0.2294  2.9629
    2MOL0     H  251   7.166   2.739   1.585 -1.8075 -1.3690 -0.7855
    2MOL0     H  252   6.791   2.422   1.649 -0.2438  2.3402 -1.7241
    2MOL0     H  253   6.561   2.404   1.687  2.4425  1.7145 -2.8890
    2MOL0     H  254   5.443   1.205   0.978  0.2495 -0.7298 -0.5280
    2MOL0     H  255   5.490   1.012   0.859  3.0398 -1.2750  1.6149
    2MOL0     H  256   5.849   0.840   0.633  0.1350  4.2895 -2.1600
    2MOL0     H  257   5.970   0.659   0.516  0.0706 -2.9964  0.5437
    2MOL0     H  258   6.026   0.443   0.444 -1.4970 -0.9793  0.0558
    2MOL0     H  259   6.079   0.558   0.317  0.9274 -0.4109 -2.3443
    2MOL0     H  260   6.018   0.394   0.146  1.2784  1.1260  0.5835
    2MOL0     H  261   6.012   0.270   0.279 -3.6663  1.6654  1.5444
    2MOL0     H  262   6.251   0.327   0.319  2.7213  1.5209 -0.4098
    2MOL0     H  263   6.251   0.443   0.177 -1.0486  0.8039  0.3732
    2MOL0     H  264   6.368   0.232   0.114 -0.5860 -2.0357  0.2203
    2MOL0     H  265   6.201   0.150   0.122 -1.5677  0.8412  0.2325
    2MOL0     H  266   6.164   0.351  -0.228 -1.0702 -1.7510 -0.0400
    2MOL0     H  267   5.661   0.594   0.249  0.2317 -1.7536  0.5040
    2MOL0     H  268   5.393   0.705   0.418 -2.8039 -0.3194 -2.6034
    2MOL0     H  269   5.442   0.854   0.343  0.4152 -0.3449 -1.0685
    2MOL0     H  270   5.450   0.707   0.254  2.3582  1.2033 -0.1608
    3MOL0     O  271   0.475  10.461   5.465  0.7103 -0.8990 -0.0649
    3MOL0     C  272   0.588  10.434   5.501  0.1357 -0.3740 -0.8253
    3MOL0     O  273   0.617  10.362   5.613 -0.3841  0.8076  0.1794
    3MOL0     C  274   0.514  10.342   5.700 -0.4206 -0.4931 -1.4138
    3MOL0     C  275   0.428  10.235   5.688  0.4972  0.3663  0.4209
    3MOL0     C  276   0.334  10.195   5.780  0.1737  0.0497  0.1000
    3MOL0     C  277   0.323  10.271   5.898  0.8239  0.2932  0.0580
    3MOL0     O  278   0.238  10.240   6.005  0.6630  0.6403  0.1250
    3MOL0     C  279   0.126  10.143   5.997  1.4058 -0.1186 -0.0395
    3MOL0     C  280   0.035  10.196   6.110 -0.8709  1.0947 -0.2260
    3MOL0     C  281  -0.073  10.114   6.180  0.2853  0.0934  0.9710
    3MOL0     C  282  -0.007  10.008   6.252  0.6116 -0.1159  0.2230
    3MOL0     C  283  -0.124   9.918   6.313  0.6233 -0.0259  0.1755
    3MOL0     C  284  -0.146   9.969   6.456  0.3645  0.2425  0.6957
    3MOL0     C  285  -0.269   9.898   6.533 -0.4901  0.7361 -0.5343
    3MOL0     C  286  -0.253   9.919   6.681  0.3259  0.2626  1.2354
    3MOL0     N  287  -0.149   9.844   6.744  0.6990  0.6069 -0.0458
    3MOL0     C  288  -0.165   9.714   6.797 -0.0732 -0.3366  0.0782
    3MOL0     C  289  -0.045   9.687   6.861  0.8750  0.3737  1.0468
    3MOL0     C  290  -0.012   9.546   6.911 -0.7106  0.4354 -0.2955
    3MOL0     C  291   0.088   9.531   7.027 -0.4627 -0.0190 -0.6644
    3MOL0     C  292   0.198   9.428   7.006 -0.9890 -0.0689  0.6491
    3MOL0     C  293   0.258   9.381   7.134 -0.2207  0.8023 -0.1891
    3MOL0     O  294   0.307   9.494   7.213  0.0628  0.2063  0.3440
    3MOL0     C  295   0.306   9.483   7.351 -0.0859  0.4806  0.3039
    3MOL0     C  296   0.337   9.599   7.416 -0.0340 -1.0111 -0.9754
    3MOL0     C  297   0.342   9.595   7.559  0.8242 -0.3427  0.0946
    3MOL0     C  298   0.340   9.472   7.623  0.6319 -0.4088  0.3072
    3MOL0     C  299   0.360   9.456   7.770 -0.6995 -1.1874  0.4352
    3MOL0     O  300   0.404   9.566   7.836  0.2516 -0.5171 -0.4312
    3MOL0     C  301   0.408   9.594   7.970 -0.6773  1.1017 -0.1705
    3MOL0     C  302   0.476   9.708   8.001 -0.3630  0.2274 -0.3072
    3MOL0     C  303   0.486   9.756   8.131  0.2945  0.4052 -0.1672
    3MOL0     C  304   0.430   9.688   8.244 -0.2627  0.6200 -0.4848
    3MOL0     O  305   0.447   9.721   8.380  0.4384  0.2526  0.5623
    3MOL0     C  306   0.343   9.816   8.424 -0.9403  0.1969  1.2392
    3MOL0     C  307   0.405   9.868   8.556  0.3368  0.5159 -0.8918
    3MOL0     C  308   0.539   9.938   8.545 -0.4248  0.1420  0.3685
    3MOL0     C  309   0.552  10.043   8.426 -0.4833 -1.0117  0.0570
    3MOL0     C  310   0.698  10.101   8.422 -1.1163  0.6265 -1.0092
    3MOL0     C  311   0.800   9.996   8.381  0.3799  0.1043  0.3121
    3MOL0     C  312   0.944  10.054   8.416 -0.2857 -0.5470 -0.0841
    3MOL0     C  313   1.013  10.151   8.304  0.0228  0.1582 -0.4238
    3MOL0    Cl  314   1.150  10.243   8.391 -0.0750  0.0831  0.2555
    3MOL0     C  315   0.357   9.578   8.211 -0.2949  0.6361  0.6094
    3MOL0     C  316   0.348   9.529   8.074 -0.0451  1.0183  0.3048
    3MOL0     O  317   0.342   9.349   7.821 -0.3797  0.2626 -0.4150
    3MOL0     C  318   0.305   9.361   7.554 -0.9756  1.2984  0.4988
    3MOL0     C  319   0.296   9.362   7.423  0.2257 -0.5071  0.0284
    3MOL0     N  320   0.035   9.805   6.859  0.6390 -0.4958 -0.4406
    3MOL0     N  321  -0.031   9.897   6.789 -0.0778 -0.2444 -0.8718
    3MOL0     C  322   0.405  10.385   5.908 -1.1986  0.5388 -1.0476
    3MOL0     C  323   0.505  10.416   5.822  0.7750  0.6422 -0.6902
    3MOL0     C  324   0.705  10.461   5.408 -0.7976  0.8517  1.1140
    3MOL0     C  325   0.689  10.415   5.279 -0.8369  0.1480  0.4001
    3MOL0     C  326   0.801  10.435   5.197 -0.5487  0.5443  0.4698
    3MOL0     C  327   0.918  10.493   5.239  0.4995 -0.7656 -1.0291
    3MOL0     O  328   1.023  10.548   5.169  0.2763  0.9977 -0.2950
    3MOL0     C  329   1.023  10.544   5.028  0.3270 -0.6879  0.2319
    3MOL0     C  330   1.066  10.413   4.971  0.2962 -0.3795 -0.4813
    3MOL0     C  331   1.207  10.371   5.029  1.0139  0.0303  0.1571
    3MOL0     C  332   1.215  10.325   5.171 -0.9474  0.6315 -1.4674
    3MOL0     C  333   1.338  10.237   5.195  0.9956 -0.8364 -0.3056
    3MOL0     C  334   1.441  10.171   5.218 -0.4628 -0.0231 -0.1623
    3MOL0     C  335   0.931  10.532   5.368  0.4615 -0.3196  0.6885
    3MOL0     C  336   0.828  10.511   5.455  0.9449  0.0654 -0.8003
    3MOL0     C  337   0.861  10.537   5.603 -0.2447  0.4608  0.1442
    3MOL0     H  338   0.441  10.169   5.603  2.4840  1.0967  0.1220
    3MOL0     H  339   0.289  10.098   5.766 -0.1407  0.4760 -2.2580
    3MOL0     H  340   0.075  10.136   5.900  3.0391  0.7262 -1.0009
    3MOL0     H  341   0.140  10.036   6.019  3.0817  0.4519  1.9534
    3MOL0     H  342  -0.011  10.289   6.075 -1.0396  2.5409  3.3916
    3MOL0     H  343   0.106  10.216   6.190  0.9510 -0.8506 -1.2574
    3MOL0     H  344  -0.147  10.097   6.101 -1.2345  0.3480  2.2778
    3MOL0     H  345  -0.122  10.177   6.254 -0.6322  0.3750  0.1370
    3MOL0     H  346   0.056   9.949   6.185 -0.4240 -1.6130  0.5308
    3MOL0     H  347   0.068  10.044   6.323  1.2330  0.4326 -0.6970
    3MOL0     H  348  -0.217   9.920   6.255  1.9667 -2.3595 -2.3462
    3MOL0     H  349  -0.087   9.815   6.320  0.1569 -0.5095 -2.9547
    3MOL0     H  350  -0.060   9.943   6.518  0.1896  0.5070  1.0553
    3MOL0     H  351  -0.168  10.074   6.480  0.4510 -0.2704  3.3374
    3MOL0     H  352  -0.257   9.790   6.521  3.3394  0.9028  0.2927
    3MOL0     H  353  -0.364   9.938   6.498 -0.8142  0.6130  0.1826
    3MOL0     H  354  -0.232  10.024   6.703 -1.6313  0.6294  1.4936
    3MOL0     H  355  -0.352   9.892   6.719 -1.3381  2.1908 -1.3561
    3MOL0     H  356  -0.252   9.650   6.787 -0.3857 -0.1219  1.2819
    3MOL0     H  357  -0.101   9.491   6.943 -0.9898 -1.1721 -3.4482
    3MOL0     H  358   0.011   9.484   6.824 -0.9562 -2.4951  1.5855
    3MOL0     H  359   0.120   9.632   7.054 -0.9674  0.1086 -0.5235
    3MOL0     H  360   0.024   9.514   7.114  0.1037  4.0935  0.8114
    3MOL0     H  361   0.271   9.476   6.941 -1.7545  0.2224 -0.0145
    3MOL0     H  362   0.163   9.337   6.956  2.7379 -1.4738  0.3239
    3MOL0     H  363   0.340   9.309   7.129  0.2330  1.0357  2.3531
    3MOL0     H  364   0.178   9.339   7.195 -0.6093 -1.6574 -2.2386
    3MOL0     H  365   0.355   9.689   7.359  2.8053 -0.4776  0.5935
    3MOL0     H  366   0.369   9.688   7.609 -0.6223  0.1693 -0.0125
    3MOL0     H  367   0.512   9.779   7.927 -0.5741  2.5007  1.6440
    3MOL0     H  368   0.569   9.823   8.150  3.5906 -2.6461 -2.5784
    3MOL0     H  369   0.312   9.892   8.352  0.1730  0.7700  1.3466
    3MOL0     H  370   0.252   9.766   8.458 -1.6283  1.7152  1.7126
    3MOL0     H  371   0.344   9.939   8.612 -0.4859  0.5160 -1.7580
    3MOL0     H  372   0.423   9.783   8.623  1.0458  0.2578 -1.4044
    3MOL0     H  373   0.557   9.996   8.636  1.2745  0.0059  0.1455
    3MOL0     H  374   0.625   9.871   8.536  1.5398  2.8211 -3.0293
    3MOL0     H  375   0.468  10.110   8.449  0.0874 -0.4862  0.6451
    3MOL0     H  376   0.533   9.998   8.328 -0.9969  0.9552 -0.7881
    3MOL0     H  377   0.727  10.137   8.521  2.0838 -3.7359 -0.0744
    3MOL0     H  378   0.703  10.184   8.351  3.2209  0.9278 -0.5923
    3MOL0     H  379   0.788   9.910   8.448  2.5289  0.8702  1.7837
    3MOL0     H  380   0.786   9.970   8.275 -3.8782  1.4615  0.3403
    3MOL0     H  381   1.015   9.972   8.431  0.4347  0.4910  2.8437
    3MOL0     H  382   0.947  10.112   8.509  2.5296 -1.6855  0.6516
    3MOL0     H  383   1.059  10.085   8.230  0.7000 -0.5618  0.5993
    3MOL0     H  384   0.939  10.222   8.267 -1.9080  0.7610  3.9203
    3MOL0     H  385   0.290   9.524   8.277  0.6589 -3.7300 -1.6400
    3MOL0     H  386   0.288   9.439   8.062 -4.0799  3.5984 -0.6974
    3MOL0     H  387   0.283   9.263   7.595 -0.5503  1.0434  0.1217
    3MOL0     H  388   0.279   9.265   7.377 -1.9108  0.1284 -0.6554
    3MOL0     H  389   0.381  10.442   5.998 -1.6848  1.2436 -1.6051
    3MOL0     H  390   0.576  10.493   5.851  1.4720 -0.2431 -0.0042
    3MOL0     H  391   0.599  10.365   5.244 -0.4465  1.2859 -2.5394
    3MOL0     H  392   0.788  10.409   5.092 -1.2705 -1.5839  1.0234
    3MOL0     H  393   1.090  10.621   4.988 -2.4097  1.2632 -0.8868
    3MOL0     H  394   0.930  10.569   4.978  2.0685 -1.0056 -3.4895
    3MOL0     H  395   1.069  10.413   4.861  2.8655  0.8311 -0.4973
    3MOL0     H  396   0.992  10.339   5.003  0.9119 -0.2652  1.2837
    3MOL0     H  397   1.283  10.449   5.015  1.3508 -0.2951  0.1578
    3MOL0     H  398   1.236  10.285   4.968 -0.6599 -1.0638  0.8585
    3MOL0     H  399   1.217  10.412   5.237 -0.9047  0.3866 -1.1467
    3MOL0     H  400   1.129  10.265   5.203  0.6539 -1.3828 -0.7061
    3MOL0     H  401   1.538  10.127   5.205 -0.6840 -0.6681  0.3219
    3MOL0     H  402   1.021  10.583   5.400  0.0557  1.3195 -0.6231
    3MOL0     H  403   0.885  10.642   5.625 -1.5543  0.5839  1.1176
    3MOL0     H  404   0.783  10.509   5.674 -0.8867  1.7893 -0.0046
    3MOL0     H  405   0.959  10.492   5.625 -1.2738 -1.3005  1.4284
    4MOL0     O  406   4.972   9.685   9.786 -0.1669 -0.2688  0.7292
    4MOL0     C  407   4.926   9.654   9.893  0.1702 -0.2972  0.1018
    4MOL0     O  408   4.874   9.536   9.922  0.0234  0.0377  0.3514
    4MOL0     C  409   4.847   9.444   9.821  0.8505 -0.5863 -0.6091
    4MOL0     C  410   4.893   9.311   9.826  0.2490  0.8513 -0.0379
    4MOL0     C  411   4.866   9.218   9.725  0.4451  0.0099 -0.3749
    4MOL0     C  412   4.767   9.237   9.623  0.5916 -0.7998  0.4191
    4MOL0     O  413   4.724   9.147   9.528  0.7885 -0.2218 -0.7430
    4MOL0     C  414   4.721   9.015   9.573 -0.6997  1.3931  0.1748
    4MOL0     C  415   4.591   8.954   9.540  0.1954 -0.0391  0.2133
    4MOL0     C  416   4.478   9.032   9.606  0.1322 -1.1562 -0.0806
    4MOL0     C  417   4.345   8.994   9.545 -0.3992  0.7129 -0.0439
    4MOL0     C  418   4.229   9.073   9.603 -0.5580 -0.6690  0.1670
    4MOL0     C  419   4.094   9.017   9.568  0.6131  0.3119 -0.4418
    4MOL0     C  420   3.989   9.110   9.626 -0.6903  0.3160  0.5718
    4MOL0     C  421   3.844   9.073   9.605  1.0016  0.3406 -0.5530
    4MOL0     N  422   3.764   9.174   9.683 -0.8086 -0.3075  0.2191
    4MOL0     C  423   3.782   9.309   9.683  0.1164 -0.4276  0.2139
    4MOL0     C  424   3.702   9.353   9.781  0.0305 -0.2189  0.9370
    4MOL0     C  425   3.695   9.505   9.801 -1.4239  0.1165  1.3358
    4MOL0     C  426   3.619   9.558   9.916 -0.2458 -0.1716 -2.0412
    4MOL0     C  427   3.627   9.717   9.929  1.0101 -0.3830 -0.2275
    4MOL0     C  428   3.574   9.758  10.064 -0.0526  0.0074 -0.1805
    4MOL0     O  429   3.670   9.722  10.165  0.8225 -0.0748 -0.6721
    4MOL0     C  430   3.647   9.768  10.294  0.9342  0.2352  0.6936
    4MOL0     C  431   3.754   9.788  10.381  0.6099  0.2164  1.0652
    4MOL0     C  432   3.737   9.846  10.501 -0.2760 -0.0083  0.8727
    4MOL0     C  433   3.622   9.921  10.520 -0.1536 -0.1658  0.0774
    4MOL0     C  434   3.604   9.998  10.647  0.4999 -0.0100 -0.0656
    4MOL0     O  435   3.676   9.957  10.760  0.0824 -0.0245 -0.0072
    4MOL0     C  436   3.642  10.017  10.876 -0.1718 -0.0716  0.1874
    4MOL0     C  437   3.517  10.002  10.937  0.1239  0.2760 -0.0650
    4MOL0     C  438   3.478  10.070  11.052  0.7484 -0.1389 -0.3426
    4MOL0     C  439   3.576  10.137  11.126 -0.1359 -0.1064  0.5510
    4MOL0     O  440   3.548  10.201  11.246 -0.0255  0.0914  0.2952
    4MOL0     C  441   3.406  10.243  11.262 -0.0288  0.0411 -0.1719
    4MOL0     C  442   3.381  10.342  11.379 -0.5975  0.3589  0.5479
    4MOL0     C  443   3.513  10.431  11.421  0.1155  0.2659 -0.6445
    4MOL0     C  444   3.466  10.536  11.533 -0.7336  0.5726 -0.1364
    4MOL0     C  445   3.577  10.642  11.545  0.2737  0.6600  0.9439
    4MOL0     C  446   3.527  10.759  11.634 -0.0397  0.3741 -0.2898
    4MOL0     C  447   3.480  10.886  11.567  0.1217 -0.2598  0.1692
    4MOL0     C  448   3.418  10.986  11.669 -0.5088  1.4773  0.7021
    4MOL0    Cl  449   3.563  11.057  11.735  0.3139  0.4246  0.4570
    4MOL0     C  450   3.702  10.152  11.072  0.8731 -0.4823  0.1453
    4MOL0     C  451   3.740  10.090  10.952 -0.4113  0.4794 -0.2974
    4MOL0     O  452   3.526  10.094  10.647  0.0814 -0.0080  0.0260
    4MOL0     C  453   3.516   9.915  10.430 -0.0734 -0.1638 -0.7650
    4MOL0     C  454   3.533   9.833  10.319 -0.0201 -0.3773  0.0657
    4MOL0     N  455   3.648   9.244   9.844 -0.7232  0.1432 -0.3012
    4MOL0     N  456   3.688   9.145   9.783  0.2660  0.1478  0.5750
    4MOL0     C  457   4.711   9.366   9.616  0.8092  0.4342 -1.1212
    4MOL0     C  458   4.757   9.465   9.707  0.3124  0.6666  0.9331
    4MOL0     C  459   4.937   9.753  10.000  1.0530  0.1609 -0.5995
    4MOL0     C  460   5.028   9.722  10.097  0.0003 -0.9384 -0.7365
    4MOL0     C  461   5.044   9.822  10.197  0.3525  1.0771  0.6406
    4MOL0     C  462   4.960   9.936  10.199  0.3046  0.3141  0.4821
    4MOL0     O  463   4.973  10.033  10.291  0.1155 -0.1426 -0.3049
    4MOL0     C  464   5.059  10.013  10.403  0.4016  0.8868  0.5208
    4MOL0     C  465   5.194  10.067  10.395 -0.0781  0.2943  1.2193
    4MOL0     C  466   5.208  10.221  10.364 -0.3588  0.0715  0.2616
    4MOL0     C  467   5.353  10.258  10.350  0.0541  0.5358  0.2871
    4MOL0     C  468   5.433  10.247  10.477 -0.8355 -0.9886  0.4164
    4MOL0     C  469   5.485  10.241  10.594  0.4054 -0.6115 -0.5715
    4MOL0     C  470   4.878   9.961  10.092  0.1219 -0.7267 -0.4021
    4MOL0     C  471   4.866   9.872   9.993  0.1414  0.2140  0.2146
    4MOL0     C  472   4.782   9.914   9.883 -0.5366  0.1596  0.4237
    4MOL0     H  473   4.958   9.270   9.903 -2.1740 -1.6935  0.8457
    4MOL0     H  474   4.926   9.128   9.715 -0.1737 -0.1364 -4.6178
    4MOL0     H  475   4.802   8.963   9.521 -2.6382 -3.4519  1.3734
    4MOL0     H  476   4.750   9.002   9.677  4.5484 -2.3538 -1.3520
    4MOL0     H  477   4.595   8.850   9.575 -0.5313 -0.5499 -1.1314
    4MOL0     H  478   4.582   8.955   9.431  0.0144  2.1556  0.2139
    4MOL0     H  479   4.494   9.138   9.581  0.0538 -0.8255  1.2296
    4MOL0     H  480   4.469   9.025   9.714 -1.4285  0.6904 -0.0247
    4MOL0     H  481   4.342   8.982   9.437  0.7346  1.2507 -0.1438
    4MOL0     H  482   4.322   8.896   9.587  0.8091  0.4585  0.0292
    4MOL0     H  483   4.252   9.076   9.710  0.8176  4.7332  0.0152
    4MOL0     H  484   4.242   9.175   9.568 -1.0228 -1.2385 -1.7938
    4MOL0     H  485   4.082   9.018   9.459  3.4917  0.1792 -0.8271
    4MOL0     H  486   4.083   8.916   9.608 -1.1771 -0.5469 -2.8474
    4MOL0     H  487   4.005   9.209   9.584 -3.3512  0.7253  0.3619
    4MOL0     H  488   4.022   9.119   9.730  1.0132 -0.2510  0.1196
    4MOL0     H  489   3.806   9.080   9.502 -2.5907  0.3623  0.6168
    4MOL0     H  490   3.827   8.971   9.640  1.1754 -0.5416 -2.8572
    4MOL0     H  491   3.843   9.369   9.616  3.2039 -3.9562 -0.4544
    4MOL0     H  492   3.796   9.548   9.797  0.2056 -3.3875  1.0569
    4MOL0     H  493   3.655   9.543   9.706  0.0479  0.2770  0.7433
    4MOL0     H  494   3.514   9.528   9.915 -1.2927  2.2789  2.9496
    4MOL0     H  495   3.675   9.521  10.003  1.3702  1.2870 -2.3831
    4MOL0     H  496   3.553   9.749   9.854 -0.7459 -1.4100  0.9861
    4MOL0     H  497   3.729   9.753   9.917  1.3198  0.1123  3.0749
    4MOL0     H  498   3.485   9.696  10.080 -1.2365  1.5649 -0.5289
    4MOL0     H  499   3.545   9.863  10.072 -1.0199 -0.1190 -1.7233
    4MOL0     H  500   3.848   9.750  10.344  0.1902  0.5325 -0.3709
    4MOL0     H  501   3.828   9.848  10.562  1.2365  1.2964 -1.2703
    4MOL0     H  502   3.444   9.940  10.886 -0.3904  2.1099 -1.6767
    4MOL0     H  503   3.372  10.063  11.075  0.3246 -1.5297 -2.4730
    4MOL0     H  504   3.391  10.305  11.173  2.3355  0.6100 -0.2343
    4MOL0     H  505   3.343  10.159  11.291 -0.5791  0.4434 -0.1947
    4MOL0     H  506   3.300  10.405  11.340  1.1415  2.8232  0.7077
    4MOL0     H  507   3.355  10.276  11.462  0.8135  1.4945  1.9622
    4MOL0     H  508   3.600  10.376  11.458 -2.2103 -2.0530  1.8366
    4MOL0     H  509   3.541  10.494  11.337 -2.0263 -0.4021 -1.9548
    4MOL0     H  510   3.448  10.482  11.626  0.2925 -2.2230 -1.4528
    4MOL0     H  511   3.377  10.593  11.507 -0.0257  2.0008  0.4589
    4MOL0     H  512   3.588  10.686  11.446  1.2866 -0.2395  0.6366
    4MOL0     H  513   3.668  10.587  11.572 -2.0148 -3.9261  0.3146
    4MOL0     H  514   3.453  10.717  11.702  0.3930 -1.8917 -1.1542
    4MOL0     H  515   3.612  10.784  11.698  1.0912 -0.1673 -1.5307
    4MOL0     H  516   3.410  10.854  11.489 -1.0168  0.8058  0.7220
    4MOL0     H  517   3.563  10.947  11.529 -0.3150  1.9185  2.4428
    4MOL0     H  518   3.371  11.074  11.624 -0.4340  0.6438 -1.0443
    4MOL0     H  519   3.347  10.948  11.744 -1.9028 -0.0621 -1.2934
    4MOL0     H  520   3.769  10.213  11.131  0.0729 -1.2188  1.8638
    4MOL0     H  521   3.836  10.107  10.906  0.1410  2.3776  1.3880
    4MOL0     H  522   3.432   9.982  10.450  1.1564  1.4564 -0.8397
    4MOL0     H  523   3.440   9.823  10.265 -0.9701 -1.5955  1.8155
    4MOL0     H  524   4.636   9.396   9.544  0.5204  1.6182 -0.3528
    4MOL0     H  525   4.714   9.565   9.701  1.4090  1.0707 -1.4914
    4MOL0     H  526   5.083   9.628  10.092 -0.1981 -1.4057  2.8900
    4MOL0     H  527   5.129   9.812  10.263  1.7565  1.6819 -0.9895
    4MOL0     H  528   5.059   9.911  10.443 -1.9143  0.3983 -0.5534
    4MOL0     H  529   5.009  10.072  10.480 -1.5134  2.7658 -1.9687
    4MOL0     H  530   5.241  10.010  10.314 -3.9911  0.3446 -1.3872
    4MOL0     H  531   5.246  10.048  10.489  2.9566 -1.4931 -0.6385
    4MOL0     H  532   5.153  10.274  10.442 -0.8641  1.8637 -1.2447
    4MOL0     H  533   5.167  10.238  10.264 -1.3916  0.4016  0.7231
    4MOL0     H  534   5.402  10.190  10.280 -0.0833 -0.5985  1.2765
    4MOL0     H  535   5.366  10.361  10.314 -1.3613  2.9107  5.6809
    4MOL0     H  536   5.511  10.251  10.697 -1.8776 -2.1715  0.2550
    4MOL0     H  537   4.808  10.044  10.090 -0.5863 -1.2519  1.2430
    4MOL0     H  538   4.751   9.824   9.828  1.7047 -2.6791  3.4436
    4MOL0     H  539   4.691   9.945   9.935 -0.4587  0.8064  0.1851
    4MOL0     H  540   4.819   9.993   9.817 -2.5549  0.4294 -0.4790
    5MOL0     O  541  11.364   6.134   2.024 -0.1658 -0.6376 -0.7108
    5MOL0     C  542  11.254   6.157   1.971 -0.2588  0.6404 -0.6458
    5MOL0     O  543  11.240   6.160   1.838  0.7265  1.0119  0.1166
    5MOL0     C  544  11.344   6.116   1.753  0.0737  0.1674 -0.0799
    5MOL0     C  545  11.327   6.030   1.649  0.6440  0.1724  0.4650
    5MOL0     C  546  11.420   5.980   1.557 -0.5997 -0.1275  0.1170
    5MOL0     C  547  11.556   6.033   1.572  0.2819 -0.0209  0.0119
    5MOL0     O  548  11.667   5.981   1.512 -0.3028 -0.3681  0.5143
    5MOL0     C  549  11.647   5.900   1.395 -0.3902  0.1966  1.2281
    5MOL0     C  550  11.791   5.826   1.370  0.6679 -0.4954 -0.3919
    5MOL0     C  551  11.902   5.931   1.330  0.9940  0.7241 -1.4978
    5MOL0     C  552  12.030   5.866   1.285  0.9802 -0.2327 -0.5620
    5MOL0     C  553  12.121   5.968   1.228 -0.3223  0.1570  0.7850
    5MOL0     C  554  12.223   6.028   1.335 -0.4878 -0.6896  0.0709
    5MOL0     C  555  12.358   6.070   1.259  1.1021  0.7353 -0.1274
    5MOL0     C  556  12.461   6.111   1.370 -0.0005 -0.2304  0.6076
    5MOL0     N  557  12.496   6.000   1.464 -1.1038  0.9140 -0.5481
    5MOL0     C  558  12.538   5.879   1.429  0.5877  0.7658 -0.0214
    5MOL0     C  559  12.546   5.809   1.550 -0.1263 -0.1819 -0.0990
    5MOL0     C  560  12.590   5.667   1.572 -0.6124 -0.5378  0.3332
    5MOL0     C  561  12.468   5.595   1.625 -0.3988 -0.0741 -1.2300
    5MOL0     C  562  12.346   5.581   1.533 -0.5920  0.3581 -0.4847
    5MOL0     C  563  12.203   5.590   1.602 -1.8810  0.3374 -0.8432
    5MOL0     O  564  12.218   5.521   1.730 -0.4894  1.2385  0.3474
    5MOL0     C  565  12.127   5.420   1.762  0.6650  1.1743  0.2287
    5MOL0     C  566  12.165   5.351   1.875 -0.2037  1.6689  0.2260
    5MOL0     C  567  12.090   5.245   1.932  0.2395 -0.1257 -0.0708
    5MOL0     C  568  11.978   5.189   1.858 -0.5547 -0.5031 -0.3723
    5MOL0     C  569  11.896   5.076   1.919 -0.4218 -0.0080  0.9966
    5MOL0     O  570  11.922   5.026   2.037 -0.0615 -0.5587  0.3540
    5MOL0     C  571  11.863   4.908   2.093  0.7414  0.2832  0.1116
    5MOL0     C  572  11.795   4.813   2.013  0.5019 -0.5406 -0.7278
    5MOL0     C  573  11.736   4.705   2.085  0.1003  0.0494  0.2982
    5MOL0     C  574  11.721   4.704   2.226  0.4851 -0.2464  0.3407
    5MOL0     O  575  11.641   4.613   2.285  0.1075 -0.3366 -0.0170
    5MOL0     C  576  11.616   4.628   2.428 -0.8149  0.0921 -0.2415
    5MOL0     C  577  11.497   4.538   2.479 -0.7000 -0.2901  0.8872
    5MOL0     C  578  11.545   4.391   2.475  0.2768 -0.5403  0.4233
    5MOL0     C  579  11.646   4.350   2.588 -0.0348 -0.4221  0.5406
    5MOL0     C  580  11.630   4.197   2.599  1.1433 -0.3275 -1.3102
    5MOL0     C  581  11.709   4.130   2.712 -0.0461  0.0447 -0.0080
    5MOL0     C  582  11.869   4.164   2.711 -0.5496 -0.0726 -0.3352
    5MOL0     C  583  11.955   4.075   2.622 -0.3868 -0.1663 -0.3297
    5MOL0    Cl  584  12.099   4.159   2.580  0.1911 -0.2020  0.5356
    5MOL0     C  585  11.791   4.801   2.297 -0.3438 -0.0357  0.0587
    5MOL0     C  586  11.859   4.905   2.231 -0.3586  1.1592  0.9533
    5MOL0     O  587  11.804   5.046   1.847 -0.2442  0.9209  0.4042
    5MOL0     C  588  11.937   5.263   1.741  0.1678 -0.3306 -0.7359
    5MOL0     C  589  12.013   5.369   1.690 -0.0437 -0.8288 -0.8770
    5MOL0     N  590  12.502   5.895   1.647  0.0585 -0.0658 -0.7095
    5MOL0     N  591  12.468   6.009   1.596 -0.1888 -0.8324 -0.0139
    5MOL0     C  592  11.578   6.134   1.671  0.2659 -0.9528  0.3060
    5MOL0     C  593  11.474   6.176   1.756 -0.5401 -0.0009 -0.8305
    5MOL0     C  594  11.136   6.194   2.055  0.6592 -0.6945  0.4536
    5MOL0     C  595  11.016   6.209   1.979  1.5996  0.1458  0.1153
    5MOL0     C  596  10.899   6.242   2.039  0.8906  0.3790 -0.0411
    5MOL0     C  597  10.889   6.265   2.178 -0.9270 -0.3749 -0.1117
    5MOL0     O  598  10.775   6.298   2.244 -0.2594 -0.3465 -0.3165
    5MOL0     C  599  10.741   6.226   2.359 -0.9623  0.5546 -0.3926
    5MOL0     C  600  10.684   6.092   2.326 -1.0200 -0.2574  0.0126
    5MOL0     C  601  10.608   6.034   2.445 -0.4695 -0.0720 -0.0204
    5MOL0     C  602  10.569   5.884   2.435 -0.8731  0.3917  0.4261
    5MOL0     C  603  10.476   5.848   2.331 -1.1762  0.4086 -0.2803
    5MOL0     C  604  10.400   5.824   2.243 -1.1816 -0.1681  0.1913
    5MOL0     C  605  11.011   6.255   2.250 -1.0054  0.7790 -0.9779
    5MOL0     C  606  11.139   6.216   2.200  0.0716  0.3943 -0.0794
    5MOL0     C  607  11.262   6.210   2.286 -0.3122  0.5211 -0.3282
    5MOL0     H  608  11.233   5.980   1.627  1.0401 -0.4763  0.1872
    5MOL0     H  609  11.393   5.896   1.493  1.2665 -0.0403 -0.8802
    5MOL0     H  610  11.567   5.824   1.399 -2.0192  1.4579 -2.6078
    5MOL0     H  611  11.623   5.948   1.300 -0.1396 -0.6548  0.7233
    5MOL0     H  612  11.783   5.745   1.296 -0.4688 -1.7965  1.1051
    5MOL0     H  613  11.833   5.794   1.465  0.3546  4.5809  1.7673
    5MOL0     H  614  11.919   5.996   1.416  2.0860 -2.6744  1.0560
    5MOL0     H  615  11.854   5.991   1.252 -2.7194  0.8143  0.5981
    5MOL0     H  616  12.076   5.802   1.361 -1.3618 -0.8305  0.4421
    5MOL0     H  617  12.002   5.798   1.203 -2.3395  1.7024 -1.2410
    5MOL0     H  618  12.184   5.917   1.154 -0.3738 -1.3462  1.7492
    5MOL0     H  619  12.061   6.051   1.189 -1.4506 -1.1722 -0.3731
    5MOL0     H  620  12.170   6.119   1.366 -0.4485 -1.3857  2.4162
    5MOL0     H  621  12.236   5.967   1.425 -3.1388  2.5547  2.9407
    5MOL0     H  622  12.339   6.153   1.190 -0.5014  0.8999  0.4756
    5MOL0     H  623  12.400   5.989   1.198  0.0084 -0.4132  0.5891
    5MOL0     H  624  12.546   6.131   1.305 -0.7704 -0.1473 -0.4076
    5MOL0     H  625  12.422   6.205   1.412 -1.4788  0.9555 -3.0399
    5MOL0     H  626  12.562   5.824   1.338 -2.3111  1.6067 -1.4158
    5MOL0     H  627  12.632   5.613   1.486  1.4187 -2.7984  2.6027
    5MOL0     H  628  12.667   5.669   1.650 -0.9079 -1.8690  0.6757
    5MOL0     H  629  12.502   5.500   1.666  0.3406 -0.1133 -1.8877
    5MOL0     H  630  12.431   5.639   1.718 -2.6220 -1.9979 -1.1253
    5MOL0     H  631  12.346   5.485   1.480 -4.9133  0.0542 -0.2612
    5MOL0     H  632  12.351   5.647   1.446 -0.5828 -1.4890 -1.9744
    5MOL0     H  633  12.119   5.544   1.549 -0.7595  0.8384 -3.1511
    5MOL0     H  634  12.180   5.696   1.615  1.1263  1.4579 -3.4953
    5MOL0     H  635  12.260   5.386   1.914  0.2086  0.5996  0.2116
    5MOL0     H  636  12.131   5.192   2.017  0.7472 -0.6094 -0.6102
    5MOL0     H  637  11.772   4.811   1.907 -2.8418  2.4684 -0.2556
    5MOL0     H  638  11.686   4.627   2.028 -4.6833  3.0033 -0.1493
    5MOL0     H  639  11.707   4.603   2.483 -0.9934  1.5928  0.7853
    5MOL0     H  640  11.580   4.729   2.450 -3.0327 -0.0375 -2.7138
    5MOL0     H  641  11.461   4.561   2.580 -1.0368 -1.1147  0.9640
    5MOL0     H  642  11.419   4.557   2.404  4.5030  1.9236 -4.8242
    5MOL0     H  643  11.458   4.329   2.499 -1.3200  1.7927  0.9875
    5MOL0     H  644  11.587   4.370   2.377 -1.4736 -0.0460 -0.4717
    5MOL0     H  645  11.633   4.408   2.680 -1.0631  0.7124 -0.2836
    5MOL0     H  646  11.750   4.371   2.560  0.2605 -2.2256  0.1704
    5MOL0     H  647  11.653   4.159   2.499  1.7540 -2.4517 -0.4281
    5MOL0     H  648  11.528   4.166   2.623  0.9240 -0.1669 -2.0114
    5MOL0     H  649  11.661   4.163   2.805 -1.7745 -0.6547 -0.6224
    5MOL0     H  650  11.690   4.023   2.726 -1.8903  0.5216  1.5494
    5MOL0     H  651  11.913   4.155   2.811 -0.5765 -2.3699 -0.4719
    5MOL0     H  652  11.903   4.264   2.682  2.6493 -0.7925  0.5688
    5MOL0     H  653  11.978   3.983   2.677 -3.1105 -1.4064 -1.0757
    5MOL0     H  654  11.902   4.051   2.529  1.7842 -0.0563 -1.6480
    5MOL0     H  655  11.797   4.792   2.405 -3.2646  1.4042  0.4548
    5MOL0     H  656  11.909   4.988   2.281 -0.3428  2.5684 -1.2561
    5MOL0     H  657  11.844   5.231   1.695 -0.3388  1.5584 -1.1219
    5MOL0     H  658  11.987   5.401   1.590  1.8578 -1.1466 -1.5236
    5MOL0     H  659  11.682   6.162   1.687  2.4720 -2.7408 -6.8693
    5MOL0     H  660  11.505   6.237   1.840 -2.2177 -1.3242  0.8487
    5MOL0     H  661  11.002   6.189   1.874  1.0638  2.8746 -0.4193
    5MOL0     H  662  10.809   6.242   1.977 -0.3758 -0.7889  1.6969
    5MOL0     H  663  10.668   6.281   2.419 -1.5421  1.4513 -1.8660
    5MOL0     H  664  10.824   6.216   2.429 -1.9298 -0.0459  0.7028
    5MOL0     H  665  10.769   6.026   2.306 -1.3934 -0.1458 -2.2804
    5MOL0     H  666  10.616   6.102   2.240  0.8036 -3.9699 -2.0774
    5MOL0     H  667  10.508   6.079   2.456 -1.6308 -2.6182  0.6239
    5MOL0     H  668  10.658   6.062   2.538 -0.7555  2.0723 -0.4608
    5MOL0     H  669  10.660   5.827   2.413  0.1747  2.8290 -2.0621
    5MOL0     H  670  10.522   5.861   2.531 -2.0822  1.3926  0.0991
    5MOL0     H  671  10.325   5.820   2.167  1.5031 -3.4638 -2.6085
    5MOL0     H  672  11.009   6.280   2.355 -1.3278  1.0419 -1.0438
    5MOL0     H  673  11.284   6.104   2.304 -1.9165  0.3873  1.0759
    5MOL0     H  674  11.337   6.268   2.232  0.5564 -0.5390 -0.3126
    5MOL0     H  675  11.261   6.266   2.380  0.4120 -1.5055  0.9626
    6MOL0     O  676   2.225  10.446   9.398 -0.2010 -0.6712 -0.4112
    6MOL0     C  677   2.150  10.386   9.328  0.6248  0.7886 -0.4485
    6MOL0     O  678   2.163  10.357   9.193  0.1635 -0.1858 -0.1905
    6MOL0     C  679   2.276  10.415   9.133 -0.0971  0.3597 -0.0156
    6MOL0     C  680   2.280  10.549   9.088  0.4746  1.1878  0.0788
    6MOL0     C  681   2.396  10.597   9.039 -0.8818  0.3421  0.3098
    6MOL0     C  682   2.515  10.522   9.026  0.6844  0.8980  0.0239
    6MOL0     O  683   2.618  10.590   8.977 -0.2096  0.5176 -0.1109
    6MOL0     C  684   2.738  10.577   9.058  0.0324 -1.0214  0.6758
    6MOL0     C  685   2.731  10.627   9.201  0.9682  0.5829  1.4211
    6MOL0     C  686   2.706  10.778   9.204 -0.2050  0.5091  0.3149
    6MOL0     C  687   2.717  10.843   9.340  0.3055  0.4783 -0.8317
    6MOL0     C  688   2.584  10.836   9.419  0.3047  0.6041  0.6533
    6MOL0     C  689   2.563  10.711   9.502 -0.2974 -1.0380  1.0253
    6MOL0     C  690   2.440  10.732   9.583 -0.3631 -0.0070  0.1513
    6MOL0     C  691   2.414  10.595   9.644  0.1283  0.2776 -0.0386
    6MOL0     N  692   2.295  10.604   9.723 -0.0815 -0.0168  0.0059
    6MOL0     C  693   2.174  10.613   9.660  0.4443  0.3256  0.1120
    6MOL0     C  694   2.089  10.654   9.754  0.1700  0.0342  0.4796
    6MOL0     C  695   1.934  10.674   9.749 -1.3431  0.6012  0.3046
    6MOL0     C  696   1.868  10.543   9.757  0.3121  0.5883 -0.4293
    6MOL0     C  697   1.795  10.544   9.893  0.5823  0.4666 -0.6075
    6MOL0     C  698   1.692  10.426   9.894  0.2363 -0.1491  0.0020
    6MOL0     O  699   1.657  10.415  10.035 -0.4967 -0.2702  0.0834
    6MOL0     C  700   1.579  10.315  10.089 -0.2997  0.2907  0.0800
    6MOL0     C  701   1.588  10.289  10.229 -0.1921 -0.1036  0.2028
    6MOL0     C  702   1.498  10.200  10.290 -0.1559  0.9620  0.2851
    6MOL0     C  703   1.412  10.121  10.215  0.7934 -0.7766  0.0514
    6MOL0     C  704   1.324  10.016  10.278  0.0061 -0.2664 -1.2132
    6MOL0     O  705   1.325  10.020  10.419  0.4437 -0.5136 -0.0077
    6MOL0     C  706   1.235   9.936  10.482 -0.4034 -0.5606 -0.1533
    6MOL0     C  707   1.149  10.001  10.573 -0.6405 -0.3343  0.2151
    6MOL0     C  708   1.039   9.940  10.633  0.4140  0.5417  0.2259
    6MOL0     C  709   1.026   9.804  10.617 -0.2667  0.3170  1.0171
    6MOL0     O  710   0.946   9.727  10.691 -0.4829 -0.5439  0.1805
    6MOL0     C  711   0.845   9.792  10.779  0.0686  0.3494  0.4928
    6MOL0     C  712   0.768   9.668  10.830  0.9669 -0.1378  0.3877
    6MOL0     C  713   0.674   9.585  10.743 -0.3343  0.6063  0.3845
    6MOL0     C  714   0.690   9.583  10.597  0.4229  0.3672 -0.7766
    6MOL0     C  715   0.801   9.491  10.551  0.5510 -0.0007 -0.1760
    6MOL0     C  716   0.847   9.513  10.401  1.0647  0.6623 -1.0753
    6MOL0     C  717   0.953   9.417  10.351  0.4492  0.1884 -0.2568
    6MOL0     C  718   0.994   9.443  10.205  0.9735 -0.5866 -0.5172
    6MOL0    Cl  719   0.847   9.421  10.098 -0.6528  0.0765 -0.1969
    6MOL0     C  720   1.113   9.733  10.528  0.9405  0.4188  0.0257
    6MOL0     C  721   1.213   9.803  10.463 -0.5833  0.4552 -0.9222
    6MOL0     O  722   1.258   9.938  10.212  0.0909  1.3707  0.0198
    6MOL0     C  723   1.409  10.145  10.080  0.7804 -0.0248 -0.1419
    6MOL0     C  724   1.491  10.233  10.016 -0.6970 -0.3222 -0.5628
    6MOL0     N  725   2.162  10.677   9.863 -0.1516  1.0073 -0.3344
    6MOL0     N  726   2.288  10.643   9.848  0.6377 -0.8095 -0.4254
    6MOL0     C  727   2.509  10.386   9.063  0.8060 -0.2714  0.5936
    6MOL0     C  728   2.391  10.333   9.120 -0.3367  0.2638 -0.3498
    6MOL0     C  729   2.023  10.336   9.396 -1.4206  0.3614 -0.2614
    6MOL0     C  730   2.039  10.277   9.521  0.2074  0.3531 -0.3937
    6MOL0     C  731   1.917  10.236   9.594  0.4203  1.0459  1.1877
    6MOL0     C  732   1.799  10.218   9.525 -0.1498 -0.5388 -1.3592
    6MOL0     O  733   1.681  10.182   9.584 -0.2165 -0.1170 -0.0017
    6MOL0     C  734   1.687  10.078   9.685 -0.1244  0.1253 -0.8295
    6MOL0     C  735   1.663   9.937   9.623 -0.6837 -0.9347 -1.1513
    6MOL0     C  736   1.697   9.824   9.721 -0.6032  0.1611 -0.4394
    6MOL0     C  737   1.757   9.705   9.641 -0.1214 -0.3737  0.0106
    6MOL0     C  738   1.776   9.584   9.725 -0.6156  0.3828  0.3927
    6MOL0     C  739   1.804   9.480   9.781  0.4576 -0.0825 -0.7167
    6MOL0     C  740   1.796  10.264   9.401 -0.0518  0.0897  0.4332
    6MOL0     C  741   1.897  10.332   9.338  0.1807 -0.4252  0.7128
    6MOL0     C  742   1.867  10.392   9.203  0.0920 -1.2098  0.2180
    6MOL0     H  743   2.193  10.612   9.073 -1.1958 -0.9951  0.0680
    6MOL0     H  744   2.414  10.700   9.010  3.8349  0.1445  1.6822
    6MOL0     H  745   2.766  10.471   9.055  0.4454 -0.9113 -2.2776
    6MOL0     H  746   2.818  10.617   8.995 -0.7167 -2.1566 -1.0974
    6MOL0     H  747   2.818  10.587   9.255  0.4124 -1.0358  1.1810
    6MOL0     H  748   2.647  10.575   9.247  1.2475 -0.9587  0.2882
    6MOL0     H  749   2.615  10.789   9.145  1.8690  4.0309 -2.5995
    6MOL0     H  750   2.773  10.825   9.132  0.4102 -1.1110 -0.2202
    6MOL0     H  751   2.804  10.802   9.392  0.7466  1.0121 -1.1352
    6MOL0     H  752   2.741  10.950   9.333  0.7946  0.3439 -1.2086
    6MOL0     H  753   2.588  10.919   9.490 -0.0290  0.1485  1.2198
    6MOL0     H  754   2.501  10.842   9.348  0.7889 -2.6899 -0.3793
    6MOL0     H  755   2.550  10.637   9.422  0.9495  0.4522 -0.6624
    6MOL0     H  756   2.655  10.690   9.558  1.7594  3.2591 -0.3145
    6MOL0     H  757   2.369  10.773   9.510  0.9816  2.5314  0.1428
    6MOL0     H  758   2.458  10.811   9.657 -0.8853  0.5021 -0.2543
    6MOL0     H  759   2.399  10.525   9.561 -1.3257  0.1521  0.3191
    6MOL0     H  760   2.498  10.563   9.706 -0.8016  0.0575  1.1266
    6MOL0     H  761   2.138  10.583   9.562 -2.1800  0.6861  0.8734
    6MOL0     H  762   1.902  10.752   9.818  2.3411  2.7404 -0.1206
    6MOL0     H  763   1.922  10.706   9.645 -2.3774  3.3487  1.1844
    6MOL0     H  764   1.806  10.532   9.667  3.3216  2.9511 -3.0019
    6MOL0     H  765   1.943  10.464   9.769  1.5090  1.9003  1.0121
    6MOL0     H  766   1.739  10.637   9.900 -0.2174  0.0707 -1.4981
    6MOL0     H  767   1.862  10.539   9.979  0.4944  2.2857 -0.4011
    6MOL0     H  768   1.727  10.330   9.854 -3.1596 -1.3266 -0.4856
    6MOL0     H  769   1.612  10.461   9.829 -0.5503 -1.1840  0.3795
    6MOL0     H  770   1.643  10.358  10.292 -3.4309 -0.9005  4.4115
    6MOL0     H  771   1.516  10.182  10.396 -2.9891  1.4921  0.9584
    6MOL0     H  772   1.159  10.104  10.604  1.9457 -0.6842  0.7390
    6MOL0     H  773   0.981   9.993  10.707  1.5116  0.4943  1.1504
    6MOL0     H  774   0.896   9.854  10.853 -1.5836  2.4571 -0.0547
    6MOL0     H  775   0.777   9.851  10.717 -1.6229 -0.5666  1.4200
    6MOL0     H  776   0.840   9.602  10.880  2.0293  0.9941  0.4043
    6MOL0     H  777   0.705   9.708  10.910  0.9558 -0.5720  0.6008
    6MOL0     H  778   0.678   9.484  10.784 -1.3657  0.1189 -0.6799
    6MOL0     H  779   0.575   9.628  10.760 -0.6562  2.0884 -4.0920
    6MOL0     H  780   0.707   9.689  10.575 -2.3287  1.5221  1.9664
    6MOL0     H  781   0.597   9.559  10.546 -1.3914 -0.4151  2.6119
    6MOL0     H  782   0.753   9.393  10.556 -0.8528  0.4855 -2.5256
    6MOL0     H  783   0.879   9.507  10.627 -1.4001  1.6468  1.6173
    6MOL0     H  784   0.764   9.514  10.331 -1.5484  1.1576  1.8083
    6MOL0     H  785   0.869   9.620  10.400 -1.6561  1.3096 -0.1427
    6MOL0     H  786   0.919   9.313  10.349 -2.5155  1.0731 -1.4432
    6MOL0     H  787   1.040   9.422  10.418  0.2818 -1.9917  0.2003
    6MOL0     H  788   1.041   9.542  10.204  1.6837 -0.9210 -0.9912
    6MOL0     H  789   1.078   9.380  10.174  2.8973  0.7219  1.6941
    6MOL0     H  790   1.100   9.625  10.526 -1.7034  0.6704 -1.8875
    6MOL0     H  791   1.285   9.757  10.395 -2.6610  1.7716 -4.2522
    6MOL0     H  792   1.335  10.090  10.023 -2.0914 -1.2357  4.2997
    6MOL0     H  793   1.496  10.259   9.911  1.9038  2.4616  0.0739
    6MOL0     H  794   2.595  10.319   9.059  1.7621  0.7891  2.0438
    6MOL0     H  795   2.387  10.231   9.158  1.6956  1.7243  4.5533
    6MOL0     H  796   2.137  10.267   9.565 -0.6473 -2.9926  1.0936
    6MOL0     H  797   1.939  10.201   9.694  1.3019 -2.1977 -0.0067
    6MOL0     H  798   1.611  10.088   9.763  0.4992  2.7402 -0.4541
    6MOL0     H  799   1.776  10.081   9.749 -0.8097  2.0175  0.1131
    6MOL0     H  800   1.710   9.938   9.524  0.0562 -0.8249 -0.8055
    6MOL0     H  801   1.559   9.926   9.591 -0.3196  0.0966 -2.8041
    6MOL0     H  802   1.613   9.786   9.780 -0.6938  1.9884  0.6789
    6MOL0     H  803   1.764   9.852   9.804  0.7240 -3.1311 -0.2166
    6MOL0     H  804   1.694   9.677   9.556  3.4179 -2.2098 -2.2297
    6MOL0     H  805   1.854   9.742   9.607 -0.2622 -1.2803 -1.4290
    6MOL0     H  806   1.832   9.387   9.825  1.1875 -0.3326 -1.6777
    6MOL0     H  807   1.700  10.258   9.350  0.3836  1.5708 -0.6180
    6MOL0     H  808   1.768  10.380   9.158  0.3278 -0.5504 -0.4956
    6MOL0     H  809   1.893  10.498   9.207 -1.2037 -0.9181  1.3435
    6MOL0     H  810   1.929  10.341   9.129  0.1214 -2.4211  1.0510
    7MOL0     O  811   9.811   4.672   3.820  0.0766 -0.1388 -0.2147
    7MOL0     C  812   9.928   4.668   3.787  0.2232 -0.1893 -0.1918
    7MOL0     O  813  10.038   4.720   3.851  0.1825 -0.2832  1.0818
    7MOL0     C  814  10.027   4.765   3.981  0.6127 -0.4651  0.6323
    7MOL0     C  815  10.131   4.845   4.008 -0.4484 -0.9624 -0.7080
    7MOL0     C  816  10.148   4.909   4.133  0.4361  0.2612 -0.1357
    7MOL0     C  817  10.067   4.873   4.242  0.5063  0.3098 -1.3619
    7MOL0     O  818  10.068   4.934   4.367 -0.2522  0.0049  0.7143
    7MOL0     C  819  10.145   4.864   4.469  0.2526  0.1068 -0.2233
    7MOL0     C  820  10.293   4.900   4.464 -0.3028  0.4600 -0.6642
    7MOL0     C  821  10.322   5.053   4.455  0.0507  0.3289 -0.2954
    7MOL0     C  822  10.270   5.125   4.582  0.0293 -0.0627 -1.1129
    7MOL0     C  823  10.339   5.261   4.596 -0.1637 -0.2113  0.5082
    7MOL0     C  824  10.260   5.339   4.704 -0.1756  0.6327  0.5990
    7MOL0     C  825  10.327   5.471   4.732 -0.3162  1.1498 -0.3177
    7MOL0     C  826  10.351   5.572   4.616  0.2021  0.3190  0.2354
    7MOL0     N  827  10.216   5.624   4.572 -0.0727  0.2412  0.2276
    7MOL0     C  828  10.113   5.670   4.652  0.9552  0.8354  0.0881
    7MOL0     C  829  10.014   5.711   4.562  0.6199  0.5144 -0.6672
    7MOL0     C  830   9.887   5.781   4.604  0.3780  0.0862  0.2676
    7MOL0     C  831   9.896   5.932   4.619  0.1519 -0.9665  0.0062
    7MOL0     C  832   9.769   5.993   4.700  0.0339  0.8807 -0.9446
    7MOL0     C  833   9.784   6.143   4.735 -0.6728  0.8546 -0.1368
    7MOL0     O  834   9.855   6.135   4.855 -0.4171 -0.3195 -0.8039
    7MOL0     C  835   9.829   6.219   4.961  0.0171  0.7016 -1.3803
    7MOL0     C  836   9.834   6.172   5.094 -0.6185  0.9656  0.4829
    7MOL0     C  837   9.818   6.262   5.198 -0.7368 -0.3210  0.3580
    7MOL0     C  838   9.790   6.401   5.170 -0.2309  0.6200 -0.2807
    7MOL0     C  839   9.759   6.494   5.272  0.8109  0.1496 -0.5319
    7MOL0     O  840   9.671   6.593   5.233  0.0636 -0.5323 -0.0531
    7MOL0     C  841   9.640   6.687   5.330  0.0095 -0.2521 -0.5756
    7MOL0     C  842   9.677   6.823   5.337 -0.0530  0.1301  0.2368
    7MOL0     C  843   9.620   6.909   5.437  0.3981  0.2076 -0.2329
    7MOL0     C  844   9.538   6.864   5.535  0.4543  0.2812 -0.0700
    7MOL0     O  845   9.475   6.956   5.617 -0.1164  0.1852 -0.0425
    7MOL0     C  846   9.366   6.914   5.697 -0.1793 -0.1807  0.0927
    7MOL0     C  847   9.230   6.957   5.638 -0.9032  0.2812  0.4582
    7MOL0     C  848   9.180   6.857   5.538 -0.6311  0.3029  0.6976
    7MOL0     C  849   9.033   6.890   5.497  1.3907  0.2141 -0.9489
    7MOL0     C  850   8.990   7.036   5.494 -0.1000 -1.1407  0.2405
    7MOL0     C  851   8.861   7.066   5.405 -0.0708 -0.1214  0.2523
    7MOL0     C  852   8.773   7.196   5.428 -0.1223  0.1162  1.4574
    7MOL0     C  853   8.860   7.321   5.429  0.0031  0.6587  0.5894
    7MOL0    Cl  854   8.906   7.370   5.263  0.1193 -0.2833 -0.1303
    7MOL0     C  855   9.516   6.727   5.536  0.6284  0.6842 -0.1901
    7MOL0     C  856   9.570   6.641   5.440 -0.3655  0.5190  0.1598
    7MOL0     O  857   9.804   6.473   5.380 -0.8883  0.3656 -0.2196
    7MOL0     C  858   9.790   6.444   5.038 -0.0834 -0.9482 -0.0770
    7MOL0     C  859   9.814   6.361   4.934 -0.3719  0.3722 -0.9029
    7MOL0     N  860  10.049   5.678   4.437  0.7095  0.6964  0.9033
    7MOL0     N  861  10.170   5.626   4.439  0.7872 -0.2402 -0.0665
    7MOL0     C  862   9.962   4.786   4.217  0.1822 -0.2576 -0.3432
    7MOL0     C  863   9.938   4.734   4.088 -0.0538 -0.4305  0.0906
    7MOL0     C  864   9.956   4.611   3.648  0.2502  0.1040  0.2040
    7MOL0     C  865  10.046   4.675   3.562 -0.8818 -0.8008 -0.4296
    7MOL0     C  866  10.061   4.625   3.437 -0.1446 -0.2613  0.2346
    7MOL0     C  867   9.986   4.517   3.392 -0.1778 -0.0893 -1.7422
    7MOL0     O  868  10.014   4.489   3.262 -0.0047  0.6220  0.2080
    7MOL0     C  869   9.921   4.405   3.197 -0.0112  0.1977  0.7185
    7MOL0     C  870   9.975   4.350   3.069 -0.5592 -1.2611  0.2840
    7MOL0     C  871   9.966   4.456   2.956  0.9275 -0.0304 -0.2554
    7MOL0     C  872   9.839   4.431   2.870 -1.0234  0.8468 -0.3240
    7MOL0     C  873   9.871   4.307   2.798  0.5715 -0.8567  0.9131
    7MOL0     C  874   9.897   4.199   2.749 -0.6379  0.6957  0.3733
    7MOL0     C  875   9.899   4.453   3.480  1.1453 -0.0954  0.2430
    7MOL0     C  876   9.893   4.496   3.609  0.8014  0.1701 -0.0433
    7MOL0     C  877   9.821   4.408   3.702  0.1363 -0.1075  0.3203
    7MOL0     H  878  10.208   4.850   3.931 -0.9591 -1.2984 -1.2465
    7MOL0     H  879  10.226   4.979   4.162  0.4249 -0.8288  2.8496
    7MOL0     H  880  10.109   4.888   4.569  0.6858 -2.3400  0.5903
    7MOL0     H  881  10.130   4.759   4.443 -0.8833  0.7310 -2.3244
    7MOL0     H  882  10.346   4.852   4.381  0.2658  2.1369 -1.3353
    7MOL0     H  883  10.336   4.869   4.560 -2.2960  2.3208  0.9474
    7MOL0     H  884  10.268   5.095   4.370 -0.9889 -0.9710 -0.3144
    7MOL0     H  885  10.430   5.069   4.455  0.1754 -0.0383  2.7271
    7MOL0     H  886  10.161   5.128   4.573 -0.3812 -3.6839  0.7960
    7MOL0     H  887  10.291   5.063   4.669 -3.9786  1.5383  1.2801
    7MOL0     H  888  10.444   5.245   4.622  0.8491  2.7781 -1.1753
    7MOL0     H  889  10.340   5.320   4.504 -0.8802  2.7560  2.2656
    7MOL0     H  890  10.156   5.359   4.676 -0.0750 -2.4049 -2.6842
    7MOL0     H  891  10.252   5.285   4.799 -3.9714  1.3368  0.8451
    7MOL0     H  892  10.419   5.445   4.785 -0.5622  1.1830  0.1277
    7MOL0     H  893  10.269   5.526   4.806 -0.3894  1.4426 -0.5913
    7MOL0     H  894  10.408   5.653   4.661  0.6045  0.5006 -0.5823
    7MOL0     H  895  10.413   5.529   4.536  1.2158 -0.2134  1.2784
    7MOL0     H  896  10.094   5.695   4.756 -1.9001  0.6213 -0.3119
    7MOL0     H  897   9.810   5.744   4.535  0.7394 -2.4233  1.1041
    7MOL0     H  898   9.861   5.746   4.704 -2.9294 -3.2350 -1.4628
    7MOL0     H  899   9.989   5.961   4.669 -1.5527  4.3822  0.6816
    7MOL0     H  900   9.892   5.972   4.517  1.8570 -1.6696 -0.3626
    7MOL0     H  901   9.763   5.935   4.793 -1.0468  1.6785 -0.4969
    7MOL0     H  902   9.680   5.964   4.644  0.5685 -4.9297  0.5777
    7MOL0     H  903   9.680   6.176   4.741 -0.9149  0.3687 -1.3926
    7MOL0     H  904   9.837   6.190   4.653  1.8505 -0.7351  0.4812
    7MOL0     H  905   9.822   6.064   5.107 -2.5588  1.0981  0.0406
    7MOL0     H  906   9.815   6.225   5.300  0.3841 -2.2708 -0.2654
    7MOL0     H  907   9.743   6.857   5.258  0.6036 -2.1841 -0.2909
    7MOL0     H  908   9.631   7.017   5.431  1.6349  0.1197  0.2227
    7MOL0     H  909   9.369   6.809   5.728 -0.1317 -0.8947 -2.1369
    7MOL0     H  910   9.379   6.961   5.795  0.7974  1.9029 -0.9681
    7MOL0     H  911   9.187   6.966   5.738  1.0055  2.6400  1.1667
    7MOL0     H  912   9.243   7.059   5.602  2.5756 -0.0033  0.5209
    7MOL0     H  913   9.234   6.872   5.444  0.1095  0.6561  1.1712
    7MOL0     H  914   9.182   6.756   5.579  2.0865  0.7510  1.8840
    7MOL0     H  915   8.972   6.835   5.569  0.5286  1.7681 -0.4539
    7MOL0     H  916   9.006   6.858   5.396 -0.1362  2.1349 -1.2090
    7MOL0     H  917   9.078   7.084   5.450  1.0148 -2.2626  1.1665
    7MOL0     H  918   8.986   7.069   5.598  2.9274 -0.9945  0.3841
    7MOL0     H  919   8.899   7.081   5.304  0.3473 -0.6035  0.3379
    7MOL0     H  920   8.787   6.987   5.423 -0.6342  0.6305  1.3942
    7MOL0     H  921   8.730   7.162   5.523  0.5102  0.7494  1.9846
    7MOL0     H  922   8.697   7.205   5.349  0.4274 -0.5659  0.8363
    7MOL0     H  923   8.800   7.409   5.454  0.9773  1.2003  1.0477
    7MOL0     H  924   8.949   7.313   5.492  0.6817 -0.0590 -0.4147
    7MOL0     H  925   9.468   6.677   5.619  2.7841 -1.0331  0.1295
    7MOL0     H  926   9.558   6.534   5.455  1.4642  0.0281 -1.5701
    7MOL0     H  927   9.782   6.552   5.026 -0.6485 -0.8697  0.8696
    7MOL0     H  928   9.820   6.416   4.840 -1.7852 -2.0355 -2.5286
    7MOL0     H  929   9.885   4.744   4.282  0.4042 -0.3890 -0.1630
    7MOL0     H  930   9.852   4.673   4.065 -0.3317  0.0116 -0.0497
    7MOL0     H  931  10.100   4.767   3.582 -0.1504 -1.2122 -0.4646
    7MOL0     H  932  10.122   4.669   3.359 -0.9363 -0.4207 -0.4946
    7MOL0     H  933   9.832   4.464   3.173  0.3357 -0.3116 -2.1874
    7MOL0     H  934   9.881   4.318   3.251  4.4623 -2.8972 -0.3994
    7MOL0     H  935   9.936   4.251   3.043 -1.1973 -1.3024  1.3266
    7MOL0     H  936  10.083   4.339   3.073 -0.6590 -2.1960  0.8052
    7MOL0     H  937  10.048   4.441   2.885 -1.7752 -3.9893 -2.8961
    7MOL0     H  938   9.971   4.559   2.994 -0.7205  0.0150 -0.1170
    7MOL0     H  939   9.766   4.407   2.948 -1.3451  0.9458 -0.5934
    7MOL0     H  940   9.819   4.524   2.816  2.9485  0.6469 -2.5578
    7MOL0     H  941   9.911   4.105   2.700 -1.9247  0.6111  0.1359
    7MOL0     H  942   9.856   4.356   3.458 -0.1783  0.5751 -0.2682
    7MOL0     H  943   9.877   4.416   3.795 -2.3702  0.2739  1.8888
    7MOL0     H  944   9.721   4.422   3.744 -0.3463 -1.4965 -0.3043
    7MOL0     H  945   9.835   4.308   3.659  2.4245  0.8178 -1.2772
    8MOL0     O  946   9.333   1.621   1.560  0.6756 -0.7907  0.3329
    8MOL0     C  947   9.238   1.678   1.603  0.0604 -0.2156  0.1254
    8MOL0     O  948   9.238   1.790   1.689 -0.7375  0.2234  0.5003
    8MOL0     C  949   9.353   1.863   1.711  0.5243 -1.2079  0.8986
    8MOL0     C  950   9.472   1.790   1.758 -0.1908  0.7525 -0.3282
    8MOL0     C  951   9.591   1.860   1.786 -0.3332 -0.0919  0.7910
    8MOL0     C  952   9.605   1.993   1.755  0.5199  0.7152  0.7720
    8MOL0     O  953   9.725   2.057   1.749 -0.1433  0.5257  0.8696
    8MOL0     C  954   9.805   2.067   1.880  0.8842  0.6683 -0.1706
    8MOL0     C  955   9.804   2.206   1.944  0.4978 -0.4116  0.6948
    8MOL0     C  956   9.920   2.233   2.043  0.0014 -0.2004  0.7502
    8MOL0     C  957  10.027   2.321   1.984  0.2193 -0.0907  0.2890
    8MOL0     C  958  10.105   2.413   2.084 -0.6166  0.2363 -1.1798
    8MOL0     C  959  10.248   2.385   2.063 -0.8807  0.5089  0.1314
    8MOL0     C  960  10.313   2.254   2.116  0.7137 -0.1643 -2.0418
    8MOL0     C  961  10.277   2.234   2.268 -0.3871  0.8799 -0.0968
    8MOL0     N  962  10.372   2.134   2.323 -0.7510  0.3919 -0.4222
    8MOL0     C  963  10.462   2.154   2.429 -1.0045 -0.4977  0.4346
    8MOL0     C  964  10.540   2.042   2.431 -1.3393  0.1974 -0.5770
    8MOL0     C  965  10.656   1.995   2.512 -0.4445  0.1579 -0.3957
    8MOL0     C  966  10.674   2.061   2.654  0.6925  0.5802 -0.7715
    8MOL0     C  967  10.751   2.190   2.662 -0.1073 -0.6341  0.9801
    8MOL0     C  968  10.890   2.184   2.582  0.2111 -0.7262  0.3102
    8MOL0     O  969  10.990   2.282   2.620  0.7252  0.4697  0.6072
    8MOL0     C  970  10.966   2.418   2.611 -0.0319 -0.4540 -0.1149
    8MOL0     C  971  11.009   2.483   2.726 -0.3424 -0.4909  0.5311
    8MOL0     C  972  10.988   2.630   2.729 -0.1570  0.0081  0.1583
    8MOL0     C  973  10.919   2.698   2.629  0.6516 -0.0761  0.3893
    8MOL0     C  974  10.921   2.846   2.638  0.1905 -0.8096 -1.1448
    8MOL0     O  975  10.936   2.902   2.759  0.6498  0.6541 -0.1388
    8MOL0     C  976  10.971   3.036   2.781  0.6420 -0.2619 -0.8231
    8MOL0     C  977  11.095   3.079   2.804  0.4026 -0.8270 -0.8850
    8MOL0     C  978  11.134   3.218   2.820 -0.0152 -0.4302 -0.6885
    8MOL0     C  979  11.031   3.309   2.835 -0.5082  1.0314  0.9563
    8MOL0     O  980  11.054   3.443   2.865 -0.6217 -0.1713  0.5642
    8MOL0     C  981  10.939   3.532   2.871 -0.0914 -0.2890 -0.0798
    8MOL0     C  982  10.999   3.682   2.885 -0.3011 -0.5055 -0.1153
    8MOL0     C  983  11.091   3.714   2.775 -1.3400 -0.1123  0.3853
    8MOL0     C  984  11.035   3.705   2.635 -0.5899 -0.3195 -0.5581
    8MOL0     C  985  11.121   3.786   2.536 -0.4538 -0.4718 -0.2223
    8MOL0     C  986  11.073   3.768   2.390 -0.2124 -0.5231  0.0085
    8MOL0     C  987  11.169   3.824   2.289  0.4767 -0.8539 -0.1173
    8MOL0     C  988  11.169   3.981   2.282  0.5150 -0.3505  0.0813
    8MOL0    Cl  989  11.006   4.063   2.266 -0.0591  0.2764  0.2424
    8MOL0     C  990  10.897   3.261   2.811 -0.2716  0.7112 -0.3900
    8MOL0     C  991  10.863   3.124   2.790  0.0663 -0.2127  1.2417
    8MOL0     O  992  10.903   2.913   2.535 -0.4304 -0.1846  0.0897
    8MOL0     C  993  10.873   2.624   2.515 -0.2988 -0.3161 -0.0866
    8MOL0     C  994  10.905   2.491   2.504 -0.2145  0.6275 -0.2522
    8MOL0     N  995  10.508   1.958   2.326  0.4128  0.1471  0.5747
    8MOL0     N  996  10.403   2.012   2.267  0.1013  0.0303  0.4790
    8MOL0     C  997   9.489   2.064   1.712 -0.0272  0.7125  0.8621
    8MOL0     C  998   9.359   2.003   1.699 -0.0745 -0.5967  0.5857
    8MOL0     C  999   9.103   1.603   1.581  0.2517  0.0636 -0.4950
    8MOL0     C 1000   9.006   1.623   1.674  0.2493  0.2494  0.7723
    8MOL0     C 1001   8.884   1.550   1.669 -0.3210  0.4844 -0.8648
    8MOL0     C 1002   8.845   1.481   1.558  0.8530 -0.1032 -0.1261
    8MOL0     O 1003   8.719   1.422   1.557 -0.0562  0.2994 -0.4732
    8MOL0     C 1004   8.681   1.329   1.458  0.4850 -0.3472 -0.1633
    8MOL0     C 1005   8.622   1.410   1.340  0.1680  0.5116 -1.0674
    8MOL0     C 1006   8.591   1.320   1.213 -0.8511 -0.2480 -0.3909
    8MOL0     C 1007   8.496   1.390   1.100  1.1035 -0.9712 -0.4151
    8MOL0     C 1008   8.357   1.382   1.142 -0.7177 -0.1842 -0.3868
    8MOL0     C 1009   8.234   1.377   1.157  0.7960  1.0577 -0.5102
    8MOL0     C 1010   8.940   1.465   1.455  0.3018 -0.3554 -0.4036
    8MOL0     C 1011   9.074   1.516   1.468  0.1827 -0.7785  0.7508
    8MOL0     C 1012   9.180   1.483   1.367  0.6855 -0.3747  0.8354
    8MOL0     H 1013   9.476   1.682   1.759 -0.5879  0.7121  2.0066
    8MOL0     H 1014   9.683   1.807   1.807  2.2041  2.3017 -2.8884
    8MOL0     H 1015   9.787   1.979   1.942  0.0928  1.0997  0.2216
    8MOL0     H 1016   9.912   2.056   1.856  0.4863  1.5816 -2.7811
    8MOL0     H 1017   9.714   2.227   2.003 -0.6053 -1.5343 -0.5296
    8MOL0     H 1018   9.806   2.278   1.862  3.1722  0.3380  1.3295
    8MOL0     H 1019   9.974   2.141   2.068  1.6660  0.1482 -1.2291
    8MOL0     H 1020   9.882   2.284   2.131 -0.6946  1.4666 -0.4627
    8MOL0     H 1021  10.094   2.250   1.933 -1.2324 -0.8145 -0.6692
    8MOL0     H 1022   9.971   2.376   1.908 -0.8585 -0.8935  0.4901
    8MOL0     H 1023  10.080   2.518   2.064  2.8458  2.2698  3.3951
    8MOL0     H 1024  10.075   2.408   2.189 -0.7872 -1.1959 -1.2788
    8MOL0     H 1025  10.264   2.385   1.955  0.6325 -1.0889  0.3049
    8MOL0     H 1026  10.309   2.466   2.102  2.3855 -2.0234  0.7695
    8MOL0     H 1027  10.421   2.268   2.102  1.2681  0.6735  1.8384
    8MOL0     H 1028  10.286   2.168   2.055 -3.8067 -1.7153  1.5509
    8MOL0     H 1029  10.279   2.330   2.320 -0.7716  0.5378  0.5595
    8MOL0     H 1030  10.177   2.196   2.290 -0.2326 -0.1928 -1.1052
    8MOL0     H 1031  10.449   2.236   2.499 -0.3107 -0.8524  0.9914
    8MOL0     H 1032  10.647   1.888   2.531 -1.0318  0.3419  0.4338
    8MOL0     H 1033  10.746   2.004   2.450  0.8980  2.4088  1.6818
    8MOL0     H 1034  10.575   2.062   2.701  0.6971 -0.6347 -0.7115
    8MOL0     H 1035  10.739   1.995   2.713  0.3591  1.4989  0.6850
    8MOL0     H 1036  10.766   2.218   2.767  2.8094  1.0001  0.2500
    8MOL0     H 1037  10.690   2.272   2.620  0.0405 -1.2411 -0.4652
    8MOL0     H 1038  10.859   2.201   2.478  0.7180 -1.7759 -0.0261
    8MOL0     H 1039  10.920   2.082   2.605 -0.5463 -1.4774 -1.8122
    8MOL0     H 1040  11.057   2.437   2.812  0.6946  0.6648  0.5909
    8MOL0     H 1041  11.039   2.680   2.811 -1.1521  1.1678  0.1117
    8MOL0     H 1042  11.175   3.009   2.782 -1.3836 -2.2540 -3.3863
    8MOL0     H 1043  11.237   3.250   2.834  0.7655 -1.7347 -2.9396
    8MOL0     H 1044  10.889   3.537   2.774  3.4580  1.5448 -2.0596
    8MOL0     H 1045  10.876   3.508   2.957  0.1978 -0.1865  0.1632
    8MOL0     H 1046  10.913   3.749   2.882  0.7727  0.8890 -1.2031
    8MOL0     H 1047  11.048   3.688   2.983  0.4715  1.1803 -0.5756
    8MOL0     H 1048  11.104   3.821   2.795 -1.4824 -0.2081  1.0257
    8MOL0     H 1049  11.184   3.657   2.778 -0.1906  1.1982 -3.8188
    8MOL0     H 1050  10.936   3.751   2.642 -0.6821 -0.4300 -1.0712
    8MOL0     H 1051  11.028   3.599   2.607  2.4775 -0.0040 -3.0150
    8MOL0     H 1052  11.224   3.749   2.545 -0.6567 -0.8472  0.7020
    8MOL0     H 1053  11.130   3.891   2.566  3.0797 -0.7635  0.2335
    8MOL0     H 1054  11.074   3.661   2.368 -2.7509 -0.2754 -1.7216
    8MOL0     H 1055  10.979   3.812   2.356  0.9251 -0.4965 -3.4124
    8MOL0     H 1056  11.149   3.787   2.188  1.0793 -0.7625 -0.2757
    8MOL0     H 1057  11.270   3.790   2.313  0.9250  0.2419 -0.3694
    8MOL0     H 1058  11.215   4.017   2.374 -1.5573 -3.8035  2.7050
    8MOL0     H 1059  11.228   4.025   2.201 -2.4965 -1.8317 -3.1987
    8MOL0     H 1060  10.813   3.330   2.823 -0.5030  0.6020 -1.2999
    8MOL0     H 1061  10.762   3.092   2.766 -0.7931  3.0388 -0.0282
    8MOL0     H 1062  10.825   2.671   2.430  0.5139 -2.2626 -1.7280
    8MOL0     H 1063  10.867   2.434   2.420 -1.6907  1.5772 -0.2791
    8MOL0     H 1064   9.506   2.167   1.681  1.1504  0.5330  0.8781
    8MOL0     H 1065   9.269   2.057   1.669  0.1415 -2.1412 -3.5051
    8MOL0     H 1066   9.004   1.700   1.751 -2.7780  0.3524  0.7165
    8MOL0     H 1067   8.811   1.577   1.744  1.4845 -1.4950  1.8293
    8MOL0     H 1068   8.610   1.256   1.497 -1.0711  1.7262  1.0691
    8MOL0     H 1069   8.775   1.286   1.422  2.7370  3.7627  0.1552
    8MOL0     H 1070   8.686   1.490   1.301 -1.6528  1.6672 -1.8363
    8MOL0     H 1071   8.522   1.452   1.357 -0.1740  0.6936 -3.2260
    8MOL0     H 1072   8.545   1.225   1.242 -0.6745 -1.2095 -3.0235
    8MOL0     H 1073   8.682   1.288   1.162  0.5981  0.9521  1.3006
    8MOL0     H 1074   8.524   1.496   1.089 -0.0545 -0.7708 -1.7271
    8MOL0     H 1075   8.505   1.349   0.999  1.8203  0.5548 -1.0022
    8MOL0     H 1076   8.138   1.350   1.198  3.2781 -0.2235  5.5304
    8MOL0     H 1077   8.901   1.419   1.364 -1.0139 -1.5730  0.7166
    8MOL0     H 1078   9.216   1.579   1.329 -1.1179 -0.1156 -0.3339
    8MOL0     H 1079   9.260   1.429   1.419  1.2490 -0.4127 -0.0579
    8MOL0     H 1080   9.147   1.426   1.280 -2.8453 -1.8252  2.8960
    9MOL0     O 1081   9.859   5.764  10.620  0.6010 -0.6453 -0.3130
    9MOL0     C 1082   9.916   5.872  10.641  1.4686  0.1613  1.0420
    9MOL0     O 1083   9.985   5.910  10.748 -0.8309  0.0008 -0.1258
    9MOL0     C 1084  10.010   5.826  10.853 -1.0740 -0.1074 -0.1702
    9MOL0     C 1085  10.140   5.810  10.891 -0.2804  0.5352 -0.8582
    9MOL0     C 1086  10.160   5.720  10.994  0.1937  0.4571 -0.4661
    9MOL0     C 1087  10.054   5.663  11.062 -0.8101 -0.5028 -0.5301
    9MOL0     O 1088  10.071   5.591  11.179  0.5700  0.2437  1.1994
    9MOL0     C 1089  10.198   5.542  11.220 -0.1351 -1.1230 -0.6756
    9MOL0     C 1090  10.182   5.421  11.303  0.2469  0.0774  0.4660
    9MOL0     C 1091  10.113   5.305  11.221  0.2881 -0.1267 -0.0934
    9MOL0     C 1092  10.097   5.186  11.317 -0.9098 -0.6419  0.2769
    9MOL0     C 1093  10.033   5.073  11.244 -0.2991  0.4482  0.4912
    9MOL0     C 1094  10.137   4.984  11.171 -0.1581 -0.4703 -0.3088
    9MOL0     C 1095  10.068   4.882  11.077 -0.2072 -0.8119  0.6853
    9MOL0     C 1096  10.163   4.790  10.997  0.0667 -0.2705  0.1211
    9MOL0     N 1097  10.253   4.711  11.072 -0.3336  0.3124 -0.8032
    9MOL0     C 1098  10.231   4.571  11.102  0.5139  0.8395  0.5303
    9MOL0     C 1099  10.351   4.526  11.152 -0.4787 -0.6038 -0.0682
    9MOL0     C 1100  10.383   4.396  11.203  0.4234 -0.1906 -0.4955
    9MOL0     C 1101  10.310   4.337  11.321 -0.3324 -0.0457  1.0997
    9MOL0     C 1102  10.174   4.282  11.290  0.7414 -0.1746 -1.2189
    9MOL0     C 1103  10.131   4.197  11.416  0.3873  0.3606  0.3416
    9MOL0     O 1104  10.221   4.098  11.454 -0.0340 -0.4225 -0.0219
    9MOL0     C 1105  10.215   3.982  11.380  1.0424 -0.2308  0.2259
    9MOL0     C 1106  10.103   3.911  11.360 -0.1323  0.6378 -0.2441
    9MOL0     C 1107  10.089   3.818  11.256  0.0764 -0.5003 -0.3068
    9MOL0     C 1108  10.203   3.773  11.191 -0.8163  0.1398 -0.0551
    9MOL0     C 1109  10.197   3.664  11.089  0.0447  0.0481  1.1408
    9MOL0     O 1110  10.067   3.615  11.073  0.4162 -0.0632 -0.1004
    9MOL0     C 1111  10.051   3.500  11.011  0.4018 -1.2196  0.4232
    9MOL0     C 1112  10.080   3.376  11.071 -0.2950 -0.0256  0.3264
    9MOL0     C 1113  10.040   3.258  11.005 -1.0150  0.1425 -0.5144
    9MOL0     C 1114   9.981   3.265  10.880 -0.9095  0.8292 -0.1827
    9MOL0     O 1115   9.965   3.138  10.826  0.3940 -0.3507 -0.5231
    9MOL0     C 1116   9.896   3.134  10.698  0.1569  0.4850  0.5105
    9MOL0     C 1117  10.001   3.150  10.593  0.6853  0.3276  1.2289
    9MOL0     C 1118  10.111   3.043  10.605 -0.2392  0.4454 -0.4572
    9MOL0     C 1119  10.215   3.055  10.490  0.6629  0.0982 -0.7583
    9MOL0     C 1120  10.313   2.929  10.482  0.9140 -0.2360 -0.3699
    9MOL0     C 1121  10.403   2.925  10.607  0.2131 -0.1272  0.4319
    9MOL0     C 1122  10.523   2.836  10.587 -0.8040  0.4574 -0.2882
    9MOL0     C 1123  10.629   2.863  10.687 -1.0297  0.5073 -0.2869
    9MOL0    Cl 1124  10.558   2.829  10.849 -0.2482  0.1176 -0.3028
    9MOL0     C 1125   9.945   3.390  10.823 -0.2073  0.1906  0.4025
    9MOL0     C 1126   9.972   3.508  10.896 -0.9347 -1.1102  0.0115
    9MOL0     O 1127  10.299   3.619  11.030  0.5002  0.0852  0.1301
    9MOL0     C 1128  10.331   3.831  11.225 -0.0692 -0.1833 -0.7503
    9MOL0     C 1129  10.325   3.942  11.309 -0.1429  0.6887 -1.1940
    9MOL0     N 1130  10.445   4.638  11.156 -0.0568  0.5029  0.6835
    9MOL0     N 1131  10.379   4.749  11.121 -0.2970  0.0570 -0.1973
    9MOL0     C 1132   9.923   5.681  11.020  0.6480 -0.5164  0.2329
    9MOL0     C 1133   9.900   5.768  10.926  0.3982  0.1594  0.2713
    9MOL0     C 1134   9.929   5.970  10.530  0.2157  0.7304 -0.1017
    9MOL0     C 1135   9.986   5.923  10.416 -0.7897 -0.3699  0.6186
    9MOL0     C 1136   9.988   6.004  10.300  0.5464 -0.0959 -0.7967
    9MOL0     C 1137   9.934   6.133  10.300 -1.1317  0.4561 -0.3859
    9MOL0     O 1138   9.928   6.202  10.188 -0.4221  0.3285  0.6476
    9MOL0     C 1139   9.798   6.178  10.112  0.7551  0.6196 -1.1434
    9MOL0     C 1140   9.688   6.289  10.148 -0.3399  0.0753 -0.2651
    9MOL0     C 1141   9.573   6.272  10.055  0.2821 -0.7423  0.2884
    9MOL0     C 1142   9.447   6.345  10.111  0.5004  0.4580  0.0144
    9MOL0     C 1143   9.473   6.485  10.141  0.2325 -0.9385  0.4327
    9MOL0     C 1144   9.494   6.602  10.167 -0.0675  0.2984  0.3472
    9MOL0     C 1145   9.899   6.176  10.426  0.2765 -0.2025 -1.1348
    9MOL0     C 1146   9.866   6.092  10.536  0.4469 -0.3899  0.0881
    9MOL0     C 1147   9.779   6.148  10.640  1.3980 -0.5238 -0.2080
    9MOL0     H 1148  10.217   5.860  10.833  1.9471 -1.1188  0.5261
    9MOL0     H 1149  10.261   5.706  11.032 -1.2967 -0.1742  3.8219
    9MOL0     H 1150  10.266   5.530  11.134  2.1815 -0.8227  1.0006
    9MOL0     H 1151  10.253   5.620  11.274  0.9096  1.3835 -4.9051
    9MOL0     H 1152  10.129   5.445  11.395 -0.4417  1.9781 -0.3715
    9MOL0     H 1153  10.283   5.387  11.328  0.3771  0.8331  1.0039
    9MOL0     H 1154  10.164   5.286  11.126  1.8487  0.0568  0.6894
    9MOL0     H 1155  10.013   5.343  11.196  0.5102  1.5957  1.5022
    9MOL0     H 1156  10.192   5.155  11.361  0.1987  2.4179  0.2475
    9MOL0     H 1157  10.032   5.215  11.400  0.1715 -0.8748  1.2102
    9MOL0     H 1158   9.974   5.014  11.315 -1.6412 -1.1108 -1.7904
    9MOL0     H 1159   9.956   5.102  11.172 -0.1813 -2.9378 -1.1749
    9MOL0     H 1160  10.196   5.055  11.113 -1.5652  0.6318 -0.4461
    9MOL0     H 1161  10.189   4.919  11.243 -0.8165 -1.5516 -0.7798
    9MOL0     H 1162  10.015   4.935  10.998 -1.4401  1.3961  2.8528
    9MOL0     H 1163   9.998   4.817  11.131 -1.1021 -1.0640 -0.7290
    9MOL0     H 1164  10.101   4.728  10.932 -1.8522  1.3938  0.2842
    9MOL0     H 1165  10.215   4.868  10.941  1.6327  0.8768  2.9974
    9MOL0     H 1166  10.147   4.506  11.079  1.0057  0.9200 -1.7423
    9MOL0     H 1167  10.386   4.331  11.115  2.1305 -1.1773  0.2350
    9MOL0     H 1168  10.487   4.403  11.236  1.5299 -1.8702 -3.2053
    9MOL0     H 1169  10.376   4.250  11.338  0.3542  0.6400  2.0140
    9MOL0     H 1170  10.318   4.412  11.399 -4.5864  1.9830 -0.1651
    9MOL0     H 1171  10.172   4.204  11.212 -3.8000  0.0167 -1.5355
    9MOL0     H 1172  10.100   4.357  11.260 -1.7985 -0.7470  2.9426
    9MOL0     H 1173  10.031   4.156  11.402 -0.2490  1.1574  2.2051
    9MOL0     H 1174  10.131   4.274  11.494  2.4882  2.6280 -1.7017
    9MOL0     H 1175  10.009   3.937  11.408 -2.0898  0.6073 -3.7482
    9MOL0     H 1176   9.992   3.773  11.242 -0.2282  0.0597 -0.0080
    9MOL0     H 1177  10.137   3.354  11.161 -1.7339 -0.6003  1.1349
    9MOL0     H 1178  10.070   3.164  11.050 -3.8460  0.9888  3.7958
    9MOL0     H 1179   9.840   3.040  10.692 -0.9445  1.2124 -2.2672
    9MOL0     H 1180   9.821   3.214  10.689  0.0342  0.4905  1.4902
    9MOL0     H 1181   9.949   3.143  10.498 -1.4277  1.4038  2.2329
    9MOL0     H 1182  10.049   3.249  10.597 -0.7048  1.1436 -0.7142
    9MOL0     H 1183  10.156   3.044  10.705  1.0452 -2.9099 -0.8819
    9MOL0     H 1184  10.073   2.944  10.579  1.0053  0.4358 -2.4611
    9MOL0     H 1185  10.267   3.150  10.503 -0.3055  0.3609  1.7415
    9MOL0     H 1186  10.175   3.071  10.390  1.8809 -0.3698 -1.3355
    9MOL0     H 1187  10.379   2.949  10.396  0.1412  1.6901 -0.5526
    9MOL0     H 1188  10.259   2.835  10.473  1.5978 -0.6197 -0.5436
    9MOL0     H 1189  10.433   3.028  10.627 -3.1471  1.2111 -0.6773
    9MOL0     H 1190  10.342   2.903  10.695  1.2527  2.2544  1.8264
    9MOL0     H 1191  10.571   2.854  10.490 -1.0982  2.4418 -0.1013
    9MOL0     H 1192  10.503   2.728  10.595  1.1195  0.0476 -0.6059
    9MOL0     H 1193  10.711   2.793  10.664  0.8103  2.5108 -0.1533
    9MOL0     H 1194  10.660   2.967  10.674 -2.1759  1.0130  0.8485
    9MOL0     H 1195   9.904   3.395  10.723  0.4145  4.3838  0.1828
    9MOL0     H 1196   9.940   3.609  10.871 -3.1609 -1.4396  1.2239
    9MOL0     H 1197  10.426   3.809  11.177  0.9791 -0.2818  1.2646
    9MOL0     H 1198  10.422   3.989  11.321  0.2834  0.5253 -3.5245
    9MOL0     H 1199   9.839   5.627  11.062  0.2870  0.2743  0.5331
    9MOL0     H 1200   9.798   5.787  10.895 -0.3054 -1.9570  1.1571
    9MOL0     H 1201  10.025   5.822  10.419 -1.0516 -0.4567  3.4162
    9MOL0     H 1202  10.039   5.958  10.217  0.7195  0.9393 -1.2755
    9MOL0     H 1203   9.753   6.083  10.144 -2.7599  1.8699 -1.9019
    9MOL0     H 1204   9.819   6.175  10.005  0.7492  1.0593 -1.1592
    9MOL0     H 1205   9.729   6.391  10.144 -3.6449  1.5439 -1.1410
    9MOL0     H 1206   9.655   6.272  10.251 -3.5660  0.3701 -1.1275
    9MOL0     H 1207   9.565   6.165  10.032 -0.0060 -0.4779 -0.8558
    9MOL0     H 1208   9.599   6.317   9.960  0.2544 -3.1150 -0.9232
    9MOL0     H 1209   9.361   6.337  10.044 -2.1976 -5.1298  3.3088
    9MOL0     H 1210   9.403   6.309  10.205  0.7150  0.5160  0.1372
    9MOL0     H 1211   9.522   6.705  10.169 -0.0103  0.3141  3.0400
    9MOL0     H 1212   9.863   6.278  10.435 -1.5446 -0.9456  0.7733
    9MOL0     H 1213   9.676   6.134  10.607  0.8461  1.9227  0.2925
    9MOL0     H 1214   9.799   6.108  10.740  1.5817  0.4778  0.1723
    9MOL0     H 1215   9.770   6.257  10.647  1.6560 -0.4653 -0.7350
   10MOL0     O 1216   2.140  10.714   2.266 -0.4050  0.6978 -0.0494
   10MOL0     C 1217   2.017  10.705   2.259  1.6196  0.0330 -0.4211
   10MOL0     O 1218   1.928  10.707   2.366  0.9377 -0.0432 -0.4029
   10MOL0     C 1219   1.992  10.714   2.493  0.3739 -0.3846 -0.0223
   10MOL0     C 1220   2.043  10.828   2.551 -0.1614  0.1690  0.7005
   10MOL0     C 1221   2.108  10.834   2.677 -0.0089  0.7459  0.3237
   10MOL0     C 1222   2.130  10.709   2.749 -0.4547 -0.3579 -0.4077
   10MOL0     O 1223   2.205  10.686   2.864 -0.0745 -0.5509 -0.3491
   10MOL0     C 1224   2.291  10.800   2.911 -0.1983  1.0815  0.9764
   10MOL0     C 1225   2.211  10.902   2.987  0.2367 -0.3303 -0.8441
   10MOL0     C 1226   2.117  10.860   3.110  0.0865 -0.4990 -1.4031
   10MOL0     C 1227   2.188  10.838   3.240 -0.4666 -0.5340  0.6913
   10MOL0     C 1228   2.080  10.804   3.356  0.0843  0.2849 -0.4870
   10MOL0     C 1229   2.145  10.771   3.493 -0.0471 -1.2185  0.4158
   10MOL0     C 1230   2.043  10.716   3.581  0.0018  0.2725  0.4834
   10MOL0     C 1231   1.976  10.586   3.529 -0.3538  0.2024 -0.7956
   10MOL0     N 1232   1.867  10.561   3.622 -0.2197 -0.4163 -0.1798
   10MOL0     C 1233   1.887  10.488   3.734  0.1555 -1.0307 -0.2624
   10MOL0     C 1234   1.776  10.511   3.806  0.3008  0.9694 -0.2116
   10MOL0     C 1235   1.732  10.457   3.940  0.0259 -0.7411  0.1269
   10MOL0     C 1236   1.848  10.416   4.028 -0.4498 -0.0752 -1.1150
   10MOL0     C 1237   1.913  10.279   3.994 -0.3044  0.0817  0.6329
   10MOL0     C 1238   2.047  10.244   4.063 -0.2898 -0.1248 -0.1812
   10MOL0     O 1239   2.139  10.200   3.957 -0.0074 -0.6866 -0.1337
   10MOL0     C 1240   2.242  10.114   3.988 -0.3691  1.0632 -0.1613
   10MOL0     C 1241   2.287  10.033   3.886 -0.3593 -0.0260 -0.2568
   10MOL0     C 1242   2.401   9.949   3.908  1.3716  0.3271 -0.0058
   10MOL0     C 1243   2.477   9.956   4.024 -0.0043 -0.1144  0.5490
   10MOL0     C 1244   2.598   9.875   4.044  0.5791  0.9400 -0.8105
   10MOL0     O 1245   2.678   9.935   4.137 -0.2865 -0.1882  0.4574
   10MOL0     C 1246   2.775   9.857   4.200 -0.2601 -0.5325 -0.5787
   10MOL0     C 1247   2.776   9.722   4.221 -0.8658  0.9529  0.0235
   10MOL0     C 1248   2.877   9.668   4.311  0.3463  0.2172  1.0714
   10MOL0     C 1249   2.983   9.744   4.357  1.0024  0.5171  0.0308
   10MOL0     O 1250   3.083   9.698   4.442  0.2239  0.4814  0.2884
   10MOL0     C 1251   3.213   9.707   4.387  0.2969 -0.2832  0.6060
   10MOL0     C 1252   3.297   9.608   4.472 -0.5068 -0.6810 -0.4053
   10MOL0     C 1253   3.425   9.568   4.394 -0.0328 -0.3333  0.4869
   10MOL0     C 1254   3.520   9.493   4.488  0.1983 -0.7920 -0.6068
   10MOL0     C 1255   3.637   9.436   4.399  0.4190 -0.4005 -0.2463
   10MOL0     C 1256   3.735   9.547   4.343  0.0834 -0.2286 -1.0237
   10MOL0     C 1257   3.767   9.654   4.441 -0.3376  1.1321 -0.5476
   10MOL0     C 1258   3.848   9.775   4.386  0.4967  0.2940  0.2502
   10MOL0    Cl 1259   3.965   9.737   4.243 -0.1050 -0.1458 -0.4233
   10MOL0     C 1260   2.982   9.882   4.321  1.0846 -0.3446 -0.1569
   10MOL0     C 1261   2.869   9.935   4.261  0.0119  0.1485  0.3768
   10MOL0     O 1262   2.619   9.765   3.988 -0.1997 -0.1029 -0.3713
   10MOL0     C 1263   2.419  10.038   4.128 -0.4724 -0.0640 -0.1132
   10MOL0     C 1264   2.301  10.115   4.119 -0.4927  0.0063 -0.1504
   10MOL0     N 1265   1.689  10.576   3.733 -0.8472 -1.2519  0.3936
   10MOL0     N 1266   1.745  10.617   3.621 -0.8060 -0.0481  0.0398
   10MOL0     C 1267   2.088  10.593   2.689  0.5322  0.3641 -0.1111
   10MOL0     C 1268   2.009  10.594   2.569  0.1116  0.0199 -0.2702
   10MOL0     C 1269   1.959  10.727   2.123 -0.0652 -0.1323  0.1405
   10MOL0     C 1270   1.814  10.737   2.107  0.6161  0.6572  0.1762
   10MOL0     C 1271   1.758  10.741   1.977 -0.9244 -1.0884  0.5023
   10MOL0     C 1272   1.835  10.755   1.860  0.1972  0.0072  0.9027
   10MOL0     O 1273   1.785  10.749   1.733 -0.3811  0.2649 -0.1254
   10MOL0     C 1274   1.644  10.718   1.713 -0.6603  0.0145 -0.6043
   10MOL0     C 1275   1.597  10.759   1.574 -0.2476  0.2584 -0.9455
   10MOL0     C 1276   1.479  10.678   1.523 -0.0424 -0.4704  0.1737
   10MOL0     C 1277   1.457  10.711   1.375 -0.4859 -0.1678  0.0140
   10MOL0     C 1278   1.442  10.855   1.355 -0.1723 -0.3611 -0.2537
   10MOL0     C 1279   1.442  10.976   1.345  0.2326 -0.9607  0.0984
   10MOL0     C 1280   1.974  10.751   1.876  0.8656 -0.1193  0.2281
   10MOL0     C 1281   2.041  10.727   2.002  0.5147  0.4230 -0.2867
   10MOL0     C 1282   2.193  10.689   1.995  0.1832 -0.2724  0.0469
   10MOL0     H 1283   2.020  10.922   2.501 -0.9930  0.9043  2.3917
   10MOL0     H 1284   2.144  10.929   2.713  0.2706  0.8998 -0.3404
   10MOL0     H 1285   2.370  10.756   2.972  1.5088  1.5650 -0.7911
   10MOL0     H 1286   2.329  10.849   2.820 -0.5081 -1.9845 -0.9380
   10MOL0     H 1287   2.148  10.959   2.919  0.5049 -2.4048 -2.9646
   10MOL0     H 1288   2.282  10.979   3.020  3.9464 -3.2666 -1.2653
   10MOL0     H 1289   2.047  10.777   3.097 -1.2835 -0.0047  1.8245
   10MOL0     H 1290   2.054  10.941   3.147  1.9804 -0.0412  1.0362
   10MOL0     H 1291   2.248  10.749   3.218 -1.0152 -0.7834  0.2008
   10MOL0     H 1292   2.250  10.925   3.265 -1.8534  0.9560 -0.8340
   10MOL0     H 1293   2.020  10.895   3.366  2.8792  2.1815  0.3296
   10MOL0     H 1294   2.011  10.726   3.323  0.7549 -0.2418 -0.6457
   10MOL0     H 1295   2.234  10.708   3.501  2.3284  2.0349  1.6318
   10MOL0     H 1296   2.178  10.859   3.548 -1.7032 -1.2523  1.5402
   10MOL0     H 1297   1.955  10.782   3.582 -1.3214 -1.3268 -1.5783
   10MOL0     H 1298   2.077  10.701   3.684  3.3206  0.5907 -0.4611
   10MOL0     H 1299   1.934  10.591   3.428 -0.3486 -0.3280 -0.8254
   10MOL0     H 1300   2.041  10.498   3.527 -1.0495 -0.3705  0.7178
   10MOL0     H 1301   1.984  10.444   3.754  1.1964  0.9221 -0.6808
   10MOL0     H 1302   1.667  10.533   3.984  2.5970  2.0226 -0.4892
   10MOL0     H 1303   1.661  10.375   3.937  0.2407 -1.1239  2.6506
   10MOL0     H 1304   1.926  10.492   4.015  0.0798 -0.8455 -2.7059
   10MOL0     H 1305   1.813  10.416   4.131 -0.4317 -1.2210 -1.1039
   10MOL0     H 1306   1.923  10.272   3.886 -0.9922 -1.8723  0.6580
   10MOL0     H 1307   1.838  10.204   4.023 -0.0790 -0.2942  0.2549
   10MOL0     H 1308   2.037  10.161   4.134  2.5638 -0.0561  0.4017
   10MOL0     H 1309   2.073  10.333   4.121  1.4710  0.6608 -2.0563
   10MOL0     H 1310   2.232  10.025   3.793  0.4798  0.6193 -0.8293
   10MOL0     H 1311   2.449   9.880   3.839 -0.2972  1.4302 -2.3915
   10MOL0     H 1312   2.706   9.649   4.181  2.4797 -1.9481 -1.0713
   10MOL0     H 1313   2.874   9.564   4.342  1.8559 -0.3506 -0.5510
   10MOL0     H 1314   3.224   9.679   4.282 -2.6524  2.6713 -0.6869
   10MOL0     H 1315   3.247   9.810   4.398 -2.7325  0.9857 -0.7238
   10MOL0     H 1316   3.313   9.654   4.570 -0.2790 -3.3248  0.8880
   10MOL0     H 1317   3.240   9.516   4.494 -3.0803  1.1287  1.1065
   10MOL0     H 1318   3.398   9.502   4.311  1.1782 -3.0818  2.1278
   10MOL0     H 1319   3.475   9.652   4.345  1.5739 -0.9109  1.0384
   10MOL0     H 1320   3.462   9.412   4.533  0.3009 -0.3767  0.2770
   10MOL0     H 1321   3.550   9.557   4.571 -3.2958  1.4935 -0.8873
   10MOL0     H 1322   3.599   9.385   4.310  0.3240 -1.2996  0.2932
   10MOL0     H 1323   3.689   9.360   4.459 -0.8212  1.1354  3.0226
   10MOL0     H 1324   3.822   9.491   4.307 -0.4940  0.2945 -3.4819
   10MOL0     H 1325   3.692   9.607   4.262 -0.5995  3.3713  1.7603
   10MOL0     H 1326   3.816   9.610   4.528 -0.9856  0.3003 -0.5923
   10MOL0     H 1327   3.672   9.700   4.473  0.2473  3.6246 -2.1088
   10MOL0     H 1328   3.779   9.857   4.362  0.4113  0.5660  1.3655
   10MOL0     H 1329   3.907   9.814   4.469  0.2791 -1.0192  1.0380
   10MOL0     H 1330   3.052   9.957   4.357 -2.5021  2.9223  0.5965
   10MOL0     H 1331   2.861  10.042   4.244  3.6230  0.1598 -2.4873
   10MOL0     H 1332   2.471  10.049   4.223 -3.0378 -1.9430  1.6715
   10MOL0     H 1333   2.278  10.195   4.188 -1.6502  2.3239 -3.0484
   10MOL0     H 1334   2.102  10.496   2.736  0.5439 -0.0784 -1.0188
   10MOL0     H 1335   1.964  10.513   2.512 -0.7894  0.6517 -0.4789
   10MOL0     H 1336   1.750  10.731   2.195 -0.0487  0.4908 -0.3163
   10MOL0     H 1337   1.651  10.729   1.962 -0.4978 -4.1466 -0.9527
   10MOL0     H 1338   1.574  10.766   1.782  0.4699  0.3766  0.3245
   10MOL0     H 1339   1.650  10.609   1.721  3.3663  0.2333  1.6378
   10MOL0     H 1340   1.685  10.744   1.512  0.7211  1.9698 -0.0440
   10MOL0     H 1341   1.578  10.866   1.566 -1.1853  0.2884  1.1391
   10MOL0     H 1342   1.399  10.731   1.575  1.6975  1.6929  0.7985
   10MOL0     H 1343   1.484  10.570   1.539 -4.9743 -0.7992  0.8487
   10MOL0     H 1344   1.533  10.672   1.306  0.0946 -1.8550  1.5323
   10MOL0     H 1345   1.372  10.647   1.351 -1.3831  0.7503  0.6845
   10MOL0     H 1346   1.442  11.079   1.316  3.3659 -1.3856 -1.7838
   10MOL0     H 1347   2.036  10.757   1.786  1.6946  1.3528  0.8496
   10MOL0     H 1348   2.227  10.606   2.058  2.6446 -0.5565 -1.5139
   10MOL0     H 1349   2.228  10.653   1.898  0.8988 -1.0675  0.5782
   10MOL0     H 1350   2.247  10.778   2.028 -3.0080  0.9843  2.4350
   11MOL0     O 1351   4.294  10.255   1.286  0.4512 -0.4328  0.4364
   11MOL0     C 1352   4.273  10.355   1.357 -0.3412  0.5787  0.6781
   11MOL0     O 1353   4.372  10.403   1.445 -0.3162 -0.1214 -0.4319
   11MOL0     C 1354   4.492  10.334   1.450 -0.3641 -0.7072  0.1560
   11MOL0     C 1355   4.536  10.263   1.562 -0.1460 -0.2108 -0.1535
   11MOL0     C 1356   4.664  10.189   1.559  0.2229  0.1158 -0.6036
   11MOL0     C 1357   4.737  10.196   1.441 -0.3869  0.0850  1.6973
   11MOL0     O 1358   4.852  10.131   1.413  0.3863 -0.1077  0.3735
   11MOL0     C 1359   4.874  10.005   1.479 -0.4019  0.8126 -0.1305
   11MOL0     C 1360   4.997   9.934   1.412 -0.3246  0.6430  0.5271
   11MOL0     C 1361   4.998   9.912   1.263  0.3875  0.5712  0.4351
   11MOL0     C 1362   4.856   9.852   1.206  0.3888 -0.1304  0.3896
   11MOL0     C 1363   4.750   9.953   1.153 -0.5255 -0.3720  1.6719
   11MOL0     C 1364   4.605   9.903   1.180  0.2854 -0.3643 -0.1748
   11MOL0     C 1365   4.562   9.884   1.326 -0.3695 -0.8572  0.1713
   11MOL0     C 1366   4.415   9.854   1.342  0.7771  0.5157  0.2859
   11MOL0     N 1367   4.373   9.726   1.273 -0.3974  0.3457 -0.6757
   11MOL0     C 1368   4.432   9.604   1.283 -0.0373 -0.4632  0.0239
   11MOL0     C 1369   4.357   9.522   1.206  0.5815  1.1066 -0.5605
   11MOL0     C 1370   4.378   9.375   1.170 -0.4612  0.3736 -0.3321
   11MOL0     C 1371   4.467   9.354   1.047 -0.6218  0.6574 -0.2849
   11MOL0     C 1372   4.420   9.231   0.974 -0.5065 -0.5152 -0.4401
   11MOL0     C 1373   4.402   9.108   1.062  0.3602  0.3365  0.4587
   11MOL0     O 1374   4.380   8.997   0.976 -0.4129  0.4388 -0.3995
   11MOL0     C 1375   4.482   8.917   0.926  0.1983 -0.3768 -0.9298
   11MOL0     C 1376   4.616   8.932   0.951 -0.3011  0.5276 -0.1282
   11MOL0     C 1377   4.718   8.844   0.905  0.0574  0.4135 -0.5860
   11MOL0     C 1378   4.675   8.737   0.825 -0.2107 -0.3153  0.0571
   11MOL0     C 1379   4.760   8.626   0.776 -0.1336  0.5267 -0.1340
   11MOL0     O 1380   4.742   8.565   0.655 -0.4960  0.2261  1.0343
   11MOL0     C 1381   4.839   8.473   0.621 -0.4898  0.7482 -0.3952
   11MOL0     C 1382   4.874   8.372   0.707 -0.4312 -0.7968 -0.5115
   11MOL0     C 1383   4.957   8.275   0.662 -0.3430  0.5787 -1.4310
   11MOL0     C 1384   5.006   8.285   0.534 -0.4044  0.3069 -0.1624
   11MOL0     O 1385   5.081   8.183   0.481  0.9604 -0.1536 -0.5365
   11MOL0     C 1386   5.210   8.167   0.549 -0.4139 -1.3380 -0.0285
   11MOL0     C 1387   5.242   8.024   0.569  0.9767 -0.1647  0.3431
   11MOL0     C 1388   5.282   7.957   0.704  0.3376 -0.4014  0.7053
   11MOL0     C 1389   5.373   8.051   0.786  0.1305 -0.1462  0.6339
   11MOL0     C 1390   5.456   7.972   0.886 -0.2371 -0.2181 -0.2652
   11MOL0     C 1391   5.570   8.044   0.954  0.0777  0.4781  0.5737
   11MOL0     C 1392   5.647   7.949   1.042  0.2003 -0.1890 -0.5545
   11MOL0     C 1393   5.737   8.034   1.131  0.1976  0.3591 -0.1721
   11MOL0    Cl 1394   5.852   7.931   1.216  0.3799  0.0896 -0.1732
   11MOL0     C 1395   4.990   8.397   0.456  0.1160 -0.7895 -0.3009
   11MOL0     C 1396   4.907   8.502   0.500 -0.7661 -0.5645 -0.3742
   11MOL0     O 1397   4.856   8.609   0.851 -0.3867  0.4950  0.0996
   11MOL0     C 1398   4.541   8.727   0.785 -0.8319 -0.6009 -0.3533
   11MOL0     C 1399   4.441   8.813   0.836  0.6731  0.6995 -0.0014
   11MOL0     N 1400   4.251   9.595   1.143 -0.1188  0.7319  0.3145
   11MOL0     N 1401   4.258   9.711   1.194 -0.1891 -0.3669  0.7310
   11MOL0     C 1402   4.688  10.272   1.333 -0.8844 -1.1766 -0.3093
   11MOL0     C 1403   4.570  10.337   1.332 -0.2296 -0.5037  0.5676
   11MOL0     C 1404   4.140  10.412   1.368  0.5488 -0.2451 -0.6696
   11MOL0     C 1405   4.025  10.336   1.326 -0.9066  0.4149  0.6328
   11MOL0     C 1406   3.903  10.398   1.338  0.2806  0.6060  0.7942
   11MOL0     C 1407   3.883  10.531   1.379  0.0022 -0.1556  0.7945
   11MOL0     O 1408   3.774  10.610   1.371  0.4512 -0.3994  0.0303
   11MOL0     C 1409   3.667  10.552   1.296  1.2080 -0.8691  0.5031
   11MOL0     C 1410   3.620  10.675   1.198  0.0628 -0.6785 -0.0397
   11MOL0     C 1411   3.533  10.630   1.086  0.2038 -0.5614 -0.9807
   11MOL0     C 1412   3.489  10.744   1.005 -0.1707  0.9493 -0.5458
   11MOL0     C 1413   3.597  10.792   0.915 -0.7375 -0.1029 -0.3970
   11MOL0     C 1414   3.700  10.825   0.856  0.1601 -0.0626  0.1309
   11MOL0     C 1415   3.995  10.602   1.400 -0.3173 -0.7072 -0.0276
   11MOL0     C 1416   4.127  10.548   1.406  0.0751 -0.3168  0.0520
   11MOL0     C 1417   4.235  10.656   1.426  0.3908  0.5379  1.2591
   11MOL0     H 1418   4.469  10.256   1.647  0.4032  2.2191  0.5422
   11MOL0     H 1419   4.700  10.128   1.641 -1.4803 -2.3692 -1.5874
   11MOL0     H 1420   4.894  10.015   1.586  1.6369  2.1262 -0.5824
   11MOL0     H 1421   4.785   9.941   1.471 -1.3260  1.5264  2.9885
   11MOL0     H 1422   5.009   9.834   1.456  3.6448  0.9299  0.5146
   11MOL0     H 1423   5.086   9.990   1.443 -0.2536  0.0301  1.4898
   11MOL0     H 1424   5.070   9.833   1.239 -1.8764 -1.6840  0.7007
   11MOL0     H 1425   5.018  10.007   1.212  0.3628  0.4575  0.2177
   11MOL0     H 1426   4.886   9.779   1.130  1.9248  0.7376  0.1200
   11MOL0     H 1427   4.809   9.809   1.296 -1.3136  1.1814  0.1742
   11MOL0     H 1428   4.771  10.052   1.193  5.0693 -0.3606 -0.4316
   11MOL0     H 1429   4.782   9.964   1.049  0.6856 -1.4548  1.9030
   11MOL0     H 1430   4.536   9.969   1.126 -0.9830 -0.4752  1.2616
   11MOL0     H 1431   4.583   9.806   1.135 -1.8637  0.7546 -1.7154
   11MOL0     H 1432   4.578   9.976   1.383 -1.8704 -1.9822  2.5583
   11MOL0     H 1433   4.629   9.820   1.383  0.3236 -0.0769  0.2525
   11MOL0     H 1434   4.399   9.847   1.450  0.5842 -0.2933  0.2106
   11MOL0     H 1435   4.355   9.938   1.307  0.0479  0.3344  1.0832
   11MOL0     H 1436   4.519   9.579   1.343 -0.1452 -1.7223 -0.3198
   11MOL0     H 1437   4.438   9.335   1.252  1.0539 -2.7310 -2.7429
   11MOL0     H 1438   4.280   9.327   1.162 -1.7399  1.8407  3.8759
   11MOL0     H 1439   4.450   9.443   0.985 -2.8806  0.8174  0.4545
   11MOL0     H 1440   4.572   9.340   1.072 -0.3258  2.2801 -0.4944
   11MOL0     H 1441   4.479   9.202   0.886 -2.6140 -2.3252 -1.3610
   11MOL0     H 1442   4.322   9.249   0.928 -1.2551 -0.2272  1.1870
   11MOL0     H 1443   4.315   9.126   1.125 -2.1359 -1.5307 -2.1587
   11MOL0     H 1444   4.489   9.096   1.127 -0.5877  1.7309  2.0490
   11MOL0     H 1445   4.652   9.025   0.995  0.0988 -0.3661  1.4766
   11MOL0     H 1446   4.822   8.849   0.937 -0.8085  0.1284  2.6480
   11MOL0     H 1447   4.816   8.349   0.796 -1.4823  0.9800 -0.6917
   11MOL0     H 1448   4.975   8.180   0.713 -1.3733  1.4363  0.6749
   11MOL0     H 1449   5.283   8.214   0.483 -0.3444 -2.8343 -1.0684
   11MOL0     H 1450   5.216   8.224   0.642 -1.6240 -0.6981 -0.3148
   11MOL0     H 1451   5.152   7.968   0.542  1.4346 -1.8184  2.0046
   11MOL0     H 1452   5.312   8.002   0.489 -1.9299 -2.0083 -1.9213
   11MOL0     H 1453   5.195   7.927   0.764 -0.2648 -1.5451 -0.6824
   11MOL0     H 1454   5.322   7.857   0.685  3.5064  0.7346  0.9538
   11MOL0     H 1455   5.315   8.129   0.837  0.2234  0.7148 -0.5543
   11MOL0     H 1456   5.443   8.102   0.719 -2.6752 -0.2084 -2.6187
   11MOL0     H 1457   5.497   7.892   0.824  0.0290 -1.5492  1.5342
   11MOL0     H 1458   5.399   7.935   0.972 -1.9282 -1.9347 -2.0086
   11MOL0     H 1459   5.625   8.093   0.874 -2.1112  2.0555 -0.0526
   11MOL0     H 1460   5.524   8.121   1.017  4.2907 -0.3670  5.3010
   11MOL0     H 1461   5.705   7.875   0.987 -0.4170 -2.2814  1.4694
   11MOL0     H 1462   5.579   7.901   1.113  0.6501  1.6226  1.2064
   11MOL0     H 1463   5.796   8.110   1.078  3.4147 -0.4572  1.9464
   11MOL0     H 1464   5.675   8.094   1.198 -1.4343 -1.0767 -0.3203
   11MOL0     H 1465   5.032   8.399   0.356  0.7156 -0.9544 -0.0558
   11MOL0     H 1466   4.883   8.581   0.429  1.0045  0.8209  0.4671
   11MOL0     H 1467   4.505   8.652   0.715 -0.1104  0.3849 -1.8252
   11MOL0     H 1468   4.334   8.795   0.831  0.5307  0.6738  2.1849
   11MOL0     H 1469   4.743  10.269   1.240 -1.9082 -5.5071 -1.0198
   11MOL0     H 1470   4.518  10.377   1.246 -2.5790 -4.2625 -0.0030
   11MOL0     H 1471   4.021  10.236   1.286  2.4058  0.8503 -1.0725
   11MOL0     H 1472   3.810  10.344   1.324  0.5336 -0.2708  2.3885
   11MOL0     H 1473   3.579  10.534   1.358 -0.5084  1.9976 -0.8697
   11MOL0     H 1474   3.686  10.459   1.242  0.8665 -1.3317  1.1683
   11MOL0     H 1475   3.714  10.720   1.164 -1.8756  4.0593  0.1665
   11MOL0     H 1476   3.579  10.760   1.252  0.9216 -0.8365  0.8884
   11MOL0     H 1477   3.443  10.586   1.129 -1.0961  2.2715 -0.6177
   11MOL0     H 1478   3.597  10.554   1.041  0.6223 -1.1738  0.5744
   11MOL0     H 1479   3.410  10.709   0.939  0.5939  2.6137 -2.4370
   11MOL0     H 1480   3.470  10.840   1.053  3.0399  2.0739 -1.2085
   11MOL0     H 1481   3.788  10.854   0.801 -1.1359 -0.4556 -2.3197
   11MOL0     H 1482   3.982  10.706   1.426  1.9896 -0.3092 -0.2260
   11MOL0     H 1483   4.313  10.637   1.352  1.2697  1.9504  1.7746
   11MOL0     H 1484   4.191  10.749   1.390  2.6966  0.2416 -3.0014
   11MOL0     H 1485   4.270  10.673   1.528  1.3643  1.1384  0.8425
   12MOL0     O 1486   6.380   3.834   7.912  0.9793  0.2221  0.1899
   12MOL0     C 1487   6.326   3.912   7.838  0.8041 -0.7447  0.3423
   12MOL0     O 1488   6.394   4.005   7.767  0.3193 -0.7896 -0.0787
   12MOL0     C 1489   6.522   3.984   7.767 -0.4252 -0.5343 -0.4195
   12MOL0     C 1490   6.568   3.902   7.663 -0.1138  0.3871  0.2206
   12MOL0     C 1491   6.698   3.871   7.655  0.5582  0.4152  0.9380
   12MOL0     C 1492   6.789   3.912   7.755 -0.8500 -0.1588  0.5359
   12MOL0     O 1493   6.925   3.887   7.748 -0.3860 -0.1119  0.3814
   12MOL0     C 1494   6.958   3.755   7.721 -0.3717  0.1649  0.5999
   12MOL0     C 1495   7.063   3.687   7.816  0.2503 -1.1101 -0.2807
   12MOL0     C 1496   7.020   3.655   7.958  0.0816 -0.4875 -0.4207
   12MOL0     C 1497   6.966   3.511   7.964 -0.4200 -0.8776  0.7820
   12MOL0     C 1498   6.875   3.484   8.084  0.0009  0.2403  0.5239
   12MOL0     C 1499   6.951   3.501   8.212 -0.5424 -0.6282 -0.1222
   12MOL0     C 1500   6.882   3.445   8.334  0.3903 -0.1911  0.7109
   12MOL0     C 1501   6.927   3.299   8.367  0.8570 -0.2125 -0.2542
   12MOL0     N 1502   6.838   3.255   8.481  0.3000  0.0077 -0.5206
   12MOL0     C 1503   6.725   3.183   8.459  0.2823  0.1779 -0.2475
   12MOL0     C 1504   6.690   3.150   8.581 -0.5848  0.2514  0.7019
   12MOL0     C 1505   6.588   3.041   8.595  0.1982  0.4949 -0.4935
   12MOL0     C 1506   6.655   2.919   8.680  0.4939 -0.1008  0.3599
   12MOL0     C 1507   6.547   2.813   8.681  0.6303 -0.3413 -0.0561
   12MOL0     C 1508   6.559   2.715   8.565 -0.5331 -0.6844  1.3388
   12MOL0     O 1509   6.434   2.653   8.525 -0.4673 -1.0647 -0.3061
   12MOL0     C 1510   6.428   2.548   8.439 -0.2125 -0.1212  0.1231
   12MOL0     C 1511   6.309   2.477   8.430 -0.0684  0.3032 -0.1716
   12MOL0     C 1512   6.285   2.393   8.319 -0.4654 -0.0935 -0.4400
   12MOL0     C 1513   6.384   2.360   8.226  0.0468  1.2996 -0.3772
   12MOL0     C 1514   6.350   2.261   8.122 -0.5730 -0.4742  0.1993
   12MOL0     O 1515   6.432   2.249   8.007 -0.2075  0.4844 -0.3977
   12MOL0     C 1516   6.377   2.200   7.888  0.3437 -0.4153 -0.3852
   12MOL0     C 1517   6.453   2.115   7.815 -0.0948  0.0764 -0.8254
   12MOL0     C 1518   6.412   2.049   7.696 -0.3366 -0.1322 -0.1879
   12MOL0     C 1519   6.279   2.064   7.655  0.7755  0.0887  0.5728
   12MOL0     O 1520   6.218   1.997   7.549 -0.1771  0.1967 -0.2946
   12MOL0     C 1521   6.303   1.930   7.460  0.2551 -1.0861  0.6703
   12MOL0     C 1522   6.232   1.885   7.330 -0.1397  0.2399  0.0568
   12MOL0     C 1523   6.125   1.788   7.382  0.5596  0.6139  0.0779
   12MOL0     C 1524   6.058   1.732   7.254 -0.0800 -0.3267 -0.1569
   12MOL0     C 1525   5.946   1.633   7.285 -0.2547 -0.9668 -0.0191
   12MOL0     C 1526   5.877   1.601   7.151  0.7217 -0.6315  0.8353
   12MOL0     C 1527   5.744   1.526   7.165 -0.0630  0.2778  0.1152
   12MOL0     C 1528   5.718   1.425   7.048 -1.1360 -0.8532 -0.5289
   12MOL0    Cl 1529   5.604   1.300   7.106  0.0018  0.4859 -0.1068
   12MOL0     C 1530   6.196   2.150   7.731  0.4054 -0.2834  0.0074
   12MOL0     C 1531   6.246   2.222   7.842  1.2059  0.4706 -0.1350
   12MOL0     O 1532   6.246   2.195   8.138  1.1847  0.1322  0.0917
   12MOL0     C 1533   6.504   2.425   8.240  0.3679 -1.0378 -1.1408
   12MOL0     C 1534   6.530   2.507   8.357  0.5406 -0.7131 -0.3266
   12MOL0     N 1535   6.772   3.193   8.679 -0.2242 -0.3266  0.8792
   12MOL0     N 1536   6.861   3.265   8.619 -0.4955  0.3174 -0.2558
   12MOL0     C 1537   6.756   4.002   7.855  0.0730  1.2254  0.3138
   12MOL0     C 1538   6.618   4.023   7.872  0.3711  0.6787  0.1421
   12MOL0     C 1539   6.185   3.884   7.795 -0.6371  0.0468  0.3182
   12MOL0     C 1540   6.141   3.754   7.766 -0.6654  0.4434 -0.6917
   12MOL0     C 1541   6.018   3.725   7.720  0.5326  0.1626 -0.4917
   12MOL0     C 1542   5.928   3.814   7.683  1.5800  0.2000 -0.7696
   12MOL0     O 1543   5.800   3.770   7.657  0.2319 -0.4387  0.4838
   12MOL0     C 1544   5.708   3.870   7.603 -0.0285  0.1954  0.2071
   12MOL0     C 1545   5.598   3.813   7.528 -0.7248  0.4103  0.5362
   12MOL0     C 1546   5.515   3.924   7.453 -0.3883  0.5980 -0.2537
   12MOL0     C 1547   5.395   3.858   7.389 -0.6284 -0.3003  0.7060
   12MOL0     C 1548   5.306   3.956   7.340  0.8398 -1.0060  0.4904
   12MOL0     C 1549   5.220   4.031   7.284  0.4402  0.0555  0.6308
   12MOL0     C 1550   5.970   3.948   7.698 -0.2706 -0.2632 -0.2400
   12MOL0     C 1551   6.095   3.984   7.756  0.8351 -0.2636 -0.1315
   12MOL0     C 1552   6.121   4.133   7.780 -0.4138  0.5909  0.1367
   12MOL0     H 1553   6.494   3.859   7.596  1.7559 -2.4924 -0.1711
   12MOL0     H 1554   6.729   3.811   7.569  1.5252  0.7636  1.0259
   12MOL0     H 1555   6.875   3.686   7.711  0.3856 -0.4463 -3.4864
   12MOL0     H 1556   7.006   3.738   7.624 -0.6536 -3.3945  0.9561
   12MOL0     H 1557   7.151   3.752   7.821 -0.1916 -0.3233 -1.8641
   12MOL0     H 1558   7.094   3.593   7.769  1.4687 -0.6360 -0.4853
   12MOL0     H 1559   6.942   3.726   7.984  3.1542  2.9585  0.1653
   12MOL0     H 1560   7.089   3.656   8.043 -1.8396 -0.4143  1.2030
   12MOL0     H 1561   6.904   3.511   7.874 -0.9033  2.0133  1.0217
   12MOL0     H 1562   7.049   3.440   7.961  1.4689  1.1572 -3.2055
   12MOL0     H 1563   6.796   3.559   8.075 -0.4968 -0.1756  1.3136
   12MOL0     H 1564   6.838   3.382   8.072 -0.3289  0.6511 -2.9065
   12MOL0     H 1565   7.051   3.459   8.194  0.1689  1.0535 -0.3079
   12MOL0     H 1566   6.956   3.608   8.236 -1.3061 -0.6466  0.1187
   12MOL0     H 1567   6.773   3.442   8.323  0.5827 -0.0246 -2.2483
   12MOL0     H 1568   6.901   3.515   8.415 -1.1562  3.3021 -1.6970
   12MOL0     H 1569   6.907   3.229   8.285 -2.3167  0.9104 -0.5716
   12MOL0     H 1570   7.033   3.307   8.396  0.7472  1.8785 -0.2447
   12MOL0     H 1571   6.688   3.165   8.358  1.6106  1.8028 -1.0881
   12MOL0     H 1572   6.502   3.074   8.654  0.0573  0.1822 -0.5251
   12MOL0     H 1573   6.557   2.995   8.501 -0.9855 -0.0538  0.1450
   12MOL0     H 1574   6.744   2.879   8.631  3.5461  0.3168  4.9456
   12MOL0     H 1575   6.680   2.965   8.776  0.2915  0.4802  0.1446
   12MOL0     H 1576   6.450   2.863   8.690  1.0552  0.2870  1.5047
   12MOL0     H 1577   6.549   2.772   8.783 -1.3422 -1.9224 -0.5917
   12MOL0     H 1578   6.639   2.642   8.581  1.0858  1.1902  2.1403
   12MOL0     H 1579   6.592   2.772   8.477  0.2895 -1.6754  0.9835
   12MOL0     H 1580   6.234   2.498   8.506 -2.9174  2.2753 -3.2662
   12MOL0     H 1581   6.199   2.333   8.348  0.2639 -0.3762  1.2657
   12MOL0     H 1582   6.556   2.091   7.836  0.8556  2.2836 -2.5552
   12MOL0     H 1583   6.474   1.973   7.649 -1.7743 -1.5728  0.1445
   12MOL0     H 1584   6.375   2.006   7.428 -1.7753  1.2675  1.3870
   12MOL0     H 1585   6.345   1.840   7.507  0.2689 -1.7817 -0.6022
   12MOL0     H 1586   6.177   1.967   7.283 -0.6422 -0.8616 -1.3567
   12MOL0     H 1587   6.295   1.839   7.253 -0.4595  0.6811 -0.4843
   12MOL0     H 1588   6.163   1.703   7.441  1.8731  1.1674  0.0606
   12MOL0     H 1589   6.054   1.848   7.440 -2.2639 -0.8772 -1.6013
   12MOL0     H 1590   6.130   1.677   7.192  0.7147 -1.8103  1.9668
   12MOL0     H 1591   6.018   1.816   7.196 -0.2540 -0.3082 -0.0114
   12MOL0     H 1592   5.888   1.679   7.365  2.4310  0.1434  1.4037
   12MOL0     H 1593   5.993   1.544   7.329  2.0155 -0.4628 -1.2744
   12MOL0     H 1594   5.870   1.687   7.083  2.3660 -1.4361 -0.4260
   12MOL0     H 1595   5.951   1.532   7.108  1.5747 -0.7136  2.3615
   12MOL0     H 1596   5.664   1.599   7.148 -0.1626 -0.1772 -1.6078
   12MOL0     H 1597   5.709   1.489   7.261  0.3216 -0.4273 -0.0008
   12MOL0     H 1598   5.688   1.483   6.960  4.2989  1.1648 -1.5051
   12MOL0     H 1599   5.811   1.378   7.015 -0.3021  0.4074 -0.0755
   12MOL0     H 1600   6.093   2.170   7.707 -0.2808 -0.1696  2.6944
   12MOL0     H 1601   6.178   2.267   7.914  3.3416  1.2503  1.5146
   12MOL0     H 1602   6.587   2.398   8.176  2.1703 -1.5565  1.2901
   12MOL0     H 1603   6.623   2.562   8.358 -0.0906  0.4455  2.3525
   12MOL0     H 1604   6.821   4.037   7.934 -0.2451  3.9757 -0.5170
   12MOL0     H 1605   6.579   4.066   7.964 -0.2097 -0.0081  0.2300
   12MOL0     H 1606   6.209   3.670   7.774  1.9930  2.6286  2.4844
   12MOL0     H 1607   5.994   3.619   7.715 -1.1102  0.2323  2.7222
   12MOL0     H 1608   5.759   3.939   7.534  1.6708 -0.5121  0.7003
   12MOL0     H 1609   5.650   3.915   7.684  0.3337 -1.3015  1.3321
   12MOL0     H 1610   5.539   3.745   7.590 -1.8576 -0.1992 -1.1471
   12MOL0     H 1611   5.643   3.750   7.451 -2.4557 -0.0366 -0.1525
   12MOL0     H 1612   5.584   3.959   7.376  3.0211  1.4746  2.9533
   12MOL0     H 1613   5.473   4.004   7.514 -0.3478  1.9942 -1.9803
   12MOL0     H 1614   5.432   3.794   7.308 -1.5566  1.4883 -1.2095
   12MOL0     H 1615   5.354   3.786   7.461  2.3046 -2.8756  0.0413
   12MOL0     H 1616   5.152   4.073   7.213  0.5360  0.0013  0.5069
   12MOL0     H 1617   5.890   4.021   7.690 -1.5662 -1.3609  1.6837
   12MOL0     H 1618   6.032   4.189   7.806  0.4658  2.3550 -0.4656
   12MOL0     H 1619   6.205   4.158   7.846 -0.2827 -2.1196  1.1096
   12MOL0     H 1620   6.141   4.171   7.679  1.1525 -2.1788 -0.7116
   13MOL0     O 1621   9.039  10.791   0.984 -0.1252  0.4833 -0.5256
   13MOL0     C 1622   8.994  10.681   1.009 -0.6024  0.2007 -0.2383
   13MOL0     O 1623   8.934  10.609   0.917  0.0135  1.2908 -0.6932
   13MOL0     C 1624   8.868  10.668   0.818  0.7040 -1.5000 -0.1120
   13MOL0     C 1625   8.941  10.708   0.699 -1.1009 -0.6828 -0.4772
   13MOL0     C 1626   8.872  10.776   0.601  0.0617 -0.0746 -0.2298
   13MOL0     C 1627   8.735  10.801   0.606 -0.1504 -0.0133 -1.0309
   13MOL0     O 1628   8.662  10.878   0.522 -0.1632 -0.6229  0.6966
   13MOL0     C 1629   8.703  10.867   0.385 -0.9140  0.4919  0.3307
   13MOL0     C 1630   8.591  10.918   0.306  0.0480  0.0897  0.3947
   13MOL0     C 1631   8.616  10.944   0.159 -0.0974 -0.9152  0.1926
   13MOL0     C 1632   8.712  11.064   0.144 -0.2572 -0.5737  0.1228
   13MOL0     C 1633   8.711  11.112  -0.004 -0.4860  0.7580 -0.5880
   13MOL0     C 1634   8.846  11.070  -0.066  0.0566  0.6889  0.0943
   13MOL0     C 1635   8.831  11.105  -0.213 -0.1426  0.7778 -0.0049
   13MOL0     C 1636   8.815  11.244  -0.251  0.5633  0.3350 -0.2398
   13MOL0     N 1637   8.816  11.264  -0.398  0.3354  0.3635 -0.1116
   13MOL0     C 1638   8.883  11.352  -0.472 -0.3554  0.3629 -0.4863
   13MOL0     C 1639   8.837  11.336  -0.598  0.3273 -0.1273  0.2243
   13MOL0     C 1640   8.876  11.406  -0.726 -0.4395 -0.4866  0.0822
   13MOL0     C 1641   8.782  11.372  -0.848  0.1638 -0.2210  0.6802
   13MOL0     C 1642   8.843  11.422  -0.977 -0.1686 -0.1915  1.0617
   13MOL0     C 1643   8.795  11.324  -1.087 -0.1129 -0.0364  0.8462
   13MOL0     O 1644   8.669  11.376  -1.141 -0.1924 -0.2934 -0.5947
   13MOL0     C 1645   8.675  11.462  -1.249  0.8084  0.7810  0.3701
   13MOL0     C 1646   8.782  11.536  -1.299  0.0164  0.2674 -0.3790
   13MOL0     C 1647   8.767  11.598  -1.425 -0.1958  0.2603 -1.1345
   13MOL0     C 1648   8.640  11.609  -1.480  0.7216 -0.7025  0.8565
   13MOL0     C 1649   8.622  11.682  -1.616  0.5519 -0.4366 -0.5249
   13MOL0     O 1650   8.499  11.658  -1.676  0.3204 -0.3686  0.3083
   13MOL0     C 1651   8.469  11.744  -1.784 -0.1525 -0.6811 -0.2842
   13MOL0     C 1652   8.533  11.744  -1.913 -0.9126 -0.0679 -0.2406
   13MOL0     C 1653   8.500  11.841  -2.011  0.2159  0.3354 -0.8477
   13MOL0     C 1654   8.390  11.923  -1.996  0.2124 -0.4153  0.6464
   13MOL0     O 1655   8.370  12.005  -2.098  0.5452  0.0742  0.2993
   13MOL0     C 1656   8.244  12.049  -2.149  0.6378 -0.3391 -0.4545
   13MOL0     C 1657   8.250  12.093  -2.295  0.7024 -0.6140 -0.5142
   13MOL0     C 1658   8.344  12.219  -2.321 -0.5174  0.2642  1.7143
   13MOL0     C 1659   8.472  12.181  -2.367 -0.7253 -0.0783 -0.9008
   13MOL0     C 1660   8.588  12.262  -2.339 -1.0591 -0.3449  0.0166
   13MOL0     C 1661   8.589  12.413  -2.381 -0.1833  0.0604 -0.0396
   13MOL0     C 1662   8.543  12.426  -2.528 -0.6906  1.0515 -0.6809
   13MOL0     C 1663   8.631  12.367  -2.631  0.0368 -0.2975  0.1676
   13MOL0    Cl 1664   8.795  12.451  -2.643  0.6124 -0.0965  0.1820
   13MOL0     C 1665   8.324  11.930  -1.875  0.5220  0.1368  0.0519
   13MOL0     C 1666   8.371  11.848  -1.765 -0.4392  0.4998 -0.5026
   13MOL0     O 1667   8.715  11.756  -1.660  0.2372 -0.2764  0.1949
   13MOL0     C 1668   8.539  11.549  -1.415  0.1346 -0.2168  1.7112
   13MOL0     C 1669   8.556  11.471  -1.308  0.5080 -0.0415 -0.4817
   13MOL0     N 1670   8.717  11.260  -0.586 -1.4770 -0.0560  0.2459
   13MOL0     N 1671   8.710  11.212  -0.473 -0.4015 -0.0318 -0.1013
   13MOL0     C 1672   8.668  10.757   0.727 -0.1917  0.6402  0.0454
   13MOL0     C 1673   8.734  10.693   0.827  0.5345  0.2892 -0.6483
   13MOL0     C 1674   9.035  10.628   1.143  0.0018 -0.1118  0.3143
   13MOL0     C 1675   9.123  10.703   1.224 -0.0262 -0.1146 -0.3517
   13MOL0     C 1676   9.169  10.652   1.344  0.3580 -0.7090  0.4558
   13MOL0     C 1677   9.144  10.522   1.393 -0.1484  0.0740 -0.3691
   13MOL0     O 1678   9.205  10.477   1.511 -0.4737  0.6913  0.4258
   13MOL0     C 1679   9.149  10.371   1.579 -0.4263  0.8064 -0.2602
   13MOL0     C 1680   9.223  10.341   1.703 -0.1882  0.2757 -0.4615
   13MOL0     C 1681   9.372  10.328   1.692 -0.6045  0.5045  0.4248
   13MOL0     C 1682   9.424  10.190   1.641 -0.1487  0.6170  1.1029
   13MOL0     C 1683   9.563  10.201   1.593 -0.6000 -0.4447 -0.7716
   13MOL0     C 1684   9.683  10.214   1.566  0.0096 -0.0840  0.6705
   13MOL0     C 1685   9.052  10.450   1.319  0.5851 -0.8209  1.1368
   13MOL0     C 1686   8.990  10.507   1.201 -0.6530 -0.3006  0.4937
   13MOL0     C 1687   8.908  10.403   1.124  0.2314  0.7710  0.1669
   13MOL0     H 1688   9.043  10.672   0.691  0.1004  2.0875  1.0208
   13MOL0     H 1689   8.934  10.813   0.520 -2.6666  0.3407 -2.3000
   13MOL0     H 1690   8.792  10.928   0.374  1.6664 -3.0703 -0.2474
   13MOL0     H 1691   8.734  10.763   0.370 -1.0565 -0.1862  3.7630
   13MOL0     H 1692   8.533  11.005   0.339 -0.6646  1.1017 -3.1467
   13MOL0     H 1693   8.519  10.836   0.307 -1.6150  1.4956  0.7329
   13MOL0     H 1694   8.520  10.952   0.107  0.2023 -1.9782 -0.5518
   13MOL0     H 1695   8.671  10.863   0.109 -0.5586 -1.0270 -0.1363
   13MOL0     H 1696   8.679  11.149   0.206  2.3180  0.3573  0.3084
   13MOL0     H 1697   8.811  11.026   0.170  0.8410  1.5082 -0.8018
   13MOL0     H 1698   8.626  11.067  -0.055 -1.2183 -0.9838  2.0272
   13MOL0     H 1699   8.710  11.221  -0.016  0.4548  0.6704 -1.6781
   13MOL0     H 1700   8.930  11.127  -0.025 -1.0939  1.1421  1.9108
   13MOL0     H 1701   8.871  10.963  -0.058  1.9949  1.1400  0.7053
   13MOL0     H 1702   8.743  11.059  -0.260 -2.9264  6.3072 -1.1005
   13MOL0     H 1703   8.918  11.063  -0.263  1.8673  2.7266  1.6668
   13MOL0     H 1704   8.719  11.277  -0.210  0.8929  1.0149  0.0028
   13MOL0     H 1705   8.898  11.302  -0.212  3.2015 -0.4895 -4.0538
   13MOL0     H 1706   8.951  11.427  -0.433 -0.6428 -0.2529  1.2931
   13MOL0     H 1707   8.875  11.513  -0.704  0.5885 -0.6028  0.7258
   13MOL0     H 1708   8.976  11.376  -0.757 -0.7667  1.0772 -2.9327
   13MOL0     H 1709   8.768  11.264  -0.845  1.9312 -0.6363 -2.2861
   13MOL0     H 1710   8.691  11.426  -0.820  1.5508  2.7863 -0.2014
   13MOL0     H 1711   8.952  11.432  -0.974 -0.0521 -0.1403 -1.1710
   13MOL0     H 1712   8.806  11.524  -0.992 -2.4675 -0.9111  1.3800
   13MOL0     H 1713   8.778  11.220  -1.056 -1.1924 -0.8539 -2.1041
   13MOL0     H 1714   8.872  11.307  -1.163 -1.0377 -0.2866 -0.0657
   13MOL0     H 1715   8.877  11.550  -1.248 -0.7422 -1.6730  1.6794
   13MOL0     H 1716   8.850  11.655  -1.467 -0.3746 -0.4265 -2.4660
   13MOL0     H 1717   8.622  11.684  -1.923  1.1112  2.0403  3.1405
   13MOL0     H 1718   8.557  11.847  -2.104 -0.3769 -1.6493 -1.3743
   13MOL0     H 1719   8.178  11.962  -2.145  0.9391 -0.8931 -4.2621
   13MOL0     H 1720   8.214  12.131  -2.082  1.5627 -1.1234  0.9663
   13MOL0     H 1721   8.288  12.013  -2.359  3.2791  1.2091 -1.4111
   13MOL0     H 1722   8.158  12.131  -2.341  2.1022  0.3489 -2.6698
   13MOL0     H 1723   8.306  12.285  -2.400 -0.5395 -2.6151 -0.8550
   13MOL0     H 1724   8.340  12.266  -2.222 -3.0090 -1.2808  2.4569
   13MOL0     H 1725   8.464  12.155  -2.473 -0.8821 -0.2617 -0.8440
   13MOL0     H 1726   8.493  12.082  -2.328 -1.6723  0.7971  2.0393
   13MOL0     H 1727   8.675  12.218  -2.387 -1.2139  0.8973 -1.4847
   13MOL0     H 1728   8.605  12.259  -2.231  2.8251  1.5787 -0.3574
   13MOL0     H 1729   8.514  12.457  -2.314 -0.6904  0.2043 -0.7021
   13MOL0     H 1730   8.686  12.461  -2.361  0.4036 -1.6816  1.6860
   13MOL0     H 1731   8.549  12.533  -2.552  1.7435  0.8229 -1.3644
   13MOL0     H 1732   8.437  12.403  -2.543 -0.7108 -0.5432  1.4299
   13MOL0     H 1733   8.661  12.263  -2.616 -0.6643 -0.6116 -0.5417
   13MOL0     H 1734   8.580  12.366  -2.728  1.8291 -3.2715 -0.8721
   13MOL0     H 1735   8.254  12.012  -1.862 -0.0007 -0.6056  2.4056
   13MOL0     H 1736   8.333  11.869  -1.665 -2.0528  0.1647 -1.0175
   13MOL0     H 1737   8.443  11.547  -1.465  0.4218  2.8248  0.8534
   13MOL0     H 1738   8.469  11.407  -1.297 -0.0029  0.7918  0.4632
   13MOL0     H 1739   8.560  10.771   0.733 -1.0325 -2.6726 -3.4044
   13MOL0     H 1740   8.691  10.674   0.925  0.6849  0.4997 -0.5405
   13MOL0     H 1741   9.161  10.801   1.196 -0.3462  0.6797  1.8442
   13MOL0     H 1742   9.239  10.712   1.401 -3.2005  4.9069 -0.2936
   13MOL0     H 1743   9.163  10.291   1.505 -0.0320  0.3617  0.2765
   13MOL0     H 1744   9.044  10.379   1.606 -0.6662  0.3355 -1.0103
   13MOL0     H 1745   9.179  10.258   1.758  0.8069  0.9531  1.4328
   13MOL0     H 1746   9.201  10.425   1.769  0.1605  0.3620 -0.4487
   13MOL0     H 1747   9.418  10.329   1.791  1.2746  3.5970 -0.3364
   13MOL0     H 1748   9.411  10.411   1.631 -0.4897 -0.8749 -1.4747
   13MOL0     H 1749   9.414  10.121   1.725 -1.3466  0.8617  1.1853
   13MOL0     H 1750   9.370  10.153   1.553  0.2891  3.1092 -0.3054
   13MOL0     H 1751   9.790  10.220   1.565  0.3821 -4.3497  0.2422
   13MOL0     H 1752   9.013  10.353   1.350  2.2631 -1.1010  2.5751
   13MOL0     H 1753   8.811  10.445   1.095  0.1935  2.2706  2.2095
   13MOL0     H 1754   8.960  10.389   1.029 -1.1648 -0.2182 -0.4828
   13MOL0     H 1755   8.900  10.306   1.173 -0.2810  1.1967  0.9514
   14MOL0     O 1756   2.137   4.018   5.181  0.0026  0.1532  0.2506
   14MOL0     C 1757   2.145   3.942   5.275 -0.4532 -0.6849 -1.0932
   14MOL0     O 1758   2.131   3.982   5.410 -0.6745  0.4871  0.5145
   14MOL0     C 1759   2.103   4.104   5.451 -0.2122 -0.0117  0.0748
   14MOL0     C 1760   2.178   4.216   5.405 -0.4500  0.2209 -0.1377
   14MOL0     C 1761   2.154   4.345   5.445  0.0221 -1.4518  0.1832
   14MOL0     C 1762   2.061   4.376   5.544  0.0752 -0.0318 -0.5385
   14MOL0     O 1763   2.060   4.505   5.586  0.6755  0.2503 -0.2236
   14MOL0     C 1764   1.981   4.530   5.707 -0.4188 -0.1259 -0.3493
   14MOL0     C 1765   2.014   4.663   5.767 -0.7384  0.1871 -0.7987
   14MOL0     C 1766   2.012   4.766   5.657 -0.0598  0.0041 -0.3465
   14MOL0     C 1767   2.006   4.904   5.718  0.6882  0.2626 -0.4957
   14MOL0     C 1768   2.013   5.014   5.614 -0.0135 -0.9443 -0.0095
   14MOL0     C 1769   1.944   5.147   5.664  0.3234  0.7154  0.1650
   14MOL0     C 1770   1.790   5.135   5.625  0.1713 -0.6922 -0.2339
   14MOL0     C 1771   1.719   5.274   5.707  0.9612  0.0372  0.7411
   14MOL0     N 1772   1.769   5.324   5.827 -0.3055  0.0154 -0.5728
   14MOL0     C 1773   1.777   5.239   5.937  0.0389 -0.3910  0.2989
   14MOL0     C 1774   1.861   5.303   6.027 -0.5101  1.3079  0.9617
   14MOL0     C 1775   1.891   5.275   6.171 -0.4241 -0.6485 -0.0596
   14MOL0     C 1776   1.885   5.126   6.200 -1.0396  0.2949 -0.3617
   14MOL0     C 1777   1.978   5.055   6.107  0.0217  0.5997 -0.2235
   14MOL0     C 1778   1.988   4.913   6.147 -0.0907  0.2568 -0.5335
   14MOL0     O 1779   1.864   4.841   6.129  0.3166  0.0491 -0.8109
   14MOL0     C 1780   1.865   4.711   6.102 -0.1473  0.5338  0.6568
   14MOL0     C 1781   1.745   4.656   6.058 -0.6390 -1.2791 -0.4602
   14MOL0     C 1782   1.747   4.518   6.013  0.8617  0.2481 -0.2371
   14MOL0     C 1783   1.856   4.435   6.040  0.1821  0.3253  0.8509
   14MOL0     C 1784   1.864   4.296   5.998  0.1497 -1.0223 -0.2206
   14MOL0     O 1785   1.997   4.258   5.956 -0.3563 -0.6602  0.4729
   14MOL0     C 1786   2.039   4.129   5.930 -0.7973 -0.9709 -0.1037
   14MOL0     C 1787   1.975   4.022   5.986  0.0479  0.6986  0.0325
   14MOL0     C 1788   2.012   3.897   5.948 -0.2702  0.0500 -0.5514
   14MOL0     C 1789   2.113   3.868   5.852 -0.8283 -0.4739 -0.1338
   14MOL0     O 1790   2.158   3.739   5.828 -0.6705  0.3856  0.8935
   14MOL0     C 1791   2.253   3.727   5.713  0.5873 -0.1915  0.2823
   14MOL0     C 1792   2.283   3.575   5.685 -0.0852 -0.1557 -0.0482
   14MOL0     C 1793   2.381   3.576   5.570  0.3962 -0.0098  0.5503
   14MOL0     C 1794   2.403   3.430   5.532  0.9522 -0.7127 -0.0562
   14MOL0     C 1795   2.527   3.413   5.426  0.8788 -0.4085 -0.5200
   14MOL0     C 1796   2.502   3.471   5.285  0.7446 -0.5568  0.1633
   14MOL0     C 1797   2.607   3.439   5.180 -0.1389  0.6933  0.4413
   14MOL0     C 1798   2.595   3.523   5.049  0.3169  0.8130  0.3600
   14MOL0    Cl 1799   2.588   3.704   5.071  0.2996 -0.7200  0.0687
   14MOL0     C 1800   2.176   3.982   5.793 -1.3052  0.0894 -0.0301
   14MOL0     C 1801   2.142   4.113   5.837  0.4187  0.5224  0.4151
   14MOL0     O 1802   1.760   4.239   5.970  0.8320  0.2403 -0.1373
   14MOL0     C 1803   1.964   4.497   6.105  0.0696  0.0727  0.6197
   14MOL0     C 1804   1.967   4.634   6.134 -0.0878 -0.1649  0.4616
   14MOL0     N 1805   1.879   5.427   5.972 -0.2518  0.9904  0.0531
   14MOL0     N 1806   1.825   5.442   5.855  0.5646 -0.2404 -0.4784
   14MOL0     C 1807   1.976   4.273   5.586  0.6111  0.2273  0.0306
   14MOL0     C 1808   2.001   4.139   5.534 -0.1265  0.7932 -0.6252
   14MOL0     C 1809   2.137   3.796   5.251 -1.0414 -0.9168 -0.1031
   14MOL0     C 1810   2.075   3.712   5.351  0.5546  0.9358  0.6354
   14MOL0     C 1811   2.085   3.571   5.345  1.2526  0.6562 -0.1308
   14MOL0     C 1812   2.150   3.514   5.236 -0.0955 -0.1616 -0.0638
   14MOL0     O 1813   2.165   3.377   5.218 -0.7365  0.4176  0.4677
   14MOL0     C 1814   2.046   3.296   5.241  0.4553 -0.4027  0.8156
   14MOL0     C 1815   1.916   3.349   5.172  0.1219  0.5018 -0.1089
   14MOL0     C 1816   1.907   3.356   5.017 -1.1857 -0.0839 -0.5193
   14MOL0     C 1817   1.918   3.223   4.943  0.0314  0.9688  0.9125
   14MOL0     C 1818   2.045   3.150   4.962  0.0476  0.0075  1.4364
   14MOL0     C 1819   2.147   3.085   4.966 -0.3268  0.9673 -0.6253
   14MOL0     C 1820   2.193   3.589   5.125  0.3240 -0.3177 -0.3664
   14MOL0     C 1821   2.184   3.732   5.136  1.2335 -0.0228 -1.4069
   14MOL0     C 1822   2.246   3.801   5.017  0.0671 -0.6025  0.8553
   14MOL0     H 1823   2.264   4.190   5.345  0.1397 -0.2783  0.8843
   14MOL0     H 1824   2.205   4.427   5.396 -2.7452 -0.6244 -1.5652
   14MOL0     H 1825   1.873   4.521   5.692 -0.1413 -1.6089 -1.7099
   14MOL0     H 1826   2.013   4.454   5.778  0.9135 -0.6532 -1.4742
   14MOL0     H 1827   2.109   4.654   5.821 -1.6222  0.7153  0.9314
   14MOL0     H 1828   1.940   4.681   5.846  0.8610  1.3196  0.5045
   14MOL0     H 1829   1.923   4.743   5.597 -0.5933 -5.8058  2.0206
   14MOL0     H 1830   2.102   4.742   5.600 -1.8206 -1.6307 -2.6550
   14MOL0     H 1831   1.913   4.904   5.776 -0.0333  0.4700 -1.6350
   14MOL0     H 1832   2.090   4.906   5.788  1.1965 -0.9181 -1.0389
   14MOL0     H 1833   2.118   5.042   5.600 -0.7123  3.1504  1.4052
   14MOL0     H 1834   1.967   4.989   5.518 -2.2389  0.4273  0.6165
   14MOL0     H 1835   1.953   5.149   5.773 -2.2818  1.6931  0.4499
   14MOL0     H 1836   1.973   5.237   5.609 -1.8245  0.6813 -1.1251
   14MOL0     H 1837   1.750   5.039   5.659 -0.7136  0.8104  3.5943
   14MOL0     H 1838   1.783   5.137   5.516 -1.4064  1.7582 -0.1754
   14MOL0     H 1839   1.722   5.365   5.646  2.6668 -0.5873 -0.2054
   14MOL0     H 1840   1.614   5.243   5.713  1.0444  0.0143  2.6105
   14MOL0     H 1841   1.729   5.142   5.946 -3.0501  0.9040 -0.7856
   14MOL0     H 1842   1.991   5.314   6.193  0.1396 -3.1774  2.5069
   14MOL0     H 1843   1.813   5.332   6.223 -2.8290 -2.4595 -1.4901
   14MOL0     H 1844   1.924   5.111   6.301  1.5373  0.2181 -1.2850
   14MOL0     H 1845   1.782   5.091   6.198 -1.0225  0.2836 -1.7077
   14MOL0     H 1846   2.080   5.093   6.094 -0.4894  3.3830  2.6839
   14MOL0     H 1847   1.947   5.055   6.002  1.1573  1.5671 -0.5756
   14MOL0     H 1848   2.022   4.914   6.251 -1.0738 -3.2461 -0.0611
   14MOL0     H 1849   2.071   4.874   6.087 -0.2420  0.6762 -1.0316
   14MOL0     H 1850   1.660   4.723   6.042 -1.3438 -1.8627  0.7620
   14MOL0     H 1851   1.666   4.480   5.951 -0.3683  1.8551  0.3004
   14MOL0     H 1852   1.907   4.039   6.069  3.2646  2.7191  2.5505
   14MOL0     H 1853   1.975   3.807   5.997  2.0455  0.2284  1.7347
   14MOL0     H 1854   2.217   3.777   5.623  1.2570  1.1398  0.7160
   14MOL0     H 1855   2.346   3.781   5.734 -1.3877  2.8082  2.2954
   14MOL0     H 1856   2.327   3.517   5.766  2.3309 -0.5145 -1.4959
   14MOL0     H 1857   2.188   3.531   5.655  0.4715 -3.7752  2.8506
   14MOL0     H 1858   2.359   3.633   5.479 -1.1555  2.4689  2.3714
   14MOL0     H 1859   2.480   3.608   5.603  1.4048 -1.7771 -0.5746
   14MOL0     H 1860   2.316   3.381   5.485  1.6183  0.3130 -2.5266
   14MOL0     H 1861   2.418   3.379   5.627 -1.8017 -1.5060  0.0370
   14MOL0     H 1862   2.562   3.309   5.429  2.6339  0.1461  0.9965
   14MOL0     H 1863   2.608   3.469   5.475 -0.9616 -0.1777  2.4677
   14MOL0     H 1864   2.414   3.421   5.245  0.2109 -0.7301  1.5012
   14MOL0     H 1865   2.479   3.578   5.287  0.1705 -0.6720 -0.1108
   14MOL0     H 1866   2.595   3.337   5.144 -3.0237 -0.3063  3.6805
   14MOL0     H 1867   2.706   3.465   5.218 -0.5520  2.2951  0.5142
   14MOL0     H 1868   2.680   3.506   4.982  0.0276  0.1091  0.1653
   14MOL0     H 1869   2.505   3.486   5.000 -0.8591  1.6635  1.8086
   14MOL0     H 1870   2.240   3.968   5.707 -0.7888 -2.2404  0.6694
   14MOL0     H 1871   2.192   4.193   5.783  0.3653  1.1589  1.2906
   14MOL0     H 1872   2.050   4.437   6.135  1.1719  0.7014 -1.1511
   14MOL0     H 1873   2.061   4.665   6.180  0.9717  2.8193 -3.2155
   14MOL0     H 1874   1.894   4.291   5.655  1.5523  0.8276  1.0215
   14MOL0     H 1875   1.938   4.059   5.572  0.5753  0.6206  0.2007
   14MOL0     H 1876   2.032   3.761   5.438  0.2717  0.9247  0.5059
   14MOL0     H 1877   2.034   3.520   5.426  1.2813  3.4317  1.7722
   14MOL0     H 1878   2.036   3.290   5.350 -1.2663 -1.4158  0.6325
   14MOL0     H 1879   2.065   3.196   5.201  2.0667 -0.0470  0.6026
   14MOL0     H 1880   1.892   3.451   5.202 -2.8825  0.0510 -0.6593
   14MOL0     H 1881   1.838   3.284   5.213 -1.1307  0.6160 -2.1837
   14MOL0     H 1882   1.990   3.422   4.986  0.5646 -0.6813  2.5391
   14MOL0     H 1883   1.817   3.410   4.987 -0.3183  3.5328  2.6592
   14MOL0     H 1884   1.836   3.163   4.983 -0.6660  2.2509  1.4407
   14MOL0     H 1885   1.908   3.245   4.836 -2.0500  0.1409  0.8893
   14MOL0     H 1886   2.241   3.034   4.975 -1.3481 -0.8907  0.1375
   14MOL0     H 1887   2.239   3.539   5.040  3.4618  0.6811  0.6228
   14MOL0     H 1888   2.163   3.852   4.967  0.6441  1.0550  1.4907
   14MOL0     H 1889   2.307   3.884   5.056 -3.2828  2.5085  0.0138
   14MOL0     H 1890   2.302   3.732   4.954 -0.3158  0.7765 -1.1072
   15MOL0     O 1891   6.813   2.594   6.488  0.7716  0.4904 -0.0266
   15MOL0     C 1892   6.877   2.694   6.520 -1.3252  0.3242 -0.1623
   15MOL0     O 1893   6.945   2.770   6.434  0.5231 -0.4921 -0.9167
   15MOL0     C 1894   6.912   2.785   6.303 -0.8922 -0.4174  1.0048
   15MOL0     C 1895   6.782   2.763   6.259 -0.0307 -0.5035  0.1710
   15MOL0     C 1896   6.754   2.758   6.120  0.0092  0.2728 -0.6980
   15MOL0     C 1897   6.855   2.769   6.026  0.1647 -0.2924 -0.3924
   15MOL0     O 1898   6.804   2.767   5.897 -0.0766  1.0853  0.4083
   15MOL0     C 1899   6.885   2.747   5.785  0.9934 -0.2811  0.1746
   15MOL0     C 1900   6.809   2.648   5.697 -0.1808 -0.3930 -0.8275
   15MOL0     C 1901   6.848   2.626   5.555 -0.6023  1.1922  0.9824
   15MOL0     C 1902   6.996   2.575   5.535  1.1592  0.8125  0.4300
   15MOL0     C 1903   7.047   2.564   5.392  0.3540  0.3129  0.0715
   15MOL0     C 1904   7.039   2.704   5.326  0.2397  0.1848  0.1888
   15MOL0     C 1905   7.169   2.733   5.251 -0.1120 -0.3383  0.1430
   15MOL0     C 1906   7.160   2.865   5.178 -0.5348  0.4828  0.5103
   15MOL0     N 1907   7.049   2.893   5.089  0.9781 -0.1180  0.9788
   15MOL0     C 1908   6.975   2.820   4.996  0.5537  0.9098 -0.1208
   15MOL0     C 1909   6.888   2.912   4.938 -0.0823  0.7752  0.2155
   15MOL0     C 1910   6.780   2.895   4.833 -0.1321 -0.6241 -0.0713
   15MOL0     C 1911   6.853   2.897   4.698 -0.3066 -0.3590  0.6508
   15MOL0     C 1912   6.757   2.860   4.584 -0.4757  0.1201  0.3305
   15MOL0     C 1913   6.781   2.914   4.439 -0.0039  0.0279 -0.5772
   15MOL0     O 1914   6.916   2.890   4.412 -0.8766 -1.0805 -0.3848
   15MOL0     C 1915   6.982   2.955   4.311  0.7305  0.4186 -0.3646
   15MOL0     C 1916   7.096   3.032   4.342 -0.4620  0.8866  0.4845
   15MOL0     C 1917   7.173   3.102   4.253  0.4861  0.7667  0.3375
   15MOL0     C 1918   7.146   3.091   4.119 -0.5478  0.2265 -0.1618
   15MOL0     C 1919   7.248   3.136   4.032 -0.4802 -0.7448 -0.1539
   15MOL0     O 1920   7.196   3.196   3.920  0.2869 -0.7425  0.2045
   15MOL0     C 1921   7.284   3.268   3.837  1.2530  0.4896 -0.2341
   15MOL0     C 1922   7.293   3.408   3.834 -1.0938  0.6836  0.1996
   15MOL0     C 1923   7.381   3.475   3.742 -0.0864 -0.1224  0.5732
   15MOL0     C 1924   7.462   3.397   3.659 -1.0537  0.0698 -1.1266
   15MOL0     O 1925   7.545   3.461   3.574 -0.4042  0.7713  0.3736
   15MOL0     C 1926   7.487   3.477   3.439  0.4204  0.3260  1.2270
   15MOL0     C 1927   7.512   3.353   3.353  0.4483  0.5650  0.2790
   15MOL0     C 1928   7.654   3.323   3.318 -0.5307  0.3831 -0.1191
   15MOL0     C 1929   7.673   3.175   3.313 -0.3178 -0.6101 -1.0857
   15MOL0     C 1930   7.797   3.124   3.244 -0.3791 -0.3389 -0.4490
   15MOL0     C 1931   7.859   2.984   3.274  1.1478  0.2885 -0.1566
   15MOL0     C 1932   7.763   2.881   3.239  1.4729  0.7532  0.3564
   15MOL0     C 1933   7.755   2.771   3.343  0.1121 -0.4707 -0.3795
   15MOL0    Cl 1934   7.909   2.694   3.388  0.3074 -0.1649  0.1668
   15MOL0     C 1935   7.447   3.259   3.660 -0.2925  0.6622  0.1192
   15MOL0     C 1936   7.359   3.200   3.745  0.9786  0.6598 -0.0771
   15MOL0     O 1937   7.367   3.120   4.057  0.4587  0.7816  0.7704
   15MOL0     C 1938   7.027   3.029   4.080 -0.0894  0.6431 -0.1159
   15MOL0     C 1939   6.949   2.966   4.178  0.4206  0.3337 -0.5139
   15MOL0     N 1940   6.896   3.037   4.999 -1.1957  0.2906  0.0999
   15MOL0     N 1941   6.982   3.017   5.084 -0.7874  0.8580 -0.2433
   15MOL0     C 1942   6.983   2.795   6.069  0.1489  0.0061  0.5265
   15MOL0     C 1943   7.014   2.798   6.207  0.1315 -0.1042 -0.0698
   15MOL0     C 1944   6.906   2.731   6.659  0.1852  0.2544  0.5336
   15MOL0     C 1945   7.013   2.821   6.684  0.4959  0.1888  0.4604
   15MOL0     C 1946   7.049   2.853   6.825  1.0649 -0.1687  0.5935
   15MOL0     C 1947   6.978   2.805   6.933 -0.0820 -0.2973  0.3357
   15MOL0     O 1948   7.009   2.860   7.052  0.0766 -0.0762 -0.1405
   15MOL0     C 1949   6.896   2.865   7.144  0.3240  0.0628  0.9678
   15MOL0     C 1950   6.921   2.975   7.250 -1.0283  0.1004 -0.4877
   15MOL0     C 1951   6.801   3.020   7.333 -0.6802  0.1377 -1.0848
   15MOL0     C 1952   6.757   2.927   7.454  0.6380 -0.2710  0.6848
   15MOL0     C 1953   6.866   2.934   7.550 -1.4042 -0.1956 -0.1965
   15MOL0     C 1954   6.956   2.938   7.637 -0.6200  0.4994  0.3931
   15MOL0     C 1955   6.876   2.715   6.899  0.5618  0.7376 -0.2500
   15MOL0     C 1956   6.838   2.677   6.768 -0.4611 -0.4351 -0.1813
   15MOL0     C 1957   6.743   2.564   6.757 -0.6935 -0.0072 -0.6009
   15MOL0     H 1958   6.712   2.733   6.336  0.6561 -2.3732  0.1077
   15MOL0     H 1959   6.658   2.743   6.072 -0.7612  0.0645  0.8341
   15MOL0     H 1960   6.895   2.843   5.735 -1.9472  0.2701  0.4954
   15MOL0     H 1961   6.982   2.702   5.807  1.0716 -0.2033 -0.0141
   15MOL0     H 1962   6.709   2.689   5.684 -0.8985 -1.8596 -0.1096
   15MOL0     H 1963   6.799   2.552   5.747 -1.9279 -1.0367 -2.3302
   15MOL0     H 1964   6.838   2.719   5.498 -0.6812  1.1269  0.8894
   15MOL0     H 1965   6.781   2.568   5.492  1.4727 -0.9308  0.5798
   15MOL0     H 1966   7.044   2.657   5.590  0.6068  0.3001  1.7171
   15MOL0     H 1967   7.016   2.481   5.587 -0.6982  1.5524  2.6732
   15MOL0     H 1968   7.151   2.531   5.389 -0.1313 -1.2508 -1.0198
   15MOL0     H 1969   6.984   2.492   5.339 -2.4003  1.9205  0.9112
   15MOL0     H 1970   6.956   2.703   5.254  0.5632  3.0264 -0.3279
   15MOL0     H 1971   7.022   2.777   5.405  1.2307  1.7075 -0.9537
   15MOL0     H 1972   7.182   2.666   5.166  2.9166  2.2109 -1.6433
   15MOL0     H 1973   7.253   2.727   5.321  0.8653 -0.8429 -1.0436
   15MOL0     H 1974   7.169   2.942   5.255 -2.9310 -0.5847  2.0038
   15MOL0     H 1975   7.241   2.870   5.105 -1.3800 -2.5890 -0.8244
   15MOL0     H 1976   6.970   2.714   4.975  0.8861  0.1221  3.2653
   15MOL0     H 1977   6.733   2.797   4.845 -3.6938  0.7609 -1.4094
   15MOL0     H 1978   6.705   2.975   4.830  0.4635 -0.0922 -2.3425
   15MOL0     H 1979   6.892   2.999   4.684 -1.9804  0.7039  2.9826
   15MOL0     H 1980   6.933   2.824   4.694  0.7658  0.7247  1.5454
   15MOL0     H 1981   6.656   2.889   4.615  0.5009 -0.1466  4.3109
   15MOL0     H 1982   6.750   2.751   4.583 -1.5442  0.1164  2.3724
   15MOL0     H 1983   6.768   3.020   4.412 -1.6195 -1.2813 -6.4374
   15MOL0     H 1984   6.715   2.873   4.363 -0.0493 -2.3572  0.6802
   15MOL0     H 1985   7.122   3.059   4.444 -0.4436  0.5327  0.5749
   15MOL0     H 1986   7.252   3.166   4.290  1.9526  0.0779 -1.4684
   15MOL0     H 1987   7.230   3.468   3.898  0.2075  2.0221  0.2850
   15MOL0     H 1988   7.393   3.582   3.726 -1.5238 -0.0049  0.1550
   15MOL0     H 1989   7.378   3.486   3.434  0.3002 -1.1982 -1.9751
   15MOL0     H 1990   7.531   3.563   3.388 -1.4838  0.7961  0.2575
   15MOL0     H 1991   7.463   3.269   3.402  0.7243 -1.2562 -2.3484
   15MOL0     H 1992   7.448   3.362   3.264  0.9765 -3.7953 -0.7678
   15MOL0     H 1993   7.683   3.360   3.219 -0.1052  0.6914  0.1174
   15MOL0     H 1994   7.717   3.358   3.401  1.0260  1.0614 -1.5226
   15MOL0     H 1995   7.585   3.133   3.263 -0.3634  2.4237 -3.8327
   15MOL0     H 1996   7.685   3.143   3.417 -0.9200  2.2663 -0.0511
   15MOL0     H 1997   7.879   3.190   3.275 -0.6308  1.2295 -2.8643
   15MOL0     H 1998   7.798   3.141   3.136  0.8235 -1.3726 -0.6339
   15MOL0     H 1999   7.958   2.973   3.230  2.2310 -0.9792  2.3574
   15MOL0     H 2000   7.876   2.986   3.382 -0.9454 -1.2104  0.2480
   15MOL0     H 2001   7.778   2.827   3.145 -1.0699 -0.7337  0.7224
   15MOL0     H 2002   7.661   2.916   3.219 -0.0601 -3.8171 -0.8983
   15MOL0     H 2003   7.706   2.816   3.430  1.9192  0.0287  0.4293
   15MOL0     H 2004   7.685   2.692   3.312 -0.1711  0.6104 -2.6989
   15MOL0     H 2005   7.494   3.197   3.584 -1.9494 -2.1051  1.1926
   15MOL0     H 2006   7.351   3.092   3.738  0.5084  0.7671 -1.6337
   15MOL0     H 2007   7.005   3.006   3.976  1.0075 -0.8015 -0.0652
   15MOL0     H 2008   6.867   2.909   4.135 -1.0947  1.5041  0.6955
   15MOL0     H 2009   7.075   2.801   6.011 -0.7310 -1.2873 -1.1084
   15MOL0     H 2010   7.109   2.825   6.252 -0.1139  0.3761  0.1634
   15MOL0     H 2011   7.066   2.867   6.602 -0.2446  1.8721  0.8819
   15MOL0     H 2012   7.135   2.917   6.845 -0.0701  2.0117 -0.9933
   15MOL0     H 2013   6.868   2.767   7.182 -0.9869 -0.9892 -2.3364
   15MOL0     H 2014   6.813   2.905   7.084  0.6959  2.4076  1.8835
   15MOL0     H 2015   6.965   3.061   7.198  0.1006  0.3641  0.8684
   15MOL0     H 2016   6.996   2.942   7.321 -0.9351  1.2755 -0.0182
   15MOL0     H 2017   6.716   3.038   7.265  0.7633  2.3115 -2.4376
   15MOL0     H 2018   6.836   3.118   7.365  3.1207 -0.4761 -2.8211
   15MOL0     H 2019   6.667   2.967   7.502  0.1827 -0.6231  0.1399
   15MOL0     H 2020   6.738   2.823   7.426 -1.4906  0.5872 -1.3838
   15MOL0     H 2021   7.021   2.936   7.722 -3.1310  0.7733  2.4393
   15MOL0     H 2022   6.817   2.672   6.979  0.7631 -0.1862 -0.5801
   15MOL0     H 2023   6.792   2.475   6.717  2.9444  2.1254 -1.3374
   15MOL0     H 2024   6.694   2.546   6.854  0.9235  0.2264  0.2902
   15MOL0     H 2025   6.671   2.591   6.679 -1.0102  0.5003 -0.1474
   16MOL0     O 2026  10.911   9.675   5.271 -0.6372 -0.3176  0.0409
   16MOL0     C 2027  10.904   9.554   5.291 -0.1968  0.0129  0.4406
   16MOL0     O 2028  10.831   9.468   5.208 -0.3032 -0.0937 -0.2264
   16MOL0     C 2029  10.791   9.522   5.089 -0.2174 -0.1450 -0.3228
   16MOL0     C 2030  10.680   9.602   5.080 -0.1672  0.9935  0.1258
   16MOL0     C 2031  10.645   9.655   4.955  0.1259  0.8268  0.4886
   16MOL0     C 2032  10.709   9.622   4.828  1.4002 -0.7105  0.1161
   16MOL0     O 2033  10.665   9.682   4.711  0.1696  0.6098 -1.0734
   16MOL0     C 2034  10.519   9.687   4.693 -0.2836  0.2135  0.6953
   16MOL0     C 2035  10.493   9.746   4.552  0.3298  0.1000 -0.1804
   16MOL0     C 2036  10.346   9.706   4.508  1.1352  0.0636 -0.4577
   16MOL0     C 2037  10.334   9.734   4.358  0.8512  0.8019  0.1453
   16MOL0     C 2038  10.182   9.741   4.309  0.2375 -0.1825  0.9251
   16MOL0     C 2039  10.101   9.625   4.355 -0.5818  0.5179  0.9973
   16MOL0     C 2040  10.156   9.490   4.294 -0.2534 -0.9515  0.1664
   16MOL0     C 2041  10.051   9.385   4.322 -0.2249  0.2054  0.4363
   16MOL0     N 2042   9.920   9.389   4.266  0.3972 -0.5818 -0.7099
   16MOL0     C 2043   9.877   9.396   4.136 -0.5188  0.1888  0.0166
   16MOL0     C 2044   9.741   9.381   4.150  0.5153 -0.0124  0.4483
   16MOL0     C 2045   9.643   9.401   4.035  1.1781  0.0825  0.8161
   16MOL0     C 2046   9.697   9.358   3.898  0.1246 -0.1117  0.0779
   16MOL0     C 2047   9.614   9.431   3.789  1.0861 -0.3902  0.5295
   16MOL0     C 2048   9.628   9.365   3.651 -0.3846  0.1858 -0.3311
   16MOL0     O 2049   9.583   9.451   3.541 -0.1047 -0.3577 -0.7460
   16MOL0     C 2050   9.445   9.472   3.538 -1.3570  0.2392  0.3683
   16MOL0     C 2051   9.397   9.577   3.449  0.0350  0.2235  0.0089
   16MOL0     C 2052   9.257   9.614   3.441 -0.1486 -0.7588 -0.2144
   16MOL0     C 2053   9.166   9.565   3.539 -0.2898 -0.5665  0.2334
   16MOL0     C 2054   9.028   9.619   3.548  0.5650  0.4142 -0.4018
   16MOL0     O 2055   8.994   9.727   3.468 -0.3363  0.5756  0.5400
   16MOL0     C 2056   8.877   9.792   3.479  0.1576  0.1702 -0.3732
   16MOL0     C 2057   8.750   9.734   3.471  0.2383 -0.4169 -0.9495
   16MOL0     C 2058   8.637   9.809   3.446 -0.2214 -0.8516 -0.2795
   16MOL0     C 2059   8.645   9.944   3.430 -0.7952  0.9678 -0.4271
   16MOL0     O 2060   8.545  10.020   3.395  0.6631 -0.1366  0.3495
   16MOL0     C 2061   8.433  10.017   3.485  1.0336 -0.5718 -0.9968
   16MOL0     C 2062   8.338  10.126   3.463 -0.4849 -0.3122  0.6973
   16MOL0     C 2063   8.241  10.149   3.575 -1.2203 -0.6057  0.2703
   16MOL0     C 2064   8.132  10.255   3.524 -0.2439  0.8773 -1.2832
   16MOL0     C 2065   8.043  10.292   3.642  0.0280  0.0225  0.4257
   16MOL0     C 2066   7.918  10.362   3.602  0.5920 -0.4065 -0.1780
   16MOL0     C 2067   7.846  10.415   3.729  0.3834 -0.3680  0.5425
   16MOL0     C 2068   7.707  10.462   3.697 -0.3085  0.4411 -0.4520
   16MOL0    Cl 2069   7.699  10.580   3.565  0.1224  0.2110  0.1515
   16MOL0     C 2070   8.766  10.004   3.450 -0.4700 -0.2837 -0.4010
   16MOL0     C 2071   8.875   9.930   3.476 -0.3057  0.5536 -0.5591
   16MOL0     O 2072   8.961   9.572   3.635 -0.5624  0.1404 -0.0253
   16MOL0     C 2073   9.211   9.466   3.637 -0.2286  0.7209  1.1269
   16MOL0     C 2074   9.344   9.417   3.620 -0.2097 -0.1763  0.1183
   16MOL0     N 2075   9.704   9.356   4.278 -0.7267  0.1763 -1.1796
   16MOL0     N 2076   9.821   9.349   4.347  0.9131 -0.4727  0.4400
   16MOL0     C 2077  10.817   9.530   4.841  0.1782  0.1591  0.2037
   16MOL0     C 2078  10.859   9.489   4.964 -0.1253  1.0916  0.8860
   16MOL0     C 2079  11.006   9.492   5.388 -0.7791 -1.2600 -0.9819
   16MOL0     C 2080  11.063   9.371   5.360 -0.3043  0.8260  0.3842
   16MOL0     C 2081  11.160   9.315   5.447  0.7373  0.5277 -0.1306
   16MOL0     C 2082  11.206   9.389   5.556  0.3627 -0.2142 -0.1918
   16MOL0     O 2083  11.292   9.327   5.637 -0.5454  0.4403  0.0342
   16MOL0     C 2084  11.223   9.237   5.735 -0.3688  0.2109 -0.2222
   16MOL0     C 2085  11.330   9.188   5.828 -0.1530  0.3220 -0.4201
   16MOL0     C 2086  11.354   9.276   5.951 -0.2904 -0.6023  0.7192
   16MOL0     C 2087  11.407   9.411   5.914 -1.0197  0.6531 -0.0425
   16MOL0     C 2088  11.458   9.478   6.035  0.7678 -0.5902  0.6094
   16MOL0     C 2089  11.488   9.530   6.142  1.1053 -0.1095 -0.0995
   16MOL0     C 2090  11.156   9.517   5.580  0.2939 -0.7935  0.3222
   16MOL0     C 2091  11.049   9.567   5.503 -0.4516  0.6869  0.1983
   16MOL0     C 2092  10.990   9.700   5.547  0.0064 -1.0284 -0.1960
   16MOL0     H 2093  10.622   9.613   5.170  0.6104 -1.8409  1.0777
   16MOL0     H 2094  10.555   9.715   4.957 -1.3460 -1.2404  0.4259
   16MOL0     H 2095  10.493   9.581   4.704  2.4401 -0.6091 -0.1929
   16MOL0     H 2096  10.467   9.749   4.766  1.7524  1.2974  1.2945
   16MOL0     H 2097  10.554   9.693   4.478 -0.5112 -1.5964  0.2864
   16MOL0     H 2098  10.509   9.854   4.552  0.1081  0.1989  2.3422
   16MOL0     H 2099  10.264   9.762   4.552 -0.1317 -1.3190 -0.9656
   16MOL0     H 2100  10.330   9.598   4.520 -1.5392  0.3752 -0.6968
   16MOL0     H 2101  10.389   9.827   4.339  1.4713  0.8276  1.9009
   16MOL0     H 2102  10.390   9.660   4.300  0.0063  2.6809 -3.3508
   16MOL0     H 2103  10.143   9.826   4.367 -0.8239  0.1760 -0.2588
   16MOL0     H 2104  10.171   9.776   4.206 -2.6571  3.7917  2.3158
   16MOL0     H 2105  10.103   9.621   4.464 -0.6108 -3.3621  0.9768
   16MOL0     H 2106   9.998   9.647   4.323  0.2452  1.8160 -1.0057
   16MOL0     H 2107  10.252   9.469   4.342 -0.2118  2.3854  1.8152
   16MOL0     H 2108  10.177   9.483   4.187 -1.1213 -2.0856  0.0500
   16MOL0     H 2109  10.096   9.292   4.287  1.6380  0.8327  1.0496
   16MOL0     H 2110  10.041   9.385   4.431 -2.7516 -1.0203  0.2721
   16MOL0     H 2111   9.932   9.425   4.047  0.2348  0.4187  0.5444
   16MOL0     H 2112   9.551   9.346   4.060 -1.0734  3.1030 -0.2285
   16MOL0     H 2113   9.613   9.506   4.033 -1.8841 -0.6638 -1.3550
   16MOL0     H 2114   9.803   9.381   3.886  0.3696 -0.5736  1.1986
   16MOL0     H 2115   9.670   9.252   3.896 -0.0150 -0.0842  0.3425
   16MOL0     H 2116   9.650   9.533   3.774 -0.3133  0.0653  0.1564
   16MOL0     H 2117   9.507   9.428   3.811  0.3528 -1.3442 -2.6474
   16MOL0     H 2118   9.581   9.266   3.652  0.1629 -0.0723 -0.1498
   16MOL0     H 2119   9.735   9.348   3.645 -0.3917  0.0377 -0.0488
   16MOL0     H 2120   9.462   9.632   3.382 -0.1708 -0.4133 -0.7299
   16MOL0     H 2121   9.238   9.690   3.365 -0.0470 -1.5138 -1.0021
   16MOL0     H 2122   8.745   9.626   3.465 -1.7954 -0.4607  0.5738
   16MOL0     H 2123   8.547   9.755   3.419 -0.6860  0.7141 -2.0750
   16MOL0     H 2124   8.377   9.924   3.476 -0.3795 -0.3040  2.9564
   16MOL0     H 2125   8.468  10.008   3.588 -0.3785 -1.5141 -0.5665
   16MOL0     H 2126   8.402  10.213   3.447 -1.3090  0.2922  0.6616
   16MOL0     H 2127   8.289  10.112   3.366  1.0239 -0.1401 -0.1374
   16MOL0     H 2128   8.194  10.055   3.605  0.0829 -1.3412  0.0809
   16MOL0     H 2129   8.293  10.188   3.662 -0.5334 -0.6769 -0.1005
   16MOL0     H 2130   8.064  10.196   3.462  1.0328 -1.9539 -0.1840
   16MOL0     H 2131   8.169  10.334   3.458  1.7370 -0.8927 -2.4365
   16MOL0     H 2132   8.107  10.364   3.694  0.7422  1.2004 -1.9482
   16MOL0     H 2133   8.010  10.214   3.712 -1.9088  2.0227  1.8923
   16MOL0     H 2134   7.954  10.444   3.540  1.0981 -0.8144 -0.4331
   16MOL0     H 2135   7.850  10.299   3.543  0.9407 -0.1819 -0.8272
   16MOL0     H 2136   7.902  10.497   3.775 -0.1283 -0.7723  1.9335
   16MOL0     H 2137   7.837  10.337   3.805  2.3980  0.0771  1.2986
   16MOL0     H 2138   7.645  10.374   3.679  0.2331 -0.1863  0.6812
   16MOL0     H 2139   7.668  10.506   3.790 -0.1400 -4.8665  2.4952
   16MOL0     H 2140   8.774  10.111   3.460  0.5817 -0.4840  1.3517
   16MOL0     H 2141   8.976   9.972   3.474  2.0733 -4.4438  0.1552
   16MOL0     H 2142   9.149   9.419   3.712 -1.2758  0.3081  0.0282
   16MOL0     H 2143   9.368   9.334   3.686  0.5865  0.8851  1.1920
   16MOL0     H 2144  10.879   9.477   4.770 -4.7170 -4.5359 -1.2373
   16MOL0     H 2145  10.951   9.431   4.965 -0.6739  0.1382 -0.4334
   16MOL0     H 2146  11.035   9.314   5.272 -4.4211  1.7795  0.8556
   16MOL0     H 2147  11.192   9.212   5.439  1.0296  0.4657  1.4964
   16MOL0     H 2148  11.193   9.143   5.688 -0.9013  1.3689 -2.3672
   16MOL0     H 2149  11.133   9.279   5.780 -0.3446  0.8719 -0.7681
   16MOL0     H 2150  11.427   9.176   5.779  0.7422 -4.6387  1.8677
   16MOL0     H 2151  11.301   9.089   5.866 -0.3233  0.6869  0.4336
   16MOL0     H 2152  11.420   9.232   6.026 -2.3766  0.7248  3.4956
   16MOL0     H 2153  11.252   9.279   5.990 -2.4600 -1.7607 -4.1404
   16MOL0     H 2154  11.495   9.427   5.853 -1.8879  1.2941 -1.1635
   16MOL0     H 2155  11.325   9.469   5.871 -0.3204  3.5432  2.1567
   16MOL0     H 2156  11.510   9.568   6.240  2.2760  2.8202 -1.3676
   16MOL0     H 2157  11.204   9.576   5.657  1.9203 -2.0555  0.3526
   16MOL0     H 2158  10.884   9.714   5.522  0.2936  0.2352 -0.7967
   16MOL0     H 2159  10.986   9.701   5.656 -0.5178  1.1747 -0.1977
   16MOL0     H 2160  11.050   9.777   5.499 -1.8066 -0.1144 -1.1167
   17MOL0     O 2161   4.770   3.020  11.504 -0.0933 -0.1486  0.4064
   17MOL0     C 2162   4.745   2.905  11.478 -0.1759  1.0245 -0.7944
   17MOL0     O 2163   4.747   2.845  11.360  0.0846 -0.4936 -0.1118
   17MOL0     C 2164   4.817   2.905  11.257 -0.2568  0.6032 -0.7516
   17MOL0     C 2165   4.748   2.923  11.142  0.0941 -0.2853  0.5577
   17MOL0     C 2166   4.803   2.979  11.027  0.0461  0.4368  0.0032
   17MOL0     C 2167   4.933   3.039  11.034 -0.4440 -0.9357  0.5955
   17MOL0     O 2168   4.998   3.085  10.912 -0.3875 -0.3016  0.1492
   17MOL0     C 2169   5.080   3.196  10.925 -0.7128  0.8597  0.0138
   17MOL0     C 2170   5.118   3.271  10.795  0.4680  0.1442  0.4877
   17MOL0     C 2171   5.005   3.351  10.732  0.4075  0.9724 -0.1076
   17MOL0     C 2172   4.971   3.308  10.593 -0.0349 -0.7245 -1.1754
   17MOL0     C 2173   4.853   3.383  10.526  0.2735  0.2577 -0.2598
   17MOL0     C 2174   4.728   3.354  10.590  0.7387  0.7405 -0.1349
   17MOL0     C 2175   4.636   3.348  10.468 -0.3416 -0.9308 -0.3620
   17MOL0     C 2176   4.490   3.335  10.515 -0.5969 -0.0710 -0.4785
   17MOL0     N 2177   4.456   3.221  10.602  0.3344 -0.0486 -0.7427
   17MOL0     C 2178   4.463   3.100  10.543  0.3194  1.4145  0.2107
   17MOL0     C 2179   4.456   3.012  10.648 -0.5673 -0.1021 -0.0395
   17MOL0     C 2180   4.469   2.856  10.648  0.2209  0.7060  0.5065
   17MOL0     C 2181   4.453   2.810  10.792 -0.4687 -0.4783  0.3953
   17MOL0     C 2182   4.318   2.766  10.852  0.0445 -0.1872  1.5796
   17MOL0     C 2183   4.205   2.870  10.851  0.8661 -0.2734 -0.7684
   17MOL0     O 2184   4.174   2.903  10.721 -0.1708 -0.7070  0.1118
   17MOL0     C 2185   4.049   2.961  10.705 -0.8238 -0.4636 -0.1106
   17MOL0     C 2186   4.020   3.093  10.733  0.5229  0.3324 -0.5393
   17MOL0     C 2187   3.884   3.140  10.724 -0.5145  0.3079 -0.7733
   17MOL0     C 2188   3.781   3.052  10.679  0.3790  0.3891 -0.3272
   17MOL0     C 2189   3.649   3.110  10.647 -1.3666  0.5872 -0.3134
   17MOL0     O 2190   3.543   3.039  10.607 -0.4340  0.0026  0.2327
   17MOL0     C 2191   3.412   3.092  10.619  0.6614  0.7101  0.1482
   17MOL0     C 2192   3.356   3.221  10.607 -0.5408 -0.2995  0.6396
   17MOL0     C 2193   3.218   3.244  10.608 -0.9644 -0.6152  0.2954
   17MOL0     C 2194   3.126   3.141  10.627 -0.2057 -0.5861 -0.1390
   17MOL0     O 2195   2.991   3.155  10.628 -0.4473  0.1734  0.1747
   17MOL0     C 2196   2.919   3.174  10.499  0.6617 -1.2383  0.1379
   17MOL0     C 2197   2.780   3.111  10.489 -0.5392  0.1966 -0.1614
   17MOL0     C 2198   2.725   3.154  10.354  0.3030 -0.4512 -0.6530
   17MOL0     C 2199   2.588   3.076  10.341  0.1570  0.3768 -0.2123
   17MOL0     C 2200   2.474   3.154  10.409  0.1132  1.2921  0.0305
   17MOL0     C 2201   2.459   3.301  10.364 -0.3023 -0.8498  0.4906
   17MOL0     C 2202   2.310   3.344  10.338  0.0698 -0.1062  0.3350
   17MOL0     C 2203   2.270   3.475  10.408 -0.2233 -0.6574  0.3328
   17MOL0    Cl 2204   2.267   3.467  10.590 -0.2813  0.1333  0.4295
   17MOL0     C 2205   3.170   3.003  10.645 -0.3900 -0.2440 -0.0082
   17MOL0     C 2206   3.317   2.987  10.638  0.3287  0.5371  0.3083
   17MOL0     O 2207   3.644   3.227  10.670 -0.3447 -0.1927  0.1988
   17MOL0     C 2208   3.808   2.916  10.668 -0.8089 -0.3054 -0.0507
   17MOL0     C 2209   3.946   2.877  10.675  0.0795  0.1290 -0.5127
   17MOL0     N 2210   4.433   3.090  10.765 -0.5755 -0.9023 -0.6918
   17MOL0     N 2211   4.440   3.215  10.735 -0.8593 -0.1173  0.6013
   17MOL0     C 2212   4.996   3.027  11.161  0.9119  0.4855  0.0096
   17MOL0     C 2213   4.942   2.958  11.269 -0.6902 -0.1898 -0.6329
   17MOL0     C 2214   4.709   2.815  11.590  0.3252 -0.4279 -0.5654
   17MOL0     C 2215   4.581   2.752  11.582  0.3616  0.0174 -0.1001
   17MOL0     C 2216   4.552   2.667  11.688  0.4819  0.5024 -0.3621
   17MOL0     C 2217   4.627   2.652  11.803  0.0646  0.7759  0.3820
   17MOL0     O 2218   4.570   2.575  11.900  1.0531 -0.9851  0.3739
   17MOL0     C 2219   4.619   2.629  12.022 -0.8425  0.9071 -0.6620
   17MOL0     C 2220   4.516   2.640  12.147 -1.0270 -0.6485 -0.5372
   17MOL0     C 2221   4.406   2.734  12.097  0.3898 -1.0367 -0.8100
   17MOL0     C 2222   4.304   2.789  12.200 -0.2613  0.3938 -1.0558
   17MOL0     C 2223   4.378   2.868  12.309 -0.7698 -0.1109  0.0766
   17MOL0     C 2224   4.435   2.942  12.398  0.0537 -0.0377  0.0260
   17MOL0     C 2225   4.760   2.704  11.804  0.0451 -0.3833  0.6499
   17MOL0     C 2226   4.800   2.789  11.698  0.0101  0.4453  1.1020
   17MOL0     C 2227   4.940   2.848  11.709 -0.2785 -0.4462  0.1826
   17MOL0     H 2228   4.645   2.890  11.138 -0.6126  1.9192 -2.1246
   17MOL0     H 2229   4.748   2.965  10.935  1.2177  0.8398 -0.7880
   17MOL0     H 2230   5.038   3.278  10.983  1.1707 -0.1329  3.0149
   17MOL0     H 2231   5.169   3.174  10.985 -1.8833  2.2253  2.4256
   17MOL0     H 2232   5.147   3.200  10.717  0.0721 -1.5089  1.7687
   17MOL0     H 2233   5.190   3.349  10.820 -1.0198  0.7255  3.4765
   17MOL0     H 2234   5.020   3.459  10.740  1.1087  0.8664  0.0619
   17MOL0     H 2235   4.919   3.333  10.798 -1.2161  2.2546 -1.7539
   17MOL0     H 2236   5.062   3.322  10.534  1.0022 -1.2258  0.2658
   17MOL0     H 2237   4.947   3.201  10.602 -1.4792 -0.7650 -4.0755
   17MOL0     H 2238   4.859   3.490  10.548 -2.8748  1.0700 -2.6700
   17MOL0     H 2239   4.849   3.371  10.417 -1.2879  1.7568 -0.4089
   17MOL0     H 2240   4.732   3.261  10.648 -1.3617  0.9127  0.3590
   17MOL0     H 2241   4.691   3.430  10.659 -1.1102 -1.5878  1.6085
   17MOL0     H 2242   4.678   3.267  10.407  1.3866  1.8210 -3.1449
   17MOL0     H 2243   4.658   3.441  10.414  1.9546 -1.0687  0.1988
   17MOL0     H 2244   4.467   3.434  10.557  2.5114  0.9812 -0.9678
   17MOL0     H 2245   4.427   3.323  10.426 -1.4812  0.0199  0.1233
   17MOL0     H 2246   4.484   3.079  10.439 -2.7198 -0.1141 -0.2070
   17MOL0     H 2247   4.393   2.817  10.580 -1.7321  3.8091  0.7021
   17MOL0     H 2248   4.564   2.823  10.606 -1.2054  0.5653 -2.9211
   17MOL0     H 2249   4.525   2.732  10.820  0.2787  0.4301  1.1182
   17MOL0     H 2250   4.487   2.896  10.852  1.1477  2.1500 -3.8504
   17MOL0     H 2251   4.355   2.745  10.953  1.8375  1.1922  1.2576
   17MOL0     H 2252   4.293   2.675  10.797  0.9549  0.2907  0.3351
   17MOL0     H 2253   4.229   2.955  10.916 -3.3298  0.6352 -0.1094
   17MOL0     H 2254   4.118   2.826  10.901  0.6452 -1.8265 -2.4144
   17MOL0     H 2255   4.109   3.153  10.753 -1.9405  3.3037  2.7276
   17MOL0     H 2256   3.863   3.245  10.740 -0.4639 -0.1454  3.4301
   17MOL0     H 2257   3.418   3.308  10.588  1.6961 -1.9892 -0.2980
   17MOL0     H 2258   3.184   3.342  10.573 -4.6261 -1.5298  0.8380
   17MOL0     H 2259   2.909   3.283  10.486 -1.0367 -1.4057 -0.2017
   17MOL0     H 2260   2.970   3.145  10.406 -2.4784  1.5443 -2.7545
   17MOL0     H 2261   2.798   3.003  10.491 -2.1973 -0.1074  0.5187
   17MOL0     H 2262   2.710   3.130  10.570 -2.0715  0.8823 -1.5771
   17MOL0     H 2263   2.709   3.263  10.357 -0.5971 -0.5604 -1.0151
   17MOL0     H 2264   2.798   3.123  10.280 -0.6458 -4.3241 -0.1601
   17MOL0     H 2265   2.603   2.976  10.383  0.7896  0.8069  0.5992
   17MOL0     H 2266   2.573   3.085  10.233  0.8376  2.0868 -0.2017
   17MOL0     H 2267   2.517   3.153  10.510 -0.1680  5.3805  0.3721
   17MOL0     H 2268   2.380   3.098  10.420  1.2190 -0.5504  0.5871
   17MOL0     H 2269   2.504   3.357  10.447 -0.7065 -1.3606  1.0655
   17MOL0     H 2270   2.522   3.318  10.276  1.0449  3.9263  2.0777
   17MOL0     H 2271   2.238   3.268  10.369 -0.7768  0.7629  0.5447
   17MOL0     H 2272   2.293   3.356  10.230  2.0776 -0.4642 -0.0764
   17MOL0     H 2273   2.338   3.557  10.384 -1.3643 -0.2783 -1.7823
   17MOL0     H 2274   2.171   3.506  10.374 -0.4115 -1.5622  0.0263
   17MOL0     H 2275   3.109   2.913  10.643  0.2516 -0.7182 -3.1218
   17MOL0     H 2276   3.363   2.889  10.637 -1.1290 -0.1836 -0.4786
   17MOL0     H 2277   3.722   2.858  10.636 -1.9512  0.5654  1.3205
   17MOL0     H 2278   3.957   2.769  10.678 -0.4430  0.0932  0.7419
   17MOL0     H 2279   5.095   3.064  11.185  0.7189 -0.5870  2.7948
   17MOL0     H 2280   5.003   2.947  11.358 -2.1718  1.4936  0.6747
   17MOL0     H 2281   4.513   2.779  11.502 -1.1580 -0.0082  1.1482
   17MOL0     H 2282   4.450   2.630  11.678 -0.3395  2.4935  0.0297
   17MOL0     H 2283   4.666   2.728  12.021 -1.2331  1.1174 -2.7876
   17MOL0     H 2284   4.697   2.561  12.057 -0.7512  1.8431  1.0449
   17MOL0     H 2285   4.559   2.685  12.237  0.0278  1.4979 -2.0298
   17MOL0     H 2286   4.490   2.537  12.171  1.0638 -0.6815  2.0972
   17MOL0     H 2287   4.355   2.701  12.006  0.4871  1.2906 -1.7791
   17MOL0     H 2288   4.445   2.828  12.057 -1.1384  0.2890  0.6440
   17MOL0     H 2289   4.233   2.852  12.148  0.7410  2.3430 -0.1708
   17MOL0     H 2290   4.251   2.704  12.245 -1.3917  1.5339 -0.1603
   17MOL0     H 2291   4.485   2.994  12.478 -1.2797 -3.3923  3.3482
   17MOL0     H 2292   4.826   2.672  11.884 -2.5600 -0.3906  2.9492
   17MOL0     H 2293   5.007   2.778  11.760 -1.7137  0.4039  3.5038
   17MOL0     H 2294   4.995   2.861  11.615  5.9200 -2.2583  3.0005
   17MOL0     H 2295   4.938   2.943  11.763 -0.8110  1.2829 -2.6857
   18MOL0     O 2296   8.024   4.066   8.711  0.7671 -0.2669 -0.3684
   18MOL0     C 2297   8.097   4.023   8.799 -0.1254 -0.0063  0.1471
   18MOL0     O 2298   8.116   3.889   8.827 -0.1611 -1.0177 -1.3812
   18MOL0     C 2299   8.026   3.797   8.789  0.7591 -0.2725 -0.4200
   18MOL0     C 2300   7.952   3.708   8.885  0.8388 -0.8281  0.5100
   18MOL0     C 2301   7.843   3.629   8.845 -0.5178  0.7418  0.2193
   18MOL0     C 2302   7.811   3.620   8.706 -1.2504 -0.5162  1.1824
   18MOL0     O 2303   7.727   3.531   8.647 -0.7230 -0.0472  0.2395
   18MOL0     C 2304   7.600   3.536   8.716 -1.1342 -0.0628  0.6608
   18MOL0     C 2305   7.594   3.419   8.812  0.6894  0.5308  0.5916
   18MOL0     C 2306   7.531   3.293   8.750 -0.0068 -0.4001 -0.3156
   18MOL0     C 2307   7.375   3.296   8.730 -0.0584  0.8262  0.1059
   18MOL0     C 2308   7.323   3.278   8.586 -0.3639  0.5214  0.7295
   18MOL0     C 2309   7.316   3.134   8.529 -0.1152 -0.8114 -0.0072
   18MOL0     C 2310   7.211   3.106   8.416  0.7059 -0.4331 -0.7911
   18MOL0     C 2311   7.228   2.962   8.363 -0.3311  0.7198 -0.1461
   18MOL0     N 2312   7.200   2.857   8.460  0.2461  0.2236 -0.1615
   18MOL0     C 2313   7.079   2.802   8.494  0.5262 -0.7660 -1.0052
   18MOL0     C 2314   7.118   2.724   8.599  0.9206  1.2374 -0.4870
   18MOL0     C 2315   7.030   2.646   8.694  0.0360 -0.0059 -0.2493
   18MOL0     C 2316   6.932   2.551   8.622  0.7378  0.3462  0.3176
   18MOL0     C 2317   7.004   2.446   8.534 -0.6285 -1.1153  0.0769
   18MOL0     C 2318   7.079   2.338   8.604 -0.3412  0.4391  0.8247
   18MOL0     O 2319   7.022   2.274   8.722 -0.2534 -0.0731  0.4723
   18MOL0     C 2320   6.920   2.179   8.702 -0.9524 -0.7033  0.1264
   18MOL0     C 2321   6.860   2.145   8.583 -0.0843  1.0922  0.1844
   18MOL0     C 2322   6.759   2.043   8.581 -0.6472 -1.4186  0.4729
   18MOL0     C 2323   6.710   1.992   8.701  0.1435 -0.1439 -0.2557
   18MOL0     C 2324   6.601   1.899   8.718 -0.2392 -0.2583  0.6144
   18MOL0     O 2325   6.567   1.817   8.612 -0.2949 -0.5290  0.2105
   18MOL0     C 2326   6.520   1.688   8.631  0.3717  0.2460  0.1232
   18MOL0     C 2327   6.589   1.587   8.705  0.5994 -0.1261 -0.7045
   18MOL0     C 2328   6.534   1.461   8.718  0.1982 -0.7293 -1.0395
   18MOL0     C 2329   6.408   1.434   8.666 -0.4166  0.1206 -0.0276
   18MOL0     O 2330   6.345   1.319   8.694  0.1626 -0.3618 -0.6328
   18MOL0     C 2331   6.273   1.267   8.588  0.2578  0.7108 -0.2588
   18MOL0     C 2332   6.348   1.232   8.458 -0.8396  0.3751  0.3621
   18MOL0     C 2333   6.266   1.213   8.325  0.1719  0.1220 -0.1612
   18MOL0     C 2334   6.352   1.269   8.198  0.7473  0.0125  0.1766
   18MOL0     C 2335   6.255   1.290   8.079  0.2834  0.2317 -0.5998
   18MOL0     C 2336   6.226   1.157   7.998  0.3036 -0.8613  1.1250
   18MOL0     C 2337   6.294   1.156   7.859  0.5672 -1.0266 -0.4647
   18MOL0     C 2338   6.443   1.125   7.878 -0.8351 -1.1365 -0.3703
   18MOL0    Cl 2339   6.543   1.126   7.720  0.3978 -0.3625  0.0335
   18MOL0     C 2340   6.337   1.540   8.610  0.0518  0.0542  0.8831
   18MOL0     C 2341   6.395   1.662   8.580 -0.6013 -0.1685 -0.5208
   18MOL0     O 2342   6.565   1.877   8.835 -0.0462  0.4282  0.4284
   18MOL0     C 2343   6.767   2.035   8.823  0.0912  0.1151  0.3512
   18MOL0     C 2344   6.878   2.123   8.822 -0.0601  0.1113  0.6532
   18MOL0     N 2345   7.255   2.724   8.622 -0.6427  0.9997  0.5755
   18MOL0     N 2346   7.304   2.802   8.533 -0.1623  0.3022  0.7701
   18MOL0     C 2347   7.886   3.691   8.610 -0.3760 -0.0199 -0.3016
   18MOL0     C 2348   7.996   3.772   8.649 -0.8096 -1.2269 -0.6098
   18MOL0     C 2349   8.181   4.113   8.879  0.2318  0.1380  0.5390
   18MOL0     C 2350   8.191   4.081   9.015  0.3745  0.4010  0.4306
   18MOL0     C 2351   8.271   4.158   9.094 -1.0316 -0.8550 -0.3285
   18MOL0     C 2352   8.344   4.271   9.042 -0.2853  0.6592 -0.8340
   18MOL0     O 2353   8.423   4.357   9.118 -0.7171  0.0422 -0.2072
   18MOL0     C 2354   8.441   4.334   9.265 -0.2457 -0.7186  0.0750
   18MOL0     C 2355   8.315   4.391   9.329 -1.1213 -0.2852 -0.7229
   18MOL0     C 2356   8.329   4.382   9.481  0.2120 -1.0065 -0.1706
   18MOL0     C 2357   8.205   4.322   9.546 -0.1785  0.9622  0.4906
   18MOL0     C 2358   8.195   4.184   9.504  0.1358 -0.3782 -0.6428
   18MOL0     C 2359   8.166   4.079   9.464  0.0397 -0.1341  0.6747
   18MOL0     C 2360   8.319   4.303   8.911  0.2724  0.7746  1.1775
   18MOL0     C 2361   8.245   4.227   8.828  1.0265 -0.8386  0.8983
   18MOL0     C 2362   8.233   4.278   8.679 -0.5654  0.5475 -0.2084
   18MOL0     H 2363   7.973   3.714   8.992  0.2413  3.3271  0.5826
   18MOL0     H 2364   7.798   3.575   8.927 -0.7047  1.1850  0.4101
   18MOL0     H 2365   7.573   3.633   8.759 -0.6223  0.8889 -1.0945
   18MOL0     H 2366   7.534   3.516   8.632 -0.1310 -2.4070  0.3406
   18MOL0     H 2367   7.553   3.449   8.908  3.4552  0.8881  1.7648
   18MOL0     H 2368   7.694   3.395   8.849  0.5720  2.7090  2.5418
   18MOL0     H 2369   7.568   3.205   8.802 -2.0441 -1.6608 -0.8961
   18MOL0     H 2370   7.574   3.283   8.650  2.5756 -1.5602  0.8055
   18MOL0     H 2371   7.332   3.220   8.797  2.8965  2.7527  4.7284
   18MOL0     H 2372   7.344   3.395   8.764 -4.3463 -0.1703 -0.3183
   18MOL0     H 2373   7.224   3.323   8.591 -0.2977  0.8240 -0.3683
   18MOL0     H 2374   7.372   3.353   8.523  0.5197  2.6765  3.7902
   18MOL0     H 2375   7.417   3.126   8.488  0.8595 -2.1156  2.4436
   18MOL0     H 2376   7.307   3.051   8.600 -1.3850 -0.4556  0.2838
   18MOL0     H 2377   7.204   3.171   8.328 -0.1934  0.2649 -0.2262
   18MOL0     H 2378   7.112   3.116   8.463 -0.7381 -5.8426 -1.9439
   18MOL0     H 2379   7.145   2.940   8.295 -1.5086  0.1035  1.4075
   18MOL0     H 2380   7.318   2.957   8.301 -0.0862  1.9919  0.0873
   18MOL0     H 2381   6.984   2.832   8.451 -0.4087 -2.2820 -0.0803
   18MOL0     H 2382   7.094   2.583   8.757 -1.0479  0.9394  1.8561
   18MOL0     H 2383   6.981   2.726   8.749 -4.7157 -2.2176 -0.7469
   18MOL0     H 2384   6.857   2.505   8.686 -1.4266  0.6295 -1.8360
   18MOL0     H 2385   6.872   2.613   8.554  2.1752 -0.9216 -2.2782
   18MOL0     H 2386   7.065   2.507   8.466 -0.3034 -3.6949 -2.0941
   18MOL0     H 2387   6.936   2.403   8.460  0.1250  1.7385 -2.5051
   18MOL0     H 2388   7.172   2.387   8.634 -0.0833  0.0384  0.6863
   18MOL0     H 2389   7.107   2.257   8.536  4.2055  1.5924  0.9683
   18MOL0     H 2390   6.898   2.193   8.493  1.5289 -0.8086 -0.2133
   18MOL0     H 2391   6.717   2.001   8.491  0.5113  0.2063 -0.8871
   18MOL0     H 2392   6.686   1.617   8.743  0.2298  0.4306 -0.1765
   18MOL0     H 2393   6.592   1.387   8.772  0.3454  0.5149  0.5948
   18MOL0     H 2394   6.217   1.177   8.616 -3.2489  3.1213  1.1574
   18MOL0     H 2395   6.194   1.337   8.557  0.6579  2.3024  2.0613
   18MOL0     H 2396   6.404   1.324   8.441 -0.6969 -0.0061 -1.3276
   18MOL0     H 2397   6.420   1.151   8.471 -1.6864 -0.7209 -1.4654
   18MOL0     H 2398   6.230   1.110   8.313 -1.4111  0.9544 -4.6427
   18MOL0     H 2399   6.180   1.280   8.319  0.7393  0.7882 -1.2148
   18MOL0     H 2400   6.420   1.188   8.172  2.0568  1.2253 -0.2907
   18MOL0     H 2401   6.402   1.362   8.225 -2.9566  2.1708  0.3445
   18MOL0     H 2402   6.305   1.360   8.012 -0.1973 -0.3880 -1.6315
   18MOL0     H 2403   6.163   1.343   8.106  0.6383  2.0854 -2.7399
   18MOL0     H 2404   6.255   1.067   8.051 -0.9809 -1.5292  0.7352
   18MOL0     H 2405   6.118   1.157   7.979  0.5854 -0.0638 -0.7816
   18MOL0     H 2406   6.281   1.251   7.806  2.1185 -1.8206 -2.4147
   18MOL0     H 2407   6.252   1.078   7.796 -0.1507 -2.5282  1.7562
   18MOL0     H 2408   6.480   1.200   7.949  0.1156 -0.9534 -1.0457
   18MOL0     H 2409   6.450   1.025   7.923 -3.6507 -0.0990  2.9179
   18MOL0     H 2410   6.236   1.547   8.571 -0.9382  1.3141  3.4289
   18MOL0     H 2411   6.354   1.740   8.517 -1.2818  2.0390  2.4440
   18MOL0     H 2412   6.745   2.004   8.924 -1.2998  3.3607  1.1909
   18MOL0     H 2413   6.926   2.155   8.914  0.3778  0.7177  0.2212
   18MOL0     H 2414   7.859   3.673   8.506 -2.7190  0.0236  0.2401
   18MOL0     H 2415   8.054   3.829   8.576  0.6216  1.3332  2.3277
   18MOL0     H 2416   8.140   3.994   9.054  0.3847  0.0621 -0.3190
   18MOL0     H 2417   8.281   4.127   9.197 -0.0961 -0.1349 -0.1813
   18MOL0     H 2418   8.524   4.396   9.300 -0.4202 -0.1566 -0.4966
   18MOL0     H 2419   8.468   4.233   9.298 -0.0885 -0.6009  0.3073
   18MOL0     H 2420   8.220   4.348   9.297 -1.8486  2.2759 -2.2319
   18MOL0     H 2421   8.298   4.491   9.290 -1.6269 -1.1261 -2.7806
   18MOL0     H 2422   8.342   4.485   9.517 -0.1510 -1.9711  3.0872
   18MOL0     H 2423   8.423   4.339   9.516 -0.5245 -2.6645 -0.1537
   18MOL0     H 2424   8.210   4.340   9.654  0.4800  1.2200  0.4190
   18MOL0     H 2425   8.120   4.381   9.510 -1.5004 -1.0544  0.1808
   18MOL0     H 2426   8.147   3.981   9.426  2.9282 -0.6840  0.4128
   18MOL0     H 2427   8.375   4.382   8.862 -2.0959  1.0468 -1.3153
   18MOL0     H 2428   8.129   4.311   8.666 -1.1694 -1.7040 -1.6796
   18MOL0     H 2429   8.307   4.355   8.655  0.5268 -1.0655 -2.3596
   18MOL0     H 2430   8.240   4.208   8.595 -2.2310 -0.1783  0.2252
   19MOL0     O 2431   5.061   0.260   8.273  0.6492 -0.2321  0.4679
   19MOL0     C 2432   5.148   0.319   8.209 -0.2536  1.2744 -1.2602
   19MOL0     O 2433   5.252   0.257   8.143 -0.9594  0.2664  0.1152
   19MOL0     C 2434   5.264   0.121   8.119 -0.5254  0.1093 -0.6209
   19MOL0     C 2435   5.337   0.039   8.210  0.1691 -0.2646  0.6956
   19MOL0     C 2436   5.357  -0.096   8.192 -0.2009  0.9008 -0.0966
   19MOL0     C 2437   5.305  -0.162   8.074  0.8167  0.3594 -0.8877
   19MOL0     O 2438   5.315  -0.292   8.035 -0.5686 -0.1219 -0.1112
   19MOL0     C 2439   5.324  -0.393   8.140 -0.7646 -0.1567 -0.5097
   19MOL0     C 2440   5.204  -0.483   8.113  0.0150 -0.3063 -0.1485
   19MOL0     C 2441   5.196  -0.584   8.229  0.9512 -0.0406 -0.5433
   19MOL0     C 2442   5.068  -0.563   8.305  0.1084  0.2885 -0.9348
   19MOL0     C 2443   5.061  -0.665   8.412 -0.7411  0.7764 -0.0215
   19MOL0     C 2444   4.922  -0.669   8.469 -0.3270 -1.0364  0.0291
   19MOL0     C 2445   4.915  -0.761   8.588  1.1812 -0.3506 -0.1078
   19MOL0     C 2446   4.764  -0.760   8.632  0.9695 -0.3773  0.8202
   19MOL0     N 2447   4.735  -0.835   8.758 -0.3645  0.3895 -0.1217
   19MOL0     C 2448   4.816  -0.829   8.864  0.1301  1.0344 -0.5996
   19MOL0     C 2449   4.771  -0.935   8.946  0.1997  0.5363 -0.1751
   19MOL0     C 2450   4.832  -0.961   9.082  0.3943  0.2771 -0.3765
   19MOL0     C 2451   4.732  -0.908   9.186  0.3041 -0.0730  0.4569
   19MOL0     C 2452   4.671  -1.032   9.266 -0.1396  0.0096 -0.2089
   19MOL0     C 2453   4.559  -0.984   9.356  0.1375 -1.4521  0.5284
   19MOL0     O 2454   4.630  -0.918   9.463  0.7158 -0.8940  0.2119
   19MOL0     C 2455   4.624  -0.963   9.594  0.1007  0.4702 -0.5050
   19MOL0     C 2456   4.550  -1.088   9.635  0.2478 -0.7941 -0.2439
   19MOL0     C 2457   4.536  -1.122   9.777  0.0497  0.3981  0.0536
   19MOL0     C 2458   4.606  -1.046   9.876 -0.0771 -0.1026  0.6542
   19MOL0     C 2459   4.605  -1.108  10.015 -0.3869  0.1974 -1.0004
   19MOL0     O 2460   4.692  -1.042  10.102 -0.3885 -0.0066  0.3527
   19MOL0     C 2461   4.702  -1.100  10.226 -0.1133  0.4101  0.7420
   19MOL0     C 2462   4.604  -1.073  10.313 -0.1901 -0.4234 -0.2524
   19MOL0     C 2463   4.610  -1.124  10.442 -0.2930 -0.5434 -0.4565
   19MOL0     C 2464   4.709  -1.215  10.486 -0.2951 -0.2386  0.2931
   19MOL0     O 2465   4.741  -1.262  10.617 -0.2714 -0.3441 -0.2027
   19MOL0     C 2466   4.647  -1.215  10.714  0.7854 -0.6907  0.7523
   19MOL0     C 2467   4.693  -1.252  10.854 -0.4032  0.3244  0.6597
   19MOL0     C 2468   4.679  -1.401  10.887 -0.5888  0.3704 -0.2287
   19MOL0     C 2469   4.789  -1.496  10.838  0.2169 -0.5166 -0.3442
   19MOL0     C 2470   4.769  -1.642  10.885  0.6361  0.3735 -0.1002
   19MOL0     C 2471   4.827  -1.648  11.032  0.7943  0.5930 -0.6533
   19MOL0     C 2472   4.780  -1.781  11.116 -0.0810 -0.0760 -0.6465
   19MOL0     C 2473   4.683  -1.741  11.225  0.5166  0.2542 -0.9459
   19MOL0    Cl 2474   4.772  -1.652  11.346  0.3177 -0.2644 -0.0621
   19MOL0     C 2475   4.810  -1.241  10.391  0.3771 -0.1847 -1.0378
   19MOL0     C 2476   4.799  -1.189  10.264 -1.4067  0.4009  0.2414
   19MOL0     O 2477   4.538  -1.210  10.045  0.4760  0.4672  0.5721
   19MOL0     C 2478   4.662  -0.926   9.839 -1.0265 -0.0705  0.4807
   19MOL0     C 2479   4.681  -0.894   9.700  0.0223 -0.1814  0.1973
   19MOL0     N 2480   4.664  -1.007   8.880 -1.4138 -1.8857  1.0922
   19MOL0     N 2481   4.655  -0.949   8.763  0.1551  0.4806  0.0613
   19MOL0     C 2482   5.239  -0.079   7.981  0.4152 -2.1616  0.3379
   19MOL0     C 2483   5.217   0.056   8.000 -0.0145  0.6128 -0.5563
   19MOL0     C 2484   5.152   0.467   8.230 -0.4373  0.2425  0.1800
   19MOL0     C 2485   5.267   0.537   8.180  0.2084  1.4409 -0.0693
   19MOL0     C 2486   5.273   0.674   8.183 -0.2164 -0.7401  0.3307
   19MOL0     C 2487   5.171   0.747   8.243  0.4608  0.3817  0.2265
   19MOL0     O 2488   5.183   0.885   8.263 -0.7354 -0.2663  0.5110
   19MOL0     C 2489   5.074   0.970   8.265 -0.0075 -0.1842  0.2812
   19MOL0     C 2490   5.132   1.107   8.217  0.2565  0.0853  0.5698
   19MOL0     C 2491   5.055   1.232   8.264 -0.2524  0.6916 -0.0565
   19MOL0     C 2492   4.909   1.231   8.238  0.6448  1.0488 -0.7291
   19MOL0     C 2493   4.830   1.290   8.341  0.4545  0.2844 -0.1829
   19MOL0     C 2494   4.760   1.343   8.422  0.2152 -0.0795 -0.1369
   19MOL0     C 2495   5.057   0.690   8.287 -0.2242 -0.3767 -0.2281
   19MOL0     C 2496   5.046   0.549   8.287 -0.4547 -0.5660 -0.0998
   19MOL0     C 2497   4.912   0.493   8.321 -0.1984 -1.1008 -1.3837
   19MOL0     H 2498   5.371   0.087   8.301  2.5933 -0.6709  0.0710
   19MOL0     H 2499   5.424  -0.159   8.250 -0.2515  1.4615  0.5849
   19MOL0     H 2500   5.417  -0.450   8.125 -1.0136 -0.5203 -0.6765
   19MOL0     H 2501   5.328  -0.355   8.243  0.9106 -1.3875 -0.0683
   19MOL0     H 2502   5.208  -0.525   8.012 -0.0542  4.3073 -2.3350
   19MOL0     H 2503   5.112  -0.425   8.123 -0.2936 -0.9409  0.8303
   19MOL0     H 2504   5.271  -0.581   8.309 -0.0239  4.0834  0.4057
   19MOL0     H 2505   5.192  -0.680   8.176 -0.6652  0.1553 -0.7993
   19MOL0     H 2506   5.074  -0.461   8.343  3.5648 -0.5798  1.4460
   19MOL0     H 2507   4.983  -0.585   8.241 -1.7279 -1.1626  1.8078
   19MOL0     H 2508   5.075  -0.763   8.364 -1.9454  0.9629 -0.8037
   19MOL0     H 2509   5.141  -0.649   8.485  1.1122  0.8571 -1.9935
   19MOL0     H 2510   4.888  -0.569   8.496 -2.0686 -1.0584 -1.7981
   19MOL0     H 2511   4.854  -0.707   8.392 -1.7467  1.6311 -0.1626
   19MOL0     H 2512   4.980  -0.727   8.669 -0.5217  0.7943  0.8425
   19MOL0     H 2513   4.947  -0.860   8.555 -0.9416 -0.7527 -1.1569
   19MOL0     H 2514   4.723  -0.662   8.661  0.2667 -0.8363  1.4172
   19MOL0     H 2515   4.700  -0.790   8.548  1.8563  0.9380 -0.3774
   19MOL0     H 2516   4.900  -0.763   8.883 -0.4082  1.0673  2.0669
   19MOL0     H 2517   4.855  -1.066   9.101  4.3576  0.9383 -0.7777
   19MOL0     H 2518   4.934  -0.923   9.084  1.7922 -3.1255  1.3357
   19MOL0     H 2519   4.796  -0.846   9.248  0.3597  0.0993  0.2259
   19MOL0     H 2520   4.649  -0.852   9.141 -0.2681  1.8831  3.6516
   19MOL0     H 2521   4.753  -1.072   9.326  1.4302  3.0350 -0.1481
   19MOL0     H 2522   4.626  -1.102   9.194 -0.4290  4.0136 -4.3290
   19MOL0     H 2523   4.491  -1.064   9.386 -0.9721 -0.9489 -0.5091
   19MOL0     H 2524   4.500  -0.908   9.302 -1.0575 -1.3879  1.8576
   19MOL0     H 2525   4.506  -1.158   9.565  1.7991 -1.5812 -0.4776
   19MOL0     H 2526   4.487  -1.212   9.810 -1.4440  0.5352 -1.6225
   19MOL0     H 2527   4.526  -1.002  10.286 -0.1876  0.9048  2.8556
   19MOL0     H 2528   4.526  -1.085  10.499  0.7520  2.1942 -0.6331
   19MOL0     H 2529   4.644  -1.106  10.708 -3.0296 -0.5696  2.5240
   19MOL0     H 2530   4.553  -1.260  10.680  0.1864 -2.0508  3.9175
   19MOL0     H 2531   4.797  -1.220  10.867 -0.9622  2.3041  0.6172
   19MOL0     H 2532   4.635  -1.202  10.932 -1.2553  0.3392  0.0385
   19MOL0     H 2533   4.675  -1.416  10.996  1.1843  2.3939  0.1857
   19MOL0     H 2534   4.588  -1.440  10.840  0.6993  1.1450 -3.6234
   19MOL0     H 2535   4.887  -1.464  10.877 -0.3449  0.1351  0.5673
   19MOL0     H 2536   4.797  -1.487  10.729 -0.1847  1.2935 -0.2473
   19MOL0     H 2537   4.820  -1.714  10.821 -1.4811  0.5944 -2.1619
   19MOL0     H 2538   4.662  -1.666  10.873  0.7608 -0.8860  1.0864
   19MOL0     H 2539   4.936  -1.653  11.023  0.6375  1.0699 -4.1440
   19MOL0     H 2540   4.787  -1.558  11.078 -0.7248 -0.6703  0.6245
   19MOL0     H 2541   4.865  -1.827  11.167 -0.8525 -0.1240  0.6366
   19MOL0     H 2542   4.743  -1.867  11.060 -2.6056 -0.6551  1.7281
   19MOL0     H 2543   4.598  -1.687  11.182 -0.4068 -2.2274 -2.4113
   19MOL0     H 2544   4.646  -1.834  11.268  3.3454 -0.2398  0.6495
   19MOL0     H 2545   4.898  -1.301  10.415  1.0785  0.6542 -1.4836
   19MOL0     H 2546   4.874  -1.210  10.188 -1.4207  0.8148  0.1075
   19MOL0     H 2547   4.734  -0.879   9.906  0.3808  0.3141 -1.2234
   19MOL0     H 2548   4.742  -0.809   9.670 -1.0953  0.7989  0.6736
   19MOL0     H 2549   5.198  -0.121   7.890  1.2533  1.2496 -1.8151
   19MOL0     H 2550   5.153   0.113   7.934  0.1481  1.4747 -0.0052
   19MOL0     H 2551   5.361   0.493   8.148  0.4412 -0.8335  3.2465
   19MOL0     H 2552   5.360   0.719   8.137 -1.4171  2.9912  1.3389
   19MOL0     H 2553   5.036   0.991   8.366  0.6583  1.7048  0.1838
   19MOL0     H 2554   4.995   0.918   8.210 -2.6533  0.8065  2.8692
   19MOL0     H 2555   5.139   1.108   8.108  2.1782  1.9157  0.6577
   19MOL0     H 2556   5.238   1.116   8.243  0.1464 -0.3192  1.1704
   19MOL0     H 2557   5.098   1.322   8.220  1.3551  0.0501  0.1148
   19MOL0     H 2558   5.070   1.240   8.372 -4.4959 -1.4640  0.9183
   19MOL0     H 2559   4.882   1.276   8.142 -1.2047 -1.3989 -1.4562
   19MOL0     H 2560   4.869   1.129   8.227 -3.6157  2.7072 -3.8834
   19MOL0     H 2561   4.706   1.384   8.505 -0.9455 -2.8209  0.5873
   19MOL0     H 2562   4.981   0.753   8.330  0.3869 -0.1998  0.6201
   19MOL0     H 2563   4.911   0.405   8.386 -1.1809 -0.0146  0.1454
   19MOL0     H 2564   4.847   0.559   8.379  0.7722 -1.9360  0.7533
   19MOL0     H 2565   4.851   0.487   8.231 -1.9243 -1.6268 -0.2332
   20MOL0     O 2566   3.624  10.159   9.259 -0.3390  0.1008 -0.0294
   20MOL0     C 2567   3.514  10.197   9.286  1.3754 -0.8335  0.0320
   20MOL0     O 2568   3.471  10.326   9.258  0.4857 -0.6439 -0.1500
   20MOL0     C 2569   3.524  10.394   9.153  0.3073 -0.7311  0.4742
   20MOL0     C 2570   3.543  10.321   9.029  1.0589 -0.4767 -0.6131
   20MOL0     C 2571   3.577  10.401   8.921  0.1093 -0.0510 -0.1466
   20MOL0     C 2572   3.602  10.537   8.934  0.6186 -0.4994  0.1696
   20MOL0     O 2573   3.623  10.611   8.811  0.3761 -0.5295  0.1322
   20MOL0     C 2574   3.704  10.718   8.811  0.7262 -0.4724 -0.1707
   20MOL0     C 2575   3.620  10.850   8.776 -0.3411  1.0322  0.8486
   20MOL0     C 2576   3.686  10.956   8.679  0.0222 -0.8817 -0.3602
   20MOL0     C 2577   3.677  10.906   8.532 -0.2097 -0.2233  0.4559
   20MOL0     C 2578   3.767  10.992   8.433  1.4534  0.1563 -0.2389
   20MOL0     C 2579   3.741  11.142   8.444 -1.0427 -0.4006  1.1896
   20MOL0     C 2580   3.832  11.216   8.344  0.3531 -0.3426  0.8963
   20MOL0     C 2581   3.817  11.368   8.361 -0.0397  0.3963 -0.5259
   20MOL0     N 2582   3.872  11.439   8.252  0.3223  0.0296 -0.3748
   20MOL0     C 2583   3.994  11.416   8.204 -0.7912 -0.0282 -0.8262
   20MOL0     C 2584   4.007  11.505   8.105 -0.1854  0.6606 -0.3252
   20MOL0     C 2585   4.128  11.515   8.024  0.2767 -0.2997 -0.9290
   20MOL0     C 2586   4.226  11.614   8.086  0.0168  0.5998  0.2057
   20MOL0     C 2587   4.179  11.760   8.096  1.2613  0.4733  0.2177
   20MOL0     C 2588   4.279  11.861   8.046  0.1084 -0.3109  1.0111
   20MOL0     O 2589   4.273  11.983   8.111 -0.9946  0.3132  0.0022
   20MOL0     C 2590   4.371  12.071   8.091  0.0537 -0.5720 -0.1576
   20MOL0     C 2591   4.432  12.103   7.967 -0.0395 -0.0405  0.6543
   20MOL0     C 2592   4.530  12.199   7.954 -0.0873 -0.5096 -0.8397
   20MOL0     C 2593   4.592  12.242   8.074 -0.7322 -0.6689  0.6089
   20MOL0     C 2594   4.733  12.310   8.072 -0.3963  0.1029 -0.7559
   20MOL0     O 2595   4.775  12.337   7.947 -0.7015  0.5878 -0.3888
   20MOL0     C 2596   4.896  12.397   7.931 -0.9928  0.2525 -0.3193
   20MOL0     C 2597   4.909  12.528   7.883  0.6879  0.1008 -0.4562
   20MOL0     C 2598   5.035  12.578   7.845  0.4988  0.1523 -0.9905
   20MOL0     C 2599   5.148  12.507   7.860  0.6942 -0.1869  0.5373
   20MOL0     O 2600   5.269  12.551   7.811 -0.4105  0.5504 -0.8789
   20MOL0     C 2601   5.277  12.623   7.689  0.4508 -0.5509 -0.4876
   20MOL0     C 2602   5.259  12.545   7.572  0.4406 -0.1656  0.6361
   20MOL0     C 2603   5.357  12.437   7.519 -0.2229  0.8821 -0.1584
   20MOL0     C 2604   5.312  12.285   7.537  1.1232  0.1191 -0.1438
   20MOL0     C 2605   5.411  12.189   7.473 -0.2562 -0.2302  0.7292
   20MOL0     C 2606   5.363  12.042   7.450  0.0486  0.2253 -0.4323
   20MOL0     C 2607   5.367  11.975   7.593 -0.2549 -0.2013 -0.0689
   20MOL0     C 2608   5.317  11.831   7.594  0.1354 -0.1423  0.6484
   20MOL0    Cl 2609   5.256  11.817   7.764  0.2603 -0.5745  0.3473
   20MOL0     C 2610   5.140  12.379   7.917  0.0353 -0.6428  0.8278
   20MOL0     C 2611   5.015  12.333   7.958 -0.7124  0.0064  0.7224
   20MOL0     O 2612   4.789  12.345   8.172  0.9970 -0.9870  0.0799
   20MOL0     C 2613   4.537  12.207   8.204 -0.2093  0.0139  0.6229
   20MOL0     C 2614   4.418  12.136   8.211 -0.2838  0.2033  0.0010
   20MOL0     N 2615   3.891  11.575   8.085 -0.8877  0.9124  0.8877
   20MOL0     N 2616   3.809  11.524   8.166  0.3910  0.2113  0.5895
   20MOL0     C 2617   3.597  10.602   9.049 -0.5980 -1.3953 -0.7757
   20MOL0     C 2618   3.547  10.531   9.161 -0.6176  0.3440  0.2047
   20MOL0     C 2619   3.435  10.108   9.374  0.2288 -0.0373 -0.2358
   20MOL0     C 2620   3.305  10.061   9.339 -0.0054 -0.1438  0.1307
   20MOL0     C 2621   3.252   9.953   9.413  0.2774 -0.3721  0.7179
   20MOL0     C 2622   3.299   9.910   9.532  0.0099  0.2547  0.1249
   20MOL0     O 2623   3.245   9.827   9.635 -0.3068 -0.0287  0.8865
   20MOL0     C 2624   3.108   9.785   9.623  0.0407  0.5309 -0.4419
   20MOL0     C 2625   3.017   9.900   9.651 -0.2402 -0.1263 -0.1009
   20MOL0     C 2626   2.887   9.854   9.714 -1.4514  0.9244 -0.2224
   20MOL0     C 2627   2.816   9.982   9.758  0.1875  0.1343 -0.3939
   20MOL0     C 2628   2.892  10.050   9.864 -1.0808  0.1496  0.8275
   20MOL0     C 2629   2.965  10.101   9.939 -0.5349  0.1331  0.7494
   20MOL0     C 2630   3.418   9.971   9.578 -0.0569 -0.0773  0.2736
   20MOL0     C 2631   3.489  10.065   9.501 -0.3311 -0.1061  0.4887
   20MOL0     C 2632   3.610  10.130   9.573 -0.7296 -0.0944  0.0696
   20MOL0     H 2633   3.510  10.219   9.009 -1.3752 -0.0246  0.6681
   20MOL0     H 2634   3.566  10.350   8.826  1.0205 -1.7697  0.6092
   20MOL0     H 2635   3.757  10.723   8.907  0.3110 -0.2998  0.0552
   20MOL0     H 2636   3.776  10.707   8.730 -2.3258 -2.2566 -2.8790
   20MOL0     H 2637   3.585  10.893   8.870 -2.1414  0.3679  0.5247
   20MOL0     H 2638   3.531  10.808   8.729 -0.6403  3.3426 -0.8358
   20MOL0     H 2639   3.790  10.983   8.697 -0.2359  1.5559 -1.9796
   20MOL0     H 2640   3.629  11.049   8.687  1.0601 -0.0430 -2.0595
   20MOL0     H 2641   3.723  10.807   8.527 -0.7413 -0.4085 -1.4080
   20MOL0     H 2642   3.571  10.895   8.506 -0.2031 -3.1440  1.3088
   20MOL0     H 2643   3.868  10.967   8.467  0.8534 -1.8497  0.1909
   20MOL0     H 2644   3.767  10.956   8.330 -0.0605  1.1267 -0.6075
   20MOL0     H 2645   3.635  11.165   8.429 -0.7309  0.3328 -0.1633
   20MOL0     H 2646   3.774  11.171   8.544 -2.4909 -0.3392  1.6697
   20MOL0     H 2647   3.800  11.199   8.241 -0.8153  0.9016  1.0263
   20MOL0     H 2648   3.938  11.187   8.348  0.6783  0.8370  1.1233
   20MOL0     H 2649   3.710  11.390   8.372 -0.6909 -2.1190 -1.0604
   20MOL0     H 2650   3.869  11.403   8.450 -1.8937  1.2541  0.2818
   20MOL0     H 2651   4.067  11.341   8.232 -0.5313  0.3353 -0.5293
   20MOL0     H 2652   4.167  11.416   7.999 -0.8408 -1.2471  0.8593
   20MOL0     H 2653   4.096  11.555   7.927 -2.0778 -3.5712 -1.7002
   20MOL0     H 2654   4.270  11.572   8.176  1.6086  0.3463 -0.6477
   20MOL0     H 2655   4.305  11.629   8.012 -1.0333  2.2297 -0.6661
   20MOL0     H 2656   4.170  11.781   8.203  2.0274  1.6133  0.0788
   20MOL0     H 2657   4.075  11.767   8.063  0.3365 -2.0345  2.2255
   20MOL0     H 2658   4.255  11.871   7.940  0.9339  0.7049  0.8994
   20MOL0     H 2659   4.383  11.827   8.055  0.6646  0.6735 -1.1948
   20MOL0     H 2660   4.400  12.062   7.872  0.8590  1.0515 -0.1442
   20MOL0     H 2661   4.578  12.222   7.859 -0.0822 -6.1179 -2.6238
   20MOL0     H 2662   4.827  12.597   7.862  0.8951  0.3334 -0.5043
   20MOL0     H 2663   5.040  12.682   7.814 -0.4613  0.8666  1.0568
   20MOL0     H 2664   5.198  12.700   7.689  1.5748  0.7005 -2.8482
   20MOL0     H 2665   5.371  12.678   7.681 -1.6899  3.3139 -2.7285
   20MOL0     H 2666   5.158  12.508   7.595 -0.9185  2.8657  0.0797
   20MOL0     H 2667   5.264  12.616   7.489 -2.1944  0.7508  1.1702
   20MOL0     H 2668   5.375  12.448   7.412 -0.9758 -1.6087 -0.6012
   20MOL0     H 2669   5.448  12.446   7.579 -2.0980  1.5261  2.7945
   20MOL0     H 2670   5.213  12.282   7.490  0.0802  3.4958  1.5032
   20MOL0     H 2671   5.274  12.264   7.638 -2.5952  2.8708 -0.7264
   20MOL0     H 2672   5.504  12.187   7.529  2.6195 -4.2674 -3.4465
   20MOL0     H 2673   5.431  12.239   7.378 -1.7071  2.4968  1.7503
   20MOL0     H 2674   5.265  12.053   7.403  0.3235  4.4825 -0.3966
   20MOL0     H 2675   5.423  11.986   7.377 -0.4824 -0.5358 -0.2958
   20MOL0     H 2676   5.316  12.040   7.665 -0.9197 -0.2562 -0.4813
   20MOL0     H 2677   5.474  11.971   7.618 -0.3316  0.5233  0.4160
   20MOL0     H 2678   5.249  11.805   7.512  1.9987 -0.7721 -0.7764
   20MOL0     H 2679   5.401  11.764   7.575 -0.9605 -0.7580 -2.8085
   20MOL0     H 2680   5.227  12.320   7.942  1.2515  1.2914  1.3782
   20MOL0     H 2681   5.016  12.237   8.009 -1.0128 -1.4215 -1.7991
   20MOL0     H 2682   4.579  12.251   8.294 -1.4013  1.0372  0.7130
   20MOL0     H 2683   4.366  12.120   8.305 -1.8149  4.0315 -0.0381
   20MOL0     H 2684   3.616  10.709   9.044 -2.1038 -1.1375 -1.5871
   20MOL0     H 2685   3.538  10.600   9.245  2.6197 -0.2972  1.2213
   20MOL0     H 2686   3.257  10.089   9.245  1.6192 -1.7744 -1.2534
   20MOL0     H 2687   3.158   9.907   9.382  0.3520 -0.2822  0.3608
   20MOL0     H 2688   3.089   9.712   9.703  0.0480  0.7324 -0.2554
   20MOL0     H 2689   3.083   9.729   9.532  0.2249  0.4723 -0.4547
   20MOL0     H 2690   2.983   9.953   9.561 -3.2121  1.2853  1.7087
   20MOL0     H 2691   3.070   9.969   9.718  0.1117 -1.2988  0.8595
   20MOL0     H 2692   2.910   9.793   9.802  5.0456  0.4263 -1.7553
   20MOL0     H 2693   2.831   9.797   9.640 -1.0816 -0.0266  0.2100
   20MOL0     H 2694   2.790  10.046   9.673  0.7009  0.1340 -0.5545
   20MOL0     H 2695   2.719   9.952   9.799 -0.1518 -1.9430 -2.4959
   20MOL0     H 2696   3.025  10.127  10.024 -2.3019 -0.1880  2.1652
   20MOL0     H 2697   3.453   9.922   9.668 -1.4677 -1.8334 -0.0759
   20MOL0     H 2698   3.592  10.189   9.664  1.6926 -0.7628  1.0675
   20MOL0     H 2699   3.682  10.051   9.598  0.3302 -0.1212 -2.7702
   20MOL0     H 2700   3.676  10.187   9.507 -1.1807  1.6452  1.0613
   21MOL0     O 2701   8.178   4.268   1.394  0.7413 -0.8179  0.2218
   21MOL0     C 2702   8.141   4.160   1.430  0.7164  0.7387  0.4032
   21MOL0     O 2703   8.195   4.044   1.395  0.3207 -0.4603 -0.0759
   21MOL0     C 2704   8.323   4.044   1.341 -0.5011 -0.1081  0.5630
   21MOL0     C 2705   8.339   3.972   1.223  0.0724  0.0730 -0.4072
   21MOL0     C 2706   8.468   3.966   1.165  1.4101 -1.5280 -0.4596
   21MOL0     C 2707   8.579   4.041   1.213 -0.0048 -0.9541 -0.6851
   21MOL0     O 2708   8.698   4.063   1.147  0.0407  0.5416  0.4859
   21MOL0     C 2709   8.716   3.999   1.019  0.1639  1.0390 -0.0940
   21MOL0     C 2710   8.866   4.034   0.986 -0.5355 -0.3072 -0.1184
   21MOL0     C 2711   8.945   3.939   0.899 -0.1475  0.4461 -0.0766
   21MOL0     C 2712   8.910   3.958   0.758  0.9556 -1.5261  1.3343
   21MOL0     C 2713   8.967   3.852   0.668  1.0943  0.8275 -0.3207
   21MOL0     C 2714   9.115   3.875   0.630 -0.5363 -0.1960 -0.7118
   21MOL0     C 2715   9.146   3.911   0.483  0.3950  0.0776 -0.1110
   21MOL0     C 2716   9.296   3.922   0.457 -0.3443 -0.2554 -0.5757
   21MOL0     N 2717   9.318   3.948   0.309  0.8944 -1.3882  0.1104
   21MOL0     C 2718   9.306   3.862   0.203 -0.9703 -0.4219 -0.2649
   21MOL0     C 2719   9.337   3.944   0.094  0.9159 -0.1068 -0.7125
   21MOL0     C 2720   9.348   3.888  -0.049  0.0185  0.1260 -0.3205
   21MOL0     C 2721   9.487   3.845  -0.099 -0.6041  0.0599 -0.7752
   21MOL0     C 2722   9.551   3.957  -0.173  0.1057  0.5751  0.1191
   21MOL0     C 2723   9.699   3.929  -0.180 -0.1913  0.2928 -0.0237
   21MOL0     O 2724   9.726   3.839  -0.292  0.9229 -0.3381  0.4142
   21MOL0     C 2725   9.745   3.907  -0.415  0.0132  0.6003 -0.9932
   21MOL0     C 2726   9.704   4.040  -0.447 -0.4684 -0.5663 -0.8939
   21MOL0     C 2727   9.717   4.098  -0.569  0.1715 -0.0809  0.1666
   21MOL0     C 2728   9.770   4.027  -0.682  0.0526  0.4425 -1.0412
   21MOL0     C 2729   9.782   4.078  -0.819 -0.6326  0.5499 -0.5357
   21MOL0     O 2730   9.778   4.204  -0.835  0.0390  0.3266  0.0081
   21MOL0     C 2731   9.753   4.254  -0.956 -0.5857 -1.2550  0.2355
   21MOL0     C 2732   9.850   4.333  -1.019  0.9919  0.0619 -0.2777
   21MOL0     C 2733   9.838   4.387  -1.143  0.3335  0.1109  0.0204
   21MOL0     C 2734   9.722   4.369  -1.218  0.0473 -0.6020  0.5328
   21MOL0     O 2735   9.709   4.432  -1.343 -0.7027 -0.6506 -0.2809
   21MOL0     C 2736   9.575   4.437  -1.398 -0.4287 -0.2478 -0.0947
   21MOL0     C 2737   9.581   4.535  -1.514 -0.5099 -0.0046 -0.0497
   21MOL0     C 2738   9.664   4.490  -1.636 -0.2126  0.1706 -0.7434
   21MOL0     C 2739   9.614   4.352  -1.711  0.4160  0.1345 -0.6373
   21MOL0     C 2740   9.726   4.258  -1.734 -0.1362  0.4551 -0.4862
   21MOL0     C 2741   9.846   4.312  -1.827  0.9394  0.1547 -0.7373
   21MOL0     C 2742   9.939   4.195  -1.852  0.4868  0.9365 -0.2092
   21MOL0     C 2743   9.883   4.116  -1.979  0.0293  0.7691  0.1638
   21MOL0    Cl 2744   9.905   4.210  -2.117 -0.3024  0.1150  0.6259
   21MOL0     C 2745   9.622   4.283  -1.161  0.6225  0.3569 -0.3906
   21MOL0     C 2746   9.639   4.223  -1.028 -0.1336 -0.9995 -0.2771
   21MOL0     O 2747   9.828   3.996  -0.905 -0.5801  1.0403  0.5713
   21MOL0     C 2748   9.827   3.898  -0.646 -0.8250 -0.2397 -0.4325
   21MOL0     C 2749   9.811   3.837  -0.522 -0.1647 -0.2690 -0.2226
   21MOL0     N 2750   9.376   4.071   0.140  0.5314  2.0026 -0.0018
   21MOL0     N 2751   9.365   4.069   0.265  1.0702  0.3494 -1.3236
   21MOL0     C 2752   8.559   4.102   1.336  0.9153 -0.4166  0.2260
   21MOL0     C 2753   8.432   4.101   1.402 -0.8017 -1.2843  0.1227
   21MOL0     C 2754   8.009   4.165   1.507  0.1172 -0.0470 -0.1918
   21MOL0     C 2755   7.941   4.283   1.519 -0.6480 -1.5594 -0.3736
   21MOL0     C 2756   7.820   4.303   1.584  0.0343 -0.3372  0.0083
   21MOL0     C 2757   7.767   4.199   1.661 -0.0737 -0.3579  0.0617
   21MOL0     O 2758   7.648   4.208   1.724 -0.3509 -0.1405  0.5940
   21MOL0     C 2759   7.591   4.334   1.751  0.7810 -0.5169  0.4060
   21MOL0     C 2760   7.467   4.318   1.823  0.0337 -0.5572 -0.5580
   21MOL0     C 2761   7.370   4.199   1.781  0.5224 -0.3743 -0.3548
   21MOL0     C 2762   7.295   4.197   1.639 -0.6007  0.4432 -0.7057
   21MOL0     C 2763   7.290   4.056   1.588  0.1488  0.4684 -0.3353
   21MOL0     C 2764   7.307   3.947   1.542  0.8708  0.3980  0.1261
   21MOL0     C 2765   7.841   4.075   1.663 -0.2031  0.1360 -0.4549
   21MOL0     C 2766   7.958   4.058   1.581 -0.0644  0.3159 -0.3323
   21MOL0     C 2767   8.036   3.936   1.610  0.7599 -0.5926  0.4729
   21MOL0     H 2768   8.261   3.916   1.173 -0.4299  0.9460 -0.6129
   21MOL0     H 2769   8.475   3.911   1.072  1.5970  1.7376 -2.5144
   21MOL0     H 2770   8.716   3.890   1.023 -1.3163  0.9937 -0.8461
   21MOL0     H 2771   8.659   4.033   0.932 -1.6001 -3.4382 -0.9233
   21MOL0     H 2772   8.912   4.051   1.084 -1.8629  0.4166  0.4081
   21MOL0     H 2773   8.855   4.136   0.950 -1.4371 -0.4244 -0.2076
   21MOL0     H 2774   8.926   3.838   0.936  2.3343 -0.1835 -0.3594
   21MOL0     H 2775   9.051   3.957   0.920 -0.9995  1.8937  3.8659
   21MOL0     H 2776   8.802   3.960   0.741  1.5103 -0.6270 -3.7936
   21MOL0     H 2777   8.942   4.054   0.717 -0.0272 -2.1041 -0.9435
   21MOL0     H 2778   8.947   3.753   0.709  2.3644  0.5825 -0.2462
   21MOL0     H 2779   8.922   3.852   0.568 -1.1499  0.7814  0.6424
   21MOL0     H 2780   9.153   3.953   0.697 -4.1173 -1.0233  2.6827
   21MOL0     H 2781   9.176   3.787   0.651  0.4121  1.1695  3.0595
   21MOL0     H 2782   9.092   3.999   0.447 -0.2938 -1.0536 -1.9295
   21MOL0     H 2783   9.104   3.828   0.425  0.6752 -0.6827  0.7377
   21MOL0     H 2784   9.337   4.002   0.518  0.5238 -2.9333  2.6132
   21MOL0     H 2785   9.335   3.825   0.490 -0.6514  0.3973  1.8164
   21MOL0     H 2786   9.287   3.755   0.202 -1.6880 -0.3035  0.2427
   21MOL0     H 2787   9.286   3.798  -0.048  0.4803 -0.2466 -2.1935
   21MOL0     H 2788   9.302   3.971  -0.103  0.9973  1.0910  0.2781
   21MOL0     H 2789   9.541   3.818  -0.007 -0.3645  1.6877 -0.4061
   21MOL0     H 2790   9.483   3.754  -0.158  1.7933 -1.0283  0.5712
   21MOL0     H 2791   9.529   4.052  -0.124 -2.0530 -0.6575  1.7630
   21MOL0     H 2792   9.507   3.974  -0.272  1.6664  4.5484 -0.0526
   21MOL0     H 2793   9.720   3.880  -0.085  0.3723  2.1954  0.8752
   21MOL0     H 2794   9.769   4.012  -0.180 -0.5642  0.6515  1.8658
   21MOL0     H 2795   9.664   4.106  -0.370  3.3735  0.0387  0.8199
   21MOL0     H 2796   9.674   4.196  -0.583 -1.9651 -0.4034  3.4040
   21MOL0     H 2797   9.935   4.365  -0.959 -0.8873  3.1701  0.9444
   21MOL0     H 2798   9.913   4.454  -1.183 -0.8180  2.2400  1.2568
   21MOL0     H 2799   9.536   4.338  -1.423  1.4120 -1.3871  1.2539
   21MOL0     H 2800   9.511   4.476  -1.318 -0.0283  1.7202 -0.6814
   21MOL0     H 2801   9.481   4.531  -1.559  0.0606 -2.4046 -1.2341
   21MOL0     H 2802   9.609   4.631  -1.470  0.3370 -0.8817  1.3870
   21MOL0     H 2803   9.690   4.569  -1.707  2.6349  1.7295  1.8224
   21MOL0     H 2804   9.764   4.464  -1.601 -0.2970 -1.3433 -1.5339
   21MOL0     H 2805   9.564   4.379  -1.805 -0.7554 -0.4328 -0.1958
   21MOL0     H 2806   9.542   4.307  -1.642  0.9437 -1.1608 -0.8963
   21MOL0     H 2807   9.689   4.163  -1.777  3.4158 -1.3542  0.1173
   21MOL0     H 2808   9.769   4.225  -1.639  0.0544  0.0194 -0.7172
   21MOL0     H 2809   9.792   4.343  -1.917 -3.5336  0.3245  1.7084
   21MOL0     H 2810   9.908   4.395  -1.791 -0.1267  1.1790 -1.2111
   21MOL0     H 2811   9.944   4.133  -1.762 -1.8115  2.4220  1.0680
   21MOL0     H 2812  10.040   4.234  -1.867  0.8758 -0.2677 -0.8336
   21MOL0     H 2813   9.940   4.024  -1.991 -2.1089 -0.3135 -3.0252
   21MOL0     H 2814   9.784   4.078  -1.954 -0.1112  0.9069 -0.1803
   21MOL0     H 2815   9.535   4.248  -1.216  0.5125  0.5086 -0.3127
   21MOL0     H 2816   9.564   4.156  -0.986 -2.8204  1.7439 -0.2763
   21MOL0     H 2817   9.856   3.824  -0.720  1.5709 -1.9693  2.0527
   21MOL0     H 2818   9.842   3.735  -0.502 -0.8331 -0.1821  1.4773
   21MOL0     H 2819   8.635   4.153   1.394  1.0372  1.1866 -1.2631
   21MOL0     H 2820   8.421   4.143   1.501  3.0579 -0.3924  0.3462
   21MOL0     H 2821   7.982   4.366   1.462 -0.5104  0.2845  2.2701
   21MOL0     H 2822   7.767   4.396   1.567  1.0413  0.7701  2.4799
   21MOL0     H 2823   7.561   4.372   1.653 -1.1491 -4.3317 -0.6854
   21MOL0     H 2824   7.668   4.390   1.806  2.1064 -0.9537 -0.9346
   21MOL0     H 2825   7.408   4.409   1.838 -0.0762 -0.7610  0.3070
   21MOL0     H 2826   7.511   4.294   1.920  0.9563  1.5726 -0.4191
   21MOL0     H 2827   7.288   4.184   1.853 -0.0015 -4.3667 -1.5495
   21MOL0     H 2828   7.434   4.111   1.773 -0.0251 -0.8750  0.5696
   21MOL0     H 2829   7.199   4.245   1.657 -0.8077 -0.2470  0.0669
   21MOL0     H 2830   7.356   4.254   1.568  1.3832 -2.0536 -1.1723
   21MOL0     H 2831   7.305   3.847   1.504 -2.2964  1.0056 -1.6742
   21MOL0     H 2832   7.793   3.999   1.722  2.3952 -1.7930 -0.6554
   21MOL0     H 2833   7.994   3.884   1.696  0.4397 -2.0071 -0.4993
   21MOL0     H 2834   8.035   3.860   1.531 -3.1512 -1.4429  1.1318
   21MOL0     H 2835   8.140   3.958   1.639  1.8071 -3.9042 -0.3530
   22MOL0     O 2836   7.347   9.289   7.387 -0.4068 -0.3074  0.0916
   22MOL0     C 2837   7.259   9.324   7.468 -0.3519 -0.6127  0.8408
   22MOL0     O 2838   7.187   9.437   7.456 -0.2012  0.1942  0.1055
   22MOL0     C 2839   7.223   9.534   7.368 -0.5900  0.6002 -0.1066
   22MOL0     C 2840   7.285   9.648   7.417  0.4152 -0.1901  0.3895
   22MOL0     C 2841   7.355   9.746   7.340 -0.1387  0.4345  0.1178
   22MOL0     C 2842   7.345   9.740   7.204  0.1997 -0.1901 -0.5890
   22MOL0     O 2843   7.396   9.845   7.135 -0.8888 -0.2371  0.0128
   22MOL0     C 2844   7.459   9.824   7.005  0.7637 -0.4031  0.3134
   22MOL0     C 2845   7.558   9.945   6.989  0.2344 -0.3377 -0.3851
   22MOL0     C 2846   7.632   9.961   6.844  0.0760  0.4474  0.4371
   22MOL0     C 2847   7.715   9.839   6.804 -0.6861  0.5494 -0.0708
   22MOL0     C 2848   7.796   9.774   6.914  0.0098 -0.5149 -0.1169
   22MOL0     C 2849   7.859   9.634   6.855  0.1868 -0.8231  0.1504
   22MOL0     C 2850   7.921   9.649   6.726 -0.6072  0.0357  0.2823
   22MOL0     C 2851   8.064   9.713   6.741  0.5770 -0.0252  0.8146
   22MOL0     N 2852   8.125   9.752   6.607  0.3842 -0.0538  0.3269
   22MOL0     C 2853   8.246   9.713   6.555  0.3750  0.4270  0.1884
   22MOL0     C 2854   8.264   9.789   6.444  0.7572 -0.2722 -0.8571
   22MOL0     C 2855   8.385   9.785   6.351 -0.6066 -1.1519 -0.2152
   22MOL0     C 2856   8.348   9.749   6.212 -0.4799 -0.3009 -0.1573
   22MOL0     C 2857   8.460   9.711   6.115  0.4985  0.6845 -0.3653
   22MOL0     C 2858   8.571   9.821   6.094  0.4856 -0.6073 -0.2085
   22MOL0     O 2859   8.508   9.921   6.010 -0.8697 -0.4729 -0.1407
   22MOL0     C 2860   8.583  10.029   5.975  0.9306 -0.0515  0.1786
   22MOL0     C 2861   8.619  10.024   5.834  0.4468 -0.7813 -0.7612
   22MOL0     C 2862   8.680  10.139   5.786 -0.5382 -0.4311  0.2967
   22MOL0     C 2863   8.735  10.246   5.869 -0.4845  0.7873 -0.1491
   22MOL0     C 2864   8.808  10.366   5.813  0.8891 -0.7549 -0.0773
   22MOL0     O 2865   8.807  10.389   5.679 -0.5033 -0.0929 -0.0614
   22MOL0     C 2866   8.858  10.509   5.619 -0.6170 -1.0135 -0.1446
   22MOL0     C 2867   8.981  10.584   5.657  0.7333 -0.6356 -0.6002
   22MOL0     C 2868   9.025  10.684   5.572 -0.0376 -0.5004 -0.2524
   22MOL0     C 2869   8.960  10.730   5.451  0.0385 -1.2051  0.4709
   22MOL0     O 2870   9.001  10.833   5.367 -0.4490 -0.0645 -0.1583
   22MOL0     C 2871   9.080  10.935   5.425 -0.5508  1.0929 -0.7439
   22MOL0     C 2872   9.092  11.036   5.312 -0.2645 -0.7402 -0.0676
   22MOL0     C 2873   8.980  11.142   5.290  0.2867  0.1764  1.0471
   22MOL0     C 2874   8.871  11.086   5.194 -0.1676 -0.1011  0.3479
   22MOL0     C 2875   8.774  11.200   5.135 -0.3448  0.1435 -0.1560
   22MOL0     C 2876   8.644  11.142   5.075 -0.0565 -0.2292  0.5049
   22MOL0     C 2877   8.652  11.076   4.940 -0.6323 -0.4594  0.0888
   22MOL0     C 2878   8.712  11.155   4.825  0.1948 -0.4227 -0.3991
   22MOL0    Cl 2879   8.714  11.075   4.668  0.1746  0.2273  0.1234
   22MOL0     C 2880   8.856  10.648   5.411  0.5578 -0.7691  0.5301
   22MOL0     C 2881   8.805  10.544   5.497 -1.2772  0.4531  0.0775
   22MOL0     O 2882   8.847  10.453   5.890 -0.0319 -0.2593 -0.4580
   22MOL0     C 2883   8.707  10.239   6.007 -0.3028 -0.1589 -0.4473
   22MOL0     C 2884   8.647  10.122   6.061  0.7126  0.1497  0.4209
   22MOL0     N 2885   8.146   9.873   6.424 -0.8174  0.1572 -1.5077
   22MOL0     N 2886   8.072   9.848   6.524 -1.2883 -0.6822  0.3352
   22MOL0     C 2887   7.263   9.634   7.154  0.8671 -0.3483  0.5001
   22MOL0     C 2888   7.207   9.530   7.231  0.2024 -0.0132 -0.3991
   22MOL0     C 2889   7.230   9.241   7.580  0.0629 -0.2201 -0.3661
   22MOL0     C 2890   7.254   9.106   7.569  0.0258  0.8620  0.9773
   22MOL0     C 2891   7.218   9.009   7.661  0.2910 -0.4949 -0.1953
   22MOL0     C 2892   7.157   9.050   7.782 -1.3111  0.4342 -0.0368
   22MOL0     O 2893   7.122   8.962   7.879 -1.2087  0.0897 -0.1468
   22MOL0     C 2894   6.999   8.883   7.852  0.8838  0.1325 -0.2654
   22MOL0     C 2895   6.868   8.962   7.825  0.5541 -0.1422  0.0286
   22MOL0     C 2896   6.738   8.870   7.833 -0.5188  0.2216  0.0395
   22MOL0     C 2897   6.613   8.940   7.772  0.4076 -0.6268 -0.7093
   22MOL0     C 2898   6.579   9.062   7.850  0.4312  0.1393  0.7246
   22MOL0     C 2899   6.570   9.163   7.906  0.4058 -0.7875 -0.5732
   22MOL0     C 2900   7.160   9.190   7.812  0.1820 -0.2693  0.7919
   22MOL0     C 2901   7.191   9.281   7.709 -0.2467 -0.3260 -0.0294
   22MOL0     C 2902   7.196   9.428   7.756  0.1245  0.1157 -0.0426
   22MOL0     H 2903   7.292   9.649   7.525 -0.2023 -0.4887  0.4327
   22MOL0     H 2904   7.408   9.833   7.377 -1.6244  1.6211 -0.4025
   22MOL0     H 2905   7.503   9.727   6.984 -1.9326 -1.4935 -0.7771
   22MOL0     H 2906   7.377   9.832   6.932  1.8888 -0.3524 -0.9939
   22MOL0     H 2907   7.631   9.949   7.070  3.3414  0.0482 -3.0178
   22MOL0     H 2908   7.487  10.029   6.999 -0.1852 -0.4664 -2.0940
   22MOL0     H 2909   7.703  10.045   6.845 -1.3111  1.7305 -1.6747
   22MOL0     H 2910   7.551   9.980   6.774 -2.4272 -2.1031  2.4286
   22MOL0     H 2911   7.652   9.758   6.767  3.2915 -1.8523 -2.2789
   22MOL0     H 2912   7.784   9.879   6.729  1.5808  0.0471  1.6351
   22MOL0     H 2913   7.876   9.843   6.941  0.9560 -2.2722  1.8205
   22MOL0     H 2914   7.732   9.759   7.001 -1.1311  3.4460 -0.0686
   22MOL0     H 2915   7.937   9.599   6.924  0.7198 -1.0240 -0.5438
   22MOL0     H 2916   7.789   9.551   6.843  0.0066 -0.8721  1.4029
   22MOL0     H 2917   7.856   9.701   6.654  1.1346  1.2862 -0.4784
   22MOL0     H 2918   7.926   9.549   6.682 -0.1390 -0.5683  1.6681
   22MOL0     H 2919   8.050   9.812   6.784 -0.6688  0.8232 -1.3820
   22MOL0     H 2920   8.130   9.646   6.797 -0.9154 -1.9347  0.4003
   22MOL0     H 2921   8.300   9.627   6.594 -2.5934 -0.9555  1.6273
   22MOL0     H 2922   8.446   9.874   6.370  0.9189 -2.5981  2.3246
   22MOL0     H 2923   8.450   9.703   6.382  1.5392 -0.7771 -3.3129
   22MOL0     H 2924   8.274   9.669   6.219 -0.1850 -0.6192 -0.5569
   22MOL0     H 2925   8.288   9.831   6.172  0.4141  0.7501  0.6231
   22MOL0     H 2926   8.413   9.672   6.024  1.0351 -3.6562  0.9419
   22MOL0     H 2927   8.498   9.614   6.148 -0.1802  0.2056 -0.9519
   22MOL0     H 2928   8.642   9.769   6.030 -0.9974 -0.8346 -1.7374
   22MOL0     H 2929   8.612   9.853   6.190  1.1103  0.3693 -0.7810
   22MOL0     H 2930   8.586   9.944   5.769 -0.8241 -2.1615  1.4517
   22MOL0     H 2931   8.700  10.139   5.679 -2.9301  2.6265 -0.3112
   22MOL0     H 2932   9.024  10.564   5.755 -1.3731  1.7352  0.9477
   22MOL0     H 2933   9.118  10.729   5.605 -1.1632  3.2941 -1.7000
   22MOL0     H 2934   9.038  10.987   5.512  0.6988  1.9065 -0.5997
   22MOL0     H 2935   9.176  10.890   5.449 -0.1473  1.4325 -1.6859
   22MOL0     H 2936   9.172  11.106   5.336 -2.2287  2.0671 -1.2314
   22MOL0     H 2937   9.118  10.986   5.218 -0.1337 -1.7388  0.4822
   22MOL0     H 2938   8.941  11.173   5.388 -0.0988  0.3554  0.8397
   22MOL0     H 2939   9.007  11.239   5.246 -2.6061  1.4223  1.7686
   22MOL0     H 2940   8.806  11.015   5.245  2.1255 -4.4479 -2.2466
   22MOL0     H 2941   8.914  11.031   5.110 -0.8492 -2.6778  1.5935
   22MOL0     H 2942   8.830  11.264   5.066  0.6099  0.9114  1.2740
   22MOL0     H 2943   8.745  11.263   5.220  1.4428  1.5685 -0.5333
   22MOL0     H 2944   8.602  11.076   5.151 -0.3303 -0.0339  0.5240
   22MOL0     H 2945   8.567  11.219   5.064  0.3024  0.5466  2.8533
   22MOL0     H 2946   8.547  11.055   4.915 -1.6426  2.8646  1.0739
   22MOL0     H 2947   8.694  10.976   4.957  4.4887  1.9058  3.7842
   22MOL0     H 2948   8.664  11.250   4.798  2.4061  0.2842 -2.0691
   22MOL0     H 2949   8.818  11.176   4.842 -0.4071  4.5091 -1.0011
   22MOL0     H 2950   8.819  10.664   5.310  1.0322  5.0140  0.9542
   22MOL0     H 2951   8.739  10.466   5.460 -0.7867  0.6186 -1.1919
   22MOL0     H 2952   8.740  10.311   6.081  1.7918 -0.1659 -1.3226
   22MOL0     H 2953   8.634  10.115   6.169  2.7171 -2.0675  0.5854
   22MOL0     H 2954   7.260   9.629   7.046  2.8820 -0.8409  0.4346
   22MOL0     H 2955   7.145   9.453   7.188  0.3386 -0.2915 -0.1044
   22MOL0     H 2956   7.296   9.072   7.475 -1.1129 -1.7761  1.3336
   22MOL0     H 2957   7.223   8.903   7.639  0.6683 -0.0656 -2.3772
   22MOL0     H 2958   6.981   8.838   7.950 -0.5701 -2.0673 -1.4571
   22MOL0     H 2959   7.016   8.806   7.776 -1.6925 -2.2526  1.3535
   22MOL0     H 2960   6.879   8.994   7.722  1.8358  1.3587  0.5978
   22MOL0     H 2961   6.855   9.045   7.895  0.4113  0.0727 -0.2499
   22MOL0     H 2962   6.720   8.840   7.937 -0.6154  0.4122  0.0773
   22MOL0     H 2963   6.761   8.782   7.772  2.5732  1.4287 -0.7358
   22MOL0     H 2964   6.632   8.956   7.666 -2.1350 -1.4992 -1.3585
   22MOL0     H 2965   6.529   8.870   7.773  0.2078 -0.4061  0.9158
   22MOL0     H 2966   6.572   9.257   7.957  4.0722 -0.0354 -1.8530
   22MOL0     H 2967   7.131   9.217   7.913  0.0619  0.9451  0.4528
   22MOL0     H 2968   7.247   9.444   7.851  2.4411  0.1787 -1.2117
   22MOL0     H 2969   7.248   9.496   7.687  0.7329 -0.1927  0.0983
   22MOL0     H 2970   7.092   9.460   7.752  0.4836  1.5479  1.2162
   23MOL0     O 2971   9.271   3.827   6.441 -1.4408 -0.1975 -0.0281
   23MOL0     C 2972   9.363   3.824   6.350 -0.7872 -1.0038  0.4047
   23MOL0     O 2973   9.501   3.816   6.374  0.6691  0.0241  0.8136
   23MOL0     C 2974   9.533   3.747   6.486  0.8813  0.0389  0.9757
   23MOL0     C 2975   9.520   3.801   6.615  0.5746 -0.0404  0.2085
   23MOL0     C 2976   9.541   3.722   6.730  1.0560 -0.5605  0.3499
   23MOL0     C 2977   9.580   3.591   6.728  0.1125  0.2968 -0.2127
   23MOL0     O 2978   9.610   3.514   6.840 -0.7311  0.6183 -0.5276
   23MOL0     C 2979   9.518   3.524   6.948  0.5672 -0.4782  0.7579
   23MOL0     C 2980   9.599   3.478   7.069 -0.1027 -0.2043 -0.8936
   23MOL0     C 2981   9.508   3.495   7.194 -0.4299 -0.0998  0.1286
   23MOL0     C 2982   9.590   3.503   7.315 -0.2279  0.0608  0.0474
   23MOL0     C 2983   9.670   3.375   7.344  0.6105 -0.4351 -0.0300
   23MOL0     C 2984   9.589   3.249   7.356  0.1060  0.5515 -0.5696
   23MOL0     C 2985   9.664   3.136   7.429 -0.0263  0.5288 -0.0290
   23MOL0     C 2986   9.556   3.029   7.455  0.5294  0.4110 -1.2419
   23MOL0     N 2987   9.481   3.061   7.577 -0.2944  0.9183 -0.2963
   23MOL0     C 2988   9.529   3.062   7.704  0.4490  0.0211 -0.5181
   23MOL0     C 2989   9.434   3.127   7.782 -0.0207  0.7046 -0.4873
   23MOL0     C 2990   9.458   3.163   7.924 -0.2764  0.3128  0.8985
   23MOL0     C 2991   9.499   3.039   7.999 -0.0671  0.6263 -0.1707
   23MOL0     C 2992   9.397   2.928   7.984  1.0026 -0.5995 -0.0327
   23MOL0     C 2993   9.264   2.969   8.050  0.4201  0.2623 -0.8461
   23MOL0     O 2994   9.273   2.926   8.179 -0.1736 -0.5869 -0.1685
   23MOL0     C 2995   9.165   2.963   8.252  0.2740  0.0292  1.2998
   23MOL0     C 2996   9.028   2.925   8.221  0.0058 -0.0516 -0.1761
   23MOL0     C 2997   8.923   2.961   8.305  0.1873 -0.8945 -0.9416
   23MOL0     C 2998   8.944   3.034   8.425  0.2457 -0.2972  0.4582
   23MOL0     C 2999   8.828   3.061   8.526  0.2441  0.4367  0.7053
   23MOL0     O 3000   8.715   2.989   8.500 -0.5073  0.4134 -0.5497
   23MOL0     C 3001   8.618   2.972   8.601  0.0946 -0.2598  0.2846
   23MOL0     C 3002   8.648   2.959   8.738  0.7266  0.1770 -0.5361
   23MOL0     C 3003   8.545   2.906   8.827 -0.1526  0.7460 -0.3465
   23MOL0     C 3004   8.421   2.892   8.777 -0.0121 -0.2687 -0.2310
   23MOL0     O 3005   8.314   2.843   8.852  0.2254  0.3057  0.7777
   23MOL0     C 3006   8.286   2.893   8.977  0.6583  1.2227  0.1887
   23MOL0     C 3007   8.184   3.003   8.973  0.0366  0.4869 -0.9085
   23MOL0     C 3008   8.059   2.971   8.881 -1.0729  0.6320  0.7176
   23MOL0     C 3009   7.943   3.054   8.902  0.4160 -0.0668 -0.3546
   23MOL0     C 3010   7.834   3.014   8.812  0.7036 -0.5701  0.2054
   23MOL0     C 3011   7.774   2.879   8.852 -0.6479  0.3926  0.2892
   23MOL0     C 3012   7.654   2.832   8.769 -0.8297 -1.6035  0.9862
   23MOL0     C 3013   7.566   2.730   8.828  1.2483  0.0682 -0.5935
   23MOL0    Cl 3014   7.466   2.796   8.962 -0.0358  0.7022 -0.9233
   23MOL0     C 3015   8.389   2.919   8.650 -0.5419 -0.0036  1.0385
   23MOL0     C 3016   8.484   2.960   8.560 -0.1258  0.0785  0.3006
   23MOL0     O 3017   8.860   3.131   8.626 -0.0490  0.2359 -0.0270
   23MOL0     C 3018   9.075   3.060   8.452  0.1861  0.7783 -1.4874
   23MOL0     C 3019   9.188   3.033   8.370  0.4785  0.7029  0.0132
   23MOL0     N 3020   9.320   3.152   7.703  0.0879  0.7932  0.1963
   23MOL0     N 3021   9.347   3.103   7.583  0.7463 -0.3757  0.3161
   23MOL0     C 3022   9.608   3.537   6.600 -0.0756 -0.5843  0.3003
   23MOL0     C 3023   9.586   3.614   6.486 -0.9856  1.2520 -0.1613
   23MOL0     C 3024   9.314   3.856   6.212  0.3234 -0.2183  0.4028
   23MOL0     C 3025   9.408   3.920   6.127  0.2051  0.1881 -0.4236
   23MOL0     C 3026   9.379   3.961   5.996  0.1504  0.7578 -0.5336
   23MOL0     C 3027   9.249   3.950   5.954 -0.2795 -0.1404  0.7080
   23MOL0     O 3028   9.226   4.022   5.845 -0.4396  0.3893  0.3160
   23MOL0     C 3029   9.101   3.993   5.772  0.2396  1.0078  0.6133
   23MOL0     C 3030   9.115   4.047   5.625 -0.9782 -0.6702  0.3341
   23MOL0     C 3031   9.076   4.198   5.622 -0.3018 -0.0317  0.0329
   23MOL0     C 3032   9.065   4.249   5.481  0.1684  0.4133 -1.3035
   23MOL0     C 3033   9.194   4.235   5.409 -0.2995  0.0673 -1.1150
   23MOL0     C 3034   9.309   4.238   5.354 -0.4983  0.2389 -0.4764
   23MOL0     C 3035   9.153   3.883   6.033 -0.4051  0.4164 -0.3506
   23MOL0     C 3036   9.187   3.843   6.166 -0.2442  0.9707 -0.3765
   23MOL0     C 3037   9.077   3.785   6.246 -0.9859 -1.0067  0.1956
   23MOL0     H 3038   9.504   3.908   6.620  4.8053  0.9376 -2.1122
   23MOL0     H 3039   9.540   3.775   6.824 -0.0532 -1.0054  0.6070
   23MOL0     H 3040   9.468   3.622   6.946 -4.2624 -2.6972 -0.7401
   23MOL0     H 3041   9.437   3.454   6.932  0.2791 -0.0786  0.4469
   23MOL0     H 3042   9.684   3.546   7.067 -1.5383  1.7168 -4.1017
   23MOL0     H 3043   9.633   3.374   7.058 -1.6917 -0.6005 -2.6368
   23MOL0     H 3044   9.450   3.402   7.201 -0.7486 -0.1454 -2.2907
   23MOL0     H 3045   9.437   3.578   7.189 -2.4147 -1.6939  0.2184
   23MOL0     H 3046   9.657   3.588   7.312 -0.6545  0.3762 -2.4443
   23MOL0     H 3047   9.528   3.509   7.405 -1.0439  0.4947 -0.5342
   23MOL0     H 3048   9.748   3.361   7.268  0.9267 -3.8170  0.7466
   23MOL0     H 3049   9.712   3.396   7.442 -0.4579  2.9063 -0.1790
   23MOL0     H 3050   9.488   3.257   7.399  0.0661 -4.0137  0.7358
   23MOL0     H 3051   9.572   3.211   7.255  2.1702 -0.2499 -0.6655
   23MOL0     H 3052   9.699   3.169   7.528  0.5424 -1.2833  0.4359
   23MOL0     H 3053   9.748   3.094   7.373 -1.7286 -4.2174  0.4405
   23MOL0     H 3054   9.491   3.012   7.369  1.6995 -1.1987 -1.8554
   23MOL0     H 3055   9.612   2.939   7.480 -0.6334  0.3341  1.4069
   23MOL0     H 3056   9.623   3.029   7.747 -0.4086 -2.6439 -0.4577
   23MOL0     H 3057   9.528   3.247   7.921  0.1609 -0.0741  0.2310
   23MOL0     H 3058   9.363   3.198   7.965 -0.9959 -1.4856  0.8781
   23MOL0     H 3059   9.590   2.994   7.958  1.4286  1.2422  2.2657
   23MOL0     H 3060   9.511   3.061   8.106 -0.7526 -1.0622  0.2863
   23MOL0     H 3061   9.425   2.836   8.035 -1.1328 -2.1292 -1.4128
   23MOL0     H 3062   9.393   2.905   7.877 -1.3421  1.0024 -0.3696
   23MOL0     H 3063   9.186   2.918   7.993  0.7474 -0.1143 -0.9630
   23MOL0     H 3064   9.242   3.075   8.038 -3.1505 -0.3751 -1.2237
   23MOL0     H 3065   9.001   2.876   8.129  0.0360  1.9235 -1.2885
   23MOL0     H 3066   8.819   2.936   8.290 -1.6169  4.2630  0.6809
   23MOL0     H 3067   8.745   2.973   8.784  0.9035 -2.2550 -0.0143
   23MOL0     H 3068   8.565   2.862   8.925 -0.7030  0.9766 -0.1222
   23MOL0     H 3069   8.250   2.818   9.048  1.0279 -2.2522 -3.0365
   23MOL0     H 3070   8.377   2.936   9.022  1.4367  0.2001 -0.3515
   23MOL0     H 3071   8.154   3.025   9.076  0.3225  4.1117 -1.4804
   23MOL0     H 3072   8.226   3.092   8.926  0.6215 -0.4605 -2.2570
   23MOL0     H 3073   8.099   2.985   8.780 -1.3186 -0.1102  0.5134
   23MOL0     H 3074   8.031   2.866   8.891  1.0613 -0.4305 -2.6033
   23MOL0     H 3075   7.976   3.155   8.876 -0.6636  0.1295 -1.0338
   23MOL0     H 3076   7.907   3.039   9.004  1.2740  1.3992  0.1912
   23MOL0     H 3077   7.870   3.010   8.709  5.0865  0.4865  1.4740
   23MOL0     H 3078   7.761   3.095   8.821  1.5171  0.2445 -0.3053
   23MOL0     H 3079   7.847   2.802   8.824  0.4788  2.7365 -4.2127
   23MOL0     H 3080   7.751   2.874   8.958  2.1051  1.1500  0.9983
   23MOL0     H 3081   7.689   2.802   8.669 -1.7147  0.2197  0.0794
   23MOL0     H 3082   7.599   2.925   8.753 -1.0273 -2.0695 -1.5824
   23MOL0     H 3083   7.497   2.693   8.751 -0.8842  1.1565  0.6778
   23MOL0     H 3084   7.624   2.646   8.866  0.2416  0.5571  2.2776
   23MOL0     H 3085   8.292   2.911   8.603  0.3253 -0.0723 -0.8307
   23MOL0     H 3086   8.462   2.985   8.457 -2.1129 -2.3608  0.0425
   23MOL0     H 3087   9.086   3.089   8.556 -0.5796 -2.3235 -0.4191
   23MOL0     H 3088   9.291   3.048   8.400  1.5868  0.8111 -3.4586
   23MOL0     H 3089   9.636   3.432   6.596  0.9344 -0.2723 -1.2266
   23MOL0     H 3090   9.609   3.565   6.392  2.0137 -0.1137  1.1530
   23MOL0     H 3091   9.509   3.945   6.157 -1.2480  3.3237  2.4379
   23MOL0     H 3092   9.451   4.019   5.940  1.1881 -1.8042 -2.0573
   23MOL0     H 3093   9.017   4.032   5.831  1.1069  1.2002  1.7790
   23MOL0     H 3094   9.084   3.886   5.766 -0.4153  0.7536  4.5019
   23MOL0     H 3095   9.057   3.987   5.555  0.0061 -1.7699  0.4284
   23MOL0     H 3096   9.221   4.043   5.598  0.0324  0.3992  3.6752
   23MOL0     H 3097   9.142   4.252   5.690  2.3189 -2.8017 -0.1437
   23MOL0     H 3098   8.977   4.213   5.667 -2.1656 -0.7530 -3.4687
   23MOL0     H 3099   8.989   4.194   5.425  1.7781 -2.7014 -0.6560
   23MOL0     H 3100   9.024   4.350   5.489 -0.4574  0.0119  2.6508
   23MOL0     H 3101   9.401   4.250   5.298 -0.5276 -2.4162 -1.2055
   23MOL0     H 3102   9.051   3.890   5.999 -1.0830 -0.4277  1.3996
   23MOL0     H 3103   8.986   3.767   6.189  1.1244 -0.1795 -3.8255
   23MOL0     H 3104   9.119   3.691   6.285  2.4497  0.1691 -0.2977
   23MOL0     H 3105   9.068   3.861   6.324 -0.5729  0.5908 -1.2578
   24MOL0     O 3106   9.119   2.433   7.098  0.1252  1.1265 -0.5436
   24MOL0     C 3107   9.124   2.407   7.222 -0.3031 -0.9240  1.0238
   24MOL0     O 3108   9.229   2.445   7.307 -0.6517  0.0893 -0.3084
   24MOL0     C 3109   9.336   2.508   7.252 -0.7058  0.3951 -0.5872
   24MOL0     C 3110   9.402   2.488   7.127 -0.0643  0.2268  0.2333
   24MOL0     C 3111   9.512   2.560   7.096 -1.0578  0.2767 -0.0769
   24MOL0     C 3112   9.570   2.656   7.175 -0.0868  0.4389  0.1768
   24MOL0     O 3113   9.683   2.711   7.131  0.0769 -0.2597 -0.3762
   24MOL0     C 3114   9.697   2.854   7.153 -0.9572 -0.1234 -0.0574
   24MOL0     C 3115   9.593   2.930   7.061 -0.0065  0.3604 -0.4271
   24MOL0     C 3116   9.638   3.069   7.011  0.6559  0.8146 -0.0189
   24MOL0     C 3117   9.699   3.055   6.867  0.2113  0.9925  0.1694
   24MOL0     C 3118   9.760   3.183   6.800 -0.0717  0.5767  0.2423
   24MOL0     C 3119   9.900   3.204   6.867  1.0336  0.8079  0.3777
   24MOL0     C 3120   9.947   3.341   6.821  0.7362  0.3656  0.3042
   24MOL0     C 3121  10.080   3.378   6.877 -0.1481 -0.1696  0.2764
   24MOL0     N 3122  10.078   3.497   6.967  0.5980 -0.6225 -0.2931
   24MOL0     C 3123  10.001   3.513   7.082  0.2889  0.4374  0.1430
   24MOL0     C 3124  10.022   3.637   7.125 -0.0306 -0.7218  0.0079
   24MOL0     C 3125   9.977   3.704   7.247  0.4416  0.5810 -0.2241
   24MOL0     C 3126  10.068   3.717   7.359 -0.2398 -0.1006  0.7906
   24MOL0     C 3127   9.998   3.814   7.453  0.0972  0.0832 -0.8248
   24MOL0     C 3128  10.024   3.761   7.594  0.3127  0.8620  0.9229
   24MOL0     O 3129   9.956   3.640   7.610  0.8342  0.0937  0.2638
   24MOL0     C 3130   9.919   3.609   7.733  0.7753 -0.2648 -0.3006
   24MOL0     C 3131   9.797   3.537   7.747  0.4703 -0.9531 -0.8929
   24MOL0     C 3132   9.750   3.491   7.872  0.7412 -0.6121 -0.5873
   24MOL0     C 3133   9.822   3.536   7.989  0.6306 -0.2846 -0.1952
   24MOL0     C 3134   9.755   3.509   8.119  0.1471 -0.2858  0.8443
   24MOL0     O 3135   9.818   3.561   8.224 -0.4533  0.8166  0.5078
   24MOL0     C 3136   9.769   3.537   8.348 -0.0299  0.1224 -0.0379
   24MOL0     C 3137   9.864   3.496   8.439  0.1543  0.0188  1.0445
   24MOL0     C 3138   9.824   3.496   8.573 -0.2887  0.1987  0.7184
   24MOL0     C 3139   9.697   3.520   8.623 -0.5912 -0.6533  0.3750
   24MOL0     O 3140   9.656   3.504   8.754  0.4028  0.0399 -0.3076
   24MOL0     C 3141   9.741   3.537   8.862 -1.4048  0.8031 -0.7552
   24MOL0     C 3142   9.657   3.557   8.983 -0.3983  0.0732  0.6066
   24MOL0     C 3143   9.565   3.445   8.991  0.8136  1.1686  0.6410
   24MOL0     C 3144   9.508   3.436   9.136 -0.4773  0.2714 -1.0175
   24MOL0     C 3145   9.400   3.550   9.151  0.7029  0.1288 -1.0176
   24MOL0     C 3146   9.347   3.560   9.298  1.1471 -0.1649  0.9404
   24MOL0     C 3147   9.231   3.658   9.306  0.2939 -0.2939  0.3150
   24MOL0     C 3148   9.174   3.664   9.450 -0.5574 -0.7070  0.0610
   24MOL0    Cl 3149   9.284   3.735   9.580  0.1315  0.2337  0.0098
   24MOL0     C 3150   9.606   3.566   8.528  0.0007  0.2391  0.7644
   24MOL0     C 3151   9.645   3.584   8.393 -0.4587 -0.5689 -0.0392
   24MOL0     O 3152   9.653   3.437   8.124  0.2590  0.2790 -0.3911
   24MOL0     C 3153   9.939   3.613   7.975  0.8284  0.7763  0.2627
   24MOL0     C 3154   9.987   3.646   7.845  0.3828  0.3539 -0.3838
   24MOL0     N 3155  10.109   3.696   7.035 -0.0438 -0.6196  0.1168
   24MOL0     N 3156  10.151   3.605   6.945  0.1167 -0.1531 -0.4040
   24MOL0     C 3157   9.503   2.686   7.298  0.2339 -0.7762 -0.0491
   24MOL0     C 3158   9.399   2.604   7.336 -0.2220  0.5845 -0.0258
   24MOL0     C 3159   9.009   2.331   7.280 -0.1290  1.1503 -0.5472
   24MOL0     C 3160   9.009   2.322   7.427 -0.0490 -0.1984 -0.1795
   24MOL0     C 3161   8.923   2.236   7.489 -0.2894  0.5416 -0.9760
   24MOL0     C 3162   8.834   2.159   7.414  0.0349  0.1210 -1.1139
   24MOL0     O 3163   8.745   2.071   7.470 -0.7185  0.4343 -0.0844
   24MOL0     C 3164   8.684   2.113   7.593  0.3690 -0.1643  0.4053
   24MOL0     C 3165   8.562   2.019   7.597  0.1103 -0.1018  0.3663
   24MOL0     C 3166   8.441   2.072   7.507 -0.5335 -0.3783 -0.1823
   24MOL0     C 3167   8.348   2.165   7.577 -0.5539  0.5365 -0.0621
   24MOL0     C 3168   8.273   2.102   7.697  0.0941 -0.3472  0.2032
   24MOL0     C 3169   8.220   2.064   7.799 -0.4657 -0.4998 -0.3823
   24MOL0     C 3170   8.842   2.169   7.278 -0.2073  0.8070 -0.5234
   24MOL0     C 3171   8.923   2.248   7.205  0.0229  0.5068  0.6536
   24MOL0     C 3172   8.920   2.238   7.058  0.7802  0.0058 -0.1520
   24MOL0     H 3173   9.369   2.421   7.048  0.9227  0.0688 -0.0647
   24MOL0     H 3174   9.560   2.539   7.000 -0.7370 -1.1987  0.3754
   24MOL0     H 3175   9.715   2.879   7.258  0.8714  1.4459 -0.6734
   24MOL0     H 3176   9.794   2.872   7.105 -0.2239 -1.1224  1.0001
   24MOL0     H 3177   9.496   2.939   7.111 -2.5176 -1.3258 -4.4681
   24MOL0     H 3178   9.570   2.862   6.979 -0.6167 -1.4640  1.1961
   24MOL0     H 3179   9.715   3.111   7.076 -0.5153  1.6728  0.8693
   24MOL0     H 3180   9.558   3.144   7.004  0.8510  1.1935  1.4969
   24MOL0     H 3181   9.775   2.976   6.863 -0.0510  0.6944  0.9336
   24MOL0     H 3182   9.619   3.017   6.802  0.3788  1.5273 -0.3557
   24MOL0     H 3183   9.773   3.168   6.692 -0.8202  0.4490  0.1610
   24MOL0     H 3184   9.684   3.259   6.821 -0.3426  1.0067 -2.0634
   24MOL0     H 3185   9.892   3.205   6.976 -1.6140 -0.9159  0.2883
   24MOL0     H 3186   9.969   3.119   6.863  2.2318  1.6405  2.1379
   24MOL0     H 3187   9.877   3.420   6.851 -0.7962  1.0582 -4.3078
   24MOL0     H 3188   9.958   3.344   6.712 -0.6074  2.2224  0.1601
   24MOL0     H 3189  10.129   3.298   6.934  1.1136 -0.1887 -0.7828
   24MOL0     H 3190  10.150   3.386   6.793  0.2196 -0.8426  0.5082
   24MOL0     H 3191   9.955   3.427   7.129 -1.2074  0.6935 -0.7882
   24MOL0     H 3192   9.935   3.803   7.227 -2.6480 -0.7151 -0.8100
   24MOL0     H 3193   9.885   3.653   7.280  0.8117  1.4470  2.3610
   24MOL0     H 3194  10.083   3.617   7.403 -1.1617 -0.0026  1.3424
   24MOL0     H 3195  10.166   3.758   7.332 -1.7543  4.7967  1.6861
   24MOL0     H 3196   9.889   3.814   7.443 -0.1818 -4.0505  0.1814
   24MOL0     H 3197  10.029   3.918   7.438 -0.5826  0.8872  2.5350
   24MOL0     H 3198   9.984   3.842   7.657 -2.8366  1.2611 -1.3706
   24MOL0     H 3199  10.130   3.753   7.619 -0.1957 -0.3021  2.9369
   24MOL0     H 3200   9.750   3.488   7.662 -2.2500 -1.2814  0.6817
   24MOL0     H 3201   9.662   3.428   7.881  1.0482 -0.8053  1.5607
   24MOL0     H 3202   9.963   3.471   8.402  0.2909 -0.2164  1.5556
   24MOL0     H 3203   9.902   3.456   8.636  0.1882 -0.9330 -0.5579
   24MOL0     H 3204   9.818   3.460   8.870 -0.4817  1.4143 -2.9815
   24MOL0     H 3205   9.793   3.632   8.849  2.1861 -1.2720 -3.2502
   24MOL0     H 3206   9.719   3.539   9.071 -0.7500 -3.1715  0.3344
   24MOL0     H 3207   9.608   3.655   8.985  0.9024  0.7284  2.0076
   24MOL0     H 3208   9.474   3.459   8.931 -1.1556  0.9511  3.4198
   24MOL0     H 3209   9.611   3.347   8.973 -0.3999  0.1390  2.7743
   24MOL0     H 3210   9.583   3.450   9.215 -1.7393 -2.2280  0.7758
   24MOL0     H 3211   9.475   3.332   9.150 -0.0428 -0.0299 -2.1211
   24MOL0     H 3212   9.318   3.529   9.081  1.4148  1.1839 -2.1991
   24MOL0     H 3213   9.447   3.646   9.128  1.5869 -0.7536 -3.2113
   24MOL0     H 3214   9.314   3.464   9.340  0.2444  0.8698  2.7381
   24MOL0     H 3215   9.435   3.581   9.359  1.0208  0.3466  0.9497
   24MOL0     H 3216   9.144   3.619   9.252  1.3607  0.0691 -1.7720
   24MOL0     H 3217   9.258   3.751   9.255 -0.9448 -0.2455 -0.3118
   24MOL0     H 3218   9.084   3.726   9.436  0.0251 -0.3091 -2.4034
   24MOL0     H 3219   9.157   3.561   9.483  1.2100 -0.2774  2.5233
   24MOL0     H 3220   9.514   3.601   8.574  0.6633 -0.4838  2.7294
   24MOL0     H 3221   9.578   3.633   8.323  0.2914 -1.1165 -1.1838
   24MOL0     H 3222  10.000   3.628   8.064 -0.2469 -1.5572  1.4992
   24MOL0     H 3223  10.075   3.709   7.838 -0.5441  1.8378  0.5109
   24MOL0     H 3224   9.550   2.762   7.360  1.7088 -1.2943 -0.4716
   24MOL0     H 3225   9.360   2.618   7.437 -1.0149  0.1620 -0.2667
   24MOL0     H 3226   9.076   2.391   7.477 -0.9727  0.4452  0.1988
   24MOL0     H 3227   8.930   2.226   7.597  0.4217 -1.9266 -1.1716
   24MOL0     H 3228   8.676   2.222   7.595  6.5399  0.5898  1.1109
   24MOL0     H 3229   8.736   2.086   7.685  1.0100 -0.8477 -0.1455
   24MOL0     H 3230   8.525   2.022   7.700 -2.2835 -2.8760 -0.2804
   24MOL0     H 3231   8.584   1.914   7.574  3.4008  0.5763 -0.1805
   24MOL0     H 3232   8.373   1.994   7.471 -1.4156 -0.5113  1.6787
   24MOL0     H 3233   8.491   2.133   7.431  0.7193  0.3217  1.1419
   24MOL0     H 3234   8.397   2.255   7.615  0.9433  0.2772 -1.2779
   24MOL0     H 3235   8.267   2.180   7.505 -0.5736  0.0117 -0.1518
   24MOL0     H 3236   8.179   2.034   7.893  0.3708  1.3109  0.6263
   24MOL0     H 3237   8.773   2.107   7.221  1.3809  0.5845 -2.2849
   24MOL0     H 3238   8.880   2.330   7.016  1.2675 -0.5253 -1.8388
   24MOL0     H 3239   9.018   2.214   7.015  0.8888  0.7400 -0.3197
   24MOL0     H 3240   8.854   2.158   7.023 -0.4545  0.3048  1.3722
   25MOL0     O 3241  10.824   6.187  11.182  0.6537  0.3718 -0.3069
   25MOL0     C 3242  10.864   6.169  11.067  0.8891  0.2771  0.1909
   25MOL0     O 3243  10.833   6.053  10.993  0.4992 -0.0007  0.2985
   25MOL0     C 3244  10.759   5.958  11.062  0.2460 -0.2559  0.1605
   25MOL0     C 3245  10.807   5.900  11.173 -0.3295 -0.4498  0.0176
   25MOL0     C 3246  10.733   5.790  11.231 -0.7297 -1.2144  0.1043
   25MOL0     C 3247  10.608   5.746  11.174 -0.2017  0.2380 -0.2376
   25MOL0     O 3248  10.525   5.637  11.218 -0.2983 -0.2142 -0.5613
   25MOL0     C 3249  10.557   5.571  11.341 -0.0467 -0.0235  0.2034
   25MOL0     C 3250  10.658   5.452  11.309  0.3044 -0.1104 -0.3832
   25MOL0     C 3251  10.581   5.360  11.215  0.1757 -0.8651  0.7421
   25MOL0     C 3252  10.653   5.234  11.192 -0.5066 -0.2326  0.2821
   25MOL0     C 3253  10.603   5.135  11.091 -0.0315  0.3969 -0.3639
   25MOL0     C 3254  10.616   5.162  10.939 -0.2520 -0.3841  0.5179
   25MOL0     C 3255  10.558   5.042  10.863 -0.2679  0.7230  0.5432
   25MOL0     C 3256  10.509   5.096  10.725  0.3854  0.1919 -0.3360
   25MOL0     N 3257  10.358   5.089  10.738 -0.2871 -0.4419 -0.7046
   25MOL0     C 3258  10.277   5.184  10.801  0.4571 -0.4900  0.1302
   25MOL0     C 3259  10.156   5.129  10.811 -0.7242 -0.0495 -0.4796
   25MOL0     C 3260  10.039   5.187  10.874  0.3363 -0.0972 -0.2199
   25MOL0     C 3261   9.911   5.130  10.818 -0.0759  0.1753  0.4031
   25MOL0     C 3262   9.793   5.186  10.883  0.1537  0.4770 -0.6965
   25MOL0     C 3263   9.768   5.336  10.857  0.5766 -0.6198 -0.0362
   25MOL0     O 3264   9.627   5.348  10.886  0.1725 -0.2263 -0.1280
   25MOL0     C 3265   9.550   5.459  10.847 -0.7845 -1.1325  0.0754
   25MOL0     C 3266   9.601   5.576  10.791 -0.2597  0.4563 -0.5172
   25MOL0     C 3267   9.517   5.681  10.762  0.1048 -1.0481  0.3362
   25MOL0     C 3268   9.379   5.666  10.762 -0.9864 -0.2402 -0.8081
   25MOL0     C 3269   9.302   5.772  10.712 -0.3790 -0.0616 -0.8203
   25MOL0     O 3270   9.358   5.897  10.701 -0.7673  0.4489  0.9218
   25MOL0     C 3271   9.306   5.993  10.623  0.0425 -0.1748  0.9548
   25MOL0     C 3272   9.181   5.992  10.544  0.2341  0.6717 -0.3590
   25MOL0     C 3273   9.153   6.088  10.441 -0.7284  0.2133 -0.6646
   25MOL0     C 3274   9.222   6.207  10.441  0.1255 -0.5329  0.5703
   25MOL0     O 3275   9.190   6.305  10.348  0.2818 -0.2384 -1.1700
   25MOL0     C 3276   9.059   6.330  10.307  1.0201 -0.3900  0.8621
   25MOL0     C 3277   9.041   6.395  10.172 -0.0633 -0.1640 -0.0114
   25MOL0     C 3278   9.083   6.545  10.178 -0.1997 -0.3095  0.0201
   25MOL0     C 3279   9.071   6.616  10.039  0.0011 -0.4492 -0.3970
   25MOL0     C 3280   9.097   6.770  10.046  0.9299 -0.1971 -0.2956
   25MOL0     C 3281   9.009   6.854  10.141  0.9135 -0.4382 -0.2398
   25MOL0     C 3282   9.022   7.004  10.135  0.2013 -0.0556 -0.0128
   25MOL0     C 3283   8.950   7.066  10.253  0.2496 -0.5599  0.6969
   25MOL0    Cl 3284   8.768   7.048  10.239  0.4892  0.6112  0.0502
   25MOL0     C 3285   9.348   6.214  10.516  0.9900  0.0913  0.6222
   25MOL0     C 3286   9.380   6.108  10.605  0.1588  0.3195 -0.2756
   25MOL0     O 3287   9.202   5.731  10.661 -0.5343 -0.4245 -0.2664
   25MOL0     C 3288   9.323   5.550  10.816 -0.4571  0.7578  0.4294
   25MOL0     C 3289   9.410   5.454  10.868 -0.4069 -0.0116 -0.0839
   25MOL0     N 3290  10.161   5.008  10.751  0.2886 -0.4705 -0.0107
   25MOL0     N 3291  10.282   4.979  10.715  0.0067  0.1994  0.1645
   25MOL0     C 3292  10.569   5.804  11.056 -0.0317  0.6771 -0.1380
   25MOL0     C 3293  10.637   5.915  11.007 -1.6882  0.3941 -0.6814
   25MOL0     C 3294  10.933   6.281  10.993 -0.3926  0.1356  0.1748
   25MOL0     C 3295  11.009   6.238  10.881  0.4192 -0.2071 -0.3886
   25MOL0     C 3296  11.080   6.320  10.799  0.8340  0.7776  0.5559
   25MOL0     C 3297  11.065   6.458  10.816  0.3309 -0.3316 -1.2697
   25MOL0     O 3298  11.112   6.544  10.720  0.1900  0.3462  0.1856
   25MOL0     C 3299  11.248   6.539  10.695  0.1893 -0.7068 -0.0299
   25MOL0     C 3300  11.296   6.687  10.674 -0.5356  0.9261 -0.1579
   25MOL0     C 3301  11.216   6.773  10.576 -0.1973  0.3978 -0.0016
   25MOL0     C 3302  11.300   6.897  10.547  0.5083 -0.0828  0.3995
   25MOL0     C 3303  11.207   6.995  10.480 -0.2042  0.7318 -0.0040
   25MOL0     C 3304  11.124   7.076  10.445 -0.3705 -0.5744  1.0110
   25MOL0     C 3305  10.995   6.507  10.933 -0.9251 -0.0857 -0.0917
   25MOL0     C 3306  10.932   6.421  11.026 -0.2356  0.9595  0.3322
   25MOL0     C 3307  10.858   6.477  11.143 -0.5489  0.9422 -0.0300
   25MOL0     H 3308  10.905   5.934  11.207 -0.0355  1.1825 -2.2473
   25MOL0     H 3309  10.766   5.739  11.322 -0.1482 -0.1914  0.4892
   25MOL0     H 3310  10.598   5.640  11.416  2.3483  0.1107 -1.1357
   25MOL0     H 3311  10.462   5.537  11.383 -1.0555  3.9069  1.6044
   25MOL0     H 3312  10.678   5.407  11.407  0.0642  1.3577  0.3753
   25MOL0     H 3313  10.756   5.486  11.276  0.4330  0.4035  0.4989
   25MOL0     H 3314  10.582   5.415  11.120 -3.1981  0.6215  1.4312
   25MOL0     H 3315  10.473   5.346  11.228  0.1350 -1.8510 -0.4476
   25MOL0     H 3316  10.754   5.269  11.169  0.0032 -0.6111  1.8235
   25MOL0     H 3317  10.645   5.191  11.293  1.3586  4.3262  2.6692
   25MOL0     H 3318  10.639   5.032  11.105 -3.6006 -0.7681  1.6603
   25MOL0     H 3319  10.497   5.132  11.119  0.4497  1.5287  1.7956
   25MOL0     H 3320  10.564   5.254  10.910  1.4762  0.7347  0.8471
   25MOL0     H 3321  10.721   5.185  10.919 -0.7435  1.7161  0.1513
   25MOL0     H 3322  10.486   4.978  10.917  0.6507  1.2875  2.5457
   25MOL0     H 3323  10.645   4.980  10.838 -0.0634  1.6880 -1.2402
   25MOL0     H 3324  10.557   5.193  10.706 -1.3702  0.4530 -4.2738
   25MOL0     H 3325  10.530   5.038  10.635  3.2660  2.0470 -1.0146
   25MOL0     H 3326  10.286   5.290  10.823 -7.9047  0.5514  1.5208
   25MOL0     H 3327  10.048   5.146  10.976 -3.3283  3.5905  1.8834
   25MOL0     H 3328  10.044   5.296  10.885  2.0537 -0.1980  0.4262
   25MOL0     H 3329   9.898   5.144  10.710 -0.7970 -0.3933  0.4084
   25MOL0     H 3330   9.901   5.024  10.842  0.7966  0.2485  1.1271
   25MOL0     H 3331   9.807   5.181  10.991  3.1603  0.6668 -0.9998
   25MOL0     H 3332   9.697   5.140  10.855 -2.5653  3.6413  2.4103
   25MOL0     H 3333   9.768   5.352  10.749 -3.7865 -2.4505 -0.5207
   25MOL0     H 3334   9.826   5.412  10.911 -0.7894  0.0005  0.6018
   25MOL0     H 3335   9.702   5.596  10.756 -0.8923  2.0216 -1.5605
   25MOL0     H 3336   9.572   5.762  10.714  0.5498 -1.8284 -0.5129
   25MOL0     H 3337   9.111   5.911  10.560  1.0759  0.2132  1.2151
   25MOL0     H 3338   9.079   6.058  10.368  0.2080  1.4766 -2.2036
   25MOL0     H 3339   8.999   6.239  10.318  0.7039 -0.0068  2.6601
   25MOL0     H 3340   9.011   6.398  10.378  0.5382  2.1026 -1.6909
   25MOL0     H 3341   9.103   6.340  10.100 -3.1407 -0.3340 -2.7742
   25MOL0     H 3342   8.937   6.391  10.138  1.0114 -2.9279 -3.6641
   25MOL0     H 3343   9.029   6.596  10.258 -1.4679 -1.4453 -0.0705
   25MOL0     H 3344   9.187   6.548  10.209 -0.9059 -2.3250  3.0083
   25MOL0     H 3345   8.970   6.594  10.004 -0.3174  0.7841 -0.3036
   25MOL0     H 3346   9.145   6.570   9.973 -0.5407 -0.7921 -0.7724
   25MOL0     H 3347   9.074   6.801   9.944 -1.6931  0.9165  0.5317
   25MOL0     H 3348   9.203   6.789  10.063  0.0911  2.3240  3.2067
   25MOL0     H 3349   8.905   6.841  10.108  0.3570  2.3374  0.2256
   25MOL0     H 3350   9.009   6.816  10.244 -0.6378 -0.2050 -0.1286
   25MOL0     H 3351   8.978   7.041  10.042 -0.9096 -2.4100 -0.5131
   25MOL0     H 3352   9.126   7.036  10.143 -0.3392  3.0542 -2.9096
   25MOL0     H 3353   8.991   7.037  10.350 -1.5643  2.8869  2.7150
   25MOL0     H 3354   8.966   7.175  10.249 -0.4797 -0.3001  3.2973
   25MOL0     H 3355   9.408   6.304  10.499 -0.9398  1.6387  1.5951
   25MOL0     H 3356   9.477   6.121  10.654  1.4207 -0.8674 -2.3100
   25MOL0     H 3357   9.215   5.542  10.813 -0.3084 -2.7101 -2.8030
   25MOL0     H 3358   9.369   5.372  10.926  1.1756 -0.6024  0.2460
   25MOL0     H 3359  10.471   5.773  11.022 -0.8084  1.0494  1.6359
   25MOL0     H 3360  10.581   5.975  10.936 -0.7235  0.0952 -1.7095
   25MOL0     H 3361  11.000   6.136  10.844 -1.7094 -0.2852  0.1713
   25MOL0     H 3362  11.133   6.289  10.710  0.1074 -1.7587  0.9331
   25MOL0     H 3363  11.266   6.482  10.604  2.3136 -0.8915  0.4498
   25MOL0     H 3364  11.306   6.484  10.770  2.2495  1.0209 -0.2426
   25MOL0     H 3365  11.397   6.691  10.631  0.3461 -0.4280  1.6296
   25MOL0     H 3366  11.319   6.746  10.764  3.5400  2.6023 -2.0393
   25MOL0     H 3367  11.121   6.799  10.624  1.1463  0.5223  2.7638
   25MOL0     H 3368  11.203   6.722  10.480 -0.5654  0.8303 -0.1851
   25MOL0     H 3369  11.360   6.942  10.627  1.6747 -0.6774 -0.0993
   25MOL0     H 3370  11.376   6.876  10.471  0.0825  0.3474 -0.1472
   25MOL0     H 3371  11.053   7.149  10.413  2.9694  3.0851  1.1601
   25MOL0     H 3372  10.989   6.615  10.940  1.8431  0.0471  1.8174
   25MOL0     H 3373  10.902   6.432  11.233  0.1243 -0.8981 -1.2256
   25MOL0     H 3374  10.865   6.586  11.148  0.3541  0.8466  1.4844
   25MOL0     H 3375  10.756   6.442  11.130  0.3342 -1.4054 -1.2216
   26MOL0     O 3376  10.486   9.804   2.044 -0.8831  0.7338 -0.2633
   26MOL0     C 3377  10.545   9.886   1.975  0.3989 -0.2006  0.2253
   26MOL0     O 3378  10.509  10.020   1.957  0.7293  0.9704  0.6581
   26MOL0     C 3379  10.424  10.074   2.055 -0.1697 -0.2019 -0.5656
   26MOL0     C 3380  10.352  10.180   2.004 -0.0698 -0.4424 -1.0251
   26MOL0     C 3381  10.270  10.264   2.085  0.5315  0.2801  0.0486
   26MOL0     C 3382  10.275  10.243   2.217  0.2569  0.1749 -0.3984
   26MOL0     O 3383  10.195  10.318   2.294  0.1148 -0.1009 -0.4382
   26MOL0     C 3384  10.100  10.249   2.372 -0.1377  0.5366  0.4494
   26MOL0     C 3385  10.104  10.290   2.511  0.5590 -0.0183  0.6009
   26MOL0     C 3386   9.997  10.220   2.592  0.0288 -0.2861 -0.3666
   26MOL0     C 3387   9.999  10.272   2.743 -0.8973 -1.1952 -0.3633
   26MOL0     C 3388   9.871  10.253   2.829 -0.6434  0.4384 -0.1948
   26MOL0     C 3389   9.857  10.107   2.888 -0.4961 -0.5643  0.0653
   26MOL0     C 3390   9.718  10.086   2.948 -0.5440 -0.0817  0.6430
   26MOL0     C 3391   9.708   9.957   3.019  0.8402  0.3284  1.0719
   26MOL0     N 3392   9.579   9.947   3.096  0.8740 -0.0209 -0.7819
   26MOL0     C 3393   9.460  10.017   3.071  0.3364  1.1568 -0.5801
   26MOL0     C 3394   9.372   9.967   3.168 -0.5840 -0.2808 -0.1144
   26MOL0     C 3395   9.228  10.011   3.181  0.3664  0.2249  0.0835
   26MOL0     C 3396   9.122   9.900   3.183  0.1319 -0.9747  0.1134
   26MOL0     C 3397   9.145   9.784   3.086  0.3738 -0.3799  0.1243
   26MOL0     C 3398   9.085   9.820   2.954  0.0959 -0.8673 -0.0317
   26MOL0     O 3399   9.151   9.931   2.886 -0.5638  0.1829  0.2760
   26MOL0     C 3400   9.260   9.917   2.803  0.6434  0.2174 -0.9657
   26MOL0     C 3401   9.350   9.804   2.813  0.6877  0.2481 -0.6230
   26MOL0     C 3402   9.471   9.792   2.744 -0.1935  0.5108 -0.1142
   26MOL0     C 3403   9.523   9.901   2.669 -0.0829 -0.7904  0.4462
   26MOL0     C 3404   9.653   9.892   2.604  0.8487  0.3473 -0.4543
   26MOL0     O 3405   9.658   9.949   2.472  0.8021 -0.2571 -0.2871
   26MOL0     C 3406   9.772   9.949   2.397  0.2887  0.8967 -0.9968
   26MOL0     C 3407   9.875   9.851   2.411 -0.2586 -1.2053 -0.6715
   26MOL0     C 3408   9.986   9.856   2.327 -0.3956  0.4975 -0.7689
   26MOL0     C 3409   9.988   9.939   2.219 -0.7774 -0.3130  0.5737
   26MOL0     O 3410  10.096   9.921   2.128  0.1174  0.0725  0.2489
   26MOL0     C 3411  10.094   9.962   1.994  0.1839  0.4156  0.3015
   26MOL0     C 3412   9.995   9.880   1.919  0.4365  0.2049 -0.1057
   26MOL0     C 3413   9.982   9.926   1.766 -1.0529  0.0997 -0.7773
   26MOL0     C 3414   9.876   9.842   1.686 -0.4870 -0.3530  1.1988
   26MOL0     C 3415   9.734   9.857   1.737 -0.4453 -0.7522 -0.0168
   26MOL0     C 3416   9.644   9.805   1.622 -0.0478  0.0359 -1.0057
   26MOL0     C 3417   9.493   9.794   1.658  0.3757  0.5581  0.1026
   26MOL0     C 3418   9.410   9.713   1.562  0.4352  0.3379 -1.2177
   26MOL0    Cl 3419   9.233   9.697   1.596  0.2228 -0.3075  0.3631
   26MOL0     C 3420   9.888  10.029   2.209  0.8641  0.5053 -0.2167
   26MOL0     C 3421   9.782  10.039   2.295 -0.2147 -0.1933 -0.3459
   26MOL0     O 3422   9.740   9.836   2.666  0.2560 -0.0133  0.0959
   26MOL0     C 3423   9.434  10.012   2.654  0.3825 -0.8822 -1.2721
   26MOL0     C 3424   9.308  10.017   2.719 -0.5975 -0.4935  0.2366
   26MOL0     N 3425   9.441   9.863   3.240  0.5748 -1.0776  0.4041
   26MOL0     N 3426   9.564   9.858   3.198 -0.6407 -0.0126 -0.0662
   26MOL0     C 3427  10.343  10.131   2.271  0.2410 -0.9472 -0.1074
   26MOL0     C 3428  10.430  10.050   2.194  0.1921 -0.1457  0.0883
   26MOL0     C 3429  10.649   9.841   1.898  0.0040 -0.3532  1.1851
   26MOL0     C 3430  10.627   9.853   1.758 -0.1691 -0.0487  0.4924
   26MOL0     C 3431  10.735   9.812   1.674 -0.6563  0.5979  0.9191
   26MOL0     C 3432  10.861   9.766   1.723  0.2572 -0.4364 -0.5426
   26MOL0     O 3433  10.951   9.720   1.631  0.0791  0.3868  0.6809
   26MOL0     C 3434  11.085   9.690   1.668 -1.4817 -0.4900  0.4293
   26MOL0     C 3435  11.161   9.654   1.529  0.0161 -0.4236  1.2434
   26MOL0     C 3436  11.153   9.753   1.412 -0.0451  0.1735  0.3812
   26MOL0     C 3437  11.167   9.898   1.450 -0.3344 -0.9002 -0.0461
   26MOL0     C 3438  11.209   9.961   1.332 -0.0310 -0.1487  0.4385
   26MOL0     C 3439  11.233  10.000   1.219 -0.7600  0.4967  0.9028
   26MOL0     C 3440  10.880   9.779   1.865  0.0588  0.5981  1.3817
   26MOL0     C 3441  10.777   9.812   1.946 -0.1145 -0.0548 -0.2257
   26MOL0     C 3442  10.810   9.839   2.088  0.5907  0.3206  0.1283
   26MOL0     H 3443  10.367  10.211   1.901  0.0774 -2.8579 -1.7796
   26MOL0     H 3444  10.208  10.344   2.048  3.4639  2.2455 -0.9689
   26MOL0     H 3445   9.999  10.243   2.328  1.0737 -5.4700 -2.6077
   26MOL0     H 3446  10.118  10.141   2.368 -0.7663  0.4508 -0.5833
   26MOL0     H 3447  10.092  10.398   2.524 -0.6202 -0.1694  0.8573
   26MOL0     H 3448  10.207  10.280   2.547  0.2700 -2.2700  0.9803
   26MOL0     H 3449  10.023  10.114   2.588 -0.1144 -0.3611  0.4841
   26MOL0     H 3450   9.895  10.219   2.551 -0.9855 -2.0065  2.0072
   26MOL0     H 3451  10.090  10.231   2.789 -1.6826 -0.5353  1.9012
   26MOL0     H 3452  10.012  10.380   2.748  0.8845 -1.4040  0.1915
   26MOL0     H 3453   9.873  10.326   2.910  3.0206 -2.0496  2.2853
   26MOL0     H 3454   9.796  10.254   2.749  0.3861  0.8868 -1.1763
   26MOL0     H 3455   9.877  10.043   2.802  1.0986 -0.2742  0.1870
   26MOL0     H 3456   9.922  10.088   2.974 -3.0560  2.0286  2.8454
   26MOL0     H 3457   9.655  10.076   2.860  1.1781 -2.4857 -0.4157
   26MOL0     H 3458   9.675  10.162   3.014  0.2419  0.2104  0.8273
   26MOL0     H 3459   9.712   9.878   2.944 -0.1801  0.1852  1.1503
   26MOL0     H 3460   9.788   9.935   3.089  2.8663  1.7786 -0.6406
   26MOL0     H 3461   9.455  10.094   2.995  4.1395  2.8268  0.6247
   26MOL0     H 3462   9.216  10.075   3.269 -1.2991 -0.1498  0.1653
   26MOL0     H 3463   9.215  10.066   3.088 -1.5631  1.1926  0.8573
   26MOL0     H 3464   9.118   9.857   3.284  0.3477  0.1096  0.6045
   26MOL0     H 3465   9.025   9.946   3.165 -0.2441 -2.2299 -1.1624
   26MOL0     H 3466   9.088   9.699   3.123  0.0860  0.0758  0.7318
   26MOL0     H 3467   9.250   9.757   3.069  1.4589  1.9217  2.5256
   26MOL0     H 3468   8.979   9.844   2.966  0.0625 -1.7195  1.7869
   26MOL0     H 3469   9.086   9.738   2.881 -0.3639  0.9401 -2.1580
   26MOL0     H 3470   9.314   9.728   2.882 -4.7930  1.8313 -1.2112
   26MOL0     H 3471   9.542   9.711   2.760  5.5639  4.6987 -1.0753
   26MOL0     H 3472   9.877   9.770   2.483  0.3280 -0.7679 -0.1918
   26MOL0     H 3473  10.064   9.781   2.337 -0.1069  0.6774 -1.5915
   26MOL0     H 3474  10.072  10.069   1.990 -0.7019  0.2171 -0.6789
   26MOL0     H 3475  10.199   9.939   1.977 -0.2186 -3.0625  1.6948
   26MOL0     H 3476  10.019   9.774   1.928 -0.4454  0.1723  2.5984
   26MOL0     H 3477   9.896   9.888   1.964  0.0660 -0.1082 -0.8458
   26MOL0     H 3478   9.954  10.030   1.752 -2.3972  0.2762  2.2165
   26MOL0     H 3479  10.083   9.908   1.728 -1.1406 -0.5696 -0.7063
   26MOL0     H 3480   9.900   9.736   1.692  0.0363 -0.3883 -0.8732
   26MOL0     H 3481   9.884   9.883   1.585 -0.7836  3.4352  2.5172
   26MOL0     H 3482   9.706   9.961   1.755 -2.5247 -1.3933  0.7970
   26MOL0     H 3483   9.709   9.794   1.823  0.8137 -2.3610 -0.7622
   26MOL0     H 3484   9.646   9.869   1.534  1.6886 -0.1240 -1.1252
   26MOL0     H 3485   9.672   9.703   1.591 -0.7574 -1.6136  3.0913
   26MOL0     H 3486   9.459   9.896   1.679 -0.5301 -0.2467  3.0927
   26MOL0     H 3487   9.474   9.741   1.752  2.1316  2.2025  1.4709
   26MOL0     H 3488   9.422   9.763   1.465 -0.7063 -0.0065 -1.5451
   26MOL0     H 3489   9.451   9.612   1.553  0.0611 -0.3172  2.5985
   26MOL0     H 3490   9.893  10.094   2.122  0.7086 -1.0202 -1.4026
   26MOL0     H 3491   9.702  10.109   2.273 -0.9413 -1.1735 -0.8963
   26MOL0     H 3492   9.463  10.089   2.583  1.1546 -1.1266 -1.2370
   26MOL0     H 3493   9.248  10.106   2.704  1.4943  0.8636 -0.5803
   26MOL0     H 3494  10.330  10.124   2.378 -2.7525  1.2572 -0.2075
   26MOL0     H 3495  10.493   9.979   2.246 -0.8079 -0.8414  0.3591
   26MOL0     H 3496  10.536   9.887   1.709  0.1707 -0.5542 -0.5221
   26MOL0     H 3497  10.733   9.820   1.566  0.6111  1.7219  0.9486
   26MOL0     H 3498  11.095   9.601   1.730  2.7170 -1.0005 -0.6731
   26MOL0     H 3499  11.135   9.774   1.717 -0.5373  0.1749 -1.5756
   26MOL0     H 3500  11.104   9.562   1.515 -1.4262  0.0883  3.1778
   26MOL0     H 3501  11.268   9.634   1.537  0.8095  2.2665 -0.9134
   26MOL0     H 3502  11.056   9.736   1.364 -0.6700  1.2293  1.2134
   26MOL0     H 3503  11.238   9.730   1.348 -0.7204  0.4493 -0.6363
   26MOL0     H 3504  11.073   9.937   1.490  1.9829  1.9400  3.1886
   26MOL0     H 3505  11.246   9.905   1.525  1.7947 -2.9305 -1.9296
   26MOL0     H 3506  11.259  10.032   1.120 -2.3645 -0.0870  0.2694
   26MOL0     H 3507  10.978   9.746   1.898 -0.2746 -1.9078  0.1002
   26MOL0     H 3508  10.910   9.815   2.126  1.1370  3.2711  0.8417
   26MOL0     H 3509  10.794   9.947   2.099 -2.3003  0.3236 -2.4954
   26MOL0     H 3510  10.732   9.790   2.146  0.5417 -1.1752 -1.1341
   27MOL0     O 3511  10.470   1.135   1.213 -0.1191  0.6585 -0.1085
   27MOL0     C 3512  10.464   1.259   1.203  0.3546 -0.7123  0.3785
   27MOL0     O 3513  10.478   1.348   1.315 -0.3434  0.2256  0.8068
   27MOL0     C 3514  10.468   1.292   1.440  0.2726  1.2290 -0.9702
   27MOL0     C 3515  10.370   1.203   1.478  0.0010  0.4241  1.0067
   27MOL0     C 3516  10.365   1.136   1.601 -0.2347 -0.5024 -0.3623
   27MOL0     C 3517  10.461   1.169   1.691 -0.4065  0.5275  0.1439
   27MOL0     O 3518  10.478   1.109   1.817  0.0470 -0.2469 -0.0097
   27MOL0     C 3519  10.431   0.977   1.822  0.8789  0.2401  1.4326
   27MOL0     C 3520  10.455   0.922   1.958 -0.5355 -0.5338  0.4498
   27MOL0     C 3521  10.391   0.784   1.983  0.2770 -0.6056 -0.0902
   27MOL0     C 3522  10.418   0.662   1.904 -0.0637 -0.5996  1.1071
   27MOL0     C 3523  10.346   0.533   1.961 -0.1371  0.0347  0.1806
   27MOL0     C 3524  10.371   0.401   1.895 -0.0008  1.3332 -0.2646
   27MOL0     C 3525  10.385   0.277   1.989  0.0349  0.8170  1.0547
   27MOL0     C 3526  10.249   0.225   2.052  0.2271  0.3222 -0.1224
   27MOL0     N 3527  10.187   0.331   2.131 -0.7315 -0.1286 -0.2044
   27MOL0     C 3528  10.234   0.397   2.249  0.3814  0.2057  0.4664
   27MOL0     C 3529  10.119   0.440   2.302  0.1752 -1.2245 -0.2754
   27MOL0     C 3530  10.104   0.487   2.440  0.7014  0.2446 -0.8928
   27MOL0     C 3531  10.051   0.379   2.546 -0.1627 -0.1788  0.3896
   27MOL0     C 3532  10.077   0.415   2.688 -0.6688 -1.1476 -0.2434
   27MOL0     C 3533  10.063   0.294   2.775 -0.3627  1.3253 -0.6549
   27MOL0     O 3534   9.922   0.282   2.807 -0.6070  0.1963  0.3826
   27MOL0     C 3535   9.854   0.172   2.849 -1.3694  0.3898 -0.4708
   27MOL0     C 3536   9.711   0.178   2.872 -0.7882  0.6344  0.8087
   27MOL0     C 3537   9.639   0.061   2.906  0.5649 -0.2542  0.2066
   27MOL0     C 3538   9.701  -0.057   2.937 -0.1135  0.2528 -0.5332
   27MOL0     C 3539   9.622  -0.176   2.989 -0.0933 -0.1167 -0.0056
   27MOL0     O 3540   9.689  -0.303   3.001  0.6401 -0.1082 -0.3320
   27MOL0     C 3541   9.620  -0.426   3.028  0.3630  0.2162 -0.0706
   27MOL0     C 3542   9.641  -0.538   2.943 -0.6858 -0.8225 -0.3832
   27MOL0     C 3543   9.593  -0.666   2.957  0.9743  0.8540  0.5735
   27MOL0     C 3544   9.517  -0.689   3.073 -0.0563 -0.1663  0.2938
   27MOL0     O 3545   9.451  -0.802   3.096  0.9646  0.1635 -0.8802
   27MOL0     C 3546   9.482  -0.927   3.020  0.3212 -1.7337 -0.8472
   27MOL0     C 3547   9.408  -1.043   3.067 -0.3339  0.3574  0.3819
   27MOL0     C 3548   9.452  -1.100   3.205  0.4193 -0.5326 -0.2370
   27MOL0     C 3549   9.601  -1.140   3.214  0.3274 -0.3766  0.5920
   27MOL0     C 3550   9.647  -1.230   3.332 -1.0734  0.6554  1.1857
   27MOL0     C 3551   9.792  -1.206   3.363 -0.4924  0.2550  0.3355
   27MOL0     C 3552   9.881  -1.251   3.256 -0.0153  1.0091  0.8307
   27MOL0     C 3553  10.023  -1.231   3.304 -0.1673 -0.6288 -0.8005
   27MOL0    Cl 3554  10.044  -1.047   3.295  0.2841 -0.4199 -0.0026
   27MOL0     C 3555   9.483  -0.585   3.159 -1.2755  0.7247  0.0871
   27MOL0     C 3556   9.535  -0.454   3.144  0.1307 -0.0826  0.7216
   27MOL0     O 3557   9.506  -0.165   3.022 -0.8378  0.2342 -0.2716
   27MOL0     C 3558   9.843  -0.057   2.926  1.5221  0.2777 -0.4176
   27MOL0     C 3559   9.918   0.057   2.890  0.3153  0.4961 -0.6159
   27MOL0     N 3560  10.023   0.430   2.202 -0.4052 -0.1207 -0.6391
   27MOL0     N 3561  10.066   0.373   2.102 -0.6636  0.3201  0.2725
   27MOL0     C 3562  10.559   1.256   1.655 -0.7177 -0.5573  0.2918
   27MOL0     C 3563  10.570   1.312   1.523 -0.0443  0.3918  0.1394
   27MOL0     C 3564  10.435   1.325   1.081  0.8404  1.4265  0.4027
   27MOL0     C 3565  10.498   1.449   1.059  0.2329  0.3732 -0.1256
   27MOL0     C 3566  10.514   1.499   0.928 -1.4918  0.1573 -0.4005
   27MOL0     C 3567  10.463   1.438   0.818 -0.0319  0.3012  0.2692
   27MOL0     O 3568  10.484   1.468   0.688  0.2005  0.5469  0.3313
   27MOL0     C 3569  10.577   1.569   0.654  1.1673 -0.0561 -0.1442
   27MOL0     C 3570  10.598   1.549   0.509  0.5605  0.0539  0.0572
   27MOL0     C 3571  10.468   1.546   0.424 -0.0873 -0.2666  0.1314
   27MOL0     C 3572  10.510   1.525   0.278 -0.6980 -0.2269 -0.0909
   27MOL0     C 3573  10.394   1.537   0.192  0.2868  0.1041  0.0311
   27MOL0     C 3574  10.291   1.541   0.129  0.4347  0.5597 -0.8426
   27MOL0     C 3575  10.384   1.328   0.844  0.7551 -0.2692  0.4599
   27MOL0     C 3576  10.372   1.266   0.967  0.4845 -0.2237 -0.7052
   27MOL0     C 3577  10.271   1.162   0.972  0.1393 -0.7858 -0.1164
   27MOL0     H 3578  10.290   1.175   1.411 -3.0705  1.3990  3.9907
   27MOL0     H 3579  10.292   1.059   1.621  2.1112 -2.0595  3.1955
   27MOL0     H 3580  10.323   0.972   1.807  0.7692 -0.0590  2.2534
   27MOL0     H 3581  10.476   0.907   1.752 -2.3433 -0.4263 -0.1585
   27MOL0     H 3582  10.416   0.999   2.025 -3.1232 -0.8274 -0.6024
   27MOL0     H 3583  10.562   0.918   1.981 -0.1267 -1.7520 -1.4613
   27MOL0     H 3584  10.283   0.801   1.973 -0.8663 -4.2026  3.4934
   27MOL0     H 3585  10.391   0.762   2.090 -6.0634  1.5270  0.7637
   27MOL0     H 3586  10.383   0.684   1.803 -0.9852 -0.4058  1.4631
   27MOL0     H 3587  10.525   0.643   1.894 -0.4087 -1.7903 -0.6638
   27MOL0     H 3588  10.400   0.519   2.056  0.0831 -4.4416 -0.3929
   27MOL0     H 3589  10.242   0.564   1.972  1.0579  4.5470  0.9660
   27MOL0     H 3590  10.289   0.380   1.826 -0.2139  1.3615 -0.0224
   27MOL0     H 3591  10.463   0.429   1.844  1.6107 -1.9280  0.6026
   27MOL0     H 3592  10.463   0.302   2.061  0.7662 -1.3823  1.0748
   27MOL0     H 3593  10.426   0.197   1.928  0.3703  1.5172  0.3349
   27MOL0     H 3594  10.181   0.204   1.970 -0.2473  1.7492 -0.1258
   27MOL0     H 3595  10.273   0.141   2.118  1.7049  0.8076  0.0186
   27MOL0     H 3596  10.328   0.392   2.303  1.2854 -2.0095 -1.1887
   27MOL0     H 3597  10.204   0.509   2.477  0.7415 -1.1803 -0.0853
   27MOL0     H 3598  10.041   0.577   2.442 -4.6479 -3.0512 -0.2385
   27MOL0     H 3599   9.949   0.349   2.519  0.7049 -0.7540 -2.6143
   27MOL0     H 3600  10.116   0.292   2.534  0.8053 -0.0445  3.6821
   27MOL0     H 3601  10.017   0.498   2.727  0.6570  1.5610 -3.4584
   27MOL0     H 3602  10.177   0.458   2.698 -2.1017  2.2473  0.7624
   27MOL0     H 3603  10.111   0.316   2.870 -0.7336  2.0924 -0.6374
   27MOL0     H 3604  10.106   0.208   2.722 -1.4296 -0.3111  1.0111
   27MOL0     H 3605   9.655   0.262   2.832 -2.1394 -1.9997 -3.5231
   27MOL0     H 3606   9.531   0.071   2.900  0.6388 -0.1774 -1.7091
   27MOL0     H 3607   9.714  -0.516   2.866 -1.0336 -0.7871 -0.7102
   27MOL0     H 3608   9.607  -0.742   2.882 -1.4104 -1.2607  2.1014
   27MOL0     H 3609   9.459  -0.913   2.914  2.8124  1.6377 -1.0816
   27MOL0     H 3610   9.590  -0.943   3.019  0.8244  1.0604 -0.6084
   27MOL0     H 3611   9.300  -1.034   3.073 -0.5106 -1.8978  1.7427
   27MOL0     H 3612   9.434  -1.122   2.995  1.3962  0.3755  0.9261
   27MOL0     H 3613   9.426  -1.025   3.281 -2.8466 -1.1399 -0.5964
   27MOL0     H 3614   9.382  -1.180   3.229 -0.3616 -0.1909 -1.3124
   27MOL0     H 3615   9.662  -1.049   3.214  1.9209 -1.2486 -3.5167
   27MOL0     H 3616   9.615  -1.181   3.114 -0.0545  0.3476  0.2323
   27MOL0     H 3617   9.625  -1.329   3.293  0.0539  0.5798  0.6875
   27MOL0     H 3618   9.594  -1.214   3.426  0.6846 -0.5676  2.4479
   27MOL0     H 3619   9.808  -1.101   3.391 -2.7017  0.5053  0.8878
   27MOL0     H 3620   9.829  -1.263   3.449 -0.8358 -0.5588 -0.0536
   27MOL0     H 3621   9.869  -1.191   3.166  4.7469  0.1778 -0.6417
   27MOL0     H 3622   9.874  -1.355   3.221 -1.7888  1.4389 -0.1693
   27MOL0     H 3623  10.039  -1.276   3.402  0.9340 -1.2953 -1.2674
   27MOL0     H 3624  10.098  -1.267   3.233 -1.5119 -1.5505 -1.8201
   27MOL0     H 3625   9.412  -0.612   3.237 -4.1942  2.2035 -1.8803
   27MOL0     H 3626   9.493  -0.378   3.210 -2.4804  1.9690 -2.9442
   27MOL0     H 3627   9.892  -0.143   2.970 -0.1413  0.1186  1.2741
   27MOL0     H 3628  10.025   0.063   2.904  0.0328 -0.3212  2.4429
   27MOL0     H 3629  10.637   1.281   1.726  1.8900  1.4142 -2.9307
   27MOL0     H 3630  10.651   1.375   1.489  0.1514 -1.3499 -3.0875
   27MOL0     H 3631  10.559   1.496   1.135  0.7896  0.7478 -0.7970
   27MOL0     H 3632  10.579   1.585   0.921  0.6089 -1.2035  1.0383
   27MOL0     H 3633  10.670   1.578   0.712 -0.4371 -1.4501  2.8648
   27MOL0     H 3634  10.517   1.661   0.659 -0.1443 -0.8324 -1.0877
   27MOL0     H 3635  10.672   1.468   0.504  2.0841  1.3943  0.0465
   27MOL0     H 3636  10.650   1.640   0.477 -0.3602 -0.2095 -2.4131
   27MOL0     H 3637  10.408   1.635   0.445  1.5145  0.5403  1.5780
   27MOL0     H 3638  10.418   1.455   0.458  1.0178 -0.2024  2.0504
   27MOL0     H 3639  10.583   1.604   0.259 -0.9808  0.3518  1.1075
   27MOL0     H 3640  10.569   1.434   0.263 -0.4350 -1.2154  5.0462
   27MOL0     H 3641  10.199   1.542   0.075 -0.1237  0.4520  0.0756
   27MOL0     H 3642  10.344   1.282   0.755 -3.2008 -0.4742  2.1273
   27MOL0     H 3643  10.313   1.069   0.931 -0.5909 -2.7811  3.2212
   27MOL0     H 3644  10.255   1.134   1.077 -1.8450 -1.4266 -0.5558
   27MOL0     H 3645  10.177   1.187   0.924  1.4614  1.2039 -1.8432
   28MOL0     O 3646   7.200   8.715   3.178  0.3079  0.4358  0.0824
   28MOL0     C 3647   7.259   8.758   3.278 -0.0963 -0.3278  0.4007
   28MOL0     O 3648   7.199   8.781   3.394 -0.1346  0.0710 -0.5631
   28MOL0     C 3649   7.067   8.772   3.427  0.3785  0.6344  0.3139
   28MOL0     C 3650   7.032   8.758   3.562 -0.5699  0.2820  0.6190
   28MOL0     C 3651   6.905   8.731   3.603  0.1146 -0.2259 -0.5155
   28MOL0     C 3652   6.801   8.735   3.511  0.8460  0.0473  0.6383
   28MOL0     O 3653   6.675   8.717   3.560 -0.0142 -0.3805  0.3586
   28MOL0     C 3654   6.561   8.699   3.482 -0.1781 -0.0996  0.1188
   28MOL0     C 3655   6.438   8.671   3.566  1.0330 -0.4355 -0.0926
   28MOL0     C 3656   6.419   8.775   3.677  0.3456  0.8212  0.8011
   28MOL0     C 3657   6.289   8.726   3.753  0.3158  0.7336  0.7532
   28MOL0     C 3658   6.243   8.823   3.853  0.2602 -0.6639 -0.6241
   28MOL0     C 3659   6.117   8.755   3.891  0.7453  1.3739 -0.1898
   28MOL0     C 3660   6.017   8.845   3.963 -0.2959  0.1504 -0.4280
   28MOL0     C 3661   6.057   8.869   4.113 -0.4195 -0.1888 -0.1222
   28MOL0     N 3662   5.961   8.940   4.191 -0.8059  0.2441 -0.3246
   28MOL0     C 3663   5.871   9.028   4.140  0.2484  0.5198  0.6416
   28MOL0     C 3664   5.797   9.045   4.253  0.4037  0.0160  1.1217
   28MOL0     C 3665   5.675   9.142   4.245 -0.5899  0.7467  0.2810
   28MOL0     C 3666   5.573   9.109   4.361 -0.2717  0.0073 -0.0672
   28MOL0     C 3667   5.465   9.221   4.374 -0.1110  0.0484 -0.0826
   28MOL0     C 3668   5.517   9.367   4.392  0.0963 -0.2638  0.0938
   28MOL0     O 3669   5.481   9.425   4.524  0.7151  0.1278  0.5210
   28MOL0     C 3670   5.344   9.454   4.540  0.1074  0.2732 -0.1414
   28MOL0     C 3671   5.251   9.476   4.433 -0.7267  0.0474  0.0175
   28MOL0     C 3672   5.111   9.476   4.454 -0.1891  0.8015 -0.0548
   28MOL0     C 3673   5.056   9.462   4.579  0.7599  1.8097  0.8132
   28MOL0     C 3674   4.914   9.433   4.584  0.3026  1.0603 -0.4392
   28MOL0     O 3675   4.841   9.398   4.479  0.4799 -0.2682 -0.2058
   28MOL0     C 3676   4.706   9.391   4.498  0.8107  0.0591  0.0579
   28MOL0     C 3677   4.643   9.318   4.602 -0.4284 -0.6293 -0.8612
   28MOL0     C 3678   4.503   9.299   4.605  0.0966  0.2208 -0.7629
   28MOL0     C 3679   4.422   9.363   4.512  0.3265  0.0410 -0.6877
   28MOL0     O 3680   4.288   9.357   4.516 -0.1329  0.4258 -0.7391
   28MOL0     C 3681   4.213   9.386   4.402  0.9210  0.2993 -0.0252
   28MOL0     C 3682   4.071   9.347   4.423 -0.9352 -0.3582 -0.2360
   28MOL0     C 3683   4.047   9.195   4.425  1.2756  0.1193 -0.3714
   28MOL0     C 3684   3.922   9.155   4.500  0.6715 -0.6841 -0.2465
   28MOL0     C 3685   3.939   9.110   4.640  0.3171  0.6627  0.9012
   28MOL0     C 3686   3.806   9.083   4.711 -0.2312  0.3095  0.2072
   28MOL0     C 3687   3.745   8.947   4.672 -0.4659  0.2588 -0.4124
   28MOL0     C 3688   3.619   8.903   4.754  0.2460 -0.3594 -0.1901
   28MOL0    Cl 3689   3.503   9.047   4.732 -0.5493 -0.1433 -0.2953
   28MOL0     C 3690   4.484   9.442   4.421  0.5592 -0.1904  0.7029
   28MOL0     C 3691   4.624   9.450   4.406  0.3611 -0.1948  0.3956
   28MOL0     O 3692   4.882   9.439   4.703  0.7012 -0.2013 -0.2425
   28MOL0     C 3693   5.148   9.455   4.694  0.2434 -0.0264  0.4392
   28MOL0     C 3694   5.286   9.448   4.666  0.6337  0.6423  0.6003
   28MOL0     N 3695   5.836   8.966   4.362  1.1950  0.7796 -0.1469
   28MOL0     N 3696   5.937   8.897   4.326 -0.2480 -0.5018  0.7678
   28MOL0     C 3697   6.836   8.750   3.371 -0.5848  0.0611  0.3595
   28MOL0     C 3698   6.967   8.767   3.335  1.1645  0.7759 -0.5506
   28MOL0     C 3699   7.399   8.803   3.252  0.0938  0.6845 -0.5909
   28MOL0     C 3700   7.458   8.756   3.137  0.2003 -1.4886 -0.7227
   28MOL0     C 3701   7.589   8.802   3.111 -0.1724 -0.5732 -0.3530
   28MOL0     C 3702   7.669   8.877   3.194 -0.2815 -0.7054 -0.0836
   28MOL0     O 3703   7.798   8.903   3.183  0.5394  0.0791 -0.2512
   28MOL0     C 3704   7.855   8.890   3.046 -0.0554 -0.7512  0.5369
   28MOL0     C 3705   7.921   8.758   3.010 -0.2386 -1.2911 -1.1389
   28MOL0     C 3706   7.983   8.692   3.131  0.9440 -0.2505  0.7744
   28MOL0     C 3707   8.056   8.556   3.088 -0.2725  0.0586  0.2272
   28MOL0     C 3708   8.145   8.499   3.189 -0.0275 -0.9013  0.0062
   28MOL0     C 3709   8.210   8.434   3.267  0.2070  0.4093 -0.1373
   28MOL0     C 3710   7.612   8.916   3.319  0.0341 -0.6792 -0.2789
   28MOL0     C 3711   7.480   8.877   3.349  0.2537 -0.5074 -0.4855
   28MOL0     C 3712   7.428   8.932   3.484  0.3642 -0.5479  0.8516
   28MOL0     H 3713   7.111   8.763   3.637 -2.0153  1.8749  2.1516
   28MOL0     H 3714   6.891   8.709   3.708 -0.3177  2.8107  0.1448
   28MOL0     H 3715   6.550   8.782   3.412  1.6646  1.3134  1.3925
   28MOL0     H 3716   6.580   8.610   3.421  1.9596 -0.7704  1.6165
   28MOL0     H 3717   6.440   8.573   3.615  0.7730 -0.1754  0.4499
   28MOL0     H 3718   6.352   8.692   3.502 -0.0488  0.6175  1.6224
   28MOL0     H 3719   6.411   8.876   3.635  1.6606 -0.0550 -1.8032
   28MOL0     H 3720   6.503   8.782   3.747  1.7766  0.6668 -0.8354
   28MOL0     H 3721   6.211   8.702   3.681 -0.0369 -1.8381  1.8977
   28MOL0     H 3722   6.316   8.640   3.815 -0.6577  0.7749  1.2484
   28MOL0     H 3723   6.316   8.836   3.934 -1.2748  2.6445  0.3779
   28MOL0     H 3724   6.229   8.916   3.798 -2.2944 -1.0615 -0.7569
   28MOL0     H 3725   6.066   8.735   3.797  3.7104 -1.5218 -1.3533
   28MOL0     H 3726   6.133   8.667   3.954  0.6216  0.1779 -1.7910
   28MOL0     H 3727   5.919   8.795   3.968 -0.9588  1.4463 -0.0842
   28MOL0     H 3728   5.989   8.928   3.897  3.5375  2.3469  0.4041
   28MOL0     H 3729   6.085   8.772   4.157 -0.8423 -0.3123 -0.1251
   28MOL0     H 3730   6.159   8.909   4.108  1.1379 -3.6553  0.2206
   28MOL0     H 3731   5.863   9.074   4.042  1.1081 -2.2290 -0.8310
   28MOL0     H 3732   5.716   9.243   4.239  0.1153  0.3767 -2.7528
   28MOL0     H 3733   5.631   9.125   4.146  0.9096  0.5424 -0.3891
   28MOL0     H 3734   5.508   9.025   4.335  0.5007 -1.1757  1.6216
   28MOL0     H 3735   5.629   9.100   4.454  1.2963 -0.0566 -0.9753
   28MOL0     H 3736   5.401   9.201   4.461 -0.7335 -0.2401 -0.6003
   28MOL0     H 3737   5.405   9.217   4.283 -1.5766 -0.0210  0.8564
   28MOL0     H 3738   5.482   9.433   4.311  1.1137  1.8435  1.2820
   28MOL0     H 3739   5.626   9.370   4.388  0.0652  0.4350 -3.7036
   28MOL0     H 3740   5.271   9.490   4.327 -1.8678  1.3104 -0.0543
   28MOL0     H 3741   5.053   9.495   4.365 -0.1469 -0.4219 -0.3571
   28MOL0     H 3742   4.711   9.269   4.671  2.9532  1.7190 -2.2671
   28MOL0     H 3743   4.469   9.260   4.700  3.0230  2.1466  1.2698
   28MOL0     H 3744   4.208   9.493   4.378 -0.2081 -0.2575 -2.6228
   28MOL0     H 3745   4.243   9.328   4.314 -1.3392  0.0961 -0.7190
   28MOL0     H 3746   4.028   9.391   4.514  0.9331  0.7440  0.1687
   28MOL0     H 3747   4.030   9.394   4.333  2.5679 -0.3186 -1.9813
   28MOL0     H 3748   4.039   9.146   4.327 -0.0459 -1.7390  0.6145
   28MOL0     H 3749   4.132   9.146   4.473  1.6022 -1.1330 -2.1197
   28MOL0     H 3750   3.868   9.080   4.441 -0.7762 -0.9565  1.3301
   28MOL0     H 3751   3.856   9.242   4.500  3.2344  1.5868  4.0639
   28MOL0     H 3752   3.988   9.189   4.697 -0.2112  2.3106 -0.8381
   28MOL0     H 3753   4.009   9.026   4.634 -1.0428 -0.5137  0.8323
   28MOL0     H 3754   3.825   9.082   4.818  1.8481 -2.4335 -0.0780
   28MOL0     H 3755   3.745   9.173   4.703 -1.3224 -0.5017 -1.1756
   28MOL0     H 3756   3.824   8.871   4.671 -0.6680  0.0286  0.2446
   28MOL0     H 3757   3.715   8.965   4.568  2.3498  4.7704 -0.7238
   28MOL0     H 3758   3.569   8.820   4.703 -0.4266 -0.9292  1.3458
   28MOL0     H 3759   3.640   8.886   4.860  2.0258  4.8056  0.5982
   28MOL0     H 3760   4.421   9.508   4.362 -1.7858 -1.8166  1.2932
   28MOL0     H 3761   4.665   9.505   4.321  1.1490 -2.6105 -0.8751
   28MOL0     H 3762   5.100   9.456   4.792 -3.5671  2.9004 -1.1903
   28MOL0     H 3763   5.363   9.429   4.740 -0.6049 -1.9835  1.3168
   28MOL0     H 3764   6.758   8.753   3.295  0.9268 -2.3001 -1.4262
   28MOL0     H 3765   6.986   8.795   3.232 -0.4212  2.1065 -0.5215
   28MOL0     H 3766   7.412   8.706   3.053 -2.3755  3.9140 -2.9951
   28MOL0     H 3767   7.636   8.769   3.018  0.6677 -1.4402  0.3627
   28MOL0     H 3768   7.934   8.965   3.052 -0.5103 -0.1429 -0.6109
   28MOL0     H 3769   7.794   8.918   2.959 -0.4365  1.5561  1.4817
   28MOL0     H 3770   8.005   8.775   2.942  0.1376 -0.1771 -0.4232
   28MOL0     H 3771   7.858   8.690   2.952 -0.1858 -1.5594 -0.8849
   28MOL0     H 3772   7.905   8.662   3.202 -0.0197 -1.1014 -0.5920
   28MOL0     H 3773   8.052   8.765   3.174 -0.9584  0.7925  2.2708
   28MOL0     H 3774   7.984   8.479   3.057 -0.1216  0.7186 -1.9357
   28MOL0     H 3775   8.110   8.554   2.993 -1.6749 -1.8514 -0.5977
   28MOL0     H 3776   8.273   8.364   3.319 -0.3195 -0.4114 -0.5669
   28MOL0     H 3777   7.666   8.976   3.392  0.1675 -0.3005 -0.6898
   28MOL0     H 3778   7.414   8.859   3.565 -0.6642 -1.3957 -0.0571
   28MOL0     H 3779   7.491   9.017   3.512  1.5266 -0.4949 -1.6280
   28MOL0     H 3780   7.328   8.975   3.471  0.3762 -0.0665  2.1754
   29MOL0     O 3781  10.421   1.092   6.736  0.8403 -0.9788  0.1792
   29MOL0     C 3782  10.500   1.188   6.740  0.5216 -0.4069  0.6314
   29MOL0     O 3783  10.603   1.203   6.831 -0.2061 -0.2965 -0.6899
   29MOL0     C 3784  10.624   1.098   6.915  0.2560  0.4776 -0.3926
   29MOL0     C 3785  10.556   1.099   7.046 -1.0203 -0.3413  0.9246
   29MOL0     C 3786  10.575   1.002   7.139 -0.1813  0.4332  0.1542
   29MOL0     C 3787  10.653   0.888   7.109 -0.3089 -0.5293 -0.6950
   29MOL0     O 3788  10.659   0.801   7.212  0.2698 -0.0854  0.4058
   29MOL0     C 3789  10.762   0.703   7.214 -0.1529  0.6422  0.7320
   29MOL0     C 3790  10.762   0.618   7.337 -0.3506 -1.2992 -0.5763
   29MOL0     C 3791  10.706   0.485   7.314  0.2386  0.2201 -0.1379
   29MOL0     C 3792  10.720   0.410   7.436 -0.6744 -0.4009 -0.1576
   29MOL0     C 3793  10.642   0.275   7.424  0.4395  0.0766  0.8491
   29MOL0     C 3794  10.698   0.174   7.519  0.5034  0.2559 -0.1232
   29MOL0     C 3795  10.694   0.206   7.669  0.9931 -0.2044  1.1006
   29MOL0     C 3796  10.824   0.154   7.754  0.9587 -0.3682 -0.2375
   29MOL0     N 3797  10.862   0.011   7.726 -0.6762 -0.0487 -0.2750
   29MOL0     C 3798  10.791  -0.104   7.750  0.7102 -0.4100  0.1425
   29MOL0     C 3799  10.873  -0.206   7.720 -0.3265  0.4675 -0.0379
   29MOL0     C 3800  10.835  -0.347   7.773  0.0215 -0.0764  0.8350
   29MOL0     C 3801  10.835  -0.375   7.921 -0.0383 -1.4729 -0.5108
   29MOL0     C 3802  10.981  -0.364   7.976 -0.0748  0.4449 -0.7584
   29MOL0     C 3803  10.993  -0.401   8.124  0.3127 -0.0676 -0.6050
   29MOL0     O 3804  11.130  -0.399   8.169 -0.8948 -0.0964 -0.2055
   29MOL0     C 3805  11.160  -0.471   8.281  0.6496 -0.4199  0.8056
   29MOL0     C 3806  11.285  -0.430   8.332 -0.1479  0.7095 -0.5643
   29MOL0     C 3807  11.337  -0.497   8.443  0.4235 -0.0924  0.0675
   29MOL0     C 3808  11.276  -0.601   8.500  0.5109 -0.2771  0.5622
   29MOL0     C 3809  11.350  -0.667   8.610  0.2546 -1.2376  0.7688
   29MOL0     O 3810  11.485  -0.652   8.602  0.2458  0.6060 -0.0124
   29MOL0     C 3811  11.545  -0.713   8.706 -0.5931  0.4780  0.1353
   29MOL0     C 3812  11.626  -0.824   8.685 -0.5542 -0.2022 -0.1074
   29MOL0     C 3813  11.714  -0.876   8.778 -0.0217 -0.2530 -0.5340
   29MOL0     C 3814  11.721  -0.816   8.907 -1.2551  0.9769 -0.1007
   29MOL0     O 3815  11.803  -0.870   9.005 -0.0728  0.2863 -0.2379
   29MOL0     C 3816  11.811  -0.794   9.126 -1.1774  0.4180  0.8852
   29MOL0     C 3817  11.912  -0.675   9.109 -0.4749  0.0725  0.8686
   29MOL0     C 3818  12.062  -0.716   9.103 -0.1674  0.8355 -0.5938
   29MOL0     C 3819  12.104  -0.802   8.981 -0.3426  0.3690  0.5029
   29MOL0     C 3820  12.261  -0.809   8.996  0.6921  0.6312  0.7257
   29MOL0     C 3821  12.324  -0.853   8.863  0.1461  0.8859  0.5585
   29MOL0     C 3822  12.478  -0.819   8.851  0.7652  0.2416  0.3582
   29MOL0     C 3823  12.547  -0.898   8.743 -0.8614  0.1139  1.1974
   29MOL0    Cl 3824  12.584  -1.065   8.803  0.1491  0.4329 -0.3118
   29MOL0     C 3825  11.639  -0.706   8.924 -0.2008 -1.0800 -0.5417
   29MOL0     C 3826  11.561  -0.652   8.825  0.2480 -0.7532  0.6431
   29MOL0     O 3827  11.292  -0.747   8.678 -0.8280 -0.0461  0.5270
   29MOL0     C 3828  11.145  -0.629   8.469 -0.0380  0.5071  0.4780
   29MOL0     C 3829  11.089  -0.563   8.360 -0.0160 -0.5583  0.2745
   29MOL0     N 3830  10.989  -0.151   7.663  0.5750  0.5304  0.2295
   29MOL0     N 3831  10.975  -0.027   7.667 -0.1068 -0.5150 -0.8280
   29MOL0     C 3832  10.733   0.890   6.994  0.1021 -1.0559  0.2976
   29MOL0     C 3833  10.716   0.992   6.894 -0.4038  1.0389  0.0235
   29MOL0     C 3834  10.494   1.291   6.623  1.0511 -0.5262 -0.0825
   29MOL0     C 3835  10.462   1.243   6.499 -0.1061  0.1318 -0.2321
   29MOL0     C 3836  10.470   1.318   6.384 -0.6307  0.4398  0.0838
   29MOL0     C 3837  10.534   1.441   6.390 -0.6387 -0.1015  0.0305
   29MOL0     O 3838  10.564   1.505   6.268 -0.0179  0.6036  0.7518
   29MOL0     C 3839  10.609   1.645   6.274 -0.2719  0.2746 -0.7392
   29MOL0     C 3840  10.758   1.637   6.274 -1.0976 -0.9244  0.3289
   29MOL0     C 3841  10.826   1.770   6.265 -0.9607 -0.5236 -0.5633
   29MOL0     C 3842  10.822   1.865   6.393 -0.1016  0.5930 -0.7070
   29MOL0     C 3843  10.925   1.973   6.383  1.1250 -0.3924  0.2699
   29MOL0     C 3844  11.005   2.065   6.372  0.3719  0.0570  0.1379
   29MOL0     C 3845  10.582   1.499   6.519  1.1618 -0.5893  1.0579
   29MOL0     C 3846  10.545   1.430   6.633  0.9690  0.1530  0.2746
   29MOL0     C 3847  10.581   1.493   6.768  0.3048  0.0152  0.3402
   29MOL0     H 3848  10.488   1.181   7.068 -1.3345 -0.7675  1.5569
   29MOL0     H 3849  10.532   1.005   7.239 -0.7127 -1.0282 -0.0109
   29MOL0     H 3850  10.731   0.630   7.138  0.4562  0.7253  0.3981
   29MOL0     H 3851  10.859   0.748   7.190  0.2048 -0.6852 -0.4555
   29MOL0     H 3852  10.700   0.670   7.411  1.2841 -0.8181  0.5042
   29MOL0     H 3853  10.868   0.606   7.363 -0.1371  1.1778 -0.0289
   29MOL0     H 3854  10.771   0.435   7.242  1.8331  0.6260  0.9693
   29MOL0     H 3855  10.601   0.493   7.281  0.1561 -3.2178 -1.0903
   29MOL0     H 3856  10.824   0.387   7.459 -0.5479  1.3120  1.2549
   29MOL0     H 3857  10.670   0.467   7.516  1.5970 -2.6261  3.1104
   29MOL0     H 3858  10.534   0.280   7.434  0.3888  0.3663  0.2064
   29MOL0     H 3859  10.664   0.247   7.321  0.8129 -2.1937  1.4880
   29MOL0     H 3860  10.662   0.071   7.512  0.0150  0.4929 -1.3417
   29MOL0     H 3861  10.803   0.173   7.489  0.8052 -1.9521  0.8310
   29MOL0     H 3862  10.607   0.155   7.711 -1.8897  0.5306 -3.2138
   29MOL0     H 3863  10.685   0.315   7.677  3.9299  0.1699  0.6248
   29MOL0     H 3864  10.904   0.221   7.723 -1.3169  1.5669 -2.4179
   29MOL0     H 3865  10.809   0.159   7.862  0.8235 -3.7375 -0.0009
   29MOL0     H 3866  10.702  -0.093   7.811  2.0514  0.3455  2.0869
   29MOL0     H 3867  10.731  -0.358   7.739  0.1019  1.2752  0.0853
   29MOL0     H 3868  10.907  -0.418   7.730  0.7557  0.7216  0.7210
   29MOL0     H 3869  10.772  -0.304   7.976 -2.6661 -3.0048 -1.4293
   29MOL0     H 3870  10.798  -0.477   7.932 -1.7050 -0.8536 -0.0372
   29MOL0     H 3871  11.014  -0.261   7.959 -0.8101  0.7333 -0.4617
   29MOL0     H 3872  11.049  -0.430   7.922 -0.8838 -0.2255 -0.9865
   29MOL0     H 3873  10.941  -0.497   8.135  0.3914 -0.2402 -1.6557
   29MOL0     H 3874  10.945  -0.323   8.184 -1.1156 -1.7422  0.5397
   29MOL0     H 3875  11.337  -0.344   8.291 -1.6150  2.3229  0.7658
   29MOL0     H 3876  11.434  -0.460   8.473  1.3763 -1.2577 -1.3893
   29MOL0     H 3877  11.617  -0.871   8.588  1.7243  2.3076 -1.6682
   29MOL0     H 3878  11.773  -0.966   8.761  0.0683 -0.1866 -0.5706
   29MOL0     H 3879  11.718  -0.762   9.176 -2.6407 -0.0760 -1.3880
   29MOL0     H 3880  11.863  -0.862   9.194 -0.9379  0.0468  0.3319
   29MOL0     H 3881  11.878  -0.611   9.028 -1.0597  1.0103  1.8427
   29MOL0     H 3882  11.902  -0.606   9.193  0.3270  2.0543 -0.6051
   29MOL0     H 3883  12.119  -0.622   9.102  0.8118  0.2652 -0.2353
   29MOL0     H 3884  12.089  -0.761   9.199  1.7437 -0.3341 -1.6148
   29MOL0     H 3885  12.081  -0.743   8.892  3.7831  0.5881 -0.6214
   29MOL0     H 3886  12.061  -0.903   8.986 -0.7357  0.5524  0.8732
   29MOL0     H 3887  12.294  -0.872   9.078  0.5418  1.5922  1.5443
   29MOL0     H 3888  12.297  -0.707   9.013 -1.6739  1.1671  3.1673
   29MOL0     H 3889  12.296  -0.958   8.850 -2.9685  1.1649  3.7716
   29MOL0     H 3890  12.281  -0.791   8.783  0.1939 -0.2425 -0.3812
   29MOL0     H 3891  12.521  -0.840   8.950 -0.5938  0.5286  1.0274
   29MOL0     H 3892  12.475  -0.712   8.831 -2.5323  0.0994 -0.5234
   29MOL0     H 3893  12.482  -0.898   8.655 -0.4497  0.9410  0.8821
   29MOL0     H 3894  12.644  -0.857   8.712 -1.3668  2.9589  3.0896
   29MOL0     H 3895  11.631  -0.654   9.019 -1.1485  1.5335 -1.9177
   29MOL0     H 3896  11.493  -0.570   8.844 -0.4160 -1.1778  0.1471
   29MOL0     H 3897  11.090  -0.702   8.526  0.1004 -0.6038 -0.7775
   29MOL0     H 3898  10.982  -0.569   8.346 -0.0445 -0.5012  0.4601
   29MOL0     H 3899  10.817   0.822   6.982  0.2865 -1.0540  1.4715
   29MOL0     H 3900  10.773   0.998   6.802  1.1252  3.3013  0.9932
   29MOL0     H 3901  10.420   1.143   6.500 -1.0265  0.2778 -4.8877
   29MOL0     H 3902  10.441   1.262   6.295 -0.3309 -2.7656  1.8401
   29MOL0     H 3903  10.575   1.700   6.362  2.3922  1.1511 -0.1765
   29MOL0     H 3904  10.559   1.695   6.191 -1.1716  1.1982  0.3291
   29MOL0     H 3905  10.786   1.586   6.182 -1.2443  2.4613 -1.7302
   29MOL0     H 3906  10.785   1.571   6.358 -4.5650 -1.8270  0.8868
   29MOL0     H 3907  10.780   1.819   6.179  1.5718  0.5359 -1.4097
   29MOL0     H 3908  10.931   1.757   6.236 -0.7365 -0.9240  0.3941
   29MOL0     H 3909  10.730   1.924   6.402  1.7355  3.5448  0.0422
   29MOL0     H 3910  10.845   1.803   6.480 -0.8017 -0.7647 -1.4625
   29MOL0     H 3911  11.082   2.138   6.354  1.1291 -0.0325  2.6716
   29MOL0     H 3912  10.625   1.599   6.527  1.3986 -0.4425 -1.2355
   29MOL0     H 3913  10.679   1.461   6.803  2.7017  3.5056 -2.4214
   29MOL0     H 3914  10.596   1.600   6.755  2.4024 -0.5171 -2.7412
   29MOL0     H 3915  10.506   1.475   6.846 -0.8458 -4.5935 -1.4509
   30MOL0     O 3916   3.347   4.360   1.113  0.4306 -0.2603  0.5059
   30MOL0     C 3917   3.306   4.478   1.124  0.4182 -0.3598 -0.6246
   30MOL0     O 3918   3.200   4.527   1.200 -0.2340 -0.0978  0.1508
   30MOL0     C 3919   3.123   4.432   1.257  0.7960  0.9415 -0.3478
   30MOL0     C 3920   3.119   4.399   1.392 -0.2045  0.1738 -0.5082
   30MOL0     C 3921   3.027   4.313   1.450 -0.5783  0.7572  0.1918
   30MOL0     C 3922   2.940   4.253   1.361  0.7786  0.3740 -0.3197
   30MOL0     O 3923   2.844   4.174   1.426  0.2961 -0.8832 -0.2609
   30MOL0     C 3924   2.729   4.123   1.362  0.0796  0.0207  0.3447
   30MOL0     C 3925   2.627   4.094   1.476  0.4206  0.9632  0.5306
   30MOL0     C 3926   2.523   3.976   1.435 -0.1821  0.4357 -0.2466
   30MOL0     C 3927   2.604   3.838   1.420 -0.4809 -0.5931 -1.0204
   30MOL0     C 3928   2.509   3.723   1.423 -0.0817  0.1233 -0.7749
   30MOL0     C 3929   2.402   3.699   1.305 -0.2310 -0.5102 -0.0369
   30MOL0     C 3930   2.454   3.681   1.172  0.7569  0.3434  0.2991
   30MOL0     C 3931   2.503   3.544   1.141  0.8014  0.7026  0.1582
   30MOL0     N 3932   2.499   3.518   0.999 -1.2078 -0.6356  0.1061
   30MOL0     C 3933   2.392   3.471   0.920  1.1015 -1.0875  0.0852
   30MOL0     C 3934   2.443   3.441   0.799 -0.0306  0.1690  0.6152
   30MOL0     C 3935   2.358   3.385   0.684  0.1900  0.2262 -0.5373
   30MOL0     C 3936   2.378   3.238   0.655 -0.2998 -0.8597 -0.6714
   30MOL0     C 3937   2.349   3.147   0.776  0.3162  0.0005  0.9269
   30MOL0     C 3938   2.276   3.020   0.744  0.2634 -0.2506  0.5439
   30MOL0     O 3939   2.244   2.950   0.859  0.2756  0.3735  0.2326
   30MOL0     C 3940   2.136   2.857   0.851  0.1125  0.6868 -0.3900
   30MOL0     C 3941   2.076   2.826   0.968  0.1057  0.6429 -0.1636
   30MOL0     C 3942   1.979   2.732   0.979  0.2629  0.6296 -0.2593
   30MOL0     C 3943   1.935   2.666   0.862  0.1692 -0.3516 -0.2195
   30MOL0     C 3944   1.823   2.570   0.879 -0.2621  0.0360  0.8351
   30MOL0     O 3945   1.749   2.553   0.999 -0.0669 -0.2403  0.0917
   30MOL0     C 3946   1.609   2.521   0.975 -0.9616  0.1380 -0.6746
   30MOL0     C 3947   1.536   2.601   0.888  0.0327 -0.3582  0.4349
   30MOL0     C 3948   1.390   2.586   0.879  0.1903 -0.9492 -0.4040
   30MOL0     C 3949   1.324   2.499   0.972  0.7925  0.4289 -0.3000
   30MOL0     O 3950   1.196   2.449   0.966  0.0439 -0.2474  0.1092
   30MOL0     C 3951   1.108   2.528   0.880  0.2906  0.5494  0.0583
   30MOL0     C 3952   0.955   2.503   0.898 -0.3248  0.0343  0.4422
   30MOL0     C 3953   0.906   2.606   1.009  0.5447 -0.2812  0.2692
   30MOL0     C 3954   0.771   2.576   1.087 -0.4877  0.2406  0.7893
   30MOL0     C 3955   0.655   2.544   0.999 -0.1341  0.5043  0.7297
   30MOL0     C 3956   0.610   2.677   0.951  0.0884  0.5217 -0.3010
   30MOL0     C 3957   0.494   2.670   0.851  0.1200  0.3593 -0.7548
   30MOL0     C 3958   0.358   2.723   0.909 -0.5636  1.2184 -0.4396
   30MOL0    Cl 3959   0.298   2.623   1.050  0.1864 -0.0791 -0.3910
   30MOL0     C 3960   1.401   2.425   1.058 -0.0872  0.2524  0.1479
   30MOL0     C 3961   1.547   2.435   1.069  0.3320 -0.2672  0.8522
   30MOL0     O 3962   1.805   2.501   0.775  0.1092  0.1330 -0.5483
   30MOL0     C 3963   1.989   2.697   0.737 -0.5478  0.3042  1.1148
   30MOL0     C 3964   2.093   2.794   0.732  0.2886  0.6764  0.2044
   30MOL0     N 3965   2.581   3.474   0.803 -0.2997  0.2079  0.6117
   30MOL0     N 3966   2.611   3.521   0.916 -0.8649 -0.3833 -1.3799
   30MOL0     C 3967   2.933   4.288   1.224 -1.0304  0.4613 -0.0119
   30MOL0     C 3968   3.028   4.368   1.169 -0.2686 -0.3588 -1.0532
   30MOL0     C 3969   3.372   4.579   1.049  0.8089 -0.1980 -0.2280
   30MOL0     C 3970   3.424   4.677   1.119  0.7492 -0.2198  0.7590
   30MOL0     C 3971   3.486   4.781   1.052  0.8666 -0.2037  0.1285
   30MOL0     C 3972   3.482   4.791   0.910 -0.4629  0.1284 -0.2852
   30MOL0     O 3973   3.526   4.897   0.830 -0.6870 -0.1741 -0.1553
   30MOL0     C 3974   3.530   5.028   0.892 -0.5323 -0.3135 -0.3355
   30MOL0     C 3975   3.480   5.126   0.783  0.1237  0.5402  0.6202
   30MOL0     C 3976   3.567   5.111   0.658  0.7091  0.1406 -0.1301
   30MOL0     C 3977   3.551   5.239   0.571 -0.3318  0.1473  0.1434
   30MOL0     C 3978   3.665   5.252   0.489  1.2304 -0.3609  0.8690
   30MOL0     C 3979   3.754   5.259   0.404 -0.4009  0.3896 -0.0891
   30MOL0     C 3980   3.425   4.693   0.840  0.4534  0.2356  0.4527
   30MOL0     C 3981   3.369   4.578   0.909 -0.3550 -0.4978 -0.7456
   30MOL0     C 3982   3.303   4.477   0.821 -0.1157 -0.0351  0.0233
   30MOL0     H 3983   3.182   4.447   1.465 -2.0319  0.2374  1.1177
   30MOL0     H 3984   3.021   4.292   1.556 -1.5949  0.0132  0.0089
   30MOL0     H 3985   2.683   4.181   1.281  0.4550 -1.6925 -1.1597
   30MOL0     H 3986   2.769   4.032   1.317  0.4999 -1.1748  2.9569
   30MOL0     H 3987   2.568   4.184   1.496  0.0954  1.3355 -1.7249
   30MOL0     H 3988   2.683   4.055   1.561 -0.2912  2.0098  1.5042
   30MOL0     H 3989   2.478   4.009   1.341 -1.1239  0.2413  0.1222
   30MOL0     H 3990   2.442   3.973   1.509 -1.1655  4.7007 -0.8745
   30MOL0     H 3991   2.660   3.823   1.327  1.8565 -0.3453  0.2733
   30MOL0     H 3992   2.687   3.831   1.491 -0.1958 -2.3182 -1.4727
   30MOL0     H 3993   2.575   3.636   1.420 -2.1997 -1.6048 -0.0540
   30MOL0     H 3994   2.461   3.722   1.522  1.1907 -1.8413 -0.1219
   30MOL0     H 3995   2.342   3.613   1.335  0.3593 -0.2937  1.9627
   30MOL0     H 3996   2.352   3.796   1.291  4.1656  2.1213  0.5009
   30MOL0     H 3997   2.534   3.750   1.142 -0.0967 -0.4771 -4.5706
   30MOL0     H 3998   2.378   3.701   1.096  2.2385  0.3620 -1.2462
   30MOL0     H 3999   2.607   3.535   1.175  1.3122 -2.4457 -1.8599
   30MOL0     H 4000   2.444   3.464   1.187  0.8629  1.5919  1.8550
   30MOL0     H 4001   2.287   3.462   0.946  1.0950 -2.7241 -0.3852
   30MOL0     H 4002   2.258   3.390   0.729  0.2772 -2.4724  0.1138
   30MOL0     H 4003   2.357   3.454   0.599 -1.2971 -0.2007 -0.8892
   30MOL0     H 4004   2.300   3.224   0.580 -1.7703 -1.4023  0.8880
   30MOL0     H 4005   2.479   3.225   0.617  0.8147  1.6445  1.0954
   30MOL0     H 4006   2.296   3.205   0.853  1.3926  2.9575 -0.3860
   30MOL0     H 4007   2.444   3.105   0.810 -0.1043 -4.0738 -2.2795
   30MOL0     H 4008   2.341   2.963   0.676  0.7360 -0.5834  1.2635
   30MOL0     H 4009   2.188   3.045   0.684  2.2454  1.7284 -1.7734
   30MOL0     H 4010   2.115   2.883   1.052 -0.5428  1.6157 -0.5066
   30MOL0     H 4011   1.931   2.708   1.073  0.4226  0.9627 -0.0909
   30MOL0     H 4012   1.583   2.680   0.829  0.3037  0.8607  2.2133
   30MOL0     H 4013   1.341   2.637   0.796  0.5435 -1.3391 -0.8584
   30MOL0     H 4014   1.135   2.632   0.900 -1.7162  0.9896  0.6671
   30MOL0     H 4015   1.129   2.506   0.775  3.4425 -0.4249  0.7606
   30MOL0     H 4016   0.895   2.525   0.809 -0.4589  1.1592  0.8051
   30MOL0     H 4017   0.942   2.399   0.931  0.1350  0.6896  2.8404
   30MOL0     H 4018   0.991   2.615   1.077  1.8419  0.2125 -1.3400
   30MOL0     H 4019   0.890   2.701   0.957  0.8230 -0.5606 -0.3396
   30MOL0     H 4020   0.754   2.665   1.149 -0.0095  1.9881 -1.4555
   30MOL0     H 4021   0.799   2.493   1.152  2.1953  1.9017  1.9354
   30MOL0     H 4022   0.567   2.505   1.050  1.3500 -1.7606  1.7066
   30MOL0     H 4023   0.674   2.465   0.925 -1.2492  0.1232  0.8245
   30MOL0     H 4024   0.594   2.749   1.032 -1.2317 -0.0404 -0.0263
   30MOL0     H 4025   0.691   2.712   0.887 -0.3282  1.1413 -0.4982
   30MOL0     H 4026   0.495   2.575   0.798  2.6783  1.0775 -2.1315
   30MOL0     H 4027   0.526   2.741   0.775  3.3358 -0.9824 -0.7978
   30MOL0     H 4028   0.354   2.826   0.943 -1.8612  0.5219  1.7403
   30MOL0     H 4029   0.279   2.720   0.833 -1.8772 -2.6330  0.8060
   30MOL0     H 4030   1.348   2.346   1.111 -4.7492  0.7065 -3.1625
   30MOL0     H 4031   1.614   2.384   1.137  0.9227 -0.2027  0.3308
   30MOL0     H 4032   1.960   2.654   0.642  2.4411  2.4045 -0.9118
   30MOL0     H 4033   2.145   2.827   0.643 -1.7253  5.4501  0.4699
   30MOL0     H 4034   2.867   4.242   1.151 -0.6834 -2.3530  1.3348
   30MOL0     H 4035   3.030   4.388   1.062  2.2606  0.2301 -0.9638
   30MOL0     H 4036   3.416   4.671   1.227 -1.0178  3.5493  1.0172
   30MOL0     H 4037   3.530   4.861   1.111 -1.2097  1.7148 -0.7176
   30MOL0     H 4038   3.629   5.065   0.922 -2.2151  3.9889  0.6750
   30MOL0     H 4039   3.464   5.031   0.979  0.7769  1.2891  0.6859
   30MOL0     H 4040   3.489   5.227   0.824  4.5564  0.9063 -0.7323
   30MOL0     H 4041   3.376   5.098   0.761  0.9740 -3.2721  0.7664
   30MOL0     H 4042   3.549   5.021   0.600  2.9644  1.5170 -3.2645
   30MOL0     H 4043   3.669   5.096   0.692  0.2843 -4.1957 -0.2245
   30MOL0     H 4044   3.464   5.224   0.506  0.9919  0.3974 -1.7512
   30MOL0     H 4045   3.541   5.329   0.633 -0.1808  0.5883 -0.4689
   30MOL0     H 4046   3.837   5.269   0.337  0.3232 -3.2208  0.0799
   30MOL0     H 4047   3.423   4.698   0.732  1.4871  1.6121  0.4684
   30MOL0     H 4048   3.326   4.373   0.845 -0.6631 -0.2930 -0.5469
   30MOL0     H 4049   3.195   4.492   0.814  0.0262  0.2731 -3.1228
   30MOL0     H 4050   3.331   4.475   0.715 -1.3922 -0.9237 -0.3159
   31MOL0     O 4051   4.098   4.157   6.535 -0.2129 -1.0833 -0.0661
   31MOL0     C 4052   4.007   4.220   6.471 -0.0783  0.4129  0.3823
   31MOL0     O 4053   3.887   4.165   6.435 -0.1100 -0.1162  0.1913
   31MOL0     C 4054   3.877   4.037   6.463 -0.0668  1.5396  0.5119
   31MOL0     C 4055   3.931   3.944   6.378  0.0610 -0.0197 -0.5848
   31MOL0     C 4056   3.936   3.808   6.408  0.2829 -0.1114  0.1743
   31MOL0     C 4057   3.880   3.754   6.519 -0.5571 -0.1074  0.2845
   31MOL0     O 4058   3.908   3.623   6.554 -0.5036  0.8267 -0.4863
   31MOL0     C 4059   3.875   3.569   6.678  0.5001  0.8723 -0.2673
   31MOL0     C 4060   3.948   3.620   6.801  0.4107  0.2152  0.1511
   31MOL0     C 4061   4.094   3.567   6.813 -0.9756 -0.2781  0.1660
   31MOL0     C 4062   4.130   3.565   6.965 -0.4169  0.6621 -0.1759
   31MOL0     C 4063   4.246   3.477   7.005 -0.2646 -0.4181  0.1085
   31MOL0     C 4064   4.372   3.509   6.916  0.0719 -0.8174  0.6015
   31MOL0     C 4065   4.500   3.483   6.983 -0.2934  0.9049  0.7116
   31MOL0     C 4066   4.526   3.337   6.994  0.5635  0.1734 -0.3620
   31MOL0     N 4067   4.670   3.310   7.024  0.4975 -0.1690  0.4566
   31MOL0     C 4068   4.740   3.339   7.130 -0.3048  0.2823  0.3426
   31MOL0     C 4069   4.868   3.306   7.097 -0.7061  0.4799 -0.8056
   31MOL0     C 4070   4.990   3.319   7.184 -0.2274  0.3217 -0.5266
   31MOL0     C 4071   4.990   3.456   7.260 -0.1084 -0.1901  0.2317
   31MOL0     C 4072   5.122   3.491   7.330  0.0006  0.1394  0.6396
   31MOL0     C 4073   5.237   3.518   7.243  0.1927 -0.1625 -1.0623
   31MOL0     O 4074   5.219   3.621   7.152  0.1181 -0.0409 -0.3503
   31MOL0     C 4075   5.322   3.652   7.060  0.5064  0.5198 -0.3203
   31MOL0     C 4076   5.276   3.734   6.956  0.2965  0.0821 -0.2280
   31MOL0     C 4077   5.348   3.761   6.843  0.5098 -0.2017 -1.2094
   31MOL0     C 4078   5.490   3.730   6.849 -0.6765 -0.2609  0.6922
   31MOL0     C 4079   5.579   3.780   6.743  0.3938  0.3920  0.1624
   31MOL0     O 4080   5.553   3.900   6.686 -0.3578 -0.1074 -0.0265
   31MOL0     C 4081   5.630   3.952   6.591 -1.1734 -0.1935 -0.2085
   31MOL0     C 4082   5.767   3.937   6.568 -0.3249  0.7492  0.2138
   31MOL0     C 4083   5.827   4.002   6.457  0.0765 -0.7535 -0.5845
   31MOL0     C 4084   5.755   4.096   6.379 -0.5228 -0.2652  0.2987
   31MOL0     O 4085   5.809   4.182   6.279  0.2429 -0.3461  1.0003
   31MOL0     C 4086   5.911   4.119   6.197 -0.3740 -0.6721 -0.9052
   31MOL0     C 4087   5.849   4.040   6.079  0.1653 -1.4322 -0.0171
   31MOL0     C 4088   5.951   3.948   6.023 -0.8269  0.3895  0.2139
   31MOL0     C 4089   5.892   3.870   5.904 -0.6815 -0.6813  0.1151
   31MOL0     C 4090   5.983   3.768   5.851 -0.4550 -0.5910  0.3345
   31MOL0     C 4091   5.925   3.685   5.745 -0.3283  0.3594 -0.3976
   31MOL0     C 4092   5.966   3.751   5.612 -0.2246 -0.9733 -0.6350
   31MOL0     C 4093   5.870   3.714   5.504 -0.0269  0.1805  0.9046
   31MOL0    Cl 4094   5.941   3.749   5.341  0.0150 -0.9217 -0.1567
   31MOL0     C 4095   5.622   4.118   6.411 -0.6451  0.9347 -0.0033
   31MOL0     C 4096   5.558   4.042   6.512  1.0236  0.0266 -0.6833
   31MOL0     O 4097   5.659   3.704   6.701 -0.1566  0.2037  0.4658
   31MOL0     C 4098   5.540   3.655   6.954 -0.1313  0.3589  0.0096
   31MOL0     C 4099   5.455   3.610   7.054 -0.3734  0.2168  0.2209
   31MOL0     N 4100   4.872   3.235   6.978 -0.4019  0.0898  0.5856
   31MOL0     N 4101   4.751   3.253   6.930 -0.8426  0.7751  0.0478
   31MOL0     C 4102   3.813   3.844   6.590  0.0615 -0.8605 -0.8951
   31MOL0     C 4103   3.808   3.984   6.565  0.2293  0.4972  0.0912
   31MOL0     C 4104   4.026   4.365   6.450  0.5921  0.3566  0.5285
   31MOL0     C 4105   3.910   4.441   6.431  0.4404  0.3944 -0.0193
   31MOL0     C 4106   3.917   4.569   6.383 -0.3618 -0.3936  1.0717
   31MOL0     C 4107   4.033   4.646   6.365  1.2777 -0.2011 -0.5184
   31MOL0     O 4108   4.012   4.772   6.315 -0.6848 -0.3531 -0.8419
   31MOL0     C 4109   4.105   4.824   6.215 -0.4903 -0.2712 -0.0544
   31MOL0     C 4110   4.071   4.969   6.167 -0.3415  0.2551  1.1563
   31MOL0     C 4111   4.069   5.061   6.291  0.0073 -0.3645 -0.4432
   31MOL0     C 4112   4.048   5.202   6.254  0.7032  0.6589  0.0754
   31MOL0     C 4113   4.167   5.273   6.203  0.9139  0.0988 -0.4202
   31MOL0     C 4114   4.261   5.332   6.157  0.4867 -0.2192  0.2684
   31MOL0     C 4115   4.153   4.570   6.381 -1.4212  0.7009 -0.0424
   31MOL0     C 4116   4.152   4.430   6.425 -0.6915  0.5141 -0.0332
   31MOL0     C 4117   4.278   4.349   6.408  0.0198  0.4633  0.1993
   31MOL0     H 4118   3.984   3.966   6.286  0.3768  1.2133 -0.1352
   31MOL0     H 4119   3.988   3.733   6.349 -0.1788  0.4190 -0.9118
   31MOL0     H 4120   3.770   3.597   6.692  0.3919  0.4163 -0.1651
   31MOL0     H 4121   3.891   3.462   6.666 -1.6890  0.6814 -2.2375
   31MOL0     H 4122   3.889   3.576   6.882 -0.2996 -2.3015 -1.6242
   31MOL0     H 4123   3.948   3.730   6.800  1.4979  0.2219 -0.2610
   31MOL0     H 4124   4.166   3.617   6.748 -1.9897 -1.9334 -2.3751
   31MOL0     H 4125   4.106   3.468   6.767 -1.6681 -0.6895  0.8511
   31MOL0     H 4126   4.142   3.672   6.988 -1.9334  1.3119 -2.1699
   31MOL0     H 4127   4.040   3.534   7.019 -0.0602  1.6699  1.0616
   31MOL0     H 4128   4.263   3.492   7.112 -1.8685  1.5644  0.1408
   31MOL0     H 4129   4.211   3.374   6.995  1.5292 -1.3442  2.3353
   31MOL0     H 4130   4.366   3.462   6.817  2.7503  0.6641 -0.3645
   31MOL0     H 4131   4.368   3.618   6.909 -0.6528 -0.8632  0.1842
   31MOL0     H 4132   4.493   3.518   7.087  2.0211  0.2014  1.1530
   31MOL0     H 4133   4.572   3.533   6.919 -1.8109  2.3308  0.0424
   31MOL0     H 4134   4.461   3.302   7.074  0.2532 -1.3690 -1.2544
   31MOL0     H 4135   4.506   3.289   6.897  0.7800  2.1076 -1.4271
   31MOL0     H 4136   4.702   3.379   7.223  1.4388  0.0394  1.2061
   31MOL0     H 4137   4.973   3.245   7.262 -1.1572 -0.5461 -1.5074
   31MOL0     H 4138   5.083   3.295   7.132  0.3791  0.6307  0.3931
   31MOL0     H 4139   4.970   3.537   7.189  0.5628 -0.3731 -0.1753
   31MOL0     H 4140   4.904   3.453   7.327  0.2985 -2.0351  0.7153
   31MOL0     H 4141   5.151   3.423   7.410 -0.6671 -1.9601 -0.8133
   31MOL0     H 4142   5.100   3.586   7.380  1.0373  1.1798 -0.8062
   31MOL0     H 4143   5.270   3.429   7.189 -1.8759 -1.8896  0.3468
   31MOL0     H 4144   5.314   3.560   7.307  0.2498 -2.0448  0.1571
   31MOL0     H 4145   5.172   3.762   6.970 -1.7750 -5.3655 -2.2323
   31MOL0     H 4146   5.290   3.802   6.761  0.8969  2.4365 -0.2522
   31MOL0     H 4147   5.836   3.872   6.621  1.4038  3.1698  1.1135
   31MOL0     H 4148   5.929   3.966   6.459  0.1688 -0.4880 -0.3310
   31MOL0     H 4149   5.971   4.195   6.147 -0.1653 -2.4267 -3.5056
   31MOL0     H 4150   5.980   4.057   6.256  1.2173  0.1150 -1.8822
   31MOL0     H 4151   5.755   3.998   6.118 -1.5898  3.2999  1.5355
   31MOL0     H 4152   5.822   4.123   6.013  1.5263 -1.1934 -0.3004
   31MOL0     H 4153   6.037   4.004   5.985  0.4831 -1.4431  0.3179
   31MOL0     H 4154   5.991   3.874   6.093 -1.4488 -1.7712 -1.5993
   31MOL0     H 4155   5.845   3.946   5.841  1.0423  2.1762  2.0460
   31MOL0     H 4156   5.807   3.818   5.949 -0.8964 -0.5415 -0.1287
   31MOL0     H 4157   6.002   3.708   5.941  0.0459 -0.4835  0.3029
   31MOL0     H 4158   6.078   3.811   5.818 -1.4794  0.2276 -1.7395
   31MOL0     H 4159   5.958   3.584   5.769  1.7357  1.0393 -0.1967
   31MOL0     H 4160   5.817   3.687   5.764  0.0917 -0.1105  2.3345
   31MOL0     H 4161   6.066   3.716   5.586  0.1806 -2.1151  2.1305
   31MOL0     H 4162   5.974   3.860   5.623  2.8564 -1.3301  2.3217
   31MOL0     H 4163   5.832   3.611   5.512  1.8745 -0.8527 -1.8381
   31MOL0     H 4164   5.782   3.778   5.507  0.0289  0.2995  0.2191
   31MOL0     H 4165   5.579   4.195   6.348  3.4483  2.2389 -1.5903
   31MOL0     H 4166   5.454   4.063   6.531  0.9471 -0.1391 -0.9085
   31MOL0     H 4167   5.644   3.624   6.956 -0.8191 -2.3788  3.8573
   31MOL0     H 4168   5.496   3.556   7.139 -2.7066 -0.5607  0.9393
   31MOL0     H 4169   3.753   3.823   6.677  0.0560  0.5538 -0.5279
   31MOL0     H 4170   3.769   4.051   6.640 -0.8803 -1.4273  1.3210
   31MOL0     H 4171   3.813   4.395   6.446  0.2953  1.0210  1.0790
   31MOL0     H 4172   3.820   4.616   6.374 -0.0773 -0.1474 -1.1115
   31MOL0     H 4173   4.121   4.755   6.132 -0.8182  1.2884 -1.4565
   31MOL0     H 4174   4.192   4.822   6.281 -0.9565 -2.7368  0.5805
   31MOL0     H 4175   3.970   4.958   6.127  0.4854  0.9513 -1.2845
   31MOL0     H 4176   4.138   5.002   6.087 -1.9471  2.5013  0.6440
   31MOL0     H 4177   4.161   5.068   6.350 -1.4961  3.2252  1.7842
   31MOL0     H 4178   3.990   5.022   6.356 -1.7139  2.9437 -0.3539
   31MOL0     H 4179   3.980   5.207   6.168  0.3806  2.0161  0.3894
   31MOL0     H 4180   3.995   5.254   6.334 -0.5547 -1.7321  0.8961
   31MOL0     H 4181   4.348   5.386   6.124  0.2592  0.5079  0.8162
   31MOL0     H 4182   4.251   4.611   6.360 -1.3161 -0.1851 -1.3918
   31MOL0     H 4183   4.269   4.244   6.377  1.9535  0.0349  0.9440
   31MOL0     H 4184   4.344   4.382   6.328  0.1144 -0.8551 -0.2875
   31MOL0     H 4185   4.327   4.340   6.506  1.0443 -2.1805 -0.4735
   32MOL0     O 4186   2.520   6.004   4.797 -0.1448  0.1063  0.3526
   32MOL0     C 4187   2.446   5.900   4.812 -0.1503 -0.0184 -0.1192
   32MOL0     O 4188   2.488   5.765   4.823  0.5777  0.1807  0.0746
   32MOL0     C 4189   2.624   5.753   4.832  0.7911  0.4130 -0.3505
   32MOL0     C 4190   2.708   5.739   4.722  0.3189  0.0810  0.7821
   32MOL0     C 4191   2.842   5.711   4.746  1.4857 -0.2316  0.8719
   32MOL0     C 4192   2.894   5.706   4.878  0.8395  0.5404  0.0814
   32MOL0     O 4193   3.026   5.668   4.889  0.5211  0.6539 -0.1408
   32MOL0     C 4194   3.094   5.659   5.010  0.3530  0.5588 -0.3769
   32MOL0     C 4195   3.232   5.591   4.976  0.5483  0.2468  0.1488
   32MOL0     C 4196   3.214   5.452   4.912  0.9775 -0.6759 -0.1289
   32MOL0     C 4197   3.347   5.378   4.877 -0.9861  0.2273  0.6229
   32MOL0     C 4198   3.446   5.348   4.982  0.1868 -0.0309  0.5754
   32MOL0     C 4199   3.569   5.260   4.952  0.5371  0.7684 -0.1548
   32MOL0     C 4200   3.673   5.278   5.061 -0.6944 -0.1083 -0.3305
   32MOL0     C 4201   3.798   5.187   5.041 -0.3913 -0.4391 -0.6582
   32MOL0     N 4202   3.925   5.211   5.121  0.3086  0.0835 -0.1425
   32MOL0     C 4203   3.930   5.277   5.241 -0.4097 -0.0540 -0.6096
   32MOL0     C 4204   4.069   5.261   5.258 -0.2556 -0.3086  0.1487
   32MOL0     C 4205   4.137   5.310   5.384  0.0027  0.7602 -0.4640
   32MOL0     C 4206   4.206   5.444   5.376  0.8840 -0.4597 -0.6244
   32MOL0     C 4207   4.188   5.518   5.509  0.8733  0.0950  0.1723
   32MOL0     C 4208   4.073   5.613   5.504 -0.6948  0.9056 -0.3718
   32MOL0     O 4209   3.952   5.534   5.482  0.1662 -0.1347  0.7333
   32MOL0     C 4210   3.839   5.603   5.444  0.9019 -0.6819 -1.1452
   32MOL0     C 4211   3.726   5.527   5.435 -0.3158 -0.0737 -0.2510
   32MOL0     C 4212   3.606   5.573   5.376  0.9868 -0.0436 -0.1691
   32MOL0     C 4213   3.599   5.713   5.327  0.2617  0.0373 -0.9243
   32MOL0     C 4214   3.473   5.774   5.282  0.8952 -0.1553 -0.2173
   32MOL0     O 4215   3.491   5.896   5.230 -0.2936  0.0505 -1.0091
   32MOL0     C 4216   3.398   5.957   5.154  0.5497 -0.4540 -0.5692
   32MOL0     C 4217   3.437   6.010   5.026  0.3377  0.7762 -0.6483
   32MOL0     C 4218   3.341   6.088   4.956  0.0689  0.4535 -0.0143
   32MOL0     C 4219   3.204   6.091   4.993  0.2352  0.4771 -0.2438
   32MOL0     O 4220   3.109   6.148   4.909 -0.9268 -0.3639  0.7679
   32MOL0     C 4221   3.022   6.052   4.864 -0.7401 -0.5515  0.6762
   32MOL0     C 4222   2.922   6.105   4.760 -0.4116 -0.5085 -0.2083
   32MOL0     C 4223   2.828   6.207   4.835  0.1922 -0.0821  1.1820
   32MOL0     C 4224   2.752   6.283   4.731  0.7016 -0.3222  0.0722
   32MOL0     C 4225   2.685   6.408   4.803 -0.0850  0.0067 -0.7239
   32MOL0     C 4226   2.605   6.476   4.686  1.4729 -0.3020 -0.5263
   32MOL0     C 4227   2.463   6.410   4.684 -0.8499  0.3583  0.8245
   32MOL0     C 4228   2.417   6.397   4.538 -0.4947 -0.4015 -0.7279
   32MOL0    Cl 4229   2.252   6.332   4.523 -0.3856  0.2449  0.1240
   32MOL0     C 4230   3.164   6.030   5.113 -0.0241 -0.2161 -0.3051
   32MOL0     C 4231   3.264   5.975   5.194  0.2881  0.0508 -0.6155
   32MOL0     O 4232   3.377   5.704   5.269 -0.1144  0.1331 -0.2069
   32MOL0     C 4233   3.712   5.793   5.348  0.4198  0.5254  0.3543
   32MOL0     C 4234   3.829   5.741   5.398 -0.2363 -0.1428  0.2050
   32MOL0     N 4235   4.129   5.183   5.155 -0.4741  0.6912 -0.6542
   32MOL0     N 4236   4.039   5.155   5.072  0.1656 -0.1712 -0.2956
   32MOL0     C 4237   2.812   5.737   4.987  0.4841  0.5247  0.2054
   32MOL0     C 4238   2.667   5.745   4.965  0.0321  0.3901 -0.1364
   32MOL0     C 4239   2.305   5.915   4.798  0.2653  0.5669 -0.9144
   32MOL0     C 4240   2.253   6.021   4.722  0.7439  0.4697  0.6910
   32MOL0     C 4241   2.114   6.033   4.701 -0.3321  0.3863 -0.0188
   32MOL0     C 4242   2.031   5.943   4.768  1.9037  0.0799  0.2664
   32MOL0     O 4243   1.900   5.973   4.756 -0.3540 -0.6937 -1.2093
   32MOL0     C 4244   1.814   5.947   4.862  0.3443 -1.0455 -0.4169
   32MOL0     C 4245   1.845   6.021   4.994  0.9643  0.4009 -0.1232
   32MOL0     C 4246   1.723   6.005   5.092 -0.2708  0.4114  0.9326
   32MOL0     C 4247   1.737   6.120   5.196  0.3842 -0.2908  0.2812
   32MOL0     C 4248   1.617   6.112   5.280 -0.5366  0.9988 -0.4712
   32MOL0     C 4249   1.513   6.120   5.341 -0.0336 -0.9192  0.6039
   32MOL0     C 4250   2.079   5.834   4.837  0.3186  0.3437  0.0503
   32MOL0     C 4251   2.216   5.830   4.868 -0.4504 -0.0174 -0.3373
   32MOL0     C 4252   2.259   5.720   4.966 -0.8978  0.0276 -0.2773
   32MOL0     H 4253   2.670   5.739   4.620 -0.8428  1.0213  1.1867
   32MOL0     H 4254   2.913   5.699   4.665  1.3846  0.0296  0.7433
   32MOL0     H 4255   3.118   5.763   5.035  0.6370  0.2789  0.5471
   32MOL0     H 4256   3.040   5.612   5.093  1.6742  0.2130  0.3119
   32MOL0     H 4257   3.291   5.594   5.068 -0.4882 -1.6520  0.9303
   32MOL0     H 4258   3.281   5.656   4.903 -1.5132  0.4395 -1.1449
   32MOL0     H 4259   3.180   5.469   4.810 -2.6496 -1.6302  0.7776
   32MOL0     H 4260   3.142   5.388   4.964 -2.1173  1.1476 -1.8468
   32MOL0     H 4261   3.328   5.291   4.813 -1.9865  1.0379 -0.1981
   32MOL0     H 4262   3.405   5.438   4.806  2.6406 -1.4496  1.8860
   32MOL0     H 4263   3.480   5.442   5.026  0.1708  1.2419 -1.9691
   32MOL0     H 4264   3.394   5.311   5.071 -0.5040 -1.0292 -0.2116
   32MOL0     H 4265   3.544   5.153   4.948  0.7137  0.7278 -0.1584
   32MOL0     H 4266   3.606   5.291   4.854 -4.7370  0.1811 -2.6827
   32MOL0     H 4267   3.639   5.279   5.165 -1.0714 -0.6753 -0.4460
   32MOL0     H 4268   3.703   5.383   5.048  0.7666 -0.5046 -0.3572
   32MOL0     H 4269   3.759   5.088   5.065 -1.8941  0.0745 -0.9142
   32MOL0     H 4270   3.819   5.167   4.936 -0.8287 -0.9187 -0.6594
   32MOL0     H 4271   3.858   5.331   5.302  1.4026  0.2127  1.4310
   32MOL0     H 4272   4.066   5.296   5.466 -2.5424 -3.3864 -2.9887
   32MOL0     H 4273   4.217   5.238   5.403 -1.2251 -1.0403 -1.7633
   32MOL0     H 4274   4.310   5.422   5.352  1.5421 -0.5766  2.0385
   32MOL0     H 4275   4.166   5.511   5.299 -0.3457 -1.3918 -0.8191
   32MOL0     H 4276   4.280   5.571   5.536 -0.1053  0.5974  2.7760
   32MOL0     H 4277   4.173   5.452   5.595 -0.8256 -0.0590 -0.2087
   32MOL0     H 4278   4.109   5.688   5.433 -0.3320  1.0966  0.0084
   32MOL0     H 4279   4.073   5.664   5.601  0.5505 -0.2371  0.2619
   32MOL0     H 4280   3.740   5.423   5.462  4.8051  0.4448 -0.0058
   32MOL0     H 4281   3.528   5.498   5.373  0.4679  0.3327  2.0024
   32MOL0     H 4282   3.529   5.977   4.979 -0.4627 -2.3773 -0.1903
   32MOL0     H 4283   3.373   6.133   4.862  2.3321  1.7194  1.2640
   32MOL0     H 4284   3.067   5.964   4.817  1.7472  0.6465  0.6107
   32MOL0     H 4285   2.967   6.012   4.950 -3.2649 -2.6546 -1.7346
   32MOL0     H 4286   2.968   6.164   4.680  2.2398  1.9132  2.7997
   32MOL0     H 4287   2.871   6.018   4.718 -1.7971 -0.0239  0.3984
   32MOL0     H 4288   2.762   6.146   4.897  2.3708 -3.0867  0.7980
   32MOL0     H 4289   2.876   6.280   4.901 -1.9198  1.4135  1.1347
   32MOL0     H 4290   2.684   6.218   4.676  2.7204 -1.4718 -1.1811
   32MOL0     H 4291   2.820   6.319   4.653  3.4722 -1.2871  1.8946
   32MOL0     H 4292   2.766   6.471   4.842  1.6790 -0.0145 -3.9973
   32MOL0     H 4293   2.623   6.378   4.887 -1.6122  0.0146 -1.8130
   32MOL0     H 4294   2.595   6.581   4.715  2.7070 -0.3157  0.0199
   32MOL0     H 4295   2.663   6.474   4.593 -0.3883  2.4012 -1.8872
   32MOL0     H 4296   2.404   6.478   4.745  1.0797  2.4128  0.5451
   32MOL0     H 4297   2.437   6.324   4.746 -2.2314  0.5589  0.5397
   32MOL0     H 4298   2.413   6.493   4.486  2.0651 -1.9538 -4.1819
   32MOL0     H 4299   2.481   6.331   4.479 -2.2810 -0.9105 -2.2206
   32MOL0     H 4300   3.063   6.026   5.152  1.0397  1.2691  2.8566
   32MOL0     H 4301   3.227   5.941   5.290  1.4239  1.3677  0.3264
   32MOL0     H 4302   3.714   5.900   5.332 -2.0568  1.2463  3.7503
   32MOL0     H 4303   3.916   5.805   5.410 -0.0736  0.6419 -3.9056
   32MOL0     H 4304   2.851   5.735   5.089 -0.3478 -0.3383  0.5191
   32MOL0     H 4305   2.616   5.761   5.059 -0.7010 -1.9316 -0.0827
   32MOL0     H 4306   2.316   6.097   4.677 -1.1913  1.9423  0.3387
   32MOL0     H 4307   2.069   6.107   4.636  0.9959 -0.5359 -2.0587
   32MOL0     H 4308   1.807   5.838   4.863  2.3031 -1.2755 -2.9332
   32MOL0     H 4309   1.714   5.985   4.835 -1.1720 -3.1391  1.8495
   32MOL0     H 4310   1.848   6.125   4.959 -0.9339  0.0873 -1.3836
   32MOL0     H 4311   1.938   5.997   5.045 -0.9234  1.3490  4.2961
   32MOL0     H 4312   1.736   5.910   5.144  4.1850  0.9787  1.2382
   32MOL0     H 4313   1.626   6.022   5.043  1.0342  3.2930 -0.9241
   32MOL0     H 4314   1.825   6.109   5.260  1.8570 -0.3877 -1.6644
   32MOL0     H 4315   1.744   6.213   5.139  0.6469 -1.7292 -2.1282
   32MOL0     H 4316   1.413   6.111   5.378 -0.3557 -2.3373 -0.5318
   32MOL0     H 4317   2.011   5.764   4.884 -0.3834  2.3436  2.2657
   32MOL0     H 4318   2.190   5.709   5.051  1.0753 -0.7873  1.2923
   32MOL0     H 4319   2.262   5.629   4.906 -2.2294  0.1240 -0.5312
   32MOL0     H 4320   2.360   5.724   5.007  0.3240 -2.5053 -2.7599
   33MOL0     O 4321   5.251   2.328   4.134  0.6194 -0.1686 -0.0317
   33MOL0     C 4322   5.355   2.392   4.135 -0.2363  0.4865  0.2803
   33MOL0     O 4323   5.459   2.364   4.214 -0.2732 -0.4153 -0.2586
   33MOL0     C 4324   5.457   2.268   4.315 -0.7329 -0.7802  0.6345
   33MOL0     C 4325   5.577   2.204   4.344 -0.0980  0.2988 -0.1009
   33MOL0     C 4326   5.578   2.110   4.451 -0.2748  0.2445 -0.7902
   33MOL0     C 4327   5.462   2.089   4.526 -0.5566  0.1026 -0.1737
   33MOL0     O 4328   5.487   2.021   4.638  0.5550 -1.1852 -0.8932
   33MOL0     C 4329   5.407   2.046   4.749 -0.0829 -0.3981  0.3888
   33MOL0     C 4330   5.500   2.027   4.870 -0.0386  0.1894  0.3687
   33MOL0     C 4331   5.521   1.888   4.918 -0.8100 -0.3692 -0.6396
   33MOL0     C 4332   5.652   1.812   4.867 -0.1118 -0.5389 -0.2641
   33MOL0     C 4333   5.790   1.867   4.907  0.7573  0.8961 -0.1829
   33MOL0     C 4334   5.805   1.901   5.057 -0.6055  0.8787 -0.9611
   33MOL0     C 4335   5.937   1.949   5.086 -0.5583  0.3524 -0.6537
   33MOL0     C 4336   5.961   1.996   5.224  0.0708  0.3980  0.3270
   33MOL0     N 4337   5.877   2.111   5.260  0.1855  0.0323  0.6570
   33MOL0     C 4338   5.755   2.113   5.331  0.8069 -1.2461  0.0188
   33MOL0     C 4339   5.733   2.249   5.343  0.0113 -0.0859 -0.1006
   33MOL0     C 4340   5.617   2.322   5.410  0.2920  0.3747  0.0582
   33MOL0     C 4341   5.645   2.392   5.549  0.2445  0.1247  1.0190
   33MOL0     C 4342   5.740   2.510   5.564 -0.3673 -0.1933 -0.4988
   33MOL0     C 4343   5.675   2.596   5.678 -0.2178 -0.4315  0.5206
   33MOL0     O 4344   5.652   2.533   5.804 -0.2539  0.0034  0.5570
   33MOL0     C 4345   5.770   2.492   5.857  0.3320  1.0993 -0.9827
   33MOL0     C 4346   5.762   2.365   5.921 -0.3393  0.0441  0.3458
   33MOL0     C 4347   5.871   2.311   5.992 -0.4314  0.2471  0.0496
   33MOL0     C 4348   5.987   2.391   6.005  0.3684  0.6424 -0.6315
   33MOL0     C 4349   6.112   2.350   6.082  0.2748 -0.0042  0.6377
   33MOL0     O 4350   6.222   2.431   6.086  0.6467 -0.3436  0.1478
   33MOL0     C 4351   6.345   2.392   6.116  0.3983  0.0787  0.0766
   33MOL0     C 4352   6.394   2.259   6.123  0.2781 -0.4843 -0.3583
   33MOL0     C 4353   6.526   2.221   6.149  0.2260  0.2175  0.5689
   33MOL0     C 4354   6.630   2.323   6.151  0.3444 -0.0027  0.5444
   33MOL0     O 4355   6.754   2.285   6.179  0.0735 -0.3217  0.3309
   33MOL0     C 4356   6.857   2.350   6.108 -0.4340  0.4392 -0.0382
   33MOL0     C 4357   6.945   2.237   6.053  1.0866 -0.2907  0.1260
   33MOL0     C 4358   6.867   2.135   5.955  0.6070  1.2883 -0.5405
   33MOL0     C 4359   6.799   2.198   5.829 -0.3459 -0.3488  0.0898
   33MOL0     C 4360   6.808   2.121   5.704 -0.6435  0.0950 -0.4904
   33MOL0     C 4361   6.955   2.132   5.650 -0.0170  0.2887  0.0279
   33MOL0     C 4362   6.976   2.044   5.526  0.1380  0.1576  1.1377
   33MOL0     C 4363   7.127   1.996   5.510 -0.1545 -0.0852  0.4366
   33MOL0    Cl 4364   7.233   2.113   5.428  0.2319  0.1844  0.3749
   33MOL0     C 4365   6.582   2.455   6.134  0.9458 -0.5609 -0.5580
   33MOL0     C 4366   6.443   2.493   6.125  0.0280 -0.1907  0.0863
   33MOL0     O 4367   6.108   2.235   6.129 -0.5712 -0.5655  0.6486
   33MOL0     C 4368   5.991   2.523   5.954  0.5848 -0.3159  0.1248
   33MOL0     C 4369   5.886   2.568   5.871 -0.3303  0.3221  0.4889
   33MOL0     N 4370   5.833   2.319   5.276  0.2819 -0.3043 -0.8358
   33MOL0     N 4371   5.911   2.236   5.212  1.1735 -0.8010 -0.2981
   33MOL0     C 4372   5.340   2.153   4.490  0.2461  1.3379  0.0204
   33MOL0     C 4373   5.343   2.244   4.387 -0.1797  0.4596  1.3301
   33MOL0     C 4374   5.358   2.526   4.063 -0.4750  0.5031 -0.2480
   33MOL0     C 4375   5.438   2.637   4.107  0.3412  1.5358  0.7091
   33MOL0     C 4376   5.455   2.759   4.037  0.8472  0.1630  0.0280
   33MOL0     C 4377   5.379   2.778   3.925 -0.7770 -0.2124  0.3752
   33MOL0     O 4378   5.382   2.904   3.880 -0.2334  1.2015 -0.0834
   33MOL0     C 4379   5.287   2.936   3.781  0.1351 -0.0009 -0.3864
   33MOL0     C 4380   5.299   3.085   3.740  0.4091 -0.4316 -0.8031
   33MOL0     C 4381   5.445   3.130   3.744 -0.4634 -0.3594  0.5240
   33MOL0     C 4382   5.465   3.283   3.711 -0.8105 -0.4789 -0.5140
   33MOL0     C 4383   5.584   3.351   3.765  0.2454 -0.5343 -0.9013
   33MOL0     C 4384   5.680   3.395   3.815  0.4729  0.4475 -0.8841
   33MOL0     C 4385   5.299   2.666   3.874 -1.0803  0.2733 -0.1343
   33MOL0     C 4386   5.288   2.541   3.938 -0.2014 -0.9489 -0.1528
   33MOL0     C 4387   5.180   2.449   3.879 -0.7318 -0.6092  0.3630
   33MOL0     H 4388   5.671   2.236   4.301  0.8750 -1.0219  0.9371
   33MOL0     H 4389   5.679   2.077   4.475 -0.2099  1.0091  0.0195
   33MOL0     H 4390   5.366   2.148   4.749 -1.6906 -1.0210 -0.0543
   33MOL0     H 4391   5.323   1.980   4.774  0.2537 -0.0864  2.4993
   33MOL0     H 4392   5.466   2.090   4.953 -0.6513  0.5751 -0.1638
   33MOL0     H 4393   5.598   2.070   4.846  1.7415 -2.9627  1.5000
   33MOL0     H 4394   5.435   1.829   4.884 -0.0995 -1.2487 -0.9521
   33MOL0     H 4395   5.520   1.897   5.027 -2.0709  1.6277 -0.7597
   33MOL0     H 4396   5.659   1.706   4.896  0.1206 -0.4798 -0.1079
   33MOL0     H 4397   5.660   1.815   4.758  2.0017  0.4680 -0.1227
   33MOL0     H 4398   5.864   1.789   4.884 -0.0520 -0.9112  2.7229
   33MOL0     H 4399   5.808   1.958   4.849  0.7619  0.5992 -0.6512
   33MOL0     H 4400   5.737   1.983   5.081  3.2739  3.8684  0.6981
   33MOL0     H 4401   5.768   1.814   5.112 -2.7791  2.0406 -0.4776
   33MOL0     H 4402   5.963   2.025   5.012  0.2350  1.3356  0.6068
   33MOL0     H 4403   6.007   1.865   5.084 -0.6172  0.2848  0.1112
   33MOL0     H 4404   5.943   1.922   5.302  2.4675  0.9731  1.5067
   33MOL0     H 4405   6.065   2.026   5.241  0.9454 -0.3115 -3.0481
   33MOL0     H 4406   5.681   2.036   5.348 -1.6807  0.9833 -0.1503
   33MOL0     H 4407   5.584   2.400   5.342  1.5548  0.3371 -0.6168
   33MOL0     H 4408   5.534   2.255   5.433  0.8327 -0.3458 -0.0445
   33MOL0     H 4409   5.548   2.414   5.594  0.3235 -1.3634  2.0014
   33MOL0     H 4410   5.687   2.318   5.618  1.3516 -0.1847  0.0507
   33MOL0     H 4411   5.738   2.572   5.474 -3.7325  0.8999  0.1964
   33MOL0     H 4412   5.847   2.490   5.581 -0.6337 -0.2771  1.3334
   33MOL0     H 4413   5.588   2.647   5.636 -0.7326 -0.9589  0.9344
   33MOL0     H 4414   5.741   2.683   5.685  0.6742 -0.9527 -0.8858
   33MOL0     H 4415   5.669   2.309   5.921 -1.2431  1.0904  5.1509
   33MOL0     H 4416   5.866   2.219   6.049 -1.2936 -0.4163 -1.0446
   33MOL0     H 4417   6.332   2.170   6.127 -0.7187  0.2214  0.4297
   33MOL0     H 4418   6.560   2.118   6.156 -1.1689 -0.2097  1.3531
   33MOL0     H 4419   6.833   2.430   6.037  3.8065 -0.0655 -2.4116
   33MOL0     H 4420   6.919   2.398   6.184 -0.4321  0.3451  0.0192
   33MOL0     H 4421   7.023   2.282   5.991 -1.2775  1.3166 -1.8793
   33MOL0     H 4422   6.991   2.181   6.135  2.8167  1.5937  0.5019
   33MOL0     H 4423   6.927   2.046   5.937 -2.5540 -1.4372  1.2463
   33MOL0     H 4424   6.776   2.104   6.008 -1.1747  4.2177 -1.6060
   33MOL0     H 4425   6.846   2.295   5.814 -0.8843 -0.0643  0.2180
   33MOL0     H 4426   6.693   2.209   5.853 -0.6699 -0.9151 -1.0259
   33MOL0     H 4427   6.727   2.141   5.633  0.6748  0.0096 -2.0736
   33MOL0     H 4428   6.797   2.014   5.722  4.4979 -0.6975 -0.5492
   33MOL0     H 4429   6.987   2.233   5.623  1.8334 -0.4998 -0.9264
   33MOL0     H 4430   7.020   2.101   5.733  0.6880  0.2483 -0.5360
   33MOL0     H 4431   6.939   2.105   5.442 -0.3919 -0.1248  1.1677
   33MOL0     H 4432   6.914   1.955   5.530  1.6682 -1.0693 -0.6426
   33MOL0     H 4433   7.161   1.980   5.613 -0.6230  1.3095  0.8342
   33MOL0     H 4434   7.135   1.906   5.449  0.6050 -0.7111  1.4228
   33MOL0     H 4435   6.661   2.529   6.122  1.3171 -0.3162  2.4811
   33MOL0     H 4436   6.400   2.592   6.116 -0.1423 -0.2800 -0.1168
   33MOL0     H 4437   6.061   2.598   5.989  0.6375 -0.8496  1.2246
   33MOL0     H 4438   5.901   2.668   5.832  1.7282  0.5535  1.6883
   33MOL0     H 4439   5.251   2.143   4.552 -0.3242  3.4518 -0.3862
   33MOL0     H 4440   5.250   2.294   4.361  2.4148  3.2737 -3.8759
   33MOL0     H 4441   5.490   2.625   4.202 -2.5572  0.2373  2.2524
   33MOL0     H 4442   5.506   2.848   4.072  1.6990  0.2488 -1.3759
   33MOL0     H 4443   5.187   2.930   3.824  1.6023  1.3401  3.6318
   33MOL0     H 4444   5.302   2.857   3.706 -0.7893  1.1218 -1.7884
   33MOL0     H 4445   5.244   3.153   3.806  0.4614  1.8922 -2.9923
   33MOL0     H 4446   5.269   3.096   3.635  3.7670 -0.0302 -1.8418
   33MOL0     H 4447   5.496   3.074   3.665  0.6036 -0.5632  1.3307
   33MOL0     H 4448   5.501   3.115   3.837  1.2218  4.3188  0.5159
   33MOL0     H 4449   5.473   3.303   3.604  2.3950  1.7488 -0.0070
   33MOL0     H 4450   5.380   3.336   3.754 -1.3130 -0.7602 -1.1372
   33MOL0     H 4451   5.758   3.451   3.863  0.0233 -0.3059  0.8029
   33MOL0     H 4452   5.241   2.687   3.785  3.7224  1.1501 -3.4773
   33MOL0     H 4453   5.089   2.464   3.939  1.5151 -0.7066  4.1266
   33MOL0     H 4454   5.166   2.471   3.773  3.4979 -0.3633 -0.3271
   33MOL0     H 4455   5.207   2.344   3.889  1.4945 -0.1792 -0.4874
   34MOL0     O 4456   7.333   0.809   7.757 -0.1463  0.5837  0.7101
   34MOL0     C 4457   7.435   0.818   7.692 -0.0157 -0.4292 -0.4545
   34MOL0     O 4458   7.537   0.731   7.693  0.0506 -0.5158 -0.6410
   34MOL0     C 4459   7.563   0.623   7.781  0.5736 -0.1194  0.1662
   34MOL0     C 4460   7.484   0.576   7.890 -0.7301 -0.3716 -1.5588
   34MOL0     C 4461   7.544   0.484   7.980  0.3870  0.2940  0.5051
   34MOL0     C 4462   7.655   0.412   7.951  0.5887 -0.1173 -0.0481
   34MOL0     O 4463   7.703   0.314   8.043  0.1395  0.0102  0.8012
   34MOL0     C 4464   7.840   0.280   8.029 -0.6117 -0.3803 -0.0297
   34MOL0     C 4465   7.885   0.234   8.165 -1.3389  1.2058 -0.1371
   34MOL0     C 4466   7.832   0.100   8.204 -0.9000  0.2291  0.9129
   34MOL0     C 4467   7.877   0.069   8.348 -0.0287 -0.5875  1.1792
   34MOL0     C 4468   7.828  -0.060   8.404 -0.0467 -0.7066  0.6181
   34MOL0     C 4469   7.867  -0.087   8.545 -0.3980  0.6327 -0.2970
   34MOL0     C 4470   8.013  -0.134   8.559 -0.4995  0.2738  0.2090
   34MOL0     C 4471   8.062  -0.158   8.698 -0.4582  0.8513 -0.3498
   34MOL0     N 4472   8.161  -0.269   8.696  1.1906  0.0266  1.3448
   34MOL0     C 4473   8.158  -0.365   8.790  0.5373 -1.0141  0.1879
   34MOL0     C 4474   8.249  -0.448   8.747 -0.5286 -0.1708  1.2106
   34MOL0     C 4475   8.283  -0.592   8.792 -0.5725  0.1334  0.1847
   34MOL0     C 4476   8.174  -0.653   8.861  0.3776 -0.3028  0.3414
   34MOL0     C 4477   8.202  -0.804   8.880  0.3842 -0.4809 -0.0150
   34MOL0     C 4478   8.083  -0.865   8.949  0.4813 -0.5676 -0.3369
   34MOL0     O 4479   8.084  -0.829   9.088 -0.1246  0.0218  0.0228
   34MOL0     C 4480   8.007  -0.919   9.163 -0.0979 -0.5012 -0.8462
   34MOL0     C 4481   7.884  -0.963   9.110 -0.2118 -0.2936  0.0066
   34MOL0     C 4482   7.811  -1.051   9.195  0.1095 -0.4819 -0.3478
   34MOL0     C 4483   7.857  -1.090   9.326 -0.5814  0.7281  0.9550
   34MOL0     C 4484   7.795  -1.197   9.403  0.0160  0.0894 -0.9135
   34MOL0     O 4485   7.705  -1.269   9.342  0.3585  0.4213  0.4156
   34MOL0     C 4486   7.625  -1.352   9.417 -0.6914 -0.3022 -0.6713
   34MOL0     C 4487   7.493  -1.333   9.427  0.1393  0.1141 -0.3291
   34MOL0     C 4488   7.405  -1.421   9.474  0.4909 -0.6406  0.1343
   34MOL0     C 4489   7.443  -1.548   9.498 -0.2963 -0.4693 -0.1771
   34MOL0     O 4490   7.363  -1.651   9.539  0.2875 -0.0925  0.7323
   34MOL0     C 4491   7.235  -1.621   9.587  0.0599  0.6792 -0.2385
   34MOL0     C 4492   7.182  -1.741   9.669  0.0292 -0.4799 -0.0619
   34MOL0     C 4493   7.251  -1.734   9.805 -0.1078  0.1457  0.0631
   34MOL0     C 4494   7.205  -1.848   9.905  0.6372  0.2031  0.8221
   34MOL0     C 4495   7.294  -1.839  10.029 -0.0721 -0.3949 -0.6058
   34MOL0     C 4496   7.242  -1.949  10.135 -0.6366 -0.4171 -0.3232
   34MOL0     C 4497   7.284  -2.087  10.093 -0.7913  0.2701 -0.4851
   34MOL0     C 4498   7.240  -2.190  10.197  0.7530 -0.0882  0.0603
   34MOL0    Cl 4499   7.225  -2.359  10.133 -0.9652  0.3021  0.2351
   34MOL0     C 4500   7.577  -1.592   9.482 -0.2174  0.3773 -1.0820
   34MOL0     C 4501   7.663  -1.490   9.447 -0.7534 -0.3592  0.4577
   34MOL0     O 4502   7.822  -1.214   9.527 -0.5678 -0.2699 -0.0262
   34MOL0     C 4503   7.970  -1.025   9.378 -0.5366 -0.3462  0.8455
   34MOL0     C 4504   8.048  -0.941   9.295  0.3410  0.8773 -0.4785
   34MOL0     N 4505   8.297  -0.411   8.622  0.0684  0.0162 -0.6772
   34MOL0     N 4506   8.248  -0.297   8.596 -0.9126  0.3475 -0.0904
   34MOL0     C 4507   7.723   0.445   7.833 -0.2907 -0.2004  0.4861
   34MOL0     C 4508   7.686   0.557   7.756 -0.4256  0.0761  0.0763
   34MOL0     C 4509   7.455   0.934   7.593 -0.0140 -0.0662 -0.5246
   34MOL0     C 4510   7.344   0.983   7.527  0.0307 -0.1055 -0.3898
   34MOL0     C 4511   7.355   1.081   7.430  0.1222  0.3018 -0.2564
   34MOL0     C 4512   7.484   1.127   7.376  0.8079 -0.6548  0.4053
   34MOL0     O 4513   7.506   1.227   7.284 -0.4624 -0.2811  0.5887
   34MOL0     C 4514   7.391   1.279   7.211 -0.5179  0.1651 -1.1528
   34MOL0     C 4515   7.329   1.378   7.313 -0.0047 -0.4437  0.8007
   34MOL0     C 4516   7.378   1.514   7.283 -0.8015  0.0554  0.1315
   34MOL0     C 4517   7.288   1.615   7.354 -0.8657 -0.2788 -0.2516
   34MOL0     C 4518   7.316   1.755   7.323 -0.1051 -0.5322  0.3611
   34MOL0     C 4519   7.339   1.873   7.284  0.3391  1.1843 -0.5442
   34MOL0     C 4520   7.592   1.065   7.440  0.0917  0.1980 -0.8548
   34MOL0     C 4521   7.581   0.974   7.546  0.5672  0.1924  0.1504
   34MOL0     C 4522   7.710   0.919   7.589 -1.0787 -0.3087 -0.5594
   34MOL0     H 4523   7.389   0.625   7.909 -0.2086  0.9053 -2.1080
   34MOL0     H 4524   7.500   0.449   8.072  1.9664 -2.6428  0.2805
   34MOL0     H 4525   7.869   0.200   7.959  0.2328  1.8007 -2.3572
   34MOL0     H 4526   7.898   0.371   8.008  0.0211  0.9056  5.6441
   34MOL0     H 4527   7.861   0.301   8.247 -0.5057 -0.8483  1.8916
   34MOL0     H 4528   7.994   0.217   8.165 -1.6809 -1.5552  1.1354
   34MOL0     H 4529   7.878   0.031   8.133  2.0667  3.3354 -0.4612
   34MOL0     H 4530   7.723   0.091   8.192 -0.6862 -0.8103 -0.5578
   34MOL0     H 4531   7.986   0.078   8.353  0.2203 -0.5315 -2.1184
   34MOL0     H 4532   7.853   0.149   8.418  1.6642  1.0765 -0.0690
   34MOL0     H 4533   7.720  -0.042   8.404  0.0055 -0.3617  1.0511
   34MOL0     H 4534   7.862  -0.139   8.336  1.3861  1.0520 -0.7960
   34MOL0     H 4535   7.858  -0.003   8.614  0.5880  1.4645 -1.1600
   34MOL0     H 4536   7.803  -0.169   8.580  0.0109  0.5347  0.2256
   34MOL0     H 4537   8.078  -0.059   8.512 -0.5160  0.9514  1.2386
   34MOL0     H 4538   8.018  -0.228   8.504  2.9459 -0.2882  1.2462
   34MOL0     H 4539   8.103  -0.070   8.749 -0.7712 -0.3217  2.0680
   34MOL0     H 4540   7.974  -0.194   8.753 -1.2039 -1.5588 -2.8789
   34MOL0     H 4541   8.088  -0.374   8.872 -0.6963  3.0433 -0.2071
   34MOL0     H 4542   8.323  -0.655   8.712  0.7563  0.9065  0.2189
   34MOL0     H 4543   8.364  -0.599   8.865  0.0755 -4.6143 -0.6950
   34MOL0     H 4544   8.172  -0.607   8.960 -1.4962 -1.4482  0.9044
   34MOL0     H 4545   8.079  -0.645   8.807  1.8997  1.8974 -2.2246
   34MOL0     H 4546   8.297  -0.814   8.933  3.1549  0.5711 -4.2806
   34MOL0     H 4547   8.211  -0.862   8.788 -1.2602  0.8598 -1.0918
   34MOL0     H 4548   8.084  -0.973   8.935  0.1902 -0.9284  1.9775
   34MOL0     H 4549   7.996  -0.821   8.900 -0.2001  0.0476  1.3256
   34MOL0     H 4550   7.841  -0.936   9.014  4.2458  0.2813 -2.0865
   34MOL0     H 4551   7.727  -1.102   9.148  1.2940 -2.8825 -0.0200
   34MOL0     H 4552   7.447  -1.241   9.393 -2.0406  0.2154  2.5215
   34MOL0     H 4553   7.299  -1.396   9.482  0.4777 -0.7342  0.2518
   34MOL0     H 4554   7.221  -1.537   9.655 -0.0776 -2.7001  4.4366
   34MOL0     H 4555   7.174  -1.615   9.497 -0.0569 -5.1416 -0.9731
   34MOL0     H 4556   7.073  -1.745   9.675  0.0592  0.6223  1.9043
   34MOL0     H 4557   7.223  -1.828   9.617  2.0745  1.0447 -1.1530
   34MOL0     H 4558   7.360  -1.736   9.807 -0.0760 -0.2291  3.0036
   34MOL0     H 4559   7.228  -1.638   9.853  2.8197  0.3314  1.2898
   34MOL0     H 4560   7.214  -1.939   9.846  2.1018  1.3541 -0.8491
   34MOL0     H 4561   7.100  -1.833   9.933  0.9573  2.2332  1.1091
   34MOL0     H 4562   7.280  -1.746  10.084 -0.7833 -0.9551  0.1860
   34MOL0     H 4563   7.401  -1.860  10.018  0.1627 -1.3012  2.5551
   34MOL0     H 4564   7.291  -1.922  10.229 -3.8978 -0.4038  1.5246
   34MOL0     H 4565   7.134  -1.941  10.151 -0.7028  0.3254 -1.0524
   34MOL0     H 4566   7.392  -2.085  10.074 -0.7597 -0.4394 -0.4166
   34MOL0     H 4567   7.241  -2.130  10.003  0.1672 -1.9604  0.0560
   34MOL0     H 4568   7.308  -2.196  10.282  2.4521 -0.3600 -1.2663
   34MOL0     H 4569   7.141  -2.163  10.236  0.4349 -0.3170 -0.5800
   34MOL0     H 4570   7.608  -1.690   9.517  3.6308  2.1996  1.3649
   34MOL0     H 4571   7.769  -1.499   9.425 -0.2630  1.1971  1.9136
   34MOL0     H 4572   8.013  -1.066   9.469  0.2297 -2.4758 -0.4054
   34MOL0     H 4573   8.138  -0.890   9.326 -0.9242  2.7157  0.3886
   34MOL0     H 4574   7.804   0.376   7.814  0.8621  0.5352  2.4749
   34MOL0     H 4575   7.746   0.584   7.669 -0.8695  0.1557 -0.2111
   34MOL0     H 4576   7.249   0.936   7.549  0.5842 -0.5607  1.1933
   34MOL0     H 4577   7.275   1.128   7.374  0.8860  1.4249 -0.4581
   34MOL0     H 4578   7.336   1.195   7.167  0.9622 -1.5590  0.1178
   34MOL0     H 4579   7.446   1.327   7.129  0.0048 -2.9388 -2.8166
   34MOL0     H 4580   7.365   1.356   7.414  0.5195  0.6510  0.8684
   34MOL0     H 4581   7.221   1.370   7.299  0.2460 -2.0931 -0.5113
   34MOL0     H 4582   7.383   1.533   7.175 -3.6015 -1.1703 -0.2850
   34MOL0     H 4583   7.481   1.514   7.321 -0.6655 -2.7882  0.0133
   34MOL0     H 4584   7.184   1.589   7.335 -1.8711  2.7059  0.5286
   34MOL0     H 4585   7.306   1.607   7.462  2.8576 -0.4587 -0.7315
   34MOL0     H 4586   7.344   1.971   7.240  0.6558  0.5234 -2.0237
   34MOL0     H 4587   7.690   1.084   7.397  1.8838  1.4882  3.2297
   34MOL0     H 4588   7.791   0.992   7.577  0.5990 -2.0062  0.0455
   34MOL0     H 4589   7.711   0.894   7.696  0.7681  0.5713 -0.3264
   34MOL0     H 4590   7.732   0.824   7.541 -6.3244 -1.7729 -0.6599
   35MOL0     O 4591   1.025   3.584   9.131  1.8712  0.0317  0.1266
   35MOL0     C 4592   1.084   3.485   9.084  0.0804 -0.8374 -0.2189
   35MOL0     O 4593   1.023   3.371   9.035  0.0215 -0.6584 -0.0105
   35MOL0     C 4594   0.890   3.365   9.036  0.8814  0.9766 -0.6708
   35MOL0     C 4595   0.806   3.394   9.150  0.4842 -0.0561 -0.1258
   35MOL0     C 4596   0.663   3.387   9.143  0.4238 -0.7361 -0.8600
   35MOL0     C 4597   0.610   3.338   9.023 -0.3054  0.1893 -0.5237
   35MOL0     O 4598   0.473   3.320   9.015  0.1088  0.1774  0.7374
   35MOL0     C 4599   0.410   3.233   8.918 -0.4071  0.1102  0.3955
   35MOL0     C 4600   0.248   3.229   8.917 -0.1406  1.4757 -0.6859
   35MOL0     C 4601   0.203   3.140   9.040  0.1894 -1.0120 -0.0652
   35MOL0     C 4602   0.143   3.237   9.153  0.6732 -0.5140 -0.6486
   35MOL0     C 4603   0.087   3.156   9.274 -0.0301 -1.4378 -0.0967
   35MOL0     C 4604  -0.016   3.232   9.360 -0.9981 -0.2040 -0.2187
   35MOL0     C 4605  -0.082   3.171   9.484  0.4357  0.0271 -0.2544
   35MOL0     C 4606  -0.211   3.257   9.533  0.2144 -0.1803  0.6766
   35MOL0     N 4607  -0.239   3.246   9.675  0.4400  0.7069 -0.2721
   35MOL0     C 4608  -0.339   3.180   9.746  0.2629 -1.3046 -0.1316
   35MOL0     C 4609  -0.310   3.183   9.874 -0.1472  1.0000 -0.9619
   35MOL0     C 4610  -0.394   3.132   9.984  0.2948 -0.0084  0.2112
   35MOL0     C 4611  -0.398   2.987  10.015 -0.1351  0.6257 -0.3249
   35MOL0     C 4612  -0.513   2.922   9.952 -0.5894  0.2375  0.1539
   35MOL0     C 4613  -0.510   2.773   9.958  0.0853  0.1848 -1.1220
   35MOL0     O 4614  -0.422   2.724   9.863  0.0209 -0.6267  0.1853
   35MOL0     C 4615  -0.403   2.592   9.865 -0.4011 -0.5560  0.0144
   35MOL0     C 4616  -0.479   2.492   9.928 -0.5880  0.5015  0.1304
   35MOL0     C 4617  -0.435   2.363   9.935  1.4071  0.4557  0.0469
   35MOL0     C 4618  -0.302   2.323   9.908 -0.0744 -0.2740  0.5552
   35MOL0     C 4619  -0.255   2.185   9.922  0.1625 -0.7556  0.2230
   35MOL0     O 4620  -0.118   2.172   9.903 -0.0275 -0.2735 -0.7330
   35MOL0     C 4621  -0.040   2.070   9.929  0.8732  1.5778  0.0805
   35MOL0     C 4622   0.099   2.097   9.923  0.2416 -0.4338  0.6550
   35MOL0     C 4623   0.191   1.997   9.932  1.4820  0.4701 -0.0999
   35MOL0     C 4624   0.151   1.863   9.948  0.3909  0.0725 -0.5589
   35MOL0     O 4625   0.248   1.767   9.980  0.6707 -0.7071  0.3402
   35MOL0     C 4626   0.257   1.678   9.862  0.3512 -0.3690 -0.0286
   35MOL0     C 4627   0.378   1.582   9.891  1.2981 -0.1443  0.6522
   35MOL0     C 4628   0.359   1.493  10.019  0.9190  0.4429 -0.4447
   35MOL0     C 4629   0.498   1.471  10.086 -0.0709 -0.8581 -0.3679
   35MOL0     C 4630   0.519   1.379  10.210  0.4379 -0.3642  0.7726
   35MOL0     C 4631   0.477   1.238  10.178  0.2107 -0.3244 -0.2427
   35MOL0     C 4632   0.518   1.140  10.288 -1.0685  0.0471  1.8603
   35MOL0     C 4633   0.668   1.095  10.281 -0.9675 -0.5176 -0.2988
   35MOL0    Cl 4634   0.700   0.964  10.156 -0.2860  0.4046  0.5279
   35MOL0     C 4635   0.011   1.826   9.955  0.6810 -0.0536 -0.2304
   35MOL0     C 4636  -0.085   1.932   9.949 -0.5855 -0.7751  0.7407
   35MOL0     O 4637  -0.329   2.099   9.969 -0.5835  0.3138  1.0993
   35MOL0     C 4638  -0.221   2.427   9.848  0.5099  0.4886 -0.3240
   35MOL0     C 4639  -0.274   2.556   9.829  0.0599  0.4214 -0.3887
   35MOL0     N 4640  -0.186   3.247   9.886 -0.8237 -0.4689  0.3504
   35MOL0     N 4641  -0.151   3.290   9.767  0.7956 -1.2548  0.4671
   35MOL0     C 4642   0.694   3.309   8.908 -0.0153 -0.7246 -0.5867
   35MOL0     C 4643   0.833   3.312   8.928 -0.5706  0.2938  0.2085
   35MOL0     C 4644   1.234   3.498   9.087 -0.2468 -0.3381  1.0611
   35MOL0     C 4645   1.302   3.446   8.974  0.2762 -0.0421 -1.1453
   35MOL0     C 4646   1.435   3.475   8.957  0.3061  0.1337 -0.0886
   35MOL0     C 4647   1.503   3.531   9.059 -0.3244  0.6762 -0.4496
   35MOL0     O 4648   1.637   3.551   9.035  0.9719  0.1995  0.1265
   35MOL0     C 4649   1.727   3.546   9.149  0.3668  0.8850 -0.3226
   35MOL0     C 4650   1.787   3.683   9.172  0.4426 -0.6422 -1.0691
   35MOL0     C 4651   1.893   3.716   9.075 -0.0522 -0.1208 -0.0830
   35MOL0     C 4652   1.977   3.829   9.125 -1.0725  0.5830 -0.1504
   35MOL0     C 4653   2.113   3.777   9.180  0.4511 -0.2409 -0.4601
   35MOL0     C 4654   2.203   3.729   9.247 -0.2463 -0.0209 -0.2403
   35MOL0     C 4655   1.445   3.577   9.171 -1.6525  0.3384 -0.2202
   35MOL0     C 4656   1.305   3.552   9.190  0.0299 -0.4876 -0.1633
   35MOL0     C 4657   1.243   3.605   9.322  0.0576 -0.1953  0.5107
   35MOL0     H 4658   0.837   3.421   9.250  0.9176 -0.8308 -0.0493
   35MOL0     H 4659   0.598   3.409   9.227  1.0169 -0.2915 -0.5120
   35MOL0     H 4660   0.432   3.280   8.822 -0.4172  3.2241  1.8022
   35MOL0     H 4661   0.455   3.133   8.922  0.5740  0.4378 -1.5426
   35MOL0     H 4662   0.204   3.187   8.825 -2.9553 -2.8375  2.2271
   35MOL0     H 4663   0.213   3.331   8.934  1.7210  2.5661 -2.8690
   35MOL0     H 4664   0.275   3.064   9.071 -2.1533 -3.2225  0.3503
   35MOL0     H 4665   0.116   3.086   9.002 -0.9405  0.7690 -0.1099
   35MOL0     H 4666   0.226   3.301   9.186 -1.2240  1.2993  0.8808
   35MOL0     H 4667   0.061   3.293   9.108 -0.5602 -2.7876 -1.3899
   35MOL0     H 4668   0.046   3.058   9.247 -4.2845 -0.0838  0.6662
   35MOL0     H 4669   0.171   3.134   9.341  1.7477  1.6973 -1.1042
   35MOL0     H 4670   0.021   3.331   9.389 -2.1951 -0.4246  2.4372
   35MOL0     H 4671  -0.097   3.257   9.290 -0.1624  1.7191 -0.5759
   35MOL0     H 4672  -0.017   3.168   9.571  1.8631  0.8373 -1.2536
   35MOL0     H 4673  -0.115   3.068   9.468  3.2860 -1.1242  0.7077
   35MOL0     H 4674  -0.188   3.363   9.520 -1.7805  0.4350  1.7404
   35MOL0     H 4675  -0.296   3.223   9.473 -1.5788  1.1434  2.3227
   35MOL0     H 4676  -0.431   3.138   9.705 -2.1295  0.8756  2.5629
   35MOL0     H 4677  -0.348   3.162  10.079  2.1995 -0.3671 -0.5561
   35MOL0     H 4678  -0.497   3.163   9.968  0.6262 -0.2165 -3.0218
   35MOL0     H 4679  -0.308   2.934   9.984 -0.7028 -0.7413  0.2871
   35MOL0     H 4680  -0.398   2.980  10.124 -1.5968  1.2414 -0.2688
   35MOL0     H 4681  -0.527   2.957   9.850  0.7901 -2.5779 -1.1249
   35MOL0     H 4682  -0.601   2.954  10.009 -0.5360 -1.6840  1.4170
   35MOL0     H 4683  -0.607   2.723   9.953  0.8913 -1.8968  1.6800
   35MOL0     H 4684  -0.470   2.752  10.058 -1.5426 -1.5812 -0.7842
   35MOL0     H 4685  -0.574   2.521   9.971  0.0870  5.3364 -1.1406
   35MOL0     H 4686  -0.493   2.291   9.992  3.4280  1.1456  3.1669
   35MOL0     H 4687   0.118   2.204   9.922  0.6957 -0.4742  2.1533
   35MOL0     H 4688   0.299   2.002   9.920  1.6837 -0.7729  0.8991
   35MOL0     H 4689   0.166   1.617   9.863 -1.9162  2.7558  1.1790
   35MOL0     H 4690   0.271   1.724   9.763  1.1512  1.0345  0.7105
   35MOL0     H 4691   0.381   1.523   9.800 -1.3376  1.4878 -0.6372
   35MOL0     H 4692   0.468   1.645   9.885  0.3932  1.1590  0.2470
   35MOL0     H 4693   0.290   1.530  10.095 -1.3047 -1.2271 -1.5270
   35MOL0     H 4694   0.313   1.400   9.984 -1.0975  1.2235 -0.0052
   35MOL0     H 4695   0.526   1.568  10.127 -0.0636 -1.6069  1.5276
   35MOL0     H 4696   0.562   1.446  10.000  1.6414  1.9183 -0.0291
   35MOL0     H 4697   0.472   1.409  10.303  2.7380  3.4254  0.8933
   35MOL0     H 4698   0.626   1.385  10.231  0.4569 -0.4417  0.6995
   35MOL0     H 4699   0.368   1.232  10.168 -0.9312 -0.3409  7.1243
   35MOL0     H 4700   0.522   1.194  10.088 -1.4026  0.3048 -1.4208
   35MOL0     H 4701   0.464   1.044  10.281  1.3997 -1.3083 -1.8112
   35MOL0     H 4702   0.493   1.181  10.386  0.5298 -2.4938  3.4475
   35MOL0     H 4703   0.727   1.185  10.261 -0.5654 -0.9072 -0.8926
   35MOL0     H 4704   0.703   1.057  10.377 -1.5344  1.7416  0.8827
   35MOL0     H 4705  -0.014   1.722   9.970  0.8176 -0.2699 -1.3977
   35MOL0     H 4706  -0.190   1.906   9.945 -0.8487  0.3110 -2.6142
   35MOL0     H 4707  -0.118   2.405   9.823 -0.4940 -1.6216 -3.1451
   35MOL0     H 4708  -0.207   2.636   9.797 -0.4351  2.1054  2.4310
   35MOL0     H 4709   0.643   3.269   8.820 -1.8063  0.4778 -0.1307
   35MOL0     H 4710   0.897   3.281   8.845 -0.2701 -3.5375  1.6597
   35MOL0     H 4711   1.241   3.404   8.894  0.5298 -0.0409 -1.3420
   35MOL0     H 4712   1.491   3.443   8.870 -0.4597  0.3971 -0.6943
   35MOL0     H 4713   1.815   3.485   9.128 -0.9336 -1.2533  0.0981
   35MOL0     H 4714   1.686   3.504   9.241  4.2059 -4.4072 -0.5659
   35MOL0     H 4715   1.821   3.691   9.276 -2.4465  2.0410 -0.1950
   35MOL0     H 4716   1.716   3.766   9.164 -0.0860 -0.3718  3.4354
   35MOL0     H 4717   1.842   3.751   8.984 -1.0379  0.1902  0.5768
   35MOL0     H 4718   1.963   3.636   9.047  1.7717  1.1275  0.7553
   35MOL0     H 4719   1.997   3.901   9.046 -1.3336 -0.8949 -1.6138
   35MOL0     H 4720   1.925   3.882   9.205 -2.1841  2.0306 -1.7817
   35MOL0     H 4721   2.283   3.682   9.300 -3.0758 -2.0822  2.6284
   35MOL0     H 4722   1.510   3.626   9.243  0.1699 -1.6450 -0.4141
   35MOL0     H 4723   1.217   3.531   9.398  4.0209 -1.3829  0.9059
   35MOL0     H 4724   1.316   3.678   9.359 -1.4751  0.1709  3.0438
   35MOL0     H 4725   1.156   3.666   9.295  2.0188  2.0135 -1.3240
   36MOL0     O 4726   3.985   4.209   3.675 -0.3694  0.3443 -0.3613
   36MOL0     C 4727   3.878   4.167   3.718 -0.5647 -0.1414  0.5980
   36MOL0     O 4728   3.818   4.050   3.665  0.2657  1.0070  0.4951
   36MOL0     C 4729   3.852   3.987   3.541 -0.0948 -0.1601 -1.2090
   36MOL0     C 4730   3.920   4.061   3.439  0.7505  0.1945 -0.4329
   36MOL0     C 4731   3.957   4.002   3.314 -0.8936  0.3857 -0.5461
   36MOL0     C 4732   3.919   3.868   3.289 -1.0687  0.4927 -0.1023
   36MOL0     O 4733   3.952   3.806   3.166 -0.3085  0.3955  0.0893
   36MOL0     C 4734   4.048   3.859   3.075 -0.9932 -0.6518 -0.6165
   36MOL0     C 4735   4.134   3.747   2.999  0.3739 -0.1096  0.0362
   36MOL0     C 4736   4.254   3.781   2.898  0.1613  0.1287 -0.8870
   36MOL0     C 4737   4.289   3.646   2.844 -0.7889 -0.4002 -0.0323
   36MOL0     C 4738   4.400   3.646   2.736 -1.1220  0.0706  0.0265
   36MOL0     C 4739   4.414   3.508   2.672 -0.4760  1.0869  0.7921
   36MOL0     C 4740   4.447   3.398   2.769 -0.0243  0.5389  0.8786
   36MOL0     C 4741   4.475   3.255   2.708 -1.2932  0.0823 -0.0019
   36MOL0     N 4742   4.601   3.244   2.641 -0.9030  0.2576 -0.2797
   36MOL0     C 4743   4.725   3.179   2.671 -0.5592 -0.2585  0.5823
   36MOL0     C 4744   4.805   3.218   2.573 -0.3389 -0.4522  0.1973
   36MOL0     C 4745   4.951   3.182   2.565  0.1815 -0.7395  0.3870
   36MOL0     C 4746   5.037   3.267   2.466  0.0002 -0.1581 -0.2113
   36MOL0     C 4747   5.186   3.226   2.468 -0.3469 -0.2547  0.4198
   36MOL0     C 4748   5.286   3.324   2.398  1.1314 -0.8196  0.6767
   36MOL0     O 4749   5.256   3.317   2.255  0.3142  0.2231 -0.4743
   36MOL0     C 4750   5.358   3.368   2.172 -0.4092  0.0346 -0.3410
   36MOL0     C 4751   5.397   3.502   2.172  0.1126  0.0629  0.4071
   36MOL0     C 4752   5.482   3.556   2.073  0.1406 -1.1509  0.6372
   36MOL0     C 4753   5.551   3.470   1.983 -1.0601  0.4349 -0.4337
   36MOL0     C 4754   5.667   3.504   1.895  0.8509  0.6782 -0.6533
   36MOL0     O 4755   5.719   3.627   1.909  0.8463  0.3111 -0.2566
   36MOL0     C 4756   5.849   3.655   1.870 -0.3456 -0.5421 -1.7001
   36MOL0     C 4757   5.885   3.789   1.888 -0.6179 -0.0981  0.8627
   36MOL0     C 4758   6.021   3.809   1.871  0.6336  0.0477  0.1014
   36MOL0     C 4759   6.126   3.716   1.862 -0.4367 -0.3091 -0.1326
   36MOL0     O 4760   6.258   3.748   1.845  0.0906 -0.0547  0.7319
   36MOL0     C 4761   6.307   3.880   1.875  0.2911  1.0268 -0.3879
   36MOL0     C 4762   6.458   3.882   1.849  1.1391  0.2333  0.2974
   36MOL0     C 4763   6.492   3.869   1.700  0.0967 -0.2293 -1.1608
   36MOL0     C 4764   6.565   3.988   1.651 -1.4426  0.7072  0.7326
   36MOL0     C 4765   6.575   3.988   1.500  0.3293 -0.3249 -0.1232
   36MOL0     C 4766   6.612   3.849   1.431  0.4460 -0.6488 -0.8764
   36MOL0     C 4767   6.757   3.827   1.458 -0.0578 -0.0220  0.3952
   36MOL0     C 4768   6.827   3.707   1.383  0.2180 -0.2008  0.5280
   36MOL0    Cl 4769   6.769   3.550   1.460  0.1876  0.0860 -0.0016
   36MOL0     C 4770   6.086   3.587   1.855  0.3365  0.2133  0.3159
   36MOL0     C 4771   5.948   3.555   1.861 -0.5289 -0.6408 -0.4571
   36MOL0     O 4772   5.697   3.412   1.819  0.6155  0.2929 -0.1434
   36MOL0     C 4773   5.516   3.334   1.998  0.3402  0.3264 -0.1965
   36MOL0     C 4774   5.426   3.287   2.093  0.2902  0.6077  0.2316
   36MOL0     N 4775   4.729   3.280   2.475 -0.1937 -0.5391 -0.5465
   36MOL0     N 4776   4.607   3.302   2.523 -0.4797 -0.7198 -0.4842
   36MOL0     C 4777   3.839   3.798   3.385 -0.1947  0.3739 -0.1193
   36MOL0     C 4778   3.822   3.849   3.518  0.9829 -1.4111 -0.0499
   36MOL0     C 4779   3.826   4.230   3.841  0.0327  0.4040  0.5890
   36MOL0     C 4780   3.908   4.319   3.917  0.3065  0.3047  0.3350
   36MOL0     C 4781   3.864   4.387   4.029  0.7323 -0.1618 -0.1429
   36MOL0     C 4782   3.742   4.357   4.080  0.2445  0.2356 -0.8188
   36MOL0     O 4783   3.707   4.404   4.202  0.2841 -0.3971 -0.2065
   36MOL0     C 4784   3.779   4.341   4.308  0.0100 -0.8720  0.0030
   36MOL0     C 4785   3.675   4.338   4.417  0.6634 -0.4572  0.9017
   36MOL0     C 4786   3.567   4.234   4.402 -1.3162  0.4864  0.2994
   36MOL0     C 4787   3.484   4.213   4.527  0.8928 -1.1484  0.7657
   36MOL0     C 4788   3.427   4.341   4.590  0.1305 -0.1673  0.8870
   36MOL0     C 4789   3.399   4.448   4.630  1.3127 -0.5578 -0.5124
   36MOL0     C 4790   3.654   4.287   4.009  1.0158  0.0107  0.7992
   36MOL0     C 4791   3.697   4.219   3.889  1.1482 -0.4502  0.1301
   36MOL0     C 4792   3.578   4.150   3.824  0.8230  0.1123 -0.4275
   36MOL0     H 4793   3.954   4.164   3.440  1.6647  0.0951 -4.3296
   36MOL0     H 4794   3.998   4.074   3.244  2.1457 -2.2037 -1.6845
   36MOL0     H 4795   4.000   3.941   3.020  0.3365  2.5307  2.5542
   36MOL0     H 4796   4.123   3.921   3.124  0.4013 -0.0978 -3.2233
   36MOL0     H 4797   4.063   3.701   2.929  0.3957 -0.3636  0.1826
   36MOL0     H 4798   4.166   3.673   3.072 -0.9250  0.7106  1.4999
   36MOL0     H 4799   4.336   3.833   2.947 -0.3191  1.4282 -1.4355
   36MOL0     H 4800   4.223   3.851   2.820  0.4338  0.0415 -1.0727
   36MOL0     H 4801   4.319   3.585   2.929 -2.7313  0.0651  1.0463
   36MOL0     H 4802   4.199   3.608   2.792 -2.9762  0.9082  2.5485
   36MOL0     H 4803   4.390   3.714   2.650 -0.0621 -2.3559 -2.1375
   36MOL0     H 4804   4.490   3.678   2.789 -1.1554 -0.1873  0.2399
   36MOL0     H 4805   4.317   3.482   2.630  0.0155  0.0147  0.2758
   36MOL0     H 4806   4.496   3.519   2.600 -0.8668 -0.2020  0.1092
   36MOL0     H 4807   4.357   3.386   2.830 -2.0629 -0.4882 -2.0840
   36MOL0     H 4808   4.525   3.440   2.833  2.5383 -3.5896  0.8282
   36MOL0     H 4809   4.469   3.186   2.793  1.5098 -1.3564 -0.8508
   36MOL0     H 4810   4.398   3.223   2.636  0.5290  0.2857 -2.1359
   36MOL0     H 4811   4.759   3.132   2.763 -1.7510 -1.5070  0.4300
   36MOL0     H 4812   4.984   3.186   2.669 -1.6657 -1.1504  1.0438
   36MOL0     H 4813   4.955   3.077   2.535  2.6575 -0.4171 -0.5923
   36MOL0     H 4814   4.993   3.253   2.367 -1.4022 -3.0112  0.7035
   36MOL0     H 4815   5.033   3.374   2.490  2.7178  0.3223 -1.5257
   36MOL0     H 4816   5.204   3.128   2.423  2.4719  0.7126 -0.7748
   36MOL0     H 4817   5.217   3.201   2.570  2.6457 -0.5137 -0.4679
   36MOL0     H 4818   5.389   3.294   2.418  1.2393 -1.3262 -0.5621
   36MOL0     H 4819   5.281   3.430   2.426  5.4545 -0.5728  1.1884
   36MOL0     H 4820   5.347   3.571   2.238  2.2544 -0.2879  2.5649
   36MOL0     H 4821   5.508   3.661   2.072 -1.8784 -0.6038  1.1228
   36MOL0     H 4822   5.811   3.867   1.897  0.2770  0.7490  1.0315
   36MOL0     H 4823   6.041   3.913   1.895 -0.3407 -0.3351  2.9778
   36MOL0     H 4824   6.255   3.961   1.823 -0.2573  1.1818  0.3814
   36MOL0     H 4825   6.285   3.887   1.982  1.1449 -0.7690 -0.0626
   36MOL0     H 4826   6.492   3.969   1.907  2.7715  0.8482 -1.4678
   36MOL0     H 4827   6.515   3.799   1.891  2.0539 -0.0986 -1.4776
   36MOL0     H 4828   6.549   3.775   1.697  1.4210  0.2438  3.1069
   36MOL0     H 4829   6.405   3.845   1.639 -0.6703  0.7024 -0.4546
   36MOL0     H 4830   6.668   3.980   1.687 -0.1597 -0.4324 -2.7270
   36MOL0     H 4831   6.513   4.079   1.682 -0.0531  1.8311 -0.1231
   36MOL0     H 4832   6.642   4.069   1.469 -0.0176  2.0423  4.4664
   36MOL0     H 4833   6.474   4.016   1.467 -0.6569 -1.0759  2.1001
   36MOL0     H 4834   6.550   3.774   1.481 -0.0206 -0.2937 -0.9102
   36MOL0     H 4835   6.586   3.849   1.325 -1.0669  1.9636 -0.6038
   36MOL0     H 4836   6.762   3.811   1.566  2.4621 -1.6382  0.1375
   36MOL0     H 4837   6.809   3.922   1.440  2.9590 -1.8138 -1.2101
   36MOL0     H 4838   6.806   3.714   1.275 -2.0397  1.9730  1.0240
   36MOL0     H 4839   6.936   3.704   1.393  0.3726  0.9319 -0.5413
   36MOL0     H 4840   6.155   3.503   1.851  0.8963  0.6216  1.1261
   36MOL0     H 4841   5.926   3.450   1.877  3.7842 -1.6131  0.3384
   36MOL0     H 4842   5.550   3.256   1.931  3.3096 -2.7457  4.2947
   36MOL0     H 4843   5.406   3.180   2.095  4.3853 -0.3884 -1.8379
   36MOL0     H 4844   3.792   3.702   3.367 -3.4934  2.0388 -1.1699
   36MOL0     H 4845   3.774   3.781   3.588 -2.2536 -1.7832 -2.3811
   36MOL0     H 4846   4.008   4.339   3.880 -0.7936  0.1411 -3.0730
   36MOL0     H 4847   3.926   4.455   4.086 -0.7284 -0.0193  1.3491
   36MOL0     H 4848   3.869   4.395   4.340 -1.3674  2.8655 -1.9328
   36MOL0     H 4849   3.823   4.245   4.278  1.0358  0.1962 -2.1002
   36MOL0     H 4850   3.647   4.443   4.421 -0.5563 -0.7807  1.2275
   36MOL0     H 4851   3.723   4.319   4.514  1.9644 -0.6588  0.2342
   36MOL0     H 4852   3.593   4.132   4.374 -3.2137  0.0517 -0.0364
   36MOL0     H 4853   3.505   4.266   4.317 -0.1319 -1.2298 -1.2739
   36MOL0     H 4854   3.392   4.157   4.509 -1.1398  2.2438 -0.3985
   36MOL0     H 4855   3.540   4.150   4.597  0.6762 -3.1835 -0.7941
   36MOL0     H 4856   3.354   4.541   4.658 -1.7165 -0.8340 -3.7093
   36MOL0     H 4857   3.555   4.284   4.053  1.6853 -2.4243  2.3253
   36MOL0     H 4858   3.599   4.141   3.717  0.6769  2.0634 -0.6560
   36MOL0     H 4859   3.568   4.058   3.881 -0.6131  1.4764  1.6515
   36MOL0     H 4860   3.486   4.210   3.831  1.0235  0.5729 -1.5260
   37MOL0     O 4861   6.120   6.537   0.145 -0.1847  0.0347 -0.0514
   37MOL0     C 4862   6.208   6.626   0.155  0.5304  0.5785  0.2700
   37MOL0     O 4863   6.199   6.759   0.122  0.0241  0.3976  0.4696
   37MOL0     C 4864   6.077   6.802   0.076  0.5048 -0.8365 -0.8022
   37MOL0     C 4865   6.003   6.744  -0.027  0.4249  0.7039 -0.0481
   37MOL0     C 4866   5.907   6.821  -0.095  0.3787 -0.9933  0.3276
   37MOL0     C 4867   5.857   6.944  -0.042 -0.0569 -1.1631  0.4306
   37MOL0     O 4868   5.740   6.998  -0.092  0.1863  0.0443 -0.5741
   37MOL0     C 4869   5.694   7.123  -0.032  0.1867 -1.0105  1.0044
   37MOL0     C 4870   5.565   7.148  -0.100 -0.2429  0.3991 -0.2465
   37MOL0     C 4871   5.487   7.245  -0.016 -1.1462 -0.1245 -0.2965
   37MOL0     C 4872   5.351   7.273  -0.090  0.5090  0.0388 -0.7155
   37MOL0     C 4873   5.273   7.381  -0.021  0.6298 -0.7437  0.7579
   37MOL0     C 4874   5.131   7.402  -0.086 -0.8988 -0.1962  0.8899
   37MOL0     C 4875   5.038   7.280  -0.063  0.0802 -0.3552 -0.1122
   37MOL0     C 4876   4.881   7.319  -0.084 -0.3708 -0.3095  0.7364
   37MOL0     N 4877   4.855   7.338  -0.232 -0.3794  0.4518 -0.3234
   37MOL0     C 4878   4.872   7.465  -0.291 -0.3232  0.2841 -0.5625
   37MOL0     C 4879   4.841   7.436  -0.417 -0.5393  0.8544  0.6267
   37MOL0     C 4880   4.850   7.521  -0.541  0.4587 -0.6835 -0.7108
   37MOL0     C 4881   4.722   7.498  -0.628 -1.1030 -0.0108 -0.3196
   37MOL0     C 4882   4.705   7.598  -0.744  0.2661 -0.1211 -0.2809
   37MOL0     C 4883   4.803   7.595  -0.855 -0.8847  0.0381 -0.6224
   37MOL0     O 4884   4.774   7.694  -0.958 -0.1269 -0.0736  0.2969
   37MOL0     C 4885   4.866   7.713  -1.061 -0.1725  0.3127 -0.2231
   37MOL0     C 4886   4.993   7.651  -1.080  0.1081  0.5562 -0.0262
   37MOL0     C 4887   5.055   7.674  -1.207  0.1051 -0.4478 -0.9098
   37MOL0     C 4888   5.010   7.780  -1.287 -0.3753  0.4262  0.9118
   37MOL0     C 4889   5.078   7.824  -1.410  0.1247  0.5765  0.4826
   37MOL0     O 4890   5.168   7.732  -1.456 -0.2794 -0.6162  0.4814
   37MOL0     C 4891   5.239   7.765  -1.568  0.6427 -0.6789 -0.0200
   37MOL0     C 4892   5.324   7.879  -1.563 -0.5339  0.3559 -0.5203
   37MOL0     C 4893   5.388   7.928  -1.683  0.1806  0.5509 -0.0040
   37MOL0     C 4894   5.375   7.850  -1.800 -0.7156  0.0464  0.4706
   37MOL0     O 4895   5.438   7.858  -1.920  0.7880 -0.5471  0.9918
   37MOL0     C 4896   5.481   7.996  -1.969  0.7025 -0.2840  0.0526
   37MOL0     C 4897   5.607   7.983  -2.057 -0.0939 -0.3859  0.4768
   37MOL0     C 4898   5.583   7.905  -2.192  0.4715  0.4841  0.1213
   37MOL0     C 4899   5.711   7.874  -2.263 -0.6282 -0.0384  0.5847
   37MOL0     C 4900   5.751   7.730  -2.231 -0.2703  0.3310  0.0766
   37MOL0     C 4901   5.672   7.628  -2.305  0.2037  0.1849 -0.4640
   37MOL0     C 4902   5.718   7.476  -2.279 -0.3665  0.1869  0.2797
   37MOL0     C 4903   5.609   7.375  -2.321  0.3762  0.5291  0.0970
   37MOL0    Cl 4904   5.477   7.376  -2.199  0.2559  0.0152  0.4221
   37MOL0     C 4905   5.300   7.727  -1.798  0.5178 -0.0920  0.0411
   37MOL0     C 4906   5.233   7.688  -1.683 -0.1795  0.3807 -0.0218
   37MOL0     O 4907   5.053   7.935  -1.456 -0.9777  0.1282  0.4263
   37MOL0     C 4908   4.889   7.844  -1.257 -0.7860 -0.5722  0.9212
   37MOL0     C 4909   4.823   7.814  -1.149  0.6771 -0.1164  0.1214
   37MOL0     N 4910   4.804   7.296  -0.430  0.4571 -0.6274 -0.5923
   37MOL0     N 4911   4.798   7.252  -0.310 -0.2874 -0.0848 -0.6045
   37MOL0     C 4912   5.923   6.998   0.068 -0.0833 -0.0644 -0.3459
   37MOL0     C 4913   6.044   6.930   0.116 -0.9196 -0.5585 -0.5320
   37MOL0     C 4914   6.334   6.580   0.202  0.0816 -0.0987  0.2014
   37MOL0     C 4915   6.447   6.654   0.176  0.5003 -0.4710 -0.5148
   37MOL0     C 4916   6.575   6.615   0.217  0.8370  0.0475  0.2277
   37MOL0     C 4917   6.592   6.504   0.299 -0.2113 -0.5494 -0.8119
   37MOL0     O 4918   6.724   6.501   0.345  1.6028 -0.2627 -0.4439
   37MOL0     C 4919   6.760   6.384   0.422 -0.3647  0.2286 -0.1452
   37MOL0     C 4920   6.750   6.248   0.356  0.5797  0.0501 -0.5953
   37MOL0     C 4921   6.855   6.210   0.246 -0.1858 -0.0230  0.4112
   37MOL0     C 4922   6.922   6.330   0.170 -0.4209  0.2579 -0.5462
   37MOL0     C 4923   6.826   6.403   0.086 -0.5292 -0.1443 -0.4366
   37MOL0     C 4924   6.747   6.446   0.003  0.7539  0.0178  0.5305
   37MOL0     C 4925   6.478   6.430   0.339 -0.8166  0.8744  0.1275
   37MOL0     C 4926   6.353   6.466   0.286 -0.8627 -0.4142  0.3847
   37MOL0     C 4927   6.233   6.382   0.346 -0.2705  1.0299 -0.1734
   37MOL0     H 4928   6.028   6.647  -0.068  2.5113  1.4822 -0.7074
   37MOL0     H 4929   5.856   6.763  -0.172  3.0505  3.3535 -5.5013
   37MOL0     H 4930   5.674   7.116   0.075  0.4460  2.3995  1.3816
   37MOL0     H 4931   5.759   7.206  -0.062 -0.7498 -0.6126 -0.0278
   37MOL0     H 4932   5.509   7.055  -0.095 -0.0350 -0.1356 -4.2203
   37MOL0     H 4933   5.579   7.163  -0.208  1.2610 -2.9758 -0.6334
   37MOL0     H 4934   5.544   7.337  -0.009  2.7311 -2.2183 -1.3519
   37MOL0     H 4935   5.462   7.210   0.085  2.0464 -2.0638 -0.0427
   37MOL0     H 4936   5.370   7.300  -0.194 -1.7223  2.0484 -0.6704
   37MOL0     H 4937   5.292   7.181  -0.089 -1.9943  1.5484 -0.0706
   37MOL0     H 4938   5.282   7.359   0.086 -1.7436 -2.1713  0.7292
   37MOL0     H 4939   5.320   7.480  -0.020 -0.8113 -0.0427  1.9286
   37MOL0     H 4940   5.094   7.482  -0.021 -1.6484 -0.3582  0.6685
   37MOL0     H 4941   5.140   7.437  -0.189  1.6162 -0.9737  0.7714
   37MOL0     H 4942   5.041   7.253   0.043  1.5026  2.7182  0.7433
   37MOL0     H 4943   5.064   7.201  -0.133  4.3290  0.7148  0.0249
   37MOL0     H 4944   4.821   7.243  -0.035  2.4883 -2.3847  1.2629
   37MOL0     H 4945   4.854   7.415  -0.039 -1.5831 -0.9849  1.5047
   37MOL0     H 4946   4.902   7.555  -0.238  1.4532 -0.0428 -0.9505
   37MOL0     H 4947   4.886   7.621  -0.513  1.3635 -0.8767 -1.1548
   37MOL0     H 4948   4.932   7.471  -0.593  3.4067  2.9299  0.0323
   37MOL0     H 4949   4.733   7.400  -0.677 -1.6597 -0.3991  0.3105
   37MOL0     H 4950   4.639   7.510  -0.558  0.5902 -2.0353  2.2444
   37MOL0     H 4951   4.714   7.700  -0.706  4.0380 -1.0582  1.9384
   37MOL0     H 4952   4.601   7.594  -0.778 -0.2238  3.7936  0.3225
   37MOL0     H 4953   4.801   7.499  -0.909 -1.6587 -0.3270  0.0258
   37MOL0     H 4954   4.902   7.618  -0.816 -1.5755 -0.4320  1.5343
   37MOL0     H 4955   5.028   7.561  -1.030  1.7420  1.1830  0.0478
   37MOL0     H 4956   5.135   7.607  -1.236  1.8777  0.8887  0.6481
   37MOL0     H 4957   5.332   7.941  -1.474  0.6065  0.5892 -0.7707
   37MOL0     H 4958   5.445   8.021  -1.687  1.8141 -0.4140 -0.0108
   37MOL0     H 4959   5.407   8.045  -2.033 -0.8941  1.7765  3.2111
   37MOL0     H 4960   5.511   8.064  -1.889  0.3777 -0.3962  0.2714
   37MOL0     H 4961   5.646   8.084  -2.070 -0.2653 -0.1221  1.8400
   37MOL0     H 4962   5.688   7.936  -2.000  0.3647 -0.3006 -0.0927
   37MOL0     H 4963   5.531   7.813  -2.162 -0.4773  1.3620  1.2608
   37MOL0     H 4964   5.519   7.970  -2.252  0.1304 -0.2143 -0.2773
   37MOL0     H 4965   5.788   7.940  -2.221  0.4910  1.4539 -3.3559
   37MOL0     H 4966   5.688   7.896  -2.367 -1.9589  3.0193  1.3908
   37MOL0     H 4967   5.738   7.712  -2.124 -2.4628  0.8777 -0.0458
   37MOL0     H 4968   5.855   7.704  -2.253  0.6880  1.5369  2.6773
   37MOL0     H 4969   5.565   7.635  -2.285  0.6279  0.3360  2.0493
   37MOL0     H 4970   5.698   7.653  -2.408 -1.8102  0.8643 -0.8522
   37MOL0     H 4971   5.728   7.456  -2.172  1.9483  0.6208  0.2051
   37MOL0     H 4972   5.809   7.448  -2.333 -1.8019  0.4065 -2.4318
   37MOL0     H 4973   5.575   7.385  -2.424  1.1489 -0.5505 -0.2793
   37MOL0     H 4974   5.647   7.274  -2.301 -0.0395  0.0474 -1.4077
   37MOL0     H 4975   5.294   7.668  -1.889 -2.3408 -1.4115  0.9841
   37MOL0     H 4976   5.157   7.610  -1.684  0.9341 -0.7723 -2.4463
   37MOL0     H 4977   4.847   7.914  -1.328  0.3376 -1.0234 -0.2133
   37MOL0     H 4978   4.730   7.869  -1.153  1.6363  1.5276 -1.1997
   37MOL0     H 4979   5.901   7.087   0.126 -2.7868  0.4207 -1.9127
   37MOL0     H 4980   6.102   6.990   0.186  3.0547 -3.7675 -0.7610
   37MOL0     H 4981   6.452   6.751   0.128 -0.3728  0.5198  1.3037
   37MOL0     H 4982   6.654   6.689   0.203 -0.8386  1.4226 -3.0831
   37MOL0     H 4983   6.694   6.394   0.508  0.0555  1.1738  0.0872
   37MOL0     H 4984   6.862   6.396   0.460 -0.2066  2.0448 -1.0231
   37MOL0     H 4985   6.651   6.214   0.324  1.7342 -4.5741  0.0077
   37MOL0     H 4986   6.782   6.171   0.426  1.3088  1.1354  0.2782
   37MOL0     H 4987   6.804   6.152   0.168 -0.9014  0.0848  0.7912
   37MOL0     H 4988   6.940   6.155   0.290 -1.9561 -2.3133  1.1921
   37MOL0     H 4989   6.959   6.409   0.236  1.6528  1.7655 -3.3261
   37MOL0     H 4990   7.007   6.297   0.110 -0.4755 -0.9278 -0.0061
   37MOL0     H 4991   6.676   6.499  -0.057 -2.1311 -3.4688  0.5088
   37MOL0     H 4992   6.489   6.342   0.402  1.0430  0.7346 -0.3362
   37MOL0     H 4993   6.269   6.315   0.425 -0.4757  1.2348  0.0938
   37MOL0     H 4994   6.158   6.446   0.392  1.4861  3.7671 -0.8869
   37MOL0     H 4995   6.194   6.316   0.268  0.9280 -1.7494  1.4203
   38MOL0     O 4996   5.968   8.947  10.852  0.0841  0.1796  0.4681
   38MOL0     C 4997   6.090   8.955  10.850  0.1720 -1.1052  0.8853
   38MOL0     O 4998   6.175   8.841  10.858  0.2555  0.2656  0.8042
   38MOL0     C 4999   6.123   8.729  10.803  0.6014  0.9200  0.3519
   38MOL0     C 5000   6.168   8.682  10.683  0.3832 -0.2482 -0.2292
   38MOL0     C 5001   6.126   8.565  10.623  0.4568 -0.3234 -0.1286
   38MOL0     C 5002   6.029   8.488  10.681 -0.6036  1.3189 -0.4770
   38MOL0     O 5003   5.991   8.368  10.628  0.7728 -0.2999 -0.9455
   38MOL0     C 5004   6.092   8.273  10.592  0.4080 -0.5183  0.7787
   38MOL0     C 5005   6.189   8.245  10.707 -0.0851 -0.1225  0.0028
   38MOL0     C 5006   6.280   8.129  10.660 -0.0975  0.5855 -0.2032
   38MOL0     C 5007   6.214   7.986  10.661  0.0428  0.3640 -0.1325
   38MOL0     C 5008   6.317   7.879  10.665  0.0417 -0.3161  0.1621
   38MOL0     C 5009   6.241   7.738  10.666  0.2677  1.1370  0.0442
   38MOL0     C 5010   6.185   7.704  10.804 -1.3876 -0.1152 -1.3532
   38MOL0     C 5011   6.140   7.557  10.834 -0.9696  0.5608  0.3645
   38MOL0     N 5012   6.001   7.532  10.803 -0.7981  0.2797 -0.1057
   38MOL0     C 5013   5.961   7.435  10.727  0.0295 -0.0071 -0.1096
   38MOL0     C 5014   5.825   7.447  10.735 -0.1514 -1.0230  0.5501
   38MOL0     C 5015   5.736   7.352  10.668  0.8332 -0.1001 -0.0734
   38MOL0     C 5016   5.654   7.262  10.772 -0.5298 -1.0039  0.2058
   38MOL0     C 5017   5.748   7.158  10.841  0.2349  0.1920 -1.7080
   38MOL0     C 5018   5.669   7.068  10.938 -0.7873 -0.1537 -0.6801
   38MOL0     O 5019   5.596   7.146  11.039 -0.0861 -0.1762  0.3888
   38MOL0     C 5020   5.481   7.080  11.077 -0.3564 -0.2751  0.2858
   38MOL0     C 5021   5.359   7.152  11.100 -0.5477  0.2493 -0.7585
   38MOL0     C 5022   5.241   7.088  11.138  0.5275 -0.0961 -0.5440
   38MOL0     C 5023   5.239   6.948  11.164 -2.0277 -0.9922  0.3145
   38MOL0     C 5024   5.127   6.883  11.236  0.6893  0.6130 -0.0021
   38MOL0     O 5025   5.035   6.969  11.284 -0.1780  0.3999 -0.8446
   38MOL0     C 5026   4.936   6.927  11.377  0.6175 -0.3163  1.3717
   38MOL0     C 5027   4.980   6.909  11.501  0.3350  0.0276 -0.5221
   38MOL0     C 5028   4.883   6.886  11.598 -0.7531 -0.4976 -0.2840
   38MOL0     C 5029   4.753   6.876  11.563  0.0140  0.2449  0.5731
   38MOL0     O 5030   4.651   6.858  11.663  0.2054  0.2249  0.7676
   38MOL0     C 5031   4.532   6.776  11.641 -1.1874 -0.0802 -0.0238
   38MOL0     C 5032   4.561   6.637  11.587  0.2009 -0.7339  0.2184
   38MOL0     C 5033   4.434   6.551  11.563  0.2870  0.4841 -0.4814
   38MOL0     C 5034   4.333   6.533  11.685 -0.1893 -0.7948  0.1621
   38MOL0     C 5035   4.237   6.658  11.718 -1.0886  0.1226  1.0457
   38MOL0     C 5036   4.149   6.640  11.837 -0.0995 -0.5193 -0.1565
   38MOL0     C 5037   4.233   6.634  11.969  0.8135 -0.0626 -0.3553
   38MOL0     C 5038   4.154   6.563  12.074  0.4766 -0.0015 -0.2144
   38MOL0    Cl 5039   4.128   6.654  12.225 -0.6431  0.1625  0.5938
   38MOL0     C 5040   4.715   6.896  11.435  0.9997 -0.3070  0.6926
   38MOL0     C 5041   4.807   6.910  11.328  0.4066 -0.9427 -0.8453
   38MOL0     O 5042   5.132   6.762  11.262  0.3540 -0.3495 -0.2427
   38MOL0     C 5043   5.354   6.876  11.136 -0.0137  0.3553 -0.3903
   38MOL0     C 5044   5.471   6.941  11.095 -0.6220 -0.8448 -0.8969
   38MOL0     N 5045   5.794   7.534  10.835 -0.7087 -0.3190 -0.2676
   38MOL0     N 5046   5.906   7.577  10.886  0.6223  0.7602  0.0031
   38MOL0     C 5047   5.972   8.526  10.803 -0.6342 -0.5904 -0.0288
   38MOL0     C 5048   6.026   8.637  10.868 -0.6409  1.0639 -0.0833
   38MOL0     C 5049   6.159   9.088  10.843 -0.5273 -1.1114 -0.1651
   38MOL0     C 5050   6.272   9.099  10.926  0.9235  0.0158 -1.2350
   38MOL0     C 5051   6.343   9.220  10.935  0.8884  0.1923 -0.9315
   38MOL0     C 5052   6.308   9.318  10.840  0.3828  0.4577  0.7575
   38MOL0     O 5053   6.372   9.440  10.839  0.6118  0.8954  0.2449
   38MOL0     C 5054   6.501   9.450  10.785 -0.2014  0.6189  0.2474
   38MOL0     C 5055   6.502   9.456  10.638 -0.7815 -0.9787  0.4740
   38MOL0     C 5056   6.616   9.552  10.590 -0.6883  0.4878 -0.2930
   38MOL0     C 5057   6.654   9.552  10.432 -0.2802  0.4538  0.4260
   38MOL0     C 5058   6.736   9.436  10.398  1.0445 -0.0562  0.4547
   38MOL0     C 5059   6.810   9.348  10.361  0.5001  0.6517 -0.5937
   38MOL0     C 5060   6.201   9.301  10.751 -0.1894 -0.7230 -0.9588
   38MOL0     C 5061   6.131   9.186  10.749  0.4924  0.0997  0.5511
   38MOL0     C 5062   6.017   9.180  10.653 -0.6664  0.8523 -1.0079
   38MOL0     H 5063   6.249   8.739  10.640  2.3633 -0.5598  2.7605
   38MOL0     H 5064   6.172   8.539  10.529  1.0032  0.3410 -0.0535
   38MOL0     H 5065   6.042   8.180  10.563  2.9678 -0.6756 -4.2724
   38MOL0     H 5066   6.140   8.307  10.500 -0.2851  0.2280  0.6818
   38MOL0     H 5067   6.144   8.226  10.805 -0.2146  0.1336 -0.0072
   38MOL0     H 5068   6.248   8.337  10.711  1.6548 -1.1637 -0.5609
   38MOL0     H 5069   6.363   8.132  10.731 -1.4621  2.0868  1.4584
   38MOL0     H 5070   6.324   8.143  10.561  1.4854 -2.4449 -0.0377
   38MOL0     H 5071   6.138   7.979  10.740  0.6144 -0.2557  0.3691
   38MOL0     H 5072   6.159   7.974  10.568 -0.7266  4.7542 -0.4755
   38MOL0     H 5073   6.389   7.886  10.582 -3.9217 -1.1546 -3.7800
   38MOL0     H 5074   6.374   7.897  10.756  2.7099 -1.1808 -1.2189
   38MOL0     H 5075   6.169   7.732  10.584 -0.4435  0.7346  0.6865
   38MOL0     H 5076   6.315   7.661  10.641  0.7435  1.1347  1.3860
   38MOL0     H 5077   6.099   7.768  10.824 -1.2875 -0.1699 -0.7473
   38MOL0     H 5078   6.273   7.723  10.865 -1.0339 -1.7155 -1.3107
   38MOL0     H 5079   6.198   7.476  10.788  0.0337  0.0857  2.3233
   38MOL0     H 5080   6.152   7.533  10.940 -0.7836 -0.3057  0.1548
   38MOL0     H 5081   5.996   7.360  10.656 -2.0268 -0.5329 -0.6401
   38MOL0     H 5082   5.669   7.399  10.595  2.3021  2.7456  0.2521
   38MOL0     H 5083   5.798   7.284  10.609  0.2771  0.4400 -1.3256
   38MOL0     H 5084   5.597   7.328  10.838 -0.6182  0.7932 -1.5658
   38MOL0     H 5085   5.586   7.198  10.715 -1.6163 -0.3221  0.7046
   38MOL0     H 5086   5.820   7.207  10.906 -0.7824  1.5465 -1.5614
   38MOL0     H 5087   5.803   7.096  10.770  3.0407 -1.0991  1.3724
   38MOL0     H 5088   5.744   7.003  10.984  1.4188  1.4675 -1.7663
   38MOL0     H 5089   5.593   7.018  10.877 -2.0387  0.2648  0.4964
   38MOL0     H 5090   5.389   7.257  11.106  1.1892 -0.2314  4.8233
   38MOL0     H 5091   5.156   7.151  11.163  0.7987 -0.5481  1.7117
   38MOL0     H 5092   5.085   6.921  11.523  0.9673 -2.0972 -2.1559
   38MOL0     H 5093   4.918   6.899  11.700  1.2986 -1.5593 -0.7869
   38MOL0     H 5094   4.483   6.772  11.738 -0.4075  1.4058  0.4652
   38MOL0     H 5095   4.473   6.833  11.568 -0.4601  0.0389 -0.5363
   38MOL0     H 5096   4.623   6.633  11.497  0.4739  0.5631  0.3291
   38MOL0     H 5097   4.617   6.585  11.665  0.1799 -0.7753  0.2057
   38MOL0     H 5098   4.386   6.602  11.479  0.9847  3.0404  0.5680
   38MOL0     H 5099   4.466   6.452  11.530  0.0750  0.1201  0.3861
   38MOL0     H 5100   4.406   6.506  11.762 -0.4577 -2.6295 -0.1992
   38MOL0     H 5101   4.263   6.449  11.682 -0.2696 -0.7290  0.1933
   38MOL0     H 5102   4.187   6.697  11.629 -1.3157 -2.8124 -0.2320
   38MOL0     H 5103   4.303   6.735  11.759 -3.9262  1.7838  2.8852
   38MOL0     H 5104   4.082   6.725  11.837  0.1546 -0.3025  0.7400
   38MOL0     H 5105   4.088   6.550  11.828 -0.6207 -0.3459  1.3128
   38MOL0     H 5106   4.253   6.738  11.998  0.3439 -0.8050  2.9953
   38MOL0     H 5107   4.323   6.575  11.953  3.0333  2.9818  0.0540
   38MOL0     H 5108   4.051   6.551  12.038  0.0244 -2.2675  1.5800
   38MOL0     H 5109   4.194   6.461  12.084  0.7985  0.2223  0.8992
   38MOL0     H 5110   4.612   6.926  11.418  1.5684  1.2487 -0.2246
   38MOL0     H 5111   4.765   6.926  11.229  1.5348 -1.6553 -1.4592
   38MOL0     H 5112   5.366   6.769  11.152  3.9817  0.3164 -2.3049
   38MOL0     H 5113   5.565   6.888  11.087  0.8245  1.7316 -2.2497
   38MOL0     H 5114   5.894   8.458  10.835  0.2642 -2.3736 -1.4686
   38MOL0     H 5115   5.997   8.655  10.970  0.2407 -1.0197  0.5984
   38MOL0     H 5116   6.299   9.015  10.990  2.6914  2.1247  0.9638
   38MOL0     H 5117   6.422   9.236  11.007 -0.1075 -0.3843  0.3160
   38MOL0     H 5118   6.565   9.367  10.815  1.0635  1.7270  0.7463
   38MOL0     H 5119   6.552   9.541  10.818 -1.7263  1.9296 -0.8825
   38MOL0     H 5120   6.411   9.507  10.604 -1.2872 -2.7157 -0.9165
   38MOL0     H 5121   6.507   9.355  10.597 -1.7515 -0.5648 -0.7499
   38MOL0     H 5122   6.703   9.514  10.644 -2.8888 -2.1018  1.7534
   38MOL0     H 5123   6.600   9.654  10.627  0.3064  0.9239 -1.0186
   38MOL0     H 5124   6.570   9.554  10.361  2.5975 -0.9891 -3.3700
   38MOL0     H 5125   6.716   9.639  10.411  2.2484 -1.5815 -1.0857
   38MOL0     H 5126   6.853   9.262  10.313  2.5363  0.4805  1.3624
   38MOL0     H 5127   6.175   9.387  10.689  2.8533 -1.4764 -3.5243
   38MOL0     H 5128   5.997   9.076  10.628 -1.2184  0.9735 -1.0801
   38MOL0     H 5129   5.924   9.219  10.695 -0.2297 -0.9336  1.8963
   38MOL0     H 5130   6.050   9.230  10.562 -1.1157  1.8158 -0.6541
   39MOL0     O 5131   5.567   2.785   5.199 -0.7830  0.1421  0.5691
   39MOL0     C 5132   5.657   2.729   5.143 -0.6640  0.0675  0.0142
   39MOL0     O 5133   5.645   2.652   5.025 -0.2932  0.0175 -0.4075
   39MOL0     C 5134   5.521   2.617   4.985 -0.5348 -0.5249  0.2396
   39MOL0     C 5135   5.452   2.721   4.910  0.0255  1.2037  0.6470
   39MOL0     C 5136   5.344   2.680   4.829 -0.4778 -1.0681 -0.2438
   39MOL0     C 5137   5.296   2.547   4.825 -0.5900 -0.4636  0.6377
   39MOL0     O 5138   5.182   2.512   4.759 -0.3980 -0.3794 -0.5779
   39MOL0     C 5139   5.167   2.558   4.630  0.6043 -0.3097 -0.2448
   39MOL0     C 5140   5.024   2.534   4.591  0.7728  0.2554  1.3886
   39MOL0     C 5141   5.021   2.536   4.436 -0.0013  0.6689  0.2621
   39MOL0     C 5142   4.880   2.544   4.381 -0.3456  0.1277 -1.1423
   39MOL0     C 5143   4.878   2.527   4.227  0.2819  0.2241  0.1287
   39MOL0     C 5144   4.824   2.383   4.196  0.2456 -0.3066  0.6252
   39MOL0     C 5145   4.872   2.259   4.277  0.2156  0.5950 -0.2472
   39MOL0     C 5146   4.818   2.129   4.206 -0.5963 -0.1989 -0.0738
   39MOL0     N 5147   4.909   2.012   4.240 -0.2743 -0.0535 -0.6151
   39MOL0     C 5148   5.047   2.017   4.252  0.4232  0.5731 -0.9443
   39MOL0     C 5149   5.068   1.883   4.284  0.0520 -0.9352 -0.0658
   39MOL0     C 5150   5.212   1.832   4.289  0.6395  0.5524 -0.3054
   39MOL0     C 5151   5.230   1.692   4.359  0.0278  0.2757 -0.0818
   39MOL0     C 5152   5.200   1.693   4.503 -1.3708 -0.0395 -0.5067
   39MOL0     C 5153   5.233   1.559   4.578 -0.0392 -0.0327 -0.3794
   39MOL0     O 5154   5.372   1.525   4.609  0.5848  0.1736 -0.1892
   39MOL0     C 5155   5.441   1.439   4.528 -0.3265 -0.7917  0.4308
   39MOL0     C 5156   5.382   1.342   4.443 -0.1909 -0.0423  0.7024
   39MOL0     C 5157   5.464   1.266   4.366  0.9371  0.1632  0.2691
   39MOL0     C 5158   5.604   1.278   4.378  0.5048 -0.5882  0.2406
   39MOL0     C 5159   5.692   1.188   4.301 -1.0485  0.0477  0.2119
   39MOL0     O 5160   5.621   1.127   4.195 -0.3451  0.2865 -0.1748
   39MOL0     C 5161   5.695   1.049   4.115  1.1263 -0.0881  1.0175
   39MOL0     C 5162   5.709   0.912   4.134 -0.0002  0.2905 -0.3015
   39MOL0     C 5163   5.775   0.838   4.046  0.3046 -0.3423 -0.7322
   39MOL0     C 5164   5.847   0.891   3.943  0.5918 -0.6927 -0.9225
   39MOL0     O 5165   5.908   0.818   3.846  0.6023  0.5513 -0.5836
   39MOL0     C 5166   5.886   0.838   3.705  0.6609  0.2574 -0.1355
   39MOL0     C 5167   5.883   0.692   3.638 -0.7142 -0.4529  0.6028
   39MOL0     C 5168   5.904   0.692   3.480  0.2984  0.1677 -0.7663
   39MOL0     C 5169   5.772   0.749   3.417  0.7556 -0.4958 -0.8331
   39MOL0     C 5170   5.806   0.763   3.268  0.0354  0.4039  0.4565
   39MOL0     C 5171   5.709   0.877   3.218 -0.3638 -1.1927  0.2821
   39MOL0     C 5172   5.561   0.843   3.224 -0.0875  0.5242 -1.1705
   39MOL0     C 5173   5.472   0.962   3.199 -1.2074 -0.0506  0.5391
   39MOL0    Cl 5174   5.506   1.061   3.062 -0.1105  0.3238  0.2329
   39MOL0     C 5175   5.844   1.031   3.919 -0.3798  0.2977  0.6406
   39MOL0     C 5176   5.772   1.108   4.011  0.0371 -0.4583 -0.5216
   39MOL0     O 5177   5.813   1.193   4.325 -0.2270  1.0381  0.6581
   39MOL0     C 5178   5.666   1.376   4.458  0.2703  0.2567 -0.4227
   39MOL0     C 5179   5.579   1.451   4.533  0.3457 -0.2618  0.7021
   39MOL0     N 5180   4.952   1.809   4.278  0.2781 -0.0320 -0.0324
   39MOL0     N 5181   4.851   1.893   4.271 -0.4721  0.3922  0.3841
   39MOL0     C 5182   5.358   2.451   4.906  0.5476 -0.0987 -0.0109
   39MOL0     C 5183   5.469   2.486   4.987  0.2939  0.3002 -0.1627
   39MOL0     C 5184   5.788   2.732   5.217 -0.4474 -0.2066 -0.2709
   39MOL0     C 5185   5.868   2.622   5.202 -0.1485 -0.0511 -0.5741
   39MOL0     C 5186   5.982   2.601   5.281  0.1630 -0.0497 -0.4051
   39MOL0     C 5187   6.015   2.698   5.378  0.5550  0.0512  0.2730
   39MOL0     O 5188   6.133   2.667   5.429 -0.9341  0.0454 -0.3972
   39MOL0     C 5189   6.204   2.764   5.502  0.2005 -0.1698 -0.3610
   39MOL0     C 5190   6.350   2.735   5.531 -0.6151 -0.7957  0.5623
   39MOL0     C 5191   6.387   2.621   5.636 -0.1015  0.1852  0.1296
   39MOL0     C 5192   6.354   2.482   5.557 -0.0152  0.0742  0.1330
   39MOL0     C 5193   6.369   2.380   5.661  0.2227 -0.1938  1.2585
   39MOL0     C 5194   6.378   2.294   5.745  0.0494 -0.2403  0.0108
   39MOL0     C 5195   5.933   2.817   5.392 -0.6500  0.3384 -0.3581
   39MOL0     C 5196   5.810   2.829   5.326 -0.4991  0.0085  0.4747
   39MOL0     C 5197   5.730   2.954   5.355 -0.5737  0.9830 -0.3817
   39MOL0     H 5198   5.492   2.821   4.922 -0.0339  1.2638  0.3416
   39MOL0     H 5199   5.295   2.763   4.778 -0.9291  0.1263  1.9759
   39MOL0     H 5200   5.197   2.661   4.614 -2.1935  0.5674 -0.3252
   39MOL0     H 5201   5.238   2.502   4.568  0.6891 -1.3178  0.7226
   39MOL0     H 5202   4.953   2.613   4.618 -1.7162 -0.5671 -2.1187
   39MOL0     H 5203   4.994   2.435   4.625  0.1656 -0.2969 -0.6426
   39MOL0     H 5204   5.076   2.450   4.397  0.8350  2.1464 -1.9717
   39MOL0     H 5205   5.088   2.615   4.402  0.6051  1.4213  2.9251
   39MOL0     H 5206   4.814   2.466   4.422  0.3427 -0.3370 -0.8949
   39MOL0     H 5207   4.839   2.643   4.400 -3.6013 -1.3336  0.3084
   39MOL0     H 5208   4.810   2.601   4.185  2.1248  1.2113 -1.2229
   39MOL0     H 5209   4.971   2.550   4.175 -1.5012 -0.6272 -3.7623
   39MOL0     H 5210   4.715   2.394   4.200  0.0812 -1.1476 -0.8630
   39MOL0     H 5211   4.847   2.369   4.090  0.8203 -2.1541  0.9697
   39MOL0     H 5212   4.838   2.263   4.381 -2.9365 -0.7377 -1.0851
   39MOL0     H 5213   4.981   2.265   4.271  0.3737 -0.2064  1.3599
   39MOL0     H 5214   4.715   2.101   4.230 -0.2537 -2.2515 -0.7872
   39MOL0     H 5215   4.833   2.144   4.099  2.1097  0.2869  0.2961
   39MOL0     H 5216   5.122   2.094   4.231  2.3328 -0.8405  0.3740
   39MOL0     H 5217   5.250   1.816   4.187 -0.4975 -0.1020 -0.6463
   39MOL0     H 5218   5.267   1.909   4.342  0.7693  2.0185 -2.4494
   39MOL0     H 5219   5.169   1.610   4.319 -1.0794 -0.6440  3.1981
   39MOL0     H 5220   5.328   1.648   4.337 -0.0522  0.7045 -1.3794
   39MOL0     H 5221   5.096   1.721   4.525 -0.6376  1.7151  1.0409
   39MOL0     H 5222   5.260   1.773   4.546  1.2181 -0.5596 -2.8689
   39MOL0     H 5223   5.180   1.478   4.527 -3.5660  0.7215  1.7694
   39MOL0     H 5224   5.178   1.573   4.671 -0.9904  0.7990 -1.0444
   39MOL0     H 5225   5.275   1.335   4.431  0.0563 -0.2308 -2.2246
   39MOL0     H 5226   5.423   1.215   4.280 -2.4456  5.1399 -1.5342
   39MOL0     H 5227   5.652   0.868   4.215 -2.4391 -1.2473 -2.7125
   39MOL0     H 5228   5.785   0.732   4.065 -1.1296 -0.1387  1.7624
   39MOL0     H 5229   5.790   0.889   3.695  1.0700  0.8836 -0.9694
   39MOL0     H 5230   5.965   0.897   3.659  1.3661  0.0074  0.7322
   39MOL0     H 5231   5.958   0.632   3.691 -1.1705 -1.6323 -0.0553
   39MOL0     H 5232   5.793   0.634   3.661 -1.7410  1.5896  2.0050
   39MOL0     H 5233   5.987   0.756   3.450  3.3197 -4.1583 -2.6751
   39MOL0     H 5234   5.904   0.589   3.442 -1.2990  0.5694 -1.9476
   39MOL0     H 5235   5.740   0.844   3.461  1.2216 -0.6037 -0.2454
   39MOL0     H 5236   5.694   0.680   3.450  0.5046  1.2775  2.7626
   39MOL0     H 5237   5.813   0.673   3.206  2.8714  3.9693 -5.2904
   39MOL0     H 5238   5.906   0.805   3.256 -0.0713  0.0220 -2.4652
   39MOL0     H 5239   5.729   0.977   3.257  0.7262  0.1201 -3.2194
   39MOL0     H 5240   5.741   0.886   3.113  2.5787 -2.8446  0.9131
   39MOL0     H 5241   5.525   0.801   3.318  1.0520 -1.3047 -1.5193
   39MOL0     H 5242   5.535   0.771   3.145 -1.9509 -1.8962  1.4548
   39MOL0     H 5243   5.368   0.930   3.189 -0.2449 -3.3765  0.0104
   39MOL0     H 5244   5.483   1.021   3.290  1.4485  0.1679  0.1648
   39MOL0     H 5245   5.899   1.073   3.835  0.0553 -1.9260 -0.2528
   39MOL0     H 5246   5.774   1.215   3.994  4.5573 -0.2619  0.0302
   39MOL0     H 5247   5.775   1.375   4.454  0.3026 -2.1552 -0.3671
   39MOL0     H 5248   5.624   1.528   4.593 -0.7756 -0.7770  2.2815
   39MOL0     H 5249   5.317   2.355   4.934  1.5331 -0.2774  0.8929
   39MOL0     H 5250   5.526   2.411   5.040  0.8103 -0.0122 -1.1339
   39MOL0     H 5251   5.845   2.538   5.137  1.6899 -0.7205 -0.4279
   39MOL0     H 5252   6.038   2.508   5.272  1.4736  0.7765 -1.0446
   39MOL0     H 5253   6.152   2.792   5.594  2.9604  1.2185  0.8901
   39MOL0     H 5254   6.215   2.846   5.430 -2.4580 -1.7680 -2.8021
   39MOL0     H 5255   6.396   2.828   5.567 -3.9961 -0.0679  3.4908
   39MOL0     H 5256   6.386   2.710   5.431  0.3477 -1.6346  1.1054
   39MOL0     H 5257   6.337   2.637   5.732  0.7834 -1.6070  0.9365
   39MOL0     H 5258   6.492   2.614   5.665  0.2955 -2.1919 -1.5964
   39MOL0     H 5259   6.253   2.477   5.516  0.9904 -0.2820 -2.4928
   39MOL0     H 5260   6.425   2.463   5.476  1.5816 -0.6169  1.6167
   39MOL0     H 5261   6.409   2.229   5.824 -1.7933 -2.7530 -1.1633
   39MOL0     H 5262   5.958   2.885   5.474  1.3053  0.3961 -0.9491
   39MOL0     H 5263   5.724   3.013   5.264  1.2506 -0.6604 -1.6531
   39MOL0     H 5264   5.631   2.921   5.387 -0.0213 -0.8495 -0.4479
   39MOL0     H 5265   5.775   3.006   5.440  0.6114 -0.9763  0.2621
   40MOL0     O 5266   7.999  11.101   6.521 -0.1976  0.0795 -0.8569
   40MOL0     C 5267   7.996  10.989   6.475 -0.0846 -0.1754 -0.7212
   40MOL0     O 5268   7.991  10.874   6.559 -0.1819 -0.1225 -0.1142
   40MOL0     C 5269   8.056  10.867   6.676  0.2419  0.0275  1.4885
   40MOL0     C 5270   8.003  10.770   6.756  0.2720 -0.6134 -0.0328
   40MOL0     C 5271   8.072  10.743   6.871 -0.0193 -0.0475  1.0427
   40MOL0     C 5272   8.183  10.822   6.914 -0.1652 -0.5216 -0.1642
   40MOL0     O 5273   8.258  10.803   7.029  0.9346 -1.4714  0.0627
   40MOL0     C 5274   8.195  10.721   7.129  0.3120 -0.5523  0.3144
   40MOL0     C 5275   8.284  10.713   7.250  1.4676  0.0333 -0.4319
   40MOL0     C 5276   8.409  10.618   7.245  0.0353  0.9321  0.3571
   40MOL0     C 5277   8.375  10.478   7.271 -0.5537 -0.3108  0.4873
   40MOL0     C 5278   8.495  10.379   7.283  0.3890 -0.6471  0.5019
   40MOL0     C 5279   8.460  10.246   7.218 -0.1929  0.7820 -0.6731
   40MOL0     C 5280   8.527  10.124   7.282  0.4272  0.1207 -0.6460
   40MOL0     C 5281   8.676  10.120   7.255 -0.2931  0.1650  0.4900
   40MOL0     N 5282   8.752  10.086   7.377  1.0164 -0.0892 -1.9509
   40MOL0     C 5283   8.771  10.164   7.481  0.3058 -0.2463 -0.4447
   40MOL0     C 5284   8.838  10.087   7.576  0.6029  0.2060  0.7019
   40MOL0     C 5285   8.850  10.102   7.720 -0.8029  0.0684 -0.0149
   40MOL0     C 5286   8.793  10.002   7.809 -0.2992  0.8276 -0.6404
   40MOL0     C 5287   8.650   9.964   7.769 -0.3682  0.9826  0.4929
   40MOL0     C 5288   8.591   9.882   7.879 -0.7374  0.0879 -0.7908
   40MOL0     O 5289   8.673   9.768   7.914 -0.2656  0.0643  0.1092
   40MOL0     C 5290   8.647   9.712   8.038  0.6348 -0.7750  0.2737
   40MOL0     C 5291   8.519   9.714   8.091  0.3083  0.1497  0.4728
   40MOL0     C 5292   8.490   9.632   8.206 -0.3966  0.1779 -0.5691
   40MOL0     C 5293   8.600   9.552   8.263  0.3695  0.1580 -0.4575
   40MOL0     C 5294   8.575   9.462   8.382  0.5335 -0.4820 -0.5818
   40MOL0     O 5295   8.448   9.396   8.383 -0.2620 -0.1351 -0.9688
   40MOL0     C 5296   8.448   9.284   8.468 -0.1630  0.6526 -0.6828
   40MOL0     C 5297   8.381   9.174   8.419 -1.0194  0.3305  0.1721
   40MOL0     C 5298   8.363   9.054   8.493  0.4805 -0.7060  0.5100
   40MOL0     C 5299   8.431   9.044   8.615  0.3015 -0.7604 -0.1474
   40MOL0     O 5300   8.436   8.921   8.672  0.6690  0.1599  0.6559
   40MOL0     C 5301   8.458   8.905   8.815  0.7732  0.8313  0.2771
   40MOL0     C 5302   8.469   8.757   8.841 -0.3431  0.5514 -0.4052
   40MOL0     C 5303   8.343   8.676   8.822  0.5442  0.5426 -0.2777
   40MOL0     C 5304   8.347   8.596   8.688  0.0980 -0.0273  0.5846
   40MOL0     C 5305   8.423   8.463   8.708 -0.6732  0.0335 -0.4291
   40MOL0     C 5306   8.425   8.368   8.583 -0.2208  0.4926  0.0339
   40MOL0     C 5307   8.288   8.312   8.541 -0.9047  0.1284 -0.6512
   40MOL0     C 5308   8.313   8.204   8.429  0.2775 -0.0846 -0.2495
   40MOL0    Cl 5309   8.428   8.255   8.300 -0.1576  0.3139  0.6607
   40MOL0     C 5310   8.508   9.152   8.665  0.2110 -0.0659 -0.3733
   40MOL0     C 5311   8.508   9.271   8.591  1.2044 -0.6429 -0.3009
   40MOL0     O 5312   8.675   9.437   8.450 -0.5291  0.5872  0.0620
   40MOL0     C 5313   8.720   9.545   8.196 -0.1247 -0.5747 -0.7174
   40MOL0     C 5314   8.734   9.622   8.086  0.4961  0.3075  1.0435
   40MOL0     N 5315   8.865   9.958   7.517  0.3116 -0.4858 -0.4555
   40MOL0     N 5316   8.815   9.964   7.397  0.2615 -0.2553 -0.2021
   40MOL0     C 5317   8.229  10.917   6.828 -0.2290 -0.7957  0.6861
   40MOL0     C 5318   8.175  10.933   6.702 -0.1648 -0.2374 -0.9555
   40MOL0     C 5319   7.984  10.981   6.327  0.2185 -0.3594 -0.2230
   40MOL0     C 5320   7.918  11.089   6.260 -0.2536  1.4678 -0.4869
   40MOL0     C 5321   7.902  11.099   6.122  0.5123 -0.3583 -0.4826
   40MOL0     C 5322   7.949  11.001   6.045  0.2348 -0.3442 -0.3036
   40MOL0     O 5323   7.935  11.009   5.910 -0.6025 -0.4648  0.3098
   40MOL0     C 5324   8.042  10.974   5.822 -0.1240 -0.6948 -0.3068
   40MOL0     C 5325   8.023  10.997   5.671  0.8164 -0.0457 -0.9886
   40MOL0     C 5326   7.920  10.898   5.630  0.0192  0.3979  0.0867
   40MOL0     C 5327   7.896  10.913   5.483 -1.1521  0.8172  0.9181
   40MOL0     C 5328   8.017  10.872   5.409  0.6289  0.5661 -0.2499
   40MOL0     C 5329   8.112  10.832   5.338 -0.6874 -1.0860  0.0839
   40MOL0     C 5330   8.015  10.887   6.108 -0.4972  0.2252  0.1949
   40MOL0     C 5331   8.027  10.878   6.249 -0.0068 -0.8292 -0.4856
   40MOL0     C 5332   8.093  10.759   6.298 -1.1143 -0.4203 -0.1452
   40MOL0     H 5333   7.914  10.713   6.730 -0.6487 -0.3839  2.3692
   40MOL0     H 5334   8.029  10.671   6.940 -4.3892  1.5172  0.2580
   40MOL0     H 5335   8.098  10.766   7.151  0.2820  0.2427 -1.3124
   40MOL0     H 5336   8.178  10.620   7.090  0.8264 -1.6508  2.7696
   40MOL0     H 5337   8.218  10.692   7.335 -0.3987  1.6833 -1.3972
   40MOL0     H 5338   8.318  10.816   7.257 -1.0161  0.8905  0.0361
   40MOL0     H 5339   8.480  10.647   7.324 -0.5144 -1.1593  1.7068
   40MOL0     H 5340   8.451  10.622   7.144  1.1424 -1.2303  0.6857
   40MOL0     H 5341   8.303  10.457   7.351 -2.4756  0.3427 -1.0085
   40MOL0     H 5342   8.311  10.439   7.192 -0.0572  0.1725 -0.1666
   40MOL0     H 5343   8.590  10.411   7.239 -1.4923  4.3821 -0.5897
   40MOL0     H 5344   8.508  10.371   7.391  0.2878  0.6039  0.6167
   40MOL0     H 5345   8.352  10.230   7.216 -0.1504  0.4297 -0.1118
   40MOL0     H 5346   8.477  10.252   7.110 -2.3265  0.7132 -1.0684
   40MOL0     H 5347   8.467  10.038   7.249 -2.5793  1.5646  0.6738
   40MOL0     H 5348   8.505  10.123   7.389 -0.0727  0.0628 -0.7463
   40MOL0     H 5349   8.685  10.047   7.174 -0.4114  1.8656 -1.1053
   40MOL0     H 5350   8.709  10.219   7.224 -1.4582 -0.3894 -2.9776
   40MOL0     H 5351   8.721  10.259   7.497 -2.1459 -1.1281 -2.2873
   40MOL0     H 5352   8.957  10.119   7.737 -0.8183  2.5433 -1.7182
   40MOL0     H 5353   8.794  10.192   7.749  1.1160  1.9717 -1.8186
   40MOL0     H 5354   8.867   9.922   7.813 -1.9280 -0.6939  0.3030
   40MOL0     H 5355   8.781  10.055   7.904  2.4812  2.9907 -1.3475
   40MOL0     H 5356   8.644   9.905   7.677 -1.0478  2.7696 -0.6468
   40MOL0     H 5357   8.588  10.053   7.756 -1.3111  0.2773 -0.0538
   40MOL0     H 5358   8.493   9.842   7.849 -0.7075 -1.8456  1.3815
   40MOL0     H 5359   8.592   9.948   7.966  0.2036  0.3703 -1.0132
   40MOL0     H 5360   8.438   9.773   8.050  0.0805 -0.8128 -0.5206
   40MOL0     H 5361   8.391   9.639   8.252 -0.1463  0.0894 -0.0037
   40MOL0     H 5362   8.334   9.171   8.321 -1.4133 -0.1345  0.3674
   40MOL0     H 5363   8.301   8.969   8.462  0.3316 -0.8059  1.0806
   40MOL0     H 5364   8.555   8.950   8.839  0.1656  3.4068 -1.7134
   40MOL0     H 5365   8.382   8.958   8.873 -0.8067  0.1608 -1.1101
   40MOL0     H 5366   8.548   8.713   8.780 -0.1670 -0.1758  0.3198
   40MOL0     H 5367   8.510   8.754   8.943 -1.0753  3.7294  0.0746
   40MOL0     H 5368   8.330   8.598   8.897 -0.6753  2.6513  1.8762
   40MOL0     H 5369   8.252   8.733   8.846  0.2348 -0.5494  1.3448
   40MOL0     H 5370   8.397   8.650   8.607 -0.6069 -0.3683 -0.0936
   40MOL0     H 5371   8.249   8.563   8.653  1.2071 -3.0896  0.0010
   40MOL0     H 5372   8.385   8.397   8.787  1.5840 -1.9495 -0.8745
   40MOL0     H 5373   8.527   8.475   8.742 -1.2788 -5.0829  4.8966
   40MOL0     H 5374   8.483   8.412   8.501 -1.2299 -3.8527 -3.3950
   40MOL0     H 5375   8.484   8.283   8.617 -0.5912 -0.4669 -1.6191
   40MOL0     H 5376   8.235   8.396   8.495  0.4739  1.0523 -0.6030
   40MOL0     H 5377   8.241   8.273   8.631  0.2603  1.2027  0.4583
   40MOL0     H 5378   8.349   8.114   8.479  0.1371 -0.1502 -0.2666
   40MOL0     H 5379   8.214   8.186   8.386 -0.9487  1.0676  1.9331
   40MOL0     H 5380   8.552   9.154   8.764  1.1451  2.1011 -0.7648
   40MOL0     H 5381   8.544   9.362   8.636 -3.8155  1.8551 -0.5545
   40MOL0     H 5382   8.797   9.473   8.220 -2.1183 -2.9153 -0.8822
   40MOL0     H 5383   8.817   9.613   8.017 -2.2533  0.2550 -2.5830
   40MOL0     H 5384   8.320  10.963   6.867 -0.9248  0.7040  0.6174
   40MOL0     H 5385   8.219  11.011   6.640 -1.9673  2.5393  0.9945
   40MOL0     H 5386   7.867  11.160   6.324 -0.6400  3.8034 -3.2225
   40MOL0     H 5387   7.850  11.183   6.076 -1.3192 -0.4846  1.2040
   40MOL0     H 5388   8.054  10.866   5.836 -0.5534 -0.4219  3.1579
   40MOL0     H 5389   8.131  11.025   5.860 -2.3475  3.8077 -0.4645
   40MOL0     H 5390   8.127  10.973   5.648  2.3536  1.8944  2.9209
   40MOL0     H 5391   7.986  11.096   5.643  3.0313  0.6711 -1.5459
   40MOL0     H 5392   7.834  10.929   5.689  0.8142  0.6608  1.1351
   40MOL0     H 5393   7.938  10.797   5.670 -0.4413 -0.1600 -1.0442
   40MOL0     H 5394   7.816  10.858   5.434  1.0158 -2.7909  1.1023
   40MOL0     H 5395   7.870  11.018   5.461 -2.7064 -0.0754 -2.1431
   40MOL0     H 5396   8.195  10.801   5.278 -0.1222  0.1277  0.1951
   40MOL0     H 5397   8.046  10.805   6.044  0.8710 -0.0115  1.1150
   40MOL0     H 5398   8.164  10.791   6.374 -0.8639 -1.0240 -0.1167
   40MOL0     H 5399   8.026  10.689   6.350 -1.7357  1.7789  2.2193
   40MOL0     H 5400   8.124  10.698   6.212 -3.0353 -1.6966  0.0016
   41MOL0     O 5401   3.438   2.331   2.627 -0.2468 -0.1047  0.4314
   41MOL0     C 5402   3.426   2.291   2.744 -0.4168 -0.8535 -0.5288
   41MOL0     O 5403   3.315   2.234   2.801  0.6693  0.1884  0.4876
   41MOL0     C 5404   3.218   2.186   2.724  0.4621 -0.5654 -0.7718
   41MOL0     C 5405   3.255   2.102   2.613 -0.3159 -1.1053 -0.1110
   41MOL0     C 5406   3.149   2.054   2.530 -0.7158 -0.2288  0.7625
   41MOL0     C 5407   3.018   2.081   2.559  0.3263  0.1395  0.5624
   41MOL0     O 5408   2.928   2.041   2.470 -0.0706 -0.5061 -0.0514
   41MOL0     C 5409   2.840   1.938   2.514 -1.2856 -1.1813  0.9197
   41MOL0     C 5410   2.715   1.952   2.435  0.4299 -0.4940 -0.5878
   41MOL0     C 5411   2.615   1.843   2.477 -0.2842 -0.1396  0.3293
   41MOL0     C 5412   2.505   1.837   2.364 -0.4617  0.0659 -0.9563
   41MOL0     C 5413   2.421   1.712   2.387 -0.0218 -0.2964 -0.5942
   41MOL0     C 5414   2.501   1.577   2.357 -0.6971  0.0657 -0.9392
   41MOL0     C 5415   2.425   1.450   2.382 -0.3754  0.6546  0.2116
   41MOL0     C 5416   2.402   1.443   2.534  0.3476 -0.6565 -0.3143
   41MOL0     N 5417   2.269   1.410   2.583 -0.0547 -0.0734  1.0593
   41MOL0     C 5418   2.238   1.304   2.652  0.3114  0.6819  0.1973
   41MOL0     C 5419   2.107   1.310   2.667  0.2164  0.4332  0.7612
   41MOL0     C 5420   2.010   1.218   2.739  0.5461  0.2625  0.0956
   41MOL0     C 5421   2.073   1.077   2.751  0.6072 -0.0079 -0.6800
   41MOL0     C 5422   1.975   0.990   2.843 -0.7635 -0.1243 -1.0995
   41MOL0     C 5423   2.040   0.858   2.881  0.1977 -0.0268 -0.7568
   41MOL0     O 5424   2.147   0.814   2.791  0.4617  0.5326  0.3561
   41MOL0     C 5425   2.256   0.764   2.849  0.7769  0.1443 -0.4024
   41MOL0     C 5426   2.258   0.648   2.938 -0.2124  0.3884 -0.0737
   41MOL0     C 5427   2.379   0.600   2.992  0.1242  0.3528 -0.1944
   41MOL0     C 5428   2.499   0.667   2.957  0.6286 -0.0820  0.6396
   41MOL0     C 5429   2.623   0.620   3.027 -0.5611 -0.1431 -0.8480
   41MOL0     O 5430   2.732   0.706   3.013  0.8621  0.6803 -0.2379
   41MOL0     C 5431   2.849   0.662   3.082 -0.1059  0.2432  0.1909
   41MOL0     C 5432   2.954   0.619   3.002  1.3570  0.5300  0.3176
   41MOL0     C 5433   3.063   0.562   3.060  0.0167  0.3310  0.7533
   41MOL0     C 5434   3.080   0.558   3.191 -0.2492  0.3400 -0.9425
   41MOL0     O 5435   3.189   0.493   3.250  0.0412  0.1253  0.0074
   41MOL0     C 5436   3.212   0.362   3.211 -0.8321  0.7373 -0.2029
   41MOL0     C 5437   3.341   0.312   3.280  0.0638  0.2606  0.3972
   41MOL0     C 5438   3.320   0.283   3.424  0.6195 -0.6030  0.2587
   41MOL0     C 5439   3.449   0.254   3.501 -0.4032 -0.3472 -0.4535
   41MOL0     C 5440   3.444   0.289   3.647 -0.3611 -0.2687  0.1018
   41MOL0     C 5441   3.355   0.189   3.723 -0.3476  0.6439  0.3169
   41MOL0     C 5442   3.387   0.176   3.871  0.1031  0.2958  0.3124
   41MOL0     C 5443   3.383   0.306   3.950 -0.4801 -0.0986 -1.5401
   41MOL0    Cl 5444   3.433   0.294   4.116  0.1864  0.2078  0.3486
   41MOL0     C 5445   2.980   0.607   3.276 -0.1071  0.0983  0.4133
   41MOL0     C 5446   2.861   0.654   3.221  1.0147 -0.4437  0.2724
   41MOL0     O 5447   2.626   0.506   3.079  0.0030 -0.1059  0.3725
   41MOL0     C 5448   2.497   0.791   2.879 -0.4979 -0.5774  1.4418
   41MOL0     C 5449   2.374   0.840   2.827 -0.9608  0.6225  0.8277
   41MOL0     N 5450   2.064   1.422   2.595  0.4331  0.0586  0.6859
   41MOL0     N 5451   2.164   1.486   2.551 -0.1296 -0.1427 -0.0872
   41MOL0     C 5452   2.977   2.146   2.673  0.3073 -0.3011 -0.0718
   41MOL0     C 5453   3.083   2.213   2.749  0.3653  0.1897  0.3241
   41MOL0     C 5454   3.547   2.303   2.830  0.1601 -0.4476 -0.6951
   41MOL0     C 5455   3.665   2.326   2.768 -0.3891  0.7461  0.0945
   41MOL0     C 5456   3.781   2.315   2.835  0.2520 -0.6926  0.5158
   41MOL0     C 5457   3.791   2.318   2.979  0.2126  0.3633  1.0354
   41MOL0     O 5458   3.904   2.333   3.048 -0.7074 -0.4588  0.6818
   41MOL0     C 5459   4.024   2.386   2.991  1.2595  0.0314  0.5597
   41MOL0     C 5460   4.086   2.464   3.103  0.1976 -0.4008  1.0778
   41MOL0     C 5461   4.169   2.585   3.063  0.2839  1.3048  0.9444
   41MOL0     C 5462   4.203   2.664   3.193  0.0507  0.4880  0.1956
   41MOL0     C 5463   4.098   2.750   3.253 -0.2629  0.3431  0.2356
   41MOL0     C 5464   4.024   2.842   3.261 -0.8796  0.4517  0.4598
   41MOL0     C 5465   3.667   2.308   3.048 -0.6888 -0.4456 -0.1702
   41MOL0     C 5466   3.543   2.295   2.970 -0.2307  0.0787 -0.0719
   41MOL0     C 5467   3.422   2.295   3.060 -0.1113  0.6319 -0.4838
   41MOL0     H 5468   3.360   2.086   2.589  0.1481 -1.1559  1.7527
   41MOL0     H 5469   3.163   2.021   2.428 -2.2202  3.2908 -0.7305
   41MOL0     H 5470   2.859   1.831   2.498 -1.0892 -1.5025  2.9416
   41MOL0     H 5471   2.816   1.941   2.621 -4.3223 -3.4156  0.4488
   41MOL0     H 5472   2.741   1.953   2.328  0.4141 -1.7664 -0.6251
   41MOL0     H 5473   2.677   2.053   2.450 -0.8103 -1.1385  0.8795
   41MOL0     H 5474   2.576   1.850   2.580 -2.2627 -0.9410 -0.3107
   41MOL0     H 5475   2.663   1.745   2.475 -0.6960 -0.3379 -2.1269
   41MOL0     H 5476   2.443   1.928   2.371  0.0591  0.3082  3.0077
   41MOL0     H 5477   2.552   1.834   2.265  0.6780 -0.2162 -0.4159
   41MOL0     H 5478   2.396   1.720   2.493  1.9837 -1.3163 -0.0020
   41MOL0     H 5479   2.332   1.707   2.324 -0.7219 -0.6490  0.3896
   41MOL0     H 5480   2.512   1.572   2.248 -2.0509 -3.5071 -1.0496
   41MOL0     H 5481   2.599   1.568   2.405 -1.6604 -0.0129  1.1263
   41MOL0     H 5482   2.481   1.363   2.347  2.3671  0.9808  3.2931
   41MOL0     H 5483   2.328   1.467   2.335  0.6965  0.9986 -1.9742
   41MOL0     H 5484   2.473   1.374   2.580 -2.1924 -3.8831 -0.8165
   41MOL0     H 5485   2.421   1.540   2.581  0.1455  0.3990 -2.3120
   41MOL0     H 5486   2.300   1.220   2.680  0.2489  0.0160 -1.5354
   41MOL0     H 5487   1.980   1.267   2.833  4.2316 -0.2296  1.7147
   41MOL0     H 5488   1.921   1.217   2.676  0.0643  1.9391  0.6652
   41MOL0     H 5489   2.075   1.034   2.651  2.5929 -0.1788 -0.5946
   41MOL0     H 5490   2.176   1.083   2.786  0.8475  0.0017 -1.3736
   41MOL0     H 5491   1.883   0.979   2.785 -1.6552  1.6611 -0.1293
   41MOL0     H 5492   1.946   1.041   2.936 -0.6281 -1.3926 -0.3403
   41MOL0     H 5493   1.959   0.785   2.883 -1.5698  1.8384 -0.4792
   41MOL0     H 5494   2.067   0.875   2.986 -0.0473  3.0314 -1.0945
   41MOL0     H 5495   2.168   0.590   2.952  1.1512 -1.9772 -0.5608
   41MOL0     H 5496   2.384   0.519   3.064 -1.7889  0.5064  0.1547
   41MOL0     H 5497   2.937   0.619   2.895  2.0676  1.8208  0.1824
   41MOL0     H 5498   3.141   0.520   2.998 -1.3771  0.3477 -1.1029
   41MOL0     H 5499   3.134   0.298   3.252  1.0346  1.6841  5.8452
   41MOL0     H 5500   3.221   0.356   3.102  0.9744 -0.7100 -0.0141
   41MOL0     H 5501   3.363   0.217   3.230  0.6459  0.5719  0.0548
   41MOL0     H 5502   3.426   0.380   3.273 -0.4488  1.2931  2.9394
   41MOL0     H 5503   3.264   0.367   3.466  1.2341 -0.6429  1.1837
   41MOL0     H 5504   3.263   0.189   3.423  1.6522 -1.2565  1.2848
   41MOL0     H 5505   3.531   0.312   3.457  1.3817 -1.3591  1.3351
   41MOL0     H 5506   3.473   0.149   3.485 -0.3759 -0.5367  0.7478
   41MOL0     H 5507   3.417   0.394   3.659 -3.1772 -0.2621 -4.2070
   41MOL0     H 5508   3.545   0.279   3.686 -0.9570 -2.1732  1.3270
   41MOL0     H 5509   3.249   0.216   3.719 -0.9886 -1.7070 -3.0394
   41MOL0     H 5510   3.358   0.088   3.681  0.9499  0.6574  0.3225
   41MOL0     H 5511   3.491   0.144   3.883  0.7971  1.1271 -2.7386
   41MOL0     H 5512   3.322   0.095   3.908 -1.4912  0.4597 -1.8984
   41MOL0     H 5513   3.456   0.373   3.903  0.2015  0.0684 -0.2909
   41MOL0     H 5514   3.288   0.360   3.941  1.3883  3.2256 -3.6229
   41MOL0     H 5515   2.998   0.604   3.383  3.2967 -1.2382 -0.0851
   41MOL0     H 5516   2.775   0.681   3.282  0.8299 -0.4520  0.0174
   41MOL0     H 5517   2.589   0.830   2.837 -1.2950 -1.7006 -1.5821
   41MOL0     H 5518   2.372   0.935   2.775  2.7078  1.5023  1.9886
   41MOL0     H 5519   2.875   2.177   2.693  0.9136  2.1452 -0.4594
   41MOL0     H 5520   3.062   2.291   2.821  2.8378  2.1550 -0.9052
   41MOL0     H 5521   3.669   2.338   2.660 -0.2844 -0.0451  0.0074
   41MOL0     H 5522   3.875   2.307   2.781 -1.2001 -3.1793 -1.9280
   41MOL0     H 5523   3.981   2.449   2.913 -1.2393  1.3030  2.8029
   41MOL0     H 5524   4.087   2.306   2.950 -0.8601 -2.0477  1.1222
   41MOL0     H 5525   4.146   2.390   3.156  2.5625 -0.6971 -1.7769
   41MOL0     H 5526   4.001   2.495   3.165 -0.5838 -1.2918  0.4840
   41MOL0     H 5527   4.108   2.640   2.990  2.1901  1.1850 -0.8386
   41MOL0     H 5528   4.265   2.563   3.016 -0.7040  1.1476 -1.1272
   41MOL0     H 5529   4.247   2.604   3.274  1.4366 -2.2122 -2.3692
   41MOL0     H 5530   4.265   2.746   3.155 -3.3902  2.4663 -1.6690
   41MOL0     H 5531   3.965   2.931   3.272  0.6199  1.6723 -0.8059
   41MOL0     H 5532   3.673   2.283   3.153  2.5260 -0.4409 -0.2714
   41MOL0     H 5533   3.448   2.272   3.164 -1.4475  1.2861  0.0301
   41MOL0     H 5534   3.377   2.395   3.057 -0.5617  0.4497 -0.0805
   41MOL0     H 5535   3.349   2.218   3.035 -0.9199  2.2173 -3.4445
   42MOL0     O 5536   4.549  10.729   2.782  1.0489 -0.9118  0.4286
   42MOL0     C 5537   4.435  10.765   2.777 -0.4549  1.2479  0.5507
   42MOL0     O 5538   4.390  10.866   2.848  0.6202 -0.4773 -0.3043
   42MOL0     C 5539   4.435  10.887   2.972 -0.4109 -1.1645 -0.6337
   42MOL0     C 5540   4.519  10.989   2.998 -1.5747 -1.0719 -0.1848
   42MOL0     C 5541   4.551  11.015   3.131  0.4132  0.1099  0.2262
   42MOL0     C 5542   4.491  10.944   3.235 -0.1208  0.2708 -0.2558
   42MOL0     O 5543   4.512  10.971   3.373 -0.6833  0.2219  0.5176
   42MOL0     C 5544   4.614  10.883   3.437 -0.0718  0.2565 -0.1946
   42MOL0     C 5545   4.765  10.941   3.429  0.9966  1.2767  0.1749
   42MOL0     C 5546   4.847  10.898   3.558  0.6992 -0.3446  0.1696
   42MOL0     C 5547   4.961  10.989   3.592 -0.1693 -0.5474  0.0809
   42MOL0     C 5548   5.086  10.990   3.518  0.4127  0.3781  0.1364
   42MOL0     C 5549   5.189  10.876   3.565  0.8177  0.2932 -0.6285
   42MOL0     C 5550   5.302  10.856   3.470 -0.2193  0.4116  0.7434
   42MOL0     C 5551   5.366  10.716   3.515  1.0641 -0.1102  0.2651
   42MOL0     N 5552   5.348  10.628   3.402  0.5843 -0.6643  0.2049
   42MOL0     C 5553   5.227  10.564   3.375  0.6606  0.6033 -0.3885
   42MOL0     C 5554   5.256  10.506   3.254  0.2039  0.0261  0.4444
   42MOL0     C 5555   5.171  10.405   3.179 -0.8008  1.1973 -0.2779
   42MOL0     C 5556   5.173  10.402   3.028 -0.4533  0.4211 -1.1709
   42MOL0     C 5557   5.105  10.269   2.976  0.5354 -0.9711  0.3291
   42MOL0     C 5558   5.211  10.150   2.977 -0.9035 -0.2700 -0.2869
   42MOL0     O 5559   5.265  10.122   2.842 -0.2342 -0.3480 -0.1402
   42MOL0     C 5560   5.209  10.037   2.751 -0.0048 -1.0485  0.6880
   42MOL0     C 5561   5.234  10.050   2.611 -0.0466 -0.6005  0.6531
   42MOL0     C 5562   5.197   9.948   2.522 -1.0252 -0.2081  0.2967
   42MOL0     C 5563   5.128   9.828   2.564  0.2530  0.0131 -0.1884
   42MOL0     C 5564   5.103   9.720   2.467  0.0347 -0.0879 -0.8038
   42MOL0     O 5565   5.164   9.738   2.346  0.2303  0.4240  0.3147
   42MOL0     C 5566   5.169   9.619   2.277  0.3528  0.4658 -0.9977
   42MOL0     C 5567   5.105   9.621   2.157  0.0962  0.6327 -0.0676
   42MOL0     C 5568   5.082   9.491   2.092 -0.6474  0.3429  0.9407
   42MOL0     C 5569   5.132   9.370   2.141  0.3062 -0.0026 -0.2718
   42MOL0     O 5570   5.136   9.251   2.068  0.7287 -0.0946  0.1389
   42MOL0     C 5571   5.102   9.256   1.923 -0.3801  0.1473 -0.5261
   42MOL0     C 5572   5.161   9.136   1.859 -0.3957  0.1642 -0.1723
   42MOL0     C 5573   5.114   9.132   1.719 -0.0104 -0.2885 -0.2655
   42MOL0     C 5574   5.186   9.025   1.640  0.4220 -0.4523  0.3682
   42MOL0     C 5575   5.106   8.967   1.519  0.9545 -0.2084  0.2135
   42MOL0     C 5576   5.197   8.880   1.433 -0.3603  0.1654  0.4962
   42MOL0     C 5577   5.123   8.804   1.328 -0.9062 -0.5111  0.3613
   42MOL0     C 5578   5.213   8.709   1.253 -0.5359 -0.7918 -0.0904
   42MOL0    Cl 5579   5.149   8.678   1.096 -0.2731 -0.3064  0.6050
   42MOL0     C 5580   5.195   9.374   2.263  0.2277  0.3159 -0.2505
   42MOL0     C 5581   5.214   9.497   2.333  0.2849 -0.7556  0.5040
   42MOL0     O 5582   5.032   9.629   2.509 -0.4266 -0.2974  0.5059
   42MOL0     C 5583   5.077   9.832   2.699 -0.2230 -0.1852 -0.2120
   42MOL0     C 5584   5.125   9.924   2.788  0.6206 -0.2271 -0.6462
   42MOL0     N 5585   5.385  10.553   3.221 -0.4394 -0.0388 -0.3762
   42MOL0     N 5586   5.430  10.641   3.303 -0.6038  0.2722  0.4635
   42MOL0     C 5587   4.394  10.846   3.210  0.6642  0.5350 -0.3695
   42MOL0     C 5588   4.367  10.810   3.069  0.6735 -0.6135  0.6838
   42MOL0     C 5589   4.342  10.715   2.654 -0.1966 -0.8348 -0.5070
   42MOL0     C 5590   4.242  10.809   2.608  0.2710 -0.3729  0.4014
   42MOL0     C 5591   4.141  10.761   2.520 -0.2636  0.1156 -0.7994
   42MOL0     C 5592   4.150  10.630   2.474  0.7416  0.3701  0.6359
   42MOL0     O 5593   4.038  10.592   2.397  0.7096  0.4184  0.4832
   42MOL0     C 5594   3.985  10.463   2.426  0.4946  0.2711  0.6633
   42MOL0     C 5595   3.847  10.434   2.367 -0.3670 -0.2242 -0.2263
   42MOL0     C 5596   3.821  10.495   2.225 -0.4125  0.0325 -0.8495
   42MOL0     C 5597   3.707  10.419   2.162  0.6101 -0.7267 -0.1310
   42MOL0     C 5598   3.574  10.425   2.224  0.7312 -0.0948  0.2065
   42MOL0     C 5599   3.463  10.418   2.265 -0.1246 -0.5657 -0.0617
   42MOL0     C 5600   4.251  10.547   2.505 -0.0603 -0.3202  0.7120
   42MOL0     C 5601   4.352  10.589   2.601  0.7530 -0.3972 -0.0563
   42MOL0     C 5602   4.475  10.498   2.619 -0.6958 -0.0919  0.0922
   42MOL0     H 5603   4.553  11.056   2.920 -1.1982 -0.3982  0.5432
   42MOL0     H 5604   4.614  11.103   3.145  1.5639 -0.3904 -1.5045
   42MOL0     H 5605   4.570  10.852   3.533 -2.9206 -0.2035 -1.5310
   42MOL0     H 5606   4.622  10.789   3.382  2.9994  0.4471 -0.2335
   42MOL0     H 5607   4.748  11.048   3.410 -3.9861  0.3545 -2.1251
   42MOL0     H 5608   4.814  10.913   3.335 -2.6799  1.6215 -2.0157
   42MOL0     H 5609   4.879  10.794   3.556  2.4186  0.1060  1.8961
   42MOL0     H 5610   4.776  10.915   3.640 -0.8441 -1.4298 -0.8818
   42MOL0     H 5611   4.926  11.091   3.575  0.4557  0.1273  2.4510
   42MOL0     H 5612   4.984  10.975   3.698 -0.3149  2.7616  0.6559
   42MOL0     H 5613   5.050  10.971   3.416 -1.2808  1.6794  0.4551
   42MOL0     H 5614   5.138  11.086   3.521  1.4899 -0.1921  0.5145
   42MOL0     H 5615   5.226  10.912   3.661  0.4190 -1.5399  0.2755
   42MOL0     H 5616   5.137  10.781   3.581  1.1227  0.2467  0.0939
   42MOL0     H 5617   5.389  10.922   3.470  1.6195 -1.8560 -0.1142
   42MOL0     H 5618   5.264  10.878   3.370 -1.7628  0.9408  1.4115
   42MOL0     H 5619   5.473  10.719   3.537  0.7382  2.8111  2.0349
   42MOL0     H 5620   5.324  10.680   3.609 -0.4801  3.9795  1.3750
   42MOL0     H 5621   5.132  10.549   3.424  1.2562  0.1771  0.6641
   42MOL0     H 5622   5.200  10.304   3.209 -1.5306  0.5074 -1.7444
   42MOL0     H 5623   5.074  10.416   3.227 -0.3076  1.4497  0.6841
   42MOL0     H 5624   5.117  10.492   2.997  3.9698  3.2507 -1.7896
   42MOL0     H 5625   5.273  10.420   2.989  0.5296 -2.9158 -0.4206
   42MOL0     H 5626   5.066  10.294   2.877 -0.4996 -1.4165  0.6048
   42MOL0     H 5627   5.018  10.251   3.039 -1.4328 -2.2562 -2.5046
   42MOL0     H 5628   5.169  10.063   3.028  3.4529  0.0405  4.7161
   42MOL0     H 5629   5.296  10.179   3.039 -2.6190  2.1661  1.1031
   42MOL0     H 5630   5.297  10.130   2.575  0.9670 -3.1509 -4.1693
   42MOL0     H 5631   5.223   9.965   2.419 -3.7864 -0.5126 -0.5276
   42MOL0     H 5632   5.055   9.708   2.114 -0.3894 -0.4788 -1.8873
   42MOL0     H 5633   5.020   9.495   2.003 -0.7658  1.4186  1.0540
   42MOL0     H 5634   4.994   9.259   1.907  0.0986  0.7318 -4.4879
   42MOL0     H 5635   5.139   9.350   1.882 -1.9226  0.6347 -0.8862
   42MOL0     H 5636   5.269   9.119   1.873 -0.8551 -3.2041  0.1983
   42MOL0     H 5637   5.124   9.042   1.902  1.3968 -0.9339 -0.8705
   42MOL0     H 5638   5.008   9.106   1.720 -0.0376 -0.6243 -3.2007
   42MOL0     H 5639   5.130   9.226   1.664 -1.8574  0.6624  0.7273
   42MOL0     H 5640   5.218   8.943   1.706  1.1447  1.4968  2.6076
   42MOL0     H 5641   5.281   9.068   1.606  0.8939 -0.7730  1.2344
   42MOL0     H 5642   5.073   9.048   1.453  0.1997 -2.1748 -1.9491
   42MOL0     H 5643   5.019   8.912   1.556 -0.6127  2.2633  0.4250
   42MOL0     H 5644   5.272   8.950   1.395 -0.2031 -1.3410 -2.1736
   42MOL0     H 5645   5.252   8.808   1.494 -0.2056 -0.0283  0.1317
   42MOL0     H 5646   5.086   8.881   1.259 -1.1754  1.5484  2.6469
   42MOL0     H 5647   5.035   8.749   1.361 -0.0556 -1.9791  0.2586
   42MOL0     H 5648   5.315   8.744   1.237 -1.2483  1.2107 -0.5004
   42MOL0     H 5649   5.215   8.620   1.317  0.2149 -0.0824  0.9065
   42MOL0     H 5650   5.237   9.284   2.307 -0.6050  0.0170 -0.0389
   42MOL0     H 5651   5.267   9.504   2.427 -0.8660  2.2865  1.0400
   42MOL0     H 5652   5.011   9.755   2.738 -0.8834  0.9928  1.0891
   42MOL0     H 5653   5.080   9.915   2.886  1.2352 -2.0771 -0.4866
   42MOL0     H 5654   4.349  10.794   3.293 -0.6054  0.5743 -1.0180
   42MOL0     H 5655   4.291  10.735   3.052 -0.0692 -0.1539  1.8272
   42MOL0     H 5656   4.243  10.913   2.639 -0.1043 -0.1126 -0.4277
   42MOL0     H 5657   4.065  10.827   2.479  0.4861  1.6320  0.1443
   42MOL0     H 5658   3.996  10.452   2.534  1.1447  1.6675  0.7595
   42MOL0     H 5659   4.059  10.394   2.385  2.1380 -1.6186  5.9591
   42MOL0     H 5660   3.786  10.461   2.453  0.2656 -1.6565  0.7127
   42MOL0     H 5661   3.855  10.325   2.359 -1.6355 -0.3781  0.3502
   42MOL0     H 5662   3.908  10.484   2.159 -0.6726 -0.0710 -1.1769
   42MOL0     H 5663   3.804  10.603   2.228  2.5219  0.5394  1.3760
   42MOL0     H 5664   3.697  10.458   2.060  1.6347  3.5207  1.1906
   42MOL0     H 5665   3.736  10.313   2.162 -1.8610 -1.5614  3.4145
   42MOL0     H 5666   3.360  10.414   2.295 -0.8310 -0.4351 -2.2380
   42MOL0     H 5667   4.253  10.448   2.459 -0.2838  0.4216 -0.9733
   42MOL0     H 5668   4.496  10.506   2.726  2.5550  0.8215 -0.4954
   42MOL0     H 5669   4.464  10.394   2.589  2.5417 -0.4658 -0.1387
   42MOL0     H 5670   4.565  10.524   2.562 -0.7056 -2.1865 -0.9643
   43MOL0     O 5671   7.107   3.084   1.084 -0.5042  0.5230 -0.5060
   43MOL0     C 5672   7.175   3.174   1.141 -0.5512  0.1919 -0.5476
   43MOL0     O 5673   7.293   3.157   1.202 -0.6211  0.9544 -0.7931
   43MOL0     C 5674   7.353   3.031   1.209  0.8146 -0.3613 -0.1252
   43MOL0     C 5675   7.288   2.916   1.267  0.3103 -1.1214  0.4777
   43MOL0     C 5676   7.360   2.800   1.273 -0.0149 -0.7803 -0.1358
   43MOL0     C 5677   7.495   2.791   1.236 -0.1112  0.7858 -0.0064
   43MOL0     O 5678   7.571   2.676   1.248 -0.8144 -0.8767 -0.2244
   43MOL0     C 5679   7.502   2.554   1.254 -0.5275  0.2844  1.1087
   43MOL0     C 5680   7.597   2.450   1.205  0.4088  0.0076 -1.5491
   43MOL0     C 5681   7.644   2.352   1.315 -0.5074  0.3346 -0.4327
   43MOL0     C 5682   7.529   2.259   1.363 -0.0510  0.2814 -0.8646
   43MOL0     C 5683   7.583   2.130   1.436  0.4939 -1.3731 -0.4648
   43MOL0     C 5684   7.633   2.141   1.578 -0.1924  0.1606  1.1891
   43MOL0     C 5685   7.706   2.005   1.616 -0.5898 -0.1239 -0.6406
   43MOL0     C 5686   7.774   2.030   1.756 -0.1164  0.2699  0.1148
   43MOL0     N 5687   7.894   2.109   1.742  0.7664 -0.2221 -0.4417
   43MOL0     C 5688   7.997   2.093   1.654 -0.6544  0.0194  0.8489
   43MOL0     C 5689   8.072   2.213   1.668 -0.5111  0.4919  0.6236
   43MOL0     C 5690   8.206   2.243   1.602 -0.0519  0.6799 -0.0560
   43MOL0     C 5691   8.250   2.384   1.624  0.0175  0.1382  0.8064
   43MOL0     C 5692   8.397   2.420   1.592 -0.0338  0.7519  0.1817
   43MOL0     C 5693   8.492   2.359   1.693  0.5043  0.0013  0.6182
   43MOL0     O 5694   8.481   2.442   1.816 -0.0846  0.3471  0.2740
   43MOL0     C 5695   8.575   2.445   1.908 -0.0512  0.9471 -0.7318
   43MOL0     C 5696   8.660   2.337   1.931 -0.8038 -1.6509  0.2127
   43MOL0     C 5697   8.751   2.340   2.042 -0.0171 -0.4851 -0.0452
   43MOL0     C 5698   8.755   2.449   2.128  0.2934 -0.8653  0.4858
   43MOL0     C 5699   8.854   2.469   2.223 -0.0965 -0.3226  0.0475
   43MOL0     O 5700   8.974   2.403   2.208  0.6851  0.3788 -0.1984
   43MOL0     C 5701   9.084   2.435   2.286 -1.4466 -0.2191  0.5596
   43MOL0     C 5702   9.108   2.380   2.406 -0.3886  0.2285 -0.7994
   43MOL0     C 5703   9.201   2.420   2.497 -0.0177 -0.1017 -0.2184
   43MOL0     C 5704   9.295   2.511   2.458  1.2258  0.1714 -0.7918
   43MOL0     O 5705   9.406   2.552   2.528  0.9042 -0.6536  0.1162
   43MOL0     C 5706   9.450   2.488   2.654  0.4120 -0.1305 -0.4184
   43MOL0     C 5707   9.574   2.563   2.724  0.5245 -0.9257 -0.4640
   43MOL0     C 5708   9.558   2.712   2.742  0.4929  0.4670  0.6766
   43MOL0     C 5709   9.434   2.743   2.833 -0.6741 -0.4976  0.2238
   43MOL0     C 5710   9.410   2.893   2.848  0.2580 -0.0104  0.8793
   43MOL0     C 5711   9.501   2.957   2.954 -0.4613 -0.8427 -1.2752
   43MOL0     C 5712   9.452   3.087   2.984  0.4622  0.1677 -0.6019
   43MOL0     C 5713   9.547   3.162   3.080 -0.5221  0.1504 -0.1330
   43MOL0    Cl 5714   9.471   3.317   3.147  0.0013 -0.1957 -0.1360
   43MOL0     C 5715   9.297   2.548   2.325  0.8259  0.8819  0.6492
   43MOL0     C 5716   9.189   2.511   2.236  0.1352  0.3768  0.6776
   43MOL0     O 5717   8.845   2.554   2.310 -0.8288 -0.9214 -0.4345
   43MOL0     C 5718   8.679   2.561   2.103  0.4425  0.3799 -0.0553
   43MOL0     C 5719   8.588   2.557   1.989  0.9703 -0.8317  0.0582
   43MOL0     N 5720   8.022   2.282   1.773 -0.0486  0.0998 -0.6236
   43MOL0     N 5721   7.918   2.229   1.807  0.4333  1.0024  0.8400
   43MOL0     C 5722   7.561   2.895   1.186  0.2446 -0.0159 -0.2206
   43MOL0     C 5723   7.489   3.016   1.172  0.4263 -0.7026 -0.5736
   43MOL0     C 5724   7.127   3.317   1.125  0.4344 -0.2813  0.2781
   43MOL0     C 5725   7.219   3.421   1.136  0.8319  0.0797  0.6214
   43MOL0     C 5726   7.190   3.555   1.152  0.6334  0.6173  0.6909
   43MOL0     C 5727   7.059   3.590   1.124  0.2381 -0.6758 -0.2847
   43MOL0     O 5728   7.025   3.720   1.138 -0.0444  0.2086 -0.3302
   43MOL0     C 5729   7.028   3.778   1.011  1.0877 -0.1089  0.2202
   43MOL0     C 5730   6.961   3.919   1.044 -0.4549  0.4819 -0.2416
   43MOL0     C 5731   7.017   3.997   1.162 -0.6731 -1.0733  0.3785
   43MOL0     C 5732   7.179   4.005   1.168 -0.3709  0.1655  1.0594
   43MOL0     C 5733   7.218   4.133   1.231 -0.5833  0.2011  0.5327
   43MOL0     C 5734   7.265   4.229   1.295  0.8587 -0.9304 -0.6176
   43MOL0     C 5735   6.967   3.494   1.095  1.1057 -0.4485 -1.2893
   43MOL0     C 5736   6.989   3.356   1.109  0.2101 -0.0504 -0.6583
   43MOL0     C 5737   6.868   3.267   1.090 -0.8449  0.7214  0.2531
   43MOL0     H 5738   7.183   2.919   1.293 -0.3293  0.9601 -1.8947
   43MOL0     H 5739   7.305   2.714   1.307  2.2770 -2.4907 -0.4925
   43MOL0     H 5740   7.462   2.534   1.354  0.7290 -2.3284  1.1781
   43MOL0     H 5741   7.421   2.564   1.181  0.3022  7.0711  0.4911
   43MOL0     H 5742   7.686   2.496   1.161 -0.8442  0.4556 -3.7815
   43MOL0     H 5743   7.549   2.391   1.125  0.7040 -1.7655 -0.4792
   43MOL0     H 5744   7.668   2.416   1.401 -2.1889  1.7896 -0.9874
   43MOL0     H 5745   7.730   2.287   1.294 -0.5988 -0.5899  1.8289
   43MOL0     H 5746   7.455   2.313   1.423 -1.0681 -2.5866  0.6825
   43MOL0     H 5747   7.481   2.212   1.277  0.9915  0.8726 -1.7794
   43MOL0     H 5748   7.490   2.071   1.438 -2.2563  2.5552  1.0994
   43MOL0     H 5749   7.660   2.087   1.372  1.9753  0.5935 -0.1023
   43MOL0     H 5750   7.696   2.230   1.591 -2.9743  2.0538  2.7196
   43MOL0     H 5751   7.548   2.152   1.645 -1.2750  2.1964 -0.3969
   43MOL0     H 5752   7.776   1.975   1.537 -0.7551 -2.6994  0.1001
   43MOL0     H 5753   7.636   1.925   1.640  0.1327 -1.4927 -2.8058
   43MOL0     H 5754   7.702   2.073   1.826 -1.5449 -0.1573 -1.0157
   43MOL0     H 5755   7.807   1.935   1.800  0.8752  0.6447  0.1866
   43MOL0     H 5756   8.012   2.012   1.583  0.2881  0.5673  0.4105
   43MOL0     H 5757   8.282   2.177   1.645  1.2393 -0.5045 -3.7022
   43MOL0     H 5758   8.215   2.208   1.499 -0.6531  0.3884 -0.0124
   43MOL0     H 5759   8.211   2.433   1.534  0.0948 -0.2485  0.5601
   43MOL0     H 5760   8.220   2.422   1.722 -0.8043 -0.1070  0.6621
   43MOL0     H 5761   8.409   2.528   1.581  0.7038  0.4527 -3.3357
   43MOL0     H 5762   8.411   2.364   1.499  0.0133  0.4501  0.3685
   43MOL0     H 5763   8.595   2.351   1.656 -0.4173 -2.9073 -1.7400
   43MOL0     H 5764   8.466   2.256   1.719  1.3038 -0.2869  0.3033
   43MOL0     H 5765   8.638   2.242   1.883 -1.0339 -0.9608 -1.0995
   43MOL0     H 5766   8.801   2.246   2.062 -2.0862 -1.5834  0.2406
   43MOL0     H 5767   9.032   2.317   2.452  1.7737  1.4448  5.4264
   43MOL0     H 5768   9.211   2.373   2.594 -2.2079 -2.8468 -1.1848
   43MOL0     H 5769   9.362   2.487   2.719 -0.3192 -0.6506 -1.3973
   43MOL0     H 5770   9.488   2.387   2.637 -0.3497 -0.5554  0.3471
   43MOL0     H 5771   9.603   2.521   2.821  3.7033  2.1633  0.1182
   43MOL0     H 5772   9.660   2.532   2.665  1.4949 -0.0036  0.4144
   43MOL0     H 5773   9.650   2.733   2.799  1.3514 -1.1586 -0.0313
   43MOL0     H 5774   9.564   2.770   2.650 -1.4139 -2.9799 -1.8557
   43MOL0     H 5775   9.460   2.701   2.931 -1.0805 -0.1429  0.4928
   43MOL0     H 5776   9.355   2.685   2.784  2.1429 -3.0758 -1.5497
   43MOL0     H 5777   9.307   2.928   2.858  1.9629  5.6799  1.9850
   43MOL0     H 5778   9.424   2.939   2.749  0.9872  1.3576  1.5832
   43MOL0     H 5779   9.484   2.904   3.048 -0.3644  4.1224  1.9557
   43MOL0     H 5780   9.608   2.947   2.933  0.7932  5.9818 -0.6801
   43MOL0     H 5781   9.353   3.082   3.031  1.3061 -1.3691  1.1308
   43MOL0     H 5782   9.443   3.151   2.896  0.2702  1.1868  0.1267
   43MOL0     H 5783   9.551   3.088   3.160 -0.0572 -0.3937 -0.6493
   43MOL0     H 5784   9.643   3.188   3.033 -0.7185 -0.9167 -1.1696
   43MOL0     H 5785   9.373   2.618   2.291  2.0391 -2.1080 -3.6606
   43MOL0     H 5786   9.191   2.552   2.136 -0.8551 -2.1542 -0.4632
   43MOL0     H 5787   8.692   2.646   2.170 -1.0522 -0.1537  0.9609
   43MOL0     H 5788   8.508   2.627   1.966  0.3532 -2.4362 -3.3005
   43MOL0     H 5789   7.663   2.879   1.150  0.3940 -3.5720  1.2757
   43MOL0     H 5790   7.539   3.107   1.141  0.3235  0.8290  3.2203
   43MOL0     H 5791   7.326   3.404   1.144  0.8207  0.5089  1.9765
   43MOL0     H 5792   7.264   3.634   1.161  2.1274  0.1865 -4.3867
   43MOL0     H 5793   6.978   3.718   0.934  1.2625  0.4890 -0.3693
   43MOL0     H 5794   7.130   3.788   0.973  1.4199 -2.4385  0.3337
   43MOL0     H 5795   6.861   3.898   1.084 -0.2258  1.6908  1.0549
   43MOL0     H 5796   6.954   3.978   0.953  3.4070 -1.4137 -1.9855
   43MOL0     H 5797   6.997   3.932   1.248 -0.2905 -0.1449  1.1845
   43MOL0     H 5798   6.963   4.091   1.177 -0.6859 -1.2926  1.9086
   43MOL0     H 5799   7.230   3.930   1.229 -0.0647 -0.6603 -0.1579
   43MOL0     H 5800   7.222   3.993   1.068 -0.3957  0.4624  1.0135
   43MOL0     H 5801   7.293   4.320   1.344 -1.5225 -0.0592 -0.7691
   43MOL0     H 5802   6.870   3.540   1.082  0.5371 -0.3063  2.3638
   43MOL0     H 5803   6.867   3.241   0.984 -0.4562 -2.1112  0.8589
   43MOL0     H 5804   6.894   3.174   1.141  6.1389  1.3761 -1.1348
   43MOL0     H 5805   6.777   3.320   1.117 -1.0405  0.3999  0.2298
   44MOL0     O 5806   3.058   8.856   2.258  0.5984 -0.6486  0.2065
   44MOL0     C 5807   2.936   8.838   2.258 -0.4853  0.2653 -0.1928
   44MOL0     O 5808   2.865   8.776   2.352  0.2255  0.0018 -0.0083
   44MOL0     C 5809   2.921   8.732   2.468  0.2441 -0.0344 -0.5830
   44MOL0     C 5810   3.016   8.800   2.538 -1.0357  0.5821 -0.3363
   44MOL0     C 5811   3.036   8.755   2.664 -0.2561  0.3036 -0.6884
   44MOL0     C 5812   2.979   8.641   2.717 -0.2275  0.1835  0.0805
   44MOL0     O 5813   3.018   8.606   2.848  0.2774 -0.4044  0.5525
   44MOL0     C 5814   2.943   8.517   2.927  0.2929 -0.2172 -0.5608
   44MOL0     C 5815   3.020   8.472   3.052 -1.5435 -0.2457 -0.5810
   44MOL0     C 5816   3.148   8.403   3.019 -0.2501 -0.4950  0.5709
   44MOL0     C 5817   3.247   8.428   3.127 -0.2890  0.7380  0.1544
   44MOL0     C 5818   3.264   8.304   3.221  0.6139  0.1396  0.1313
   44MOL0     C 5819   3.396   8.344   3.294  0.0787 -0.6741 -0.7049
   44MOL0     C 5820   3.413   8.279   3.433 -0.4755 -0.2112  0.8259
   44MOL0     C 5821   3.419   8.126   3.437  0.0186 -0.7200 -0.1543
   44MOL0     N 5822   3.535   8.081   3.500  0.5367 -0.5605 -0.7966
   44MOL0     C 5823   3.663   8.069   3.445 -0.4392 -0.9815 -0.0420
   44MOL0     C 5824   3.744   8.025   3.547  0.3359  0.1795  0.7582
   44MOL0     C 5825   3.890   7.998   3.541 -0.0649  0.5672  0.3797
   44MOL0     C 5826   3.931   7.875   3.470 -0.6861 -0.0055  0.0004
   44MOL0     C 5827   4.080   7.849   3.482  0.1093  0.2326  0.4570
   44MOL0     C 5828   4.134   7.712   3.416  0.3102  0.0112 -0.8987
   44MOL0     O 5829   4.126   7.722   3.279 -0.5480 -0.4338 -0.4481
   44MOL0     C 5830   4.164   7.600   3.222  1.3127 -0.0718  0.6801
   44MOL0     C 5831   4.287   7.537   3.245  0.6730  0.3379 -0.4560
   44MOL0     C 5832   4.306   7.407   3.179 -0.8043 -0.7440  1.3853
   44MOL0     C 5833   4.206   7.350   3.086  0.7123  0.6609  0.1112
   44MOL0     C 5834   4.254   7.230   3.015 -0.8932  0.2887  0.0182
   44MOL0     O 5835   4.154   7.148   2.978  0.1074 -0.2488 -0.4005
   44MOL0     C 5836   4.178   7.046   2.894 -0.1614 -0.1559 -0.3040
   44MOL0     C 5837   4.254   7.065   2.780 -0.3130  0.8529  1.0569
   44MOL0     C 5838   4.270   6.952   2.694  0.1914 -0.8558 -0.5156
   44MOL0     C 5839   4.223   6.825   2.734  0.0976  1.0210  0.3031
   44MOL0     O 5840   4.253   6.703   2.681 -0.2950 -0.8524 -0.2967
   44MOL0     C 5841   4.330   6.711   2.554  0.9694  0.3308  0.2790
   44MOL0     C 5842   4.245   6.745   2.424  0.4663  0.0162 -0.9176
   44MOL0     C 5843   4.317   6.710   2.302  0.4033 -0.3740  0.2984
   44MOL0     C 5844   4.434   6.808   2.257 -0.2041 -0.2185 -0.5651
   44MOL0     C 5845   4.389   6.940   2.195  0.7586  0.1973  0.1719
   44MOL0     C 5846   4.504   7.040   2.207  0.0258  0.3031  0.1606
   44MOL0     C 5847   4.456   7.183   2.183  0.0670  0.7062 -0.7277
   44MOL0     C 5848   4.484   7.277   2.302 -0.4859  0.9144  0.0995
   44MOL0    Cl 5849   4.653   7.310   2.323 -0.1338  0.1444 -0.4470
   44MOL0     C 5850   4.157   6.810   2.854  0.6615  0.0432 -0.0257
   44MOL0     C 5851   4.117   6.923   2.925  1.1536 -0.6100  0.3970
   44MOL0     O 5852   4.371   7.205   3.005  0.6458  0.3278 -0.0988
   44MOL0     C 5853   4.088   7.417   3.071  0.0958 -0.2507 -0.5783
   44MOL0     C 5854   4.065   7.553   3.127 -0.5384  0.5887 -0.3106
   44MOL0     N 5855   3.666   8.011   3.658  0.0276 -0.3923 -0.1091
   44MOL0     N 5856   3.549   8.049   3.638 -0.0621 -0.4142  0.2884
   44MOL0     C 5857   2.888   8.568   2.642  0.5150  0.3268 -0.0494
   44MOL0     C 5858   2.863   8.612   2.520  0.6179 -0.2136  0.7779
   44MOL0     C 5859   2.864   8.868   2.131  1.1666  0.0102 -0.3501
   44MOL0     C 5860   2.720   8.864   2.136  0.0203  0.1759 -0.0146
   44MOL0     C 5861   2.631   8.868   2.024 -0.2312 -0.3912 -0.3203
   44MOL0     C 5862   2.690   8.907   1.905 -0.1719  0.0779 -1.2365
   44MOL0     O 5863   2.604   8.934   1.805  0.6058 -0.2957 -0.2303
   44MOL0     C 5864   2.642   9.037   1.708 -0.9169  0.3380  0.4603
   44MOL0     C 5865   2.669   9.179   1.770 -0.1760 -0.2130  0.1777
   44MOL0     C 5866   2.668   9.273   1.650  0.0488 -0.3117 -1.2283
   44MOL0     C 5867   2.766   9.237   1.545  0.1331  0.7853 -0.3092
   44MOL0     C 5868   2.815   9.359   1.470  0.3174 -0.4431  1.0162
   44MOL0     C 5869   2.844   9.470   1.422 -0.5299  0.0561  0.0409
   44MOL0     C 5870   2.832   8.905   1.895 -0.1233 -0.6496 -0.0741
   44MOL0     C 5871   2.915   8.891   2.000  0.0680  0.3667 -0.6384
   44MOL0     C 5872   3.063   8.886   1.975  0.5286  0.7284 -0.3152
   44MOL0     H 5873   3.064   8.893   2.510  0.3885  0.3149  1.0965
   44MOL0     H 5874   3.121   8.800   2.716 -0.2538 -0.8699  0.3525
   44MOL0     H 5875   2.856   8.571   2.967  0.9618  0.2848  0.2569
   44MOL0     H 5876   2.912   8.432   2.865  3.1492 -0.0750 -2.3560
   44MOL0     H 5877   2.976   8.386   3.104 -0.3304  0.6185  1.9954
   44MOL0     H 5878   3.043   8.554   3.119  2.1521 -2.5420  1.2715
   44MOL0     H 5879   3.191   8.458   2.935 -1.1389 -1.9884 -0.9193
   44MOL0     H 5880   3.143   8.296   2.997 -0.9161 -0.7598  1.9194
   44MOL0     H 5881   3.344   8.430   3.076  1.0929  1.0927  2.6425
   44MOL0     H 5882   3.240   8.523   3.181 -1.6287  0.1632  1.0356
   44MOL0     H 5883   3.182   8.288   3.291 -0.4738 -1.5956 -1.4347
   44MOL0     H 5884   3.274   8.214   3.160 -3.4508  0.5446 -1.4845
   44MOL0     H 5885   3.477   8.322   3.223  2.8712  0.2242  2.0106
   44MOL0     H 5886   3.393   8.449   3.323 -0.9607 -0.4401 -1.5746
   44MOL0     H 5887   3.328   8.311   3.494 -3.0557 -1.4564 -1.8608
   44MOL0     H 5888   3.504   8.321   3.476 -0.2823  0.6236 -0.3283
   44MOL0     H 5889   3.332   8.087   3.492 -0.0444 -0.6410 -0.1973
   44MOL0     H 5890   3.406   8.081   3.338 -1.7545 -3.5467  1.2320
   44MOL0     H 5891   3.693   8.086   3.342  1.7653 -3.5367  0.0674
   44MOL0     H 5892   3.943   8.080   3.490 -0.0974 -1.4213 -3.2154
   44MOL0     H 5893   3.913   7.984   3.647  0.2712 -2.7458 -0.0381
   44MOL0     H 5894   3.871   7.792   3.509 -0.4419 -1.3936 -2.3578
   44MOL0     H 5895   3.903   7.881   3.364  2.4945  1.1840 -0.8905
   44MOL0     H 5896   4.124   7.838   3.581  0.6108  1.4617  0.3841
   44MOL0     H 5897   4.128   7.929   3.426 -1.0079 -1.3632 -3.0970
   44MOL0     H 5898   4.071   7.629   3.451  2.8853 -1.2841  1.0055
   44MOL0     H 5899   4.237   7.689   3.446 -0.6999 -3.8031  0.1512
   44MOL0     H 5900   4.357   7.571   3.321  0.7707 -2.1012  0.6349
   44MOL0     H 5901   4.398   7.350   3.190  0.0806 -0.0965 -1.5374
   44MOL0     H 5902   4.284   7.161   2.738  2.8011 -0.2489  0.4728
   44MOL0     H 5903   4.328   6.978   2.606  2.3943  1.0536  1.3646
   44MOL0     H 5904   4.415   6.777   2.570  0.3367  1.3475 -0.4819
   44MOL0     H 5905   4.378   6.615   2.532 -1.6685 -1.5721  2.0674
   44MOL0     H 5906   4.145   6.700   2.433 -0.3904  2.0831  0.8193
   44MOL0     H 5907   4.219   6.851   2.412  1.5605  0.2030 -1.7507
   44MOL0     H 5908   4.366   6.612   2.309  0.6882 -0.5878 -2.9755
   44MOL0     H 5909   4.248   6.705   2.216 -2.2137 -2.0486  2.3317
   44MOL0     H 5910   4.490   6.761   2.175 -0.5126  3.7219 -3.2885
   44MOL0     H 5911   4.506   6.826   2.337  0.1247  0.7678 -1.0743
   44MOL0     H 5912   4.298   6.972   2.248 -0.8389 -0.7235 -1.8817
   44MOL0     H 5913   4.368   6.923   2.089 -2.7437 -0.7421  0.8762
   44MOL0     H 5914   4.553   7.029   2.304 -0.7962 -0.0350  0.5380
   44MOL0     H 5915   4.581   7.026   2.130  0.5614 -0.7831  0.8718
   44MOL0     H 5916   4.350   7.190   2.153 -1.3907 -1.6385  3.1996
   44MOL0     H 5917   4.520   7.225   2.104  2.9775 -0.8781  0.6585
   44MOL0     H 5918   4.437   7.368   2.264 -0.1996  1.8788  1.9351
   44MOL0     H 5919   4.442   7.244   2.398 -0.3698 -0.9489 -0.4671
   44MOL0     H 5920   4.125   6.713   2.892 -0.5583  0.6514  0.5613
   44MOL0     H 5921   4.055   6.908   3.012  0.9394 -1.8102  0.0569
   44MOL0     H 5922   4.015   7.368   3.007  0.3092  0.8896 -1.7307
   44MOL0     H 5923   3.972   7.600   3.100  0.3256  1.9482 -1.0207
   44MOL0     H 5924   2.844   8.476   2.680  1.5449  1.0607  3.2988
   44MOL0     H 5925   2.785   8.559   2.466  1.1333 -0.3601  0.1591
   44MOL0     H 5926   2.663   8.848   2.227 -0.6857  3.3264  0.2146
   44MOL0     H 5927   2.524   8.856   2.037 -0.8124  3.1660 -1.0061
   44MOL0     H 5928   2.554   9.042   1.644  0.6696  1.1128 -1.8181
   44MOL0     H 5929   2.733   8.999   1.660 -1.5584 -1.8858  0.9109
   44MOL0     H 5930   2.761   9.191   1.828  1.4959 -1.2094 -2.1156
   44MOL0     H 5931   2.585   9.213   1.832  0.3155  4.9054 -1.5428
   44MOL0     H 5932   2.666   9.376   1.686 -1.1047  0.8075 -4.2564
   44MOL0     H 5933   2.575   9.274   1.594  1.9186 -2.1092 -4.7074
   44MOL0     H 5934   2.852   9.182   1.584 -1.0812 -1.0117 -0.0809
   44MOL0     H 5935   2.714   9.168   1.478  1.9175  0.0373 -0.9891
   44MOL0     H 5936   2.899   9.547   1.372  0.9588 -1.8462 -1.4476
   44MOL0     H 5937   2.879   8.921   1.798  2.2360 -1.4032  0.8686
   44MOL0     H 5938   3.099   8.783   1.972 -0.3236  0.4163 -0.3396
   44MOL0     H 5939   3.086   8.938   1.882  2.9848  0.9099  0.3337
   44MOL0     H 5940   3.124   8.932   2.053  0.8068  1.4879 -0.9744
   45MOL0     O 5941   9.159   5.997   3.717 -1.0214 -0.6342 -1.1536
   45MOL0     C 5942   9.124   5.883   3.738 -0.1955  0.3657 -0.6541
   45MOL0     O 5943   9.151   5.804   3.859 -0.3667  0.2691 -0.2407
   45MOL0     C 5944   9.164   5.853   3.984  0.4180 -0.0780  0.0813
   45MOL0     C 5945   9.173   5.757   4.087 -0.1450 -0.1111  0.0514
   45MOL0     C 5946   9.171   5.799   4.217  0.0944 -0.4834  0.8746
   45MOL0     C 5947   9.164   5.931   4.254  0.1678  0.7946 -1.2109
   45MOL0     O 5948   9.156   5.962   4.385  0.5512  0.7015  0.2118
   45MOL0     C 5949   9.080   6.082   4.406 -0.9578  0.0133  0.6269
   45MOL0     C 5950   9.063   6.109   4.554 -0.5190  0.1824  0.0177
   45MOL0     C 5951   9.002   5.973   4.624  0.6550  0.1195 -0.5593
   45MOL0     C 5952   8.855   5.980   4.666  0.1730 -0.2534  0.6242
   45MOL0     C 5953   8.793   5.844   4.661  0.6303  0.9484 -0.7082
   45MOL0     C 5954   8.642   5.848   4.693  0.2271 -0.5856 -0.3104
   45MOL0     C 5955   8.564   5.720   4.661  0.5004 -1.0909 -0.4243
   45MOL0     C 5956   8.416   5.732   4.695 -0.1045 -0.4465 -0.0617
   45MOL0     N 5957   8.338   5.613   4.671  0.5019  0.6633 -0.9516
   45MOL0     C 5958   8.365   5.494   4.734 -1.0425 -0.1652  0.0319
   45MOL0     C 5959   8.281   5.408   4.681  0.5926  0.2918  0.2309
   45MOL0     C 5960   8.277   5.270   4.721 -0.1059 -0.2958  0.0192
   45MOL0     C 5961   8.143   5.224   4.772  0.8327  0.2729  0.5435
   45MOL0     C 5962   8.131   5.268   4.928 -0.1046 -0.0291 -0.3130
   45MOL0     C 5963   7.997   5.242   4.993 -1.1332 -0.2028 -0.2335
   45MOL0     O 5964   7.885   5.265   4.906 -0.2710  0.2638  0.6920
   45MOL0     C 5965   7.775   5.334   4.948 -1.3679  0.4113 -0.3115
   45MOL0     C 5966   7.714   5.434   4.873  1.0447 -0.8363  0.1169
   45MOL0     C 5967   7.599   5.497   4.916 -0.4071  0.3708  0.0556
   45MOL0     C 5968   7.535   5.461   5.039 -1.4220 -0.1793  0.3824
   45MOL0     C 5969   7.410   5.528   5.074  0.3743  0.7958 -0.9249
   45MOL0     O 5970   7.384   5.655   5.032  0.5705 -1.0422  0.1031
   45MOL0     C 5971   7.269   5.724   5.073 -0.2732  0.9957 -0.8574
   45MOL0     C 5972   7.149   5.676   5.149 -0.6824 -0.9706  0.0530
   45MOL0     C 5973   7.045   5.760   5.195  0.3664  1.0551  0.1244
   45MOL0     C 5974   7.052   5.901   5.160  0.4481 -0.2257 -1.0448
   45MOL0     O 5975   6.975   5.991   5.229 -0.9392 -0.9913  0.7838
   45MOL0     C 5976   6.866   6.035   5.153  0.4603  0.1145 -0.7879
   45MOL0     C 5977   6.736   5.950   5.179  0.1895  0.1048  0.1402
   45MOL0     C 5978   6.725   5.912   5.327  0.5668  1.0448  0.9134
   45MOL0     C 5979   6.586   5.850   5.354  0.1285  0.7219 -0.1794
   45MOL0     C 5980   6.589   5.758   5.484 -0.2598 -0.6773 -0.1133
   45MOL0     C 5981   6.448   5.728   5.529 -0.0086  0.2852 -1.1416
   45MOL0     C 5982   6.451   5.604   5.625 -0.2016 -0.1841  0.1650
   45MOL0     C 5983   6.526   5.622   5.756 -0.1057  0.0432  0.0865
   45MOL0    Cl 5984   6.481   5.493   5.878 -0.0892 -0.2238 -0.0465
   45MOL0     C 5985   7.151   5.950   5.084  0.5077  0.0793 -0.1080
   45MOL0     C 5986   7.257   5.861   5.035  0.4213  0.9402  1.1391
   45MOL0     O 5987   7.336   5.458   5.152 -0.2929  0.4532 -0.8725
   45MOL0     C 5988   7.595   5.348   5.111  0.6468 -0.3115 -0.1858
   45MOL0     C 5989   7.712   5.298   5.071 -0.2570  0.1275 -0.1817
   45MOL0     N 5990   8.196   5.464   4.591 -0.4091 -0.3486  0.8020
   45MOL0     N 5991   8.229   5.591   4.588 -0.0212 -0.3589 -0.8274
   45MOL0     C 5992   9.149   6.025   4.153  0.3840 -0.3148 -0.0468
   45MOL0     C 5993   9.148   5.986   4.021 -0.1954 -0.1099 -0.7292
   45MOL0     C 5994   9.069   5.790   3.629  0.4996 -0.2677 -0.6213
   45MOL0     C 5995   9.039   5.650   3.654 -0.9891  0.9489 -0.1041
   45MOL0     C 5996   8.973   5.569   3.560 -0.4095 -0.7760 -0.3250
   45MOL0     C 5997   8.944   5.628   3.439  0.5718  0.0041 -0.9593
   45MOL0     O 5998   8.891   5.563   3.339 -0.4623 -0.4948  0.6830
   45MOL0     C 5999   8.864   5.421   3.346 -0.1099  0.7118 -0.6287
   45MOL0     C 6000   8.812   5.377   3.206  0.5063  0.8440 -0.2893
   45MOL0     C 6001   8.678   5.437   3.166  0.2269 -0.7755 -0.0324
   45MOL0     C 6002   8.647   5.404   3.025 -0.4914  0.2435  0.5672
   45MOL0     C 6003   8.659   5.258   2.991  0.0954 -0.2392 -0.4795
   45MOL0     C 6004   8.673   5.148   2.946  0.4327  0.2350 -0.0432
   45MOL0     C 6005   8.964   5.760   3.412 -0.2170  0.6913  0.5653
   45MOL0     C 6006   9.019   5.850   3.509 -1.1959  1.0357  0.1356
   45MOL0     C 6007   9.037   5.993   3.474 -0.6330 -1.4845 -0.2420
   45MOL0     H 6008   9.163   5.651   4.068 -3.6199  0.1988 -0.6354
   45MOL0     H 6009   9.181   5.729   4.299 -1.8562  1.4146  2.8598
   45MOL0     H 6010   9.121   6.178   4.374  1.9352 -0.9443  1.1413
   45MOL0     H 6011   8.976   6.071   4.373 -1.0897  2.4243  0.0213
   45MOL0     H 6012   9.006   6.201   4.570 -0.8709 -0.1115  0.4850
   45MOL0     H 6013   9.160   6.125   4.601 -0.2524 -4.4869  1.5279
   45MOL0     H 6014   9.058   5.949   4.714 -0.5978  1.0695  0.5116
   45MOL0     H 6015   9.007   5.881   4.565 -1.9097 -0.8477  0.6002
   45MOL0     H 6016   8.852   6.017   4.768 -1.1054 -0.6280  0.7494
   45MOL0     H 6017   8.806   6.049   4.597  1.3832 -0.5394 -0.5710
   45MOL0     H 6018   8.797   5.803   4.559 -2.4366 -0.3498 -0.4343
   45MOL0     H 6019   8.846   5.773   4.726  2.3931  1.9926 -0.9474
   45MOL0     H 6020   8.640   5.873   4.800  2.4108 -1.8757  0.0895
   45MOL0     H 6021   8.601   5.937   4.643 -1.2540 -0.2331  1.4128
   45MOL0     H 6022   8.607   5.633   4.712 -2.2393 -0.7938  2.7242
   45MOL0     H 6023   8.573   5.707   4.553 -1.4857  0.8344 -0.8929
   45MOL0     H 6024   8.402   5.758   4.800 -0.1447  2.0821 -0.6377
   45MOL0     H 6025   8.385   5.813   4.628  0.3354 -0.1310  0.1132
   45MOL0     H 6026   8.442   5.479   4.809 -1.1794  0.5599  0.3263
   45MOL0     H 6027   8.304   5.205   4.637  0.1605 -0.0272 -0.1066
   45MOL0     H 6028   8.351   5.261   4.801 -0.2067  1.9533  0.4261
   45MOL0     H 6029   8.056   5.273   4.727  0.6542 -0.7144 -0.2148
   45MOL0     H 6030   8.130   5.115   4.766 -1.5890  0.5235 -0.0290
   45MOL0     H 6031   8.141   5.377   4.937 -2.7883  0.2443  0.2770
   45MOL0     H 6032   8.210   5.226   4.990  0.7055  2.8001  0.7406
   45MOL0     H 6033   7.987   5.306   5.081  0.4817 -2.7946  1.9867
   45MOL0     H 6034   8.015   5.138   5.022 -0.0559 -0.3579 -1.3604
   45MOL0     H 6035   7.762   5.489   4.793 -2.0091  4.2581  1.3653
   45MOL0     H 6036   7.569   5.586   4.861  0.7086  0.7622  0.0513
   45MOL0     H 6037   7.140   5.571   5.175  0.9317 -0.9410  0.8616
   45MOL0     H 6038   6.953   5.729   5.244 -0.4934 -1.1743 -2.5904
   45MOL0     H 6039   6.847   6.140   5.180  3.3553  0.1458  1.6318
   45MOL0     H 6040   6.889   6.040   5.047  1.7627  0.4724 -0.5042
   45MOL0     H 6041   6.653   6.009   5.138  1.4744  0.9075 -1.4203
   45MOL0     H 6042   6.740   5.858   5.120 -4.0758  0.4767 -1.0688
   45MOL0     H 6043   6.806   5.848   5.365 -1.5483 -0.9401  2.3096
   45MOL0     H 6044   6.733   6.003   5.388 -0.8345  0.4375  2.0609
   45MOL0     H 6045   6.562   5.789   5.267  4.2055 -1.9515  0.3158
   45MOL0     H 6046   6.514   5.933   5.351  1.4425  1.9896 -4.9556
   45MOL0     H 6047   6.640   5.826   5.553  0.9499 -0.7654 -0.8905
   45MOL0     H 6048   6.649   5.668   5.466  2.8799  1.3558 -0.5458
   45MOL0     H 6049   6.403   5.811   5.585 -0.1982 -1.0146  0.7536
   45MOL0     H 6050   6.374   5.696   5.455 -3.3621  1.4999  1.4175
   45MOL0     H 6051   6.485   5.518   5.567  3.7789  2.4115 -1.8485
   45MOL0     H 6052   6.344   5.586   5.641 -0.1124  0.2081  1.2347
   45MOL0     H 6053   6.634   5.620   5.744 -0.1889  3.4675 -3.2283
   45MOL0     H 6054   6.503   5.722   5.794  1.9099  1.5183 -2.3101
   45MOL0     H 6055   7.173   6.056   5.089  1.6155 -0.1885  3.4574
   45MOL0     H 6056   7.329   5.918   4.976  0.9377 -0.5428  0.2752
   45MOL0     H 6057   7.548   5.312   5.202  2.6355 -2.2925  0.1518
   45MOL0     H 6058   7.758   5.235   5.146 -1.2944  1.0658  1.2946
   45MOL0     H 6059   9.156   6.132   4.168 -0.5149 -0.6031  3.2294
   45MOL0     H 6060   9.132   6.057   3.941 -1.3478 -1.1239 -1.4168
   45MOL0     H 6061   9.079   5.614   3.748  0.2383 -1.2079 -1.3706
   45MOL0     H 6062   8.935   5.469   3.579 -4.3992  0.8516  1.5461
   45MOL0     H 6063   8.782   5.399   3.416  1.3499  0.4218  1.0702
   45MOL0     H 6064   8.960   5.376   3.372  2.5306  3.7405 -4.2312
   45MOL0     H 6065   8.806   5.268   3.199  0.9238  0.8044 -0.0809
   45MOL0     H 6066   8.888   5.401   3.131  0.7299 -0.7253 -0.5999
   45MOL0     H 6067   8.674   5.544   3.187 -0.8797 -0.1938 -2.7749
   45MOL0     H 6068   8.610   5.381   3.231 -3.0019  1.3489 -1.3168
   45MOL0     H 6069   8.548   5.436   2.993 -0.6750 -2.2301 -1.7625
   45MOL0     H 6070   8.722   5.456   2.964 -0.9168  0.2519  0.0480
   45MOL0     H 6071   8.665   5.050   2.904  1.3281  0.5637 -1.0130
   45MOL0     H 6072   8.947   5.793   3.310  2.6546 -1.0230 -0.5725
   45MOL0     H 6073   9.143   6.018   3.463 -1.2407  1.4742 -0.1923
   45MOL0     H 6074   8.987   6.015   3.379 -1.8325  0.2410  0.7523
   45MOL0     H 6075   8.987   6.061   3.543 -1.7091  1.0322 -3.2552
   46MOL0     O 6076   9.417   9.116   3.776 -1.0777 -0.4393  0.0500
   46MOL0     C 6077   9.338   9.060   3.703  0.7093  0.5759  0.2949
   46MOL0     O 6078   9.378   8.973   3.605 -0.6854 -0.7908  0.3546
   46MOL0     C 6079   9.510   8.961   3.583 -0.4869 -0.3346 -0.3978
   46MOL0     C 6080   9.569   9.023   3.478 -0.8060  0.5152  1.1380
   46MOL0     C 6081   9.709   9.009   3.450 -0.3712  0.9379 -0.7151
   46MOL0     C 6082   9.790   8.925   3.533  0.3401  0.7715 -0.0491
   46MOL0     O 6083   9.915   8.905   3.486 -0.6153  0.5240 -0.5567
   46MOL0     C 6084  10.005   8.827   3.565  0.2466  0.6128 -0.1507
   46MOL0     C 6085  10.107   8.755   3.481  0.6843  0.0750  0.1098
   46MOL0     C 6086  10.056   8.674   3.364  0.2313 -0.1944 -0.3433
   46MOL0     C 6087  10.157   8.574   3.332 -0.0008 -0.0725  0.1305
   46MOL0     C 6088  10.307   8.624   3.305  0.2418  0.4835 -0.3928
   46MOL0     C 6089  10.312   8.707   3.172 -0.4652 -0.7645  0.2634
   46MOL0     C 6090  10.444   8.752   3.124  0.0530 -0.4759  0.1998
   46MOL0     C 6091  10.446   8.857   3.007 -0.2726 -1.1988 -0.4252
   46MOL0     N 6092  10.412   8.803   2.877  0.5145  0.3066  0.4599
   46MOL0     C 6093  10.494   8.791   2.764  0.5790  0.5258  0.0077
   46MOL0     C 6094  10.428   8.729   2.668 -0.8512  0.3899 -0.4997
   46MOL0     C 6095  10.500   8.697   2.541 -0.5502  0.3269 -0.6982
   46MOL0     C 6096  10.422   8.751   2.419  0.7231  0.1222  0.1121
   46MOL0     C 6097  10.497   8.752   2.291 -1.8342 -0.8713  0.3878
   46MOL0     C 6098  10.574   8.621   2.259 -0.0749 -0.5176  0.2739
   46MOL0     O 6099  10.640   8.629   2.131 -0.4228  0.0368 -1.4347
   46MOL0     C 6100  10.726   8.530   2.089  0.3091  0.4970  0.2272
   46MOL0     C 6101  10.844   8.569   2.012 -0.5529 -0.4599  1.1442
   46MOL0     C 6102  10.939   8.480   1.959  0.0201 -0.1508  0.4041
   46MOL0     C 6103  10.914   8.339   1.964  1.3213  0.1079 -0.6910
   46MOL0     C 6104  11.006   8.232   1.909 -0.8420  0.2010 -0.1143
   46MOL0     O 6105  11.106   8.274   1.825 -0.6013  1.0231 -0.1180
   46MOL0     C 6106  11.210   8.194   1.790 -1.0885  0.6102  0.0082
   46MOL0     C 6107  11.268   8.207   1.658 -1.1767 -0.3332 -0.3898
   46MOL0     C 6108  11.385   8.138   1.620 -1.0109  0.9676  0.3108
   46MOL0     C 6109  11.442   8.042   1.703  0.1260  0.9920 -0.4370
   46MOL0     O 6110  11.559   7.981   1.670  0.2550 -0.3921 -0.6814
   46MOL0     C 6111  11.603   7.860   1.726  0.4561  0.0945 -0.3604
   46MOL0     C 6112  11.753   7.842   1.724  0.2106  0.4264  0.7327
   46MOL0     C 6113  11.783   7.691   1.772  0.1886 -0.7042  0.7711
   46MOL0     C 6114  11.728   7.668   1.912  0.1290  0.3351 -0.6252
   46MOL0     C 6115  11.798   7.544   1.968 -0.1848  0.2009  0.2559
   46MOL0     C 6116  11.950   7.542   1.980  0.2187 -0.6680 -0.6105
   46MOL0     C 6117  11.995   7.413   2.051 -0.5735  1.1783 -0.3718
   46MOL0     C 6118  12.129   7.412   2.112 -0.3029 -0.3801 -0.0691
   46MOL0    Cl 6119  12.245   7.482   2.036  0.1901  0.2748  0.1436
   46MOL0     C 6120  11.395   8.031   1.829 -0.2284  0.1384  0.0376
   46MOL0     C 6121  11.288   8.105   1.869 -0.4946 -0.6882 -0.1495
   46MOL0     O 6122  10.977   8.113   1.926 -0.5300 -0.1222 -0.2078
   46MOL0     C 6123  10.792   8.306   2.034  0.5645  0.4053  0.8544
   46MOL0     C 6124  10.695   8.393   2.090  0.2342 -0.0449 -0.7443
   46MOL0     N 6125  10.296   8.712   2.716 -0.5192 -0.2168  0.9704
   46MOL0     N 6126  10.290   8.775   2.832  0.7767 -0.5673  0.4943
   46MOL0     C 6127   9.724   8.870   3.650  0.1350  0.5679 -0.1966
   46MOL0     C 6128   9.590   8.891   3.673  0.4242 -0.0356 -0.2017
   46MOL0     C 6129   9.191   9.067   3.716 -0.3374  0.2003  0.1722
   46MOL0     C 6130   9.109   9.077   3.604  0.2047  0.3255 -0.6640
   46MOL0     C 6131   8.969   9.079   3.610  0.3458  0.1101  0.3801
   46MOL0     C 6132   8.910   9.100   3.731 -0.3641 -0.0688 -0.4107
   46MOL0     O 6133   8.772   9.100   3.749 -0.1161  0.7227  0.1464
   46MOL0     C 6134   8.680   9.126   3.644 -0.1532 -0.0091  0.4208
   46MOL0     C 6135   8.708   9.265   3.591  0.0218  0.5726  0.4689
   46MOL0     C 6136   8.611   9.296   3.468 -0.0271 -0.2670  0.1864
   46MOL0     C 6137   8.670   9.245   3.335 -0.0230  0.0222 -0.4546
   46MOL0     C 6138   8.702   9.097   3.323  0.8526 -0.0973  0.0419
   46MOL0     C 6139   8.746   8.985   3.311  0.7651 -0.4273 -0.1882
   46MOL0     C 6140   8.995   9.099   3.848 -0.5566  0.0092  0.3617
   46MOL0     C 6141   9.130   9.070   3.838 -0.0215 -0.0436 -0.6446
   46MOL0     C 6142   9.209   9.058   3.968 -0.1961  0.3752  0.8240
   46MOL0     H 6143   9.518   9.077   3.399 -0.4097 -1.5715 -0.6440
   46MOL0     H 6144   9.771   9.062   3.378 -1.8335  0.7980 -2.1284
   46MOL0     H 6145  10.061   8.888   3.636  1.2410 -0.7819  0.3112
   46MOL0     H 6146   9.961   8.741   3.616  2.8228  0.5030  2.0692
   46MOL0     H 6147  10.163   8.681   3.538 -1.6928 -2.0764 -0.1569
   46MOL0     H 6148  10.180   8.830   3.447  1.1645 -0.7809 -0.7900
   46MOL0     H 6149  10.031   8.743   3.283 -1.3939  0.8078  0.9236
   46MOL0     H 6150   9.960   8.627   3.390 -0.5919  2.7920  2.7975
   46MOL0     H 6151  10.156   8.494   3.406  1.4787 -1.2389 -1.0315
   46MOL0     H 6152  10.129   8.519   3.241 -1.3211 -2.2978  1.7706
   46MOL0     H 6153  10.329   8.688   3.392 -5.3061  1.2476  0.7824
   46MOL0     H 6154  10.378   8.540   3.304  1.4005  1.4298 -0.6640
   46MOL0     H 6155  10.257   8.659   3.091 -1.1875  0.6640 -0.1219
   46MOL0     H 6156  10.258   8.800   3.192 -0.1694 -0.4478 -0.3945
   46MOL0     H 6157  10.512   8.672   3.097  0.1978 -0.4471  0.4717
   46MOL0     H 6158  10.479   8.799   3.217 -1.3325 -0.0845  0.5665
   46MOL0     H 6159  10.383   8.944   3.025  0.6939 -0.1089 -2.1174
   46MOL0     H 6160  10.547   8.896   3.001 -1.2405  1.2525 -3.3984
   46MOL0     H 6161  10.595   8.831   2.769  0.1695  1.4874  2.4218
   46MOL0     H 6162  10.603   8.731   2.550 -1.3133  2.4744  0.5875
   46MOL0     H 6163  10.512   8.592   2.514  1.6161  1.1236 -3.2875
   46MOL0     H 6164  10.332   8.689   2.410  1.4126 -1.6312  3.7599
   46MOL0     H 6165  10.398   8.856   2.441 -1.5152  0.1921 -2.1868
   46MOL0     H 6166  10.572   8.832   2.290  0.3855 -2.8126  1.7154
   46MOL0     H 6167  10.435   8.782   2.205 -0.1423 -1.8622 -1.2688
   46MOL0     H 6168  10.501   8.539   2.250 -1.8836  1.2530 -5.1725
   46MOL0     H 6169  10.654   8.606   2.332  1.8143  0.9638 -1.3727
   46MOL0     H 6170  10.868   8.675   2.011  0.0171 -0.5678 -0.5447
   46MOL0     H 6171  11.029   8.515   1.910  1.1215 -2.9706  0.2596
   46MOL0     H 6172  11.221   8.276   1.588 -0.4847  1.0227  0.4374
   46MOL0     H 6173  11.439   8.161   1.528  0.1230 -0.3784  0.6189
   46MOL0     H 6174  11.591   7.868   1.834 -0.5808 -0.7618 -0.3961
   46MOL0     H 6175  11.541   7.780   1.683  2.4513 -0.1677 -3.0281
   46MOL0     H 6176  11.788   7.869   1.624  2.3918  3.0939  2.0623
   46MOL0     H 6177  11.794   7.911   1.799 -4.1716  1.3513  2.5945
   46MOL0     H 6178  11.730   7.624   1.703 -1.1505 -1.5306  2.5403
   46MOL0     H 6179  11.890   7.675   1.755  0.1840 -1.0970  1.1141
   46MOL0     H 6180  11.620   7.647   1.908  0.5732 -2.1746 -1.2993
   46MOL0     H 6181  11.747   7.757   1.974 -0.1695 -1.6836  2.6300
   46MOL0     H 6182  11.768   7.460   1.905 -0.5515  0.9684 -0.5990
   46MOL0     H 6183  11.759   7.518   2.067 -1.2087 -2.4516 -0.7540
   46MOL0     H 6184  12.001   7.545   1.884 -0.0054 -0.4125 -0.7226
   46MOL0     H 6185  11.976   7.632   2.037  0.5342 -0.9058 -0.3766
   46MOL0     H 6186  11.996   7.332   1.978  0.2664 -0.7957  1.6705
   46MOL0     H 6187  11.931   7.385   2.135  0.8833 -1.6681 -0.0958
   46MOL0     H 6188  12.119   7.453   2.213 -0.3014  0.7796 -0.5196
   46MOL0     H 6189  12.169   7.313   2.134  1.4316 -0.1167 -1.7408
   46MOL0     H 6190  11.429   7.962   1.905 -2.3482 -0.3227  0.6244
   46MOL0     H 6191  11.260   8.066   1.967 -2.1316  0.5220 -0.0836
   46MOL0     H 6192  10.773   8.199   2.045  3.4706 -0.0011  3.3574
   46MOL0     H 6193  10.603   8.353   2.131 -1.2126  1.7319 -2.0872
   46MOL0     H 6194   9.779   8.813   3.724  2.3347 -0.0364 -2.1607
   46MOL0     H 6195   9.537   8.847   3.757  0.2137 -0.5192 -0.5862
   46MOL0     H 6196   9.167   9.078   3.512  2.9171  2.8455  0.9038
   46MOL0     H 6197   8.915   9.058   3.518  1.9160  3.0471 -1.3620
   46MOL0     H 6198   8.582   9.111   3.690  0.8321  0.5751  2.8526
   46MOL0     H 6199   8.688   9.056   3.560  3.3662  3.5081 -2.6087
   46MOL0     H 6200   8.808   9.270   3.546 -0.7239 -0.5083 -1.4417
   46MOL0     H 6201   8.691   9.337   3.671 -1.6214 -0.1479  0.8019
   46MOL0     H 6202   8.595   9.402   3.445 -0.7371 -0.5031 -0.4764
   46MOL0     H 6203   8.512   9.254   3.489  0.0963 -1.2556 -1.0871
   46MOL0     H 6204   8.614   9.290   3.252 -0.4018 -0.7523 -0.6281
   46MOL0     H 6205   8.770   9.288   3.325 -0.3246  0.4522 -1.7477
   46MOL0     H 6206   8.786   8.885   3.311 -0.5467 -0.9720 -0.3685
   46MOL0     H 6207   8.954   9.129   3.944 -2.4257  1.6325 -0.8528
   46MOL0     H 6208   9.279   9.142   3.977  1.4574 -0.6454 -1.4907
   46MOL0     H 6209   9.151   9.054   4.060 -0.8727  0.5373  0.4073
   46MOL0     H 6210   9.270   8.967   3.969 -0.1046  0.4411  1.7739
   47MOL0     O 6211   9.000   8.243   2.285  0.2870 -0.6842  0.0925
   47MOL0     C 6212   8.996   8.331   2.194 -0.1299  0.3594  0.1006
   47MOL0     O 6213   9.101   8.402   2.146 -0.1040 -0.1982 -0.2503
   47MOL0     C 6214   9.226   8.377   2.191  0.2120  0.4494  0.8338
   47MOL0     C 6215   9.288   8.458   2.278  0.8068  0.5523  0.6566
   47MOL0     C 6216   9.412   8.439   2.323 -0.4627 -0.5140  0.5082
   47MOL0     C 6217   9.476   8.322   2.284  0.6188  0.5685 -0.5723
   47MOL0     O 6218   9.607   8.299   2.323 -0.2579 -0.0407  0.3236
   47MOL0     C 6219   9.677   8.186   2.277 -0.9000 -0.3389 -0.5728
   47MOL0     C 6220   9.825   8.207   2.296 -1.5274  0.6036 -1.1305
   47MOL0     C 6221   9.905   8.096   2.214  0.6585  0.6226  0.1103
   47MOL0     C 6222   9.893   7.957   2.285  0.8061  0.0451 -0.7707
   47MOL0     C 6223   9.978   7.845   2.229 -0.0445  1.5520  1.0503
   47MOL0     C 6224   9.956   7.717   2.315 -0.9130  0.6294  1.1469
   47MOL0     C 6225  10.014   7.587   2.249 -0.8907  0.6144 -1.0853
   47MOL0     C 6226  10.159   7.553   2.263 -0.0850 -0.6398  0.2563
   47MOL0     N 6227  10.198   7.521   2.394 -1.0701 -0.6119  0.0613
   47MOL0     C 6228  10.230   7.618   2.478  0.2086 -0.7159 -0.5437
   47MOL0     C 6229  10.285   7.553   2.584 -0.1039  0.8564  0.2654
   47MOL0     C 6230  10.337   7.610   2.708  1.3122 -0.1343 -0.9930
   47MOL0     C 6231  10.227   7.705   2.766 -0.7632 -0.3246 -0.0921
   47MOL0     C 6232  10.108   7.637   2.817  0.3540  0.2132 -0.4047
   47MOL0     C 6233  10.007   7.718   2.903 -0.6676 -0.1792 -0.3330
   47MOL0     O 6234   9.909   7.778   2.814 -0.0469 -0.1918 -0.1342
   47MOL0     C 6235   9.775   7.757   2.860  0.0402  0.5484  0.3684
   47MOL0     C 6236   9.724   7.830   2.962 -0.0807  1.1137 -1.3117
   47MOL0     C 6237   9.603   7.806   3.018  0.3453 -0.4876 -0.4703
   47MOL0     C 6238   9.517   7.705   2.977 -0.5103  0.8639  0.7469
   47MOL0     C 6239   9.389   7.690   3.037 -1.5040  1.3414  0.4845
   47MOL0     O 6240   9.280   7.648   2.956 -0.4676 -0.6282 -0.6105
   47MOL0     C 6241   9.172   7.595   3.015  0.0305  0.1685 -0.2021
   47MOL0     C 6242   9.120   7.469   2.975 -0.5956 -0.4838 -0.3943
   47MOL0     C 6243   9.007   7.418   3.042  0.8326  0.7090  0.1593
   47MOL0     C 6244   8.932   7.485   3.125 -0.5462  0.3132 -0.6940
   47MOL0     O 6245   8.831   7.432   3.205 -0.3547  0.0541 -0.2781
   47MOL0     C 6246   8.821   7.286   3.219 -0.1282  0.0369  0.3118
   47MOL0     C 6247   8.715   7.261   3.328 -0.1915  0.6259 -0.5147
   47MOL0     C 6248   8.575   7.326   3.296 -0.7340 -0.0011  0.0715
   47MOL0     C 6249   8.484   7.242   3.201 -0.6239  0.0458 -0.5212
   47MOL0     C 6250   8.360   7.319   3.148  0.2089  0.2782  0.1579
   47MOL0     C 6251   8.271   7.226   3.065 -0.3839  1.0494  0.0790
   47MOL0     C 6252   8.189   7.284   2.946 -0.8479 -0.0629  0.0969
   47MOL0     C 6253   8.133   7.188   2.844  0.2527  0.0946  0.1005
   47MOL0    Cl 6254   7.984   7.109   2.919  0.4007 -0.0302  0.3969
   47MOL0     C 6255   8.973   7.617   3.146 -0.5884 -0.5909 -1.5013
   47MOL0     C 6256   9.094   7.668   3.110 -0.5537  0.4836  0.1540
   47MOL0     O 6257   9.390   7.726   3.156 -0.2448 -0.2510 -0.1375
   47MOL0     C 6258   9.564   7.630   2.867 -0.0079 -0.2374  0.5161
   47MOL0     C 6259   9.697   7.651   2.801  0.4149  0.9942  0.0253
   47MOL0     N 6260  10.284   7.423   2.555 -0.3685  0.1560 -0.5233
   47MOL0     N 6261  10.232   7.398   2.448  0.4775 -0.1134  0.3887
   47MOL0     C 6262   9.409   8.229   2.202  0.1975  0.2494 -0.3786
   47MOL0     C 6263   9.287   8.254   2.157  1.3067 -0.7818  0.1349
   47MOL0     C 6264   8.858   8.370   2.148 -1.1029 -0.3451 -0.2682
   47MOL0     C 6265   8.851   8.490   2.079 -0.5955  1.1387  0.2356
   47MOL0     C 6266   8.730   8.547   2.040  0.3011 -0.4481 -0.3327
   47MOL0     C 6267   8.612   8.474   2.062  0.4419  0.0648  0.2120
   47MOL0     O 6268   8.485   8.522   2.028  0.2116  0.5165 -0.1061
   47MOL0     C 6269   8.481   8.661   1.983 -0.5200 -0.1496 -0.5638
   47MOL0     C 6270   8.335   8.702   1.975  0.4754 -0.5704  0.2674
   47MOL0     C 6271   8.306   8.839   1.909  0.9002  0.3732  0.4277
   47MOL0     C 6272   8.352   8.846   1.757 -0.2255 -0.7620  0.7059
   47MOL0     C 6273   8.311   8.972   1.695  0.1743  0.3688  1.1042
   47MOL0     C 6274   8.287   9.078   1.645 -1.0340  0.5143  0.1390
   47MOL0     C 6275   8.619   8.351   2.127 -0.8149 -0.0839  0.1188
   47MOL0     C 6276   8.738   8.295   2.174 -0.0665 -0.5187 -0.8803
   47MOL0     C 6277   8.737   8.167   2.247 -0.0020  0.1430 -0.2713
   47MOL0     H 6278   9.231   8.547   2.302  4.1391  2.0430  4.0519
   47MOL0     H 6279   9.470   8.514   2.377 -1.3513  2.9788 -2.9402
   47MOL0     H 6280   9.637   8.106   2.340  0.2481 -0.6651 -0.2348
   47MOL0     H 6281   9.656   8.162   2.173 -0.9468 -0.0666 -0.6277
   47MOL0     H 6282   9.845   8.199   2.403  2.0700 -2.3769 -1.8350
   47MOL0     H 6283   9.862   8.299   2.249  0.2391  1.3920  1.5713
   47MOL0     H 6284  10.008   8.121   2.191  1.0698  1.6191  2.6727
   47MOL0     H 6285   9.852   8.078   2.120 -0.4857 -3.0007  1.2894
   47MOL0     H 6286   9.921   7.969   2.390 -0.5491 -0.5627 -0.3129
   47MOL0     H 6287   9.788   7.930   2.272  1.3599 -2.0469 -1.2389
   47MOL0     H 6288   9.936   7.828   2.130  1.7524  1.1361  0.3129
   47MOL0     H 6289  10.081   7.881   2.232  0.1202  1.2836 -0.5128
   47MOL0     H 6290   9.981   7.739   2.419 -0.2657  2.6549  0.6268
   47MOL0     H 6291   9.849   7.697   2.318 -1.1644  1.9836  2.8223
   47MOL0     H 6292   9.988   7.595   2.143  0.5910  0.6751 -1.4607
   47MOL0     H 6293   9.958   7.498   2.282  0.7245 -1.0974 -2.6986
   47MOL0     H 6294  10.178   7.470   2.194  0.7420  0.4180 -0.8459
   47MOL0     H 6295  10.233   7.622   2.222  1.6770 -2.4761  0.1942
   47MOL0     H 6296  10.215   7.726   2.471 -5.0363 -1.1387  0.1980
   47MOL0     H 6297  10.352   7.529   2.780 -1.0211  0.1568 -0.0756
   47MOL0     H 6298  10.434   7.658   2.691  0.8835  1.5995  1.0597
   47MOL0     H 6299  10.274   7.756   2.851 -1.1197  1.6838 -1.0559
   47MOL0     H 6300  10.199   7.791   2.705 -1.1539 -2.0515 -2.4779
   47MOL0     H 6301  10.126   7.551   2.882 -3.4107 -1.9169 -1.9075
   47MOL0     H 6302  10.045   7.600   2.736  1.1864 -2.5818  0.1128
   47MOL0     H 6303  10.059   7.798   2.958  1.4117 -0.0932 -2.2657
   47MOL0     H 6304   9.957   7.656   2.978  3.3026  0.4049  3.1821
   47MOL0     H 6305   9.786   7.912   2.995  2.2392  0.0162 -2.7300
   47MOL0     H 6306   9.587   7.861   3.110  3.1382  1.9206 -1.2457
   47MOL0     H 6307   9.165   7.411   2.895 -0.3917 -0.3221 -0.3993
   47MOL0     H 6308   8.970   7.324   3.004 -1.6866  0.7993  2.1714
   47MOL0     H 6309   8.789   7.228   3.133  0.2645 -1.9273  1.4261
   47MOL0     H 6310   8.918   7.240   3.239 -0.5936 -2.3528 -2.2432
   47MOL0     H 6311   8.705   7.153   3.341  3.0668 -0.1939 -3.4236
   47MOL0     H 6312   8.752   7.291   3.426  2.7183 -1.9687 -0.6502
   47MOL0     H 6313   8.520   7.330   3.391 -1.8858 -3.7525 -0.2593
   47MOL0     H 6314   8.585   7.425   3.252 -2.2540 -0.7096 -2.0152
   47MOL0     H 6315   8.466   7.153   3.261 -0.6584 -1.1924 -2.2756
   47MOL0     H 6316   8.543   7.207   3.115  1.1066 -0.5939  0.8653
   47MOL0     H 6317   8.393   7.400   3.082  1.0056 -0.3328 -0.2092
   47MOL0     H 6318   8.296   7.367   3.222 -1.9816 -1.7374 -0.3365
   47MOL0     H 6319   8.339   7.150   3.026 -0.8516 -1.0192  2.9567
   47MOL0     H 6320   8.208   7.169   3.133  1.1014  0.5308  1.0628
   47MOL0     H 6321   8.264   7.347   2.897  1.1354 -1.6902  0.9000
   47MOL0     H 6322   8.109   7.347   2.984 -0.0869 -0.3796  2.3817
   47MOL0     H 6323   8.115   7.238   2.748 -0.3924 -1.2353 -0.4909
   47MOL0     H 6324   8.216   7.117   2.842  0.8388  0.7099  1.1595
   47MOL0     H 6325   8.917   7.672   3.222 -0.8621 -0.6852 -1.6329
   47MOL0     H 6326   9.129   7.763   3.149  3.1445 -0.7679  0.2609
   47MOL0     H 6327   9.496   7.556   2.826 -0.8877  0.9075 -0.1506
   47MOL0     H 6328   9.730   7.594   2.715  2.1724 -3.3809  3.1845
   47MOL0     H 6329   9.451   8.131   2.182 -0.0375  0.0801 -0.0442
   47MOL0     H 6330   9.236   8.169   2.112  2.8652 -2.1154  0.7961
   47MOL0     H 6331   8.933   8.558   2.057 -3.0794  3.0883 -4.4755
   47MOL0     H 6332   8.725   8.644   1.992  2.1620  1.4803  2.9946
   47MOL0     H 6333   8.538   8.681   1.892  0.9011  2.4435  0.7955
   47MOL0     H 6334   8.528   8.722   2.060  0.6025  1.7313 -2.6070
   47MOL0     H 6335   8.294   8.717   2.075  0.8456 -1.9505  0.6436
   47MOL0     H 6336   8.274   8.625   1.928 -2.3126  2.8603 -2.3040
   47MOL0     H 6337   8.359   8.912   1.971  0.4347  0.5444  0.6291
   47MOL0     H 6338   8.198   8.857   1.909  0.9146  0.8248 -1.9866
   47MOL0     H 6339   8.457   8.835   1.730 -0.5505  1.0775 -1.6389
   47MOL0     H 6340   8.302   8.760   1.711 -0.6296  0.0163 -0.3253
   47MOL0     H 6341   8.266   9.172   1.598  2.3269  0.3253 -2.1121
   47MOL0     H 6342   8.523   8.307   2.151 -0.9278  1.4825  2.9089
   47MOL0     H 6343   8.750   8.170   2.356 -3.4167  1.3810  0.2225
   47MOL0     H 6344   8.640   8.118   2.237 -0.6271  0.9848  1.3021
   47MOL0     H 6345   8.818   8.101   2.213  0.9504  0.0027  2.0947
   48MOL0     O 6346   7.500   8.242   5.325  0.2861 -0.9018  0.1165
   48MOL0     C 6347   7.558   8.195   5.418  0.2536 -0.4151  0.3775
   48MOL0     O 6348   7.495   8.127   5.518  0.9455 -0.5377  0.0137
   48MOL0     C 6349   7.370   8.065   5.494  0.4047  0.2303  1.7136
   48MOL0     C 6350   7.327   8.031   5.358 -0.4721  0.0421 -1.3825
   48MOL0     C 6351   7.209   7.966   5.337  1.0959  0.8098 -0.5882
   48MOL0     C 6352   7.127   7.922   5.446  0.4511  0.1313 -0.3615
   48MOL0     O 6353   7.021   7.835   5.428  0.4944  0.0132 -0.5670
   48MOL0     C 6354   6.943   7.839   5.304  0.3284 -0.1321 -0.3959
   48MOL0     C 6355   6.857   7.964   5.306 -0.0798  0.0611  0.3017
   48MOL0     C 6356   6.710   7.955   5.250  0.4779  0.4702  0.3719
   48MOL0     C 6357   6.626   8.053   5.334 -1.0965 -0.0074 -0.3040
   48MOL0     C 6358   6.476   8.044   5.307  0.2291  1.0077  0.3440
   48MOL0     C 6359   6.396   8.118   5.397  0.8408  0.1631 -0.3579
   48MOL0     C 6360   6.244   8.103   5.375 -0.4723 -0.0554  0.8069
   48MOL0     C 6361   6.151   8.171   5.474  0.1275 -0.4468 -0.6065
   48MOL0     N 6362   6.155   8.116   5.610  0.4764  0.1038  0.1369
   48MOL0     C 6363   6.108   7.995   5.657 -0.2392  0.4164  0.3755
   48MOL0     C 6364   6.161   7.979   5.785  0.0257 -0.0282 -0.1733
   48MOL0     C 6365   6.148   7.863   5.868  0.1406  0.2382  0.3219
   48MOL0     C 6366   6.079   7.890   6.006 -0.2724 -0.7559  0.1090
   48MOL0     C 6367   5.984   8.008   5.991  1.2376 -0.0310  0.5120
   48MOL0     C 6368   5.887   8.023   6.110  0.3097 -0.7552 -0.6554
   48MOL0     O 6369   5.784   7.930   6.107 -0.3473 -0.2695 -0.7195
   48MOL0     C 6370   5.708   7.900   6.222 -1.1331 -0.1870 -0.1282
   48MOL0     C 6371   5.598   7.826   6.210 -0.4332  0.9741  0.2639
   48MOL0     C 6372   5.525   7.785   6.320  1.1059 -0.1051  0.2491
   48MOL0     C 6373   5.550   7.842   6.455 -0.3487 -0.9881  0.1786
   48MOL0     C 6374   5.466   7.813   6.565 -1.7982  0.1377 -1.0722
   48MOL0     O 6375   5.481   7.891   6.681  0.4251  0.5823  0.2647
   48MOL0     C 6376   5.383   7.890   6.778  0.3044 -0.1898 -0.1483
   48MOL0     C 6377   5.288   7.992   6.779  0.8529  0.7159 -0.1345
   48MOL0     C 6378   5.191   7.995   6.880 -0.2143 -1.1289 -0.1334
   48MOL0     C 6379   5.197   7.903   6.979  0.1776 -0.2444  0.4258
   48MOL0     O 6380   5.105   7.911   7.075  0.5925  0.3272 -0.5034
   48MOL0     C 6381   5.094   7.814   7.173 -0.6165  0.5685 -0.1351
   48MOL0     C 6382   4.977   7.848   7.265 -0.3698  0.4834 -0.1175
   48MOL0     C 6383   5.014   7.958   7.364 -0.1089  0.1002  0.9162
   48MOL0     C 6384   4.889   8.007   7.440  0.3367  0.1928  0.0591
   48MOL0     C 6385   4.919   8.104   7.555  0.2547 -0.3758  0.9030
   48MOL0     C 6386   4.790   8.172   7.621  0.3087 -0.1926  0.3200
   48MOL0     C 6387   4.813   8.301   7.713  0.7470  1.4293  0.7842
   48MOL0     C 6388   4.918   8.394   7.662 -0.2806 -0.0367  0.4967
   48MOL0    Cl 6389   4.933   8.535   7.772  0.2337 -0.0489 -0.4260
   48MOL0     C 6390   5.303   7.811   6.983 -0.9074  0.1800 -0.4323
   48MOL0     C 6391   5.387   7.793   6.876  0.0661 -0.0402  0.2437
   48MOL0     O 6392   5.375   7.737   6.538  0.6346 -0.2506 -0.0224
   48MOL0     C 6393   5.657   7.932   6.458  0.6147  0.0348  0.4262
   48MOL0     C 6394   5.737   7.957   6.350 -0.2777  0.5564 -0.1889
   48MOL0     N 6395   6.238   8.090   5.816  1.3788 -0.5697 -0.1105
   48MOL0     N 6396   6.218   8.170   5.718 -0.0945 -0.2116  0.1371
   48MOL0     C 6397   7.174   7.934   5.577 -1.1548 -0.1639 -0.0168
   48MOL0     C 6398   7.295   8.006   5.597  0.1925 -0.0762  0.0636
   48MOL0     C 6399   7.704   8.199   5.435 -0.6917  0.5563 -0.2119
   48MOL0     C 6400   7.753   8.151   5.563  0.4396  1.5793  0.6436
   48MOL0     C 6401   7.883   8.171   5.591 -0.4776 -0.3489 -0.3215
   48MOL0     C 6402   7.971   8.220   5.491 -0.4822 -0.4835 -0.1223
   48MOL0     O 6403   8.103   8.244   5.518 -0.3532 -0.0872  0.0966
   48MOL0     C 6404   8.194   8.140   5.538  0.4109  0.0052  0.4048
   48MOL0     C 6405   8.322   8.176   5.477 -0.4873 -0.2994 -0.0575
   48MOL0     C 6406   8.437   8.077   5.506  0.2929  0.0997  0.2987
   48MOL0     C 6407   8.444   8.020   5.649 -1.2725 -0.2796  1.3981
   48MOL0     C 6408   8.449   8.114   5.754  0.2450 -0.9048 -0.0048
   48MOL0     C 6409   8.425   8.189   5.845 -0.0181  0.6966  0.5571
   48MOL0     C 6410   7.931   8.266   5.366  0.3072 -0.0001 -0.8892
   48MOL0     C 6411   7.798   8.245   5.336 -0.4281  0.0058  0.7625
   48MOL0     C 6412   7.761   8.241   5.195  0.6040 -0.8920  0.7513
   48MOL0     H 6413   7.389   8.056   5.272  0.6703  1.3008 -0.2519
   48MOL0     H 6414   7.187   7.955   5.232  1.4452  1.5555 -0.7427
   48MOL0     H 6415   7.001   7.825   5.212 -0.7029  2.0690 -1.4626
   48MOL0     H 6416   6.871   7.757   5.300  0.7772 -0.5708  0.3215
   48MOL0     H 6417   6.908   8.042   5.249 -0.1801 -0.5693 -0.6788
   48MOL0     H 6418   6.853   7.999   5.409  0.8626  2.6057 -0.4540
   48MOL0     H 6419   6.670   7.853   5.246 -0.5613  0.8742  0.1654
   48MOL0     H 6420   6.706   8.005   5.153  1.7259  0.6146  0.3803
   48MOL0     H 6421   6.643   8.022   5.438  0.3631 -4.1903 -1.5589
   48MOL0     H 6422   6.671   8.151   5.316  0.5134 -0.9156 -1.5583
   48MOL0     H 6423   6.460   8.092   5.210 -1.4015  0.1412  0.1430
   48MOL0     H 6424   6.446   7.939   5.307  2.6884  0.2164 -1.0593
   48MOL0     H 6425   6.414   8.083   5.499  2.1392 -1.5307 -1.1181
   48MOL0     H 6426   6.428   8.221   5.378  1.6658 -0.2372 -1.2055
   48MOL0     H 6427   6.214   7.999   5.356 -0.9324  0.4444 -1.4394
   48MOL0     H 6428   6.235   8.152   5.278  1.1405  0.4825  0.8987
   48MOL0     H 6429   6.170   8.279   5.478  0.4749 -0.5434  1.2643
   48MOL0     H 6430   6.047   8.167   5.438 -0.7842  3.2695  1.0724
   48MOL0     H 6431   6.048   7.926   5.598  1.7254 -1.3067  0.2840
   48MOL0     H 6432   6.097   7.784   5.813  1.8025 -0.0741 -0.8467
   48MOL0     H 6433   6.250   7.825   5.880  1.1850  2.0342 -2.1167
   48MOL0     H 6434   6.017   7.804   6.032 -2.5138 -0.2444 -2.9808
   48MOL0     H 6435   6.152   7.897   6.088  2.1528 -3.4202 -1.6425
   48MOL0     H 6436   5.920   8.001   5.902  0.1070  1.5852  1.1536
   48MOL0     H 6437   6.039   8.102   6.002  3.9982 -1.8531  7.6798
   48MOL0     H 6438   5.852   8.126   6.104 -2.1979 -1.4532  0.6041
   48MOL0     H 6439   5.948   8.009   6.199 -1.2969  0.6335  0.7157
   48MOL0     H 6440   5.584   7.795   6.107 -0.2539  2.0098 -0.0856
   48MOL0     H 6441   5.447   7.713   6.299  2.7169 -1.6511 -0.7541
   48MOL0     H 6442   5.286   8.066   6.699 -2.8399 -0.1696 -1.0225
   48MOL0     H 6443   5.104   8.060   6.879  0.1992 -0.3151  3.1763
   48MOL0     H 6444   5.080   7.716   7.127 -3.6776  1.6549 -1.7798
   48MOL0     H 6445   5.186   7.808   7.232 -0.3688  0.9145 -0.4857
   48MOL0     H 6446   4.889   7.867   7.202 -1.1904  0.6929  1.0427
   48MOL0     H 6447   4.964   7.750   7.311  1.8656  0.4140  0.4670
   48MOL0     H 6448   5.085   7.932   7.443 -1.3358  2.7302  3.0408
   48MOL0     H 6449   5.055   8.036   7.300 -1.8883 -0.5288 -1.0977
   48MOL0     H 6450   4.838   7.915   7.472  0.5033 -0.2259 -0.8585
   48MOL0     H 6451   4.830   8.064   7.368  1.5728  3.4649  1.4569
   48MOL0     H 6452   4.990   8.175   7.511  2.0373 -1.6201  1.6798
   48MOL0     H 6453   4.973   8.052   7.634 -0.4354  0.0210  1.6602
   48MOL0     H 6454   4.729   8.193   7.532  3.1202 -0.5220 -1.8132
   48MOL0     H 6455   4.753   8.082   7.670 -1.6143 -0.3842 -1.3129
   48MOL0     H 6456   4.840   8.273   7.815  1.4461 -1.1454 -0.0349
   48MOL0     H 6457   4.716   8.352   7.713 -0.1887 -0.2257 -1.1347
   48MOL0     H 6458   5.016   8.345   7.660 -1.4631 -2.6623  1.7594
   48MOL0     H 6459   4.893   8.426   7.561 -0.7720  0.9843  0.9199
   48MOL0     H 6460   5.329   7.743   7.063 -2.0346  1.2535  0.8850
   48MOL0     H 6461   5.457   7.711   6.863  1.8954  1.4684  0.0471
   48MOL0     H 6462   5.688   7.997   6.539 -1.9261  4.0735 -1.5363
   48MOL0     H 6463   5.826   8.016   6.369 -0.6375  0.9728  0.2094
   48MOL0     H 6464   7.122   7.869   5.647 -0.0810 -2.3793 -1.1898
   48MOL0     H 6465   7.350   7.998   5.690 -1.8427  0.1372  1.3526
   48MOL0     H 6466   7.682   8.114   5.637 -0.8682  1.0332 -0.8357
   48MOL0     H 6467   7.930   8.138   5.683 -0.4397  0.9185  0.1355
   48MOL0     H 6468   8.147   8.055   5.489  1.9316  0.2785 -1.6753
   48MOL0     H 6469   8.185   8.130   5.646 -3.5473  1.7787  0.4163
   48MOL0     H 6470   8.352   8.270   5.524  1.8478 -0.9648 -0.0884
   48MOL0     H 6471   8.306   8.193   5.370  0.3496  0.7921 -0.0295
   48MOL0     H 6472   8.523   8.142   5.494  2.0605 -2.1417  0.0681
   48MOL0     H 6473   8.429   8.000   5.429 -0.0753 -0.5077  0.9215
   48MOL0     H 6474   8.360   7.952   5.668 -1.8556  0.1019  0.2574
   48MOL0     H 6475   8.535   7.960   5.658 -0.2522  1.0514  0.3694
   48MOL0     H 6476   8.390   8.256   5.921 -0.4559  0.8291  0.2411
   48MOL0     H 6477   7.996   8.305   5.289 -0.4544  2.3593 -0.4017
   48MOL0     H 6478   7.842   8.215   5.126  2.1911 -1.2456  2.6424
   48MOL0     H 6479   7.681   8.169   5.176  0.3711 -0.8933  1.7138
   48MOL0     H 6480   7.726   8.343   5.174  0.0148 -1.4529 -1.2274
   49MOL0     O 6481   6.282   8.835   9.767  0.1616  0.1303  0.0986
   49MOL0     C 6482   6.392   8.839   9.824 -0.6264  1.4344  0.6925
   49MOL0     O 6483   6.508   8.891   9.778  0.5046 -0.2644 -0.8928
   49MOL0     C 6484   6.505   8.991   9.685 -0.3338 -0.1270  0.4506
   49MOL0     C 6485   6.425   8.992   9.568  0.8236 -0.4875  0.8717
   49MOL0     C 6486   6.430   9.089   9.469 -0.3101  0.4547 -0.7352
   49MOL0     C 6487   6.531   9.188   9.462  0.6318  0.1361  0.1103
   49MOL0     O 6488   6.542   9.297   9.368  0.8748  0.6091 -0.1696
   49MOL0     C 6489   6.434   9.308   9.277 -0.3088  0.0701  0.2813
   49MOL0     C 6490   6.454   9.434   9.189  0.5269  0.0717  0.5082
   49MOL0     C 6491   6.343   9.456   9.083  0.3772 -0.3146 -0.2640
   49MOL0     C 6492   6.368   9.559   8.969  0.1297 -0.8533  0.9467
   49MOL0     C 6493   6.247   9.585   8.877 -0.9372 -0.1636  0.6276
   49MOL0     C 6494   6.263   9.683   8.760  1.0016 -0.5797  0.2270
   49MOL0     C 6495   6.127   9.713   8.689 -0.6771  0.7121 -0.9927
   49MOL0     C 6496   6.074   9.607   8.592  0.2800  0.5125 -0.0488
   49MOL0     N 6497   5.952   9.633   8.523  0.2391  0.0516  0.3804
   49MOL0     C 6498   5.933   9.682   8.395  0.7301 -0.3516 -0.5934
   49MOL0     C 6499   5.795   9.679   8.377  0.4349  0.1811 -0.2069
   49MOL0     C 6500   5.719   9.726   8.252  0.0757 -0.0842 -0.3741
   49MOL0     C 6501   5.663   9.611   8.161 -0.5367 -0.9637 -0.4793
   49MOL0     C 6502   5.778   9.527   8.106  0.4996 -1.0832  0.2613
   49MOL0     C 6503   5.732   9.442   7.989  0.6641  0.3638 -0.1683
   49MOL0     O 6504   5.713   9.533   7.878  1.0581  0.1324 -0.3630
   49MOL0     C 6505   5.730   9.485   7.752 -0.0533 -0.1198  0.0894
   49MOL0     C 6506   5.791   9.552   7.648 -0.2052 -0.6582 -0.0658
   49MOL0     C 6507   5.798   9.505   7.523  0.8127 -0.4025  0.5776
   49MOL0     C 6508   5.746   9.379   7.493 -0.5578 -0.8774 -0.7576
   49MOL0     C 6509   5.739   9.335   7.359 -0.7679  0.0698 -0.4616
   49MOL0     O 6510   5.652   9.234   7.332 -1.4817  0.0970  0.1549
   49MOL0     C 6511   5.665   9.190   7.201  0.3815 -0.8912  0.3336
   49MOL0     C 6512   5.610   9.264   7.090 -0.2052  0.2289 -0.0642
   49MOL0     C 6513   5.618   9.214   6.956  0.1408  0.4476  0.0509
   49MOL0     C 6514   5.660   9.086   6.942 -0.0218  0.2983  0.4003
   49MOL0     O 6515   5.648   9.023   6.816  0.7310  0.1527  0.0479
   49MOL0     C 6516   5.540   8.921   6.817 -0.2558 -0.3801  0.4768
   49MOL0     C 6517   5.572   8.800   6.735 -0.4675  0.3098 -0.4877
   49MOL0     C 6518   5.701   8.728   6.774 -0.0382  0.2333 -0.1485
   49MOL0     C 6519   5.706   8.645   6.902  0.0107 -0.3585  0.5464
   49MOL0     C 6520   5.849   8.618   6.933  0.7229  0.2776 -0.0869
   49MOL0     C 6521   5.866   8.524   7.063 -0.4262 -0.2181 -1.0382
   49MOL0     C 6522   6.009   8.496   7.106  0.0616  0.2204  0.9594
   49MOL0     C 6523   6.009   8.420   7.238  0.5481  0.2541  0.7618
   49MOL0    Cl 6524   6.175   8.411   7.316  0.3705  0.1259 -0.2704
   49MOL0     C 6525   5.716   9.009   7.045  0.3781  0.1531  0.3562
   49MOL0     C 6526   5.714   9.064   7.175 -0.6286  0.0785 -0.5278
   49MOL0     O 6527   5.823   9.383   7.283  0.2948  0.0074 -0.1389
   49MOL0     C 6528   5.685   9.303   7.594  0.3996  0.2726 -0.5595
   49MOL0     C 6529   5.670   9.359   7.724  0.8946  0.1939  0.1257
   49MOL0     N 6530   5.733   9.646   8.492 -0.0730  0.7125 -0.3158
   49MOL0     N 6531   5.827   9.608   8.570  0.0789 -0.0122  0.1173
   49MOL0     C 6532   6.624   9.178   9.569 -0.0183 -0.2268 -0.3349
   49MOL0     C 6533   6.604   9.093   9.677  0.1720  1.2088  0.6142
   49MOL0     C 6534   6.398   8.744   9.938  0.6217  0.6478 -0.7383
   49MOL0     C 6535   6.513   8.680   9.959  0.7003 -0.4120 -0.5001
   49MOL0     C 6536   6.538   8.598  10.067  0.4523 -0.5541 -0.3673
   49MOL0     C 6537   6.427   8.569  10.152  0.0910 -0.1144  0.4749
   49MOL0     O 6538   6.438   8.491  10.261  0.3741  0.0719 -0.7462
   49MOL0     C 6539   6.568   8.443  10.311  0.9370  0.1993 -0.2745
   49MOL0     C 6540   6.655   8.554  10.380 -0.1914  0.6190  0.4930
   49MOL0     C 6541   6.586   8.630  10.496 -0.3197  0.1369  0.2431
   49MOL0     C 6542   6.526   8.538  10.602 -0.5498  0.6483  0.3897
   49MOL0     C 6543   6.631   8.466  10.676 -0.7647  1.1001 -0.8169
   49MOL0     C 6544   6.716   8.401  10.735  0.0698  0.4327 -0.5597
   49MOL0     C 6545   6.305   8.621  10.124 -0.4765  0.3169 -0.4895
   49MOL0     C 6546   6.284   8.713  10.025  0.3716 -0.1363 -0.1660
   49MOL0     C 6547   6.143   8.768  10.004 -0.7071  0.5076 -0.5448
   49MOL0     H 6548   6.347   8.920   9.547 -0.4392  1.3007 -1.0570
   49MOL0     H 6549   6.363   9.076   9.385 -1.6102 -0.0090  0.3358
   49MOL0     H 6550   6.437   9.222   9.209 -1.0886 -1.1989  1.7817
   49MOL0     H 6551   6.338   9.317   9.329  0.6213 -0.2048  2.1436
   49MOL0     H 6552   6.552   9.430   9.142  0.3499  0.7849  0.0672
   49MOL0     H 6553   6.442   9.522   9.253 -2.8108  0.5439 -0.5531
   49MOL0     H 6554   6.257   9.487   9.143 -0.1244  2.7351 -2.3436
   49MOL0     H 6555   6.312   9.358   9.045 -1.0264 -0.1959  0.5296
   49MOL0     H 6556   6.421   9.647   9.005  1.6280 -0.0202 -2.8129
   49MOL0     H 6557   6.443   9.514   8.903  0.3282 -3.3110  2.7262
   49MOL0     H 6558   6.218   9.490   8.832 -0.2337  0.3733 -1.0711
   49MOL0     H 6559   6.163   9.630   8.931 -2.3166  1.7413 -2.7471
   49MOL0     H 6560   6.309   9.776   8.797 -3.2267  2.7315 -1.9336
   49MOL0     H 6561   6.333   9.640   8.688 -0.3615 -4.3892  0.9412
   49MOL0     H 6562   6.146   9.802   8.629  0.0204  0.4447 -1.1803
   49MOL0     H 6563   6.061   9.737   8.773  2.2527 -2.0512  2.4217
   49MOL0     H 6564   6.155   9.581   8.523 -0.0929 -1.2130  0.1317
   49MOL0     H 6565   6.049   9.517   8.648  0.7492 -0.6946 -1.7120
   49MOL0     H 6566   6.014   9.712   8.329  1.7647 -1.0408  0.3082
   49MOL0     H 6567   5.637   9.790   8.285 -2.3981 -0.8384 -4.4487
   49MOL0     H 6568   5.785   9.792   8.194  0.7654  0.2896  0.7995
   49MOL0     H 6569   5.591   9.549   8.214  1.1671 -0.3225  2.8144
   49MOL0     H 6570   5.615   9.645   8.068  1.8960 -0.1758 -1.5341
   49MOL0     H 6571   5.820   9.459   8.180  4.2853  3.1921  2.5731
   49MOL0     H 6572   5.868   9.581   8.074 -0.8394 -0.3218 -2.5548
   49MOL0     H 6573   5.638   9.393   8.015  0.7884  0.7940  1.1418
   49MOL0     H 6574   5.806   9.366   7.962  0.4862 -0.2285  0.9756
   49MOL0     H 6575   5.837   9.648   7.670  2.9521 -2.4243  1.7385
   49MOL0     H 6576   5.836   9.585   7.460 -2.8707  1.7304  0.7600
   49MOL0     H 6577   5.577   9.367   7.099 -0.8917  0.0672 -0.5596
   49MOL0     H 6578   5.575   9.273   6.876 -0.9626  1.3879  1.3025
   49MOL0     H 6579   5.511   8.894   6.919  3.8026 -1.6508  1.4863
   49MOL0     H 6580   5.457   8.972   6.769  1.3789  0.3753 -1.7347
   49MOL0     H 6581   5.490   8.729   6.715  3.0900 -4.0609 -1.2793
   49MOL0     H 6582   5.586   8.838   6.633 -0.8024  2.9448  0.3754
   49MOL0     H 6583   5.728   8.659   6.693  0.9690  1.0663 -0.5473
   49MOL0     H 6584   5.779   8.804   6.766  0.7319 -0.4872  0.2919
   49MOL0     H 6585   5.640   8.559   6.895  0.3240 -0.8585  2.8585
   49MOL0     H 6586   5.673   8.710   6.985 -1.0191 -0.4719  0.2281
   49MOL0     H 6587   5.888   8.716   6.962  1.0179 -0.1460  1.0047
   49MOL0     H 6588   5.910   8.576   6.852  1.3817 -5.1285  2.7078
   49MOL0     H 6589   5.808   8.583   7.135  0.5895  0.9146 -1.1240
   49MOL0     H 6590   5.815   8.428   7.071 -1.7448  0.4854  6.1397
   49MOL0     H 6591   6.065   8.590   7.112  0.0986  0.1005  3.3875
   49MOL0     H 6592   6.057   8.434   7.029  0.5117  0.1532  1.2917
   49MOL0     H 6593   5.945   8.474   7.308 -4.7589 -1.8394 -1.9158
   49MOL0     H 6594   5.971   8.321   7.210  0.6912  1.5057 -5.0746
   49MOL0     H 6595   5.748   8.911   7.012  3.7908  1.3574 -0.3659
   49MOL0     H 6596   5.751   9.007   7.261 -0.6634  2.4785  1.1677
   49MOL0     H 6597   5.632   9.211   7.574  1.3397 -0.1258 -1.3089
   49MOL0     H 6598   5.616   9.303   7.800 -0.4256  2.0687  0.6287
   49MOL0     H 6599   6.693   9.261   9.576  0.0350 -0.2911 -0.0782
   49MOL0     H 6600   6.675   9.107   9.758  1.1852  2.1427 -0.3917
   49MOL0     H 6601   6.597   8.696   9.892  1.0158  3.0175  0.5057
   49MOL0     H 6602   6.640   8.564  10.076  1.9727  2.5062 -3.6949
   49MOL0     H 6603   6.630   8.389  10.239 -0.4598 -1.8405 -0.0677
   49MOL0     H 6604   6.542   8.378  10.395  2.4599  3.7876  3.2608
   49MOL0     H 6605   6.707   8.622  10.312 -0.2836  0.3995  0.1988
   49MOL0     H 6606   6.733   8.496  10.430 -1.3499 -0.9347  0.5880
   49MOL0     H 6607   6.519   8.700  10.446  2.2944  0.0388 -3.9863
   49MOL0     H 6608   6.657   8.700  10.542 -1.3806  2.9929 -2.1166
   49MOL0     H 6609   6.479   8.600  10.678  0.3588  0.7062  0.9131
   49MOL0     H 6610   6.447   8.481  10.551  0.1670  1.9186 -2.3561
   49MOL0     H 6611   6.776   8.333  10.792  0.7941  1.8956  0.5190
   49MOL0     H 6612   6.224   8.607  10.195 -0.5835 -0.2163 -0.7089
   49MOL0     H 6613   6.063   8.738  10.073  0.4416  2.7481  1.9724
   49MOL0     H 6614   6.153   8.877  10.006  0.0799  0.4503 -1.2115
   49MOL0     H 6615   6.118   8.728   9.906  2.3527  2.3681 -2.2470
   50MOL0     O 6616   1.991   1.856   3.062  0.1486  0.1541  0.6472
   50MOL0     C 6617   2.023   1.770   2.973  0.9980 -0.1411  0.3889
   50MOL0     O 6618   2.017   1.791   2.835 -0.1298  0.0272 -0.5681
   50MOL0     C 6619   1.971   1.914   2.807  0.1868  0.3862  0.7727
   50MOL0     C 6620   1.839   1.916   2.764  0.2663  0.4656 -0.3384
   50MOL0     C 6621   1.790   2.037   2.715  0.0250  0.0373 -0.4772
   50MOL0     C 6622   1.860   2.160   2.719  0.3924 -1.0004 -0.7845
   50MOL0     O 6623   1.806   2.279   2.683  0.3257  0.4659  0.1830
   50MOL0     C 6624   1.690   2.275   2.588 -0.1687  0.3093 -0.0725
   50MOL0     C 6625   1.703   2.372   2.477 -0.1382 -0.0865  0.3892
   50MOL0     C 6626   1.602   2.339   2.371 -0.4318 -0.1239  0.2085
   50MOL0     C 6627   1.619   2.428   2.244 -0.0100 -0.6668 -0.4069
   50MOL0     C 6628   1.491   2.451   2.155 -0.0219  0.3445  0.6611
   50MOL0     C 6629   1.512   2.578   2.069  0.2265  0.4628  0.4089
   50MOL0     C 6630   1.396   2.581   1.966  0.6449 -1.2862 -0.2058
   50MOL0     C 6631   1.400   2.708   1.877  0.3797  1.2737 -0.6287
   50MOL0     N 6632   1.270   2.716   1.808  0.1932 -0.1954 -0.3831
   50MOL0     C 6633   1.239   2.696   1.669  0.0835 -0.5543 -0.2264
   50MOL0     C 6634   1.101   2.692   1.671  0.8608 -0.2515 -0.1931
   50MOL0     C 6635   1.019   2.642   1.554 -0.4616 -0.0595 -0.0790
   50MOL0     C 6636   0.945   2.762   1.494  0.7890 -0.3637  0.3061
   50MOL0     C 6637   0.822   2.822   1.575 -0.5063 -0.1802  0.2195
   50MOL0     C 6638   0.752   2.932   1.490 -0.2674 -0.1738  0.0786
   50MOL0     O 6639   0.659   2.865   1.412 -0.3873  0.1778  0.1476
   50MOL0     C 6640   0.543   2.925   1.364 -0.0743 -0.0668  0.9094
   50MOL0     C 6641   0.446   2.847   1.305 -0.1039  0.1512  0.6485
   50MOL0     C 6642   0.331   2.913   1.250 -0.4784 -0.1146 -0.4801
   50MOL0     C 6643   0.309   3.055   1.265 -0.3324 -1.1063  0.2016
   50MOL0     C 6644   0.192   3.129   1.215 -0.3622  0.1830  0.0790
   50MOL0     O 6645   0.189   3.263   1.180 -0.1617 -0.1959 -0.3046
   50MOL0     C 6646   0.098   3.300   1.082 -0.6927 -0.5861  0.3157
   50MOL0     C 6647   0.021   3.403   1.126 -0.5505 -0.2255  0.3088
   50MOL0     C 6648  -0.057   3.463   1.026  0.6296 -0.5294  0.2593
   50MOL0     C 6649  -0.052   3.429   0.883  0.1394  1.4598  0.1359
   50MOL0     O 6650  -0.140   3.471   0.791 -0.4828  0.9645 -0.1524
   50MOL0     C 6651  -0.239   3.573   0.825 -0.3704  1.4404  0.3637
   50MOL0     C 6652  -0.346   3.550   0.720 -0.5340 -0.1750 -0.2916
   50MOL0     C 6653  -0.438   3.679   0.718 -0.4500  1.0720  0.3943
   50MOL0     C 6654  -0.517   3.684   0.589  0.8945  0.1770 -0.6305
   50MOL0     C 6655  -0.608   3.808   0.600 -0.9909  0.5535  0.4293
   50MOL0     C 6656  -0.713   3.796   0.491 -0.3613  0.4691  0.3563
   50MOL0     C 6657  -0.787   3.926   0.470 -0.1166  0.3504  0.3299
   50MOL0     C 6658  -0.925   3.930   0.535  0.1050 -0.5708  0.6886
   50MOL0    Cl 6659  -1.021   3.801   0.459  0.2011  0.2918 -0.3626
   50MOL0     C 6660   0.026   3.326   0.847 -1.0517 -0.9236 -0.2354
   50MOL0     C 6661   0.106   3.261   0.945 -0.0703 -0.8558 -0.1824
   50MOL0     O 6662   0.102   3.053   1.181  0.1037 -0.4951  0.5873
   50MOL0     C 6663   0.421   3.131   1.320  1.0001 -0.1148  0.0030
   50MOL0     C 6664   0.534   3.066   1.366 -0.0357 -0.5082  0.3816
   50MOL0     N 6665   1.052   2.719   1.801  0.4716 -0.5732 -0.0191
   50MOL0     N 6666   1.160   2.740   1.877  0.9105  0.2192 -0.0114
   50MOL0     C 6667   1.996   2.147   2.764  1.3383  0.6217 -0.3689
   50MOL0     C 6668   2.047   2.030   2.805 -0.5723  1.0428  0.2602
   50MOL0     C 6669   2.066   1.638   3.012 -0.3659 -0.0365  0.7842
   50MOL0     C 6670   2.151   1.575   2.922 -0.1109  0.4232  0.0055
   50MOL0     C 6671   2.210   1.450   2.953 -0.4796  0.0929  0.8847
   50MOL0     C 6672   2.175   1.390   3.075  0.2907 -0.3931 -0.3326
   50MOL0     O 6673   2.234   1.270   3.101  0.0435  0.8431  0.5809
   50MOL0     C 6674   2.174   1.165   3.171  0.5718  0.3690  0.3707
   50MOL0     C 6675   2.258   1.044   3.129 -0.2511 -0.0568 -0.2905
   50MOL0     C 6676   2.381   1.050   3.202 -0.3784  0.1625 -0.0990
   50MOL0     C 6677   2.475   0.928   3.189 -0.0408 -0.3117  1.0948
   50MOL0     C 6678   2.588   0.957   3.277  0.7704  0.4537 -0.4699
   50MOL0     C 6679   2.680   0.978   3.348 -0.0331 -0.2975 -0.1676
   50MOL0     C 6680   2.089   1.454   3.165  1.0314  0.2300 -0.5006
   50MOL0     C 6681   2.019   1.573   3.134 -0.6282 -1.0971 -0.0284
   50MOL0     C 6682   1.909   1.641   3.219  0.1414  0.0724 -0.0576
   50MOL0     H 6683   1.780   1.826   2.749  1.8345 -0.2791 -2.6487
   50MOL0     H 6684   1.686   2.024   2.686  0.7725  0.1615 -3.5445
   50MOL0     H 6685   1.671   2.177   2.543 -1.0102  1.4108 -2.2246
   50MOL0     H 6686   1.595   2.284   2.641 -0.7903  1.0184 -1.2716
   50MOL0     H 6687   1.793   2.346   2.420 -1.0947 -0.5762 -0.9498
   50MOL0     H 6688   1.720   2.476   2.506  0.8435  0.9052 -3.1840
   50MOL0     H 6689   1.506   2.377   2.406 -2.1007 -3.2207 -0.5632
   50MOL0     H 6690   1.598   2.233   2.343  1.8506 -0.8188  2.1320
   50MOL0     H 6691   1.659   2.525   2.277 -1.7522  0.1176 -0.4882
   50MOL0     H 6692   1.697   2.378   2.186  0.4116 -1.2933  0.6695
   50MOL0     H 6693   1.477   2.364   2.090  1.0358 -0.1067  1.0058
   50MOL0     H 6694   1.409   2.453   2.227  1.6830  0.8237  2.6761
   50MOL0     H 6695   1.517   2.674   2.122  0.9210  0.4421  0.3988
   50MOL0     H 6696   1.605   2.573   2.011  1.6239 -1.2453  2.5904
   50MOL0     H 6697   1.300   2.588   2.017 -1.1181  0.5849 -3.4123
   50MOL0     H 6698   1.384   2.487   1.911 -3.9175 -0.9565 -0.1303
   50MOL0     H 6699   1.419   2.802   1.930  0.2525  2.6559 -2.9134
   50MOL0     H 6700   1.489   2.698   1.814  2.2725  0.6388  1.9718
   50MOL0     H 6701   1.298   2.680   1.579 -4.6544 -0.5967 -3.7104
   50MOL0     H 6702   1.074   2.604   1.468  0.9013 -1.9751  1.5657
   50MOL0     H 6703   0.945   2.571   1.590 -0.6992 -0.4987 -1.3719
   50MOL0     H 6704   1.014   2.843   1.467  1.0177 -0.1463  1.4698
   50MOL0     H 6705   0.894   2.724   1.405 -0.1945 -2.0376  1.5284
   50MOL0     H 6706   0.856   2.868   1.668 -1.1976  0.8923 -0.0387
   50MOL0     H 6707   0.751   2.742   1.599  1.1862 -2.1454 -0.9165
   50MOL0     H 6708   0.816   3.003   1.437  0.3337  0.4615  1.5950
   50MOL0     H 6709   0.696   2.989   1.565  0.5061 -2.3973  2.4969
   50MOL0     H 6710   0.450   2.739   1.304 -1.6558  0.0021 -2.5474
   50MOL0     H 6711   0.252   2.851   1.208 -2.8668 -1.5014  5.0933
   50MOL0     H 6712   0.033   3.453   1.221  0.8055  2.7192 -1.2628
   50MOL0     H 6713  -0.125   3.544   1.052 -0.6352 -0.2972 -3.2094
   50MOL0     H 6714  -0.279   3.564   0.926  1.6139  0.0990  1.0820
   50MOL0     H 6715  -0.196   3.672   0.808  1.7544  1.4041  4.3661
   50MOL0     H 6716  -0.300   3.554   0.621  2.3567  0.2253  0.9621
   50MOL0     H 6717  -0.410   3.462   0.731 -3.5802  1.4764 -3.1703
   50MOL0     H 6718  -0.501   3.688   0.807 -1.2008  0.3892 -0.0549
   50MOL0     H 6719  -0.372   3.766   0.719  0.2353  0.5675  1.7838
   50MOL0     H 6720  -0.579   3.594   0.584  1.2931 -0.1658  0.4788
   50MOL0     H 6721  -0.457   3.690   0.498 -0.0548  2.6446 -1.1819
   50MOL0     H 6722  -0.548   3.898   0.585  0.5531  0.1539  3.4383
   50MOL0     H 6723  -0.654   3.821   0.698  1.9991  0.7798  1.8968
   50MOL0     H 6724  -0.650   3.789   0.402 -2.0624  2.4565 -1.0954
   50MOL0     H 6725  -0.775   3.706   0.503 -2.5848  1.4154 -2.7850
   50MOL0     H 6726  -0.804   3.944   0.364  2.0889  0.0153 -0.1215
   50MOL0     H 6727  -0.733   4.016   0.501  2.0256 -1.0149  0.7339
   50MOL0     H 6728  -0.923   3.921   0.644 -0.0573 -0.3655  0.7084
   50MOL0     H 6729  -0.981   4.022   0.520 -0.3364 -1.1929 -2.0348
   50MOL0     H 6730   0.035   3.318   0.739 -0.0579  0.0214 -0.2394
   50MOL0     H 6731   0.184   3.194   0.913  0.1749 -0.5386 -0.2547
   50MOL0     H 6732   0.397   3.235   1.340  0.6648  0.2149 -1.9326
   50MOL0     H 6733   0.607   3.137   1.404 -1.3094  2.3790 -2.2067
   50MOL0     H 6734   2.063   2.232   2.758 -1.7070  3.1779 -0.7422
   50MOL0     H 6735   2.144   2.028   2.853 -1.7733 -2.5395  2.9338
   50MOL0     H 6736   2.180   1.615   2.825 -1.5755 -3.3566 -2.2049
   50MOL0     H 6737   2.272   1.392   2.886 -0.4084  1.2896 -0.1185
   50MOL0     H 6738   2.082   1.145   3.115 -0.4368  2.5254  1.1251
   50MOL0     H 6739   2.159   1.170   3.279  1.1372 -2.2789  0.6380
   50MOL0     H 6740   2.287   1.042   3.024  1.7102 -2.2313  0.1941
   50MOL0     H 6741   2.204   0.951   3.150  1.3841 -1.2672 -1.1857
   50MOL0     H 6742   2.348   1.050   3.307 -2.1415  0.0369 -0.6252
   50MOL0     H 6743   2.440   1.139   3.176 -0.6761  1.3431  2.7755
   50MOL0     H 6744   2.429   0.833   3.218  0.7144 -0.9000  0.3747
   50MOL0     H 6745   2.504   0.909   3.086 -2.2161 -2.1733  0.7457
   50MOL0     H 6746   2.756   1.000   3.420 -1.0880 -0.1415  0.9404
   50MOL0     H 6747   2.067   1.400   3.256  0.9376  0.6070 -0.2967
   50MOL0     H 6748   1.957   1.703   3.295 -0.0557  0.0826  0.0593
   50MOL0     H 6749   1.837   1.684   3.148  2.6394  1.3658 -1.9641
   50MOL0     H 6750   1.854   1.564   3.274  3.4740 -2.6057 -0.1420
   51MOL0     O 6751   8.577   6.789   2.527 -0.1504 -0.7215 -0.0447
   51MOL0     C 6752   8.483   6.785   2.608  0.0276 -0.6947  0.6413
   51MOL0     O 6753   8.499   6.804   2.741 -0.5888 -0.5473 -0.4123
   51MOL0     C 6754   8.619   6.867   2.778 -0.8511 -0.1278  0.4381
   51MOL0     C 6755   8.622   7.000   2.826  0.2696  1.3575 -0.4208
   51MOL0     C 6756   8.744   7.057   2.866  0.2569  0.6429  1.0604
   51MOL0     C 6757   8.863   6.986   2.853 -0.4849  0.5289 -0.0316
   51MOL0     O 6758   8.980   7.051   2.890  0.3203  0.1677  0.1225
   51MOL0     C 6759   9.114   6.998   2.874 -0.9083  0.7904  0.2373
   51MOL0     C 6760   9.230   7.097   2.908 -0.0843  1.0440  0.6915
   51MOL0     C 6761   9.239   7.116   3.059 -0.0959 -0.6763 -0.4580
   51MOL0     C 6762   9.352   7.208   3.094 -0.5829 -0.5131 -0.1833
   51MOL0     C 6763   9.350   7.257   3.237  0.2032  0.5248 -0.5263
   51MOL0     C 6764   9.226   7.328   3.283 -0.8043 -0.1902 -0.7876
   51MOL0     C 6765   9.245   7.404   3.408 -0.1040 -0.0247  0.0969
   51MOL0     C 6766   9.116   7.464   3.458 -0.4414  0.4167  0.0762
   51MOL0     N 6767   9.136   7.556   3.566 -0.8395 -0.6041  0.0012
   51MOL0     C 6768   9.185   7.681   3.548  0.1429 -0.7237  0.1214
   51MOL0     C 6769   9.237   7.731   3.662  0.0839  1.1534 -0.6701
   51MOL0     C 6770   9.328   7.850   3.694 -0.9822  1.2333 -0.9161
   51MOL0     C 6771   9.446   7.860   3.597 -0.0191 -0.2692  0.0590
   51MOL0     C 6772   9.550   7.961   3.645 -1.4706 -0.1265 -0.4431
   51MOL0     C 6773   9.681   7.945   3.568  0.5055 -0.5733 -0.1426
   51MOL0     O 6774   9.773   8.048   3.613  0.3264  0.2909 -0.0700
   51MOL0     C 6775   9.875   8.010   3.699 -0.3785 -0.1146  0.2223
   51MOL0     C 6776   9.870   7.912   3.788  0.3023  0.6500 -0.0665
   51MOL0     C 6777   9.973   7.871   3.867  0.1867  0.2984  0.2381
   51MOL0     C 6778  10.100   7.937   3.855  0.8080  0.5041  0.1606
   51MOL0     C 6779  10.208   7.898   3.948 -0.5344 -0.5809 -0.0116
   51MOL0     O 6780  10.331   7.964   3.933 -0.0897  1.2457  1.1685
   51MOL0     C 6781  10.451   7.928   4.000  0.1311  1.1160  0.2782
   51MOL0     C 6782  10.535   8.037   4.026  0.8844  0.1769  1.3001
   51MOL0     C 6783  10.656   7.999   4.082  0.2661  0.3174  0.6594
   51MOL0     C 6784  10.694   7.871   4.119  0.3160  0.3398  0.9983
   51MOL0     O 6785  10.823   7.849   4.162 -1.2138 -0.2111  0.7348
   51MOL0     C 6786  10.857   7.723   4.214 -0.1439  0.8977  0.6082
   51MOL0     C 6787  11.001   7.722   4.271  0.3321  0.0189  1.0620
   51MOL0     C 6788  11.100   7.725   4.155  0.7128  0.6384  0.9942
   51MOL0     C 6789  11.243   7.697   4.198 -0.5672 -0.0410 -0.6822
   51MOL0     C 6790  11.337   7.710   4.086 -0.5191  0.6205 -0.6248
   51MOL0     C 6791  11.468   7.760   4.139  0.3551 -0.1211  1.0475
   51MOL0     C 6792  11.553   7.667   4.220  0.3050 -1.0704 -0.0597
   51MOL0     C 6793  11.687   7.721   4.254 -0.4560  0.1247  0.7201
   51MOL0    Cl 6794  11.686   7.848   4.373 -0.4281 -0.0146 -0.1900
   51MOL0     C 6795  10.609   7.762   4.094  0.2524  0.3184  0.3339
   51MOL0     C 6796  10.486   7.797   4.035 -0.2941  0.1419 -0.2637
   51MOL0     O 6797  10.179   7.814   4.028  0.8331 -0.4434  0.3627
   51MOL0     C 6798  10.110   8.026   3.745 -0.0796  0.1991  0.3624
   51MOL0     C 6799   9.998   8.060   3.672  1.0648  0.4391  0.2573
   51MOL0     N 6800   9.205   7.629   3.755 -0.1437  0.0887  0.5423
   51MOL0     N 6801   9.153   7.525   3.694  0.1057  0.0487  0.2866
   51MOL0     C 6802   8.859   6.865   2.784  0.0513 -0.6185  0.2637
   51MOL0     C 6803   8.738   6.803   2.771 -0.5512 -1.0761 -0.0291
   51MOL0     C 6804   8.343   6.796   2.567  0.5634 -0.6148  0.5266
   51MOL0     C 6805   8.240   6.839   2.651 -0.5281  0.0781 -0.2033
   51MOL0     C 6806   8.104   6.866   2.621  0.3977 -0.3861 -0.1601
   51MOL0     C 6807   8.066   6.832   2.488  0.4587  0.5483 -0.4464
   51MOL0     O 6808   7.935   6.837   2.439  0.6822 -0.1676  0.3561
   51MOL0     C 6809   7.836   6.909   2.510  0.9885 -0.3895 -0.4871
   51MOL0     C 6810   7.709   6.912   2.433 -0.7855  0.4698 -1.3687
   51MOL0     C 6811   7.709   7.004   2.312  0.5707  0.0533  0.5017
   51MOL0     C 6812   7.568   7.012   2.240  0.1670  1.1142 -0.3825
   51MOL0     C 6813   7.556   7.110   2.130 -0.7574 -0.0420 -0.0560
   51MOL0     C 6814   7.545   7.186   2.034 -0.5319 -0.5559  0.6245
   51MOL0     C 6815   8.163   6.773   2.400 -0.0338 -0.1885 -0.0513
   51MOL0     C 6816   8.295   6.756   2.441  0.3066  0.0594  0.2298
   51MOL0     C 6817   8.382   6.674   2.340 -0.7991 -0.0981 -0.4714
   51MOL0     H 6818   8.524   7.048   2.825 -0.0263  0.9747  2.3924
   51MOL0     H 6819   8.743   7.155   2.913 -2.8890 -0.0473  2.7614
   51MOL0     H 6820   9.125   6.908   2.935 -0.2968 -0.1099 -1.1481
   51MOL0     H 6821   9.140   6.967   2.772  0.7412  1.7233  0.3451
   51MOL0     H 6822   9.215   7.191   2.853  1.7301 -0.0882 -1.9744
   51MOL0     H 6823   9.317   7.052   2.858 -2.4777 -0.8110 -2.2373
   51MOL0     H 6824   9.247   7.021   3.113 -1.7607 -0.3314  0.4517
   51MOL0     H 6825   9.153   7.169   3.101  0.3271 -0.1655 -0.2233
   51MOL0     H 6826   9.449   7.159   3.081 -0.4194 -0.3924  0.5255
   51MOL0     H 6827   9.346   7.287   3.019 -0.7948  4.8452  4.7877
   51MOL0     H 6828   9.367   7.164   3.291 -1.7624  0.1162 -0.5385
   51MOL0     H 6829   9.433   7.325   3.258  0.5680 -0.5489  1.7944
   51MOL0     H 6830   9.191   7.401   3.210 -1.5229  1.7668  1.3998
   51MOL0     H 6831   9.141   7.260   3.287 -1.0451 -0.0181 -2.3234
   51MOL0     H 6832   9.319   7.483   3.396 -0.3327  0.6668  2.7317
   51MOL0     H 6833   9.279   7.334   3.485  0.1210  1.1283  1.0745
   51MOL0     H 6834   9.052   7.506   3.379 -0.3544  0.1134 -0.1580
   51MOL0     H 6835   9.048   7.388   3.498 -2.2799  1.3745 -1.0717
   51MOL0     H 6836   9.191   7.736   3.455 -2.3094 -2.3305 -1.1100
   51MOL0     H 6837   9.274   7.944   3.707 -2.0205  0.6353 -0.7772
   51MOL0     H 6838   9.369   7.821   3.791  0.0602  0.3138 -1.6164
   51MOL0     H 6839   9.490   7.761   3.589 -1.0732 -0.7795  0.4388
   51MOL0     H 6840   9.405   7.878   3.497 -0.7780 -0.6111  0.3024
   51MOL0     H 6841   9.563   7.956   3.754 -0.4911  0.5600 -0.5144
   51MOL0     H 6842   9.504   8.059   3.629 -0.2906  0.5303  0.0376
   51MOL0     H 6843   9.661   7.967   3.462 -2.7766  3.6391  1.0738
   51MOL0     H 6844   9.726   7.846   3.580  2.0327  0.3906  3.1705
   51MOL0     H 6845   9.786   7.852   3.823  0.7924  0.6993  1.2317
   51MOL0     H 6846   9.949   7.803   3.948 -1.0125 -2.0787 -1.9614
   51MOL0     H 6847  10.516   8.143   4.010  1.1694  0.2574  1.4729
   51MOL0     H 6848  10.730   8.074   4.109  2.2691 -1.4244  0.2930
   51MOL0     H 6849  10.790   7.702   4.298 -1.5156  0.0208 -0.6548
   51MOL0     H 6850  10.852   7.640   4.143  4.1343  0.1309  0.9500
   51MOL0     H 6851  11.022   7.807   4.335  3.2384 -0.9557  1.5406
   51MOL0     H 6852  11.007   7.623   4.317 -0.4415 -1.0194 -0.9501
   51MOL0     H 6853  11.073   7.651   4.080  2.4174  0.7034  0.2625
   51MOL0     H 6854  11.095   7.828   4.119  1.2490  0.2839 -0.1619
   51MOL0     H 6855  11.242   7.606   4.259 -1.9677  1.1194  1.1567
   51MOL0     H 6856  11.272   7.776   4.269  3.4606  0.2428 -2.3997
   51MOL0     H 6857  11.308   7.790   4.018 -2.8740  2.4362  2.2776
   51MOL0     H 6858  11.346   7.619   4.025  2.3270  0.3220  0.1224
   51MOL0     H 6859  11.521   7.793   4.050  0.6538  2.1288  1.9871
   51MOL0     H 6860  11.467   7.855   4.195  1.5489  1.3830 -1.3220
   51MOL0     H 6861  11.557   7.579   4.156  1.4657 -2.0321  1.2777
   51MOL0     H 6862  11.506   7.638   4.315  1.8892  0.5127  1.2688
   51MOL0     H 6863  11.760   7.648   4.290  0.8119  2.2537  2.7540
   51MOL0     H 6864  11.722   7.758   4.158 -1.0495 -0.4356  0.2799
   51MOL0     H 6865  10.623   7.657   4.119  0.0047  0.0161 -0.7593
   51MOL0     H 6866  10.417   7.716   4.014  0.6917 -1.9662  3.6078
   51MOL0     H 6867  10.203   8.082   3.736  0.7305 -1.1861 -0.2038
   51MOL0     H 6868  10.004   8.139   3.598 -1.5010 -1.0160 -1.6660
   51MOL0     H 6869   8.954   6.818   2.759  0.0073 -0.2430 -0.6586
   51MOL0     H 6870   8.738   6.702   2.732 -1.8439 -1.7898  1.6987
   51MOL0     H 6871   8.259   6.863   2.755  0.3642  2.8946 -0.9191
   51MOL0     H 6872   8.036   6.890   2.701 -0.6377  2.3995 -1.7268
   51MOL0     H 6873   7.868   7.010   2.537  3.2127 -1.3736  0.7883
   51MOL0     H 6874   7.802   6.860   2.601 -2.8916  2.3033 -0.2206
   51MOL0     H 6875   7.638   6.953   2.506 -1.2642 -0.6283 -1.2043
   51MOL0     H 6876   7.691   6.808   2.404 -0.5506  0.2516 -0.7685
   51MOL0     H 6877   7.784   6.984   2.234 -0.0969 -0.9374  0.0909
   51MOL0     H 6878   7.740   7.102   2.349  0.5133  0.1571  0.2796
   51MOL0     H 6879   7.546   6.910   2.206 -0.0847 -0.7168  4.4397
   51MOL0     H 6880   7.494   7.042   2.316  2.4061 -2.7403  3.8323
   51MOL0     H 6881   7.515   7.258   1.960  3.0717  1.1603  0.5935
   51MOL0     H 6882   8.127   6.740   2.303  4.2096 -1.2139 -1.5063
   51MOL0     H 6883   8.328   6.648   2.249 -0.4481 -0.3221 -0.6153
   51MOL0     H 6884   8.470   6.729   2.305  1.4304 -2.9587  0.2208
   51MOL0     H 6885   8.426   6.581   2.377 -2.5250 -0.9876 -0.5758
   52MOL0     O 6886   1.405   6.111  10.415 -0.4932 -0.4201 -0.1760
   52MOL0     C 6887   1.330   6.191  10.476  0.1901 -0.5518 -0.1744
   52MOL0     O 6888   1.370   6.260  10.587  0.9473  0.5237  0.2715
   52MOL0     C 6889   1.508   6.255  10.621  0.7390 -0.1863 -1.0616
   52MOL0     C 6890   1.617   6.294  10.536  0.8559  0.2872  0.9303
   52MOL0     C 6891   1.739   6.297  10.585  0.0493 -0.6848  0.7750
   52MOL0     C 6892   1.767   6.261  10.720 -0.1860  0.8514  0.0820
   52MOL0     O 6893   1.896   6.262  10.770 -0.1256  0.4053 -0.5491
   52MOL0     C 6894   2.006   6.288  10.674 -0.1838  0.8052 -0.1494
   52MOL0     C 6895   2.152   6.296  10.739  0.6747 -0.0666 -0.4263
   52MOL0     C 6896   2.172   6.387  10.871  0.1426  0.8806  0.7499
   52MOL0     C 6897   2.180   6.534  10.837 -0.3232  0.0186 -0.4623
   52MOL0     C 6898   2.241   6.611  10.954  0.3038  1.0973  0.4892
   52MOL0     C 6899   2.342   6.710  10.925  0.0438 -0.9792  0.4094
   52MOL0     C 6900   2.287   6.835  10.857 -0.5618 -0.3215  0.2893
   52MOL0     C 6901   2.385   6.926  10.799 -0.6808  0.2904 -1.2740
   52MOL0     N 6902   2.500   6.872  10.719  0.4516  0.1921  0.0207
   52MOL0     C 6903   2.460   6.807  10.609 -0.3159  0.4359 -0.0581
   52MOL0     C 6904   2.568   6.791  10.532 -0.6741 -1.1294 -0.5119
   52MOL0     C 6905   2.571   6.720  10.390 -0.1181 -0.8433 -0.2887
   52MOL0     C 6906   2.520   6.821  10.284  0.0646  0.4433  0.7267
   52MOL0     C 6907   2.624   6.906  10.214 -0.3387 -0.4589  0.2297
   52MOL0     C 6908   2.554   7.014  10.138  0.2631  0.3500 -0.3145
   52MOL0     O 6909   2.641   7.087  10.050  0.4733 -0.0180 -0.8434
   52MOL0     C 6910   2.703   7.198  10.098  0.1813 -0.1187 -0.2547
   52MOL0     C 6911   2.840   7.218  10.089  0.3945  0.0006 -0.4449
   52MOL0     C 6912   2.904   7.322  10.150 -0.0151  0.2966  0.2562
   52MOL0     C 6913   2.834   7.401  10.240  0.1097  0.9695 -0.8104
   52MOL0     C 6914   2.896   7.501  10.317  0.1627 -0.8283  0.6746
   52MOL0     O 6915   3.002   7.467  10.395  0.2811 -0.6508 -0.5161
   52MOL0     C 6916   3.092   7.562  10.437 -0.0273  0.6410 -0.4500
   52MOL0     C 6917   3.203   7.512  10.503 -0.2589 -0.3632 -0.7017
   52MOL0     C 6918   3.310   7.592  10.557  0.9792  0.1531  0.6618
   52MOL0     C 6919   3.303   7.733  10.544  0.9951  0.5766 -0.3635
   52MOL0     O 6920   3.420   7.793  10.574 -0.5232 -0.0965  0.0397
   52MOL0     C 6921   3.424   7.908  10.660  0.4921 -0.8971 -0.2904
   52MOL0     C 6922   3.573   7.946  10.678 -0.1547 -0.8652  0.5260
   52MOL0     C 6923   3.611   8.090  10.638  0.5429  0.6274 -0.4959
   52MOL0     C 6924   3.725   8.096  10.535 -0.1372  0.4800 -0.5251
   52MOL0     C 6925   3.685   8.114  10.393 -0.1806  0.3097  0.6910
   52MOL0     C 6926   3.592   8.239  10.356 -0.8370  0.1152 -0.1760
   52MOL0     C 6927   3.583   8.256  10.196 -0.1114  0.0794  0.1927
   52MOL0     C 6928   3.567   8.133  10.116  0.1928  0.4082  0.3521
   52MOL0    Cl 6929   3.433   8.028  10.187  0.2277  0.1008  0.3045
   52MOL0     C 6930   3.200   7.789  10.470  0.6541 -0.0701 -0.4500
   52MOL0     C 6931   3.092   7.707  10.417  0.1316 -0.2982  0.5323
   52MOL0     O 6932   2.848   7.613  10.302  0.8933  0.0446  0.2886
   52MOL0     C 6933   2.693   7.386  10.258 -1.1175 -0.7695  0.2889
   52MOL0     C 6934   2.630   7.290  10.174  0.2504  0.3597 -0.5917
   52MOL0     N 6935   2.675   6.855  10.603  0.1395  0.4354 -0.6869
   52MOL0     N 6936   2.625   6.917  10.700 -0.4947  0.0911  0.1829
   52MOL0     C 6937   1.662   6.217  10.809 -0.1444  1.1761  1.0096
   52MOL0     C 6938   1.528   6.216  10.758 -0.3565  0.3498  0.4623
   52MOL0     C 6939   1.181   6.192  10.451 -0.1257  0.0929  0.2919
   52MOL0     C 6940   1.101   6.276  10.519 -0.6284  0.8552 -0.7546
   52MOL0     C 6941   0.962   6.288  10.500 -0.0945  0.5788  1.1151
   52MOL0     C 6942   0.902   6.205  10.399  0.3343  0.4850 -0.6068
   52MOL0     O 6943   0.769   6.204  10.363  0.6770  0.1432 -0.2176
   52MOL0     C 6944   0.678   6.281  10.449 -0.6050 -0.4044  0.2372
   52MOL0     C 6945   0.557   6.195  10.455 -0.2037 -0.1005 -0.9023
   52MOL0     C 6946   0.587   6.070  10.546 -0.5376  0.9534  0.0739
   52MOL0     C 6947   0.462   5.999  10.601 -0.2342  0.4593  0.5901
   52MOL0     C 6948   0.467   5.957  10.743  0.4667  0.1216  0.1931
   52MOL0     C 6949   0.446   5.921  10.855  0.2198  0.1804 -0.1048
   52MOL0     C 6950   0.982   6.116  10.334  0.1394  0.0966 -0.5090
   52MOL0     C 6951   1.118   6.103  10.359  0.1328  0.5050  0.1005
   52MOL0     C 6952   1.194   6.008  10.261 -0.1257  0.9583 -0.2465
   52MOL0     H 6953   1.592   6.317  10.433  1.0153 -2.6596  0.1433
   52MOL0     H 6954   1.813   6.343  10.520 -0.8048 -3.5284 -2.5057
   52MOL0     H 6955   1.994   6.219  10.591  0.3732  0.2907  0.1844
   52MOL0     H 6956   1.985   6.389  10.638 -0.5578  0.3376 -1.2846
   52MOL0     H 6957   2.221   6.311  10.656 -0.4478  0.4335 -1.2941
   52MOL0     H 6958   2.182   6.192  10.758  0.5960 -0.1596 -0.8050
   52MOL0     H 6959   2.265   6.359  10.922  0.1018  1.5687  1.2142
   52MOL0     H 6960   2.090   6.379  10.943 -1.4025  4.2917 -0.4187
   52MOL0     H 6961   2.251   6.543  10.754 -2.5282  0.4212 -2.4049
   52MOL0     H 6962   2.088   6.580  10.800  0.3155  1.7436  0.0156
   52MOL0     H 6963   2.152   6.648  11.007 -2.1502 -3.0805 -0.2816
   52MOL0     H 6964   2.287   6.536  11.020  1.6116 -1.3274 -2.9279
   52MOL0     H 6965   2.392   6.738  11.018  0.3629 -0.0265 -0.0247
   52MOL0     H 6966   2.421   6.668  10.862 -0.5108  0.5819 -1.4370
   52MOL0     H 6967   2.244   6.879  10.947 -0.6355 -2.3739  1.3190
   52MOL0     H 6968   2.217   6.813  10.776 -1.2767  2.6455 -0.0236
   52MOL0     H 6969   2.332   7.001  10.738  0.4939 -0.2086 -2.9648
   52MOL0     H 6970   2.435   6.976  10.883  1.6378 -0.9830 -1.8193
   52MOL0     H 6971   2.356   6.788  10.585 -0.4009  1.6150 -0.6928
   52MOL0     H 6972   2.666   6.669  10.374  0.8928 -1.1223  4.8717
   52MOL0     H 6973   2.487   6.649  10.390 -0.0892 -0.8775 -0.0684
   52MOL0     H 6974   2.468   6.765  10.206  0.7391 -1.0900  1.3492
   52MOL0     H 6975   2.445   6.894  10.316 -1.2098  0.6875 -2.4238
   52MOL0     H 6976   2.674   6.846  10.137 -1.0670 -0.0013 -0.6178
   52MOL0     H 6977   2.690   6.952  10.288 -1.0253  1.9035 -0.5616
   52MOL0     H 6978   2.497   7.083  10.201 -2.5649 -2.1599  0.1083
   52MOL0     H 6979   2.492   6.969  10.060  0.2588  0.5044 -0.4020
   52MOL0     H 6980   2.899   7.155  10.024  1.1592 -0.1272  0.3526
   52MOL0     H 6981   3.010   7.343  10.140  1.2070 -3.6243  2.6967
   52MOL0     H 6982   3.207   7.404  10.510  1.4769 -0.4332 -1.9878
   52MOL0     H 6983   3.396   7.552  10.609  0.9728  0.0575  0.6008
   52MOL0     H 6984   3.370   7.992  10.614  3.1981  1.5842  0.7203
   52MOL0     H 6985   3.378   7.880  10.755 -3.0148  1.2914 -1.1461
   52MOL0     H 6986   3.600   7.927  10.782 -1.3964  0.0176  1.0445
   52MOL0     H 6987   3.628   7.878  10.613  0.2236  0.8654 -1.0481
   52MOL0     H 6988   3.521   8.139  10.599  0.5163  1.4511  0.5578
   52MOL0     H 6989   3.639   8.151  10.723  0.4999  1.5964 -1.1603
   52MOL0     H 6990   3.776   7.999  10.540  0.1156  0.6086  3.7954
   52MOL0     H 6991   3.786   8.182  10.565  2.5131 -1.4352  0.0297
   52MOL0     H 6992   3.644   8.025  10.343 -0.5282  0.4236  0.7723
   52MOL0     H 6993   3.775   8.128  10.332  1.1609 -1.9675  1.9937
   52MOL0     H 6994   3.491   8.229  10.396  0.4595 -1.0704  3.1824
   52MOL0     H 6995   3.639   8.329  10.397  3.2740 -0.6929 -2.5502
   52MOL0     H 6996   3.672   8.314  10.170 -1.5336  1.5112 -1.7837
   52MOL0     H 6997   3.497   8.320  10.176  0.2279 -0.3147 -3.2129
   52MOL0     H 6998   3.546   8.165  10.014  1.9368  1.1468  0.1849
   52MOL0     H 6999   3.656   8.070  10.113 -0.9503 -1.2376 -1.0176
   52MOL0     H 7000   3.193   7.896  10.452 -0.8515 -0.3302 -1.6237
   52MOL0     H 7001   3.018   7.763  10.360 -0.8455 -4.0894 -2.3405
   52MOL0     H 7002   2.634   7.454  10.319 -0.1230  0.0118  0.4009
   52MOL0     H 7003   2.522   7.299  10.173  0.1133 -1.0163 -0.5429
   52MOL0     H 7004   1.685   6.180  10.908 -0.0228 -1.0818  0.1771
   52MOL0     H 7005   1.448   6.185  10.825  0.9242  0.8904  2.3478
   52MOL0     H 7006   1.151   6.334  10.596  1.2664 -0.3723 -0.9955
   52MOL0     H 7007   0.919   6.358  10.572 -0.4672 -0.2227  1.6806
   52MOL0     H 7008   0.648   6.374  10.399  0.9007  0.0218  0.0754
   52MOL0     H 7009   0.715   6.310  10.548 -0.6857 -0.2189  0.2135
   52MOL0     H 7010   0.525   6.151  10.360  0.5390 -2.3502 -0.1770
   52MOL0     H 7011   0.474   6.254  10.495  1.2911  0.8770  0.9485
   52MOL0     H 7012   0.638   6.107  10.636  1.7122  0.4533 -0.9426
   52MOL0     H 7013   0.652   6.006  10.487 -1.0560 -1.0536  1.5576
   52MOL0     H 7014   0.382   6.073  10.596 -1.0161 -0.3137  1.2982
   52MOL0     H 7015   0.438   5.915  10.535 -2.1174  1.3415  0.0757
   52MOL0     H 7016   0.421   5.891  10.955  1.1787 -0.2161  0.0304
   52MOL0     H 7017   0.932   6.054  10.261 -2.9189 -1.3299  2.4774
   52MOL0     H 7018   1.267   6.057  10.196  1.0776  0.4016  0.6419
   52MOL0     H 7019   1.258   5.943  10.321 -0.3370 -0.0347 -1.0716
   52MOL0     H 7020   1.129   5.935  10.213  0.9194 -1.1576  1.3960
   53MOL0     O 7021   7.610   0.159   7.359  1.1488  0.3149  0.5113
   53MOL0     C 7022   7.612   0.264   7.414 -0.5669  0.4357 -0.3999
   53MOL0     O 7023   7.660   0.300   7.538  0.3191  0.3871 -0.3302
   53MOL0     C 7024   7.718   0.193   7.607 -0.1557  0.8332  0.1228
   53MOL0     C 7025   7.661   0.157   7.731  0.0729 -0.3469  1.0637
   53MOL0     C 7026   7.718   0.062   7.807 -0.0981  1.3550 -0.2772
   53MOL0     C 7027   7.824  -0.007   7.773 -0.5817  0.7317  0.4473
   53MOL0     O 7028   7.880  -0.100   7.856 -0.2084 -0.0202  0.4839
   53MOL0     C 7029   7.934  -0.225   7.798  0.7912 -0.9971  0.4019
   53MOL0     C 7030   7.987  -0.306   7.908 -0.4298  0.1687 -0.0615
   53MOL0     C 7031   8.091  -0.234   7.987  0.0365 -0.2986  0.4247
   53MOL0     C 7032   8.127  -0.336   8.099  0.3248  0.7227 -0.7703
   53MOL0     C 7033   8.210  -0.288   8.204 -0.3328  0.4138  0.1309
   53MOL0     C 7034   8.355  -0.241   8.170  0.0581 -0.5110 -0.3098
   53MOL0     C 7035   8.417  -0.204   8.312  0.3572 -0.7171 -0.2578
   53MOL0     C 7036   8.367  -0.066   8.374 -0.1281 -0.5111 -0.4713
   53MOL0     N 7037   8.368   0.047   8.276  0.0679 -0.0361 -0.4310
   53MOL0     C 7038   8.281   0.077   8.167  0.1318 -0.5396 -0.3685
   53MOL0     C 7039   8.331   0.193   8.120  0.3501 -0.7660 -0.4250
   53MOL0     C 7040   8.274   0.275   8.016 -0.0726 -0.2525  0.3552
   53MOL0     C 7041   8.309   0.221   7.882 -0.4298  0.3141  0.1383
   53MOL0     C 7042   8.190   0.227   7.782 -0.3075 -0.1493  0.5630
   53MOL0     C 7043   8.138   0.368   7.741 -0.2517  0.4248 -0.6262
   53MOL0     O 7044   8.018   0.364   7.671 -0.1838 -0.0118 -0.1129
   53MOL0     C 7045   7.982   0.475   7.599 -0.5016  0.6400  0.1880
   53MOL0     C 7046   7.916   0.464   7.471 -0.0655 -0.1458 -0.3993
   53MOL0     C 7047   7.909   0.560   7.378  0.7306 -0.3432  1.5440
   53MOL0     C 7048   7.963   0.683   7.408  0.2198 -0.7459 -0.2217
   53MOL0     C 7049   7.983   0.788   7.302  1.8796 -0.9139 -0.2168
   53MOL0     O 7050   8.062   0.893   7.323 -0.1828 -0.3991 -0.0818
   53MOL0     C 7051   8.071   0.984   7.228  0.0440  1.0334 -0.3473
   53MOL0     C 7052   8.015   1.109   7.240 -0.2479  0.3488 -0.9480
   53MOL0     C 7053   8.038   1.203   7.141 -0.1476  0.6297 -0.5499
   53MOL0     C 7054   8.122   1.172   7.034 -0.5148  0.0550  1.4446
   53MOL0     O 7055   8.162   1.254   6.927 -0.6626  0.1180 -0.0656
   53MOL0     C 7056   8.107   1.388   6.925 -0.2834  0.0894  0.5040
   53MOL0     C 7057   8.219   1.485   6.953  0.6282 -0.7439  0.1212
   53MOL0     C 7058   8.198   1.626   6.910 -0.3947  0.2238  0.3100
   53MOL0     C 7059   8.238   1.724   7.033 -0.1141  0.6502  0.7854
   53MOL0     C 7060   8.213   1.869   6.972 -0.3178  0.0741 -0.0851
   53MOL0     C 7061   8.264   1.977   7.070 -0.4560  0.5792 -0.1402
   53MOL0     C 7062   8.413   1.998   7.072 -0.2242 -0.1180  0.0007
   53MOL0     C 7063   8.448   2.133   7.007  0.4658  0.8188  0.5106
   53MOL0    Cl 7064   8.400   2.139   6.829 -0.4041  0.4601 -0.1134
   53MOL0     C 7065   8.184   1.043   7.024  0.7169 -0.9794  0.0968
   53MOL0     C 7066   8.156   0.956   7.126 -0.1098 -0.4797  0.4856
   53MOL0     O 7067   7.925   0.762   7.193 -0.4204 -0.1706 -0.9153
   53MOL0     C 7068   8.023   0.704   7.539  0.0659  0.9349  0.4457
   53MOL0     C 7069   8.022   0.602   7.632  1.0931 -0.0760 -0.3772
   53MOL0     N 7070   8.442   0.225   8.193  0.0291  0.4071 -0.4901
   53MOL0     N 7071   8.465   0.136   8.280 -0.3558 -0.2454  0.0607
   53MOL0     C 7072   7.884   0.024   7.647 -0.7499  0.2561 -0.5981
   53MOL0     C 7073   7.826   0.118   7.560  0.3202 -0.8006 -0.9488
   53MOL0     C 7074   7.565   0.381   7.343 -0.7458  0.1236  0.4288
   53MOL0     C 7075   7.513   0.494   7.418  0.6745  0.0658  0.3388
   53MOL0     C 7076   7.487   0.615   7.352  0.6951 -0.3278 -0.1827
   53MOL0     C 7077   7.498   0.627   7.217  0.0791  0.4733 -0.6353
   53MOL0     O 7078   7.482   0.757   7.168  0.1134 -0.2305 -0.2533
   53MOL0     C 7079   7.593   0.808   7.094  0.6518  1.0703 -0.6722
   53MOL0     C 7080   7.539   0.930   7.029  0.0410 -0.1751  1.4133
   53MOL0     C 7081   7.640   1.044   6.987  0.2410  0.4293  0.0907
   53MOL0     C 7082   7.558   1.157   6.916  0.3616 -0.4208 -0.6672
   53MOL0     C 7083   7.638   1.279   6.929  0.3539  0.0126 -1.1694
   53MOL0     C 7084   7.699   1.379   6.962 -0.0011 -0.0561  0.3984
   53MOL0     C 7085   7.535   0.514   7.145  0.1652 -0.0807  0.2524
   53MOL0     C 7086   7.569   0.390   7.204  0.1541  0.1483  0.6735
   53MOL0     C 7087   7.608   0.284   7.104  0.1905  0.1698 -0.3534
   53MOL0     H 7088   7.576   0.220   7.756 -0.3407  0.1657 -1.4464
   53MOL0     H 7089   7.679   0.050   7.908 -2.0031 -1.1112 -1.1975
   53MOL0     H 7090   7.854  -0.279   7.747 -0.1174  0.5544  0.1311
   53MOL0     H 7091   8.023  -0.200   7.738  0.3783  1.9780  0.8551
   53MOL0     H 7092   8.036  -0.395   7.867  0.3677  0.3866  0.3805
   53MOL0     H 7093   7.904  -0.332   7.974 -0.3141  1.7855  0.7770
   53MOL0     H 7094   8.064  -0.138   8.030  1.0476 -0.1608  0.7874
   53MOL0     H 7095   8.178  -0.232   7.921 -1.7058  0.1911 -1.9823
   53MOL0     H 7096   8.030  -0.354   8.144  0.1317  1.5172 -0.8604
   53MOL0     H 7097   8.159  -0.429   8.050 -2.4119  0.6294 -2.5997
   53MOL0     H 7098   8.168  -0.199   8.254  1.1257  0.7287  0.8361
   53MOL0     H 7099   8.220  -0.360   8.286  5.4551  1.5306  0.8162
   53MOL0     H 7100   8.413  -0.322   8.126  1.3439 -0.9642  2.0358
   53MOL0     H 7101   8.352  -0.155   8.102 -1.2030 -1.4329 -1.4771
   53MOL0     H 7102   8.525  -0.200   8.292  0.4195 -0.8133  0.0671
   53MOL0     H 7103   8.397  -0.282   8.385  1.7245  0.1032  1.0559
   53MOL0     H 7104   8.264  -0.068   8.409 -0.0719  2.0768  0.0972
   53MOL0     H 7105   8.435  -0.040   8.456  1.7940  2.4288 -2.7565
   53MOL0     H 7106   8.188   0.036   8.130  1.1476 -1.4060 -2.1132
   53MOL0     H 7107   8.167   0.272   8.039 -0.0979 -1.2927  0.1578
   53MOL0     H 7108   8.316   0.375   8.030  3.1047 -1.4563  0.3476
   53MOL0     H 7109   8.391   0.277   7.836 -1.7451  1.3193 -1.0911
   53MOL0     H 7110   8.334   0.115   7.895 -2.4117 -0.4012 -1.3463
   53MOL0     H 7111   8.106   0.183   7.836 -0.0802 -0.1039  0.9590
   53MOL0     H 7112   8.221   0.166   7.696 -0.3293 -0.6751  0.9226
   53MOL0     H 7113   8.217   0.431   7.697  2.4072  3.2393  6.7256
   53MOL0     H 7114   8.122   0.432   7.828  2.4473  2.4586 -1.4387
   53MOL0     H 7115   7.879   0.371   7.428 -0.7161  0.5755 -1.4504
   53MOL0     H 7116   7.848   0.544   7.290 -0.0572 -2.4413  2.4005
   53MOL0     H 7117   7.951   1.122   7.327  2.1187  1.5123  0.7562
   53MOL0     H 7118   7.989   1.299   7.156  1.6593  1.9734 -2.6929
   53MOL0     H 7119   8.066   1.423   6.829 -2.3388  2.6005  2.1787
   53MOL0     H 7120   8.028   1.408   6.998 -1.5190  4.7871 -1.7366
   53MOL0     H 7121   8.246   1.477   7.058  1.8952 -0.8356 -0.1886
   53MOL0     H 7122   8.309   1.456   6.898 -0.9175 -0.1607 -2.9430
   53MOL0     H 7123   8.276   1.639   6.834 -0.3269 -1.0459  0.1396
   53MOL0     H 7124   8.101   1.654   6.868  1.2711  2.1881 -2.6324
   53MOL0     H 7125   8.339   1.710   7.071  0.0986 -2.4192 -0.5673
   53MOL0     H 7126   8.169   1.712   7.117 -0.2926  0.6986  0.6472
   53MOL0     H 7127   8.106   1.881   6.956 -0.2328  2.1959  0.6467
   53MOL0     H 7128   8.262   1.893   6.877 -2.9703  2.4936 -0.9793
   53MOL0     H 7129   8.224   2.070   7.029  0.5924 -0.0726 -2.8573
   53MOL0     H 7130   8.226   1.950   7.169 -0.6886 -1.3830 -0.7223
   53MOL0     H 7131   8.474   1.924   7.020  1.6252  1.3907 -0.0562
   53MOL0     H 7132   8.433   2.005   7.179 -1.4414  1.8800  0.1314
   53MOL0     H 7133   8.406   2.218   7.062  1.6859  2.1851 -0.6137
   53MOL0     H 7134   8.556   2.148   7.016  0.8216  0.0361 -1.6871
   53MOL0     H 7135   8.253   1.019   6.943  0.0619  2.3953 -1.6666
   53MOL0     H 7136   8.198   0.857   7.115  0.0683 -0.3343 -0.2173
   53MOL0     H 7137   8.057   0.802   7.573  0.2537  1.0686 -0.1040
   53MOL0     H 7138   8.060   0.633   7.729  0.9403  0.7689 -0.5786
   53MOL0     H 7139   7.977  -0.022   7.614 -1.0372 -0.5369 -0.3313
   53MOL0     H 7140   7.863   0.152   7.464  1.6952  1.9439  0.4496
   53MOL0     H 7141   7.497   0.485   7.525 -0.2835  1.1001  0.3012
   53MOL0     H 7142   7.439   0.694   7.410 -2.2374  0.3584 -3.1849
   53MOL0     H 7143   7.638   0.742   7.019  0.7910 -3.6965  3.1239
   53MOL0     H 7144   7.667   0.830   7.171  0.0762 -2.2321  0.9585
   53MOL0     H 7145   7.452   0.975   7.077 -0.9511  0.0116 -0.4322
   53MOL0     H 7146   7.499   0.887   6.936 -2.3006  2.3429  1.1061
   53MOL0     H 7147   7.717   1.008   6.918  0.8290 -1.2033  1.5004
   53MOL0     H 7148   7.686   1.065   7.085 -2.3643  0.6947  1.3389
   53MOL0     H 7149   7.538   1.147   6.809  0.7077 -0.8681 -0.6925
   53MOL0     H 7150   7.459   1.175   6.959  0.3751 -1.1671 -0.3053
   53MOL0     H 7151   7.760   1.464   6.985 -2.8371  2.7583 -1.5884
   53MOL0     H 7152   7.550   0.530   7.038  1.6825  0.3165  0.4972
   53MOL0     H 7153   7.717   0.288   7.093  0.3626 -1.5956  0.3541
   53MOL0     H 7154   7.565   0.185   7.120  0.0982 -0.0995 -2.0635
   53MOL0     H 7155   7.562   0.315   7.010  0.6675  1.6009 -0.1422
   54MOL0     O 7156   7.724   4.977   5.261 -0.2161 -0.2048 -0.5930
   54MOL0     C 7157   7.655   4.875   5.274 -0.0389 -0.7612 -0.3096
   54MOL0     O 7158   7.607   4.839   5.395  0.2783 -0.4394 -0.0554
   54MOL0     C 7159   7.607   4.940   5.491 -1.0380 -0.0465 -0.3626
   54MOL0     C 7160   7.508   5.030   5.510  0.0711  0.6029 -0.1126
   54MOL0     C 7161   7.518   5.122   5.622  0.7768 -0.1949  0.2179
   54MOL0     C 7162   7.636   5.141   5.696  0.4157  0.1003 -0.6060
   54MOL0     O 7163   7.644   5.245   5.776 -0.1821 -0.0183 -0.0527
   54MOL0     C 7164   7.619   5.222   5.913 -0.6154 -0.2805  0.6802
   54MOL0     C 7165   7.611   5.351   5.989 -0.5149 -0.5181 -0.9379
   54MOL0     C 7166   7.554   5.320   6.128  0.0913 -0.2427 -0.3008
   54MOL0     C 7167   7.410   5.266   6.127 -0.1092 -0.3806  0.2122
   54MOL0     C 7168   7.357   5.223   6.265 -0.5706  1.3275  0.5340
   54MOL0     C 7169   7.212   5.175   6.253  0.5498  0.9403  0.6661
   54MOL0     C 7170   7.202   5.034   6.200 -0.4315  0.0375 -1.0356
   54MOL0     C 7171   7.060   4.998   6.173  0.6183  0.1287 -0.7469
   54MOL0     N 7172   7.043   4.855   6.167 -0.7710 -0.5405 -0.5629
   54MOL0     C 7173   6.998   4.772   6.270 -0.8270  0.4740 -0.6560
   54MOL0     C 7174   6.966   4.655   6.206 -0.5387 -0.1073  0.0446
   54MOL0     C 7175   6.922   4.528   6.277  0.3007 -0.5051  0.7842
   54MOL0     C 7176   6.849   4.555   6.402  0.3981  0.1363  0.0218
   54MOL0     C 7177   6.791   4.413   6.447  0.0362  0.6575  0.7937
   54MOL0     C 7178   6.696   4.437   6.564 -0.7060 -0.3377  0.1747
   54MOL0     O 7179   6.649   4.308   6.600  0.1378 -0.2429 -0.0738
   54MOL0     C 7180   6.555   4.299   6.708  0.8368  1.0268 -0.5145
   54MOL0     C 7181   6.516   4.394   6.794  1.0352 -0.2241  0.6863
   54MOL0     C 7182   6.414   4.385   6.894  0.9782  0.4971 -0.3384
   54MOL0     C 7183   6.347   4.261   6.905 -0.6091 -0.0239  0.5326
   54MOL0     C 7184   6.247   4.241   7.005  0.3783 -0.3027 -0.5304
   54MOL0     O 7185   6.234   4.332   7.099  0.3950  1.1173 -0.5086
   54MOL0     C 7186   6.130   4.322   7.186 -0.6865 -0.1623 -0.8729
   54MOL0     C 7187   6.039   4.422   7.179  0.4004 -0.1150 -0.2406
   54MOL0     C 7188   5.943   4.427   7.273  0.9886 -0.2169  0.0893
   54MOL0     C 7189   5.935   4.343   7.380 -0.4053 -0.4753 -0.0926
   54MOL0     O 7190   5.826   4.339   7.468  0.0686  0.8695 -0.2681
   54MOL0     C 7191   5.706   4.408   7.429 -0.2791  0.8151  0.1872
   54MOL0     C 7192   5.596   4.329   7.493  0.1630  0.2356 -1.1107
   54MOL0     C 7193   5.584   4.343   7.650  1.0647  0.2753  0.7414
   54MOL0     C 7194   5.668   4.238   7.737 -0.6435 -0.7604  0.2727
   54MOL0     C 7195   5.627   4.236   7.884 -0.5220 -0.7723 -0.1665
   54MOL0     C 7196   5.603   4.378   7.924  1.0090 -0.8737 -0.0072
   54MOL0     C 7197   5.603   4.406   8.078 -0.1847  0.1273  0.8686
   54MOL0     C 7198   5.574   4.552   8.110 -0.1217  0.1535  0.4488
   54MOL0    Cl 7199   5.598   4.577   8.294 -0.4260 -0.0532  0.2783
   54MOL0     C 7200   6.040   4.239   7.389 -1.6474  0.1038  0.1482
   54MOL0     C 7201   6.132   4.226   7.288  0.4463  0.6759  0.1093
   54MOL0     O 7202   6.164   4.151   6.981 -0.3519 -0.4624 -0.8910
   54MOL0     C 7203   6.398   4.150   6.830 -0.2259 -1.0245  0.3897
   54MOL0     C 7204   6.499   4.171   6.730 -0.5522  0.0666  0.5192
   54MOL0     N 7205   7.005   4.671   6.071  0.1065  0.6094  0.6226
   54MOL0     N 7206   7.051   4.784   6.049  0.4331 -0.9041  0.5692
   54MOL0     C 7207   7.744   5.054   5.667  0.8543  0.5229 -0.4850
   54MOL0     C 7208   7.724   4.951   5.574 -0.4402  0.3546  0.0202
   54MOL0     C 7209   7.610   4.804   5.157 -0.2356 -0.6418 -0.1027
   54MOL0     C 7210   7.520   4.696   5.170  0.0425 -0.0480 -0.6198
   54MOL0     C 7211   7.455   4.636   5.063 -0.5847 -0.4321  0.0834
   54MOL0     C 7212   7.487   4.676   4.929 -0.0762 -0.1886 -0.1464
   54MOL0     O 7213   7.439   4.613   4.815 -0.0013  0.7655 -1.0486
   54MOL0     C 7214   7.321   4.533   4.825 -0.0490 -0.5110  0.1096
   54MOL0     C 7215   7.243   4.574   4.705  0.4484 -0.3563  0.2852
   54MOL0     C 7216   7.216   4.729   4.687 -0.4222 -1.0207 -0.1501
   54MOL0     C 7217   7.115   4.737   4.568  0.3182  0.3900 -0.2281
   54MOL0     C 7218   7.084   4.870   4.516 -0.9462 -0.9707  0.2175
   54MOL0     C 7219   7.050   4.982   4.471 -0.3113  0.8718  0.0607
   54MOL0     C 7220   7.577   4.783   4.914 -0.8358 -0.8949  0.3028
   54MOL0     C 7221   7.651   4.840   5.019  0.5378  2.1462 -0.1909
   54MOL0     C 7222   7.765   4.936   4.986  0.4147 -0.5392  0.3595
   54MOL0     H 7223   7.417   5.030   5.451 -0.6041 -2.3491  0.7711
   54MOL0     H 7224   7.427   5.181   5.623  1.5093  0.9572  0.6901
   54MOL0     H 7225   7.537   5.152   5.928  0.4347 -0.9785  3.6829
   54MOL0     H 7226   7.704   5.168   5.953  1.1262  3.4079  2.4540
   54MOL0     H 7227   7.565   5.441   5.948 -0.9400  0.2749  1.1839
   54MOL0     H 7228   7.717   5.379   6.000 -0.3621 -0.7113 -1.8424
   54MOL0     H 7229   7.557   5.409   6.192  0.8521  1.0507 -2.0619
   54MOL0     H 7230   7.623   5.248   6.174  1.1738  1.5589  1.0249
   54MOL0     H 7231   7.342   5.347   6.098 -0.2041 -1.0597 -1.6289
   54MOL0     H 7232   7.402   5.177   6.065 -1.7136 -0.0899 -0.0381
   54MOL0     H 7233   7.413   5.145   6.317  0.5347 -0.8722 -3.5678
   54MOL0     H 7234   7.368   5.308   6.333  0.8700 -0.1705  2.3019
   54MOL0     H 7235   7.166   5.186   6.352  2.3875  0.2384  1.6428
   54MOL0     H 7236   7.152   5.233   6.182  0.3041 -0.8193 -0.6314
   54MOL0     H 7237   7.237   4.975   6.285  0.8392  2.0332 -0.1011
   54MOL0     H 7238   7.267   5.022   6.112 -0.6637  0.5919 -1.2864
   54MOL0     H 7239   6.986   5.049   6.236  1.4657 -1.1414  1.3787
   54MOL0     H 7240   7.048   5.037   6.071  1.8095 -0.0841 -0.9798
   54MOL0     H 7241   6.998   4.786   6.378  2.2562  0.2053 -0.5294
   54MOL0     H 7242   6.851   4.472   6.216 -0.4627  0.1057  1.1016
   54MOL0     H 7243   7.013   4.470   6.296 -0.7852 -2.6002 -0.0512
   54MOL0     H 7244   6.915   4.609   6.471 -1.7709 -1.0137  3.1771
   54MOL0     H 7245   6.763   4.618   6.380 -0.2535 -1.4555 -2.3952
   54MOL0     H 7246   6.875   4.354   6.483  0.4483  0.4059 -0.5168
   54MOL0     H 7247   6.742   4.358   6.366 -1.6781  2.2444  0.6707
   54MOL0     H 7248   6.610   4.501   6.540 -0.0364  0.2355 -0.7959
   54MOL0     H 7249   6.752   4.482   6.647  0.7537 -1.7551  0.0028
   54MOL0     H 7250   6.563   4.488   6.769  0.0851  1.0792  3.3849
   54MOL0     H 7251   6.392   4.470   6.958  0.5660 -0.9219  1.4845
   54MOL0     H 7252   6.047   4.514   7.122  1.5773  0.6572  1.0981
   54MOL0     H 7253   5.878   4.514   7.275  0.0674 -0.8704 -0.7281
   54MOL0     H 7254   5.720   4.511   7.464  1.7795  0.7285 -0.2697
   54MOL0     H 7255   5.692   4.399   7.321 -1.4124  2.6526  0.1429
   54MOL0     H 7256   5.501   4.367   7.454  1.6391  2.8190 -2.4077
   54MOL0     H 7257   5.599   4.222   7.469 -0.2257  0.0537 -0.3948
   54MOL0     H 7258   5.608   4.446   7.675 -2.1144  0.7765  2.2326
   54MOL0     H 7259   5.481   4.320   7.681  1.8297 -0.7033  2.7203
   54MOL0     H 7260   5.772   4.272   7.730 -0.3803 -0.4791  3.8700
   54MOL0     H 7261   5.647   4.142   7.689 -1.4633 -1.0991  1.2647
   54MOL0     H 7262   5.707   4.189   7.942  0.0755 -0.3047 -0.5916
   54MOL0     H 7263   5.531   4.183   7.891 -0.3556 -1.1189 -0.4872
   54MOL0     H 7264   5.684   4.436   7.880  1.9367 -0.4928  2.0655
   54MOL0     H 7265   5.501   4.398   7.888  0.2866  2.0743  3.1695
   54MOL0     H 7266   5.697   4.374   8.123  0.9930  0.0639 -1.4677
   54MOL0     H 7267   5.531   4.339   8.124 -1.4166  0.2352 -0.8004
   54MOL0     H 7268   5.637   4.620   8.052  0.5922  1.3228  2.4962
   54MOL0     H 7269   5.471   4.581   8.086 -0.8133 -1.4659  1.3116
   54MOL0     H 7270   6.040   4.175   7.477  3.5993  2.6477  2.4833
   54MOL0     H 7271   6.215   4.161   7.316 -0.3521  0.1982  1.4625
   54MOL0     H 7272   6.358   4.049   6.838  1.2957 -1.6692  0.2595
   54MOL0     H 7273   6.536   4.088   6.671 -0.1964  1.3041 -1.0666
   54MOL0     H 7274   7.822   5.027   5.736 -1.3061 -5.1898  0.2666
   54MOL0     H 7275   7.798   4.875   5.550 -2.2070 -1.9304  1.4672
   54MOL0     H 7276   7.491   4.665   5.270  0.3061 -1.4401 -0.9437
   54MOL0     H 7277   7.383   4.558   5.085 -1.0536 -0.6177 -1.8945
   54MOL0     H 7278   7.259   4.555   4.913  1.3237 -0.8258  1.1805
   54MOL0     H 7279   7.344   4.426   4.824 -0.3430 -0.5751 -0.0636
   54MOL0     H 7280   7.147   4.521   4.704  0.5866 -0.8306 -3.4795
   54MOL0     H 7281   7.304   4.543   4.620  1.1016 -1.1639  1.0224
   54MOL0     H 7282   7.304   4.781   4.648 -0.1858 -2.3812 -1.5250
   54MOL0     H 7283   7.185   4.773   4.782  2.0759 -1.6152  1.0170
   54MOL0     H 7284   7.136   4.671   4.484 -2.8625 -2.0949  0.7029
   54MOL0     H 7285   7.025   4.686   4.605  1.5664 -1.0012  1.0370
   54MOL0     H 7286   7.035   5.081   4.434  2.4637  2.1694  2.0451
   54MOL0     H 7287   7.613   4.806   4.814  0.0955  0.9110  0.9904
   54MOL0     H 7288   7.776   4.964   4.881 -1.6539  2.0966  0.7293
   54MOL0     H 7289   7.738   5.033   5.029 -0.0769 -0.6535  0.3122
   54MOL0     H 7290   7.856   4.896   5.032 -1.1979 -2.2225  2.3093
   55MOL0     O 7291   1.928   6.433   1.968  0.4095  0.3862 -0.0761
   55MOL0     C 7292   1.924   6.552   1.964  0.1284 -1.2918 -0.5277
   55MOL0     O 7293   1.973   6.634   2.059  0.3718  1.5632  0.2072
   55MOL0     C 7294   2.065   6.595   2.159  0.2493  0.6917  0.2246
   55MOL0     C 7295   2.103   6.700   2.239 -0.2102 -1.3236 -0.9507
   55MOL0     C 7296   2.215   6.687   2.330 -0.1505  0.5596  0.2656
   55MOL0     C 7297   2.271   6.563   2.354  0.4424  0.6698 -0.9740
   55MOL0     O 7298   2.370   6.574   2.450  0.2252  0.4269 -0.4477
   55MOL0     C 7299   2.464   6.473   2.454 -0.5297  0.2889  0.7915
   55MOL0     C 7300   2.569   6.496   2.561 -0.4003 -1.1042 -0.1492
   55MOL0     C 7301   2.671   6.380   2.588 -0.5595  0.4758  0.3726
   55MOL0     C 7302   2.778   6.425   2.687 -0.2853  0.0147 -1.0557
   55MOL0     C 7303   2.868   6.293   2.717 -0.6485  0.3656  0.2706
   55MOL0     C 7304   2.944   6.237   2.603 -1.0785  1.3165  0.3850
   55MOL0     C 7305   3.067   6.163   2.645  0.1119  0.1391  0.8805
   55MOL0     C 7306   3.152   6.123   2.518 -0.4807 -0.1017  0.2205
   55MOL0     N 7307   3.101   5.992   2.461 -0.8893 -0.0058  0.2192
   55MOL0     C 7308   3.186   5.881   2.471 -0.4036 -0.2606  0.6844
   55MOL0     C 7309   3.124   5.795   2.383  1.2364 -0.1166 -0.2991
   55MOL0     C 7310   3.171   5.662   2.361  0.0923  0.4610 -0.1152
   55MOL0     C 7311   3.076   5.559   2.322  0.2009  0.0441 -0.3424
   55MOL0     C 7312   3.141   5.418   2.315  0.9126  0.1413  0.7339
   55MOL0     C 7313   3.077   5.333   2.221  0.3729 -1.0113  0.1272
   55MOL0     O 7314   3.100   5.192   2.248  1.1207  0.5900 -0.1034
   55MOL0     C 7315   3.064   5.147   2.369 -0.0551 -0.3993 -1.2437
   55MOL0     C 7316   2.968   5.201   2.461  0.3237  0.5474 -0.0669
   55MOL0     C 7317   2.936   5.142   2.582  0.3136 -0.4517  0.8295
   55MOL0     C 7318   3.019   5.030   2.628  0.5287 -0.5495  0.0031
   55MOL0     C 7319   3.001   4.978   2.767 -0.2221  0.0192 -0.2307
   55MOL0     O 7320   3.094   4.892   2.812 -0.4073  0.3299 -0.7928
   55MOL0     C 7321   3.076   4.839   2.944  1.0208 -0.1634 -0.6836
   55MOL0     C 7322   3.003   4.724   2.975 -0.0094 -1.6440 -0.3846
   55MOL0     C 7323   3.021   4.670   3.105  0.4009  0.0242  0.5598
   55MOL0     C 7324   3.100   4.732   3.200 -0.6233  0.1854 -0.1089
   55MOL0     O 7325   3.135   4.672   3.319 -0.9543  0.2165 -0.8856
   55MOL0     C 7326   3.104   4.535   3.343  0.5423 -0.4583 -0.3465
   55MOL0     C 7327   3.211   4.438   3.288 -0.5728  0.1115 -0.7508
   55MOL0     C 7328   3.171   4.337   3.187  0.3881 -0.0452  0.4794
   55MOL0     C 7329   3.305   4.260   3.147  0.7484 -0.3038  0.5723
   55MOL0     C 7330   3.278   4.157   3.038 -0.0166 -0.0405  0.7035
   55MOL0     C 7331   3.235   4.202   2.898 -0.2245 -0.3329 -0.0242
   55MOL0     C 7332   3.240   4.090   2.800 -0.3640 -0.6059  0.5444
   55MOL0     C 7333   3.384   4.048   2.759  0.3023  0.5679 -0.1165
   55MOL0    Cl 7334   3.397   3.909   2.648  0.4747 -0.0403 -0.2569
   55MOL0     C 7335   3.143   4.860   3.176  0.4431 -0.6661 -0.2738
   55MOL0     C 7336   3.139   4.911   3.048 -0.4363 -0.0111 -0.5746
   55MOL0     O 7337   2.928   5.049   2.831  0.0154 -0.0258 -0.8754
   55MOL0     C 7338   3.107   4.972   2.536 -0.7271  0.2425 -0.4604
   55MOL0     C 7339   3.124   5.028   2.411  0.2361 -0.1694 -0.1355
   55MOL0     N 7340   3.020   5.860   2.313  0.4000  0.7465 -0.4505
   55MOL0     N 7341   3.005   5.978   2.364  0.0632 -0.0517 -0.5486
   55MOL0     C 7342   2.221   6.448   2.286  0.4629  0.3205  0.6767
   55MOL0     C 7343   2.123   6.464   2.187  0.0682  0.2407  0.4184
   55MOL0     C 7344   1.852   6.627   1.863 -0.0055 -0.0029  0.7058
   55MOL0     C 7345   1.858   6.767   1.864 -0.8874  0.5776  0.6780
   55MOL0     C 7346   1.778   6.851   1.792 -0.3460  0.1824  0.3560
   55MOL0     C 7347   1.679   6.790   1.705 -0.0235  0.0845  0.0306
   55MOL0     O 7348   1.588   6.857   1.626 -0.0626  0.1288  0.6224
   55MOL0     C 7349   1.542   6.993   1.664  0.3348  0.6366  0.0661
   55MOL0     C 7350   1.413   7.007   1.751  0.4492  0.9198  0.0109
   55MOL0     C 7351   1.284   6.944   1.691 -0.9313 -0.5866  0.4571
   55MOL0     C 7352   1.150   6.953   1.769  0.0608  0.9188 -0.7831
   55MOL0     C 7353   1.048   6.854   1.704 -0.1470  1.4662  0.1110
   55MOL0     C 7354   0.968   6.786   1.642 -0.1346  0.1990  0.4288
   55MOL0     C 7355   1.681   6.647   1.693 -0.2751 -0.6524  0.0573
   55MOL0     C 7356   1.762   6.566   1.778  0.0192 -0.1966  0.8882
   55MOL0     C 7357   1.741   6.418   1.759  0.2944  0.6916 -0.1693
   55MOL0     H 7358   2.063   6.801   2.245  0.4252 -0.9921 -1.9750
   55MOL0     H 7359   2.248   6.763   2.399  4.0872 -2.7446  2.3730
   55MOL0     H 7360   2.414   6.379   2.478 -0.6908  0.0200 -0.5180
   55MOL0     H 7361   2.501   6.458   2.352 -0.1437  1.5612  0.7270
   55MOL0     H 7362   2.512   6.514   2.652  1.9580  1.4439  0.9554
   55MOL0     H 7363   2.627   6.588   2.548 -2.3982  0.4765  1.3513
   55MOL0     H 7364   2.724   6.350   2.497  0.8513  2.3161  0.5304
   55MOL0     H 7365   2.623   6.291   2.629 -1.3530  1.1780  0.9891
   55MOL0     H 7366   2.835   6.512   2.652 -1.9834  1.8911  0.6122
   55MOL0     H 7367   2.739   6.464   2.781  0.6442  0.9056 -1.0159
   55MOL0     H 7368   2.942   6.308   2.796 -0.0700 -0.2675 -0.1338
   55MOL0     H 7369   2.794   6.221   2.754  1.6670 -2.3452 -0.0126
   55MOL0     H 7370   2.890   6.167   2.538  0.8266  2.0638 -2.1869
   55MOL0     H 7371   2.976   6.313   2.532 -1.1933 -1.1575 -2.5253
   55MOL0     H 7372   3.039   6.072   2.700 -2.8836  1.4033  1.5820
   55MOL0     H 7373   3.124   6.219   2.719 -0.8235 -1.4275  2.8831
   55MOL0     H 7374   3.150   6.193   2.434  1.0477  1.1711  1.1810
   55MOL0     H 7375   3.260   6.129   2.539 -0.4433 -0.9725  0.2873
   55MOL0     H 7376   3.272   5.857   2.534  0.4481 -0.9644 -0.6926
   55MOL0     H 7377   3.250   5.661   2.286  0.5002  2.1053  0.2574
   55MOL0     H 7378   3.216   5.629   2.456  0.4605  2.7128  0.5447
   55MOL0     H 7379   2.997   5.563   2.397  0.4313  0.2359 -0.1032
   55MOL0     H 7380   3.014   5.578   2.235 -1.8181 -1.2260  0.7515
   55MOL0     H 7381   3.160   5.377   2.414 -0.0031 -0.3733  0.7096
   55MOL0     H 7382   3.244   5.422   2.279  0.1335 -0.6094 -1.7831
   55MOL0     H 7383   3.106   5.352   2.117  0.7641 -0.2498  0.3658
   55MOL0     H 7384   2.967   5.335   2.221 -0.0464 -0.3608 -6.4034
   55MOL0     H 7385   2.913   5.289   2.430 -2.4790 -1.4348 -1.0845
   55MOL0     H 7386   2.863   5.190   2.647  0.3003  0.5630  0.0885
   55MOL0     H 7387   2.950   4.679   2.891  0.1168  0.8426 -1.8846
   55MOL0     H 7388   2.979   4.570   3.111 -2.3302  0.8072 -2.4804
   55MOL0     H 7389   3.103   4.537   3.452  1.5403  1.5563 -0.3348
   55MOL0     H 7390   3.005   4.495   3.320 -0.6833  1.2389  1.6778
   55MOL0     H 7391   3.298   4.493   3.252 -0.0303 -1.5056 -1.9988
   55MOL0     H 7392   3.242   4.378   3.374 -0.2150 -1.5665 -2.0101
   55MOL0     H 7393   3.084   4.279   3.218  0.0289  0.3742  0.2586
   55MOL0     H 7394   3.144   4.398   3.101 -1.0191  0.2444  1.1088
   55MOL0     H 7395   3.344   4.207   3.235  4.8206  1.1425 -0.1065
   55MOL0     H 7396   3.384   4.328   3.113  0.7822  1.3117  3.5031
   55MOL0     H 7397   3.201   4.088   3.074  0.4180 -1.6550 -1.2871
   55MOL0     H 7398   3.370   4.098   3.032 -1.5026 -2.3126 -1.2232
   55MOL0     H 7399   3.133   4.240   2.909 -0.3627  0.2267 -2.5920
   55MOL0     H 7400   3.304   4.285   2.875 -1.1169 -0.2661 -2.8587
   55MOL0     H 7401   3.199   4.127   2.706 -2.9563  1.8092  2.4519
   55MOL0     H 7402   3.177   4.012   2.843 -0.7513 -0.6082 -0.0218
   55MOL0     H 7403   3.432   4.135   2.714  2.0642 -2.1541 -4.0581
   55MOL0     H 7404   3.442   4.021   2.848  0.1768  0.5391 -0.0438
   55MOL0     H 7405   3.195   4.920   3.251 -1.0042 -1.0459  1.0625
   55MOL0     H 7406   3.194   5.003   3.032  0.6985 -0.7459 -1.0720
   55MOL0     H 7407   3.150   4.879   2.574 -2.9149 -0.7063 -0.1429
   55MOL0     H 7408   3.186   4.991   2.330  0.8732 -0.0942  0.3163
   55MOL0     H 7409   2.256   6.349   2.311 -0.6284  0.1057  1.4116
   55MOL0     H 7410   2.098   6.377   2.128 -1.6949  3.1796 -3.6243
   55MOL0     H 7411   1.937   6.808   1.926 -1.3479  1.9723  0.3755
   55MOL0     H 7412   1.792   6.959   1.799 -0.4625  0.3868 -1.8367
   55MOL0     H 7413   1.532   7.053   1.573 -0.1883  3.1566  1.6608
   55MOL0     H 7414   1.624   7.042   1.719  0.7890 -1.9863  1.9118
   55MOL0     H 7415   1.412   7.115   1.764  0.4391  0.8999  0.1798
   55MOL0     H 7416   1.428   6.961   1.849 -0.7083 -0.9934 -0.6518
   55MOL0     H 7417   1.302   6.837   1.676 -1.1800 -0.8859  2.1106
   55MOL0     H 7418   1.273   6.988   1.592  0.8343  1.2386  0.9974
   55MOL0     H 7419   1.170   6.913   1.869  0.2923 -2.0313 -1.9088
   55MOL0     H 7420   1.109   7.054   1.765 -3.4474 -0.4060 -3.0334
   55MOL0     H 7421   0.883   6.736   1.600 -1.0214  1.5462  0.5510
   55MOL0     H 7422   1.599   6.595   1.645  1.1733 -2.5868 -0.4283
   55MOL0     H 7423   1.834   6.360   1.765  0.0311  0.0120 -1.8300
   55MOL0     H 7424   1.669   6.390   1.836 -0.6758  0.0497 -1.2634
   55MOL0     H 7425   1.696   6.390   1.663  0.4945  2.3089 -0.7695
   56MOL0     O 7426   9.084   4.915   2.343  1.3412  0.1426  0.2996
   56MOL0     C 7427   9.138   4.816   2.395  0.0516 -0.5140  0.5132
   56MOL0     O 7428   9.188   4.709   2.323  0.3646 -0.6353 -0.1210
   56MOL0     C 7429   9.187   4.724   2.184 -0.6985  0.6221 -0.5078
   56MOL0     C 7430   9.301   4.792   2.138 -0.0980 -0.3664 -0.1948
   56MOL0     C 7431   9.316   4.832   2.007 -0.5524 -0.5846  0.6180
   56MOL0     C 7432   9.209   4.802   1.918 -0.1140 -0.5719 -0.9177
   56MOL0     O 7433   9.208   4.824   1.784  0.0299 -0.3740  0.4995
   56MOL0     C 7434   9.302   4.912   1.724  0.5193 -0.8079  0.3223
   56MOL0     C 7435   9.293   4.890   1.578  0.7810  0.2900  0.1198
   56MOL0     C 7436   9.408   4.939   1.494 -0.1411  0.1666  0.0183
   56MOL0     C 7437   9.376   4.904   1.350 -0.6339  0.8022  0.6095
   56MOL0     C 7438   9.505   4.909   1.270  0.2381 -0.9567  0.3575
   56MOL0     C 7439   9.463   4.851   1.140 -0.0639  0.7941 -0.3569
   56MOL0     C 7440   9.594   4.808   1.070 -0.8791  0.3328  0.2476
   56MOL0     C 7441   9.560   4.727   0.943 -0.8034 -0.3515  0.2956
   56MOL0     N 7442   9.478   4.811   0.845 -0.0157  0.2847 -0.3839
   56MOL0     C 7443   9.340   4.823   0.827  1.0158  1.0405 -0.0591
   56MOL0     C 7444   9.326   4.911   0.722 -0.3051  0.7274 -0.6974
   56MOL0     C 7445   9.193   4.950   0.669  0.3084  0.2871 -0.6474
   56MOL0     C 7446   9.184   4.923   0.514 -0.5213 -0.0435 -0.4089
   56MOL0     C 7447   9.034   4.879   0.479  0.7475  0.1892 -0.2112
   56MOL0     C 7448   9.021   4.797   0.347  0.6390 -0.4608 -0.5913
   56MOL0     O 7449   8.910   4.836   0.268  0.1204  0.2441  0.0498
   56MOL0     C 7450   8.840   4.736   0.207 -0.8906  1.3325  0.1314
   56MOL0     C 7451   8.707   4.717   0.228  0.3033  0.0344 -1.7966
   56MOL0     C 7452   8.629   4.606   0.188  0.1773  0.5733  0.9335
   56MOL0     C 7453   8.692   4.528   0.087  0.1633 -0.6878 -0.2943
   56MOL0     C 7454   8.626   4.415   0.024 -0.5988 -0.0352  0.2452
   56MOL0     O 7455   8.694   4.319  -0.051  0.8286 -0.2923  0.2399
   56MOL0     C 7456   8.630   4.202  -0.077  1.2195 -0.2464 -0.1402
   56MOL0     C 7457   8.559   4.121   0.017  0.4232  0.0934 -0.0916
   56MOL0     C 7458   8.489   4.012  -0.036  0.6050  0.2834 -0.8052
   56MOL0     C 7459   8.459   3.991  -0.172 -0.7815 -0.7108 -0.2808
   56MOL0     O 7460   8.386   3.883  -0.219 -0.3205 -0.3697  0.6581
   56MOL0     C 7461   8.381   3.763  -0.151 -1.0527 -0.0264 -0.3834
   56MOL0     C 7462   8.339   3.664  -0.246 -0.0322 -0.2900  0.1261
   56MOL0     C 7463   8.420   3.632  -0.371 -0.2650  0.4662  0.2637
   56MOL0     C 7464   8.372   3.503  -0.434 -0.1516  1.0630 -0.3205
   56MOL0     C 7465   8.415   3.478  -0.570 -0.0558  1.5263  0.7438
   56MOL0     C 7466   8.554   3.420  -0.600  0.7655 -0.5311  0.4555
   56MOL0     C 7467   8.556   3.273  -0.552  0.8541 -0.2428  0.5082
   56MOL0     C 7468   8.695   3.214  -0.525 -0.2425 -0.0962  0.4932
   56MOL0    Cl 7469   8.775   3.323  -0.403 -0.2807  0.0813 -0.9379
   56MOL0     C 7470   8.523   4.083  -0.259  0.4348  0.5126  1.5236
   56MOL0     C 7471   8.609   4.178  -0.216  0.1562 -0.2549 -0.8328
   56MOL0     O 7472   8.501   4.417   0.046 -0.1148 -0.2975 -0.1111
   56MOL0     C 7473   8.828   4.555   0.050 -0.7636  0.4137  0.0262
   56MOL0     C 7474   8.896   4.655   0.110  0.4026 -0.6471  0.0678
   56MOL0     N 7475   9.448   4.955   0.682 -0.3001  0.4067 -0.2587
   56MOL0     N 7476   9.539   4.904   0.757 -0.0253 -0.3045  0.6864
   56MOL0     C 7477   9.092   4.746   1.969  0.2282 -0.6323  0.3996
   56MOL0     C 7478   9.077   4.702   2.098  0.4865  0.3711  0.3300
   56MOL0     C 7479   9.142   4.801   2.541  1.0130 -0.3073  0.1517
   56MOL0     C 7480   9.225   4.698   2.594 -0.4242 -0.2186 -0.0667
   56MOL0     C 7481   9.195   4.649   2.718 -0.4359 -0.8584 -1.0398
   56MOL0     C 7482   9.111   4.708   2.807  0.2306 -0.6154  1.0283
   56MOL0     O 7483   9.073   4.645   2.922  0.1113  0.8081 -0.2637
   56MOL0     C 7484   9.171   4.615   3.028 -0.9405 -0.4106  0.2123
   56MOL0     C 7485   9.288   4.516   2.994 -0.4660  0.3269 -0.2351
   56MOL0     C 7486   9.386   4.512   3.117 -0.5683  0.0426 -0.1749
   56MOL0     C 7487   9.343   4.412   3.225  0.0014  1.0141  0.8450
   56MOL0     C 7488   9.435   4.409   3.336  0.2060 -0.2280  0.6381
   56MOL0     C 7489   9.517   4.425   3.418 -0.2180 -1.2587  0.1923
   56MOL0     C 7490   9.071   4.839   2.766  0.1999 -0.0646  0.8452
   56MOL0     C 7491   9.081   4.885   2.632 -0.4770  0.5539 -0.6622
   56MOL0     C 7492   8.993   5.002   2.602  1.2562 -0.6582  0.3693
   56MOL0     H 7493   9.386   4.803   2.204 -0.0317  1.1600 -0.4997
   56MOL0     H 7494   9.402   4.888   1.972 -0.8145 -0.0662  0.7856
   56MOL0     H 7495   9.273   5.015   1.746  0.9889 -0.1311 -1.9289
   56MOL0     H 7496   9.406   4.888   1.747  0.0306 -1.3905  2.0656
   56MOL0     H 7497   9.210   4.953   1.544 -1.3902 -3.4238 -2.1058
   56MOL0     H 7498   9.271   4.786   1.554 -2.3260  1.3222 -2.1623
   56MOL0     H 7499   9.496   4.883   1.527 -1.6185 -0.3942  3.3568
   56MOL0     H 7500   9.433   5.045   1.498  1.2336 -0.1780  1.7454
   56MOL0     H 7501   9.334   4.802   1.349  0.5926  0.2820 -0.3305
   56MOL0     H 7502   9.310   4.980   1.307  0.9926  2.3585  0.7437
   56MOL0     H 7503   9.554   5.006   1.252 -0.0883 -1.1963 -2.1411
   56MOL0     H 7504   9.579   4.840   1.312 -0.2452 -2.8684 -1.7706
   56MOL0     H 7505   9.383   4.776   1.141  0.2150  0.4049 -2.3764
   56MOL0     H 7506   9.424   4.940   1.089  1.0402 -0.0858 -2.8488
   56MOL0     H 7507   9.661   4.753   1.136 -1.1889  0.0024  0.2865
   56MOL0     H 7508   9.654   4.894   1.039 -3.0191  1.6282 -0.5200
   56MOL0     H 7509   9.643   4.692   0.881  0.9407  1.5326  1.4421
   56MOL0     H 7510   9.507   4.633   0.961  2.0497 -2.4205 -1.2205
   56MOL0     H 7511   9.255   4.780   0.879  2.3595 -0.8826  0.6664
   56MOL0     H 7512   9.123   4.900   0.736  0.8692 -0.3708 -0.5489
   56MOL0     H 7513   9.173   5.055   0.691 -0.0480 -0.2762  1.9808
   56MOL0     H 7514   9.217   5.004   0.448 -2.8121 -1.0371 -2.9686
   56MOL0     H 7515   9.244   4.833   0.495 -2.9872 -2.0663  0.7904
   56MOL0     H 7516   8.970   4.967   0.470  0.1617 -0.2603 -0.5220
   56MOL0     H 7517   8.993   4.819   0.560 -2.2125  3.8732  1.3039
   56MOL0     H 7518   9.012   4.689   0.364  2.9138 -1.0488 -2.6545
   56MOL0     H 7519   9.115   4.823   0.297  2.2894 -1.3190  1.8964
   56MOL0     H 7520   8.665   4.792   0.295  1.5765  0.0588 -0.9869
   56MOL0     H 7521   8.526   4.593   0.220 -0.8627  1.8546 -1.6327
   56MOL0     H 7522   8.559   4.146   0.123  0.1631 -4.8160  1.3163
   56MOL0     H 7523   8.455   3.938   0.036 -0.7205 -1.0520 -2.6956
   56MOL0     H 7524   8.477   3.745  -0.103 -2.1625  0.0387  2.0306
   56MOL0     H 7525   8.312   3.762  -0.066  0.4940 -2.7115  0.9715
   56MOL0     H 7526   8.352   3.573  -0.187 -0.1956 -1.6239 -1.8348
   56MOL0     H 7527   8.233   3.683  -0.267 -0.6934 -1.2768  2.2985
   56MOL0     H 7528   8.408   3.714  -0.443 -0.6330  1.7079  1.6915
   56MOL0     H 7529   8.526   3.637  -0.341 -0.6994  2.7246  1.7041
   56MOL0     H 7530   8.264   3.518  -0.428  0.0645  2.2234  1.0255
   56MOL0     H 7531   8.408   3.415  -0.379  2.0591  0.2024 -2.8935
   56MOL0     H 7532   8.421   3.571  -0.627  1.9452  2.0661  1.7369
   56MOL0     H 7533   8.336   3.417  -0.616  1.7846  3.2764 -5.8274
   56MOL0     H 7534   8.575   3.420  -0.708  2.4973  1.2076  0.7275
   56MOL0     H 7535   8.640   3.479  -0.566  0.1041 -1.0351  3.1554
   56MOL0     H 7536   8.500   3.205  -0.617 -2.4762  0.8938  1.9674
   56MOL0     H 7537   8.519   3.279  -0.449  5.1240  2.3570  2.1297
   56MOL0     H 7538   8.679   3.120  -0.472 -1.3094  1.1564  2.5179
   56MOL0     H 7539   8.750   3.205  -0.619  1.2072 -1.5731  1.4296
   56MOL0     H 7540   8.506   4.073  -0.366  2.7381 -0.2701  1.1779
   56MOL0     H 7541   8.665   4.241  -0.285  0.4099 -1.4708 -1.7676
   56MOL0     H 7542   8.884   4.501  -0.026  0.9748  0.1984  1.4115
   56MOL0     H 7543   9.002   4.647   0.092  0.3127  0.8407 -1.3122
   56MOL0     H 7544   9.003   4.719   1.913 -0.2481  0.5949  0.5341
   56MOL0     H 7545   8.981   4.657   2.119  0.8757 -0.5995  0.0823
   56MOL0     H 7546   9.289   4.643   2.525  1.3229 -0.7036  1.8260
   56MOL0     H 7547   9.220   4.547   2.746 -1.2409 -0.8494 -0.2382
   56MOL0     H 7548   9.115   4.573   3.112  1.0164  0.7943  2.2288
   56MOL0     H 7549   9.210   4.714   3.055 -2.0523 -0.0554  0.5690
   56MOL0     H 7550   9.348   4.541   2.906  1.2864  0.3058  0.9162
   56MOL0     H 7551   9.258   4.412   2.980  2.4807 -0.5588 -0.7170
   56MOL0     H 7552   9.392   4.603   3.178  1.2412 -0.3992  0.3558
   56MOL0     H 7553   9.489   4.484   3.095  0.7923 -0.1632  5.0405
   56MOL0     H 7554   9.248   4.454   3.259 -1.5312 -0.5856 -1.2197
   56MOL0     H 7555   9.342   4.315   3.174 -2.2843  1.9814 -1.1610
   56MOL0     H 7556   9.594   4.461   3.483 -1.3637  3.1450 -0.5091
   56MOL0     H 7557   9.018   4.901   2.838 -1.3625  0.8046 -0.9450
   56MOL0     H 7558   8.959   5.038   2.699 -2.3351 -4.3468  0.7197
   56MOL0     H 7559   9.026   5.085   2.538 -2.7393  2.1992  1.6435
   56MOL0     H 7560   8.904   4.958   2.557  2.9615 -2.7749 -1.1753
   57MOL0     O 7561   4.097   7.582   3.823  0.2584 -0.6057  0.0657
   57MOL0     C 7562   4.072   7.598   3.946  0.2513  0.4453 -0.3966
   57MOL0     O 7563   4.043   7.498   4.030 -0.1069 -0.1289  0.6214
   57MOL0     C 7564   4.101   7.382   3.999 -0.8216 -0.2963 -0.8868
   57MOL0     C 7565   4.017   7.271   4.011  0.7969 -0.1257  0.2424
   57MOL0     C 7566   4.071   7.144   3.979 -0.0094  0.2185 -0.9017
   57MOL0     C 7567   4.213   7.129   3.971  0.5437  0.5261  0.9443
   57MOL0     O 7568   4.255   6.997   3.946 -0.1213  0.0566 -0.2630
   57MOL0     C 7569   4.399   6.976   3.958  0.5355 -0.3171  0.1582
   57MOL0     C 7570   4.423   6.826   3.945  0.3744 -0.2767 -0.0752
   57MOL0     C 7571   4.575   6.802   3.948  0.3978 -0.4767 -0.2463
   57MOL0     C 7572   4.606   6.723   4.072  0.1152 -0.3210 -0.7458
   57MOL0     C 7573   4.752   6.675   4.083  0.1225 -0.2455 -0.2453
   57MOL0     C 7574   4.758   6.535   4.159 -0.2578 -0.3311  0.0121
   57MOL0     C 7575   4.893   6.473   4.166  0.6106 -0.1462  0.9450
   57MOL0     C 7576   4.992   6.545   4.259  0.5900  0.2837  0.0282
   57MOL0     N 7577   5.044   6.452   4.362  0.6316 -0.4732 -0.2912
   57MOL0     C 7578   5.167   6.455   4.415 -0.3016 -0.8333  0.2874
   57MOL0     C 7579   5.174   6.356   4.501  0.4263 -0.7556 -0.0979
   57MOL0     C 7580   5.308   6.320   4.561 -0.0369  0.1046  0.4662
   57MOL0     C 7581   5.325   6.378   4.708  0.4599  0.1348  0.5391
   57MOL0     C 7582   5.467   6.402   4.749  0.1870 -0.6847 -0.7074
   57MOL0     C 7583   5.467   6.485   4.874 -0.3601  0.3111  0.5601
   57MOL0     O 7584   5.379   6.429   4.972 -0.2364  0.0359  0.1803
   57MOL0     C 7585   5.409   6.317   5.031 -0.3831 -0.1585 -0.4110
   57MOL0     C 7586   5.535   6.251   5.036  0.6397  0.3927 -0.5489
   57MOL0     C 7587   5.544   6.122   5.092 -0.4810 -0.0432  0.3200
   57MOL0     C 7588   5.433   6.071   5.158  0.5917  0.4978  1.3745
   57MOL0     C 7589   5.445   5.937   5.221 -0.1832 -0.3105  0.1277
   57MOL0     O 7590   5.543   5.855   5.181  0.1678 -0.2766 -0.4120
   57MOL0     C 7591   5.547   5.730   5.238  0.3364  0.1088 -0.3898
   57MOL0     C 7592   5.665   5.693   5.301 -0.1692  0.3451  0.0647
   57MOL0     C 7593   5.664   5.568   5.360  0.0842 -0.2194 -0.1044
   57MOL0     C 7594   5.564   5.478   5.344  0.7713  0.2383 -0.2405
   57MOL0     O 7595   5.571   5.355   5.401 -0.8228  0.9625 -0.2940
   57MOL0     C 7596   5.664   5.268   5.330  0.2001 -1.5375  0.4333
   57MOL0     C 7597   5.711   5.162   5.433 -0.2996  0.2877  0.4669
   57MOL0     C 7598   5.835   5.201   5.520  0.6157 -0.3294  0.9190
   57MOL0     C 7599   5.960   5.167   5.441 -0.5440 -0.2909 -0.4341
   57MOL0     C 7600   6.101   5.219   5.510  0.5132  0.8531 -0.2237
   57MOL0     C 7601   6.225   5.163   5.429  0.0085 -0.9889 -0.0931
   57MOL0     C 7602   6.243   5.007   5.445 -0.1266 -0.1545 -0.1795
   57MOL0     C 7603   6.367   4.949   5.400 -0.3161 -0.2068  0.5923
   57MOL0    Cl 7604   6.398   4.957   5.226  0.1677 -0.1056  0.1052
   57MOL0     C 7605   5.463   5.515   5.266  0.0967  0.7117  0.2767
   57MOL0     C 7606   5.456   5.637   5.213  1.0245  0.9578 -0.4119
   57MOL0     O 7607   5.351   5.913   5.300  0.1959 -0.3648 -0.4319
   57MOL0     C 7608   5.310   6.148   5.159  0.6267  0.3526 -0.9431
   57MOL0     C 7609   5.300   6.269   5.099  0.0225 -0.6934 -1.1250
   57MOL0     N 7610   5.045   6.300   4.522  0.4238  0.1263  0.8882
   57MOL0     N 7611   4.970   6.365   4.439  0.6153 -0.1698 -0.0653
   57MOL0     C 7612   4.293   7.233   3.977  0.4211 -0.6018 -0.6509
   57MOL0     C 7613   4.237   7.358   3.980  0.5180 -0.1766  0.0768
   57MOL0     C 7614   4.057   7.739   3.992 -1.0544 -0.5021  0.1107
   57MOL0     C 7615   4.058   7.841   3.898  0.9850 -0.3362  0.5223
   57MOL0     C 7616   4.039   7.974   3.931 -0.8773  0.1458 -0.0961
   57MOL0     C 7617   4.006   8.018   4.061  0.6108  0.5036 -0.2858
   57MOL0     O 7618   3.982   8.150   4.090  1.2322 -0.2894  0.1176
   57MOL0     C 7619   4.009   8.189   4.231  0.2894  0.3406 -0.1304
   57MOL0     C 7620   4.013   8.343   4.246 -0.9810  0.3288 -0.7370
   57MOL0     C 7621   4.083   8.401   4.117  0.6603  0.1140 -0.0921
   57MOL0     C 7622   4.114   8.548   4.132 -0.3127 -0.2023  0.3642
   57MOL0     C 7623   4.208   8.582   4.242  0.3532 -0.4174  0.1125
   57MOL0     C 7624   4.280   8.609   4.336 -0.4314 -0.1531  0.3004
   57MOL0     C 7625   4.011   7.918   4.153 -0.2680  0.1321  0.2884
   57MOL0     C 7626   4.039   7.787   4.126 -0.5422 -0.2487  0.1188
   57MOL0     C 7627   4.018   7.696   4.247 -0.5787  0.6788  0.9484
   57MOL0     H 7628   3.910   7.278   4.031  0.7471  5.4023 -0.5022
   57MOL0     H 7629   4.011   7.053   3.974  1.1042 -0.5223 -0.9862
   57MOL0     H 7630   4.450   7.031   3.879  0.9965  1.5393  1.6507
   57MOL0     H 7631   4.431   7.026   4.050  1.7421 -0.8644  0.0515
   57MOL0     H 7632   4.396   6.802   3.841 -0.2328  0.8699 -0.2022
   57MOL0     H 7633   4.367   6.761   4.012 -3.1229 -1.4045 -3.6414
   57MOL0     H 7634   4.623   6.900   3.953  0.1199 -0.3960  1.0511
   57MOL0     H 7635   4.613   6.752   3.858  2.2138 -0.1022  0.2805
   57MOL0     H 7636   4.577   6.774   4.165 -1.4219 -0.1455 -1.2916
   57MOL0     H 7637   4.539   6.636   4.069 -1.5014  0.8833 -2.9165
   57MOL0     H 7638   4.786   6.665   3.980  1.3367  2.0197 -0.1402
   57MOL0     H 7639   4.813   6.752   4.132 -1.0110 -0.3387  1.3972
   57MOL0     H 7640   4.722   6.560   4.260  0.3534 -3.5280  1.1249
   57MOL0     H 7641   4.695   6.461   4.109 -0.3747 -0.0671 -0.2329
   57MOL0     H 7642   4.943   6.458   4.070 -2.0932 -0.1692 -0.5487
   57MOL0     H 7643   4.873   6.371   4.199 -2.8508 -0.6437 -2.0101
   57MOL0     H 7644   5.065   6.598   4.197  1.4969 -0.1858  0.6728
   57MOL0     H 7645   4.948   6.633   4.306  0.6392  0.4896 -0.3032
   57MOL0     H 7646   5.255   6.514   4.391 -0.7935  0.2891  1.1817
   57MOL0     H 7647   5.319   6.212   4.559  1.8962  0.2747 -0.6645
   57MOL0     H 7648   5.383   6.361   4.493 -0.0521  0.5472  0.7075
   57MOL0     H 7649   5.270   6.472   4.708  1.0619  0.4910  0.2961
   57MOL0     H 7650   5.264   6.316   4.774 -1.1804  1.0626 -0.0308
   57MOL0     H 7651   5.524   6.449   4.669 -1.6279  1.0084 -1.0805
   57MOL0     H 7652   5.512   6.303   4.764  0.8954 -0.2433  0.1889
   57MOL0     H 7653   5.436   6.588   4.853 -1.0975  0.2180  1.1512
   57MOL0     H 7654   5.568   6.501   4.913 -0.8599  1.9647  1.2511
   57MOL0     H 7655   5.630   6.285   4.997  2.1452 -2.2005  0.5458
   57MOL0     H 7656   5.642   6.078   5.104 -0.2502  0.8905  2.3312
   57MOL0     H 7657   5.755   5.754   5.301  0.9043 -1.1764  0.2367
   57MOL0     H 7658   5.750   5.547   5.423  0.4352  0.1179 -0.4667
   57MOL0     H 7659   5.616   5.220   5.244  2.8735  0.3769 -2.3544
   57MOL0     H 7660   5.746   5.327   5.286 -2.6443  0.0444 -3.2783
   57MOL0     H 7661   5.631   5.138   5.504  1.3753  2.4200  3.3076
   57MOL0     H 7662   5.738   5.074   5.374 -0.0574 -1.1767  2.6423
   57MOL0     H 7663   5.848   5.304   5.556  0.5609 -0.4393  1.2646
   57MOL0     H 7664   5.824   5.146   5.614  0.0489  0.3263  1.2433
   57MOL0     H 7665   5.964   5.212   5.341  1.3105  0.7559  0.0522
   57MOL0     H 7666   5.968   5.060   5.419 -0.5133  0.0359 -2.1492
   57MOL0     H 7667   6.100   5.160   5.602 -0.4863 -3.1699 -2.5549
   57MOL0     H 7668   6.098   5.327   5.524 -3.5845  0.6372  1.8936
   57MOL0     H 7669   6.224   5.201   5.326 -2.0722 -0.9007 -0.0644
   57MOL0     H 7670   6.314   5.212   5.471 -1.8925  0.7505  2.1402
   57MOL0     H 7671   6.152   4.960   5.408 -2.1793  3.1808  0.2684
   57MOL0     H 7672   6.246   4.983   5.552  1.0128 -0.1286 -0.1893
   57MOL0     H 7673   6.448   4.973   5.469  0.7526 -4.6531  1.1944
   57MOL0     H 7674   6.352   4.841   5.407  0.3542 -0.3497 -0.0198
   57MOL0     H 7675   5.391   5.437   5.240  1.6247 -0.6099 -0.1681
   57MOL0     H 7676   5.368   5.663   5.155  0.1117 -0.3144  0.3462
   57MOL0     H 7677   5.226   6.104   5.213  1.4801 -0.4723 -0.2557
   57MOL0     H 7678   5.212   6.331   5.093  1.6120  1.6173 -2.0264
   57MOL0     H 7679   4.400   7.237   3.961  0.2092 -0.9485 -2.3734
   57MOL0     H 7680   4.312   7.436   3.971 -0.0732  0.5525  1.1483
   57MOL0     H 7681   4.060   7.811   3.793  0.5898  1.3135  0.0063
   57MOL0     H 7682   4.042   8.053   3.857  1.8954  0.3184  0.0942
   57MOL0     H 7683   4.088   8.131   4.279 -1.5799 -1.7198  0.6382
   57MOL0     H 7684   3.917   8.158   4.283  1.6488 -1.0912  1.5305
   57MOL0     H 7685   4.064   8.365   4.340 -1.7023  2.1681 -0.7250
   57MOL0     H 7686   3.910   8.379   4.256 -1.0939  0.8135 -3.0714
   57MOL0     H 7687   4.012   8.387   4.035  0.3330 -3.8237  0.6744
   57MOL0     H 7688   4.171   8.341   4.096 -0.5189 -0.8573 -2.6657
   57MOL0     H 7689   4.141   8.591   4.035 -0.4008  0.8505  0.7973
   57MOL0     H 7690   4.014   8.588   4.155  0.6921  2.4261  0.5211
   57MOL0     H 7691   4.345   8.635   4.417 -0.6961  0.6960  0.2580
   57MOL0     H 7692   4.004   7.937   4.259  2.1951  0.0609  0.5216
   57MOL0     H 7693   3.945   7.620   4.218 -0.9341  1.7895 -1.3144
   57MOL0     H 7694   4.115   7.650   4.268 -0.1221 -0.3776 -2.6662
   57MOL0     H 7695   3.975   7.740   4.337 -1.6705 -2.4947  2.1175
   58MOL0     O 7696  10.168   8.451   5.792 -0.3927  1.0026 -0.0875
   58MOL0     C 7697  10.089   8.540   5.788  0.4480  0.0774  0.1715
   58MOL0     O 7698  10.097   8.651   5.872  0.1464 -0.2508 -0.8551
   58MOL0     C 7699  10.171   8.646   5.988  0.4492  1.0973 -0.5005
   58MOL0     C 7700  10.145   8.557   6.092 -0.0669  0.5864  0.7240
   58MOL0     C 7701  10.210   8.578   6.211 -0.1920  0.0485 -0.4817
   58MOL0     C 7702  10.296   8.689   6.236 -0.7299 -0.6565  0.1495
   58MOL0     O 7703  10.360   8.692   6.363 -0.2306 -0.0522  0.4071
   58MOL0     C 7704  10.395   8.820   6.405  0.3640  0.3579  0.5537
   58MOL0     C 7705  10.358   8.833   6.549 -0.8530 -0.2021 -0.7530
   58MOL0     C 7706  10.210   8.807   6.575  0.0249 -0.2521 -0.1671
   58MOL0     C 7707  10.150   8.899   6.685  0.7838 -0.1176  0.4823
   58MOL0     C 7708   9.993   8.886   6.675  0.2699 -0.2352 -0.3382
   58MOL0     C 7709   9.927   8.931   6.805 -0.1535  0.0597  0.4144
   58MOL0     C 7710   9.959   8.834   6.922 -0.4144 -0.1225 -0.4484
   58MOL0     C 7711   9.888   8.878   7.041 -0.0254 -0.8349 -0.7726
   58MOL0     N 7712   9.882   8.769   7.139 -0.6019 -0.5266  0.2304
   58MOL0     C 7713   9.777   8.679   7.144  0.6141  0.3154  0.4522
   58MOL0     C 7714   9.802   8.593   7.244 -0.0180 -0.0096  0.2191
   58MOL0     C 7715   9.715   8.482   7.296  0.3801 -0.8896 -0.1136
   58MOL0     C 7716   9.715   8.350   7.223 -0.4339 -0.3321  0.5891
   58MOL0     C 7717   9.637   8.353   7.096  0.1105  0.0144 -0.0825
   58MOL0     C 7718   9.489   8.344   7.094  0.5140  0.8896  0.4395
   58MOL0     O 7719   9.420   8.462   7.150  0.1142 -0.2172  0.3422
   58MOL0     C 7720   9.282   8.463   7.161 -0.8008 -0.3522  0.1417
   58MOL0     C 7721   9.191   8.356   7.123  0.2981 -0.1609 -0.7973
   58MOL0     C 7722   9.050   8.382   7.135  0.6708  1.0975 -0.4166
   58MOL0     C 7723   9.001   8.506   7.161  0.2893 -0.1510  0.0446
   58MOL0     C 7724   8.865   8.527   7.197 -1.3807 -0.2943  0.2288
   58MOL0     O 7725   8.805   8.452   7.288  0.1807  0.1188  0.5972
   58MOL0     C 7726   8.680   8.493   7.320 -1.4770  0.1791 -1.0895
   58MOL0     C 7727   8.580   8.458   7.232  0.0520  0.3235  0.1791
   58MOL0     C 7728   8.452   8.514   7.245 -0.5458 -0.2591 -0.0186
   58MOL0     C 7729   8.418   8.596   7.358 -0.4349 -0.5945  0.0049
   58MOL0     O 7730   8.299   8.650   7.357  0.8503  0.4310  0.1917
   58MOL0     C 7731   8.287   8.774   7.302  0.2005 -0.8122 -0.3468
   58MOL0     C 7732   8.166   8.843   7.335  0.5912  0.1849  0.7920
   58MOL0     C 7733   8.095   8.893   7.217 -0.0506 -0.1600  0.1024
   58MOL0     C 7734   8.156   9.013   7.147  0.1899  1.5886  0.8532
   58MOL0     C 7735   8.057   9.076   7.042 -1.2862  0.2971  0.8950
   58MOL0     C 7736   7.952   9.156   7.096 -0.3580  0.1892 -0.0151
   58MOL0     C 7737   7.857   9.221   6.991  0.3192  0.8699 -1.7443
   58MOL0     C 7738   7.760   9.319   7.064  0.7334 -1.2085 -0.0885
   58MOL0    Cl 7739   7.852   9.455   7.131 -0.3218  0.0425  0.0327
   58MOL0     C 7740   8.525   8.626   7.448  0.2613 -0.5589 -0.6777
   58MOL0     C 7741   8.654   8.585   7.430  0.1018 -0.1061  0.7982
   58MOL0     O 7742   8.820   8.631   7.151 -0.6736  0.3341  0.9963
   58MOL0     C 7743   9.095   8.606   7.190 -0.2052  0.1937 -0.0671
   58MOL0     C 7744   9.228   8.587   7.200  0.3605 -0.1476 -1.3549
   58MOL0     N 7745   9.923   8.622   7.292  0.4444 -0.4145 -0.6282
   58MOL0     N 7746   9.976   8.729   7.234  0.4550  0.5781 -0.1603
   58MOL0     C 7747  10.315   8.783   6.128 -1.0728  0.3044  0.1949
   58MOL0     C 7748  10.255   8.767   6.006  0.7476  1.8018  0.2604
   58MOL0     C 7749   9.990   8.549   5.673 -0.6304  0.2576  0.2207
   58MOL0     C 7750   9.876   8.617   5.708 -0.3410 -0.3211  0.3552
   58MOL0     C 7751   9.768   8.636   5.628  0.2031  0.5476  0.8763
   58MOL0     C 7752   9.785   8.606   5.491  0.0507 -0.5975  0.1341
   58MOL0     O 7753   9.684   8.624   5.403  0.6908  0.1546 -0.1511
   58MOL0     C 7754   9.707   8.695   5.280 -0.1438 -0.1464 -0.0776
   58MOL0     C 7755   9.754   8.843   5.282  0.2770  0.5905  0.3253
   58MOL0     C 7756   9.747   8.900   5.143  0.7859 -0.5920 -0.3592
   58MOL0     C 7757   9.806   9.032   5.139  0.7117 -1.1742  0.1145
   58MOL0     C 7758   9.788   9.102   5.014 -0.3140 -0.6016 -0.6669
   58MOL0     C 7759   9.788   9.166   4.909 -0.1983 -0.0420 -0.1396
   58MOL0     C 7760   9.899   8.529   5.446  0.9189 -0.0869  1.1078
   58MOL0     C 7761  10.002   8.507   5.532 -0.3015 -0.9194  0.0316
   58MOL0     C 7762  10.121   8.449   5.474 -0.1190  0.1185  0.2003
   58MOL0     H 7763  10.076   8.474   6.079 -1.5733  2.0666 -1.4765
   58MOL0     H 7764  10.201   8.510   6.296 -4.4428  0.2662 -0.5286
   58MOL0     H 7765  10.500   8.847   6.386  1.2288 -1.2410  2.6713
   58MOL0     H 7766  10.332   8.893   6.353 -2.5711 -3.3256 -1.5688
   58MOL0     H 7767  10.389   8.931   6.587 -0.4964 -0.4285 -0.4604
   58MOL0     H 7768  10.415   8.760   6.607 -0.4772  1.2554  0.8064
   58MOL0     H 7769  10.173   8.705   6.588 -2.5960  0.7768  1.1044
   58MOL0     H 7770  10.165   8.845   6.483 -0.8502 -0.8084  0.0205
   58MOL0     H 7771  10.189   8.879   6.786  1.6064 -0.1247  0.1751
   58MOL0     H 7772  10.176   9.003   6.663 -1.8308  0.6047  0.5215
   58MOL0     H 7773   9.963   8.966   6.607 -0.4294  2.4579  2.8835
   58MOL0     H 7774   9.976   8.786   6.634  0.9057 -0.0355 -1.1084
   58MOL0     H 7775   9.965   9.031   6.827 -2.1936  0.9184  0.3076
   58MOL0     H 7776   9.820   8.940   6.785  0.4098 -0.1031 -3.2622
   58MOL0     H 7777  10.065   8.834   6.951 -0.3824  0.0021 -0.5684
   58MOL0     H 7778   9.921   8.736   6.892 -0.4161 -1.1894  2.6468
   58MOL0     H 7779   9.937   8.962   7.092  4.7017 -1.9759 -2.8821
   58MOL0     H 7780   9.782   8.897   7.020  0.3320  0.1188 -1.8261
   58MOL0     H 7781   9.691   8.680   7.078 -0.2407 -1.7769  1.4257
   58MOL0     H 7782   9.751   8.470   7.398  0.9749  0.2284 -0.1783
   58MOL0     H 7783   9.614   8.524   7.293  1.0294  0.6975 -2.0087
   58MOL0     H 7784   9.816   8.322   7.190 -1.3197 -0.9661 -1.7981
   58MOL0     H 7785   9.671   8.266   7.277  2.0960 -2.2814 -0.1656
   58MOL0     H 7786   9.687   8.270   7.044  2.1457  0.5770  0.8567
   58MOL0     H 7787   9.662   8.437   7.030 -0.3350 -1.3596 -2.1221
   58MOL0     H 7788   9.468   8.248   7.143 -0.6868  1.1023  0.3668
   58MOL0     H 7789   9.460   8.329   6.989 -1.3385 -2.5212  1.2895
   58MOL0     H 7790   9.230   8.257   7.103  0.7013  0.0193 -0.8994
   58MOL0     H 7791   8.981   8.298   7.135  1.4485  0.3808  1.6235
   58MOL0     H 7792   8.602   8.396   7.145 -1.4010  1.1381 -0.8061
   58MOL0     H 7793   8.374   8.498   7.171 -1.2280  3.7037 -0.4131
   58MOL0     H 7794   8.364   8.850   7.321 -1.0414 -0.1928  2.7116
   58MOL0     H 7795   8.283   8.763   7.193 -0.0608 -1.3296 -0.2835
   58MOL0     H 7796   8.107   8.772   7.394 -0.1056 -0.1386 -0.2627
   58MOL0     H 7797   8.191   8.929   7.398 -1.1625  2.2865 -1.2084
   58MOL0     H 7798   8.082   8.809   7.148 -1.2515  1.5688 -1.9140
   58MOL0     H 7799   7.994   8.918   7.251 -0.7679  0.6468 -2.3660
   58MOL0     H 7800   8.248   8.982   7.096  1.4471  0.5584  3.5205
   58MOL0     H 7801   8.185   9.083   7.226  2.9340  4.2745 -2.2373
   58MOL0     H 7802   7.997   9.013   6.975 -1.7680  1.0413  0.6247
   58MOL0     H 7803   8.120   9.135   6.975 -1.0409 -2.5673 -1.6317
   58MOL0     H 7804   7.894   9.087   7.158 -0.2219 -1.0528 -1.2175
   58MOL0     H 7805   7.993   9.238   7.157 -1.8047  1.4478 -0.6763
   58MOL0     H 7806   7.802   9.136   6.949 -0.4668  1.6495 -2.3200
   58MOL0     H 7807   7.903   9.273   6.906  3.2851 -0.0805 -0.8644
   58MOL0     H 7808   7.683   9.351   6.994 -1.2819  1.7002  3.1401
   58MOL0     H 7809   7.709   9.278   7.152 -0.5415  1.5569  0.5713
   58MOL0     H 7810   8.513   8.678   7.542  0.4901 -2.9840  0.8043
   58MOL0     H 7811   8.734   8.614   7.497  1.6540  1.3947 -1.5763
   58MOL0     H 7812   9.073   8.705   7.231  4.4277  2.2008 -1.7657
   58MOL0     H 7813   9.303   8.659   7.230  3.3737 -3.4713 -0.2745
   58MOL0     H 7814  10.386   8.866   6.128 -1.6525  1.1470 -5.0086
   58MOL0     H 7815  10.249   8.823   5.914  2.4636 -0.7587 -1.5718
   58MOL0     H 7816   9.868   8.666   5.805  1.9182 -0.0875  0.4697
   58MOL0     H 7817   9.679   8.681   5.671  1.0616  1.1121  2.1389
   58MOL0     H 7818   9.613   8.693   5.225 -0.5774 -0.7509  0.6563
   58MOL0     H 7819   9.782   8.641   5.222  3.5579  1.8544  2.4361
   58MOL0     H 7820   9.851   8.851   5.332  0.6482 -0.3893 -0.2063
   58MOL0     H 7821   9.678   8.888   5.346 -0.3317  1.9949 -1.3261
   58MOL0     H 7822   9.643   8.911   5.109  0.6668 -0.0621  0.1747
   58MOL0     H 7823   9.796   8.839   5.067  0.0054  1.9541 -3.1023
   58MOL0     H 7824   9.765   9.097   5.216 -0.4789  0.0186 -1.4740
   58MOL0     H 7825   9.915   9.027   5.152  1.4894  2.5389 -3.1430
   58MOL0     H 7826   9.781   9.209   4.811 -0.0250  1.7764  0.6119
   58MOL0     H 7827   9.902   8.493   5.343 -0.9657 -1.0115  1.3287
   58MOL0     H 7828  10.211   8.490   5.522  0.6148 -1.2972  0.0864
   58MOL0     H 7829  10.109   8.345   5.506 -0.5454  0.7613  2.2913
   58MOL0     H 7830  10.134   8.461   5.366 -2.4041  3.7950  0.1639
   59MOL0     O 7831   2.384   4.705   2.793  0.7148 -0.1330 -0.1551
   59MOL0     C 7832   2.289   4.633   2.774  1.1450  0.3748  0.1102
   59MOL0     O 7833   2.158   4.682   2.774  0.3505  0.6223  0.9663
   59MOL0     C 7834   2.143   4.812   2.807  0.8458 -0.6413 -0.2090
   59MOL0     C 7835   2.115   4.896   2.695 -0.1030 -1.1687  0.1974
   59MOL0     C 7836   2.075   5.027   2.726 -0.2051 -0.0240 -0.0168
   59MOL0     C 7837   2.058   5.073   2.853  0.0045 -0.4609 -0.6861
   59MOL0     O 7838   2.025   5.207   2.889 -0.6656  0.4541  1.0278
   59MOL0     C 7839   1.937   5.241   3.000 -0.2094  0.1821 -0.2553
   59MOL0     C 7840   1.962   5.382   3.043  0.0977  0.7081 -0.1342
   59MOL0     C 7841   1.860   5.430   3.151  0.1736  0.6873  0.5773
   59MOL0     C 7842   1.828   5.577   3.137  0.0733  0.8829  0.8610
   59MOL0     C 7843   1.712   5.618   3.223  0.2139 -0.0470 -0.3432
   59MOL0     C 7844   1.671   5.754   3.170 -0.5077 -1.1447  0.6728
   59MOL0     C 7845   1.554   5.827   3.238  0.1522  0.3703  0.3122
   59MOL0     C 7846   1.502   5.956   3.162 -0.8746 -0.6600  0.4276
   59MOL0     N 7847   1.405   6.005   3.254  0.3749  0.0161 -0.3767
   59MOL0     C 7848   1.409   6.103   3.356 -0.0154  0.8267  0.4177
   59MOL0     C 7849   1.272   6.121   3.387 -0.0031  0.4713  0.5186
   59MOL0     C 7850   1.221   6.205   3.493  0.4911  0.2266  0.3037
   59MOL0     C 7851   1.307   6.329   3.518  0.5503 -1.0785 -0.4774
   59MOL0     C 7852   1.250   6.410   3.639 -0.3574 -0.0945  1.3520
   59MOL0     C 7853   1.330   6.547   3.665 -0.1425 -0.3084 -0.3676
   59MOL0     O 7854   1.440   6.518   3.744 -0.6120 -0.0937 -0.0469
   59MOL0     C 7855   1.530   6.621   3.782 -0.6045 -0.6046  0.5767
   59MOL0     C 7856   1.521   6.752   3.738  0.2504  0.1854 -0.1404
   59MOL0     C 7857   1.622   6.846   3.764  0.5306 -0.8749  0.6927
   59MOL0     C 7858   1.741   6.800   3.826 -1.0188  0.4603 -0.6048
   59MOL0     C 7859   1.852   6.898   3.841 -0.7658  0.0442  0.4394
   59MOL0     O 7860   1.804   7.022   3.859  0.5035 -0.3159  0.1573
   59MOL0     C 7861   1.886   7.121   3.899 -0.5422 -0.4009 -0.5307
   59MOL0     C 7862   1.932   7.223   3.816 -0.1208  0.9956  0.7318
   59MOL0     C 7863   2.009   7.323   3.864 -0.2618 -0.1460 -0.1589
   59MOL0     C 7864   2.044   7.330   4.001  0.2747 -0.5296 -0.7099
   59MOL0     O 7865   2.104   7.444   4.053 -0.3036 -0.4337  0.4834
   59MOL0     C 7866   2.228   7.418   4.127  1.1753 -1.2366 -0.2700
   59MOL0     C 7867   2.342   7.512   4.095  0.4837 -0.6188  0.0280
   59MOL0     C 7868   2.418   7.488   3.962  0.2485 -0.6661  0.2854
   59MOL0     C 7869   2.493   7.616   3.909 -0.1626  0.3422  0.2884
   59MOL0     C 7870   2.522   7.599   3.754 -0.3852  0.2929  0.2485
   59MOL0     C 7871   2.573   7.728   3.686 -0.7008 -0.4221 -0.0864
   59MOL0     C 7872   2.578   7.715   3.532 -0.4142 -0.6158  0.4066
   59MOL0     C 7873   2.639   7.584   3.475  1.3002 -0.4087  0.8279
   59MOL0    Cl 7874   2.814   7.580   3.490  0.0264  0.1275  0.3551
   59MOL0     C 7875   2.012   7.224   4.079 -0.7124 -0.2284 -0.3870
   59MOL0     C 7876   1.934   7.118   4.036 -0.1154  0.1464 -0.8801
   59MOL0     O 7877   1.976   6.864   3.844 -0.4545  0.1961  0.1995
   59MOL0     C 7878   1.755   6.669   3.866 -0.4009 -0.8232 -0.1495
   59MOL0     C 7879   1.645   6.590   3.857 -0.3468 -0.0220 -0.0751
   59MOL0     N 7880   1.189   6.061   3.294 -0.3602 -0.5267  0.1139
   59MOL0     N 7881   1.276   5.986   3.226  0.2493 -0.4119 -0.0997
   59MOL0     C 7882   2.103   5.000   2.957 -0.4878  0.0163  0.0517
   59MOL0     C 7883   2.162   4.869   2.937 -0.3504 -0.6078 -0.7142
   59MOL0     C 7884   2.320   4.487   2.757  0.4459  0.8612 -0.3879
   59MOL0     C 7885   2.211   4.397   2.751  0.0701  0.9455  0.3938
   59MOL0     C 7886   2.228   4.255   2.742  0.1862  1.2417  0.6872
   59MOL0     C 7887   2.360   4.204   2.764 -0.5560 -1.0967  0.2042
   59MOL0     O 7888   2.395   4.075   2.785  0.2911  0.0807  0.4988
   59MOL0     C 7889   2.296   3.987   2.843  0.2218 -0.4112 -0.7213
   59MOL0     C 7890   2.361   3.854   2.875 -0.0386 -0.0151 -0.2657
   59MOL0     C 7891   2.418   3.779   2.756  0.1870  0.3604 -0.6118
   59MOL0     C 7892   2.441   3.634   2.772  0.2563  0.8401 -0.6850
   59MOL0     C 7893   2.533   3.601   2.886 -0.1392 -0.5114 -0.0195
   59MOL0     C 7894   2.603   3.567   2.978  0.5414 -0.3028  0.3141
   59MOL0     C 7895   2.466   4.295   2.746 -0.2026 -0.8806 -0.1974
   59MOL0     C 7896   2.447   4.430   2.730  1.0003  0.2407  0.0503
   59MOL0     C 7897   2.562   4.526   2.696  1.1421 -0.0713  0.0583
   59MOL0     H 7898   2.117   4.848   2.598  0.0226 -1.2140  0.2212
   59MOL0     H 7899   2.046   5.102   2.653 -0.4348  0.6638  0.7613
   59MOL0     H 7900   1.832   5.227   2.971 -1.5406  0.9882  3.5588
   59MOL0     H 7901   1.948   5.176   3.088 -0.2680 -0.4489 -0.7092
   59MOL0     H 7902   1.955   5.451   2.958 -2.1845  0.1937 -0.4448
   59MOL0     H 7903   2.060   5.392   3.089  0.6085 -1.9137 -0.5090
   59MOL0     H 7904   1.899   5.410   3.252  1.3891 -3.0384 -0.4461
   59MOL0     H 7905   1.766   5.374   3.145  0.2819  0.5587  0.0692
   59MOL0     H 7906   1.921   5.631   3.156  2.7604 -0.7794 -5.1515
   59MOL0     H 7907   1.811   5.601   3.031  2.3823 -1.4099 -0.1084
   59MOL0     H 7908   1.622   5.557   3.209 -3.0533  3.8680  1.5322
   59MOL0     H 7909   1.743   5.607   3.327 -1.5072 -0.0576  0.1968
   59MOL0     H 7910   1.760   5.817   3.164 -0.0596 -1.7245  1.0895
   59MOL0     H 7911   1.631   5.741   3.069 -2.6215  3.0105  0.7736
   59MOL0     H 7912   1.589   5.864   3.334  2.6905 -1.9959  0.4330
   59MOL0     H 7913   1.474   5.754   3.251  0.4477 -0.2157 -0.9399
   59MOL0     H 7914   1.587   6.023   3.144 -1.3651 -0.3282 -0.7072
   59MOL0     H 7915   1.455   5.937   3.065 -0.5867  1.9591 -0.3006
   59MOL0     H 7916   1.499   6.131   3.409 -0.2362  0.4135  1.0171
   59MOL0     H 7917   1.118   6.222   3.462  0.7672 -2.5058 -2.6753
   59MOL0     H 7918   1.231   6.147   3.585 -1.4749  0.1084  0.4753
   59MOL0     H 7919   1.404   6.298   3.556  0.4708  3.0405  4.0516
   59MOL0     H 7920   1.308   6.391   3.427  2.0482 -1.0081 -0.4240
   59MOL0     H 7921   1.246   6.360   3.736  0.0151  0.4588  1.6543
   59MOL0     H 7922   1.148   6.438   3.610  0.9561  2.8477 -1.0026
   59MOL0     H 7923   1.267   6.609   3.728  1.3097  1.6339 -0.7371
   59MOL0     H 7924   1.347   6.595   3.568 -0.6286 -1.7343 -1.1934
   59MOL0     H 7925   1.427   6.792   3.701  0.6061 -0.2689 -1.5681
   59MOL0     H 7926   1.607   6.951   3.738 -2.4028 -0.9089  1.8504
   59MOL0     H 7927   1.909   7.221   3.710  1.4964  1.0187  0.3602
   59MOL0     H 7928   2.012   7.418   3.812 -0.8965  0.3374  0.6542
   59MOL0     H 7929   2.201   7.436   4.231  0.5692  2.0270 -0.8671
   59MOL0     H 7930   2.262   7.315   4.142 -1.5149 -2.1129  0.3579
   59MOL0     H 7931   2.296   7.611   4.087  0.4610 -0.4707  1.5507
   59MOL0     H 7932   2.417   7.524   4.174  0.8819 -2.6304  0.0189
   59MOL0     H 7933   2.481   7.401   3.980  1.0068  0.3539  2.9730
   59MOL0     H 7934   2.357   7.451   3.878  3.0343 -0.5971 -1.9430
   59MOL0     H 7935   2.586   7.640   3.961  0.9266 -0.3475 -1.2490
   59MOL0     H 7936   2.426   7.701   3.921  1.0051  1.0989  1.5875
   59MOL0     H 7937   2.426   7.584   3.705 -0.4642 -2.1729  1.0020
   59MOL0     H 7938   2.591   7.515   3.742  0.0001  0.7271 -0.5806
   59MOL0     H 7939   2.514   7.813   3.720 -1.1408 -1.0260  0.7002
   59MOL0     H 7940   2.677   7.727   3.721 -0.5919 -1.4650 -0.3866
   59MOL0     H 7941   2.635   7.800   3.493 -6.0072  2.0954 -3.1666
   59MOL0     H 7942   2.477   7.733   3.494 -0.9745 -2.3163  1.0034
   59MOL0     H 7943   2.599   7.496   3.527  2.9178 -1.3135  0.6096
   59MOL0     H 7944   2.605   7.563   3.373  0.7569 -0.7727  1.0828
   59MOL0     H 7945   2.032   7.240   4.184  3.6976  2.3636 -1.3549
   59MOL0     H 7946   1.888   7.037   4.091  2.5465 -1.0980 -0.3236
   59MOL0     H 7947   1.839   6.636   3.926  2.1990  3.2046 -1.1705
   59MOL0     H 7948   1.667   6.488   3.890  3.4163  0.2574 -1.2828
   59MOL0     H 7949   2.115   5.038   3.058  3.0594 -0.2777 -0.1103
   59MOL0     H 7950   2.212   4.822   3.021  1.4341  2.7632  0.2875
   59MOL0     H 7951   2.107   4.429   2.753 -0.3958 -0.5092  2.1194
   59MOL0     H 7952   2.137   4.200   2.762  0.9039 -0.2482 -0.0236
   59MOL0     H 7953   2.203   3.968   2.788  0.3358 -3.9738  0.0631
   59MOL0     H 7954   2.267   4.038   2.935 -1.9715 -1.4210 -0.7808
   59MOL0     H 7955   2.284   3.793   2.922 -0.1566 -0.4831 -1.0486
   59MOL0     H 7956   2.447   3.877   2.938  0.6531 -1.0909 -0.7985
   59MOL0     H 7957   2.510   3.828   2.720  0.1937  0.6102 -0.2528
   59MOL0     H 7958   2.340   3.782   2.679  0.6999 -1.0084 -1.2443
   59MOL0     H 7959   2.340   3.592   2.782  0.2055  1.0964 -0.0624
   59MOL0     H 7960   2.487   3.589   2.683  3.5034  2.3776  0.0871
   59MOL0     H 7961   2.650   3.552   3.073  3.4161  3.3454 -0.2499
   59MOL0     H 7962   2.562   4.245   2.741  0.8888  0.9381  1.2992
   59MOL0     H 7963   2.525   4.585   2.611  2.6296 -1.8478 -1.9405
   59MOL0     H 7964   2.598   4.589   2.778 -1.7962 -1.8568  2.9801
   59MOL0     H 7965   2.653   4.468   2.680  1.4862 -0.0491  1.7262
   60MOL0     O 7966   1.097   8.160   0.091  0.3468  0.2553 -0.2945
   60MOL0     C 7967   1.065   8.275   0.091 -0.2684  0.5803 -0.3192
   60MOL0     O 7968   1.151   8.388   0.078  0.3364  0.4641  0.5024
   60MOL0     C 7969   1.264   8.391   0.007 -0.2013 -0.1345 -0.0617
   60MOL0     C 7970   1.293   8.506  -0.072  0.4560 -0.6046 -0.3251
   60MOL0     C 7971   1.410   8.513  -0.150 -0.1361 -0.1657  0.3248
   60MOL0     C 7972   1.502   8.408  -0.152  0.2135  0.0146 -0.1343
   60MOL0     O 7973   1.618   8.414  -0.229 -0.5445  0.3268  0.1682
   60MOL0     C 7974   1.667   8.298  -0.293 -0.3373 -0.2573  0.6037
   60MOL0     C 7975   1.793   8.244  -0.222 -0.4286  0.9572 -0.1481
   60MOL0     C 7976   1.885   8.136  -0.290  0.7518 -0.1152  0.2146
   60MOL0     C 7977   1.912   8.151  -0.438  1.2423 -0.4059 -0.3173
   60MOL0     C 7978   1.998   8.043  -0.501  0.5538  0.2371 -1.0115
   60MOL0     C 7979   2.089   8.098  -0.601  0.0434 -0.2837  1.0600
   60MOL0     C 7980   2.033   8.104  -0.745 -0.5794 -0.2393  1.4835
   60MOL0     C 7981   1.917   8.196  -0.764 -1.0982  0.1033  0.1314
   60MOL0     N 7982   1.843   8.155  -0.892 -0.9748 -1.1878 -0.1093
   60MOL0     C 7983   1.899   8.132  -1.018 -0.9789 -0.5982 -0.4335
   60MOL0     C 7984   1.795   8.076  -1.082 -0.6007  0.4250  0.0693
   60MOL0     C 7985   1.811   8.018  -1.226  0.0885  0.3379 -0.1549
   60MOL0     C 7986   1.807   8.136  -1.327 -0.1657  0.1138 -0.0616
   60MOL0     C 7987   1.844   8.092  -1.469 -0.9155  1.4167 -0.1636
   60MOL0     C 7988   1.844   8.211  -1.566 -0.3232  0.4201 -0.5542
   60MOL0     O 7989   1.769   8.173  -1.680  1.0999  0.0985 -0.0607
   60MOL0     C 7990   1.633   8.174  -1.671  0.5331 -0.3517 -0.6540
   60MOL0     C 7991   1.568   8.297  -1.650  0.8658 -0.6792  0.1107
   60MOL0     C 7992   1.432   8.308  -1.630  0.0154 -0.9388  0.9786
   60MOL0     C 7993   1.358   8.189  -1.663 -0.2256 -0.2823 -0.7447
   60MOL0     C 7994   1.212   8.189  -1.654 -0.1819  0.0949 -0.4464
   60MOL0     O 7995   1.146   8.076  -1.700  0.2693  0.6136  0.2472
   60MOL0     C 7996   1.020   8.052  -1.653  0.1793  1.0719 -0.2622
   60MOL0     C 7997   0.931   7.974  -1.729 -0.0171 -0.4447 -0.3028
   60MOL0     C 7998   0.820   7.926  -1.671 -0.0347  0.2707 -0.1954
   60MOL0     C 7999   0.777   7.968  -1.544 -1.4402  0.4833  0.0657
   60MOL0     O 8000   0.659   7.904  -1.513 -0.6338  0.3108 -0.2029
   60MOL0     C 8001   0.585   7.968  -1.405 -0.2722 -0.6627  0.0077
   60MOL0     C 8002   0.468   7.885  -1.372  0.3609  0.4881 -0.3078
   60MOL0     C 8003   0.380   7.874  -1.499  0.1085  0.1581 -0.0468
   60MOL0     C 8004   0.262   7.787  -1.462  0.5012  0.1017 -1.1302
   60MOL0     C 8005   0.154   7.786  -1.583  0.1891 -0.1593 -0.3217
   60MOL0     C 8006   0.094   7.921  -1.630 -0.4561 -0.3325 -0.8548
   60MOL0     C 8007   0.012   7.987  -1.521 -0.1310  0.5170 -0.0969
   60MOL0     C 8008   0.093   8.099  -1.445 -0.7492 -0.3512  0.0641
   60MOL0    Cl 8009   0.129   8.246  -1.557  0.4678  0.0060  0.4779
   60MOL0     C 8010   0.861   8.059  -1.469 -0.1098  0.2625  0.3360
   60MOL0     C 8011   0.987   8.086  -1.521  0.5393 -0.8729  0.3005
   60MOL0     O 8012   1.160   8.296  -1.612 -0.3353  0.2584  0.9393
   60MOL0     C 8013   1.427   8.068  -1.687  0.3174 -0.2035  0.3778
   60MOL0     C 8014   1.556   8.060  -1.693 -0.6463 -0.4735 -0.0930
   60MOL0     N 8015   1.681   8.077  -1.006 -0.3601 -0.5547  0.6371
   60MOL0     N 8016   1.713   8.124  -0.887  0.4597  0.9248 -1.0388
   60MOL0     C 8017   1.465   8.286  -0.088  0.9934  0.9014  1.2193
   60MOL0     C 8018   1.352   8.283  -0.003 -0.3043  0.6826 -0.6138
   60MOL0     C 8019   0.925   8.305   0.127  0.2010  0.0916  0.1760
   60MOL0     C 8020   0.905   8.426   0.195  0.1813  0.0403 -0.4867
   60MOL0     C 8021   0.780   8.464   0.244 -0.8750  0.2845 -0.4346
   60MOL0     C 8022   0.668   8.383   0.225  0.3532  0.0061  0.4605
   60MOL0     O 8023   0.545   8.416   0.277 -0.0880  0.0302 -0.3304
   60MOL0     C 8024   0.545   8.506   0.386 -0.1856  0.3848  0.6653
   60MOL0     C 8025   0.394   8.549   0.404  0.7260  0.4010 -0.7242
   60MOL0     C 8026   0.336   8.434   0.481 -0.1068  0.4503 -0.0491
   60MOL0     C 8027   0.203   8.472   0.547  0.6542  0.0483 -0.5267
   60MOL0     C 8028   0.095   8.495   0.443 -0.2746  0.2812 -1.1261
   60MOL0     C 8029   0.006   8.523   0.360  0.1258 -0.3497 -0.3009
   60MOL0     C 8030   0.688   8.259   0.159 -0.7148 -0.2245 -0.3347
   60MOL0     C 8031   0.817   8.220   0.110 -0.9421 -0.5528 -0.3943
   60MOL0     C 8032   0.818   8.089   0.053  0.1642 -0.7284  0.1256
   60MOL0     H 8033   1.230   8.594  -0.083  2.6419  1.1502  0.3686
   60MOL0     H 8034   1.424   8.588  -0.227  2.4432 -0.6255  0.2637
   60MOL0     H 8035   1.593   8.218  -0.307  0.6843 -1.0470 -0.4870
   60MOL0     H 8036   1.707   8.344  -0.384 -0.7266  4.3908  2.5167
   60MOL0     H 8037   1.784   8.201  -0.123 -0.6972  1.8773  0.2394
   60MOL0     H 8038   1.854   8.334  -0.210  2.1412 -0.3034 -2.4977
   60MOL0     H 8039   1.840   8.038  -0.273  2.1139 -0.7637  0.2441
   60MOL0     H 8040   1.981   8.131  -0.237  1.8550  1.9056 -1.4110
   60MOL0     H 8041   1.810   8.131  -0.472 -0.6421  1.1467  3.6929
   60MOL0     H 8042   1.943   8.253  -0.464 -2.8499  0.8905 -0.7837
   60MOL0     H 8043   2.044   7.994  -0.415  1.3553  1.4624 -0.7341
   60MOL0     H 8044   1.942   7.956  -0.538  1.2535 -1.5002  1.6674
   60MOL0     H 8045   2.121   8.195  -0.561  0.0413  0.7546 -1.3206
   60MOL0     H 8046   2.182   8.041  -0.612  1.1691  1.6518  0.0729
   60MOL0     H 8047   2.001   8.004  -0.776  0.7906  0.2302 -1.8038
   60MOL0     H 8048   2.116   8.133  -0.810 -1.5671  2.6288  1.3416
   60MOL0     H 8049   1.838   8.195  -0.689 -0.1691 -0.6417  1.1244
   60MOL0     H 8050   1.955   8.298  -0.772 -1.2823  0.0635 -1.6579
   60MOL0     H 8051   1.999   8.155  -1.056  0.0293 -2.7037  0.7781
   60MOL0     H 8052   1.904   7.960  -1.230 -2.4214 -4.0452 -1.0242
   60MOL0     H 8053   1.728   7.950  -1.245 -0.6215  1.7135 -2.3845
   60MOL0     H 8054   1.704   8.173  -1.328 -0.4126 -0.4472  1.6095
   60MOL0     H 8055   1.866   8.223  -1.296 -1.4121  0.8840  0.2093
   60MOL0     H 8056   1.796   7.999  -1.502 -0.0615  0.7403  0.4319
   60MOL0     H 8057   1.950   8.065  -1.460 -1.7196 -1.6957  1.6611
   60MOL0     H 8058   1.944   8.248  -1.591  0.9694 -1.6034  1.3121
   60MOL0     H 8059   1.807   8.300  -1.515  1.8110 -1.6462  5.4658
   60MOL0     H 8060   1.637   8.380  -1.640 -0.3060  0.5516 -1.4359
   60MOL0     H 8061   1.386   8.398  -1.590 -0.5652  0.5942 -2.7025
   60MOL0     H 8062   0.970   7.940  -1.825  2.1175 -2.5434  1.1921
   60MOL0     H 8063   0.752   7.868  -1.732  0.0246  0.7659 -0.7409
   60MOL0     H 8064   0.647   7.974  -1.316  3.2616  2.1960 -2.3627
   60MOL0     H 8065   0.557   8.072  -1.424 -0.8027 -0.8642 -0.3557
   60MOL0     H 8066   0.513   7.791  -1.341 -2.1264  0.0633  2.4048
   60MOL0     H 8067   0.411   7.916  -1.284  0.2999 -1.5911  0.4515
   60MOL0     H 8068   0.347   7.977  -1.519  1.5387  0.7435  0.4080
   60MOL0     H 8069   0.426   7.822  -1.584  0.1271 -2.5476  1.5108
   60MOL0     H 8070   0.219   7.795  -1.362  2.4726 -2.9636  0.0872
   60MOL0     H 8071   0.309   7.691  -1.439  3.0480  1.3736 -0.5553
   60MOL0     H 8072   0.076   7.717  -1.549 -0.1654  0.8360  0.9837
   60MOL0     H 8073   0.205   7.740  -1.668  2.1626  0.2670  0.5586
   60MOL0     H 8074   0.167   7.993  -1.668  0.8973 -0.8440  0.7093
   60MOL0     H 8075   0.037   7.903  -1.722 -0.1467  0.4083 -1.2011
   60MOL0     H 8076  -0.015   7.913  -1.445  0.0242  0.1187 -0.4224
   60MOL0     H 8077  -0.086   8.027  -1.548 -1.6552 -1.8472  1.5822
   60MOL0     H 8078   0.050   8.117  -1.346  3.2122 -0.7783  2.0490
   60MOL0     H 8079   0.186   8.050  -1.415  0.3768  0.5828 -1.6968
   60MOL0     H 8080   0.824   8.096  -1.374 -3.2961  1.0584 -1.0831
   60MOL0     H 8081   1.050   8.146  -1.457 -1.1004  1.6783 -0.3404
   60MOL0     H 8082   1.369   7.979  -1.712 -0.4320  0.8407 -1.8860
   60MOL0     H 8083   1.602   7.971  -1.736  2.3788  1.3257 -0.8685
   60MOL0     H 8084   1.541   8.209  -0.093  0.0799  0.0504 -0.1955
   60MOL0     H 8085   1.329   8.194   0.055 -0.2755 -0.4918 -2.3468
   60MOL0     H 8086   0.988   8.492   0.219  1.8743 -2.2320  0.2682
   60MOL0     H 8087   0.781   8.560   0.296  4.1481 -0.1590  0.7651
   60MOL0     H 8088   0.595   8.601   0.366  3.0151 -0.6841  2.8401
   60MOL0     H 8089   0.597   8.448   0.463 -0.0312 -2.7505 -1.6326
   60MOL0     H 8090   0.346   8.559   0.307 -2.1154 -1.1001  0.4190
   60MOL0     H 8091   0.398   8.646   0.454  5.3341 -0.4505  1.0938
   60MOL0     H 8092   0.412   8.418   0.558  1.4938  3.4616 -0.8450
   60MOL0     H 8093   0.327   8.339   0.428  0.8528  0.6289 -0.5618
   60MOL0     H 8094   0.172   8.399   0.623  5.4213 -0.2350  1.4877
   60MOL0     H 8095   0.222   8.561   0.606  1.2097 -0.2312 -0.2770
   60MOL0     H 8096  -0.067   8.556   0.289 -2.7151 -3.0602  1.1454
   60MOL0     H 8097   0.597   8.200   0.155 -3.3691  3.4915  0.3167
   60MOL0     H 8098   0.852   8.017   0.128 -0.2024  0.3216  1.3323
   60MOL0     H 8099   0.724   8.050   0.011  1.1791  0.2852 -3.4247
   60MOL0     H 8100   0.892   8.083  -0.028  0.5556  3.1610  0.0453
   61MOL0     O 8101   5.585   5.722   8.972  0.6765  0.0309  0.6929
   61MOL0     C 8102   5.532   5.764   9.065  0.2992  1.4866  0.3595
   61MOL0     O 8103   5.425   5.856   9.066  0.7076  0.2109  0.3898
   61MOL0     C 8104   5.340   5.897   8.966  0.0966  0.0785 -0.4185
   61MOL0     C 8105   5.326   5.821   8.845 -0.6707  0.2815  0.3362
   61MOL0     C 8106   5.245   5.874   8.745 -0.9788 -0.9283 -0.3268
   61MOL0     C 8107   5.179   5.993   8.759 -0.1548  0.2173 -0.3588
   61MOL0     O 8108   5.102   6.035   8.653  0.4358 -0.4200  0.1644
   61MOL0     C 8109   5.112   6.171   8.621 -0.5167 -0.5299  0.3078
   61MOL0     C 8110   5.045   6.191   8.487  0.7092 -0.5609  1.0843
   61MOL0     C 8111   4.898   6.211   8.522 -1.2076 -0.0124  0.2638
   61MOL0     C 8112   4.819   6.238   8.389 -0.2041  0.0038  0.7333
   61MOL0     C 8113   4.667   6.203   8.396 -0.3968  0.2382  0.0761
   61MOL0     C 8114   4.596   6.296   8.504  0.3649 -0.2357  0.0686
   61MOL0     C 8115   4.445   6.302   8.457 -0.3325 -0.2859  0.1837
   61MOL0     C 8116   4.363   6.419   8.526  0.4798 -0.3934  0.3557
   61MOL0     N 8117   4.421   6.552   8.538 -0.7797 -0.3629  0.5822
   61MOL0     C 8118   4.463   6.599   8.662  0.1796 -0.3930  0.1530
   61MOL0     C 8119   4.474   6.736   8.635  0.3257 -0.3325 -0.0893
   61MOL0     C 8120   4.515   6.832   8.729 -0.1636  1.0741 -0.0243
   61MOL0     C 8121   4.428   6.822   8.856  0.4305  0.4960 -0.7498
   61MOL0     C 8122   4.452   6.947   8.950  0.0041  0.0209  1.2403
   61MOL0     C 8123   4.576   6.948   9.038 -0.2662 -0.9470  0.5390
   61MOL0     O 8124   4.587   6.821   9.115  0.6752 -0.0115 -0.5147
   61MOL0     C 8125   4.568   6.843   9.249  0.1269  0.5401 -0.4685
   61MOL0     C 8126   4.469   6.771   9.312 -0.0039  0.4943 -0.0983
   61MOL0     C 8127   4.440   6.787   9.450  0.4595 -1.2887  0.3879
   61MOL0     C 8128   4.512   6.882   9.527 -0.8153 -0.8106  0.6369
   61MOL0     C 8129   4.492   6.889   9.673  0.4369  0.8220 -0.0480
   61MOL0     O 8130   4.546   6.996   9.741  0.1878 -0.2355  0.0554
   61MOL0     C 8131   4.506   7.027   9.868  0.2652 -0.0621  0.5515
   61MOL0     C 8132   4.491   7.164   9.895 -0.6568 -0.4068  0.4932
   61MOL0     C 8133   4.462   7.213  10.021 -0.2831  0.1969  0.2464
   61MOL0     C 8134   4.450   7.129  10.132  0.4424  0.9889  0.6630
   61MOL0     O 8135   4.442   7.176  10.255  0.3773 -0.1855  0.2095
   61MOL0     C 8136   4.318   7.137  10.310  0.9793 -0.1857  0.3730
   61MOL0     C 8137   4.340   7.047  10.426  0.2596  0.6483 -0.5623
   61MOL0     C 8138   4.405   7.100  10.550  0.0332 -0.9734  0.0393
   61MOL0     C 8139   4.341   7.063  10.683  0.0950 -0.1686  0.1122
   61MOL0     C 8140   4.425   7.116  10.803 -1.2806  1.0282  0.1913
   61MOL0     C 8141   4.376   7.054  10.934  0.3537 -0.1740 -0.9381
   61MOL0     C 8142   4.452   7.126  11.051  0.4422 -0.0067 -0.1740
   61MOL0     C 8143   4.402   7.103  11.193 -0.9441  0.1847 -0.5588
   61MOL0    Cl 8144   4.374   6.927  11.232  0.0332  0.3952  0.2118
   61MOL0     C 8145   4.457   6.985  10.109  0.1841  0.2550  0.1218
   61MOL0     C 8146   4.479   6.940   9.976 -0.1452  0.9595  1.0447
   61MOL0     O 8147   4.422   6.803   9.724  0.0220  0.3580 -0.8010
   61MOL0     C 8148   4.604   6.968   9.459  0.8016 -0.0932  0.1981
   61MOL0     C 8149   4.645   6.939   9.325  0.4277  0.7142 -0.3331
   61MOL0     N 8150   4.420   6.762   8.506  0.0273  0.4071  1.4517
   61MOL0     N 8151   4.387   6.648   8.449  0.0140 -0.0453  0.3706
   61MOL0     C 8152   5.190   6.072   8.876  0.0585  0.5429 -0.2727
   61MOL0     C 8153   5.266   6.018   8.980  0.8769  1.4273  0.2611
   61MOL0     C 8154   5.572   5.714   9.204  0.2614 -0.3182  0.0432
   61MOL0     C 8155   5.492   5.738   9.317 -0.5874 -0.6253 -0.3924
   61MOL0     C 8156   5.528   5.702   9.446  0.3728 -0.9543 -0.5024
   61MOL0     C 8157   5.647   5.631   9.457  0.4026 -0.2224  0.5026
   61MOL0     O 8158   5.705   5.586   9.571  0.3265 -0.2152 -0.6894
   61MOL0     C 8159   5.639   5.637   9.693 -1.2453  0.2784  0.2013
   61MOL0     C 8160   5.531   5.535   9.734  0.2212  0.4041 -0.5649
   61MOL0     C 8161   5.593   5.409   9.799 -0.4617  0.1482  0.7182
   61MOL0     C 8162   5.651   5.437   9.942  1.1826  0.1220 -0.5158
   61MOL0     C 8163   5.685   5.314  10.015 -0.5866 -0.6368  0.0754
   61MOL0     C 8164   5.723   5.231  10.087  0.0900 -0.5343  0.5325
   61MOL0     C 8165   5.721   5.601   9.350 -0.0247 -0.9348 -0.6964
   61MOL0     C 8166   5.692   5.649   9.227 -0.8080  0.1299 -0.0515
   61MOL0     C 8167   5.801   5.620   9.125  0.2254  0.2395 -0.5370
   61MOL0     H 8168   5.377   5.726   8.833  0.6633  0.9651  0.4522
   61MOL0     H 8169   5.227   5.816   8.655 -0.8351 -0.6748 -0.5196
   61MOL0     H 8170   5.063   6.242   8.688 -0.8616  0.9048 -1.4074
   61MOL0     H 8171   5.220   6.191   8.618 -0.7914  0.9457 -0.8347
   61MOL0     H 8172   5.062   6.109   8.416  0.0493  1.6986 -1.8840
   61MOL0     H 8173   5.091   6.278   8.440  0.8018 -1.7637 -1.1977
   61MOL0     H 8174   4.882   6.298   8.586 -0.0275 -0.8063  1.7184
   61MOL0     H 8175   4.853   6.123   8.571 -0.8929 -0.6282 -0.5268
   61MOL0     H 8176   4.822   6.346   8.372 -2.1618  0.0027  0.0760
   61MOL0     H 8177   4.867   6.186   8.306 -0.3076  0.4275  0.4083
   61MOL0     H 8178   4.619   6.206   8.298 -0.3242  2.7300  0.0573
   61MOL0     H 8179   4.663   6.098   8.428  2.9225  0.8574  3.2676
   61MOL0     H 8180   4.616   6.263   8.606  3.2043 -2.3039 -1.0267
   61MOL0     H 8181   4.634   6.397   8.486  1.8424 -1.2614 -3.7449
   61MOL0     H 8182   4.408   6.205   8.491  0.5071 -0.8132 -0.3644
   61MOL0     H 8183   4.445   6.304   8.348 -1.3887 -1.5299  0.1332
   61MOL0     H 8184   4.260   6.416   8.489  0.6333 -1.6645 -0.0205
   61MOL0     H 8185   4.353   6.393   8.632  1.4135 -0.7543  0.3652
   61MOL0     H 8186   4.467   6.548   8.758 -1.7336 -0.8686  0.0156
   61MOL0     H 8187   4.623   6.822   8.741 -0.3329 -1.4507  0.1169
   61MOL0     H 8188   4.479   6.926   8.687 -1.6798  0.0937 -1.0544
   61MOL0     H 8189   4.324   6.816   8.821  0.9721  0.4247 -2.4244
   61MOL0     H 8190   4.438   6.724   8.904  2.6420 -1.1385 -4.1817
   61MOL0     H 8191   4.380   6.950   9.032 -1.4978 -1.4100  0.0206
   61MOL0     H 8192   4.442   7.046   8.904  0.3008  0.1100  1.3583
   61MOL0     H 8193   4.571   7.033   9.107  1.9438  0.2111 -0.6133
   61MOL0     H 8194   4.662   6.966   8.972 -1.4192 -1.6441 -1.2411
   61MOL0     H 8195   4.435   6.687   9.253  0.8806 -0.4203  0.6430
   61MOL0     H 8196   4.366   6.722   9.495  1.3850 -1.7199  1.3371
   61MOL0     H 8197   4.509   7.234   9.814  1.0221  0.9752  1.9825
   61MOL0     H 8198   4.455   7.320  10.040  0.5683  0.3320 -0.1597
   61MOL0     H 8199   4.248   7.219  10.332 -2.8256 -2.6794 -1.3184
   61MOL0     H 8200   4.255   7.090  10.233 -0.2951 -0.4529  1.5413
   61MOL0     H 8201   4.245   7.002  10.457  0.6407  0.1930 -0.0519
   61MOL0     H 8202   4.399   6.960  10.395 -1.3308 -0.5644 -0.3704
   61MOL0     H 8203   4.505   7.060  10.565  0.4290 -0.0441 -0.0585
   61MOL0     H 8204   4.417   7.208  10.541 -2.1055 -0.8777 -4.4974
   61MOL0     H 8205   4.332   6.954  10.695  2.7963 -0.2472  2.2699
   61MOL0     H 8206   4.240   7.104  10.691  0.3266  0.0387  2.7574
   61MOL0     H 8207   4.396   7.221  10.805 -0.0989  1.3548  2.0839
   61MOL0     H 8208   4.532   7.099  10.789 -1.1530 -1.3370  2.9784
   61MOL0     H 8209   4.269   7.076  10.935  0.2902 -0.3748 -2.0940
   61MOL0     H 8210   4.409   6.950  10.930  2.4027  0.3472  0.6979
   61MOL0     H 8211   4.462   7.232  11.024 -4.7893  0.6635 -0.4415
   61MOL0     H 8212   4.551   7.079  11.052 -0.0180 -1.1544 -2.1538
   61MOL0     H 8213   4.473   7.148  11.262  0.0157  0.7644 -1.8788
   61MOL0     H 8214   4.312   7.161  11.216 -1.4012 -1.1692  1.2759
   61MOL0     H 8215   4.445   6.909  10.186 -2.1112 -1.5203 -1.7919
   61MOL0     H 8216   4.491   6.834   9.957 -2.0288  1.2878 -2.8605
   61MOL0     H 8217   4.650   7.042   9.524  0.0384  1.1471 -0.6386
   61MOL0     H 8218   4.733   6.992   9.292  3.3295 -4.0080 -1.2343
   61MOL0     H 8219   5.143   6.168   8.896 -1.5966 -0.7321  2.4786
   61MOL0     H 8220   5.275   6.072   9.074  3.0185  0.4282  0.6951
   61MOL0     H 8221   5.396   5.784   9.298 -1.6855 -1.5377  2.4524
   61MOL0     H 8222   5.465   5.712   9.533  0.0244 -0.1121 -0.8370
   61MOL0     H 8223   5.585   5.733   9.691 -1.9032 -0.0380  1.5138
   61MOL0     H 8224   5.723   5.639   9.764 -0.8873  2.0963 -0.2160
   61MOL0     H 8225   5.457   5.514   9.657  2.6020  0.8706 -3.1710
   61MOL0     H 8226   5.474   5.586   9.813 -1.2599 -1.2798 -0.4894
   61MOL0     H 8227   5.681   5.385   9.738 -1.3953 -3.1370  0.4663
   61MOL0     H 8228   5.529   5.321   9.789 -0.4290  0.3177 -1.6637
   61MOL0     H 8229   5.745   5.492   9.937  1.4134  0.0254  1.8880
   61MOL0     H 8230   5.587   5.490  10.013  3.9258 -0.0842  2.3110
   61MOL0     H 8231   5.745   5.152  10.155  1.1827  0.0024  0.8261
   61MOL0     H 8232   5.816   5.553   9.370 -1.7964 -3.6887  2.0425
   61MOL0     H 8233   5.824   5.702   9.055 -0.0921  0.2055 -0.6860
   61MOL0     H 8234   5.890   5.585   9.178 -0.7410  1.0293  1.7340
   61MOL0     H 8235   5.767   5.530   9.073  4.1479 -1.8124  0.1192
   62MOL0     O 8236   5.314  10.430   7.197  0.7426 -0.0177 -0.7631
   62MOL0     C 8237   5.387  10.335   7.233  1.0216 -0.1894 -0.5340
   62MOL0     O 8238   5.389  10.220   7.164  0.3797 -0.1489  0.0323
   62MOL0     C 8239   5.329  10.218   7.043 -0.4246  0.0673  0.0844
   62MOL0     C 8240   5.196  10.178   7.038 -0.5332  0.6580  0.3463
   62MOL0     C 8241   5.129  10.158   6.916 -1.0361 -0.1242  0.5659
   62MOL0     C 8242   5.209  10.164   6.799  0.0697 -0.5128  0.2861
   62MOL0     O 8243   5.158  10.137   6.676 -0.0517 -0.5242 -0.0054
   62MOL0     C 8244   5.246  10.072   6.585 -0.8284 -0.3808  0.1289
   62MOL0     C 8245   5.156  10.000   6.488 -0.2675 -0.5348  0.3306
   62MOL0     C 8246   5.096   9.874   6.554 -0.1767 -1.0533 -0.3612
   62MOL0     C 8247   5.176   9.744   6.514 -0.3114  0.4562  1.4181
   62MOL0     C 8248   5.125   9.622   6.587 -0.4311  0.5194  0.0763
   62MOL0     C 8249   5.224   9.508   6.575 -0.2317  0.3249  0.0192
   62MOL0     C 8250   5.266   9.467   6.426 -0.3328 -0.5357 -0.3359
   62MOL0     C 8251   5.134   9.436   6.340  0.1153  0.8637  0.2329
   62MOL0     N 8252   5.173   9.378   6.209 -0.8576 -0.7474  0.2406
   62MOL0     C 8253   5.277   9.431   6.135  0.9992  0.3284 -0.3395
   62MOL0     C 8254   5.286   9.334   6.037 -0.1024 -0.1451  0.5700
   62MOL0     C 8255   5.410   9.307   5.968 -0.4522 -0.0557 -0.0431
   62MOL0     C 8256   5.402   9.339   5.821  0.5406  0.9611  0.4555
   62MOL0     C 8257   5.543   9.292   5.765  0.6718  0.0669 -0.3468
   62MOL0     C 8258   5.572   9.338   5.616 -0.8424  0.3159  0.6536
   62MOL0     O 8259   5.587   9.481   5.600 -0.4622 -0.3710  0.1742
   62MOL0     C 8260   5.615   9.532   5.473 -0.1780  0.2390 -0.0541
   62MOL0     C 8261   5.581   9.466   5.353  0.3932 -0.1440 -0.8573
   62MOL0     C 8262   5.602   9.530   5.235 -0.5295 -0.2942 -0.1497
   62MOL0     C 8263   5.684   9.644   5.222  0.7881  0.6173 -0.1734
   62MOL0     C 8264   5.726   9.698   5.091 -0.2965  0.2376  0.4298
   62MOL0     O 8265   5.723   9.628   4.975  1.3115  0.8168 -0.7969
   62MOL0     C 8266   5.757   9.680   4.847 -0.8836 -0.4218  0.3263
   62MOL0     C 8267   5.841   9.791   4.827 -0.5836  0.5876  0.1190
   62MOL0     C 8268   5.877   9.835   4.701  0.2853 -1.0654  0.9739
   62MOL0     C 8269   5.816   9.779   4.595  0.4672  0.4001  0.2160
   62MOL0     O 8270   5.871   9.813   4.471  0.5935  0.0190 -0.2943
   62MOL0     C 8271   5.783   9.868   4.371  0.4408 -0.4847  0.3892
   62MOL0     C 8272   5.861   9.854   4.240  0.8648 -1.3759 -1.6138
   62MOL0     C 8273   5.863   9.711   4.209 -0.3637 -0.0996 -0.1776
   62MOL0     C 8274   5.885   9.688   4.050  0.0348  0.1870  0.0540
   62MOL0     C 8275   5.893   9.542   4.009  0.2143  0.1527 -0.4933
   62MOL0     C 8276   5.930   9.517   3.859  0.0721 -0.8783  0.5059
   62MOL0     C 8277   5.828   9.574   3.758 -0.1270  0.2745 -0.3389
   62MOL0     C 8278   5.684   9.521   3.778  0.8480  0.4354 -0.6862
   62MOL0    Cl 8279   5.583   9.617   3.658  0.3780  0.2879  0.2531
   62MOL0     C 8280   5.729   9.668   4.607  0.7602  0.0714 -1.0257
   62MOL0     C 8281   5.705   9.616   4.733  0.4724 -0.6290  0.2105
   62MOL0     O 8282   5.762   9.814   5.098 -0.9250 -1.2859 -0.0125
   62MOL0     C 8283   5.736   9.695   5.342  0.6259  1.2979 -1.1417
   62MOL0     C 8284   5.701   9.644   5.468  0.1632  0.6081  0.6724
   62MOL0     N 8285   5.185   9.245   6.048 -0.3181  0.6670  0.7029
   62MOL0     N 8286   5.119   9.268   6.156  0.1415 -1.7362  0.7855
   62MOL0     C 8287   5.346  10.219   6.812  0.7050  0.4018  0.3428
   62MOL0     C 8288   5.401  10.245   6.935 -0.0646 -0.1310 -0.4324
   62MOL0     C 8289   5.468  10.355   7.355  0.5497  0.4396 -0.1235
   62MOL0     C 8290   5.477  10.487   7.412  0.2562 -0.4330 -0.1741
   62MOL0     C 8291   5.563  10.527   7.526  0.3049 -0.4173 -0.1717
   62MOL0     C 8292   5.633  10.428   7.588  0.0551  0.0700 -0.3323
   62MOL0     O 8293   5.708  10.441   7.705 -0.1816  0.3825 -0.1826
   62MOL0     C 8294   5.706  10.565   7.777 -0.1548  0.3677  0.9419
   62MOL0     C 8295   5.766  10.540   7.914  0.1702  0.3810  0.2121
   62MOL0     C 8296   5.916  10.541   7.926 -0.8738  0.8293 -0.5785
   62MOL0     C 8297   5.956  10.452   8.059  0.8775 -0.2395  0.9377
   62MOL0     C 8298   5.919  10.535   8.178  0.6328 -0.5828 -0.2185
   62MOL0     C 8299   5.914  10.612   8.276 -0.3039 -0.4526  0.4389
   62MOL0     C 8300   5.612  10.295   7.546 -0.7873 -0.2087  0.2145
   62MOL0     C 8301   5.536  10.257   7.423 -0.5670  0.2265 -0.0262
   62MOL0     C 8302   5.520  10.115   7.394 -0.2056  0.1850 -0.6968
   62MOL0     H 8303   5.140  10.154   7.128 -0.6719  0.0897  0.1091
   62MOL0     H 8304   5.023  10.136   6.905 -0.2670 -3.1192 -4.3798
   62MOL0     H 8305   5.315  10.139   6.533  1.7859 -2.0899  1.2015
   62MOL0     H 8306   5.308   9.997   6.635 -0.5696 -0.3768 -0.1899
   62MOL0     H 8307   5.216   9.979   6.398 -0.9935 -2.7353  0.3063
   62MOL0     H 8308   5.074  10.061   6.448  0.6906  1.3988  1.1503
   62MOL0     H 8309   4.990   9.869   6.529 -0.3318  1.2461 -0.4215
   62MOL0     H 8310   5.099   9.875   6.663 -2.9433 -3.2759 -0.1586
   62MOL0     H 8311   5.153   9.730   6.407 -3.9934 -2.0773  2.3259
   62MOL0     H 8312   5.284   9.751   6.528  0.1281 -2.5166  0.3114
   62MOL0     H 8313   5.137   9.658   6.690  3.1079  0.9475 -0.3613
   62MOL0     H 8314   5.023   9.595   6.560 -0.8211 -0.2609  2.1607
   62MOL0     H 8315   5.317   9.525   6.630  1.7317 -2.0990 -2.3037
   62MOL0     H 8316   5.185   9.417   6.622 -3.8588  1.4485 -0.4914
   62MOL0     H 8317   5.315   9.371   6.408 -1.3243 -0.5102 -3.9956
   62MOL0     H 8318   5.327   9.544   6.379 -1.5101 -1.4594 -3.6863
   62MOL0     H 8319   5.070   9.369   6.398 -0.6713  1.7929  0.4557
   62MOL0     H 8320   5.072   9.523   6.319  0.5867  1.0528 -0.4130
   62MOL0     H 8321   5.346   9.507   6.169 -0.6915  1.2723  1.1957
   62MOL0     H 8322   5.493   9.359   6.018  0.7434  0.1446 -2.1414
   62MOL0     H 8323   5.437   9.204   5.990 -1.6195 -0.0845  1.4485
   62MOL0     H 8324   5.316   9.285   5.781  2.1241  0.0781 -1.9976
   62MOL0     H 8325   5.390   9.447   5.806 -0.7820  1.2188  2.7583
   62MOL0     H 8326   5.551   9.183   5.769 -0.8668 -0.2159 -2.7683
   62MOL0     H 8327   5.620   9.326   5.835  0.3297  1.1745 -0.4823
   62MOL0     H 8328   5.488   9.301   5.558  0.5980  2.8382 -3.4564
   62MOL0     H 8329   5.660   9.288   5.574  0.5886  0.0246  3.7080
   62MOL0     H 8330   5.519   9.377   5.352  0.0305  0.0878  0.1942
   62MOL0     H 8331   5.549   9.498   5.146 -1.8047 -0.4937  0.6513
   62MOL0     H 8332   5.882   9.848   4.910 -0.2866  0.1418  0.2828
   62MOL0     H 8333   5.935   9.924   4.684 -0.3796  0.1940  4.5679
   62MOL0     H 8334   5.680   9.832   4.380  0.0708  0.7838  1.8673
   62MOL0     H 8335   5.778   9.972   4.407  1.0791 -0.1941 -0.3401
   62MOL0     H 8336   5.802   9.897   4.159 -1.2267  2.2782  1.5223
   62MOL0     H 8337   5.952   9.914   4.250 -1.8175  2.7906  0.6847
   62MOL0     H 8338   5.945   9.667   4.266 -0.4230  0.7710  0.5988
   62MOL0     H 8339   5.767   9.665   4.237  1.5244 -2.7722  2.5509
   62MOL0     H 8340   5.976   9.740   4.020 -0.7675  3.9283  3.3338
   62MOL0     H 8341   5.809   9.748   3.998  1.8096  0.8787 -1.8915
   62MOL0     H 8342   5.801   9.491   4.037  1.2194 -1.3954  0.0994
   62MOL0     H 8343   5.979   9.497   4.058 -0.1409  0.5309  0.5017
   62MOL0     H 8344   6.031   9.555   3.839 -0.2064  0.2374  1.1414
   62MOL0     H 8345   5.933   9.408   3.847  2.7715 -0.6507 -2.0957
   62MOL0     H 8346   5.875   9.540   3.666  0.8449  0.1221  0.1930
   62MOL0     H 8347   5.828   9.683   3.756  1.6181  0.4624  2.6953
   62MOL0     H 8348   5.686   9.414   3.754  2.8683 -0.3191  2.2736
   62MOL0     H 8349   5.641   9.527   3.878 -0.2967  0.3629 -1.1609
   62MOL0     H 8350   5.683   9.608   4.529  1.3320 -1.3258 -0.3207
   62MOL0     H 8351   5.641   9.530   4.754  1.1678 -1.5808 -1.3806
   62MOL0     H 8352   5.808   9.775   5.332  2.0133  0.1289 -0.7560
   62MOL0     H 8353   5.730   9.701   5.555 -1.4708  0.7286  1.1831
   62MOL0     H 8354   5.408  10.256   6.731  1.1222  0.9312  0.8839
   62MOL0     H 8355   5.507  10.269   6.942  0.1125  0.3693 -3.3855
   62MOL0     H 8356   5.418  10.567   7.369  0.0758  1.5869  3.4579
   62MOL0     H 8357   5.578  10.629   7.557 -2.6635  1.4405 -3.9798
   62MOL0     H 8358   5.602  10.596   7.791  0.2056  0.9508  2.5952
   62MOL0     H 8359   5.756  10.644   7.721  0.5703 -0.4702  0.3815
   62MOL0     H 8360   5.741  10.439   7.949  3.3869 -0.6770 -0.2214
   62MOL0     H 8361   5.720  10.610   7.983 -2.4321 -1.2596  0.2922
   62MOL0     H 8362   5.967  10.637   7.940 -0.1560  0.6085 -1.5940
   62MOL0     H 8363   5.954  10.490   7.838  0.7606  0.3385  0.3800
   62MOL0     H 8364   5.899  10.359   8.059 -1.9213  1.2413 -2.0578
   62MOL0     H 8365   6.063  10.433   8.056  0.5990 -2.0364  1.5736
   62MOL0     H 8366   5.918  10.665   8.369 -1.1402 -1.6142  1.1729
   62MOL0     H 8367   5.676  10.216   7.582  0.8688  0.2552 -1.5215
   62MOL0     H 8368   5.567  10.057   7.474  1.0589  1.4493 -0.4797
   62MOL0     H 8369   5.414  10.091   7.382 -0.2283 -0.2072  0.2177
   62MOL0     H 8370   5.562  10.080   7.299 -2.3457 -0.2433 -1.5451
   63MOL0     O 8371   8.832   3.746   8.752 -0.1906 -0.1331  0.1883
   63MOL0     C 8372   8.942   3.717   8.706 -0.1135  0.7981  0.7685
   63MOL0     O 8373   9.063   3.747   8.760 -0.0118  0.6635 -0.4438
   63MOL0     C 8374   9.055   3.866   8.831 -0.0202 -0.6462 -0.1253
   63MOL0     C 8375   9.064   3.992   8.770  0.2187  0.0465  0.8878
   63MOL0     C 8376   9.088   4.111   8.834 -0.5170  0.4645  0.5272
   63MOL0     C 8377   9.108   4.106   8.977 -0.2423  0.3649 -0.3614
   63MOL0     O 8378   9.141   4.229   9.038  0.9201  0.6491  0.3536
   63MOL0     C 8379   9.044   4.329   9.040  1.0847 -0.7308 -0.0259
   63MOL0     C 8380   9.090   4.446   9.123 -1.5256  0.5695  0.2276
   63MOL0     C 8381   8.985   4.550   9.124  0.2683 -0.3535  0.2408
   63MOL0     C 8382   9.020   4.649   9.012 -0.4027 -0.2813 -0.1632
   63MOL0     C 8383   8.901   4.751   9.000 -0.5932  0.8663  0.1006
   63MOL0     C 8384   8.923   4.844   8.876  0.4422  0.4875 -1.4221
   63MOL0     C 8385   9.071   4.894   8.853  0.1408  0.3861  1.0920
   63MOL0     C 8386   9.155   4.955   8.980 -0.1674  0.2645  0.7581
   63MOL0     N 8387   9.122   5.107   8.999  0.5592  0.3818  0.1354
   63MOL0     C 8388   9.006   5.166   9.028  0.0114  0.0698 -0.3714
   63MOL0     C 8389   9.031   5.292   9.021  0.4247  0.3437  0.6601
   63MOL0     C 8390   8.936   5.406   9.045 -0.3600  0.2738 -0.0891
   63MOL0     C 8391   8.852   5.430   8.925 -0.6030 -0.6282 -0.1179
   63MOL0     C 8392   8.892   5.562   8.856  0.2463 -0.4721 -0.2647
   63MOL0     C 8393   8.887   5.575   8.703 -0.7124 -0.0075 -0.5311
   63MOL0     O 8394   8.764   5.551   8.638  0.3528 -0.0674 -0.6846
   63MOL0     C 8395   8.658   5.644   8.641  0.5507  0.1046 -1.1053
   63MOL0     C 8396   8.527   5.607   8.654  0.0638 -0.4335 -0.6596
   63MOL0     C 8397   8.420   5.694   8.634  1.2583 -0.2452  0.8876
   63MOL0     C 8398   8.452   5.832   8.600  0.5413  0.4753 -0.2325
   63MOL0     C 8399   8.335   5.916   8.589 -0.0934 -0.5378  0.2055
   63MOL0     O 8400   8.214   5.848   8.610 -1.0298  0.4660 -0.0663
   63MOL0     C 8401   8.093   5.895   8.575  0.2457  0.0025  0.3358
   63MOL0     C 8402   8.002   5.801   8.509 -0.2584 -0.9222 -0.8671
   63MOL0     C 8403   7.881   5.856   8.455 -0.4079  0.1291  0.2030
   63MOL0     C 8404   7.846   5.986   8.483 -0.6372 -0.6515  0.2298
   63MOL0     O 8405   7.719   6.028   8.464  0.6636 -0.2080  0.0850
   63MOL0     C 8406   7.633   5.997   8.577 -0.3125  0.0444  1.1300
   63MOL0     C 8407   7.485   6.018   8.549 -0.0581  0.0123 -1.1306
   63MOL0     C 8408   7.442   5.919   8.439 -0.3748 -0.2298 -0.3938
   63MOL0     C 8409   7.300   5.968   8.393 -0.7440  0.1198  0.2363
   63MOL0     C 8410   7.186   5.890   8.467 -0.0115 -0.1548  1.7556
   63MOL0     C 8411   7.046   5.952   8.450  0.0543 -0.1861 -0.7410
   63MOL0     C 8412   6.922   5.868   8.475  0.2687  1.0948  0.5352
   63MOL0     C 8413   6.913   5.800   8.612 -0.0764  0.0953 -0.1861
   63MOL0    Cl 8414   6.934   5.915   8.745 -0.1319  0.2354 -0.5268
   63MOL0     C 8415   7.930   6.079   8.543  0.4852 -0.2787  0.5325
   63MOL0     C 8416   8.053   6.028   8.590 -0.5804  0.1156  0.8022
   63MOL0     O 8417   8.343   6.035   8.564  0.4723 -0.1427  0.4490
   63MOL0     C 8418   8.584   5.865   8.564  0.2385  0.6385  0.7807
   63MOL0     C 8419   8.687   5.773   8.588 -0.9371  0.5739  0.3782
   63MOL0     N 8420   9.163   5.322   9.004 -0.1210  0.1501 -0.9013
   63MOL0     N 8421   9.215   5.202   8.983  0.2160  0.2183 -0.5483
   63MOL0     C 8422   9.088   3.977   9.037  0.0231 -0.3687 -0.1924
   63MOL0     C 8423   9.067   3.858   8.969  0.6174  0.1061  1.0434
   63MOL0     C 8424   8.936   3.601   8.592  0.0798 -0.5595  0.0486
   63MOL0     C 8425   8.832   3.593   8.494 -0.2039 -0.7371  0.5024
   63MOL0     C 8426   8.839   3.493   8.392  1.4888 -0.7824 -0.5217
   63MOL0     C 8427   8.951   3.413   8.374 -1.0516 -0.3997 -0.2991
   63MOL0     O 8428   8.975   3.326   8.271  0.3661 -0.3441 -0.0110
   63MOL0     C 8429   8.888   3.337   8.155 -0.7509 -0.0693 -0.2653
   63MOL0     C 8430   8.964   3.254   8.043  0.6847 -0.8258  0.4206
   63MOL0     C 8431   8.917   3.276   7.901  0.1361 -0.2817  0.3421
   63MOL0     C 8432   9.010   3.212   7.799  0.3468 -0.0110 -0.1559
   63MOL0     C 8433   8.931   3.204   7.675 -0.6563 -0.0086  0.0325
   63MOL0     C 8434   8.853   3.200   7.578  0.2796 -0.2106 -0.2213
   63MOL0     C 8435   9.055   3.427   8.472  0.0697  0.0716 -0.1704
   63MOL0     C 8436   9.043   3.514   8.574  0.6192 -0.2527 -0.6299
   63MOL0     C 8437   9.162   3.492   8.664  1.4425 -0.5990  0.9629
   63MOL0     H 8438   9.044   3.979   8.664  2.4741 -0.5454  0.4704
   63MOL0     H 8439   9.090   4.211   8.790 -3.1587  0.1856 -0.4014
   63MOL0     H 8440   9.022   4.364   8.939  0.6120 -1.4515 -0.1826
   63MOL0     H 8441   8.948   4.297   9.083  0.4996  0.3520 -0.4830
   63MOL0     H 8442   9.180   4.494   9.084 -2.1374  1.1221 -0.5119
   63MOL0     H 8443   9.114   4.419   9.227 -0.3314 -0.3766 -0.2615
   63MOL0     H 8444   9.000   4.601   9.220 -1.3477  2.1851 -0.7519
   63MOL0     H 8445   8.887   4.504   9.110  0.7444 -0.8246 -1.9603
   63MOL0     H 8446   9.117   4.695   9.035  0.8796 -2.4931 -0.7617
   63MOL0     H 8447   9.038   4.596   8.918 -0.5493  1.9855 -1.5351
   63MOL0     H 8448   8.814   4.686   8.988  1.7980 -2.6159  0.1546
   63MOL0     H 8449   8.886   4.818   9.085 -1.8802 -0.0786  0.6504
   63MOL0     H 8450   8.895   4.776   8.794 -0.5926  0.3817 -0.9983
   63MOL0     H 8451   8.862   4.934   8.886  2.8124  1.8931  2.4909
   63MOL0     H 8452   9.064   4.962   8.768  1.0993 -0.4499  0.3208
   63MOL0     H 8453   9.133   4.810   8.821 -1.1319  0.3956 -1.6697
   63MOL0     H 8454   9.114   4.899   9.065 -1.0457 -0.4016 -0.0755
   63MOL0     H 8455   9.263   4.942   8.971 -0.0920 -0.2963  2.1975
   63MOL0     H 8456   8.917   5.108   9.054 -0.2328  0.0614 -1.2224
   63MOL0     H 8457   8.878   5.369   9.130  1.0573 -1.0021  0.3707
   63MOL0     H 8458   8.972   5.498   9.091  0.8983 -1.5177  2.8096
   63MOL0     H 8459   8.862   5.351   8.850 -0.5290 -0.8096  0.0825
   63MOL0     H 8460   8.755   5.423   8.976 -0.8944 -2.7481 -0.8383
   63MOL0     H 8461   8.994   5.590   8.884  1.4424 -2.8214 -1.9616
   63MOL0     H 8462   8.834   5.647   8.894  1.7977  2.6047 -4.0431
   63MOL0     H 8463   8.960   5.505   8.661 -0.8775 -0.9457  0.7159
   63MOL0     H 8464   8.932   5.673   8.685 -0.2158 -0.0467  0.4648
   63MOL0     H 8465   8.514   5.506   8.691  0.2872  0.6894  2.8317
   63MOL0     H 8466   8.320   5.653   8.642  0.9066  0.4821  0.3327
   63MOL0     H 8467   8.034   5.698   8.499 -0.9460 -1.0903 -1.3573
   63MOL0     H 8468   7.813   5.796   8.396  1.3592 -0.6463 -1.1567
   63MOL0     H 8469   7.646   5.895   8.617 -1.5882  0.8076  3.7419
   63MOL0     H 8470   7.651   6.068   8.659 -1.5889  0.2784  1.2264
   63MOL0     H 8471   7.425   5.995   8.637 -0.4312  0.5522 -1.2391
   63MOL0     H 8472   7.467   6.120   8.516  1.2103  0.6773  0.0864
   63MOL0     H 8473   7.518   5.892   8.366 -0.3246 -0.0499 -0.4103
   63MOL0     H 8474   7.427   5.823   8.488  3.3147 -0.6747  0.1266
   63MOL0     H 8475   7.297   5.937   8.288 -2.5313 -1.7685  0.7597
   63MOL0     H 8476   7.285   6.076   8.400 -2.2474 -0.1297  1.4416
   63MOL0     H 8477   7.214   5.888   8.572 -3.3243 -0.7328  2.7678
   63MOL0     H 8478   7.175   5.788   8.429 -2.4187  0.3804  0.7842
   63MOL0     H 8479   7.045   6.033   8.524 -2.8487 -0.8000  0.0251
   63MOL0     H 8480   7.033   5.999   8.352 -2.3101  2.4762  0.7207
   63MOL0     H 8481   6.904   5.798   8.392  4.7826 -2.6262  2.2336
   63MOL0     H 8482   6.833   5.931   8.473 -0.7282 -0.2091 -2.6227
   63MOL0     H 8483   6.819   5.748   8.632  0.3097 -0.1498  1.0733
   63MOL0     H 8484   6.993   5.725   8.615 -0.7086 -0.5655  0.2869
   63MOL0     H 8485   7.915   6.185   8.561  1.3263 -0.3184  1.5829
   63MOL0     H 8486   8.111   6.105   8.640 -0.9976  1.1303 -0.2305
   63MOL0     H 8487   8.608   5.960   8.518  0.5481  1.5410  2.6948
   63MOL0     H 8488   8.787   5.799   8.555 -0.6899 -1.3312 -0.5361
   63MOL0     H 8489   9.112   3.970   9.143  3.1621 -1.3612 -0.8801
   63MOL0     H 8490   9.075   3.758   9.012 -0.1022 -0.9253 -1.0868
   63MOL0     H 8491   8.747   3.657   8.513  1.6660  1.0894  3.5042
   63MOL0     H 8492   8.754   3.482   8.326  0.0490 -0.5433  1.2315
   63MOL0     H 8493   8.872   3.437   8.114 -3.8530 -0.8450 -1.1800
   63MOL0     H 8494   8.789   3.291   8.156 -0.4599 -0.9996 -3.3335
   63MOL0     H 8495   8.963   3.149   8.072  0.9865 -1.0766 -0.4307
   63MOL0     H 8496   9.060   3.304   8.054  0.6785 -1.1070  1.8954
   63MOL0     H 8497   8.909   3.383   7.879 -0.2784 -0.4263 -0.2288
   63MOL0     H 8498   8.820   3.228   7.896  0.4169 -0.7981 -0.3041
   63MOL0     H 8499   9.098   3.276   7.783  1.3351 -1.5248 -0.9940
   63MOL0     H 8500   9.050   3.114   7.827 -0.7557  0.2415  2.6234
   63MOL0     H 8501   8.783   3.206   7.498 -1.1824 -1.0432  0.9323
   63MOL0     H 8502   9.143   3.367   8.449 -0.5642 -1.4362  1.2001
   63MOL0     H 8503   9.124   3.498   8.766  0.9181 -0.6638  0.7754
   63MOL0     H 8504   9.206   3.392   8.650  3.2665  0.0493  1.8185
   63MOL0     H 8505   9.228   3.578   8.656 -2.0953  2.5536  2.8101
   64MOL0     O 8506   9.481   7.968  11.465 -0.3303  0.4380 -0.5009
   64MOL0     C 8507   9.512   8.080  11.464 -0.5318 -0.0812 -0.8387
   64MOL0     O 8508   9.430   8.184  11.453  0.5356 -0.2031 -0.0357
   64MOL0     C 8509   9.305   8.179  11.435  0.2016  0.0161  0.3420
   64MOL0     C 8510   9.249   8.231  11.319  0.2273 -0.1826 -0.0811
   64MOL0     C 8511   9.107   8.230  11.304  0.2902  0.9914 -1.0661
   64MOL0     C 8512   9.028   8.164  11.406 -0.0471  0.5118 -0.3304
   64MOL0     O 8513   8.897   8.168  11.392 -0.2546 -0.3591  0.1564
   64MOL0     C 8514   8.808   8.077  11.451  1.1566  0.2784 -0.1588
   64MOL0     C 8515   8.829   7.935  11.391 -0.4340 -0.1478 -0.2942
   64MOL0     C 8516   8.869   7.925  11.238  0.4454 -0.4530  1.0926
   64MOL0     C 8517   8.754   7.977  11.153  0.7048  1.0565  0.9061
   64MOL0     C 8518   8.804   7.980  11.005  0.3321 -0.5720 -0.0417
   64MOL0     C 8519   8.694   8.013  10.917  0.4528  0.4108 -0.3274
   64MOL0     C 8520   8.737   7.978  10.777  0.3768 -0.7443  0.5027
   64MOL0     C 8521   8.619   7.990  10.680  0.6399  1.1311 -0.1134
   64MOL0     N 8522   8.555   7.850  10.661  0.3704 -0.8278 -0.1703
   64MOL0     C 8523   8.536   7.788  10.538 -0.6110 -0.8356 -0.1549
   64MOL0     C 8524   8.468   7.670  10.567  1.4062  0.0824  0.1199
   64MOL0     C 8525   8.453   7.559  10.460  0.3209 -0.1289 -0.0199
   64MOL0     C 8526   8.453   7.411  10.508  1.1037 -0.7068  0.0415
   64MOL0     C 8527   8.586   7.367  10.553 -0.4075 -0.2567  0.3314
   64MOL0     C 8528   8.575   7.222  10.595  0.0484 -0.1943 -0.3236
   64MOL0     O 8529   8.703   7.168  10.636  0.5616 -0.0795  0.5268
   64MOL0     C 8530   8.720   7.031  10.654  0.4180  0.6625  0.2509
   64MOL0     C 8531   8.855   6.998  10.691 -0.2421  0.0699  0.8634
   64MOL0     C 8532   8.879   6.865  10.724  0.6890  0.1148 -1.0083
   64MOL0     C 8533   8.786   6.762  10.703 -0.0560 -0.2117 -0.8837
   64MOL0     C 8534   8.833   6.631  10.712  0.1578  0.3323 -0.2203
   64MOL0     O 8535   8.964   6.602  10.718  0.0566  0.0127 -0.1903
   64MOL0     C 8536   9.010   6.484  10.784 -0.3879 -0.8479  0.1820
   64MOL0     C 8537   9.060   6.368  10.713  0.5366  0.0696 -0.0785
   64MOL0     C 8538   9.119   6.267  10.784  0.7786  0.3765 -0.0352
   64MOL0     C 8539   9.129   6.270  10.922 -0.1392 -0.3057 -0.1449
   64MOL0     O 8540   9.198   6.166  10.987 -0.1361  0.5358  0.4258
   64MOL0     C 8541   9.209   6.167  11.128  0.7026 -0.9549  0.2793
   64MOL0     C 8542   9.277   6.039  11.182 -0.8806 -0.0358 -0.0995
   64MOL0     C 8543   9.196   5.914  11.141 -0.6729  0.3568  1.1778
   64MOL0     C 8544   9.287   5.790  11.088 -0.4381 -0.2668 -1.0918
   64MOL0     C 8545   9.379   5.721  11.199 -0.4697  0.3788 -0.2777
   64MOL0     C 8546   9.482   5.613  11.146  0.5588 -0.0651  0.1264
   64MOL0     C 8547   9.570   5.546  11.255  0.3435  0.2779  0.0384
   64MOL0     C 8548   9.662   5.644  11.320 -0.3731  0.1760 -0.4069
   64MOL0    Cl 8549   9.787   5.565  11.412  0.0122  0.0242 -0.3424
   64MOL0     C 8550   9.083   6.385  10.997 -1.2225  0.0237  0.7368
   64MOL0     C 8551   9.024   6.490  10.926  0.1361  0.5069 -0.0341
   64MOL0     O 8552   8.747   6.547  10.714  0.6405  0.3528  0.4937
   64MOL0     C 8553   8.656   6.800  10.658 -0.0730  0.4532  0.5991
   64MOL0     C 8554   8.623   6.931  10.619  0.2620 -0.4658  0.8796
   64MOL0     N 8555   8.413   7.687  10.692 -0.1450  0.3866  0.2163
   64MOL0     N 8556   8.468   7.795  10.743  0.9664  0.3401 -0.0780
   64MOL0     C 8557   9.097   8.111  11.520  0.3506  0.7561  0.5742
   64MOL0     C 8558   9.230   8.126  11.536 -0.5272  0.1742 -0.3543
   64MOL0     C 8559   9.649   8.104  11.504  1.4878  0.6880 -0.2665
   64MOL0     C 8560   9.747   7.997  11.472 -0.3529 -0.0182  0.8054
   64MOL0     C 8561   9.892   8.018  11.491  0.7329  0.9644 -0.1193
   64MOL0     C 8562   9.937   8.143  11.534  0.3911 -0.5307  0.2092
   64MOL0     O 8563  10.068   8.183  11.544  0.2701  0.5646 -0.2541
   64MOL0     C 8564  10.163   8.098  11.487  0.0558  0.2645 -0.0727
   64MOL0     C 8565  10.296   8.171  11.490 -0.3545 -0.2296 -0.5752
   64MOL0     C 8566  10.364   8.170  11.631 -0.8453 -0.0987 -0.0099
   64MOL0     C 8567  10.287   8.225  11.753 -0.0780 -0.2849  1.1530
   64MOL0     C 8568  10.378   8.301  11.841 -1.0847  0.0861 -1.6990
   64MOL0     C 8569  10.467   8.348  11.913 -0.0666  0.5676  0.5029
   64MOL0     C 8570   9.849   8.239  11.578 -0.3288 -0.7452  0.5781
   64MOL0     C 8571   9.708   8.217  11.566 -0.3692 -1.4304  0.0956
   64MOL0     C 8572   9.619   8.321  11.620 -0.1676 -0.7305  1.1169
   64MOL0     H 8573   9.325   8.256  11.245 -2.8932  0.4139 -3.3471
   64MOL0     H 8574   9.055   8.260  11.214 -2.4164 -2.8910 -1.0919
   64MOL0     H 8575   8.808   8.070  11.560  1.2599 -2.0197 -0.2490
   64MOL0     H 8576   8.702   8.097  11.435  0.9143 -0.3854  0.5352
   64MOL0     H 8577   8.734   7.883  11.405  0.0968 -1.3200 -0.9277
   64MOL0     H 8578   8.907   7.879  11.444  1.0010  2.1896  0.1938
   64MOL0     H 8579   8.895   7.824  11.204 -1.1708  0.0818 -2.1230
   64MOL0     H 8580   8.957   7.987  11.222  1.7545 -2.0795  1.6620
   64MOL0     H 8581   8.673   7.904  11.165 -0.5949  1.9962 -1.4612
   64MOL0     H 8582   8.719   8.076  11.183  2.0013  2.3447 -1.5243
   64MOL0     H 8583   8.873   8.064  10.988 -2.1228  1.2831 -1.6394
   64MOL0     H 8584   8.850   7.889  10.967 -2.6750 -1.5521 -1.6860
   64MOL0     H 8585   8.606   7.960  10.954  1.5045 -1.2335 -0.0794
   64MOL0     H 8586   8.656   8.115  10.913 -1.9714 -0.4286 -3.6853
   64MOL0     H 8587   8.787   7.881  10.767  3.0460  0.7542 -2.4085
   64MOL0     H 8588   8.819   8.046  10.750 -0.9547 -0.1725 -2.4469
   64MOL0     H 8589   8.548   8.069  10.704  0.5689  1.3354 -0.9679
   64MOL0     H 8590   8.664   8.015  10.583  0.2338 -2.6683 -1.4728
   64MOL0     H 8591   8.581   7.810  10.442 -0.3894 -0.3113  0.0641
   64MOL0     H 8592   8.361   7.572  10.403 -0.2280 -1.6507  0.4682
   64MOL0     H 8593   8.530   7.580  10.386 -1.2769  0.3244 -1.6124
   64MOL0     H 8594   8.382   7.404  10.591  3.0885 -0.1762  1.9068
   64MOL0     H 8595   8.426   7.356  10.418  1.3294  2.1335 -1.8711
   64MOL0     H 8596   8.627   7.429  10.633 -4.1182  0.2114  2.0851
   64MOL0     H 8597   8.665   7.354  10.477 -1.7268 -1.4939 -0.9042
   64MOL0     H 8598   8.524   7.172  10.512 -2.6615 -1.7552  2.0638
   64MOL0     H 8599   8.509   7.214  10.682  1.9061 -1.4557  1.0742
   64MOL0     H 8600   8.933   7.074  10.688  1.6654 -1.8074  0.9245
   64MOL0     H 8601   8.982   6.853  10.756 -0.2449  0.9860  2.7066
   64MOL0     H 8602   9.055   6.358  10.605  3.2555 -1.3905 -0.1469
   64MOL0     H 8603   9.163   6.179  10.740  1.0629 -0.8626  2.5243
   64MOL0     H 8604   9.259   6.259  11.157  1.7036 -1.6599  0.8567
   64MOL0     H 8605   9.108   6.176  11.168  0.7078 -0.6917  0.2308
   64MOL0     H 8606   9.379   6.030  11.145 -0.8490 -3.1256  0.4657
   64MOL0     H 8607   9.288   6.052  11.290 -0.9133 -1.5504  0.1011
   64MOL0     H 8608   9.137   5.878  11.226 -1.9190 -0.7617 -0.1053
   64MOL0     H 8609   9.129   5.935  11.057  0.0581 -0.7119  0.3039
   64MOL0     H 8610   9.350   5.824  11.005  0.8101 -0.1748 -0.1384
   64MOL0     H 8611   9.231   5.710  11.038  1.3184  0.5514 -4.6379
   64MOL0     H 8612   9.313   5.682  11.277  0.5474 -0.8206  0.0193
   64MOL0     H 8613   9.435   5.804  11.242  0.3209  1.9231 -3.9090
   64MOL0     H 8614   9.444   5.526  11.092  0.3903  0.6497 -0.9286
   64MOL0     H 8615   9.558   5.660  11.083 -0.1098  0.6788 -0.1356
   64MOL0     H 8616   9.628   5.458  11.225  0.6578  1.1905 -2.1979
   64MOL0     H 8617   9.505   5.491  11.324 -4.6618  1.1169 -3.4496
   64MOL0     H 8618   9.716   5.707  11.248  0.2738  1.4645  1.1603
   64MOL0     H 8619   9.604   5.711  11.384 -1.6510 -1.6130  0.4080
   64MOL0     H 8620   9.084   6.392  11.105 -3.5550 -0.5255  0.8620
   64MOL0     H 8621   8.985   6.583  10.966 -0.2946  0.3436 -0.0637
   64MOL0     H 8622   8.584   6.727  10.624  0.8692 -0.4956  0.6104
   64MOL0     H 8623   8.525   6.954  10.577  0.7782  2.0949  0.9179
   64MOL0     H 8624   9.042   8.054  11.594  2.8013 -2.0497  0.3897
   64MOL0     H 8625   9.282   8.092  11.625 -2.1877  2.9155  1.8116
   64MOL0     H 8626   9.721   7.905  11.420  0.5810  0.8738 -1.3178
   64MOL0     H 8627   9.960   7.937  11.467 -1.1937 -0.0919 -2.5179
   64MOL0     H 8628  10.138   8.071  11.384 -5.1115  0.3527  0.9139
   64MOL0     H 8629  10.168   8.011  11.553 -0.1877  0.4616  0.2040
   64MOL0     H 8630  10.287   8.277  11.466 -0.4224  0.0164  0.4924
   64MOL0     H 8631  10.369   8.128  11.420  1.5250  1.7189  0.0665
   64MOL0     H 8632  10.465   8.211  11.634 -1.7028  2.1921 -0.8140
   64MOL0     H 8633  10.387   8.066  11.659  2.1735  0.6627  0.6613
   64MOL0     H 8634  10.230   8.305  11.706  0.1141  1.3460  3.5173
   64MOL0     H 8635  10.215   8.155  11.797 -3.9373  1.3773 -1.9140
   64MOL0     H 8636  10.546   8.381  11.978  1.0790 -4.2150  1.9326
   64MOL0     H 8637   9.888   8.331  11.619  0.1718 -0.9122  0.4871
   64MOL0     H 8638   9.565   8.371  11.539  1.3744 -1.2117 -0.2521
   64MOL0     H 8639   9.562   8.293  11.709 -1.6100  0.1349  0.5077
   64MOL0     H 8640   9.686   8.402  11.652 -0.5360  0.3043 -0.6111
   65MOL0     O 8641   2.659   0.993   5.070  0.2323  0.1953  0.2769
   65MOL0     C 8642   2.731   1.075   5.124  0.4338 -0.1643  0.5520
   65MOL0     O 8643   2.791   1.060   5.244  0.1135 -1.3447  0.4232
   65MOL0     C 8644   2.719   1.013   5.354  0.1926  0.2061  0.6087
   65MOL0     C 8645   2.782   0.976   5.478  0.0688  0.1950  0.0279
   65MOL0     C 8646   2.708   0.951   5.596 -0.4376  0.5637 -0.1008
   65MOL0     C 8647   2.570   0.932   5.580 -0.1310  0.0125  0.1134
   65MOL0     O 8648   2.476   0.898   5.676 -0.6181  0.6410  0.0613
   65MOL0     C 8649   2.517   0.784   5.753 -0.0787 -0.8457  0.5761
   65MOL0     C 8650   2.452   0.798   5.883 -1.0237 -0.7007 -0.4252
   65MOL0     C 8651   2.482   0.679   5.962 -1.3081 -0.5668 -0.2884
   65MOL0     C 8652   2.430   0.692   6.108  0.1347  1.3545 -0.1056
   65MOL0     C 8653   2.466   0.555   6.184  0.3660 -0.7628 -0.5947
   65MOL0     C 8654   2.426   0.562   6.342  0.4614 -0.0801  0.6930
   65MOL0     C 8655   2.277   0.541   6.364 -0.0095 -0.2165 -0.8686
   65MOL0     C 8656   2.260   0.577   6.509  0.2314  0.7720 -0.5464
   65MOL0     N 8657   2.132   0.543   6.571  0.9232  0.3681 -0.3403
   65MOL0     C 8658   2.008   0.588   6.540 -0.1313  0.1871 -0.2279
   65MOL0     C 8659   1.925   0.525   6.635  0.3386 -0.0561  0.9652
   65MOL0     C 8660   1.791   0.572   6.674 -0.9140  0.5269  1.1424
   65MOL0     C 8661   1.806   0.604   6.829 -0.4073  0.1215  0.2014
   65MOL0     C 8662   1.702   0.714   6.855  0.1230  0.5470  0.6205
   65MOL0     C 8663   1.562   0.643   6.877 -0.0245  0.2392  0.3581
   65MOL0     O 8664   1.562   0.580   7.007 -0.5041  0.2192 -0.1896
   65MOL0     C 8665   1.459   0.502   7.033  0.0758  0.5124 -0.4555
   65MOL0     C 8666   1.342   0.480   6.950  0.0080  0.0257 -0.5212
   65MOL0     C 8667   1.253   0.373   6.980 -0.6491 -0.2793 -1.0740
   65MOL0     C 8668   1.244   0.331   7.105  0.0132 -0.6346 -0.7805
   65MOL0     C 8669   1.113   0.269   7.152  0.4949  0.2936  0.3544
   65MOL0     O 8670   1.065   0.309   7.276  0.1591 -0.1772  0.6089
   65MOL0     C 8671   0.941   0.294   7.315 -0.2676  0.4180  0.1587
   65MOL0     C 8672   0.829   0.288   7.232 -0.1776  0.6549 -0.7425
   65MOL0     C 8673   0.694   0.304   7.281  0.2297  0.6801 -0.9061
   65MOL0     C 8674   0.669   0.316   7.415  0.0839 -0.6987 -0.0257
   65MOL0     O 8675   0.537   0.321   7.453  0.5723 -0.1713  0.0283
   65MOL0     C 8676   0.500   0.279   7.586  0.2403 -0.8896  0.1098
   65MOL0     C 8677   0.352   0.260   7.613  1.1491  1.2748  0.2573
   65MOL0     C 8678   0.327   0.209   7.762  0.7668 -0.8302 -0.4268
   65MOL0     C 8679   0.172   0.245   7.807 -0.5169 -0.3075  0.0319
   65MOL0     C 8680   0.065   0.189   7.717 -0.3483  0.0342  0.0037
   65MOL0     C 8681   0.044   0.041   7.707 -0.4663  0.0396  0.0361
   65MOL0     C 8682   0.036  -0.050   7.829 -0.3363 -0.9180  0.3845
   65MOL0     C 8683  -0.100  -0.053   7.890 -0.5864 -0.3865 -0.9069
   65MOL0    Cl 8684  -0.091  -0.128   8.045 -0.4122 -0.7916 -0.4224
   65MOL0     C 8685   0.781   0.323   7.499  0.0957  0.0182  0.3555
   65MOL0     C 8686   0.912   0.320   7.449  0.1756  0.7360  0.1450
   65MOL0     O 8687   1.063   0.187   7.082 -0.6186 -0.3442 -0.0999
   65MOL0     C 8688   1.343   0.362   7.200 -0.5527  0.3277 -0.7630
   65MOL0     C 8689   1.454   0.440   7.160  0.8740 -0.4483 -0.8089
   65MOL0     N 8690   2.007   0.432   6.702  0.1168 -0.5869  0.5961
   65MOL0     N 8691   2.125   0.459   6.671  0.1196 -0.5546 -1.0219
   65MOL0     C 8692   2.512   0.963   5.453  0.0851 -0.1168 -1.2190
   65MOL0     C 8693   2.586   1.013   5.351  0.0605 -0.0177  0.0088
   65MOL0     C 8694   2.768   1.197   5.052  0.3448 -0.1649  0.1900
   65MOL0     C 8695   2.673   1.253   4.962  0.4447 -0.7048 -0.2846
   65MOL0     C 8696   2.706   1.363   4.877 -0.0987  0.5540  0.3917
   65MOL0     C 8697   2.837   1.414   4.888  0.3275  0.7463 -0.7237
   65MOL0     O 8698   2.871   1.520   4.810  0.7774 -0.4333  0.2394
   65MOL0     C 8699   2.955   1.481   4.700  1.0513 -0.4651  0.5541
   65MOL0     C 8700   2.962   1.592   4.583 -0.2139 -0.1772 -0.1910
   65MOL0     C 8701   3.046   1.539   4.466 -0.2930  0.2621 -0.2682
   65MOL0     C 8702   3.052   1.639   4.359  0.6135  0.0321 -0.3648
   65MOL0     C 8703   3.152   1.583   4.266 -0.5605 -0.0156  0.9082
   65MOL0     C 8704   3.253   1.540   4.211 -0.0595  0.0911  0.2622
   65MOL0     C 8705   2.935   1.362   4.974 -0.1681 -0.4709  0.5788
   65MOL0     C 8706   2.908   1.255   5.057  0.9450 -0.5788  0.7336
   65MOL0     C 8707   3.030   1.214   5.142 -0.0409  1.0902  0.5174
   65MOL0     H 8708   2.888   0.997   5.484  0.1025  0.0726 -0.1376
   65MOL0     H 8709   2.761   0.946   5.691 -2.0265  0.4047  0.8180
   65MOL0     H 8710   2.478   0.696   5.702  0.6999 -0.4726 -0.7165
   65MOL0     H 8711   2.622   0.756   5.756 -0.4802 -2.6054 -0.5052
   65MOL0     H 8712   2.344   0.802   5.868 -0.7259 -3.2259 -4.4251
   65MOL0     H 8713   2.484   0.894   5.926 -1.5848 -0.4306 -0.5984
   65MOL0     H 8714   2.589   0.659   5.969 -1.6152 -2.5430 -0.6634
   65MOL0     H 8715   2.430   0.594   5.917 -2.4653  0.0156 -0.0986
   65MOL0     H 8716   2.489   0.769   6.158  0.8993 -0.8223  2.6076
   65MOL0     H 8717   2.323   0.710   6.122 -0.0199  1.4106 -1.3000
   65MOL0     H 8718   2.426   0.467   6.133 -2.1688 -0.3507  0.5367
   65MOL0     H 8719   2.572   0.533   6.168 -0.0968 -1.6211 -2.8067
   65MOL0     H 8720   2.475   0.472   6.381  0.2688 -1.3596 -1.8346
   65MOL0     H 8721   2.461   0.660   6.377 -1.4700  0.8844  0.0289
   65MOL0     H 8722   2.251   0.435   6.367 -3.6546  0.5360 -0.2279
   65MOL0     H 8723   2.216   0.599   6.294  1.6344  0.1781 -2.0214
   65MOL0     H 8724   2.336   0.520   6.562  0.2510  3.2710  2.4295
   65MOL0     H 8725   2.276   0.685   6.522 -1.5219  1.4239 -2.8827
   65MOL0     H 8726   1.977   0.675   6.483 -1.9975 -0.5155 -0.3663
   65MOL0     H 8727   1.786   0.666   6.618  1.8932 -0.5267 -1.1338
   65MOL0     H 8728   1.712   0.504   6.641  1.3683 -1.0745 -1.4949
   65MOL0     H 8729   1.804   0.515   6.892  1.0647 -0.2159 -0.1847
   65MOL0     H 8730   1.905   0.651   6.834  0.5650 -1.0331 -3.8249
   65MOL0     H 8731   1.709   0.794   6.780  1.0092 -0.0609  0.0258
   65MOL0     H 8732   1.731   0.764   6.948  0.3863  0.7610  0.4282
   65MOL0     H 8733   1.546   0.563   6.804 -1.6290  1.1558 -0.3494
   65MOL0     H 8734   1.479   0.714   6.877  0.4184  0.9323  3.5569
   65MOL0     H 8735   1.327   0.519   6.850  0.9880 -0.5488 -0.9022
   65MOL0     H 8736   1.187   0.332   6.904  2.2675 -5.3719 -1.3183
   65MOL0     H 8737   0.844   0.250   7.131  1.0312 -0.0054 -0.3382
   65MOL0     H 8738   0.607   0.295   7.218 -1.9460  2.5486  1.5958
   65MOL0     H 8739   0.558   0.189   7.610  1.5659  0.0116  0.3750
   65MOL0     H 8740   0.526   0.354   7.661 -0.8027 -0.4205  0.0243
   65MOL0     H 8741   0.301   0.356   7.598  3.4844  2.5238 -0.2399
   65MOL0     H 8742   0.329   0.190   7.532  1.5865  2.9651 -1.4027
   65MOL0     H 8743   0.353   0.104   7.780  1.7053 -0.5169  0.0805
   65MOL0     H 8744   0.407   0.260   7.816  1.0837 -0.7235 -0.9876
   65MOL0     H 8745   0.155   0.352   7.819 -0.6873 -0.4063  0.7186
   65MOL0     H 8746   0.148   0.198   7.903 -4.4951  0.7396 -0.2814
   65MOL0     H 8747   0.078   0.222   7.614 -0.5452  0.0342 -0.0227
   65MOL0     H 8748  -0.018   0.240   7.769  0.9839  2.6198 -0.2605
   65MOL0     H 8749  -0.052   0.036   7.656 -1.5404 -0.3830  2.0215
   65MOL0     H 8750   0.123   0.007   7.638 -0.3187  0.9652 -0.2675
   65MOL0     H 8751   0.111  -0.015   7.901  0.2323 -1.4507  0.0626
   65MOL0     H 8752   0.063  -0.154   7.807 -2.2671 -1.1075 -1.4378
   65MOL0     H 8753  -0.142   0.045   7.914  0.4852 -0.1251 -0.0249
   65MOL0     H 8754  -0.165  -0.109   7.822  3.6834 -3.1694 -3.0977
   65MOL0     H 8755   0.762   0.323   7.606 -0.8821  0.7204  0.2038
   65MOL0     H 8756   0.991   0.328   7.522  0.9825  0.0254 -0.6350
   65MOL0     H 8757   1.340   0.313   7.296  0.2869 -3.6284 -2.5264
   65MOL0     H 8758   1.541   0.463   7.221  0.7086  0.2285 -0.8115
   65MOL0     H 8759   2.404   0.957   5.451 -0.2205  0.0630  3.1653
   65MOL0     H 8760   2.533   1.052   5.265 -1.4451  2.0099  1.7246
   65MOL0     H 8761   2.569   1.220   4.960  0.5291 -0.9739 -2.6512
   65MOL0     H 8762   2.636   1.393   4.799 -2.2803  2.3392  2.8829
   65MOL0     H 8763   2.901   1.399   4.653  0.1063  0.7827 -0.5948
   65MOL0     H 8764   3.058   1.451   4.724  0.7728 -1.4706  0.5694
   65MOL0     H 8765   3.000   1.689   4.615  0.0201 -0.2496 -0.2441
   65MOL0     H 8766   2.858   1.610   4.557 -1.0545 -3.5075  0.4145
   65MOL0     H 8767   3.011   1.440   4.436  2.8895 -1.2458  0.5409
   65MOL0     H 8768   3.145   1.524   4.512 -0.3698  2.0957  0.6006
   65MOL0     H 8769   2.955   1.648   4.310  0.3391  1.4494  0.4006
   65MOL0     H 8770   3.101   1.730   4.394 -1.0312  0.4259  1.0057
   65MOL0     H 8771   3.342   1.500   4.167 -1.2766 -1.5651 -0.8176
   65MOL0     H 8772   3.038   1.394   4.979 -0.9651  2.7605 -0.9003
   65MOL0     H 8773   3.069   1.310   5.175 -1.3855  1.0840  2.2637
   65MOL0     H 8774   3.007   1.141   5.221 -0.5814 -0.6298 -1.1433
   65MOL0     H 8775   3.104   1.172   5.073  0.6571  1.4643  1.0311
   66MOL0     O 8776   1.163   7.543  10.770 -0.2850  0.5020  0.5695
   66MOL0     C 8777   1.209   7.656  10.760 -0.6467  0.7678 -1.2262
   66MOL0     O 8778   1.224   7.739  10.872  0.1237 -0.3712  1.0854
   66MOL0     C 8779   1.182   7.703  10.995  0.0030 -0.3714 -0.0532
   66MOL0     C 8780   1.270   7.662  11.101 -0.5134 -0.1390 -0.7573
   66MOL0     C 8781   1.219   7.629  11.227 -0.4920  0.2762 -0.3750
   66MOL0     C 8782   1.081   7.651  11.251  0.2359  0.2506 -0.5589
   66MOL0     O 8783   1.023   7.620  11.370 -0.3916 -0.2792  0.9019
   66MOL0     C 8784   0.977   7.733  11.448  0.1592 -0.7729 -0.2128
   66MOL0     C 8785   0.877   7.682  11.550 -1.8374 -0.9868  0.3230
   66MOL0     C 8786   0.930   7.593  11.676 -0.4597  0.0430  1.0453
   66MOL0     C 8787   0.941   7.446  11.635 -0.6913 -1.0061  0.4094
   66MOL0     C 8788   0.945   7.343  11.757  0.1918 -0.0651 -0.5465
   66MOL0     C 8789   0.803   7.347  11.836 -0.0962 -0.1480  0.3216
   66MOL0     C 8790   0.806   7.226  11.926  0.6990 -1.4665 -0.3523
   66MOL0     C 8791   0.723   7.117  11.866 -0.9159 -0.0817 -0.0829
   66MOL0     N 8792   0.709   7.016  11.975 -0.4727  0.8192  0.3859
   66MOL0     C 8793   0.622   7.042  12.078 -0.6943 -0.2878 -0.3049
   66MOL0     C 8794   0.603   6.928  12.143 -0.2969 -0.7156  0.1868
   66MOL0     C 8795   0.526   6.910  12.268  0.1371 -0.3878 -0.0262
   66MOL0     C 8796   0.596   6.971  12.381 -0.7357 -0.2445 -0.1434
   66MOL0     C 8797   0.564   6.914  12.517  0.9571  0.3692  0.1538
   66MOL0     C 8798   0.416   6.920  12.557 -0.0432  0.3597 -0.1729
   66MOL0     O 8799   0.407   6.842  12.675  0.1607 -0.7818 -0.5529
   66MOL0     C 8800   0.334   6.901  12.783  0.2623 -0.0724  0.6097
   66MOL0     C 8801   0.387   6.867  12.907 -0.2698 -0.3929 -0.3639
   66MOL0     C 8802   0.321   6.921  13.021 -0.6348  0.5585 -0.4747
   66MOL0     C 8803   0.211   7.008  13.016 -0.7528  0.7809 -0.1256
   66MOL0     C 8804   0.135   7.048  13.139 -0.4125 -0.8413  0.4493
   66MOL0     O 8805   0.203   7.058  13.249 -0.0606 -0.0773 -0.4933
   66MOL0     C 8806   0.153   7.132  13.360 -0.7790  0.8989 -0.0113
   66MOL0     C 8807   0.049   7.223  13.357 -0.4435  0.0184  1.2239
   66MOL0     C 8808   0.007   7.286  13.471  0.1746  0.4405  0.0821
   66MOL0     C 8809   0.072   7.269  13.594  0.5917  0.3953 -0.0287
   66MOL0     O 8810   0.011   7.330  13.698  0.6164  0.7739  0.3457
   66MOL0     C 8811   0.056   7.311  13.835 -1.0219 -0.5809  0.0169
   66MOL0     C 8812  -0.059   7.348  13.936 -0.8720 -0.0056 -0.7234
   66MOL0     C 8813  -0.096   7.246  14.047  0.0756  0.2861  0.5735
   66MOL0     C 8814  -0.164   7.119  13.988  0.3864 -0.3013 -0.9469
   66MOL0     C 8815  -0.175   7.016  14.104 -0.1327 -0.5499  0.4523
   66MOL0     C 8816  -0.278   7.023  14.224 -0.1714  0.3687 -0.0037
   66MOL0     C 8817  -0.417   7.023  14.175 -0.3848 -0.0254  0.0410
   66MOL0     C 8818  -0.507   6.958  14.279  0.2163  0.0539  0.6938
   66MOL0    Cl 8819  -0.547   7.074  14.404 -1.0503 -0.0221  0.0746
   66MOL0     C 8820   0.189   7.181  13.601 -0.2867  0.3727  0.9902
   66MOL0     C 8821   0.217   7.104  13.485  0.2199  0.2064  0.2769
   66MOL0     O 8822   0.018   7.069  13.125 -0.0186  0.7177  0.3753
   66MOL0     C 8823   0.146   7.015  12.887 -0.9628 -0.5083  0.3444
   66MOL0     C 8824   0.216   6.971  12.771  1.1409  0.4938 -0.6746
   66MOL0     N 8825   0.675   6.834  12.081  0.0737  0.2117 -0.1871
   66MOL0     N 8826   0.741   6.886  11.986 -0.1528  0.6068  0.3741
   66MOL0     C 8827   0.992   7.690  11.146 -0.4445  0.1859  0.0383
   66MOL0     C 8828   1.045   7.713  11.028  0.1442 -0.3815 -0.6265
   66MOL0     C 8829   1.259   7.715  10.639  0.5871  0.5541  0.2869
   66MOL0     C 8830   1.345   7.828  10.647  0.4191 -0.1314 -0.0335
   66MOL0     C 8831   1.380   7.889  10.528 -0.8381 -0.3168  0.2128
   66MOL0     C 8832   1.364   7.829  10.401  0.0599  0.2290 -0.8855
   66MOL0     O 8833   1.397   7.892  10.278  0.7615  0.6658 -0.0763
   66MOL0     C 8834   1.286   7.970  10.234  0.0221 -0.2753 -0.5240
   66MOL0     C 8835   1.265   8.108  10.301 -0.5568  1.0147  1.1193
   66MOL0     C 8836   1.396   8.187  10.293  0.0569  0.2026 -0.0572
   66MOL0     C 8837   1.380   8.325  10.367 -0.5925 -0.4051 -0.9625
   66MOL0     C 8838   1.302   8.429  10.305 -0.6932 -0.2325  0.2632
   66MOL0     C 8839   1.264   8.519  10.234 -0.8145  0.0611 -0.5543
   66MOL0     C 8840   1.288   7.712  10.399  0.3323  0.5007 -0.9851
   66MOL0     C 8841   1.239   7.651  10.513 -0.1619 -1.0042 -0.1651
   66MOL0     C 8842   1.189   7.509  10.487  0.1722 -0.9380 -0.0027
   66MOL0     H 8843   1.372   7.638  11.072  1.2252  1.7465  3.1224
   66MOL0     H 8844   1.280   7.614  11.316 -2.2422  0.9592  1.0151
   66MOL0     H 8845   1.066   7.775  11.496 -0.8790  3.2805 -1.4691
   66MOL0     H 8846   0.935   7.809  11.382  0.0557 -0.1095  0.6047
   66MOL0     H 8847   0.789   7.643  11.498 -3.3045  3.8315 -1.4263
   66MOL0     H 8848   0.844   7.779  11.591 -0.8954 -0.6774  0.3689
   66MOL0     H 8849   0.869   7.604  11.766  1.8089  0.0277  2.6788
   66MOL0     H 8850   1.028   7.625  11.711  0.4297 -2.2340  0.7958
   66MOL0     H 8851   0.862   7.411  11.568 -0.2186  0.7570 -1.1188
   66MOL0     H 8852   1.036   7.440  11.582 -1.0687 -1.0961 -0.2627
   66MOL0     H 8853   0.970   7.242  11.723 -0.1236 -1.0248  1.9190
   66MOL0     H 8854   1.022   7.385  11.822 -0.2976  3.3115 -1.9104
   66MOL0     H 8855   0.799   7.441  11.891 -4.5884 -0.1534  0.3815
   66MOL0     H 8856   0.725   7.348  11.759  1.2218  0.6035 -1.0608
   66MOL0     H 8857   0.758   7.257  12.019 -0.0144 -1.7801 -0.6109
   66MOL0     H 8858   0.908   7.197  11.953  1.4836 -1.0588 -2.6905
   66MOL0     H 8859   0.627   7.151  11.827 -1.1349 -0.1435  0.4009
   66MOL0     H 8860   0.782   7.084  11.780 -0.5559 -2.4270  0.9829
   66MOL0     H 8861   0.577   7.138  12.101  0.4488  0.7767 -2.2083
   66MOL0     H 8862   0.431   6.965  12.257  0.9842  1.4899  1.4708
   66MOL0     H 8863   0.507   6.804  12.285 -1.3566  0.2017  2.5620
   66MOL0     H 8864   0.704   6.958  12.370 -0.7885  0.3502 -1.4962
   66MOL0     H 8865   0.561   7.074  12.386  1.8850  0.6889  0.5056
   66MOL0     H 8866   0.621   6.968  12.594  1.4588 -0.7341  0.5696
   66MOL0     H 8867   0.589   6.808  12.518  2.5959  0.7349  0.4390
   66MOL0     H 8868   0.347   6.891  12.477  1.2565  1.6434 -1.8373
   66MOL0     H 8869   0.411   7.024  12.592  4.1938  0.9287 -0.7863
   66MOL0     H 8870   0.475   6.809  12.932  0.2703 -0.9454 -3.2382
   66MOL0     H 8871   0.363   6.889  13.116 -1.9046  1.0598  0.2788
   66MOL0     H 8872  -0.002   7.249  13.265 -1.0737 -2.2809  0.8657
   66MOL0     H 8873  -0.077   7.353  13.457  1.5393  2.6244  1.8393
   66MOL0     H 8874   0.086   7.208  13.855 -2.0459 -0.6466  1.3553
   66MOL0     H 8875   0.136   7.385  13.846 -0.6599 -0.0569 -4.3165
   66MOL0     H 8876  -0.039   7.443  13.986  1.0958 -1.2303  0.9050
   66MOL0     H 8877  -0.141   7.382  13.872 -1.4398  0.5033  0.2564
   66MOL0     H 8878  -0.007   7.221  14.106  0.4759  0.8229  0.1972
   66MOL0     H 8879  -0.173   7.291  14.111  1.3676  0.7248  1.8665
   66MOL0     H 8880  -0.104   7.071  13.911 -1.7386 -2.5262 -1.3155
   66MOL0     H 8881  -0.260   7.150  13.947  0.7307  0.7784 -0.9619
   66MOL0     H 8882  -0.078   7.000  14.153 -1.4423 -1.7177  2.8033
   66MOL0     H 8883  -0.198   6.925  14.048 -1.7772 -0.4131  0.8775
   66MOL0     H 8884  -0.262   6.938  14.292 -1.9030  0.5030  0.6103
   66MOL0     H 8885  -0.251   7.108  14.288  0.5002  0.4708 -0.4082
   66MOL0     H 8886  -0.441   6.972  14.081 -0.9008  0.8119 -0.2978
   66MOL0     H 8887  -0.453   7.125  14.155 -1.9432 -0.6277 -0.4038
   66MOL0     H 8888  -0.600   6.937  14.226  2.5723 -1.7444 -3.2075
   66MOL0     H 8889  -0.460   6.873  14.329  0.7524  0.4743  0.9099
   66MOL0     H 8890   0.250   7.157  13.688  0.9317 -0.3272 -0.0273
   66MOL0     H 8891   0.287   7.020  13.488  3.7592  2.9557  1.7278
   66MOL0     H 8892   0.054   7.073  12.881  1.0869  3.2008  1.6484
   66MOL0     H 8893   0.172   6.986  12.673  1.4018 -0.9634 -1.0492
   66MOL0     H 8894   0.886   7.701  11.167  0.1456  2.4202  2.3292
   66MOL0     H 8895   0.988   7.747  10.943 -0.2361 -0.5274 -0.4290
   66MOL0     H 8896   1.373   7.874  10.741  2.2277 -1.0122 -0.0990
   66MOL0     H 8897   1.427   7.987  10.527 -1.4091 -0.0387  0.4162
   66MOL0     H 8898   1.196   7.910  10.248  0.6750 -0.8137  1.9546
   66MOL0     H 8899   1.304   7.976  10.126 -0.4322 -4.1537 -0.9564
   66MOL0     H 8900   1.236   8.091  10.405 -3.6189  2.7177  0.6403
   66MOL0     H 8901   1.198   8.172  10.243 -2.2518 -1.6329 -0.0356
   66MOL0     H 8902   1.416   8.218  10.189  0.1781  0.9621  0.1833
   66MOL0     H 8903   1.479   8.127  10.332  0.1731  0.1477 -0.3859
   66MOL0     H 8904   1.348   8.293  10.466  0.4468 -0.1937 -0.5482
   66MOL0     H 8905   1.478   8.373  10.377 -0.8695 -0.1022  0.5171
   66MOL0     H 8906   1.243   8.602  10.170  0.6361  1.7608  1.0322
   66MOL0     H 8907   1.260   7.666  10.304 -0.7865  1.8276 -1.3341
   66MOL0     H 8908   1.179   7.495  10.379 -1.8153  0.4960 -0.0587
   66MOL0     H 8909   1.264   7.441  10.530  0.3847  0.8665  2.7188
   66MOL0     H 8910   1.092   7.489  10.534  0.2115 -3.0560 -0.6786
   67MOL0     O 8911   4.787   1.611  10.916  0.4888  0.5905  0.1003
   67MOL0     C 8912   4.724   1.532  10.843 -0.4007  0.0074  0.1704
   67MOL0     O 8913   4.603   1.556  10.778  0.0189 -0.4847 -0.1424
   67MOL0     C 8914   4.571   1.686  10.775  0.3058 -0.2546  0.5253
   67MOL0     C 8915   4.458   1.721  10.854 -0.6653 -0.0527 -0.5805
   67MOL0     C 8916   4.425   1.848  10.869  0.8064  0.0758  0.7641
   67MOL0     C 8917   4.502   1.951  10.799 -0.1467 -0.4659 -0.9965
   67MOL0     O 8918   4.456   2.084  10.837  0.5970  0.6163  0.0183
   67MOL0     C 8919   4.563   2.181  10.840  0.3171  0.0508  0.5751
   67MOL0     C 8920   4.573   2.240  10.979 -0.1250 -0.9259  0.0931
   67MOL0     C 8921   4.596   2.143  11.090  0.0474  0.2516 -0.4161
   67MOL0     C 8922   4.738   2.086  11.078  0.1955  0.2929  0.3347
   67MOL0     C 8923   4.796   2.008  11.200  0.4729  0.4451 -0.9928
   67MOL0     C 8924   4.710   1.875  11.212  0.2500 -1.2503 -1.0083
   67MOL0     C 8925   4.762   1.763  11.311  0.2822 -0.2637 -0.2229
   67MOL0     C 8926   4.893   1.706  11.263 -0.8624  0.6929 -0.4700
   67MOL0     N 8927   4.975   1.629  11.358  1.2653  0.1362  0.1643
   67MOL0     C 8928   4.937   1.604  11.486  0.3359 -0.4910 -0.1730
   67MOL0     C 8929   4.997   1.483  11.512  0.4885  0.1607 -0.8213
   67MOL0     C 8930   5.003   1.411  11.641 -0.3720  0.0293  0.9332
   67MOL0     C 8931   4.865   1.360  11.686 -0.5666 -0.3562 -0.1436
   67MOL0     C 8932   4.757   1.476  11.699 -0.0686  0.3263  0.0641
   67MOL0     C 8933   4.650   1.452  11.808  0.6605 -0.1616  0.1587
   67MOL0     O 8934   4.601   1.324  11.838  0.0844  0.4567 -0.1396
   67MOL0     C 8935   4.570   1.303  11.968  0.6786  0.6670 -0.9787
   67MOL0     C 8936   4.610   1.173  12.014 -0.0096 -0.1286  1.0394
   67MOL0     C 8937   4.586   1.141  12.143 -0.0314  0.4531  0.1868
   67MOL0     C 8938   4.521   1.230  12.225  0.1108 -0.9487  0.0053
   67MOL0     C 8939   4.514   1.190  12.361  0.8095 -0.2092 -0.0549
   67MOL0     O 8940   4.451   1.274  12.447  0.3058  0.1112 -0.5132
   67MOL0     C 8941   4.439   1.252  12.582 -0.7884 -0.0180 -0.0528
   67MOL0     C 8942   4.321   1.286  12.647 -1.6929 -0.0583  0.1610
   67MOL0     C 8943   4.306   1.251  12.780  0.3510  0.6416  1.2013
   67MOL0     C 8944   4.402   1.185  12.848 -0.8413 -0.9229  0.5942
   67MOL0     O 8945   4.367   1.159  12.977 -0.2896 -0.3713 -0.0762
   67MOL0     C 8946   4.445   1.064  13.046 -0.0069 -0.8370 -0.3746
   67MOL0     C 8947   4.386   1.034  13.193  0.1111  0.8564  0.4000
   67MOL0     C 8948   4.409   1.162  13.283 -0.0809  0.8161 -0.1069
   67MOL0     C 8949   4.342   1.141  13.418 -0.1892  1.0443 -0.4319
   67MOL0     C 8950   4.374   1.236  13.529  0.0026 -1.2036  0.3693
   67MOL0     C 8951   4.413   1.374  13.483  0.7646  0.4140 -0.7143
   67MOL0     C 8952   4.411   1.476  13.596 -0.3035 -0.5308 -0.8576
   67MOL0     C 8953   4.466   1.619  13.556  0.3571 -0.0017  0.4118
   67MOL0    Cl 8954   4.628   1.591  13.469  0.2411  0.1938  0.2955
   67MOL0     C 8955   4.530   1.155  12.784  0.1819  0.5306 -0.1830
   67MOL0     C 8956   4.545   1.196  12.653  0.0178 -0.0194  1.2433
   67MOL0     O 8957   4.570   1.083  12.393  0.5547  0.5581 -0.3743
   67MOL0     C 8958   4.463   1.355  12.178  0.7101 -0.7666  0.1509
   67MOL0     C 8959   4.492   1.395  12.049  0.1591 -0.4891  1.0060
   67MOL0     N 8960   5.063   1.437  11.396 -0.4779  0.0930 -0.4938
   67MOL0     N 8961   5.048   1.527  11.305  0.1169 -0.5361  0.8041
   67MOL0     C 8962   4.601   1.912  10.709 -0.5845 -0.9677 -0.7528
   67MOL0     C 8963   4.624   1.786  10.689  0.0704  0.0964 -0.1820
   67MOL0     C 8964   4.801   1.424  10.787  0.0969 -0.2009 -0.1028
   67MOL0     C 8965   4.776   1.385  10.660 -0.7904 -0.0409  0.5629
   67MOL0     C 8966   4.856   1.281  10.608  0.1062  0.2245  0.0945
   67MOL0     C 8967   4.965   1.217  10.675 -0.3911  0.6660 -0.6505
   67MOL0     O 8968   5.036   1.122  10.604  0.0926 -0.4721 -0.3643
   67MOL0     C 8969   5.136   1.035  10.667 -0.2003  1.1788 -0.2340
   67MOL0     C 8970   5.233   1.002  10.558  0.2418  0.0859  0.1273
   67MOL0     C 8971   5.292   1.134  10.497 -0.4618 -0.4662  0.4624
   67MOL0     C 8972   5.441   1.112  10.461 -0.2360 -0.2091  0.2598
   67MOL0     C 8973   5.538   1.084  10.568  0.2492  0.1257  0.5483
   67MOL0     C 8974   5.616   1.095  10.656 -1.1126  0.7833  1.1304
   67MOL0     C 8975   4.973   1.244  10.805 -0.8609 -0.6373  0.4616
   67MOL0     C 8976   4.897   1.345  10.858 -0.1400  0.5455 -0.0470
   67MOL0     C 8977   4.918   1.365  11.002 -0.5297 -0.1493  0.0549
   67MOL0     H 8978   4.393   1.648  10.900 -1.0892  2.2004  2.7677
   67MOL0     H 8979   4.334   1.882  10.918 -0.3606 -1.7133 -0.0672
   67MOL0     H 8980   4.657   2.140  10.801  0.6058 -1.1050  2.3791
   67MOL0     H 8981   4.529   2.248  10.760 -0.0686 -0.3199  0.4251
   67MOL0     H 8982   4.470   2.274  10.995 -0.3611 -1.5565 -0.0539
   67MOL0     H 8983   4.643   2.322  10.996 -0.3403 -1.0724  1.8395
   67MOL0     H 8984   4.528   2.057  11.083  1.5041 -0.7803 -3.3580
   67MOL0     H 8985   4.587   2.185  11.191 -2.1998 -1.5093  0.1972
   67MOL0     H 8986   4.745   2.016  10.994 -1.8774 -2.5913  2.3339
   67MOL0     H 8987   4.808   2.169  11.071 -1.6233  1.8258 -0.5788
   67MOL0     H 8988   4.898   1.988  11.167  1.8145 -0.4288  3.1855
   67MOL0     H 8989   4.797   2.066  11.292  0.3308  0.2166 -0.8448
   67MOL0     H 8990   4.608   1.902  11.240  2.1159  2.8821  3.0348
   67MOL0     H 8991   4.700   1.825  11.115 -0.4329 -1.6833 -0.7210
   67MOL0     H 8992   4.704   1.670  11.308  2.4163 -1.8885  3.1886
   67MOL0     H 8993   4.775   1.810  11.409  2.9298  0.2904 -0.7742
   67MOL0     H 8994   4.878   1.631  11.185  0.3232 -1.9182  1.6424
   67MOL0     H 8995   4.961   1.785  11.230 -0.4895 -0.7354 -3.5296
   67MOL0     H 8996   4.900   1.684  11.548  3.4205  2.0916 -1.3822
   67MOL0     H 8997   5.048   1.311  11.635 -2.8934 -1.3867  3.2878
   67MOL0     H 8998   5.053   1.469  11.720  0.0588 -1.7829  2.0456
   67MOL0     H 8999   4.821   1.292  11.611  2.4547 -0.4512 -1.9657
   67MOL0     H 9000   4.875   1.296  11.774 -2.9034 -2.4068 -1.2309
   67MOL0     H 9001   4.707   1.495  11.604  0.5137  1.5188 -0.0132
   67MOL0     H 9002   4.815   1.562  11.733  0.4701 -1.1698  3.3995
   67MOL0     H 9003   4.566   1.512  11.774  1.6715  1.0738 -0.2510
   67MOL0     H 9004   4.695   1.493  11.900  1.3086  3.5619 -1.6421
   67MOL0     H 9005   4.668   1.115  11.942  0.4980 -1.7932  2.7038
   67MOL0     H 9006   4.626   1.044  12.172 -0.0350  1.0569  2.3121
   67MOL0     H 9007   4.243   1.328  12.584 -0.6899  1.0209 -0.4162
   67MOL0     H 9008   4.219   1.275  12.841  0.6249  0.2816  1.7433
   67MOL0     H 9009   4.460   0.979  12.979  0.6398 -0.8216 -0.2573
   67MOL0     H 9010   4.541   1.104  13.080 -0.4189 -1.5065  1.7183
   67MOL0     H 9011   4.283   0.996  13.192  0.1440  0.6355  2.1325
   67MOL0     H 9012   4.448   0.954  13.236 -0.7667  0.0524  0.2079
   67MOL0     H 9013   4.517   1.175  13.288  0.5352 -1.8618 -3.2113
   67MOL0     H 9014   4.365   1.248  13.231  1.8255  2.8026  1.3798
   67MOL0     H 9015   4.370   1.041  13.453  3.9486  1.2259 -2.7217
   67MOL0     H 9016   4.233   1.142  13.407 -0.3341 -0.7998  0.3753
   67MOL0     H 9017   4.458   1.204  13.592  2.9539  1.0765 -2.0799
   67MOL0     H 9018   4.296   1.247  13.606  2.0054  1.2153  2.2492
   67MOL0     H 9019   4.513   1.364  13.439 -0.2921 -0.2531 -3.1113
   67MOL0     H 9020   4.346   1.410  13.405 -2.0281 -1.4480  0.6827
   67MOL0     H 9021   4.466   1.430  13.678 -3.1046  0.5510  1.8164
   67MOL0     H 9022   4.305   1.488  13.618 -0.4870 -2.2329 -0.7201
   67MOL0     H 9023   4.397   1.679  13.496  1.8977 -3.3116 -5.4717
   67MOL0     H 9024   4.488   1.685  13.640 -0.4094  0.2601  0.4064
   67MOL0     H 9025   4.611   1.106  12.836 -2.1384 -2.6929  0.7654
   67MOL0     H 9026   4.643   1.182  12.608  0.7273  1.5948  2.1836
   67MOL0     H 9027   4.413   1.424  12.244  2.7018 -0.7550  1.7392
   67MOL0     H 9028   4.462   1.492  12.011  3.3411  0.1766 -0.0792
   67MOL0     H 9029   4.652   1.976  10.638 -0.4196  0.7508  0.8039
   67MOL0     H 9030   4.691   1.747  10.614  1.1691 -3.2112  2.2831
   67MOL0     H 9031   4.701   1.434  10.599  0.0670 -0.8514 -1.2231
   67MOL0     H 9032   4.846   1.250  10.504  0.3858  0.8024 -0.1090
   67MOL0     H 9033   5.091   0.942  10.703  1.9210  0.5751  1.0444
   67MOL0     H 9034   5.186   1.077  10.755  0.8303 -2.6674  1.2273
   67MOL0     H 9035   5.184   0.945  10.479  1.2135 -0.2563 -0.2494
   67MOL0     H 9036   5.308   0.936  10.604 -1.5768 -0.8273  1.9591
   67MOL0     H 9037   5.303   1.214  10.572  2.4631  1.8235 -2.1202
   67MOL0     H 9038   5.235   1.177  10.414  2.2551  0.3849 -1.0899
   67MOL0     H 9039   5.447   1.028  10.390  1.8662  0.8576 -0.9144
   67MOL0     H 9040   5.472   1.206  10.414 -1.5848  2.2866  3.9132
   67MOL0     H 9041   5.689   1.096  10.734  1.2195  0.3799 -0.8953
   67MOL0     H 9042   5.054   1.195  10.859 -0.0665 -0.3568 -0.4451
   67MOL0     H 9043   4.989   1.447  11.015  1.4828 -1.6902 -0.8304
   67MOL0     H 9044   4.822   1.390  11.049 -1.4632  1.1203 -2.3353
   67MOL0     H 9045   4.961   1.279  11.054 -1.3530 -0.5660  0.0614
   68MOL0     O 9046   3.363  10.979   0.551  0.4011 -0.6526 -0.5033
   68MOL0     C 9047   3.465  10.931   0.593 -1.2981 -0.4909 -0.2551
   68MOL0     O 9048   3.496  10.799   0.606 -0.3067 -0.3183 -0.0032
   68MOL0     C 9049   3.390  10.718   0.579 -0.2660  0.2162  0.5020
   68MOL0     C 9050   3.276  10.715   0.662  0.3769  0.5547  0.3558
   68MOL0     C 9051   3.174  10.625   0.638  1.2496  0.1918  0.6208
   68MOL0     C 9052   3.178  10.536   0.535 -0.4034 -0.3571  0.1662
   68MOL0     O 9053   3.079  10.444   0.511  0.2481 -0.1026 -0.3566
   68MOL0     C 9054   2.950  10.503   0.479 -1.6429  0.5242  0.3014
   68MOL0     C 9055   2.836  10.420   0.520 -0.8718  0.0784  0.5593
   68MOL0     C 9056   2.848  10.326   0.642  0.0741 -0.1317  0.1498
   68MOL0     C 9057   2.864  10.408   0.772 -0.2285 -0.0036  0.6003
   68MOL0     C 9058   2.921  10.318   0.886 -0.1035 -0.1725 -0.8398
   68MOL0     C 9059   2.808  10.210   0.930 -0.5917  0.2835 -0.2878
   68MOL0     C 9060   2.839  10.122   1.060 -0.0001 -0.1498 -0.7792
   68MOL0     C 9061   2.806  10.209   1.190 -0.0052  0.1982  0.2095
   68MOL0     N 9062   2.665  10.205   1.228 -0.5148 -0.7762 -0.0172
   68MOL0     C 9063   2.592  10.092   1.250 -0.7799  1.1362  0.5592
   68MOL0     C 9064   2.477  10.130   1.304  0.4982  0.5146  0.0469
   68MOL0     C 9065   2.371  10.031   1.357 -0.5462  0.3494  0.4031
   68MOL0     C 9066   2.301   9.959   1.245 -0.5833  0.1917 -0.2384
   68MOL0     C 9067   2.379   9.852   1.173 -0.5866 -0.4513  0.1953
   68MOL0     C 9068   2.291   9.758   1.076 -0.8224 -0.1965 -0.1308
   68MOL0     O 9069   2.368   9.650   1.016  0.5604  0.1003  0.0153
   68MOL0     C 9070   2.375   9.537   1.082 -0.0961  0.6139  0.4632
   68MOL0     C 9071   2.270   9.441   1.077  0.4808 -0.1896  0.1574
   68MOL0     C 9072   2.262   9.323   1.159 -0.4815 -0.7062  0.3328
   68MOL0     C 9073   2.363   9.298   1.247  0.3150 -0.7579  0.1806
   68MOL0     C 9074   2.365   9.177   1.337 -0.3430 -1.2383  0.2581
   68MOL0     O 9075   2.272   9.078   1.322 -0.7577  0.0649  0.1178
   68MOL0     C 9076   2.281   8.965   1.397 -0.2493 -0.5181 -0.0788
   68MOL0     C 9077   2.372   8.860   1.375 -0.4550  0.1350  0.0300
   68MOL0     C 9078   2.377   8.754   1.463  0.1641  0.4423 -0.4000
   68MOL0     C 9079   2.282   8.745   1.565  0.8102  0.0781 -0.1627
   68MOL0     O 9080   2.285   8.652   1.660  0.7803  0.0660 -0.0647
   68MOL0     C 9081   2.317   8.706   1.789  0.1924 -0.2963 -0.4994
   68MOL0     C 9082   2.354   8.588   1.869 -0.1016  0.1253 -0.8457
   68MOL0     C 9083   2.235   8.510   1.929 -0.1758 -1.1807 -0.6880
   68MOL0     C 9084   2.281   8.376   1.989  0.4658  0.1039  0.0678
   68MOL0     C 9085   2.173   8.310   2.075  0.2894 -0.4026  0.5367
   68MOL0     C 9086   2.199   8.159   2.118  0.1865  0.1007  0.0110
   68MOL0     C 9087   2.276   8.154   2.250 -0.0574  0.1072  0.2523
   68MOL0     C 9088   2.234   8.036   2.346  0.5311 -1.0046 -0.0778
   68MOL0    Cl 9089   2.318   8.065   2.499  1.0757  0.0353  0.1417
   68MOL0     C 9090   2.203   8.856   1.578 -0.6071 -0.3371 -0.1060
   68MOL0     C 9091   2.199   8.967   1.503  0.2497 -0.4836  0.0919
   68MOL0     O 9092   2.447   9.177   1.421 -0.1787 -0.1664  0.2109
   68MOL0     C 9093   2.470   9.393   1.247  0.1828 -0.1999  0.7146
   68MOL0     C 9094   2.486   9.499   1.155  0.1466 -0.0689  0.7644
   68MOL0     N 9095   2.480  10.260   1.332 -0.8944 -0.7471 -0.0108
   68MOL0     N 9096   2.588  10.306   1.279 -0.7790  0.0484 -0.7221
   68MOL0     C 9097   3.277  10.557   0.436 -0.4740 -0.6563 -0.5072
   68MOL0     C 9098   3.389  10.642   0.461  0.5861 -0.1511 -0.8872
   68MOL0     C 9099   3.573  11.029   0.604  0.4544  0.0453 -0.3620
   68MOL0     C 9100   3.673  11.025   0.505  0.6477  0.2949 -0.3291
   68MOL0     C 9101   3.786  11.104   0.521 -0.0964 -0.2266  0.1134
   68MOL0     C 9102   3.814  11.177   0.636 -0.1401  0.5322  0.2250
   68MOL0     O 9103   3.933  11.238   0.633  0.2532 -0.1821  0.0295
   68MOL0     C 9104   3.961  11.346   0.724  0.6083 -0.1875  0.9743
   68MOL0     C 9105   4.095  11.416   0.692  0.4129  0.1552  0.2027
   68MOL0     C 9106   4.114  11.545   0.786 -1.2835  0.8279  0.6450
   68MOL0     C 9107   4.272  11.585   0.788  1.0407 -0.1388 -0.3728
   68MOL0     C 9108   4.293  11.708   0.870  0.1013  0.6603  0.6610
   68MOL0     C 9109   4.304  11.806   0.928 -0.4296 -0.4900 -0.2594
   68MOL0     C 9110   3.709  11.191   0.729 -0.8362 -0.3190 -0.1018
   68MOL0     C 9111   3.582  11.125   0.706 -0.1457  0.1598  0.2695
   68MOL0     C 9112   3.476  11.155   0.796 -0.3332 -1.0569 -0.7305
   68MOL0     H 9113   3.269  10.771   0.754 -0.1898 -0.3809  0.9111
   68MOL0     H 9114   3.097  10.628   0.714  0.2206 -1.8093 -0.2769
   68MOL0     H 9115   2.943  10.596   0.536  1.1508  1.0542 -0.0852
   68MOL0     H 9116   2.952  10.537   0.375  2.3680 -1.3978 -0.4367
   68MOL0     H 9117   2.824  10.348   0.438  0.6108 -1.6630  1.7924
   68MOL0     H 9118   2.749  10.486   0.514 -2.8249 -2.4594 -1.4647
   68MOL0     H 9119   2.938  10.266   0.629  0.1173  0.0728 -0.4991
   68MOL0     H 9120   2.760  10.262   0.648 -1.1400  1.4957  0.5426
   68MOL0     H 9121   2.945  10.481   0.760  0.3373 -1.0100 -3.0027
   68MOL0     H 9122   2.768  10.455   0.793  0.3063  1.2211  0.4080
   68MOL0     H 9123   3.022  10.287   0.860  1.1650  2.9720 -0.1395
   68MOL0     H 9124   2.937  10.383   0.973 -3.9267  0.6123 -0.5247
   68MOL0     H 9125   2.715  10.263   0.955  0.2983  0.5528  2.8551
   68MOL0     H 9126   2.792  10.141   0.847 -1.5699 -1.7956  1.5209
   68MOL0     H 9127   2.945  10.096   1.071  0.2979  1.6597  1.6390
   68MOL0     H 9128   2.778  10.032   1.061 -0.2584 -0.2009  4.2403
   68MOL0     H 9129   2.875  10.172   1.266 -0.6375  1.9408  1.6933
   68MOL0     H 9130   2.820  10.317   1.180  1.2292 -0.0441 -0.8547
   68MOL0     H 9131   2.612   9.994   1.207 -3.9263  0.6457 -0.0409
   68MOL0     H 9132   2.423   9.967   1.428  1.0907  2.7175  1.4774
   68MOL0     H 9133   2.296  10.090   1.412 -0.8173  0.0739  0.3292
   68MOL0     H 9134   2.211   9.908   1.281 -0.6039 -0.4132 -1.1267
   68MOL0     H 9135   2.275  10.031   1.167  1.7827  2.3278  0.8190
   68MOL0     H 9136   2.399   9.779   1.252  3.5490  0.2759  0.0209
   68MOL0     H 9137   2.469   9.898   1.132  0.4369 -1.3956  1.2917
   68MOL0     H 9138   2.256   9.812   0.988  0.9565  0.2548 -0.6154
   68MOL0     H 9139   2.204   9.729   1.134 -0.4495 -0.9672  0.0631
   68MOL0     H 9140   2.210   9.451   0.987  0.7918  1.3949  0.0851
   68MOL0     H 9141   2.188   9.245   1.142 -0.4063 -1.0405  1.4801
   68MOL0     H 9142   2.434   8.872   1.287 -1.6229  0.3259 -0.7945
   68MOL0     H 9143   2.445   8.669   1.460  0.5879  0.6268  1.9851
   68MOL0     H 9144   2.408   8.767   1.788 -0.5414  0.8232 -1.5307
   68MOL0     H 9145   2.237   8.762   1.838 -0.6617 -1.1372 -0.8948
   68MOL0     H 9146   2.418   8.523   1.809  2.4369  0.8605  0.9119
   68MOL0     H 9147   2.419   8.618   1.952 -0.9169 -2.4959  0.8760
   68MOL0     H 9148   2.176   8.578   1.991  0.2041  0.9410 -2.5391
   68MOL0     H 9149   2.165   8.478   1.851  0.0359  0.7322 -1.7335
   68MOL0     H 9150   2.371   8.389   2.049  1.8876  0.4711 -2.0148
   68MOL0     H 9151   2.299   8.305   1.908  1.3651 -0.1169  0.4464
   68MOL0     H 9152   2.082   8.310   2.014  1.9158  0.9910 -2.0209
   68MOL0     H 9153   2.140   8.371   2.160  1.2027 -0.9089  1.2647
   68MOL0     H 9154   2.098   8.117   2.116 -0.0641  0.6541  0.7787
   68MOL0     H 9155   2.258   8.109   2.041  1.6740 -2.3554  2.5494
   68MOL0     H 9156   2.276   8.251   2.300  1.4162  0.3417 -0.1414
   68MOL0     H 9157   2.381   8.133   2.225 -0.1590 -2.4576  1.6557
   68MOL0     H 9158   2.127   8.044   2.369  0.9414  0.7222  1.4437
   68MOL0     H 9159   2.257   7.936   2.307  0.6274 -0.4552 -1.4695
   68MOL0     H 9160   2.137   8.874   1.663 -0.3743  3.1046 -0.5327
   68MOL0     H 9161   2.120   9.038   1.529 -0.9949 -1.8960  0.2873
   68MOL0     H 9162   2.551   9.377   1.318 -2.1937 -4.4969  2.8667
   68MOL0     H 9163   2.573   9.562   1.162  1.2949 -1.1093 -2.4683
   68MOL0     H 9164   3.281  10.488   0.352  0.4148 -1.5243  0.2276
   68MOL0     H 9165   3.471  10.646   0.390  0.2588 -0.3171 -1.2853
   68MOL0     H 9166   3.655  10.971   0.413  0.8766  4.1331 -2.8724
   68MOL0     H 9167   3.856  11.105   0.438 -0.1870 -1.4155  0.0008
   68MOL0     H 9168   3.968  11.301   0.824 -1.7961 -0.4320  1.1137
   68MOL0     H 9169   3.878  11.417   0.735  0.9524  0.3247  0.3375
   68MOL0     H 9170   4.096  11.440   0.586  0.0588  1.9621  0.5726
   68MOL0     H 9171   4.166  11.337   0.718  0.2968 -0.2248 -0.6137
   68MOL0     H 9172   4.075  11.526   0.887 -1.4943  1.4451  0.6869
   68MOL0     H 9173   4.052  11.627   0.747 -1.4807  0.5798  0.4308
   68MOL0     H 9174   4.330  11.499   0.824 -0.9208 -0.0217  3.6161
   68MOL0     H 9175   4.312  11.610   0.690  0.3595 -2.1993 -1.2243
   68MOL0     H 9176   4.307  11.889   0.996  1.5674  1.5580 -2.6547
   68MOL0     H 9177   3.721  11.241   0.825 -3.7959 -1.3207  0.8977
   68MOL0     H 9178   3.513  11.218   0.877 -1.9323 -2.5580  1.2664
   68MOL0     H 9179   3.413  11.225   0.741  3.6372  3.5715 -0.0318
   68MOL0     H 9180   3.428  11.065   0.836 -0.5044 -0.2110  1.0287
   69MOL0     O 9181   2.866   3.371   8.247 -0.1926 -0.5293  0.0308
   69MOL0     C 9182   2.803   3.403   8.152  1.0100  0.5276 -0.0551
   69MOL0     O 9183   2.776   3.321   8.060  0.8419 -1.3247  0.2723
   69MOL0     C 9184   2.750   3.195   8.095 -0.3000  1.3277  0.5975
   69MOL0     C 9185   2.623   3.134   8.109  0.0102  0.1847  0.3330
   69MOL0     C 9186   2.613   3.000   8.143  0.2508 -0.4978 -0.5716
   69MOL0     C 9187   2.722   2.918   8.160  0.0318 -0.9005  0.7470
   69MOL0     O 9188   2.703   2.794   8.218 -0.8122  0.0622 -0.6339
   69MOL0     C 9189   2.813   2.750   8.299 -0.1381  0.0732 -1.1096
   69MOL0     C 9190   2.890   2.636   8.240  0.9223 -0.1224 -0.3347
   69MOL0     C 9191   2.806   2.533   8.175  0.1905  0.3309  0.8662
   69MOL0     C 9192   2.875   2.412   8.108  0.1560  0.3310  0.7449
   69MOL0     C 9193   2.772   2.311   8.069 -0.2132  0.6320 -0.0466
   69MOL0     C 9194   2.833   2.169   8.041  0.1999 -0.4224  0.3159
   69MOL0     C 9195   2.724   2.060   8.037  0.4870  1.0451  0.3706
   69MOL0     C 9196   2.673   2.039   7.893 -0.4245  0.4802 -1.0107
   69MOL0     N 9197   2.590   1.921   7.886 -0.6265  0.3279 -0.2461
   69MOL0     C 9198   2.477   1.901   7.970 -0.3434 -1.2387 -0.4654
   69MOL0     C 9199   2.438   1.777   7.954 -0.1975  0.0681  0.3666
   69MOL0     C 9200   2.316   1.702   8.006 -0.3076  0.0995 -0.3651
   69MOL0     C 9201   2.344   1.644   8.142  0.2209 -0.6727 -0.7530
   69MOL0     C 9202   2.248   1.519   8.173 -0.4469 -0.6949  0.4356
   69MOL0     C 9203   2.100   1.547   8.176 -0.5258 -0.2378 -0.3417
   69MOL0     O 9204   2.048   1.430   8.252 -0.3314  0.7492  0.4612
   69MOL0     C 9205   1.938   1.353   8.209 -0.0396 -0.0322 -0.7724
   69MOL0     C 9206   1.924   1.218   8.249 -0.1795 -0.2554  0.6868
   69MOL0     C 9207   1.817   1.137   8.214  0.1963  0.7515 -0.1412
   69MOL0     C 9208   1.714   1.182   8.129 -0.0429 -0.0188 -0.4074
   69MOL0     C 9209   1.585   1.112   8.105 -1.6440  0.2844  0.1601
   69MOL0     O 9210   1.483   1.179   8.046 -0.1817  0.2493 -0.4263
   69MOL0     C 9211   1.374   1.110   8.010  0.4331  1.2671  0.3279
   69MOL0     C 9212   1.327   1.114   7.875 -0.6150 -0.2969 -1.0834
   69MOL0     C 9213   1.209   1.046   7.836  0.2444  0.0722 -0.1771
   69MOL0     C 9214   1.137   0.968   7.928  0.3574  0.0709  0.1372
   69MOL0     O 9215   1.028   0.892   7.887  0.0079 -0.0266  0.2501
   69MOL0     C 9216   1.051   0.755   7.892  0.0757  0.2071 -0.0631
   69MOL0     C 9217   0.902   0.703   7.875  0.2906  0.8882 -0.5134
   69MOL0     C 9218   0.820   0.766   7.993 -0.2125  0.7017 -0.1410
   69MOL0     C 9219   0.688   0.685   8.007 -0.2399 -0.9900  0.0960
   69MOL0     C 9220   0.710   0.564   8.095 -0.1463  1.2173  0.2132
   69MOL0     C 9221   0.589   0.471   8.099 -0.0939  0.7858  0.6471
   69MOL0     C 9222   0.594   0.376   8.224  0.5535 -0.6703 -0.2975
   69MOL0     C 9223   0.458   0.305   8.253 -0.1865 -0.7038  0.1526
   69MOL0    Cl 9224   0.409   0.206   8.106 -0.1124 -0.1946 -0.1339
   69MOL0     C 9225   1.182   0.970   8.064  0.1356  0.5087  0.1397
   69MOL0     C 9226   1.293   1.044   8.101 -0.7819 -1.0349  0.2814
   69MOL0     O 9227   1.579   1.002   8.147  0.5188  0.8366 -0.5342
   69MOL0     C 9228   1.727   1.316   8.093  0.9118 -1.9853 -0.1167
   69MOL0     C 9229   1.834   1.406   8.125 -0.3742  0.1281 -0.4415
   69MOL0     N 9230   2.519   1.716   7.861 -0.1390 -0.4199  0.3027
   69MOL0     N 9231   2.614   1.805   7.829  0.5040 -0.0845  0.2631
   69MOL0     C 9232   2.847   2.976   8.139  0.2160 -0.1797  0.8851
   69MOL0     C 9233   2.866   3.113   8.104 -0.6711 -0.7279 -0.4975
   69MOL0     C 9234   2.783   3.546   8.110  0.2098  0.8066 -1.1809
   69MOL0     C 9235   2.726   3.569   7.980 -0.5888 -0.6652  0.2992
   69MOL0     C 9236   2.701   3.699   7.931 -0.6853 -0.0993  0.0092
   69MOL0     C 9237   2.737   3.816   7.997 -0.9606 -0.6436 -0.4337
   69MOL0     O 9238   2.727   3.955   7.969 -0.5405 -0.1743  0.3092
   69MOL0     C 9239   2.661   3.987   7.846  0.2948 -0.1680  0.6848
   69MOL0     C 9240   2.622   4.129   7.851 -0.4019 -1.1628 -0.8540
   69MOL0     C 9241   2.734   4.228   7.884  0.0737 -0.7608 -0.0352
   69MOL0     C 9242   2.730   4.296   8.022 -0.4232  0.0701 -0.3276
   69MOL0     C 9243   2.827   4.401   8.019 -0.5018  0.6195 -0.8022
   69MOL0     C 9244   2.910   4.486   8.011  0.0706 -0.1088  0.0695
   69MOL0     C 9245   2.801   3.798   8.123 -0.0452 -0.2055 -0.5921
   69MOL0     C 9246   2.822   3.663   8.177 -0.4773  0.6836 -0.8217
   69MOL0     C 9247   2.883   3.644   8.317 -0.0359  0.1426 -0.1474
   69MOL0     H 9248   2.535   3.195   8.092 -0.5510 -1.6072 -5.0424
   69MOL0     H 9249   2.512   2.961   8.151 -0.3085  1.2755  4.1154
   69MOL0     H 9250   2.882   2.828   8.333  1.1467 -0.2572 -2.8446
   69MOL0     H 9251   2.759   2.704   8.382 -1.1541 -0.1246 -1.8587
   69MOL0     H 9252   2.960   2.595   8.313  0.1693 -0.2706  0.3217
   69MOL0     H 9253   2.945   2.679   8.157  2.7363 -1.2398  0.2366
   69MOL0     H 9254   2.748   2.575   8.092  1.3921 -1.5206 -1.0115
   69MOL0     H 9255   2.738   2.497   8.253 -0.7134  2.0711  0.9303
   69MOL0     H 9256   2.944   2.444   8.029 -3.1252 -1.3223 -3.1692
   69MOL0     H 9257   2.938   2.367   8.186 -0.4124 -0.1033  0.9604
   69MOL0     H 9258   2.703   2.300   8.153 -0.5118  0.8294 -0.2665
   69MOL0     H 9259   2.722   2.333   7.975  1.1772  0.6075 -0.8232
   69MOL0     H 9260   2.883   2.173   7.944 -0.1606 -1.0630  0.0952
   69MOL0     H 9261   2.904   2.143   8.120 -1.0302 -1.7249  1.0254
   69MOL0     H 9262   2.643   2.081   8.107 -1.6164 -0.1643 -1.5618
   69MOL0     H 9263   2.756   1.957   8.053 -2.3764  0.0384  0.0887
   69MOL0     H 9264   2.624   2.133   7.865  2.4434  3.1416  1.9839
   69MOL0     H 9265   2.758   2.031   7.824 -1.2313  1.4099 -2.1415
   69MOL0     H 9266   2.432   1.973   8.038 -1.1283 -3.1161  1.0867
   69MOL0     H 9267   2.236   1.776   8.015  0.1321  0.6547 -0.8919
   69MOL0     H 9268   2.292   1.624   7.933  0.9790 -1.0415  0.3796
   69MOL0     H 9269   2.447   1.610   8.155  0.3055 -0.3712 -0.6235
   69MOL0     H 9270   2.317   1.723   8.213  0.6461 -1.0496 -0.1542
   69MOL0     H 9271   2.277   1.492   8.275  1.2062  0.9031  0.4423
   69MOL0     H 9272   2.276   1.444   8.099 -2.2610 -0.4433 -0.5659
   69MOL0     H 9273   2.056   1.557   8.077 -2.5741 -1.4902  0.3655
   69MOL0     H 9274   2.097   1.639   8.236  2.5036  1.7433 -2.9628
   69MOL0     H 9275   2.005   1.174   8.306 -0.4837 -2.6356 -0.5982
   69MOL0     H 9276   1.807   1.044   8.269  4.1206  0.9461  1.2689
   69MOL0     H 9277   1.389   1.170   7.806  0.7738  0.6866  0.8663
   69MOL0     H 9278   1.166   1.054   7.737  0.7091 -0.0703 -0.3957
   69MOL0     H 9279   1.102   0.724   7.801  1.6837  1.4037  0.3709
   69MOL0     H 9280   1.098   0.722   7.986 -0.9884 -4.0231 -0.8119
   69MOL0     H 9281   0.849   0.741   7.787 -1.3917 -0.1768  0.0052
   69MOL0     H 9282   0.900   0.595   7.889  1.1554  0.9912  0.5285
   69MOL0     H 9283   0.873   0.767   8.089  0.9886  0.8722 -0.7836
   69MOL0     H 9284   0.790   0.869   7.972 -3.3463  0.1965  1.2306
   69MOL0     H 9285   0.629   0.653   7.920 -0.4860  0.5823 -0.3541
   69MOL0     H 9286   0.614   0.750   8.056  0.3540 -0.4501  0.2857
   69MOL0     H 9287   0.733   0.595   8.197  2.2902 -2.6449  1.0447
   69MOL0     H 9288   0.798   0.510   8.060 -1.8484 -0.5878 -1.5332
   69MOL0     H 9289   0.491   0.519   8.108 -0.8265 -0.7649  1.2085
   69MOL0     H 9290   0.583   0.411   8.008  0.3955  2.2852 -0.4135
   69MOL0     H 9291   0.628   0.437   8.308 -1.5640 -0.5223  0.5268
   69MOL0     H 9292   0.668   0.297   8.211  1.0992 -0.5930  2.0246
   69MOL0     H 9293   0.459   0.251   8.348  0.9427 -0.7027  0.1438
   69MOL0     H 9294   0.381   0.381   8.272 -0.3583 -0.6900 -0.5606
   69MOL0     H 9295   1.122   0.912   8.133 -0.6411 -0.4441 -1.2886
   69MOL0     H 9296   1.312   1.054   8.207  3.3029 -0.2284 -0.3342
   69MOL0     H 9297   1.652   1.375   8.042  1.7214  0.0908  0.9456
   69MOL0     H 9298   1.832   1.507   8.086 -0.6802  0.8084  1.2514
   69MOL0     H 9299   2.938   2.917   8.145  0.5410 -0.2763 -2.8061
   69MOL0     H 9300   2.959   3.166   8.084  0.8941 -3.8729 -2.1252
   69MOL0     H 9301   2.699   3.486   7.915  1.9240 -1.9071  0.7306
   69MOL0     H 9302   2.666   3.698   7.828  0.6078 -3.3821 -0.5138
   69MOL0     H 9303   2.575   3.923   7.826 -0.5310  0.7798  1.1044
   69MOL0     H 9304   2.729   3.978   7.761 -0.4148  2.2420 -0.2169
   69MOL0     H 9305   2.553   4.136   7.936  0.9610 -0.7201  0.2480
   69MOL0     H 9306   2.570   4.179   7.769 -1.2894  0.5727  0.6864
   69MOL0     H 9307   2.735   4.301   7.802 -2.6469 -1.9254 -1.2166
   69MOL0     H 9308   2.831   4.178   7.871 -0.5581 -1.5617 -2.0675
   69MOL0     H 9309   2.630   4.338   8.035  0.4864  1.8266  1.7324
   69MOL0     H 9310   2.760   4.225   8.100  1.0206  0.8978 -0.0826
   69MOL0     H 9311   2.989   4.559   8.006 -0.1337  0.0358 -1.6907
   69MOL0     H 9312   2.830   3.874   8.195  2.6007 -2.2326  0.6572
   69MOL0     H 9313   2.980   3.594   8.311 -0.6331 -1.7831  3.6219
   69MOL0     H 9314   2.896   3.744   8.358  0.5217  0.0614 -0.1297
   69MOL0     H 9315   2.815   3.596   8.388  1.5499 -1.3605  0.4000
   70MOL0     O 9316   5.338   8.858   2.948  0.1860 -0.4721  0.1046
   70MOL0     C 9317   5.321   8.978   2.941 -0.6916 -1.4440 -0.1362
   70MOL0     O 9318   5.260   9.046   2.838  0.3641 -0.1078 -0.4386
   70MOL0     C 9319   5.148   8.989   2.771  0.3577  0.1496 -0.6968
   70MOL0     C 9320   5.063   8.889   2.826  0.2831 -0.4037 -0.3909
   70MOL0     C 9321   4.960   8.823   2.759  1.1373  0.2564  0.5395
   70MOL0     C 9322   4.940   8.851   2.627 -1.2840 -0.9090  0.2240
   70MOL0     O 9323   4.841   8.791   2.549 -0.1854 -0.0638  0.2964
   70MOL0     C 9324   4.782   8.670   2.598 -0.4752  0.3539 -0.0348
   70MOL0     C 9325   4.684   8.610   2.499  0.8275  0.0231 -1.2549
   70MOL0     C 9326   4.775   8.541   2.395 -0.1675  0.5201 -0.0952
   70MOL0     C 9327   4.684   8.483   2.281 -0.6739 -0.2521  0.5956
   70MOL0     C 9328   4.768   8.405   2.184  0.8142  0.7248 -0.2297
   70MOL0     C 9329   4.675   8.355   2.071 -0.3046  0.1508  0.4027
   70MOL0     C 9330   4.710   8.417   1.943  0.2277  0.7045  0.1009
   70MOL0     C 9331   4.589   8.400   1.840  0.0096 -0.4960 -0.4634
   70MOL0     N 9332   4.630   8.408   1.701  0.6932 -0.3283 -0.8032
   70MOL0     C 9333   4.732   8.481   1.656 -0.2624 -1.0719  0.7988
   70MOL0     C 9334   4.726   8.479   1.521  0.4853  1.0907  1.4900
   70MOL0     C 9335   4.807   8.584   1.439  1.3042  0.3648 -0.8577
   70MOL0     C 9336   4.741   8.599   1.298 -0.5699 -0.6277  0.0806
   70MOL0     C 9337   4.616   8.680   1.285 -0.4250  0.1348  0.4718
   70MOL0     C 9338   4.614   8.825   1.337 -0.0309 -0.1614 -0.2568
   70MOL0     O 9339   4.728   8.890   1.276 -0.8780 -0.3148 -0.8554
   70MOL0     C 9340   4.775   9.001   1.333 -0.5001  0.1728 -0.3159
   70MOL0     C 9341   4.826   9.096   1.243 -0.4047  0.6932 -0.2527
   70MOL0     C 9342   4.866   9.226   1.274  0.7577 -0.4574 -1.0056
   70MOL0     C 9343   4.859   9.280   1.401 -0.1524 -0.3421 -0.0030
   70MOL0     C 9344   4.918   9.401   1.454 -0.2478 -0.7530  0.9538
   70MOL0     O 9345   4.912   9.413   1.583  0.4213 -0.5519 -0.0530
   70MOL0     C 9346   4.968   9.512   1.661  0.1678  0.7720 -0.0071
   70MOL0     C 9347   4.883   9.602   1.720 -0.7848 -0.1108 -0.6672
   70MOL0     C 9348   4.932   9.704   1.798 -0.4661 -0.5043  0.0161
   70MOL0     C 9349   5.068   9.724   1.808 -0.2599 -0.4413 -0.3938
   70MOL0     O 9350   5.130   9.817   1.881 -0.3222  0.2075 -0.8234
   70MOL0     C 9351   5.061   9.919   1.948 -0.3625  0.4773 -0.2938
   70MOL0     C 9352   5.025  10.025   1.839  0.6157  0.4457 -0.1725
   70MOL0     C 9353   5.000  10.155   1.918 -1.2892 -0.9132 -0.1325
   70MOL0     C 9354   5.127  10.246   1.909 -0.6225  0.1690  1.0892
   70MOL0     C 9355   5.161  10.340   2.028 -0.1703 -0.2207  0.3557
   70MOL0     C 9356   5.077  10.475   2.007  0.1073  0.4628 -0.3142
   70MOL0     C 9357   5.083  10.564   2.139 -0.3313 -0.9360 -0.4212
   70MOL0     C 9358   5.050  10.711   2.122 -0.4836 -0.2449 -0.9370
   70MOL0    Cl 9359   5.191  10.808   2.073  0.6936  0.0047 -0.1508
   70MOL0     C 9360   5.157   9.626   1.741  1.3289 -0.2805 -0.2384
   70MOL0     C 9361   5.102   9.523   1.664  0.2168  0.2060 -0.2942
   70MOL0     O 9362   4.967   9.489   1.379 -0.2764 -0.2719 -0.1574
   70MOL0     C 9363   4.798   9.190   1.492 -0.0162 -0.0509  0.5795
   70MOL0     C 9364   4.757   9.050   1.460  0.7926 -0.3447  0.0415
   70MOL0     N 9365   4.626   8.381   1.490 -0.0252 -0.7425  0.2853
   70MOL0     N 9366   4.580   8.339   1.606  0.6521 -0.3561  0.5521
   70MOL0     C 9367   5.027   8.946   2.563  0.1501 -0.4562 -0.9048
   70MOL0     C 9368   5.124   9.013   2.636  0.2036 -0.3893 -0.5367
   70MOL0     C 9369   5.415   9.063   3.037  1.0955  1.5050 -0.2907
   70MOL0     C 9370   5.473   9.175   2.978 -0.3131 -0.0872  0.2372
   70MOL0     C 9371   5.552   9.254   3.054  0.5678  0.3821  0.5466
   70MOL0     C 9372   5.598   9.206   3.180  0.1297  0.4362 -1.6986
   70MOL0     O 9373   5.684   9.278   3.257 -0.0354 -0.4178 -0.2722
   70MOL0     C 9374   5.767   9.380   3.208 -0.3108 -0.1877 -0.6048
   70MOL0     C 9375   5.887   9.398   3.305  0.9808  0.1585 -0.5252
   70MOL0     C 9376   5.986   9.497   3.259  0.3965 -0.5950  0.4554
   70MOL0     C 9377   6.064   9.584   3.358 -0.4711  0.4755 -0.5555
   70MOL0     C 9378   6.165   9.517   3.441  1.1389  0.2416 -0.4485
   70MOL0     C 9379   6.253   9.500   3.527 -0.0905  0.1155  0.4345
   70MOL0     C 9380   5.544   9.092   3.231  0.1249  0.2378  0.2402
   70MOL0     C 9381   5.461   9.013   3.157  0.3360  0.7640  0.5122
   70MOL0     C 9382   5.406   8.901   3.234 -0.0746  0.4182 -0.1127
   70MOL0     H 9383   5.071   8.846   2.925  2.2833  1.4819  0.3336
   70MOL0     H 9384   4.887   8.768   2.817  1.6949 -1.0302  0.0541
   70MOL0     H 9385   4.861   8.597   2.621  0.6984  1.4273 -0.5146
   70MOL0     H 9386   4.727   8.703   2.687 -0.1589 -0.6846  0.5611
   70MOL0     H 9387   4.624   8.690   2.457  1.5294  0.3861 -1.5872
   70MOL0     H 9388   4.615   8.548   2.558 -0.7576  1.1769 -1.8334
   70MOL0     H 9389   4.838   8.470   2.449 -0.9216 -0.4292 -0.4446
   70MOL0     H 9390   4.837   8.612   2.339  1.1240 -1.5177 -1.3823
   70MOL0     H 9391   4.610   8.412   2.319  1.1150 -1.1032  2.7091
   70MOL0     H 9392   4.640   8.571   2.233 -0.5932  1.0217  2.7599
   70MOL0     H 9393   4.855   8.464   2.154  0.6956  2.1934  2.0697
   70MOL0     H 9394   4.803   8.316   2.238 -1.2513 -1.9399 -2.9497
   70MOL0     H 9395   4.678   8.245   2.075 -2.4441  0.0281 -0.1108
   70MOL0     H 9396   4.573   8.377   2.100 -0.2467 -0.8044  1.3990
   70MOL0     H 9397   4.785   8.356   1.892  1.0841  3.0973 -1.7336
   70MOL0     H 9398   4.748   8.520   1.949  0.2958  0.6171  1.2354
   70MOL0     H 9399   4.546   8.303   1.866  2.0693 -1.1363  0.7934
   70MOL0     H 9400   4.508   8.471   1.858 -1.0525 -2.1528  1.8243
   70MOL0     H 9401   4.803   8.543   1.710 -1.8273 -1.4272  3.4104
   70MOL0     H 9402   4.822   8.674   1.498  1.2934  1.2553 -2.1654
   70MOL0     H 9403   4.906   8.540   1.422  0.4504 -1.9985 -0.1324
   70MOL0     H 9404   4.812   8.645   1.228  0.3715  0.6451  1.7858
   70MOL0     H 9405   4.729   8.499   1.257 -2.6508  0.4070 -2.1290
   70MOL0     H 9406   4.545   8.624   1.346  0.5693  0.9226  2.4162
   70MOL0     H 9407   4.581   8.681   1.181 -1.3240  1.2960  0.7704
   70MOL0     H 9408   4.626   8.813   1.445 -1.2114 -3.2057 -0.3656
   70MOL0     H 9409   4.522   8.880   1.318  0.7633  1.6537  0.8279
   70MOL0     H 9410   4.847   9.066   1.140  1.0930  0.1631  0.1722
   70MOL0     H 9411   4.909   9.282   1.192 -2.1390  0.5640 -1.9463
   70MOL0     H 9412   4.779   9.572   1.717 -1.7189  2.8000 -0.1338
   70MOL0     H 9413   4.868   9.784   1.832 -0.5253 -0.1793 -0.8417
   70MOL0     H 9414   4.973   9.875   1.996 -2.7529  0.7109 -4.0787
   70MOL0     H 9415   5.131   9.956   2.024 -1.3114  2.1679 -0.1827
   70MOL0     H 9416   5.103  10.037   1.764 -2.5079  0.6100 -3.6448
   70MOL0     H 9417   4.937   9.986   1.786 -0.3679 -0.1855  1.8129
   70MOL0     H 9418   4.920  10.212   1.869 -0.2573  0.6226 -0.0945
   70MOL0     H 9419   4.978  10.133   2.023  0.8799 -2.8871 -0.0069
   70MOL0     H 9420   5.125  10.303   1.815  2.3329  1.9889  2.0136
   70MOL0     H 9421   5.214  10.180   1.908  0.0599  1.0164 -1.1313
   70MOL0     H 9422   5.268  10.360   2.021 -0.5793  1.8471 -0.7678
   70MOL0     H 9423   5.141  10.315   2.133  0.5125 -0.4437  0.4358
   70MOL0     H 9424   5.112  10.517   1.912  1.1650 -1.8817 -1.0357
   70MOL0     H 9425   4.972  10.444   2.004  0.9193 -2.5206 -2.2504
   70MOL0     H 9426   5.180  10.563   2.189 -0.1651 -0.5841 -0.7340
   70MOL0     H 9427   5.011  10.518   2.208  0.8820 -2.2775 -0.0003
   70MOL0     H 9428   4.972  10.739   2.050  0.1507 -0.5666 -1.7752
   70MOL0     H 9429   5.015  10.762   2.211 -1.5239  2.2865 -2.6687
   70MOL0     H 9430   5.261   9.652   1.755  1.1396 -0.1481  0.9737
   70MOL0     H 9431   5.155   9.456   1.598 -0.2936 -2.1182  1.5038
   70MOL0     H 9432   4.777   9.218   1.595 -1.0332  0.4901  0.2328
   70MOL0     H 9433   4.710   9.000   1.544  0.8956  3.5903  2.7174
   70MOL0     H 9434   4.999   8.974   2.462 -2.5173  0.6753  0.0341
   70MOL0     H 9435   5.186   9.094   2.597 -0.7933  1.6205  1.7271
   70MOL0     H 9436   5.462   9.210   2.875  2.1618 -0.0925 -0.0800
   70MOL0     H 9437   5.574   9.353   3.014  1.9070 -0.5716 -1.2225
   70MOL0     H 9438   5.707   9.470   3.222 -2.8069 -2.0713  1.8651
   70MOL0     H 9439   5.806   9.349   3.110 -1.1348 -5.1910  0.3505
   70MOL0     H 9440   5.950   9.309   3.309  0.9409  0.1674  0.3220
   70MOL0     H 9441   5.854   9.416   3.407 -2.7563  0.3176 -1.6154
   70MOL0     H 9442   5.933   9.566   3.192  0.7830 -2.3190 -1.7498
   70MOL0     H 9443   6.062   9.445   3.200 -1.0247 -2.3012  0.0742
   70MOL0     H 9444   6.121   9.656   3.298  0.9772 -0.9426 -0.9512
   70MOL0     H 9445   5.999   9.651   3.417 -0.6823 -0.5269  0.3860
   70MOL0     H 9446   6.313   9.494   3.615  1.8210  1.6510 -0.6973
   70MOL0     H 9447   5.578   9.059   3.329 -1.3324  1.9666  1.3893
   70MOL0     H 9448   5.442   8.812   3.181 -1.0479  1.5061 -2.7575
   70MOL0     H 9449   5.441   8.881   3.336  3.5411  1.8008 -0.9332
   70MOL0     H 9450   5.297   8.896   3.229 -0.0919 -1.3728  0.9510
   71MOL0     O 9451   3.596   2.630   7.530 -0.2662  0.1130  0.1508
   71MOL0     C 9452   3.479   2.607   7.527  0.1841 -0.6872 -0.3103
   71MOL0     O 9453   3.417   2.502   7.462 -0.5562  0.4982  0.3469
   71MOL0     C 9454   3.493   2.399   7.395  0.3698  0.2422  0.7994
   71MOL0     C 9455   3.465   2.269   7.429  0.2421 -0.5969 -0.4419
   71MOL0     C 9456   3.534   2.157   7.369  0.7937 -0.8192  0.6431
   71MOL0     C 9457   3.615   2.187   7.252 -0.5875 -1.1274  0.7657
   71MOL0     O 9458   3.684   2.098   7.176 -0.3525 -0.5992  0.4310
   71MOL0     C 9459   3.813   2.081   7.220 -0.4441  0.9709  0.1826
   71MOL0     C 9460   3.839   1.936   7.186 -0.7259 -0.0837 -0.1010
   71MOL0     C 9461   3.972   1.902   7.267  0.3759 -0.2891 -0.3852
   71MOL0     C 9462   4.011   1.755   7.248  1.3426  0.0458 -1.1175
   71MOL0     C 9463   4.106   1.712   7.361 -0.5775 -0.1619 -0.1267
   71MOL0     C 9464   4.154   1.573   7.344 -0.3513  0.3795 -0.5744
   71MOL0     C 9465   4.035   1.478   7.334  0.1126 -0.9596 -0.3722
   71MOL0     C 9466   3.979   1.448   7.194 -0.9817  0.0738  0.1982
   71MOL0     N 9467   4.011   1.317   7.150 -0.0386 -0.2757 -0.3528
   71MOL0     C 9468   4.068   1.283   7.032 -0.5859  0.8243 -0.4347
   71MOL0     C 9469   4.047   1.141   7.026 -0.4760 -0.6855 -0.4790
   71MOL0     C 9470   4.093   1.038   6.921 -0.2774 -1.1729  0.1201
   71MOL0     C 9471   4.221   1.079   6.845  0.1650 -0.2123 -0.0385
   71MOL0     C 9472   4.264   1.004   6.730 -1.0172  0.6304  0.3416
   71MOL0     C 9473   4.389   0.920   6.753 -0.4476 -0.6543  1.0758
   71MOL0     O 9474   4.386   0.839   6.867  0.2074  1.0838  0.3880
   71MOL0     C 9475   4.343   0.706   6.879 -0.1071  0.3844  0.1469
   71MOL0     C 9476   4.348   0.644   6.996  1.5945  0.3691 -0.5849
   71MOL0     C 9477   4.301   0.512   7.009 -0.8702  0.8885  0.2717
   71MOL0     C 9478   4.238   0.447   6.902  0.7356  0.1906 -0.0991
   71MOL0     C 9479   4.174   0.307   6.923 -0.5489 -0.3675 -0.3286
   71MOL0     O 9480   4.158   0.262   7.049 -0.6355 -0.5132  0.0508
   71MOL0     C 9481   4.081   0.162   7.092 -0.7274 -0.9117 -0.0796
   71MOL0     C 9482   4.042   0.170   7.222 -1.0477 -0.3889  0.0095
   71MOL0     C 9483   3.966   0.065   7.278 -0.8074  0.1506 -0.7970
   71MOL0     C 9484   3.935  -0.054   7.207  0.0921 -0.4267  0.2884
   71MOL0     O 9485   3.877  -0.158   7.279 -0.3520 -1.1126  0.3464
   71MOL0     C 9486   3.839  -0.276   7.204  0.9741  0.2644 -0.0004
   71MOL0     C 9487   3.788  -0.390   7.296  0.2381  0.0017  0.6979
   71MOL0     C 9488   3.642  -0.380   7.322  0.5300  1.2629  1.4285
   71MOL0     C 9489   3.586  -0.492   7.406 -0.1978  0.0995 -0.1011
   71MOL0     C 9490   3.479  -0.448   7.498 -0.1032  0.0649  0.8503
   71MOL0     C 9491   3.392  -0.551   7.561  0.2879 -0.1910 -0.5243
   71MOL0     C 9492   3.250  -0.560   7.493  0.8519  0.3743  0.0347
   71MOL0     C 9493   3.171  -0.672   7.575 -0.3826  0.2412 -0.2723
   71MOL0    Cl 9494   3.129  -0.601   7.727  0.5254  0.0290 -0.4173
   71MOL0     C 9495   3.971  -0.060   7.072 -0.0761 -0.3421 -0.6133
   71MOL0     C 9496   4.036   0.052   7.013 -0.0065  0.2054 -0.4854
   71MOL0     O 9497   4.134   0.244   6.820 -0.3287 -0.0642  0.8646
   71MOL0     C 9498   4.260   0.506   6.776 -0.0273  0.5685 -1.0290
   71MOL0     C 9499   4.305   0.633   6.774 -0.1729 -0.2979 -0.3393
   71MOL0     N 9500   3.985   1.100   7.141  0.7687 -0.0738 -0.4888
   71MOL0     N 9501   3.961   1.205   7.214  0.0326  0.0661  0.2406
   71MOL0     C 9502   3.639   2.321   7.219 -0.4133  0.5639 -0.0091
   71MOL0     C 9503   3.578   2.426   7.290 -0.2469  0.1654  0.1141
   71MOL0     C 9504   3.385   2.704   7.589  0.2036  0.4894  0.0540
   71MOL0     C 9505   3.249   2.661   7.588  0.1616 -0.5879 -0.8623
   71MOL0     C 9506   3.141   2.737   7.646 -0.1633 -0.4547 -0.3690
   71MOL0     C 9507   3.182   2.848   7.715 -0.5981  0.2593 -0.4261
   71MOL0     O 9508   3.072   2.914   7.769 -0.3484 -0.3729 -0.1893
   71MOL0     C 9509   3.072   3.059   7.739  0.1630  0.4302  0.2986
   71MOL0     C 9510   2.930   3.093   7.684  0.2941 -0.6372 -0.1803
   71MOL0     C 9511   2.908   3.237   7.690 -0.1228 -0.3804 -0.0671
   71MOL0     C 9512   2.780   3.283   7.621 -0.3457  0.9449  0.3889
   71MOL0     C 9513   2.765   3.424   7.606 -0.8613 -0.1332 -0.5753
   71MOL0     C 9514   2.746   3.543   7.606 -0.5787 -0.0500  0.8961
   71MOL0     C 9515   3.314   2.890   7.718  0.5543 -1.2445 -1.0399
   71MOL0     C 9516   3.423   2.826   7.658 -0.3316 -0.3409 -0.8041
   71MOL0     C 9517   3.566   2.873   7.679  0.5164  0.2554  0.4044
   71MOL0     H 9518   3.385   2.253   7.500  0.2618 -0.1331 -0.3131
   71MOL0     H 9519   3.523   2.054   7.404 -1.0047 -1.4615 -1.5621
   71MOL0     H 9520   3.886   2.147   7.171 -1.6101  0.9709 -1.6557
   71MOL0     H 9521   3.821   2.086   7.329 -0.7533  0.2686  0.2408
   71MOL0     H 9522   3.868   1.913   7.083 -1.0572 -1.0347  0.0070
   71MOL0     H 9523   3.762   1.863   7.214  0.0588 -0.1720  2.0388
   71MOL0     H 9524   3.961   1.915   7.375 -1.2781 -3.9882  0.0663
   71MOL0     H 9525   4.056   1.960   7.228 -0.7689  1.8013  0.1346
   71MOL0     H 9526   3.919   1.697   7.259  3.5320 -3.4381  0.6072
   71MOL0     H 9527   4.052   1.731   7.149  3.5160 -1.1347 -0.0123
   71MOL0     H 9528   4.192   1.779   7.374 -1.0907  0.6851 -0.9196
   71MOL0     H 9529   4.034   1.723   7.442 -0.6320  0.1495 -0.2177
   71MOL0     H 9530   4.210   1.563   7.250 -0.5795  2.2516 -0.9612
   71MOL0     H 9531   4.213   1.543   7.431  1.6594 -1.0682 -2.3359
   71MOL0     H 9532   3.960   1.515   7.405 -1.5746 -2.7776 -1.1178
   71MOL0     H 9533   4.072   1.385   7.378  2.3119  1.3268  3.0943
   71MOL0     H 9534   3.873   1.473   7.194 -0.9240  0.7638 -2.9188
   71MOL0     H 9535   4.034   1.514   7.126 -0.1503 -0.6520  0.1425
   71MOL0     H 9536   4.121   1.345   6.960 -1.7740  4.5553  1.6367
   71MOL0     H 9537   4.112   0.941   6.967 -1.1938 -1.3329  0.1820
   71MOL0     H 9538   4.014   1.012   6.851  0.5988 -1.6537 -0.7200
   71MOL0     H 9539   4.213   1.182   6.808  1.0870  0.0480  0.4646
   71MOL0     H 9540   4.305   1.092   6.914  1.0875 -2.0939 -0.7383
   71MOL0     H 9541   4.262   1.067   6.640  3.8265 -0.0182 -0.4720
   71MOL0     H 9542   4.180   0.936   6.711 -2.7854  3.2066 -1.9365
   71MOL0     H 9543   4.467   0.995   6.771 -0.6340  0.1441 -1.1308
   71MOL0     H 9544   4.424   0.862   6.666  1.0515  3.1581 -1.1311
   71MOL0     H 9545   4.388   0.698   7.081  4.8507  3.5508 -3.7631
   71MOL0     H 9546   4.286   0.465   7.105  1.4514  0.5068  0.5077
   71MOL0     H 9547   4.075   0.259   7.276  2.2389  0.5263 -3.1645
   71MOL0     H 9548   3.950   0.076   7.385  2.2529  2.7889 -0.4678
   71MOL0     H 9549   3.760  -0.244   7.135  0.2200 -3.0000 -0.7959
   71MOL0     H 9550   3.924  -0.307   7.143  3.4000  4.3908  0.8600
   71MOL0     H 9551   3.813  -0.480   7.239 -1.0179  1.0585 -1.6792
   71MOL0     H 9552   3.846  -0.409   7.386 -1.1965 -0.4100  1.5570
   71MOL0     H 9553   3.630  -0.289   7.382  3.0443  2.1382  0.7106
   71MOL0     H 9554   3.583  -0.363   7.231 -1.8100 -0.7028  2.4393
   71MOL0     H 9555   3.669  -0.541   7.458 -0.8515 -1.1623 -0.2090
   71MOL0     H 9556   3.545  -0.566   7.336  3.9877 -2.0881 -0.5932
   71MOL0     H 9557   3.407  -0.387   7.443 -1.2395 -0.7151  1.4333
   71MOL0     H 9558   3.523  -0.382   7.575 -3.1874  1.8319  1.2658
   71MOL0     H 9559   3.444  -0.645   7.541 -0.1762 -0.3992 -0.7448
   71MOL0     H 9560   3.391  -0.518   7.665  1.0156 -0.9124 -0.2801
   71MOL0     H 9561   3.254  -0.594   7.389  0.1793  3.4477 -1.0962
   71MOL0     H 9562   3.199  -0.464   7.504 -0.6460 -0.5763  2.3116
   71MOL0     H 9563   3.087  -0.706   7.514  1.7051 -0.3260 -3.0484
   71MOL0     H 9564   3.230  -0.763   7.590 -1.3772 -0.1582  1.4768
   71MOL0     H 9565   3.936  -0.129   6.996  1.0132  0.8157 -2.2363
   71MOL0     H 9566   4.050   0.053   6.905 -0.4491  2.7333 -0.5886
   71MOL0     H 9567   4.228   0.470   6.678 -1.1294  0.7882 -0.7653
   71MOL0     H 9568   4.302   0.681   6.677  0.8111 -1.2071 -0.8540
   71MOL0     H 9569   3.699   2.346   7.132 -0.5007  1.3410  0.1500
   71MOL0     H 9570   3.608   2.530   7.286  2.0127 -0.2780  2.9770
   71MOL0     H 9571   3.216   2.565   7.550 -0.4120 -0.3797 -0.8882
   71MOL0     H 9572   3.037   2.705   7.639  0.0216 -1.1138 -0.2043
   71MOL0     H 9573   3.153   3.101   7.679  2.2814  0.0886  2.7215
   71MOL0     H 9574   3.093   3.099   7.839 -1.3933  0.8974  0.4628
   71MOL0     H 9575   2.852   3.039   7.738 -0.4212 -0.1484 -0.7032
   71MOL0     H 9576   2.932   3.071   7.577  0.6435  0.7032 -0.4636
   71MOL0     H 9577   2.992   3.287   7.640 -0.1438  1.2616  1.4442
   71MOL0     H 9578   2.904   3.267   7.795  0.4528 -3.5174  0.9590
   71MOL0     H 9579   2.771   3.236   7.522 -1.9547 -0.7362  1.2812
   71MOL0     H 9580   2.691   3.246   7.672  0.8350 -0.5568  1.4557
   71MOL0     H 9581   2.736   3.650   7.610 -2.7772 -0.0914 -0.9306
   71MOL0     H 9582   3.348   2.983   7.762 -0.1008 -0.2208 -2.6265
   71MOL0     H 9583   3.572   2.982   7.687 -1.0228  0.3394  0.7151
   71MOL0     H 9584   3.582   2.828   7.778 -1.1537  0.4990  0.8089
   71MOL0     H 9585   3.630   2.840   7.597  2.0212 -3.2751  2.7365
   72MOL0     O 9586   2.853   0.106   3.381  0.6003  0.0196  0.8420
   72MOL0     C 9587   2.837   0.222   3.347  0.6800  0.4691 -0.9763
   72MOL0     O 9588   2.839   0.266   3.219  0.5298 -1.0852 -0.1722
   72MOL0     C 9589   2.880   0.194   3.123 -0.9866  0.0012 -0.6029
   72MOL0     C 9590   2.803   0.212   3.009  0.5109  0.5801 -0.7480
   72MOL0     C 9591   2.839   0.159   2.885 -0.0741  0.0607  0.7361
   72MOL0     C 9592   2.951   0.070   2.875 -0.2036  0.1435  0.7528
   72MOL0     O 9593   3.002   0.012   2.753  0.3688  0.9992 -0.6588
   72MOL0     C 9594   2.918  -0.007   2.640  0.2432 -0.2310 -0.1888
   72MOL0     C 9595   2.994  -0.090   2.539 -0.7641 -0.4440  0.4262
   72MOL0     C 9596   2.904  -0.144   2.438  0.5732  0.2898  0.3682
   72MOL0     C 9597   2.975  -0.184   2.307 -0.0489  0.0192 -1.2239
   72MOL0     C 9598   3.080  -0.297   2.345 -0.4851  0.3243 -0.5219
   72MOL0     C 9599   3.023  -0.443   2.366 -1.1100 -0.4980 -0.1978
   72MOL0     C 9600   3.127  -0.540   2.410 -0.2054  0.1735 -0.5482
   72MOL0     C 9601   3.180  -0.519   2.556  0.3549 -0.8513  0.0053
   72MOL0     N 9602   3.083  -0.536   2.667  0.4861  0.3377  0.4138
   72MOL0     C 9603   3.022  -0.651   2.708 -0.1458 -0.3390 -0.4068
   72MOL0     C 9604   2.990  -0.633   2.838 -0.9235  1.0807  0.5129
   72MOL0     C 9605   2.945  -0.746   2.928  0.7516 -0.3300 -1.1367
   72MOL0     C 9606   2.794  -0.735   2.969 -0.3806  0.3172 -0.0417
   72MOL0     C 9607   2.699  -0.714   2.844  0.1974 -0.6008  0.9177
   72MOL0     C 9608   2.625  -0.844   2.801 -1.1316  0.4009  0.3744
   72MOL0     O 9609   2.546  -0.805   2.684 -0.3029 -0.0475 -0.1921
   72MOL0     C 9610   2.488  -0.910   2.621 -0.1257 -0.4657 -0.5029
   72MOL0     C 9611   2.437  -1.026   2.685  0.0761  0.2663 -0.0378
   72MOL0     C 9612   2.351  -1.109   2.612  0.7216  0.9373  0.4737
   72MOL0     C 9613   2.323  -1.079   2.475  0.5380  0.8562  1.4988
   72MOL0     C 9614   2.235  -1.176   2.390 -0.2817 -0.8054  0.7808
   72MOL0     O 9615   2.221  -1.149   2.259  0.2204 -0.4909  0.8109
   72MOL0     C 9616   2.150  -1.225   2.172 -0.7049 -0.6436 -0.1662
   72MOL0     C 9617   2.218  -1.318   2.096 -0.5829 -0.5974  0.1155
   72MOL0     C 9618   2.136  -1.388   2.012 -0.4057 -1.0185 -0.4531
   72MOL0     C 9619   2.001  -1.357   1.990  0.2273 -0.3719 -0.3037
   72MOL0     O 9620   1.928  -1.443   1.905  0.3775 -1.0659 -0.5424
   72MOL0     C 9621   1.852  -1.372   1.807  0.3018 -0.7752  0.3356
   72MOL0     C 9622   1.723  -1.466   1.794 -1.0554  0.5306  0.1802
   72MOL0     C 9623   1.620  -1.412   1.696  0.7500  0.9268 -0.2658
   72MOL0     C 9624   1.668  -1.370   1.563  0.6984  0.0505  0.1874
   72MOL0     C 9625   1.561  -1.365   1.453  0.6448  0.0037 -0.3365
   72MOL0     C 9626   1.520  -1.503   1.411  0.2536 -0.7104  0.3290
   72MOL0     C 9627   1.404  -1.497   1.312  0.6468  0.6225  0.4177
   72MOL0     C 9628   1.369  -1.621   1.227  0.6798  0.1835 -0.0203
   72MOL0    Cl 9629   1.380  -1.772   1.329  0.4136  0.1141  0.6157
   72MOL0     C 9630   1.938  -1.253   2.063 -0.4987 -1.1881 -0.6697
   72MOL0     C 9631   2.017  -1.186   2.153  0.2886 -0.0925 -0.1834
   72MOL0     O 9632   2.187  -1.274   2.449 -0.7214 -0.6536  1.1749
   72MOL0     C 9633   2.399  -0.981   2.409  0.3085  0.4960 -0.2821
   72MOL0     C 9634   2.467  -0.896   2.489  0.2841 -1.0435  0.6067
   72MOL0     N 9635   3.040  -0.511   2.880  0.4019  0.6670 -0.2613
   72MOL0     N 9636   3.095  -0.455   2.777  0.7225 -0.0039 -0.0491
   72MOL0     C 9637   3.029   0.046   2.996 -0.9089  0.3461  0.6328
   72MOL0     C 9638   2.988   0.099   3.120  0.1854  0.7911 -0.8558
   72MOL0     C 9639   2.794   0.313   3.451 -0.6829 -0.4645 -0.7161
   72MOL0     C 9640   2.694   0.401   3.422  0.3560 -0.6150 -0.1205
   72MOL0     C 9641   2.650   0.488   3.520  0.8983 -0.2488  0.0548
   72MOL0     C 9642   2.717   0.501   3.642 -0.1197  0.2052 -0.1525
   72MOL0     O 9643   2.694   0.601   3.735  0.1748 -0.4142 -0.2664
   72MOL0     C 9644   2.662   0.733   3.684  0.2771  0.3318  0.1162
   72MOL0     C 9645   2.757   0.834   3.759 -0.3180 -0.1642 -0.5047
   72MOL0     C 9646   2.899   0.846   3.702  0.0106 -0.0954 -0.1941
   72MOL0     C 9647   2.972   0.929   3.808 -0.7104 -0.2682 -0.2150
   72MOL0     C 9648   3.109   0.957   3.763 -0.1306  0.5503  0.0096
   72MOL0     C 9649   3.209   0.988   3.704  0.2026  0.3831 -0.8126
   72MOL0     C 9650   2.817   0.416   3.670 -0.4542  0.3805  1.0118
   72MOL0     C 9651   2.858   0.316   3.575  0.2547 -0.1888  0.1261
   72MOL0     C 9652   2.979   0.247   3.613 -0.0570  0.5928  0.6462
   72MOL0     H 9653   2.710   0.268   2.997 -0.8930 -1.9023 -2.3276
   72MOL0     H 9654   2.787   0.195   2.797  1.0222  0.3107  0.1678
   72MOL0     H 9655   2.823  -0.056   2.663 -0.4662 -0.0329 -2.4551
   72MOL0     H 9656   2.896   0.092   2.599 -1.7833 -1.0949 -1.3169
   72MOL0     H 9657   3.048  -0.171   2.589 -0.3767 -0.3531  0.1633
   72MOL0     H 9658   3.065  -0.026   2.486  0.6587 -2.8118 -0.6755
   72MOL0     H 9659   2.832  -0.064   2.422 -0.2700 -0.7536 -1.4096
   72MOL0     H 9660   2.857  -0.237   2.469  1.6602  0.1477  1.6845
   72MOL0     H 9661   2.901  -0.232   2.242 -2.8931 -0.8560  2.3469
   72MOL0     H 9662   3.021  -0.097   2.258  3.1199 -1.4226 -1.0305
   72MOL0     H 9663   3.148  -0.307   2.260 -2.5073  0.1052 -2.1895
   72MOL0     H 9664   3.142  -0.260   2.427 -0.8512  0.7118 -0.4153
   72MOL0     H 9665   2.940  -0.445   2.437 -0.3781 -0.4832  0.6764
   72MOL0     H 9666   2.991  -0.471   2.265  1.1496 -3.4672 -0.2306
   72MOL0     H 9667   3.212  -0.512   2.348 -0.2916 -0.8001 -1.1362
   72MOL0     H 9668   3.093  -0.642   2.386 -0.1464 -0.2646  1.0883
   72MOL0     H 9669   3.264  -0.589   2.565 -0.9406 -2.6646 -1.3394
   72MOL0     H 9670   3.228  -0.422   2.570 -2.2220  0.2306  2.2401
   72MOL0     H 9671   3.018  -0.740   2.645 -0.9977 -1.1070  0.6796
   72MOL0     H 9672   2.949  -0.845   2.883 -4.8832 -0.7933 -1.2910
   72MOL0     H 9673   3.011  -0.761   3.015 -1.7805 -3.0425  0.4755
   72MOL0     H 9674   2.773  -0.839   2.996  0.6174 -0.8476 -3.1971
   72MOL0     H 9675   2.758  -0.672   3.050  1.2940 -1.5884  2.3234
   72MOL0     H 9676   2.747  -0.665   2.759  0.3672 -1.3028  0.6036
   72MOL0     H 9677   2.618  -0.651   2.882 -1.0314 -1.2255 -0.5696
   72MOL0     H 9678   2.560  -0.879   2.882 -1.3028 -1.8606 -0.6823
   72MOL0     H 9679   2.706  -0.917   2.791  1.2679  2.2289  4.0874
   72MOL0     H 9680   2.468  -1.041   2.788  3.0515  0.1090 -0.8557
   72MOL0     H 9681   2.305  -1.190   2.667  1.4433  2.4623  3.5928
   72MOL0     H 9682   2.321  -1.351   2.090 -1.1046 -1.9880 -3.2971
   72MOL0     H 9683   2.184  -1.455   1.942 -2.4175 -0.9400 -1.9851
   72MOL0     H 9684   1.820  -1.272   1.835 -0.8159 -0.4905 -1.7433
   72MOL0     H 9685   1.913  -1.361   1.717 -0.1652  0.1685  0.1245
   72MOL0     H 9686   1.760  -1.561   1.754 -1.7772  1.0203 -1.7539
   72MOL0     H 9687   1.680  -1.475   1.894  0.5593 -0.8367  0.7964
   72MOL0     H 9688   1.547  -1.493   1.684 -0.9143  2.3139  0.1199
   72MOL0     H 9689   1.557  -1.336   1.745 -3.7874 -2.5169 -0.0220
   72MOL0     H 9690   1.745  -1.437   1.526 -0.2777  0.2501 -2.3692
   72MOL0     H 9691   1.707  -1.269   1.577  0.4120  0.3975 -1.3524
   72MOL0     H 9692   1.584  -1.296   1.372  1.5098 -0.3217 -0.3774
   72MOL0     H 9693   1.474  -1.310   1.492 -0.8023 -0.0984 -3.1548
   72MOL0     H 9694   1.600  -1.549   1.353  0.1132  0.4788 -0.8677
   72MOL0     H 9695   1.496  -1.570   1.494 -0.4398 -2.3456 -1.1189
   72MOL0     H 9696   1.423  -1.416   1.241 -2.0472  0.3388 -0.7508
   72MOL0     H 9697   1.324  -1.475   1.384 -0.9295 -4.5817  0.6653
   72MOL0     H 9698   1.267  -1.621   1.188  1.3444  1.5386 -1.8721
   72MOL0     H 9699   1.430  -1.620   1.136  0.5794  0.7888 -0.0812
   72MOL0     H 9700   1.832  -1.234   2.052 -0.5784 -1.4725 -0.4321
   72MOL0     H 9701   1.971  -1.100   2.201  0.7967  0.6936 -1.0863
   72MOL0     H 9702   2.408  -0.952   2.304 -0.7579  3.8491  0.4137
   72MOL0     H 9703   2.511  -0.812   2.436 -1.8758 -0.1594  0.1104
   72MOL0     H 9704   3.112  -0.023   2.978 -0.8635  0.3054  1.0004
   72MOL0     H 9705   3.048   0.058   3.201  2.0391  2.5908 -1.2528
   72MOL0     H 9706   2.650   0.403   3.323  1.0482 -0.4548 -0.4333
   72MOL0     H 9707   2.575   0.558   3.485 -1.3389 -2.8637 -0.6911
   72MOL0     H 9708   2.554   0.753   3.680  0.2269 -0.0604 -2.2904
   72MOL0     H 9709   2.697   0.736   3.580  1.3845 -1.4303  0.4069
   72MOL0     H 9710   2.771   0.805   3.864  0.8254 -1.0568 -0.8846
   72MOL0     H 9711   2.709   0.932   3.756 -3.0846 -1.3608  0.8998
   72MOL0     H 9712   2.900   0.904   3.609 -0.5313 -0.6617 -0.5630
   72MOL0     H 9713   2.946   0.747   3.703 -0.6595 -0.4140  0.1383
   72MOL0     H 9714   2.920   1.019   3.842  1.0940  0.0257  2.0142
   72MOL0     H 9715   2.975   0.872   3.900  0.6568 -1.8000 -1.1591
   72MOL0     H 9716   3.304   1.004   3.656  1.2313 -1.6576  0.4249
   72MOL0     H 9717   2.880   0.428   3.756  2.1105  1.7651 -0.9315
   72MOL0     H 9718   3.054   0.310   3.662  0.9786  0.0926 -0.2720
   72MOL0     H 9719   2.945   0.160   3.670  0.5582 -0.1818 -0.1495
   72MOL0     H 9720   3.023   0.199   3.525 -1.4371  0.0366  0.2327
   73MOL0     O 9721   5.161   0.048   9.703 -0.3763  0.0653  0.6017
   73MOL0     C 9722   5.090   0.134   9.753  0.5840 -0.1052  0.4007
   73MOL0     O 9723   4.971   0.187   9.696  0.0145 -0.1662 -0.0624
   73MOL0     C 9724   4.938   0.121   9.575 -0.1676 -0.0001 -0.0390
   73MOL0     C 9725   4.859   0.006   9.588 -0.1696 -0.0664 -0.3031
   73MOL0     C 9726   4.830  -0.078   9.481 -0.0150  0.5555 -0.2615
   73MOL0     C 9727   4.887  -0.053   9.361 -0.6531 -0.0885  0.9551
   73MOL0     O 9728   4.871  -0.141   9.255 -0.9887  0.4718 -0.6399
   73MOL0     C 9729   4.922  -0.110   9.125 -0.8118  0.0835  0.3425
   73MOL0     C 9730   4.865   0.006   9.043  1.4717  0.6532  1.0160
   73MOL0     C 9731   4.759  -0.045   8.931 -0.0022 -0.1763 -0.6964
   73MOL0     C 9732   4.647  -0.119   8.997 -0.0914  0.5382 -0.2139
   73MOL0     C 9733   4.584  -0.214   8.888  0.4822 -0.1788 -0.3299
   73MOL0     C 9734   4.526  -0.145   8.767 -0.0190 -0.4153 -0.1747
   73MOL0     C 9735   4.472  -0.247   8.667  1.1002  0.5560  0.1406
   73MOL0     C 9736   4.439  -0.177   8.541 -0.3861  0.3846 -0.1156
   73MOL0     N 9737   4.306  -0.106   8.549 -1.0325 -0.1235 -1.3168
   73MOL0     C 9738   4.292   0.028   8.587  1.4146 -0.6694 -0.1611
   73MOL0     C 9739   4.153   0.051   8.572 -0.0979 -1.8523  0.0337
   73MOL0     C 9740   4.055   0.171   8.583  0.7493  0.1601  0.4167
   73MOL0     C 9741   4.131   0.293   8.626 -0.0675  1.0067  0.2533
   73MOL0     C 9742   4.052   0.426   8.598 -0.9573  0.1648  0.4545
   73MOL0     C 9743   3.900   0.428   8.635 -0.6969  0.8027  0.1007
   73MOL0     O 9744   3.876   0.522   8.742  0.3296 -0.2044 -0.6252
   73MOL0     C 9745   3.819   0.631   8.683  0.1621 -0.0147  0.1995
   73MOL0     C 9746   3.684   0.642   8.638  0.1701  0.5215 -0.5929
   73MOL0     C 9747   3.641   0.769   8.611 -0.6138 -1.6625 -0.5375
   73MOL0     C 9748   3.728   0.881   8.609 -0.1700 -0.3274 -0.6284
   73MOL0     C 9749   3.683   1.021   8.582  0.1681  0.0846  0.4482
   73MOL0     O 9750   3.772   1.109   8.530 -0.4969 -0.3113 -0.5299
   73MOL0     C 9751   3.737   1.243   8.553  0.1410 -0.2633  0.0235
   73MOL0     C 9752   3.839   1.315   8.610 -0.5470  1.0452  0.4574
   73MOL0     C 9753   3.820   1.447   8.656  0.2656  0.0242  1.2424
   73MOL0     C 9754   3.694   1.521   8.624 -0.1996 -0.3766  0.6623
   73MOL0     O 9755   3.676   1.653   8.662  0.2138 -0.2698  0.5322
   73MOL0     C 9756   3.785   1.734   8.724 -0.1472 -0.3311 -0.5218
   73MOL0     C 9757   3.739   1.882   8.715 -0.0206 -1.0115 -0.2106
   73MOL0     C 9758   3.841   1.977   8.779 -0.5217  0.7196 -0.1674
   73MOL0     C 9759   3.777   2.116   8.791  0.8969 -0.3665 -0.2247
   73MOL0     C 9760   3.872   2.221   8.841  0.5804 -1.3399  0.0863
   73MOL0     C 9761   3.805   2.361   8.872 -0.1555  0.7569  0.8306
   73MOL0     C 9762   3.795   2.455   8.751 -0.1870  0.7605  0.2958
   73MOL0     C 9763   3.932   2.503   8.696  0.2885 -0.0892 -0.2065
   73MOL0    Cl 9764   3.980   2.661   8.775 -0.3718 -0.5013 -0.2066
   73MOL0     C 9765   3.596   1.444   8.557 -0.1406  0.2540  0.0632
   73MOL0     C 9766   3.616   1.309   8.528  0.4949 -0.8622  0.6762
   73MOL0     O 9767   3.564   1.036   8.600  0.1164  0.5646  0.1093
   73MOL0     C 9768   3.857   0.858   8.624  0.0371  0.7809 -0.8200
   73MOL0     C 9769   3.907   0.739   8.665 -0.6850  0.5485 -0.3971
   73MOL0     N 9770   4.099  -0.065   8.520 -0.4033 -0.6628  0.2652
   73MOL0     N 9771   4.186  -0.160   8.502  0.1263 -0.5675  0.4704
   73MOL0     C 9772   4.965   0.064   9.345 -0.2454  0.3493  0.0651
   73MOL0     C 9773   4.993   0.152   9.450  0.5199 -1.0638  0.1098
   73MOL0     C 9774   5.110   0.177   9.902 -0.7891  0.3199  0.2905
   73MOL0     C 9775   5.017   0.270   9.952  0.6280  0.5489  0.9596
   73MOL0     C 9776   5.023   0.315  10.081 -0.0618 -0.1802  0.1014
   73MOL0     C 9777   5.109   0.258  10.174  0.5510  0.9859  0.3482
   73MOL0     O 9778   5.077   0.290  10.308  1.0855  0.6835 -0.1095
   73MOL0     C 9779   5.193   0.341  10.380  0.2143  0.2067 -1.0918
   73MOL0     C 9780   5.157   0.315  10.527 -0.3614  0.6312  0.6045
   73MOL0     C 9781   5.038   0.399  10.576  0.0775  0.4712 -0.1932
   73MOL0     C 9782   5.040   0.544  10.559  0.9683 -0.4537 -0.2922
   73MOL0     C 9783   5.154   0.618  10.607  1.7286  0.4227 -1.2644
   73MOL0     C 9784   5.242   0.687  10.662 -0.6870 -0.4098  0.0554
   73MOL0     C 9785   5.184   0.152  10.141 -0.4392 -0.0537  0.2724
   73MOL0     C 9786   5.196   0.122   9.999  0.1884  0.2652 -0.3983
   73MOL0     C 9787   5.322   0.036   9.959 -0.2709  0.1999 -0.3168
   73MOL0     H 9788   4.847  -0.023   9.691  0.2614 -0.2176 -0.2932
   73MOL0     H 9789   4.790  -0.178   9.493  2.4471 -0.4129  0.3125
   73MOL0     H 9790   5.028  -0.086   9.140 -0.2355 -2.3038  0.4979
   73MOL0     H 9791   4.917  -0.204   9.068 -0.6222 -3.0286  4.8647
   73MOL0     H 9792   4.946   0.054   8.987  4.3925 -2.3593  2.3644
   73MOL0     H 9793   4.810   0.069   9.113 -0.1442  0.9495 -0.4326
   73MOL0     H 9794   4.796  -0.107   8.848 -0.1732 -1.4415  0.1426
   73MOL0     H 9795   4.720   0.043   8.879 -1.4091 -1.5190 -2.0590
   73MOL0     H 9796   4.685  -0.185   9.075 -1.8327  0.5078  0.6465
   73MOL0     H 9797   4.575  -0.045   9.033  1.0779  1.4873  0.2539
   73MOL0     H 9798   4.674  -0.272   8.865  0.5440 -1.1567  2.0681
   73MOL0     H 9799   4.503  -0.270   8.935  0.2302  0.5239  0.0889
   73MOL0     H 9800   4.447  -0.081   8.809 -0.4899 -2.0411  1.5374
   73MOL0     H 9801   4.608  -0.088   8.722  2.4928 -1.1461  3.1109
   73MOL0     H 9802   4.388  -0.301   8.713  0.7495 -0.0625 -1.1585
   73MOL0     H 9803   4.554  -0.317   8.651  1.7407  1.3958 -0.3182
   73MOL0     H 9804   4.521  -0.108   8.516 -0.3269 -0.4143 -2.3240
   73MOL0     H 9805   4.437  -0.254   8.463  2.2493 -0.0543  0.1665
   73MOL0     H 9806   4.363   0.097   8.633  1.7599 -0.7386 -0.5800
   73MOL0     H 9807   4.000   0.200   8.493  0.4264  0.9448  0.8491
   73MOL0     H 9808   3.983   0.134   8.657  0.0895 -3.3489 -1.7652
   73MOL0     H 9809   4.157   0.289   8.732  0.9086  2.0085  0.0743
   73MOL0     H 9810   4.231   0.295   8.581  0.8689  0.2812  2.1651
   73MOL0     H 9811   4.051   0.444   8.491 -1.1365 -0.3052  0.3765
   73MOL0     H 9812   4.096   0.511   8.652  1.8839 -1.3005  0.6439
   73MOL0     H 9813   3.862   0.329   8.659  0.7301 -0.1883 -1.5085
   73MOL0     H 9814   3.846   0.442   8.541  0.2021 -2.6308 -1.0592
   73MOL0     H 9815   3.610   0.563   8.626  0.1049  0.7930 -2.1348
   73MOL0     H 9816   3.535   0.791   8.601 -0.8314 -3.0482 -1.6626
   73MOL0     H 9817   3.934   1.263   8.611  0.1422  2.0358  3.9675
   73MOL0     H 9818   3.898   1.496   8.713  0.6302 -0.9703  1.6312
   73MOL0     H 9819   3.812   1.712   8.827  0.6423  2.1714 -0.1234
   73MOL0     H 9820   3.879   1.723   8.669  0.5785  0.7250  0.4464
   73MOL0     H 9821   3.736   1.912   8.610 -2.4590 -1.4486 -0.3199
   73MOL0     H 9822   3.645   1.910   8.764  1.2125  1.4727  0.8942
   73MOL0     H 9823   3.862   1.950   8.883 -0.0572  0.0105 -0.4316
   73MOL0     H 9824   3.936   1.980   8.725 -0.1925  0.1643  0.3675
   73MOL0     H 9825   3.694   2.108   8.861 -0.9117 -5.0405 -2.4747
   73MOL0     H 9826   3.726   2.148   8.699  0.0583 -0.3631  0.2337
   73MOL0     H 9827   3.947   2.235   8.763  1.3973 -0.1524  1.0438
   73MOL0     H 9828   3.916   2.178   8.931  0.2481  2.2479  2.1458
   73MOL0     H 9829   3.707   2.345   8.917  0.0945  1.2953  1.5935
   73MOL0     H 9830   3.862   2.421   8.943  1.2323  2.0354 -1.2542
   73MOL0     H 9831   3.731   2.542   8.768  0.8905  1.7588 -0.5397
   73MOL0     H 9832   3.746   2.391   8.676 -2.8433  1.1783  1.5543
   73MOL0     H 9833   4.015   2.432   8.702 -1.6967 -2.5973 -0.6460
   73MOL0     H 9834   3.917   2.536   8.592 -0.6505  0.2782  0.0379
   73MOL0     H 9835   3.508   1.505   8.545 -0.4647 -0.1459  0.3723
   73MOL0     H 9836   3.540   1.265   8.465 -0.8859 -0.9857  2.3580
   73MOL0     H 9837   3.924   0.940   8.647 -0.0645 -0.0627  3.0268
   73MOL0     H 9838   3.998   0.732   8.724 -2.2056 -0.6262  1.9729
   73MOL0     H 9839   5.007   0.090   9.248 -1.1723  1.1124 -0.1525
   73MOL0     H 9840   5.041   0.249   9.443 -0.0573 -0.1793  4.8752
   73MOL0     H 9841   4.955   0.322   9.881  0.3524 -1.3204 -0.2317
   73MOL0     H 9842   4.960   0.391  10.127  1.1528  0.5480  0.6004
   73MOL0     H 9843   5.202   0.448  10.356  3.0442  0.0487 -1.0956
   73MOL0     H 9844   5.280   0.296  10.332  0.1626  1.8831 -2.8844
   73MOL0     H 9845   5.231   0.339  10.603 -0.8015  2.5486  0.4876
   73MOL0     H 9846   5.128   0.210  10.533  0.3114 -0.0312 -3.8893
   73MOL0     H 9847   5.043   0.374  10.682 -2.5230 -0.3734 -0.1958
   73MOL0     H 9848   4.948   0.356  10.533 -1.4157  1.2286  1.9680
   73MOL0     H 9849   5.035   0.563  10.451 -1.2105  0.7946 -0.0155
   73MOL0     H 9850   4.955   0.590  10.610  1.6363 -0.2071  0.6164
   73MOL0     H 9851   5.325   0.743  10.700 -2.3175  2.6191 -0.5192
   73MOL0     H 9852   5.242   0.099  10.216  1.1607  0.0420 -0.8243
   73MOL0     H 9853   5.393   0.075   9.885 -2.1216  2.4497 -1.0081
   73MOL0     H 9854   5.387   0.025  10.046 -0.0971  3.2483  0.0240
   73MOL0     H 9855   5.292  -0.062   9.920 -0.9173  1.0606 -2.0739
   74MOL0     O 9856   1.078  10.563   2.866 -0.0290  0.1645 -0.0201
   74MOL0     C 9857   1.088  10.668   2.927  0.1851  0.2765  0.0712
   74MOL0     O 9858   1.169  10.689   3.039  0.6868 -0.1786  0.6702
   74MOL0     C 9859   1.228  10.586   3.104  0.6647 -0.6883  0.7647
   74MOL0     C 9860   1.357  10.605   3.158 -0.7775  0.3628 -0.1517
   74MOL0     C 9861   1.431  10.505   3.210  0.0917 -0.0326 -1.2381
   74MOL0     C 9862   1.367  10.377   3.223 -0.7317  0.5332  0.8350
   74MOL0     O 9863   1.445  10.282   3.272 -0.2899  0.3995  0.4736
   74MOL0     C 9864   1.389  10.209   3.383  0.0954  0.3881 -0.5163
   74MOL0     C 9865   1.440  10.254   3.519  0.4295 -0.4544  0.2314
   74MOL0     C 9866   1.593  10.256   3.538  0.0598  0.5801  0.3100
   74MOL0     C 9867   1.669  10.129   3.484 -0.4901 -0.3985 -0.4114
   74MOL0     C 9868   1.626  10.008   3.566  0.3277  0.3506  0.3386
   74MOL0     C 9869   1.703   9.877   3.524  0.3837 -0.5384  0.1633
   74MOL0     C 9870   1.656   9.773   3.623 -0.2554  0.6025 -0.5305
   74MOL0     C 9871   1.702   9.633   3.579  0.3130  0.2075 -0.8605
   74MOL0     N 9872   1.696   9.531   3.685  0.1701  0.9261  0.7049
   74MOL0     C 9873   1.801   9.472   3.749 -0.1360  0.6032 -0.7700
   74MOL0     C 9874   1.735   9.396   3.849  0.3948  1.1975  0.3255
   74MOL0     C 9875   1.814   9.310   3.937 -0.4327  0.7242  0.5300
   74MOL0     C 9876   1.827   9.362   4.082  0.1805  0.2092  0.4257
   74MOL0     C 9877   1.871   9.260   4.179 -0.5890  0.7314  0.6888
   74MOL0     C 9878   1.867   9.301   4.324 -0.6179  0.1675 -0.4059
   74MOL0     O 9879   1.859   9.201   4.435  0.4295  0.3948  0.4769
   74MOL0     C 9880   1.974   9.149   4.490 -0.8274 -0.9287 -0.1018
   74MOL0     C 9881   1.967   9.096   4.615  0.4385 -0.2012  0.0598
   74MOL0     C 9882   2.066   9.022   4.673  0.4219 -0.7120 -0.5095
   74MOL0     C 9883   2.204   9.030   4.620  1.3828  0.3453 -0.3976
   74MOL0     C 9884   2.320   8.961   4.690 -0.0221 -0.7071 -0.1241
   74MOL0     O 9885   2.288   8.899   4.811  0.7252  0.0238 -0.5592
   74MOL0     C 9886   2.393   8.851   4.890  0.0892 -0.5209  1.5595
   74MOL0     C 9887   2.388   8.725   4.932 -0.1772 -0.2174  0.8466
   74MOL0     C 9888   2.469   8.678   5.033 -0.1686  0.6711 -0.3550
   74MOL0     C 9889   2.573   8.752   5.076 -0.2848 -0.0485  0.2358
   74MOL0     O 9890   2.645   8.697   5.177  0.8902  0.1009  0.8013
   74MOL0     C 9891   2.788   8.722   5.190  0.8103  0.7374 -0.7608
   74MOL0     C 9892   2.821   8.643   5.323 -0.9103 -0.5068  0.8887
   74MOL0     C 9893   2.788   8.492   5.323 -0.4024  1.1390  0.2906
   74MOL0     C 9894   2.791   8.441   5.475 -0.1470  0.1745  0.5637
   74MOL0     C 9895   2.752   8.297   5.510 -0.4414 -0.2776 -0.7634
   74MOL0     C 9896   2.600   8.260   5.495  0.0542 -0.1752  0.2883
   74MOL0     C 9897   2.581   8.110   5.484  0.0630 -0.0001  1.3320
   74MOL0     C 9898   2.440   8.063   5.511 -0.1625  1.0206 -0.6723
   74MOL0    Cl 9899   2.330   8.140   5.389  0.2175  0.2695  0.0351
   74MOL0     C 9900   2.591   8.879   5.029 -0.2785  0.6663 -0.2918
   74MOL0     C 9901   2.497   8.931   4.936  1.6452 -0.0573  0.3405
   74MOL0     O 9902   2.431   8.972   4.638  0.0535  0.5959  0.5959
   74MOL0     C 9903   2.211   9.093   4.492 -0.1988 -0.0048 -1.2633
   74MOL0     C 9904   2.101   9.145   4.431  0.7044 -0.8462 -1.1553
   74MOL0     N 9905   1.598   9.397   3.817  0.3450 -1.6538 -0.6422
   74MOL0     N 9906   1.577   9.467   3.714 -0.2630 -0.2861  0.4165
   74MOL0     C 9907   1.246  10.354   3.166 -0.0087  0.3062 -0.4401
   74MOL0     C 9908   1.164  10.459   3.109 -0.0018 -0.5833 -0.0538
   74MOL0     C 9909   1.028  10.795   2.859 -0.2243  0.5240  0.6798
   74MOL0     C 9910   1.070  10.926   2.901 -0.2474  0.5398  0.5182
   74MOL0     C 9911   1.011  11.041   2.858  0.3957 -0.2059  0.4389
   74MOL0     C 9912   0.915  11.033   2.753  0.0383 -0.4772  0.4185
   74MOL0     O 9913   0.848  11.138   2.696  0.4532  0.0069 -0.5841
   74MOL0     C 9914   0.896  11.265   2.689  0.3461 -0.1738 -1.2202
   74MOL0     C 9915   0.802  11.345   2.609  1.2241  0.2425 -0.7690
   74MOL0     C 9916   0.799  11.332   2.455  0.5636  0.0933 -0.4271
   74MOL0     C 9917   0.769  11.190   2.407 -0.6874  0.8999  0.6824
   74MOL0     C 9918   0.778  11.180   2.255  1.2819 -0.4642 -0.2079
   74MOL0     C 9919   0.782  11.187   2.138  0.4017 -0.1509 -0.4931
   74MOL0     C 9920   0.863  10.906   2.712 -0.8549  0.1416  0.7192
   74MOL0     C 9921   0.913  10.788   2.771 -0.1763  0.5059 -0.2006
   74MOL0     C 9922   0.851  10.660   2.727  0.2424 -0.0139 -0.0582
   74MOL0     H 9923   1.422  10.691   3.150  1.2932 -1.0998  0.1863
   74MOL0     H 9924   1.534  10.506   3.245  0.6355  0.6014 -2.7834
   74MOL0     H 9925   1.280  10.204   3.383  0.0570 -0.4813  2.4979
   74MOL0     H 9926   1.426  10.109   3.357 -0.8402 -0.5935  1.6771
   74MOL0     H 9927   1.398  10.197   3.603 -1.7652  0.3152 -0.2912
   74MOL0     H 9928   1.401  10.354   3.540  0.6035 -0.0758 -1.1354
   74MOL0     H 9929   1.613  10.260   3.645 -0.9692 -2.4443  0.7191
   74MOL0     H 9930   1.643  10.338   3.485  0.4574  0.0725 -0.1042
   74MOL0     H 9931   1.642  10.105   3.381  0.2404  1.0742 -0.9847
   74MOL0     H 9932   1.777  10.147   3.487 -0.5629  0.0896 -0.5687
   74MOL0     H 9933   1.639  10.038   3.670 -1.0128  0.8388  0.3916
   74MOL0     H 9934   1.520  10.006   3.541 -0.2683  0.2763  2.6772
   74MOL0     H 9935   1.669   9.838   3.427 -2.4698  0.4907  0.6634
   74MOL0     H 9936   1.810   9.898   3.537 -0.5769  2.9479  5.1598
   74MOL0     H 9937   1.549   9.751   3.614  0.6671 -4.4703 -2.8525
   74MOL0     H 9938   1.693   9.795   3.723 -1.8613 -1.2608  0.5450
   74MOL0     H 9939   1.639   9.606   3.493 -0.7458 -3.2275  0.8071
   74MOL0     H 9940   1.803   9.634   3.536 -1.0576 -3.4652 -4.9611
   74MOL0     H 9941   1.908   9.481   3.733 -0.3168 -0.3735 -2.9936
   74MOL0     H 9942   1.775   9.209   3.923  0.4742  0.4536 -0.1401
   74MOL0     H 9943   1.919   9.295   3.909 -0.0531  0.3229  2.0779
   74MOL0     H 9944   1.900   9.443   4.086 -0.0939  0.4924  4.5595
   74MOL0     H 9945   1.739   9.411   4.126 -0.2498  2.2591 -2.4619
   74MOL0     H 9946   1.975   9.234   4.159 -0.4871  0.4401  1.5673
   74MOL0     H 9947   1.811   9.170   4.164  2.7330 -1.4216 -0.6803
   74MOL0     H 9948   1.785   9.373   4.335 -0.7508  0.2489 -1.8084
   74MOL0     H 9949   1.956   9.360   4.348  1.0403 -1.2380 -2.7914
   74MOL0     H 9950   1.871   9.092   4.665 -0.1426 -1.2203 -1.0669
   74MOL0     H 9951   2.029   8.970   4.761  1.5661 -1.2587 -0.3333
   74MOL0     H 9952   2.304   8.665   4.897  1.2513 -0.5872 -2.2711
   74MOL0     H 9953   2.454   8.585   5.087  1.1071  0.0799 -0.9580
   74MOL0     H 9954   2.849   8.675   5.113  1.1993 -0.6443  0.3477
   74MOL0     H 9955   2.798   8.830   5.206 -2.2667  1.2373 -1.5240
   74MOL0     H 9956   2.929   8.652   5.337 -0.8255 -1.9252  1.3468
   74MOL0     H 9957   2.769   8.693   5.405 -0.7801 -0.4995  0.9666
   74MOL0     H 9958   2.693   8.461   5.279  1.2394 -1.2906 -1.8871
   74MOL0     H 9959   2.871   8.446   5.268 -0.4754  1.5235 -0.1387
   74MOL0     H 9960   2.734   8.512   5.535  0.7030  0.5234  0.9646
   74MOL0     H 9961   2.891   8.452   5.519 -1.5605  0.0637  4.1311
   74MOL0     H 9962   2.784   8.280   5.613 -0.9186 -2.1267 -0.8949
   74MOL0     H 9963   2.805   8.227   5.444 -0.4672  0.4651 -1.5958
   74MOL0     H 9964   2.563   8.307   5.586  1.8586  2.4431 -0.2245
   74MOL0     H 9965   2.554   8.305   5.407 -0.8081 -0.1599  0.7326
   74MOL0     H 9966   2.657   8.044   5.528 -0.3512 -1.5600 -0.1876
   74MOL0     H 9967   2.602   8.079   5.382 -0.0426  2.1955  0.5912
   74MOL0     H 9968   2.422   7.956   5.501 -0.0277  0.9980 -0.6756
   74MOL0     H 9969   2.417   8.085   5.616  1.1625 -0.7563  0.0529
   74MOL0     H 9970   2.673   8.935   5.073 -0.4016  0.7190 -0.1284
   74MOL0     H 9971   2.497   9.036   4.907 -1.8747  0.0019  0.0911
   74MOL0     H 9972   2.309   9.088   4.445 -0.5588 -1.2488 -1.9322
   74MOL0     H 9973   2.124   9.195   4.337  0.1066 -0.1252 -0.9240
   74MOL0     H 9974   1.195  10.258   3.176  0.3079  0.0617 -1.1494
   74MOL0     H 9975   1.062  10.449   3.073 -0.2615  1.4970  0.0108
   74MOL0     H 9976   1.153  10.928   2.970  1.0149  2.1453 -0.9373
   74MOL0     H 9977   1.045  11.137   2.895  3.5919 -1.6873  1.7051
   74MOL0     H 9978   0.988  11.247   2.633 -0.1644 -0.6772 -1.9251
   74MOL0     H 9979   0.917  11.316   2.783 -1.7632 -1.6892  0.1798
   74MOL0     H 9980   0.810  11.451   2.636 -2.9038  0.2608  1.0586
   74MOL0     H 9981   0.705  11.318   2.652  2.2036 -1.3788  0.5377
   74MOL0     H 9982   0.892  11.374   2.415  2.9154 -2.2777  2.1033
   74MOL0     H 9983   0.725  11.395   2.405  2.4010  4.1398  1.5127
   74MOL0     H 9984   0.850  11.125   2.443 -2.2605 -2.2879 -1.0856
   74MOL0     H 9985   0.679  11.147   2.451 -0.7355 -1.9872 -1.8572
   74MOL0     H 9986   0.799  11.194   2.033 -2.0222 -2.2215 -1.0987
   74MOL0     H 9987   0.778  10.889   2.647 -0.7824 -1.2490  0.9646
   74MOL0     H 9988   0.806  10.626   2.821  0.6782  3.2057  1.4643
   74MOL0     H 9989   0.780  10.664   2.644  0.3435 -1.7575 -0.2650
   74MOL0     H 9990   0.926  10.587   2.696  1.0802  0.5337  0.6563
   75MOL0     O 9991   6.161   8.066   8.857 -0.1103 -1.0975 -0.0726
   75MOL0     C 9992   6.059   8.049   8.922  1.3650  0.5000  0.0171
   75MOL0     O 9993   5.987   7.935   8.933  0.4298  0.4692  0.0215
   75MOL0     C 9994   6.035   7.819   8.871 -0.2020 -0.2830 -0.3135
   75MOL0     C 9995   6.016   7.695   8.949 -0.5495  0.2248 -0.3586
   75MOL0     C 9996   6.053   7.575   8.894  0.7508 -0.7355  0.0597
   75MOL0     C 9997   6.132   7.569   8.777  0.6313 -0.1122 -0.1691
   75MOL0     O 9998   6.190   7.449   8.737  0.3567  0.4909 -0.5665
   75MOL0     C 9999   6.324   7.445   8.688 -0.1818 -1.0218 -0.1512
   75MOL0     C10000   6.358   7.310   8.635  1.2430  0.2523  0.5259
   75MOL0     C10001   6.494   7.306   8.576 -0.8260 -0.3565  1.1955
   75MOL0     C10002   6.522   7.402   8.458 -0.1430 -0.9842 -0.0250
   75MOL0     C10003   6.659   7.370   8.396  0.2688  0.3813 -0.6225
   75MOL0     C10004   6.787   7.396   8.477  0.5491 -0.9071 -0.4632
   75MOL0     C10005   6.886   7.290   8.437  0.2617 -1.2582 -1.2181
   75MOL0     C10006   6.848   7.158   8.501 -0.4785 -0.3496 -0.4904
   75MOL0     N10007   6.869   7.173   8.643  0.9333  0.5469  0.0511
   75MOL0     C10008   6.784   7.151   8.749  0.6316 -0.0948 -1.0054
   75MOL0     C10009   6.857   7.145   8.865  0.4350 -0.4115  0.2842
   75MOL0     C10010   6.798   7.150   9.005  0.7615 -0.0747 -0.6235
   75MOL0     C10011   6.687   7.250   9.026 -1.2640 -0.1122 -0.2351
   75MOL0     C10012   6.638   7.217   9.166  1.3851  0.0545 -0.1141
   75MOL0     C10013   6.515   7.296   9.201  0.8593 -0.4788  0.2439
   75MOL0     O10014   6.403   7.269   9.107  0.1826  0.0640 -0.2508
   75MOL0     C10015   6.296   7.211   9.166  0.3854 -0.8096  0.5119
   75MOL0     C10016   6.293   7.085   9.237  0.2459 -0.8274 -0.4511
   75MOL0     C10017   6.177   7.047   9.307  0.1236  0.2937 -0.1863
   75MOL0     C10018   6.058   7.119   9.315  0.0227  0.0242  1.0312
   75MOL0     C10019   5.934   7.068   9.377 -0.5597  0.9280 -0.9896
   75MOL0     O10020   5.944   6.964   9.465  0.2211 -0.1064 -0.3930
   75MOL0     C10021   5.826   6.891   9.483  0.2746  0.3552 -0.0430
   75MOL0     C10022   5.801   6.774   9.424 -0.2148  1.2719  0.9532
   75MOL0     C10023   5.670   6.715   9.425  0.3955  0.1308  0.9927
   75MOL0     C10024   5.555   6.777   9.487  0.0449  0.1413 -0.0556
   75MOL0     O10025   5.436   6.711   9.479  0.1299  0.1048 -0.3517
   75MOL0     C10026   5.331   6.797   9.445  0.0151  0.3106  0.2156
   75MOL0     C10027   5.205   6.765   9.533  0.1650 -0.3069  0.2715
   75MOL0     C10028   5.219   6.809   9.683  0.0361  0.3897  0.4001
   75MOL0     C10029   5.103   6.903   9.718 -0.7620  0.0559 -0.2803
   75MOL0     C10030   5.103   6.956   9.863 -0.1734 -0.6085 -0.0627
   75MOL0     C10031   4.987   7.048   9.904 -0.1391  0.5700 -0.3921
   75MOL0     C10032   4.925   7.116   9.779 -0.0934 -1.0859  0.8079
   75MOL0     C10033   4.838   7.237   9.819  0.0091 -0.2231 -0.8443
   75MOL0    Cl10034   4.754   7.314   9.681  0.1212  0.3187  0.4158
   75MOL0     C10035   5.580   6.904   9.546 -0.4355 -0.6796  0.2755
   75MOL0     C10036   5.710   6.960   9.539  1.3832  0.9826 -0.0161
   75MOL0     O10037   5.832   7.104   9.323  0.5975 -0.6044  0.9748
   75MOL0     C10038   6.066   7.238   9.247  0.9224  0.5898  0.0868
   75MOL0     C10039   6.180   7.286   9.180 -0.0084 -0.4951  0.2632
   75MOL0     N10040   6.990   7.148   8.819  1.0401  0.0381 -0.4777
   75MOL0     N10041   6.994   7.163   8.693 -0.0057  0.7623 -0.2940
   75MOL0     C10042   6.146   7.688   8.706  0.2889 -0.4280  0.9326
   75MOL0     C10043   6.099   7.812   8.748 -0.4913 -1.1555 -0.9547
   75MOL0     C10044   6.003   8.172   8.982 -0.4176 -0.4973  0.7131
   75MOL0     C10045   5.894   8.146   9.075 -0.7973 -0.5200 -0.2530
   75MOL0     C10046   5.838   8.253   9.141 -0.0331  0.3216  0.2581
   75MOL0     C10047   5.892   8.383   9.129  0.3959  0.1564  0.1777
   75MOL0     O10048   5.819   8.472   9.203 -0.0612 -0.1847  0.3406
   75MOL0     C10049   5.877   8.600   9.225  0.5567 -0.4361 -0.2933
   75MOL0     C10050   5.797   8.696   9.140  0.0109  0.6105  0.5331
   75MOL0     C10051   5.810   8.842   9.178  0.3929  0.6351 -0.4083
   75MOL0     C10052   5.700   8.923   9.122  0.1777  0.6261 -0.1830
   75MOL0     C10053   5.718   8.937   8.978  0.3658 -0.4354 -0.1019
   75MOL0     C10054   5.708   8.956   8.862  0.1104  0.0075  1.4133
   75MOL0     C10055   6.006   8.409   9.044  0.4897 -0.0490  0.1049
   75MOL0     C10056   6.050   8.304   8.958 -1.0231  0.0532  0.4692
   75MOL0     C10057   6.132   8.357   8.839  0.1633 -0.5482 -0.2133
   75MOL0     H10058   5.962   7.698   9.043  1.9188  2.5413  1.1351
   75MOL0     H10059   6.042   7.479   8.945  0.5217  0.8662  3.3182
   75MOL0     H10060   6.328   7.513   8.602 -0.1795 -2.7599 -1.5781
   75MOL0     H10061   6.396   7.473   8.765  0.5219 -0.5244 -0.9683
   75MOL0     H10062   6.289   7.282   8.554  0.6194  2.6792  0.1451
   75MOL0     H10063   6.349   7.243   8.721  4.0064  0.8273  1.3725
   75MOL0     H10064   6.513   7.204   8.542  3.4895  1.6874 -4.0081
   75MOL0     H10065   6.563   7.327   8.659  0.5006  5.6397 -0.8848
   75MOL0     H10066   6.450   7.400   8.375  1.0395  1.6375 -1.2162
   75MOL0     H10067   6.537   7.501   8.501 -0.2064 -0.0917 -1.9549
   75MOL0     H10068   6.647   7.269   8.355  0.3843  0.7293 -1.5284
   75MOL0     H10069   6.657   7.443   8.314  0.9676  1.2612  0.1262
   75MOL0     H10070   6.827   7.496   8.460  1.4753  0.2903  6.1748
   75MOL0     H10071   6.775   7.409   8.585 -1.2491  3.7879 -0.9762
   75MOL0     H10072   6.985   7.328   8.462 -1.3864  1.4082  2.0637
   75MOL0     H10073   6.886   7.286   8.327  2.1172  0.6505 -1.3392
   75MOL0     H10074   6.747   7.121   8.481 -0.6294 -0.7772  0.9516
   75MOL0     H10075   6.920   7.084   8.466 -1.7574 -1.5819 -0.5921
   75MOL0     H10076   6.676   7.149   8.734  0.8876  1.3309 -3.6987
   75MOL0     H10077   6.762   7.054   9.043 -2.3577  0.2321 -2.5043
   75MOL0     H10078   6.872   7.185   9.078 -1.5241  2.7639  0.5185
   75MOL0     H10079   6.729   7.350   9.010  0.4777 -0.8407 -0.4155
   75MOL0     H10080   6.609   7.234   8.950 -0.2776 -1.5420 -0.9916
   75MOL0     H10081   6.720   7.243   9.235  1.4679  0.6617 -0.4358
   75MOL0     H10082   6.602   7.114   9.168 -3.8485  1.5494 -1.2825
   75MOL0     H10083   6.546   7.400   9.190  0.0469 -0.3391 -1.0163
   75MOL0     H10084   6.486   7.272   9.304 -2.1924  2.6489  0.3169
   75MOL0     H10085   6.384   7.027   9.229  0.6783 -0.3334  0.6039
   75MOL0     H10086   6.175   6.956   9.366 -1.6054 -1.4137 -2.7057
   75MOL0     H10087   5.879   6.724   9.367  1.4440  5.0139 -0.4119
   75MOL0     H10088   5.658   6.624   9.367  1.0934  0.8658 -0.3498
   75MOL0     H10089   5.349   6.905   9.442  2.1520  0.1276  2.5593
   75MOL0     H10090   5.302   6.770   9.343  0.2139 -0.9651  0.4807
   75MOL0     H10091   5.115   6.808   9.488 -1.9093 -4.7495 -0.3953
   75MOL0     H10092   5.196   6.656   9.519 -1.2337 -0.1110 -0.6273
   75MOL0     H10093   5.215   6.723   9.750 -0.6412  2.4689  3.1793
   75MOL0     H10094   5.307   6.869   9.708 -0.6716  1.0175  1.4746
   75MOL0     H10095   5.015   6.841   9.701 -1.7513  1.5675 -0.8143
   75MOL0     H10096   5.103   6.985   9.646  0.4233 -0.1603 -0.5606
   75MOL0     H10097   5.193   7.016   9.880 -0.5272  0.8856 -2.8147
   75MOL0     H10098   5.088   6.871   9.930 -0.4524  0.0866  0.7843
   75MOL0     H10099   4.909   6.991   9.957 -0.9826  2.4129  0.4389
   75MOL0     H10100   5.015   7.122   9.979  3.1158 -2.2646  1.4918
   75MOL0     H10101   4.861   7.044   9.728  1.5155 -0.6367 -2.1266
   75MOL0     H10102   5.005   7.144   9.709  1.0880 -0.5085  2.3299
   75MOL0     H10103   4.760   7.221   9.895 -0.9917  3.2511 -0.9625
   75MOL0     H10104   4.896   7.312   9.873  0.2209 -0.8806 -0.1322
   75MOL0     H10105   5.506   6.965   9.597  1.9539  2.4394  0.3234
   75MOL0     H10106   5.726   7.054   9.590  0.8786  0.2377  1.5744
   75MOL0     H10107   5.980   7.297   9.217  0.9213  1.1076  1.0662
   75MOL0     H10108   6.189   7.373   9.116  0.9369 -0.4940  0.3918
   75MOL0     H10109   6.190   7.671   8.608 -1.9111  1.2928 -0.4551
   75MOL0     H10110   6.112   7.898   8.684 -2.1399  0.5517  0.8678
   75MOL0     H10111   5.848   8.050   9.095  0.3548 -0.9978  0.2136
   75MOL0     H10112   5.759   8.217   9.206 -1.3584  1.9081 -0.4155
   75MOL0     H10113   5.980   8.601   9.190 -0.1272 -2.2443 -2.5959
   75MOL0     H10114   5.863   8.637   9.327 -5.6818  2.5748 -1.7084
   75MOL0     H10115   5.692   8.674   9.158 -0.6626  2.8788 -0.3414
   75MOL0     H10116   5.832   8.688   9.037  3.6485 -0.7496  1.7046
   75MOL0     H10117   5.910   8.862   9.138  1.2606 -1.2275  0.6529
   75MOL0     H10118   5.807   8.846   9.287 -0.0482 -3.4740 -0.1003
   75MOL0     H10119   5.604   8.883   9.157  0.2425  1.4104  0.9589
   75MOL0     H10120   5.695   9.027   9.155 -1.0025  0.2688  0.8732
   75MOL0     H10121   5.710   8.952   8.755  0.8360 -1.4151  1.4482
   75MOL0     H10122   6.031   8.512   9.025  3.3863 -0.6480  0.2415
   75MOL0     H10123   6.189   8.448   8.864 -4.0276  2.3878 -0.1693
   75MOL0     H10124   6.199   8.285   8.793  0.6906  0.3408 -0.8576
   75MOL0     H10125   6.057   8.392   8.767  1.3656  1.7131 -0.4704
   76MOL0     O10126   9.361   0.036   0.940 -0.0810  0.7890 -0.5206
   76MOL0     C10127   9.454   0.100   0.883 -1.1649  1.8905  0.6028
   76MOL0     O10128   9.564   0.057   0.810  0.6267  0.0542 -0.0451
   76MOL0     C10129   9.613  -0.073   0.843  0.3182 -0.0514  0.6165
   76MOL0     C10130   9.731  -0.084   0.917 -0.1345 -0.0861  0.9954
   76MOL0     C10131   9.766  -0.208   0.962  0.6789 -0.2882  0.5353
   76MOL0     C10132   9.688  -0.322   0.952 -0.6761 -0.2815  0.8947
   76MOL0     O10133   9.729  -0.437   1.011  0.2448 -0.1240  0.0105
   76MOL0     C10134   9.653  -0.557   0.978 -0.0827 -0.3664  0.4305
   76MOL0     C10135   9.711  -0.612   0.842 -0.8120 -0.1596  0.2079
   76MOL0     C10136   9.854  -0.664   0.849  0.2287  0.0459  0.3825
   76MOL0     C10137   9.927  -0.682   0.713 -0.3637 -0.4036  0.0300
   76MOL0     C10138  10.028  -0.795   0.711  0.4605  0.3028  0.1724
   76MOL0     C10139  10.122  -0.790   0.587 -0.0169 -0.1513  0.4039
   76MOL0     C10140  10.228  -0.903   0.607  0.0261  0.3878  0.4520
   76MOL0     C10141  10.325  -0.921   0.478  0.0973 -0.6714 -1.0577
   76MOL0     N10142  10.243  -0.956   0.360  0.6936 -0.6832 -0.3471
   76MOL0     C10143  10.245  -0.896   0.237  0.1967 -0.5782  0.3275
   76MOL0     C10144  10.156  -0.972   0.154 -0.5462 -0.5831 -0.1842
   76MOL0     C10145  10.107  -0.934   0.016  0.1448 -0.6381 -0.3609
   76MOL0     C10146  10.191  -1.013  -0.080  0.4204 -0.0393  0.7431
   76MOL0     C10147  10.138  -1.022  -0.222  0.5202  0.2070 -0.5738
   76MOL0     C10148  10.240  -1.068  -0.330  0.0834 -0.5739 -0.1065
   76MOL0     O10149  10.255  -1.208  -0.322  0.3120  0.5755 -0.5814
   76MOL0     C10150  10.183  -1.287  -0.413 -0.3703  1.2117  1.0035
   76MOL0     C10151  10.092  -1.238  -0.512 -0.7158 -0.2253  0.6496
   76MOL0     C10152  10.039  -1.316  -0.605 -0.3769  0.0135 -0.1866
   76MOL0     C10153  10.069  -1.455  -0.618 -0.6370  0.2279 -0.8215
   76MOL0     C10154  10.012  -1.533  -0.724  0.5386  0.3659 -1.3397
   76MOL0     O10155   9.990  -1.467  -0.835  0.1833  0.2366  0.6635
   76MOL0     C10156   9.968  -1.551  -0.940  0.2979 -1.0110 -0.6781
   76MOL0     C10157   9.858  -1.638  -0.947  0.3409 -0.5442  0.3916
   76MOL0     C10158   9.847  -1.726  -1.050  0.8012 -0.3886 -0.2747
   76MOL0     C10159   9.941  -1.734  -1.161 -0.7749 -0.1360  0.1646
   76MOL0     O10160   9.892  -1.814  -1.264 -0.3029  0.6690 -0.6367
   76MOL0     C10161   9.902  -1.776  -1.401 -0.3169 -0.1157  1.1548
   76MOL0     C10162   9.792  -1.833  -1.493 -0.6567 -0.3044  0.5135
   76MOL0     C10163   9.653  -1.770  -1.498  0.3481  0.2994 -0.4153
   76MOL0     C10164   9.579  -1.813  -1.626 -0.6109  0.0252  0.8051
   76MOL0     C10165   9.474  -1.712  -1.661  1.1397  0.2945 -0.2414
   76MOL0     C10166   9.345  -1.718  -1.575  0.4123  0.3346  0.0802
   76MOL0     C10167   9.211  -1.668  -1.624  0.2729  0.0434  0.7033
   76MOL0     C10168   9.151  -1.743  -1.740  0.0810 -0.6999  0.4267
   76MOL0    Cl10169   8.966  -1.744  -1.724  0.1880  0.3519  0.3602
   76MOL0     C10170  10.032  -1.628  -1.166 -0.2430 -0.4333 -0.7958
   76MOL0     C10171  10.060  -1.543  -1.046  0.2976 -0.1946 -0.0215
   76MOL0     O10172  10.036  -1.655  -0.719  0.4495 -0.0440 -0.0258
   76MOL0     C10173  10.157  -1.507  -0.518 -0.4767  0.6857 -0.1710
   76MOL0     C10174  10.216  -1.427  -0.419 -0.6426 -0.3426  0.4074
   76MOL0     N10175  10.116  -1.076   0.235  0.4762  0.0057 -0.8537
   76MOL0     N10176  10.167  -1.067   0.353 -0.7210  0.6564 -0.0268
   76MOL0     C10177   9.568  -0.305   0.876 -0.5109  0.2093  0.5840
   76MOL0     C10178   9.534  -0.185   0.816  0.3050 -0.8424  1.2927
   76MOL0     C10179   9.425   0.238   0.878 -0.1380 -0.2987  0.7090
   76MOL0     C10180   9.441   0.308   0.749  0.2780 -0.3135 -0.4445
   76MOL0     C10181   9.394   0.441   0.733 -0.3450 -0.1841 -0.2058
   76MOL0     C10182   9.353   0.514   0.853 -0.9923  0.1830  0.2269
   76MOL0     O10183   9.293   0.638   0.848  0.1224 -0.0281 -0.3581
   76MOL0     C10184   9.349   0.721   0.745 -0.1623 -0.0453 -0.4603
   76MOL0     C10185   9.279   0.852   0.768  0.3700 -0.4243 -0.1083
   76MOL0     C10186   9.319   0.919   0.905 -0.2565  0.5038 -0.2783
   76MOL0     C10187   9.277   1.070   0.902  0.9901  0.3634 -0.4219
   76MOL0     C10188   9.301   1.143   1.031 -1.4485 -0.5266 -1.0491
   76MOL0     C10189   9.331   1.220   1.118  0.9581 -0.4241  0.0356
   76MOL0     C10190   9.356   0.450   0.973 -0.1197  0.2358 -0.6481
   76MOL0     C10191   9.378   0.313   0.989  0.2158 -0.3610  0.3267
   76MOL0     C10192   9.356   0.259   1.127  0.5542 -0.3493 -0.3402
   76MOL0     H10193   9.785   0.007   0.941 -3.0460  2.0993 -0.0927
   76MOL0     H10194   9.856  -0.221   1.020 -0.7764  2.2064  3.6376
   76MOL0     H10195   9.661  -0.633   1.056  3.0852  0.9451  1.5824
   76MOL0     H10196   9.546  -0.536   0.972  0.1218  0.5511 -0.1514
   76MOL0     H10197   9.701  -0.531   0.768 -0.1589 -0.2062  0.0647
   76MOL0     H10198   9.647  -0.693   0.807 -1.1042 -0.0063  0.3798
   76MOL0     H10199   9.850  -0.766   0.888 -1.0053  0.1168  0.4660
   76MOL0     H10200   9.909  -0.603   0.921 -1.5986 -1.5105  3.2713
   76MOL0     H10201   9.859  -0.680   0.628 -1.2154  0.8687  0.7053
   76MOL0     H10202   9.977  -0.590   0.680  0.3026 -1.8666 -3.4791
   76MOL0     H10203  10.087  -0.791   0.804 -2.7592 -1.9958  2.5440
   76MOL0     H10204   9.975  -0.891   0.715 -1.0264  0.9583 -2.0514
   76MOL0     H10205  10.056  -0.803   0.501 -0.8268  1.4010  0.7537
   76MOL0     H10206  10.162  -0.688   0.585 -1.4323  0.4390  0.7835
   76MOL0     H10207  10.174  -0.994   0.633 -0.4876 -0.1079 -2.0720
   76MOL0     H10208  10.299  -0.883   0.687  2.5406  1.0835 -1.8035
   76MOL0     H10209  10.374  -0.827   0.451 -0.8314 -0.4177 -1.9128
   76MOL0     H10210  10.396  -1.003   0.491  0.1066 -0.5428 -0.2262
   76MOL0     H10211  10.289  -0.804   0.199 -0.3015 -0.8063 -0.8738
   76MOL0     H10212  10.005  -0.969   0.002 -1.5071  3.3286  0.4260
   76MOL0     H10213  10.122  -0.826   0.003  2.9735 -0.5414  2.3643
   76MOL0     H10214  10.287  -0.962  -0.090  0.4040 -0.5150 -4.0421
   76MOL0     H10215  10.199  -1.113  -0.036  4.4198 -0.4002 -0.3824
   76MOL0     H10216  10.112  -0.920  -0.251  2.0961  1.6139  2.5935
   76MOL0     H10217  10.044  -1.075  -0.244 -0.3177  2.2998 -2.4758
   76MOL0     H10218  10.333  -1.012  -0.315  0.1426  0.3881 -3.3680
   76MOL0     H10219  10.226  -1.041  -0.435  3.1649 -2.8259 -1.2760
   76MOL0     H10220  10.072  -1.132  -0.531  1.7198  0.1439 -0.1848
   76MOL0     H10221   9.972  -1.265  -0.674  0.3992  0.6062 -0.5127
   76MOL0     H10222   9.789  -1.648  -0.864 -0.3393 -0.5210 -0.1715
   76MOL0     H10223   9.770  -1.802  -1.055  1.0005 -0.5107 -2.6186
   76MOL0     H10224   9.900  -1.668  -1.413  1.1327 -0.1238  0.6252
   76MOL0     H10225  10.002  -1.812  -1.431 -0.6434 -0.3583  0.3240
   76MOL0     H10226   9.844  -1.811  -1.587 -2.6302 -2.0580 -1.1018
   76MOL0     H10227   9.784  -1.942  -1.496 -2.1634 -0.2330 -2.4143
   76MOL0     H10228   9.597  -1.794  -1.407 -1.4686 -0.7635 -1.7372
   76MOL0     H10229   9.671  -1.662  -1.505  0.8400  0.3523  1.2485
   76MOL0     H10230   9.527  -1.909  -1.620 -4.5132  1.5557 -2.8706
   76MOL0     H10231   9.646  -1.822  -1.713 -1.1575 -1.6916  0.5140
   76MOL0     H10232   9.444  -1.717  -1.766  0.9813  2.0457 -0.3110
   76MOL0     H10233   9.516  -1.611  -1.652  1.5672  0.3012 -1.9616
   76MOL0     H10234   9.346  -1.826  -1.557 -2.3429  0.3049  0.5584
   76MOL0     H10235   9.379  -1.663  -1.487 -0.2414  3.6684 -1.5819
   76MOL0     H10236   9.212  -1.561  -1.647  2.5916 -0.2639 -1.0055
   76MOL0     H10237   9.143  -1.682  -1.539 -1.5759  3.0960 -0.0999
   76MOL0     H10238   9.181  -1.694  -1.833  1.7725 -1.2768  0.6508
   76MOL0     H10239   9.193  -1.844  -1.739  0.2659 -0.6353 -0.5282
   76MOL0     H10240  10.076  -1.605  -1.263  1.0291  0.9336  0.0758
   76MOL0     H10241  10.145  -1.476  -1.043  2.5009 -2.4489 -3.7256
   76MOL0     H10242  10.175  -1.613  -0.517  1.7951  0.9497 -2.6899
   76MOL0     H10243  10.296  -1.461  -0.355 -2.5739 -2.4796  1.8261
   76MOL0     H10244   9.498  -0.385   0.855 -1.2519  0.8660  0.5198
   76MOL0     H10245   9.442  -0.183   0.759  0.2912  3.9374  1.1376
   76MOL0     H10246   9.464   0.258   0.656  1.9304  0.7182 -0.6402
   76MOL0     H10247   9.405   0.481   0.632 -2.0065  0.4932 -0.1476
   76MOL0     H10248   9.325   0.684   0.645  1.2944  2.2882 -1.7597
   76MOL0     H10249   9.457   0.739   0.748  0.2177 -2.0562 -0.3544
   76MOL0     H10250   9.174   0.824   0.756  0.7202 -1.7917 -0.1440
   76MOL0     H10251   9.305   0.918   0.685  0.4197  1.2164  1.1624
   76MOL0     H10252   9.427   0.924   0.925 -0.2731 -1.9491  0.8107
   76MOL0     H10253   9.271   0.863   0.985  0.2722 -1.1836 -1.0851
   76MOL0     H10254   9.341   1.124   0.831  1.8206 -0.7744 -0.5769
   76MOL0     H10255   9.174   1.089   0.871  1.7722 -0.8560 -4.4431
   76MOL0     H10256   9.355   1.291   1.195  0.9872  2.5828 -2.5463
   76MOL0     H10257   9.335   0.498   1.068 -0.7579 -0.2704 -0.5210
   76MOL0     H10258   9.254   0.222   1.143 -0.7273  3.1815  0.4609
   76MOL0     H10259   9.438   0.187   1.139  2.7003  1.8925 -0.8307
   76MOL0     H10260   9.370   0.322   1.216 -0.9846 -0.9730  0.3840
   77MOL0     O10261   9.057   6.431  11.438  0.0347 -0.4012  0.8384
   77MOL0     C10262   8.950   6.376  11.422  0.8141 -0.2956 -0.3899
   77MOL0     O10263   8.927   6.235  11.428  0.0579  0.4458  0.0588
   77MOL0     C10264   9.004   6.152  11.511  0.9304 -0.2488  0.2303
   77MOL0     C10265   9.118   6.191  11.579  0.4138 -0.3730 -1.3891
   77MOL0     C10266   9.185   6.094  11.656 -0.4284  1.2086 -0.5478
   77MOL0     C10267   9.144   5.962  11.676  0.2441 -0.6091  0.6254
   77MOL0     O10268   9.204   5.853  11.739  0.0075 -0.8261  0.2769
   77MOL0     C10269   9.313   5.893  11.826 -0.6550  0.0191 -0.1598
   77MOL0     C10270   9.367   5.762  11.889  1.2992 -0.5796  0.0405
   77MOL0     C10271   9.459   5.793  12.015 -0.4808 -0.8975  0.1225
   77MOL0     C10272   9.604   5.818  11.984  0.5580  0.9907  0.3145
   77MOL0     C10273   9.666   5.676  11.993 -0.1033  1.0141  0.1157
   77MOL0     C10274   9.814   5.672  11.954 -0.3699  0.3221  0.4567
   77MOL0     C10275   9.910   5.726  12.057 -0.6440 -1.0123 -0.5684
   77MOL0     C10276  10.054   5.704  12.010 -0.0841 -0.1187 -0.3970
   77MOL0     N10277  10.082   5.764  11.880 -0.6312  1.5648 -0.7141
   77MOL0     C10278  10.078   5.688  11.769 -0.9694  0.1585 -0.2019
   77MOL0     C10279  10.131   5.772  11.674 -0.1380 -0.8124 -0.5472
   77MOL0     C10280  10.165   5.737  11.527 -0.7641 -0.6076  0.3298
   77MOL0     C10281  10.141   5.857  11.432 -0.0196 -0.3428 -0.0885
   77MOL0     C10282   9.989   5.891  11.419 -0.5908 -0.6031  0.0764
   77MOL0     C10283   9.962   6.001  11.308 -0.4747  0.5017 -0.1288
   77MOL0     O10284   9.821   6.010  11.310 -0.3503 -0.3189 -0.7938
   77MOL0     C10285   9.771   6.093  11.216  0.3819  0.2229  0.2765
   77MOL0     C10286   9.706   6.024  11.116 -0.2691 -0.5067 -0.1228
   77MOL0     C10287   9.649   6.106  11.007  0.4229 -0.1191  0.4443
   77MOL0     C10288   9.639   6.249  11.017  0.0107  0.0141  0.6261
   77MOL0     C10289   9.558   6.326  10.913 -0.6596  0.2868  0.8605
   77MOL0     O10290   9.533   6.454  10.945  0.4932 -0.0210 -0.3810
   77MOL0     C10291   9.471   6.551  10.871  0.4420  0.6641 -1.1383
   77MOL0     C10292   9.488   6.683  10.912 -0.2143  0.2796  0.9519
   77MOL0     C10293   9.429   6.794  10.843  0.2131  1.1061  0.2234
   77MOL0     C10294   9.342   6.770  10.741 -0.8911  0.9310  0.1436
   77MOL0     O10295   9.290   6.881  10.673 -0.5074 -0.1794  0.1257
   77MOL0     C10296   9.272   6.860  10.534  1.0949  0.1579  0.6124
   77MOL0     C10297   9.291   6.989  10.450 -0.0964  0.1360 -0.2469
   77MOL0     C10298   9.429   7.041  10.417 -0.9200 -0.3338  0.2274
   77MOL0     C10299   9.406   7.155  10.316 -0.1675 -0.0811  0.0248
   77MOL0     C10300   9.518   7.159  10.208  0.1609  0.2190 -0.1342
   77MOL0     C10301   9.493   7.062  10.092  0.6621 -0.1100 -0.2823
   77MOL0     C10302   9.605   7.075   9.976  0.4571  0.1290 -0.0004
   77MOL0     C10303   9.582   6.963   9.875 -0.7623  0.2016  0.1633
   77MOL0    Cl10304   9.449   7.014   9.758 -0.1719 -0.5110  0.0466
   77MOL0     C10305   9.315   6.638  10.695  0.4294  0.4645 -0.6146
   77MOL0     C10306   9.372   6.534  10.762 -0.2384  0.3604  0.1948
   77MOL0     O10307   9.499   6.265  10.826  0.1831  0.2661 -0.0878
   77MOL0     C10308   9.713   6.307  11.122  0.0032  0.0922 -0.4176
   77MOL0     C10309   9.778   6.232  11.224 -0.6158  0.6482  0.3049
   77MOL0     N10310  10.172   5.893  11.733 -0.9783  0.6317  0.3573
   77MOL0     N10311  10.150   5.872  11.854 -0.2486 -0.4288 -0.0219
   77MOL0     C10312   9.025   5.923  11.605 -0.0837  0.8064  0.5531
   77MOL0     C10313   8.952   6.024  11.524  0.1295  0.5654 -0.8594
   77MOL0     C10314   8.835   6.451  11.377  0.0844 -0.5098  0.8176
   77MOL0     C10315   8.726   6.385  11.312 -0.9346  0.6703 -1.4056
   77MOL0     C10316   8.622   6.451  11.258  0.8588  0.0713 -0.3376
   77MOL0     C10317   8.628   6.585  11.249  0.6033  0.2180  0.6545
   77MOL0     O10318   8.524   6.646  11.170 -0.7951 -0.0577  0.6060
   77MOL0     C10319   8.548   6.775  11.097 -0.0374  0.0755  0.0172
   77MOL0     C10320   8.466   6.769  10.964 -0.1839  0.0075  0.4010
   77MOL0     C10321   8.450   6.900  10.894 -0.0701 -0.0818 -0.3820
   77MOL0     C10322   8.367   6.995  10.972 -0.1382 -0.1612 -0.8169
   77MOL0     C10323   8.343   7.126  10.906 -0.8355  0.9622  0.8829
   77MOL0     C10324   8.318   7.235  10.865 -0.7430  0.0425  0.8601
   77MOL0     C10325   8.735   6.658  11.299 -0.2916 -0.0854  0.0481
   77MOL0     C10326   8.832   6.594  11.377 -0.0836 -0.4185 -0.6756
   77MOL0     C10327   8.930   6.689  11.457 -0.0441  0.2346  0.5217
   77MOL0     H10328   9.160   6.290  11.569  0.2172 -0.2075 -0.6519
   77MOL0     H10329   9.275   6.131  11.704  1.8160 -1.3264 -2.5425
   77MOL0     H10330   9.388   5.942  11.762 -0.7610  2.2286  1.3207
   77MOL0     H10331   9.274   5.954  11.907 -1.7984 -1.7507  0.6702
   77MOL0     H10332   9.416   5.707  11.808  0.0407 -2.4685  0.5029
   77MOL0     H10333   9.281   5.701  11.917 -0.6897  1.7238 -0.6952
   77MOL0     H10334   9.450   5.699  12.070 -1.5931 -1.4644 -0.9834
   77MOL0     H10335   9.417   5.884  12.060 -0.0879  0.2276 -1.6822
   77MOL0     H10336   9.623   5.863  11.886  1.1223 -0.8709 -0.4935
   77MOL0     H10337   9.644   5.885  12.060 -0.5920  1.4634  0.5140
   77MOL0     H10338   9.659   5.636  12.095  1.0086 -3.4552 -1.3625
   77MOL0     H10339   9.601   5.599  11.952 -1.6295  1.6859  1.1474
   77MOL0     H10340   9.844   5.568  11.938  1.5994  0.9998 -0.5256
   77MOL0     H10341   9.811   5.712  11.852 -0.0305 -0.9171 -0.0646
   77MOL0     H10342   9.898   5.678  12.154 -3.3737  0.9683  0.1895
   77MOL0     H10343   9.881   5.831  12.064  3.4197  0.1707  2.0715
   77MOL0     H10344  10.119   5.755  12.081 -0.1722  0.7665 -0.9441
   77MOL0     H10345  10.082   5.599  12.024 -0.8206 -0.2757  0.0070
   77MOL0     H10346  10.053   5.585  11.745 -1.3391  0.2230 -0.1029
   77MOL0     H10347  10.272   5.718  11.509 -0.8668  1.0123 -2.7189
   77MOL0     H10348  10.106   5.652  11.491 -1.3154 -0.1642  0.1692
   77MOL0     H10349  10.200   5.947  11.451 -0.7029  0.0134  0.3753
   77MOL0     H10350  10.165   5.833  11.328  0.2610 -0.1709 -0.0660
   77MOL0     H10351   9.956   5.924  11.518 -1.9946  0.0049 -0.5676
   77MOL0     H10352   9.934   5.798  11.397 -0.8880 -1.0048  2.2527
   77MOL0     H10353   9.996   5.980  11.207  0.0502  2.3300 -0.3679
   77MOL0     H10354  10.010   6.090  11.349  0.5247 -1.7673  4.3091
   77MOL0     H10355   9.701   5.916  11.124  4.2592 -0.8454  0.9230
   77MOL0     H10356   9.587   6.053  10.936 -2.0562  0.3975  2.1256
   77MOL0     H10357   9.562   6.696  10.990  1.0318  0.4081 -0.2171
   77MOL0     H10358   9.472   6.893  10.859  1.6352  0.1245  3.4938
   77MOL0     H10359   9.333   6.775  10.501  1.2806  0.1871  0.8772
   77MOL0     H10360   9.164   6.842  10.528  0.6951  2.2578  0.8174
   77MOL0     H10361   9.250   6.951  10.356  0.4004 -4.1195  1.0416
   77MOL0     H10362   9.223   7.066  10.487  0.8654  0.6877  0.4134
   77MOL0     H10363   9.473   7.090  10.504  0.1870  4.3891 -2.6267
   77MOL0     H10364   9.495   6.963  10.377  0.7814  0.2824  1.7078
   77MOL0     H10365   9.424   7.246  10.374 -0.8537  1.0098 -1.4138
   77MOL0     H10366   9.311   7.156  10.262  1.0186 -0.0757 -2.1790
   77MOL0     H10367   9.620   7.147  10.245 -0.0397  2.5234  1.3456
   77MOL0     H10368   9.514   7.264  10.177 -0.7281  0.0817 -0.5332
   77MOL0     H10369   9.495   6.958  10.127  2.6008 -0.3498 -0.9645
   77MOL0     H10370   9.393   7.074  10.050  1.2461  1.0536 -1.3896
   77MOL0     H10371   9.708   7.064  10.010  0.3713 -0.8957 -0.0538
   77MOL0     H10372   9.592   7.175   9.933 -0.8088  1.6127  3.4287
   77MOL0     H10373   9.675   6.944   9.820  0.5591 -1.0119  2.6202
   77MOL0     H10374   9.566   6.866   9.923  1.0455 -0.5174 -0.6001
   77MOL0     H10375   9.257   6.615  10.606 -0.2780 -0.9491  0.1793
   77MOL0     H10376   9.348   6.430  10.744 -0.2502  0.2402  0.9013
   77MOL0     H10377   9.728   6.414  11.129  1.2549  0.0615 -2.1281
   77MOL0     H10378   9.831   6.274  11.308 -1.8647 -0.3942  1.6895
   77MOL0     H10379   8.998   5.818  11.598 -2.9273  1.5743 -2.3316
   77MOL0     H10380   8.861   6.005  11.468  0.9952 -1.1581 -1.7687
   77MOL0     H10381   8.727   6.277  11.313 -3.1702  0.5690 -2.7770
   77MOL0     H10382   8.544   6.386  11.219 -1.1979  1.7037  0.8390
   77MOL0     H10383   8.653   6.793  11.073 -0.3865  0.3918 -1.3200
   77MOL0     H10384   8.505   6.855  11.158  2.2533  0.1783  1.6329
   77MOL0     H10385   8.360   6.746  10.980  0.2443 -0.3529  3.1498
   77MOL0     H10386   8.519   6.691  10.909  1.7689  0.5743  1.3962
   77MOL0     H10387   8.399   6.891  10.797 -1.0904 -0.5406  0.1852
   77MOL0     H10388   8.548   6.943  10.872  0.3391 -1.5118 -1.5432
   77MOL0     H10389   8.268   6.948  10.980  1.0024 -2.6660 -0.4052
   77MOL0     H10390   8.419   7.018  11.065 -2.5517  0.7706  0.3891
   77MOL0     H10391   8.307   7.327  10.811 -1.8648  0.0476  1.0800
   77MOL0     H10392   8.724   6.765  11.285  1.3828 -0.1242 -2.0630
   77MOL0     H10393   8.924   6.646  11.557  3.2349 -4.2106 -0.8631
   77MOL0     H10394   9.029   6.657  11.424 -1.9058 -3.3329 -2.3348
   77MOL0     H10395   8.912   6.796  11.447  4.2570  1.2749  1.8468
   78MOL0     O10396   7.455  10.884   5.752 -0.2754 -0.3604  0.0016
   78MOL0     C10397   7.341  10.887   5.700 -0.0204  1.1071  0.0118
   78MOL0     O10398   7.227  10.855   5.759 -0.0054 -0.1179  0.4667
   78MOL0     C10399   7.243  10.842   5.896  1.4003  1.1353  0.4029
   78MOL0     C10400   7.256  10.947   5.989  0.3544 -0.0669 -0.5560
   78MOL0     C10401   7.256  10.914   6.134 -0.3108 -0.2070 -0.4567
   78MOL0     C10402   7.244  10.785   6.182 -0.2722 -0.0301  0.2802
   78MOL0     O10403   7.238  10.762   6.318  0.5983 -1.2951  0.5252
   78MOL0     C10404   7.283  10.641   6.372  0.0903  0.7406  0.0136
   78MOL0     C10405   7.182  10.527   6.383 -0.6471  0.5899 -0.2202
   78MOL0     C10406   7.225  10.407   6.478  0.1982  0.2598  0.2900
   78MOL0     C10407   7.191  10.451   6.612  0.2798 -0.2274  0.4780
   78MOL0     C10408   7.247  10.358   6.726 -0.2406  0.5981  0.0409
   78MOL0     C10409   7.396  10.383   6.777 -0.9755 -0.3203  0.1524
   78MOL0     C10410   7.444  10.284   6.883 -0.0114  0.0105 -0.7607
   78MOL0     C10411   7.596  10.291   6.915 -0.5138 -0.0637 -0.0374
   78MOL0     N10412   7.650  10.412   6.986  0.7460  0.4056  0.2796
   78MOL0     C10413   7.646  10.433   7.122 -0.0578  0.0556 -0.1435
   78MOL0     C10414   7.691  10.561   7.138 -0.7452  0.4817  0.5038
   78MOL0     C10415   7.687  10.641   7.265  0.2639 -0.1427  0.0533
   78MOL0     C10416   7.575  10.743   7.273 -0.4290 -0.3759  0.7281
   78MOL0     C10417   7.448  10.676   7.284 -0.5907 -0.1735  0.2985
   78MOL0     C10418   7.343  10.736   7.194  0.3078  0.5288 -0.5042
   78MOL0     O10419   7.214  10.723   7.257  0.2020  0.7147 -0.4575
   78MOL0     C10420   7.105  10.715   7.187 -0.2005 -0.3729 -0.9997
   78MOL0     C10421   6.985  10.706   7.262  0.3467 -0.0208 -0.4629
   78MOL0     C10422   6.859  10.684   7.198 -0.5327 -1.1048 -0.2638
   78MOL0     C10423   6.862  10.665   7.058 -0.4867 -0.0968 -0.9139
   78MOL0     C10424   6.741  10.636   6.995  0.7184  0.3988  0.8898
   78MOL0     O10425   6.630  10.621   7.081  0.0850 -0.3010  0.2377
   78MOL0     C10426   6.507  10.613   7.021 -0.0872 -0.5332  0.3083
   78MOL0     C10427   6.436  10.501   7.039  0.3732 -0.4439 -0.0918
   78MOL0     C10428   6.317  10.486   6.965 -0.8367 -0.1912  0.1811
   78MOL0     C10429   6.261  10.583   6.883 -0.0640 -0.5721 -0.9160
   78MOL0     O10430   6.133  10.564   6.833 -0.3482  0.1142 -0.8432
   78MOL0     C10431   6.124  10.460   6.746  1.0279 -0.7921 -0.1924
   78MOL0     C10432   5.985  10.411   6.748 -0.8429 -0.2825 -0.3996
   78MOL0     C10433   5.929  10.341   6.868 -0.3505 -0.0646 -0.3476
   78MOL0     C10434   5.793  10.275   6.851 -1.0058 -0.1763 -0.5072
   78MOL0     C10435   5.789  10.144   6.940 -0.3816 -0.4198 -0.7452
   78MOL0     C10436   5.831  10.161   7.088 -0.2315  0.3337  0.2803
   78MOL0     C10437   5.829  10.033   7.162 -0.1037 -0.4414  0.0175
   78MOL0     C10438   5.865  10.058   7.308  0.1082  0.1785  0.8931
   78MOL0    Cl10439   5.922   9.904   7.379  0.0647  0.2670  0.3350
   78MOL0     C10440   6.316  10.708   6.883 -0.3744 -0.4772 -0.6438
   78MOL0     C10441   6.437  10.722   6.957  1.3285 -0.3820  0.1154
   78MOL0     O10442   6.741  10.618   6.869  0.1724 -0.1525 -0.2484
   78MOL0     C10443   6.987  10.683   6.986 -0.4550  0.5578 -0.6035
   78MOL0     C10444   7.105  10.705   7.048  0.7395  0.5622  0.6955
   78MOL0     N10445   7.744  10.607   7.028 -0.4118  0.2807  1.1301
   78MOL0     N10446   7.718  10.515   6.939 -0.2765 -0.1800  0.1483
   78MOL0     C10447   7.230  10.686   6.079  1.1801 -0.2207 -0.8943
   78MOL0     C10448   7.231  10.715   5.935  0.0887  0.4359 -1.0435
   78MOL0     C10449   7.331  10.924   5.558  1.3476 -1.1264 -0.1960
   78MOL0     C10450   7.451  10.922   5.484  0.2184  0.2285 -0.4329
   78MOL0     C10451   7.461  10.972   5.349 -0.8503  0.0365 -0.8749
   78MOL0     C10452   7.348  11.021   5.291 -0.0891  0.3252  0.0052
   78MOL0     O10453   7.350  11.071   5.163 -0.3523  0.2680 -0.1323
   78MOL0     C10454   7.446  11.017   5.067  0.7971 -0.2477  0.4413
   78MOL0     C10455   7.376  10.983   4.937 -0.1346 -1.0832 -0.1848
   78MOL0     C10456   7.228  10.927   4.953  1.3963 -1.0033  0.1960
   78MOL0     C10457   7.164  10.863   4.827 -0.0913 -0.8646  0.1576
   78MOL0     C10458   7.107  10.982   4.747 -0.2018  1.2376  0.4733
   78MOL0     C10459   7.070  11.076   4.679  0.2974 -0.9814  0.2752
   78MOL0     C10460   7.225  11.026   5.363 -0.4623  0.5683 -0.7903
   78MOL0     C10461   7.214  10.986   5.503  0.9988  0.3558 -0.8940
   78MOL0     C10462   7.082  11.009   5.569  0.1685  1.2238 -0.3654
   78MOL0     H10463   7.276  11.047   5.951  2.2158 -1.4872 -3.8468
   78MOL0     H10464   7.252  10.998   6.203 -2.3854  0.5956 -1.4877
   78MOL0     H10465   7.373  10.610   6.319  1.4048 -1.9742  3.4595
   78MOL0     H10466   7.327  10.660   6.469  0.1270  0.4519  0.0557
   78MOL0     H10467   7.150  10.488   6.286  3.7031 -5.6419  0.2965
   78MOL0     H10468   7.095  10.572   6.433 -0.4671 -1.1113  1.7534
   78MOL0     H10469   7.334  10.405   6.471  0.3158 -2.3892  1.5148
   78MOL0     H10470   7.180  10.313   6.445 -3.5707  2.5038 -1.7686
   78MOL0     H10471   7.209  10.557   6.635  0.6473 -0.4173  1.0959
   78MOL0     H10472   7.083  10.438   6.624  0.2021  0.9646  1.2216
   78MOL0     H10473   7.171  10.349   6.804 -1.8858 -2.2972 -1.6938
   78MOL0     H10474   7.242  10.257   6.685 -3.5956  0.4907  0.4970
   78MOL0     H10475   7.445  10.360   6.682 -1.5556  1.1099 -0.5177
   78MOL0     H10476   7.422  10.485   6.808  1.8215 -0.7416 -0.4842
   78MOL0     H10477   7.429  10.183   6.844  1.2832 -0.2746 -0.5716
   78MOL0     H10478   7.388  10.272   6.975 -1.7078 -2.5134 -2.0089
   78MOL0     H10479   7.627  10.207   6.978 -1.3983 -2.1809 -2.2673
   78MOL0     H10480   7.660  10.291   6.826  2.7376 -1.0695  2.1066
   78MOL0     H10481   7.592  10.367   7.189 -1.6800  1.1817 -0.2759
   78MOL0     H10482   7.671  10.568   7.345  2.2068 -4.2502 -2.9255
   78MOL0     H10483   7.783  10.693   7.273  0.1017  0.5135 -1.6903
   78MOL0     H10484   7.603  10.798   7.363  0.8460  0.1386  0.0513
   78MOL0     H10485   7.572  10.813   7.189  0.8212  0.8406  1.6585
   78MOL0     H10486   7.417  10.673   7.389  0.4841  0.3799  0.6403
   78MOL0     H10487   7.444  10.574   7.247  0.6343 -0.4129  0.7928
   78MOL0     H10488   7.354  10.699   7.092  0.2286 -1.2029  0.0780
   78MOL0     H10489   7.355  10.845   7.192 -2.0013  0.9833  2.4179
   78MOL0     H10490   6.997  10.737   7.365  2.0015  0.3359 -0.7441
   78MOL0     H10491   6.769  10.679   7.259 -1.1432 -1.3777 -1.1658
   78MOL0     H10492   6.468  10.413   7.094  0.2231 -1.4510 -1.5693
   78MOL0     H10493   6.273  10.387   6.964 -1.8371  0.2372  0.7964
   78MOL0     H10494   6.154  10.500   6.649  3.7768 -1.0825  0.4655
   78MOL0     H10495   6.187  10.373   6.765 -0.3373 -1.3390  2.4112
   78MOL0     H10496   5.924  10.494   6.711  0.5725 -0.1305 -2.5520
   78MOL0     H10497   5.972  10.338   6.668  2.9763  0.8876 -2.3242
   78MOL0     H10498   5.999  10.263   6.901 -4.0293 -3.2909  0.6024
   78MOL0     H10499   5.923  10.408   6.953  0.6710 -2.1291  1.4563
   78MOL0     H10500   5.784  10.240   6.748  2.0914  0.6213 -1.1528
   78MOL0     H10501   5.713  10.343   6.881 -0.2566  0.2718  0.5257
   78MOL0     H10502   5.850  10.069   6.890  3.5561  1.7727  0.3176
   78MOL0     H10503   5.688  10.101   6.944 -0.6240  0.1530 -0.5094
   78MOL0     H10504   5.933  10.202   7.090 -0.6263  1.3528  1.1804
   78MOL0     H10505   5.750  10.225   7.124 -3.1226 -2.5497 -0.7357
   78MOL0     H10506   5.910   9.972   7.121 -1.3243 -2.5791  0.6169
   78MOL0     H10507   5.732   9.985   7.147 -1.3163  1.4845  1.2306
   78MOL0     H10508   5.945  10.132   7.311  1.8025 -1.3910 -1.5228
   78MOL0     H10509   5.779  10.099   7.362  0.6863  4.8522 -1.2513
   78MOL0     H10510   6.270  10.782   6.817  2.9713  3.6881  1.1803
   78MOL0     H10511   6.489  10.813   6.929 -1.3873  1.5177  0.8094
   78MOL0     H10512   6.978  10.668   6.879  0.0652 -1.1570 -0.4290
   78MOL0     H10513   7.187  10.728   6.980  2.3697  1.0887  2.7455
   78MOL0     H10514   7.218  10.583   6.110 -1.7510 -0.0149 -0.9968
   78MOL0     H10515   7.214  10.637   5.861  0.6504  1.1319 -1.9219
   78MOL0     H10516   7.544  10.897   5.534 -2.1881 -1.7407  3.5596
   78MOL0     H10517   7.560  10.981   5.306  0.3387 -2.6661  1.0089
   78MOL0     H10518   7.501  10.927   5.096  3.9488  0.6090 -2.3167
   78MOL0     H10519   7.517  11.097   5.047 -0.5345  0.5399 -1.4753
   78MOL0     H10520   7.443  10.913   4.887  0.7659  2.1881 -3.9663
   78MOL0     H10521   7.369  11.071   4.874  1.3898 -1.8999 -1.5532
   78MOL0     H10522   7.169  11.009   4.993 -2.6200 -1.4382 -3.9223
   78MOL0     H10523   7.237  10.848   5.028 -0.2800 -1.9162 -0.4876
   78MOL0     H10524   7.240  10.801   4.780  0.6808  0.3733 -0.2938
   78MOL0     H10525   7.076  10.802   4.850 -1.4447  1.1727  0.6901
   78MOL0     H10526   7.029  11.162   4.630 -0.3185 -2.1856 -1.4264
   78MOL0     H10527   7.157  11.065   5.288  0.7992  1.1850 -1.6342
   78MOL0     H10528   7.027  10.915   5.581  0.4162  1.4191  3.4143
   78MOL0     H10529   7.082  11.052   5.670 -2.2961 -0.5581  0.4882
   78MOL0     H10530   7.016  11.074   5.512 -0.4554 -0.7271 -2.0001
   79MOL0     O10531   1.122   5.810   5.721 -0.6142  0.6190  0.0777
   79MOL0     C10532   1.130   5.689   5.684 -0.3515 -0.1669 -0.0627
   79MOL0     O10533   1.246   5.625   5.646 -0.1255  0.7021 -0.4852
   79MOL0     C10534   1.358   5.703   5.654 -0.5073  0.0691  0.6214
   79MOL0     C10535   1.440   5.639   5.745 -0.2757 -0.2188 -0.5412
   79MOL0     C10536   1.561   5.698   5.773 -0.5209  0.7509 -0.6219
   79MOL0     C10537   1.623   5.805   5.702  0.0200  0.8700 -0.2624
   79MOL0     O10538   1.740   5.868   5.724 -0.9293 -0.4004  1.1113
   79MOL0     C10539   1.773   5.870   5.862 -0.1751  0.0983  0.5712
   79MOL0     C10540   1.883   5.964   5.886  1.8624 -1.2821  0.1787
   79MOL0     C10541   1.893   6.008   6.037  0.3357  0.0299 -0.3273
   79MOL0     C10542   2.005   6.106   6.070  0.1625 -0.6623 -0.8418
   79MOL0     C10543   1.995   6.177   6.216  0.1614  0.1344 -0.3172
   79MOL0     C10544   2.061   6.088   6.330 -0.6853 -0.2829 -0.5789
   79MOL0     C10545   2.206   6.120   6.365  0.2520 -0.0561 -0.4035
   79MOL0     C10546   2.314   6.077   6.262  0.2103 -0.6959  0.1817
   79MOL0     N10547   2.440   6.083   6.331  0.8284 -0.5331 -0.2255
   79MOL0     C10548   2.538   6.164   6.277  0.1348  0.8846 -0.8443
   79MOL0     C10549   2.660   6.121   6.328  0.9931 -0.2224  0.2108
   79MOL0     C10550   2.799   6.146   6.292  0.3707 -0.3254  0.8210
   79MOL0     C10551   2.883   6.162   6.411 -0.1581 -0.0817 -0.0673
   79MOL0     C10552   3.015   6.208   6.373 -0.5291  0.5110  0.4603
   79MOL0     C10553   3.107   6.221   6.496 -0.1269  0.2749  0.1399
   79MOL0     O10554   3.226   6.282   6.444 -0.2422  0.7937  0.1587
   79MOL0     C10555   3.256   6.416   6.446  0.2194  0.2437  0.0829
   79MOL0     C10556   3.159   6.508   6.493 -0.2182 -1.0770 -0.4493
   79MOL0     C10557   3.166   6.642   6.478 -0.7054  0.5133  0.1965
   79MOL0     C10558   3.297   6.697   6.438 -0.5245  0.0373 -0.2899
   79MOL0     C10559   3.313   6.843   6.423 -0.1954 -0.9130 -0.3561
   79MOL0     O10560   3.200   6.916   6.414 -0.4844 -0.4261  0.7767
   79MOL0     C10561   3.201   7.015   6.323  0.9880 -0.8205 -0.6520
   79MOL0     C10562   3.100   7.112   6.337 -0.2897 -0.7843  0.0388
   79MOL0     C10563   3.091   7.224   6.241  1.0097 -0.2347  0.3526
   79MOL0     C10564   3.177   7.227   6.135  0.3652 -0.4055  1.0382
   79MOL0     O10565   3.147   7.321   6.041  0.2209  0.0961  0.4422
   79MOL0     C10566   3.246   7.333   5.929 -1.0322  0.1257 -0.9194
   79MOL0     C10567   3.199   7.439   5.827  0.0199 -0.4221 -0.0343
   79MOL0     C10568   3.189   7.577   5.880 -0.2558 -0.1492  0.0899
   79MOL0     C10569   3.110   7.666   5.784  0.8136 -0.7308 -0.0861
   79MOL0     C10570   2.988   7.751   5.833 -0.4384 -0.0289 -0.7501
   79MOL0     C10571   2.947   7.834   5.721  0.2203 -0.1456  1.4502
   79MOL0     C10572   2.817   7.908   5.759 -0.7771  0.3439 -0.4409
   79MOL0     C10573   2.695   7.821   5.767  0.5086  0.1503  0.0241
   79MOL0    Cl10574   2.564   7.923   5.837 -0.1503  0.3096 -0.0752
   79MOL0     C10575   3.271   7.118   6.112 -1.1837  1.0366 -0.7667
   79MOL0     C10576   3.277   7.016   6.209 -0.1126 -0.2232  0.2545
   79MOL0     O10577   3.429   6.885   6.429 -0.4171 -0.3546 -0.6755
   79MOL0     C10578   3.400   6.605   6.413 -0.0821 -0.1855  0.3521
   79MOL0     C10579   3.379   6.465   6.408 -0.4189  0.0522  0.3602
   79MOL0     N10580   2.627   6.035   6.425  0.3516  0.4267  0.1062
   79MOL0     N10581   2.496   6.013   6.432 -0.1835  0.1958 -0.8090
   79MOL0     C10582   1.527   5.860   5.606  0.4022 -0.5663 -0.9185
   79MOL0     C10583   1.394   5.814   5.584  0.2703  0.5664  0.5862
   79MOL0     C10584   1.015   5.613   5.674  0.5518 -0.8040  0.3131
   79MOL0     C10585   0.891   5.681   5.670 -0.3473  0.9138  0.1832
   79MOL0     C10586   0.767   5.608   5.667  0.1152  0.4438  1.1176
   79MOL0     C10587   0.767   5.472   5.653 -0.6375  0.0199  0.3749
   79MOL0     O10588   0.650   5.415   5.667 -0.0660  0.4243 -0.0351
   79MOL0     C10589   0.626   5.297   5.751 -0.9736  1.3294 -0.1536
   79MOL0     C10590   0.612   5.175   5.657 -0.6943 -0.1070 -0.2066
   79MOL0     C10591   0.590   5.041   5.733 -0.2015 -0.1786  0.1524
   79MOL0     C10592   0.593   4.925   5.632  0.2729 -0.3963  0.0150
   79MOL0     C10593   0.494   4.945   5.520 -0.8613 -0.5217  0.1774
   79MOL0     C10594   0.415   4.987   5.444  1.1487 -0.1975  1.0498
   79MOL0     C10595   0.887   5.400   5.641  0.4608 -0.1666  0.8851
   79MOL0     C10596   1.011   5.469   5.649  0.6168 -0.1131 -0.1493
   79MOL0     C10597   1.128   5.372   5.655  0.0479 -0.7279 -0.2356
   79MOL0     H10598   1.401   5.558   5.806  0.9685 -0.0009  0.6095
   79MOL0     H10599   1.619   5.644   5.847 -0.9868  0.4186 -0.4940
   79MOL0     H10600   1.684   5.901   5.919 -1.0756 -1.2061 -0.0741
   79MOL0     H10601   1.800   5.773   5.905  1.3879 -0.2198 -1.0145
   79MOL0     H10602   1.858   6.055   5.831 -3.1778 -0.4670  3.1571
   79MOL0     H10603   1.981   5.922   5.865  1.5119 -4.1524  3.4233
   79MOL0     H10604   1.893   5.917   6.097 -1.2905  0.4930  0.4350
   79MOL0     H10605   1.798   6.046   6.075  0.3351  0.0326 -0.3306
   79MOL0     H10606   2.105   6.064   6.055  0.5177  0.4892 -1.9168
   79MOL0     H10607   2.003   6.195   6.007  0.2441  1.3804  1.8462
   79MOL0     H10608   2.033   6.279   6.204  4.0281 -1.1530 -0.6431
   79MOL0     H10609   1.887   6.191   6.223  0.1804  1.7043 -2.3127
   79MOL0     H10610   2.002   6.110   6.420 -0.5680 -3.9285  0.5393
   79MOL0     H10611   2.052   5.981   6.312 -2.3361 -0.6028  1.6457
   79MOL0     H10612   2.223   6.062   6.456  0.8955  2.8299  1.4478
   79MOL0     H10613   2.209   6.224   6.398  2.2926 -0.5297  1.0586
   79MOL0     H10614   2.296   5.973   6.233  1.1172 -0.4315 -1.4166
   79MOL0     H10615   2.316   6.130   6.167 -1.0752 -4.2050 -2.0129
   79MOL0     H10616   2.520   6.236   6.198 -2.7774 -1.0736 -2.1186
   79MOL0     H10617   2.840   6.059   6.240 -2.7465 -2.8408  2.2228
   79MOL0     H10618   2.796   6.242   6.240  0.5122 -1.1683 -0.7917
   79MOL0     H10619   2.838   6.228   6.486 -1.0677 -1.5040  0.7054
   79MOL0     H10620   2.888   6.064   6.458 -3.2185 -0.0532  0.5564
   79MOL0     H10621   3.023   6.306   6.326  1.0835 -0.6933 -1.9561
   79MOL0     H10622   3.055   6.140   6.297  0.9724 -0.0293  1.6890
   79MOL0     H10623   3.137   6.119   6.521  0.9262  0.2129 -1.2597
   79MOL0     H10624   3.068   6.278   6.582  0.2729 -1.8685  1.8254
   79MOL0     H10625   3.068   6.471   6.539 -0.4650  2.4968  2.3473
   79MOL0     H10626   3.104   6.721   6.522 -0.7833 -0.6210  2.2610
   79MOL0     H10627   3.033   7.109   6.422 -1.0109  0.0610 -0.4720
   79MOL0     H10628   3.011   7.294   6.259  0.3936 -0.4953 -1.2376
   79MOL0     H10629   3.346   7.351   5.968 -2.2487  2.3456  1.4162
   79MOL0     H10630   3.251   7.241   5.869  1.9889  1.7075 -3.3631
   79MOL0     H10631   3.269   7.447   5.743  0.5861 -0.4083  0.4369
   79MOL0     H10632   3.100   7.399   5.803 -0.3707  0.7024 -0.3401
   79MOL0     H10633   3.136   7.584   5.975 -2.3942  2.2692 -1.1562
   79MOL0     H10634   3.288   7.621   5.895 -1.6505  2.5356  2.5153
   79MOL0     H10635   3.077   7.610   5.696 -0.1498  1.0008 -0.8863
   79MOL0     H10636   3.173   7.754   5.766 -1.0510  0.9279  1.0077
   79MOL0     H10637   3.004   7.808   5.925  2.3066  0.3624 -1.3937
   79MOL0     H10638   2.911   7.679   5.862 -2.3724  1.9516 -0.7364
   79MOL0     H10639   3.031   7.900   5.699 -1.4931  0.9146 -2.9151
   79MOL0     H10640   2.924   7.771   5.634 -0.9697  4.8767 -2.3005
   79MOL0     H10641   2.797   7.988   5.687 -2.6450 -0.0389 -0.3958
   79MOL0     H10642   2.832   7.951   5.858  2.4838 -4.9791  1.8267
   79MOL0     H10643   2.679   7.785   5.665  2.2239 -1.5664  0.3036
   79MOL0     H10644   2.714   7.725   5.815  0.7520 -0.3119 -0.9798
   79MOL0     H10645   3.337   7.103   6.027  0.7897  0.4297  0.8141
   79MOL0     H10646   3.344   6.937   6.178 -2.4754 -2.2162 -0.0522
   79MOL0     H10647   3.492   6.655   6.384 -1.9458  2.8624 -0.8122
   79MOL0     H10648   3.448   6.385   6.385 -0.6852 -0.1011  0.0804
   79MOL0     H10649   1.550   5.960   5.571 -0.6544  0.4580  1.1696
   79MOL0     H10650   1.333   5.859   5.506 -2.4680 -0.9118  1.7432
   79MOL0     H10651   0.887   5.789   5.673  1.4437  0.9858  1.7242
   79MOL0     H10652   0.675   5.658   5.696  1.7355  1.5689  4.8695
   79MOL0     H10653   0.527   5.319   5.792 -1.8791  2.3511 -2.7302
   79MOL0     H10654   0.702   5.280   5.828 -0.4005  0.6542 -0.8523
   79MOL0     H10655   0.699   5.165   5.591 -0.3516 -3.1624  0.5377
   79MOL0     H10656   0.528   5.205   5.594  0.0502  1.1005 -0.6583
   79MOL0     H10657   0.496   5.035   5.788  0.0669 -1.2532  0.5319
   79MOL0     H10658   0.673   5.016   5.799 -0.0981 -1.3710 -0.3860
   79MOL0     H10659   0.693   4.917   5.590 -0.3185  0.2996 -1.6018
   79MOL0     H10660   0.552   4.831   5.671 -2.9031  0.6730 -0.4780
   79MOL0     H10661   0.342   5.032   5.380  2.3516 -1.5160 -1.3870
   79MOL0     H10662   0.881   5.292   5.640  0.9954 -0.2035  0.9539
   79MOL0     H10663   1.187   5.400   5.743 -2.3686  2.7983  0.4836
   79MOL0     H10664   1.088   5.271   5.671  2.7248 -1.3572  4.3460
   79MOL0     H10665   1.176   5.380   5.557  0.3746 -2.1992 -0.2196
   80MOL0     O10666  10.455   0.720   9.199 -0.2424 -0.4775  0.3363
   80MOL0     C10667  10.376   0.749   9.114 -0.1729 -0.4067 -0.8332
   80MOL0     O10668  10.294   0.865   9.127  0.1662 -0.3258 -0.3863
   80MOL0     C10669  10.315   0.964   9.216  0.0525  0.2874  0.0512
   80MOL0     C10670  10.446   1.005   9.245 -0.0834 -0.5052 -1.3012
   80MOL0     C10671  10.477   1.112   9.327  0.1146 -0.1323 -0.3614
   80MOL0     C10672  10.366   1.178   9.388  0.4363 -0.7108 -0.0783
   80MOL0     O10673  10.373   1.272   9.490 -0.5128  0.2846 -0.4080
   80MOL0     C10674  10.494   1.331   9.512  0.2989 -0.2053 -0.3653
   80MOL0     C10675  10.471   1.480   9.500 -0.3145 -0.7871 -0.8254
   80MOL0     C10676  10.594   1.568   9.501  0.6454 -0.0753  0.0415
   80MOL0     C10677  10.540   1.707   9.518 -0.1597 -0.7307 -0.4203
   80MOL0     C10678  10.655   1.808   9.484  0.4279  0.7822  0.0252
   80MOL0     C10679  10.680   1.823   9.329 -0.0507  0.1927  0.4791
   80MOL0     C10680  10.799   1.915   9.317 -0.1827 -0.6981 -0.5720
   80MOL0     C10681  10.828   1.946   9.174 -0.1552 -0.1232  0.6518
   80MOL0     N10682  10.896   1.857   9.074 -0.0152  0.4668  0.7058
   80MOL0     C10683  10.882   1.867   8.935  0.3967  0.0257  0.5468
   80MOL0     C10684  10.955   1.758   8.882 -0.4172  0.4456  0.6751
   80MOL0     C10685  10.958   1.708   8.742  0.5792  0.4070  0.6298
   80MOL0     C10686  10.875   1.581   8.731 -0.0578  0.2061 -0.1439
   80MOL0     C10687  10.835   1.556   8.586 -0.5657 -0.1193 -1.0633
   80MOL0     C10688  10.706   1.637   8.562  0.4843  0.8795  0.5943
   80MOL0     O10689  10.661   1.600   8.424 -0.0886  0.4346 -0.3279
   80MOL0     C10690  10.567   1.684   8.373 -0.9392 -0.0505 -0.4118
   80MOL0     C10691  10.488   1.778   8.445  0.2714  0.4982 -0.3710
   80MOL0     C10692  10.404   1.878   8.388 -0.9661  0.5073  0.1703
   80MOL0     C10693  10.380   1.871   8.255 -0.5733  0.1097 -0.0181
   80MOL0     C10694  10.272   1.949   8.194 -0.2990  0.3790 -0.5327
   80MOL0     O10695  10.264   1.923   8.061 -0.4417  1.0346  0.0621
   80MOL0     C10696  10.140   1.945   8.000  0.4445  0.8435 -0.9584
   80MOL0     C10697  10.152   1.986   7.873  0.1688 -1.1924 -1.1444
   80MOL0     C10698  10.041   2.013   7.801  0.5797 -0.0333  0.1007
   80MOL0     C10699   9.910   1.998   7.852  0.0513  0.0743 -0.3100
   80MOL0     O10700   9.792   2.032   7.780  0.3788  0.0987 -0.3357
   80MOL0     C10701   9.666   2.067   7.841  0.7712  0.0911 -0.2993
   80MOL0     C10702   9.560   2.029   7.740  0.1781  0.2106  0.2377
   80MOL0     C10703   9.432   2.092   7.780 -0.3471  0.4119  0.0134
   80MOL0     C10704   9.400   2.216   7.693 -0.3397 -0.3911  0.3278
   80MOL0     C10705   9.263   2.274   7.727  0.6031 -0.6873 -0.0035
   80MOL0     C10706   9.243   2.361   7.845  0.1964  0.5134  0.4468
   80MOL0     C10707   9.099   2.435   7.841  1.1226  0.5074  0.2705
   80MOL0     C10708   8.979   2.345   7.876  0.6520  0.8311 -0.2061
   80MOL0    Cl10709   8.826   2.445   7.858  0.0973 -0.3900  0.1547
   80MOL0     C10710   9.899   1.955   7.986  0.3949  0.8233  0.0025
   80MOL0     C10711  10.013   1.927   8.059 -1.1718  0.6215 -0.2438
   80MOL0     O10712  10.205   2.031   8.250  0.3251  0.3273 -0.7162
   80MOL0     C10713  10.464   1.784   8.181  0.7554 -0.2080 -0.3841
   80MOL0     C10714  10.560   1.693   8.235  0.2917  0.4985  0.4297
   80MOL0     N10715  11.032   1.699   8.983  0.0420 -0.0539 -0.0422
   80MOL0     N10716  10.980   1.751   9.093  0.1369  0.7710  0.3329
   80MOL0     C10717  10.230   1.129   9.376 -0.0411 -0.0508 -0.9440
   80MOL0     C10718  10.210   1.031   9.285 -0.3952  0.2557  0.7702
   80MOL0     C10719  10.376   0.669   8.991  0.2523 -0.3616 -0.0752
   80MOL0     C10720  10.253   0.674   8.920 -0.0873  0.0628 -0.3179
   80MOL0     C10721  10.236   0.601   8.801  0.5259  0.3180 -0.0255
   80MOL0     C10722  10.328   0.497   8.759 -0.2773  0.3746  0.2704
   80MOL0     O10723  10.325   0.416   8.646  1.1161  0.2596 -0.0170
   80MOL0     C10724  10.206   0.399   8.559  0.8668  0.0445 -0.4493
   80MOL0     C10725  10.252   0.388   8.418 -0.3539  0.0491  0.8908
   80MOL0     C10726  10.141   0.341   8.326 -0.7076  0.2198 -0.1911
   80MOL0     C10727  10.176   0.334   8.181 -0.2092  0.4190  0.1931
   80MOL0     C10728  10.079   0.264   8.099 -0.9992  0.2469  0.6864
   80MOL0     C10729  10.006   0.197   8.030  0.2948 -0.5574  0.4644
   80MOL0     C10730  10.441   0.497   8.838 -0.5845  0.3274  0.7561
   80MOL0     C10731  10.470   0.579   8.951  0.2251 -0.0734  0.2058
   80MOL0     C10732  10.598   0.565   9.017 -0.2875 -0.8289  0.8031
   80MOL0     H10733  10.530   0.960   9.194 -0.7972 -3.3845 -0.1205
   80MOL0     H10734  10.581   1.140   9.341 -0.1587  1.7628 -1.7247
   80MOL0     H10735  10.525   1.320   9.616 -0.3540 -1.5839 -0.2981
   80MOL0     H10736  10.576   1.299   9.446 -0.4352  0.6854 -1.7610
   80MOL0     H10737  10.400   1.497   9.582  0.3300  0.9846 -0.5912
   80MOL0     H10738  10.413   1.499   9.409 -3.8263 -0.8629  1.1932
   80MOL0     H10739  10.647   1.557   9.407  1.1433  0.3753  0.2704
   80MOL0     H10740  10.670   1.545   9.576  1.4399  1.9513 -0.0866
   80MOL0     H10741  10.458   1.734   9.451  1.0979  1.7837 -1.0530
   80MOL0     H10742  10.518   1.717   9.625  0.6548 -2.1085 -0.0916
   80MOL0     H10743  10.627   1.908   9.518 -1.4974 -0.1789  1.4781
   80MOL0     H10744  10.751   1.782   9.529  1.0414  0.2291 -1.5360
   80MOL0     H10745  10.703   1.731   9.275  2.2717  1.8629 -1.5912
   80MOL0     H10746  10.591   1.876   9.294  0.7125  2.8285  2.1965
   80MOL0     H10747  10.886   1.880   9.373  0.7087  1.6023 -0.4323
   80MOL0     H10748  10.773   2.009   9.367  2.2739 -0.7967  1.0599
   80MOL0     H10749  10.736   1.985   9.129  1.2508 -0.0008 -2.3342
   80MOL0     H10750  10.905   2.024   9.182  0.7687 -1.1398  2.0427
   80MOL0     H10751  10.809   1.916   8.871  1.4427  0.7681 -0.1056
   80MOL0     H10752  10.908   1.782   8.679 -0.3057 -1.2622 -0.7011
   80MOL0     H10753  11.058   1.683   8.707 -0.5025 -1.8712 -1.0753
   80MOL0     H10754  10.945   1.502   8.760  2.8795  2.5030 -0.5823
   80MOL0     H10755  10.788   1.582   8.797  0.2135 -0.1298  0.2234
   80MOL0     H10756  10.814   1.451   8.564  1.4766 -1.0182  0.8403
   80MOL0     H10757  10.913   1.596   8.521  2.1442 -0.5624  1.6809
   80MOL0     H10758  10.724   1.745   8.572  0.1361  0.9793  0.1423
   80MOL0     H10759  10.635   1.614   8.642 -0.8212  0.8885 -0.5306
   80MOL0     H10760  10.492   1.784   8.554  0.7036  1.9533 -0.4413
   80MOL0     H10761  10.348   1.959   8.434 -1.5773 -1.0563  2.3321
   80MOL0     H10762  10.238   1.984   7.808 -0.0104 -1.1932 -1.3843
   80MOL0     H10763  10.055   2.052   7.701  2.7365 -1.2207 -0.1114
   80MOL0     H10764   9.646   2.029   7.941  0.8877  3.0813  0.9562
   80MOL0     H10765   9.659   2.176   7.848  0.9184  0.1251 -0.6245
   80MOL0     H10766   9.594   2.073   7.646 -1.5907  1.1240 -0.0193
   80MOL0     H10767   9.543   1.922   7.731  2.9444 -0.2802  0.0352
   80MOL0     H10768   9.352   2.018   7.777  1.3501 -1.4913  0.0574
   80MOL0     H10769   9.433   2.124   7.885 -2.2996 -0.8169  0.4504
   80MOL0     H10770   9.402   2.192   7.586  1.9233 -0.4785  0.3377
   80MOL0     H10771   9.476   2.291   7.717 -2.9846  1.6562  2.9338
   80MOL0     H10772   9.193   2.192   7.741 -1.3971  0.5022 -2.2997
   80MOL0     H10773   9.230   2.317   7.632  3.1302 -1.1695 -1.1753
   80MOL0     H10774   9.259   2.306   7.939 -2.7144  1.6808  1.7263
   80MOL0     H10775   9.312   2.445   7.837 -2.1495  2.3535 -3.2834
   80MOL0     H10776   9.078   2.479   7.744 -1.8085 -1.4811 -0.1225
   80MOL0     H10777   9.095   2.519   7.911 -2.4632  1.6637 -1.1197
   80MOL0     H10778   8.985   2.252   7.818 -1.9844 -1.1221  2.3347
   80MOL0     H10779   8.994   2.314   7.980  0.8665 -0.7917 -0.6855
   80MOL0     H10780   9.803   1.941   8.034  1.3455 -0.4058  1.6608
   80MOL0     H10781  10.012   1.901   8.165 -0.4507  4.8471  0.9783
   80MOL0     H10782  10.466   1.796   8.073  1.8230  1.2268 -0.2231
   80MOL0     H10783  10.615   1.629   8.166  0.5143  2.1896 -1.0443
   80MOL0     H10784  10.146   1.169   9.431 -2.0542 -2.2874 -2.2017
   80MOL0     H10785  10.111   0.990   9.263 -0.3412 -0.8711  2.4349
   80MOL0     H10786  10.167   0.730   8.955  2.2863  2.5183  2.0918
   80MOL0     H10787  10.143   0.602   8.744  0.0489 -1.7328  0.6055
   80MOL0     H10788  10.148   0.492   8.562  0.9302  0.1103  3.1126
   80MOL0     H10789  10.147   0.314   8.593 -2.4537  1.2158 -2.7344
   80MOL0     H10790  10.330   0.312   8.426  1.0960  1.4867  0.9729
   80MOL0     H10791  10.290   0.483   8.380  0.4119 -0.7514 -0.4247
   80MOL0     H10792  10.068   0.421   8.343  0.3006  0.9493  0.9486
   80MOL0     H10793  10.092   0.250   8.362 -0.7716  0.3314  0.0082
   80MOL0     H10794  10.194   0.437   8.149  0.6717  0.3783  0.5416
   80MOL0     H10795  10.268   0.275   8.180 -1.6372 -1.9787 -1.9960
   80MOL0     H10796   9.935   0.124   7.997  1.0104 -2.3730  2.6493
   80MOL0     H10797  10.523   0.436   8.802 -0.5879  1.0098 -0.4642
   80MOL0     H10798  10.647   0.659   9.042  1.3132 -0.9020 -1.7042
   80MOL0     H10799  10.587   0.516   9.114  3.5380  2.7485  3.3921
   80MOL0     H10800  10.673   0.517   8.952 -1.6118  2.1903 -3.3884
   81MOL0     O10801  11.191   8.587   9.744  0.5009 -0.1323  0.2595
   81MOL0     C10802  11.122   8.557   9.837 -0.6547 -0.7213 -0.3520
   81MOL0     O10803  11.130   8.443   9.906 -0.3789 -0.9373  0.1890
   81MOL0     C10804  11.190   8.338   9.842  0.0551 -0.4558  0.0572
   81MOL0     C10805  11.328   8.337   9.844 -0.6799  0.5332 -0.4499
   81MOL0     C10806  11.392   8.234   9.769  0.6315 -0.3124  0.5186
   81MOL0     C10807  11.323   8.142   9.695 -0.4979 -0.0338  1.5432
   81MOL0     O10808  11.397   8.039   9.639 -0.0802 -0.2557  0.0704
   81MOL0     C10809  11.379   8.054   9.497 -0.6492  0.3665  0.2280
   81MOL0     C10810  11.441   7.923   9.432 -0.0658  0.9043  0.0668
   81MOL0     C10811  11.493   7.934   9.284 -0.0656  0.7964 -1.2946
   81MOL0     C10812  11.538   7.802   9.235  0.2677  0.5512  0.4565
   81MOL0     C10813  11.690   7.780   9.265 -0.1633 -0.6469  0.8779
   81MOL0     C10814  11.731   7.661   9.176  0.0203 -0.0290 -0.8228
   81MOL0     C10815  11.877   7.619   9.218  0.1233 -0.3762 -0.5415
   81MOL0     C10816  11.924   7.476   9.165  0.1672  0.0847  0.2493
   81MOL0     N10817  11.965   7.485   9.032  0.6305 -0.5757  0.2944
   81MOL0     C10818  12.095   7.514   8.981  0.8311  1.5217 -0.3773
   81MOL0     C10819  12.083   7.536   8.850 -0.7461  0.5619  0.0352
   81MOL0     C10820  12.188   7.577   8.749  0.5609  0.1488 -0.3106
   81MOL0     C10821  12.239   7.720   8.764 -0.0316 -0.1038  0.1918
   81MOL0     C10822  12.374   7.745   8.692  0.7113  0.2108  0.1385
   81MOL0     C10823  12.412   7.882   8.720 -0.2587 -0.5030 -0.6700
   81MOL0     O10824  12.446   7.899   8.852 -0.2743  0.0666 -0.5071
   81MOL0     C10825  12.522   8.015   8.874  0.2677  0.4947  0.7717
   81MOL0     C10826  12.665   8.011   8.851 -0.6896 -0.1605 -0.6362
   81MOL0     C10827  12.750   8.122   8.880  0.3153 -0.2588 -0.0552
   81MOL0     C10828  12.693   8.245   8.909  1.3691  0.1894 -0.4043
   81MOL0     C10829  12.774   8.365   8.943 -0.0546  0.6340  1.0743
   81MOL0     O10830  12.916   8.351   8.940  0.0615  0.2409 -0.2604
   81MOL0     C10831  12.988   8.457   8.988  0.9789  0.4712  0.1631
   81MOL0     C10832  12.980   8.580   8.912  0.2272  1.4501 -0.3995
   81MOL0     C10833  13.031   8.691   8.960 -0.3183 -0.3599 -0.1431
   81MOL0     C10834  13.082   8.700   9.085 -0.1945  0.1894 -1.1921
   81MOL0     O10835  13.134   8.815   9.135 -0.1849 -0.0101  0.2792
   81MOL0     C10836  13.224   8.889   9.051 -0.0368  0.8622 -0.0799
   81MOL0     C10837  13.257   9.014   9.134  0.2288 -1.2357  0.2209
   81MOL0     C10838  13.155   9.134   9.135 -0.1082  0.1051 -0.7245
   81MOL0     C10839  13.079   9.165   9.000  0.0832 -0.1267  0.6095
   81MOL0     C10840  12.969   9.258   9.029 -0.4086 -1.0098  0.3687
   81MOL0     C10841  12.899   9.303   8.896  0.5334 -0.6720  0.3642
   81MOL0     C10842  12.773   9.384   8.933 -0.0602 -0.2014 -0.8278
   81MOL0     C10843  12.697   9.448   8.821 -0.1701  0.0328 -0.3457
   81MOL0    Cl10844  12.571   9.335   8.746  0.3592 -0.2886 -0.5083
   81MOL0     C10845  13.086   8.583   9.167  1.0336  0.4793 -0.1587
   81MOL0     C10846  13.046   8.458   9.115 -0.3285  0.5131  1.1468
   81MOL0     O10847  12.711   8.471   8.944 -0.3524  0.4038  0.6896
   81MOL0     C10848  12.556   8.251   8.926  0.6728 -0.3132  0.3081
   81MOL0     C10849  12.468   8.138   8.913  0.6954 -0.2024 -0.3408
   81MOL0     N10850  11.950   7.508   8.820  0.4075 -0.3915 -0.7333
   81MOL0     N10851  11.879   7.485   8.925  0.4263 -1.0125 -0.2717
   81MOL0     C10852  11.183   8.151   9.684  0.5072 -0.6805  0.2910
   81MOL0     C10853  11.118   8.255   9.759 -0.1354 -0.7837 -0.6130
   81MOL0     C10854  11.011   8.657   9.882  0.3585  0.2826  0.0177
   81MOL0     C10855  10.962   8.631  10.011  0.1213  0.3798 -0.5682
   81MOL0     C10856  10.869   8.713  10.074  0.5714 -0.2307  0.2346
   81MOL0     C10857  10.827   8.831  10.010  0.6265 -0.4828 -0.1991
   81MOL0     O10858  10.744   8.924  10.071  0.3038 -0.6546  0.4031
   81MOL0     C10859  10.705   8.888  10.204 -1.0072  0.2851  0.3794
   81MOL0     C10860  10.599   8.987  10.256 -0.6467 -0.1838 -0.1743
   81MOL0     C10861  10.595   8.984  10.412 -0.7020  0.1521 -0.0079
   81MOL0     C10862  10.491   9.072  10.480 -0.0671 -0.1830  0.2329
   81MOL0     C10863  10.534   9.212  10.507 -0.0895 -0.0404  0.0038
   81MOL0     C10864  10.565   9.324  10.529  0.2508  0.3681 -0.5788
   81MOL0     C10865  10.873   8.853   9.876 -0.5547 -0.0425 -0.2253
   81MOL0     C10866  10.965   8.773   9.811  0.6289  0.5739 -0.4328
   81MOL0     C10867  10.996   8.814   9.663 -0.0485 -0.7790 -0.6285
   81MOL0     H10868  11.382   8.420   9.889  3.4177 -0.7248 -2.5078
   81MOL0     H10869  11.497   8.228   9.744  0.4927 -4.0532  0.2945
   81MOL0     H10870  11.275   8.056   9.466 -0.9642  2.6745  1.2567
   81MOL0     H10871  11.435   8.140   9.461  1.9023 -1.6555 -1.0303
   81MOL0     H10872  11.376   7.835   9.444  0.7864  0.5023  2.2448
   81MOL0     H10873  11.527   7.910   9.499  0.0892  2.7562  0.2597
   81MOL0     H10874  11.562   8.017   9.272 -1.4289  1.7173 -3.4385
   81MOL0     H10875  11.419   7.959   9.207 -0.2749 -3.1710 -2.6373
   81MOL0     H10876  11.478   7.716   9.266 -0.6907  0.6673 -0.9604
   81MOL0     H10877  11.529   7.810   9.126 -1.3998  1.1669  0.6030
   81MOL0     H10878  11.761   7.862   9.246  0.8586 -1.7413 -0.2153
   81MOL0     H10879  11.706   7.756   9.370  1.6769 -4.2529 -0.0786
   81MOL0     H10880  11.655   7.584   9.196  0.3236 -0.0479  0.3079
   81MOL0     H10881  11.722   7.692   9.071  0.9874 -1.5961 -1.4054
   81MOL0     H10882  11.866   7.615   9.326 -0.1854 -1.1498 -0.5972
   81MOL0     H10883  11.946   7.699   9.189  0.2748  0.7631  2.6283
   81MOL0     H10884  12.001   7.433   9.230  1.9934  0.3222 -1.6498
   81MOL0     H10885  11.842   7.403   9.175  1.1933 -1.2049 -0.4053
   81MOL0     H10886  12.186   7.516   9.041  1.7147 -2.0971 -1.3303
   81MOL0     H10887  12.269   7.503   8.756 -1.0448 -1.8265 -1.4135
   81MOL0     H10888  12.149   7.567   8.647 -0.7358  0.9617  0.0799
   81MOL0     H10889  12.171   7.795   8.724  1.6852  2.1823  1.2923
   81MOL0     H10890  12.267   7.740   8.869  1.6434 -2.1658  0.2030
   81MOL0     H10891  12.370   7.731   8.584 -1.4369  3.7353 -0.3882
   81MOL0     H10892  12.446   7.680   8.743 -0.1055 -1.7144 -1.0541
   81MOL0     H10893  12.331   7.954   8.705  1.1039  1.4168  0.7268
   81MOL0     H10894  12.490   7.927   8.658  0.2924  4.1138  2.7748
   81MOL0     H10895  12.699   7.912   8.820  0.8452  0.5830 -1.4023
   81MOL0     H10896  12.857   8.109   8.870  0.2013 -0.7524 -0.6520
   81MOL0     H10897  12.920   8.569   8.822  1.4059 -4.9899 -0.8551
   81MOL0     H10898  13.034   8.776   8.891  0.2925 -2.0128 -2.2561
   81MOL0     H10899  13.317   8.835   9.033 -0.0338  1.0371 -0.5968
   81MOL0     H10900  13.176   8.922   8.959 -1.4192 -2.6124 -0.7550
   81MOL0     H10901  13.267   8.984   9.239 -3.7040  0.3433  1.2602
   81MOL0     H10902  13.353   9.052   9.098  0.2677  0.6896  2.1843
   81MOL0     H10903  13.082   9.113   9.214 -1.1644 -0.2348 -1.7632
   81MOL0     H10904  13.212   9.226   9.152 -1.1630  0.4279  1.4866
   81MOL0     H10905  13.044   9.067   8.966  3.6115 -1.2118 -0.3837
   81MOL0     H10906  13.151   9.199   8.925 -0.8881 -1.4887 -1.0155
   81MOL0     H10907  13.005   9.334   9.099  2.3788 -1.6902 -0.2104
   81MOL0     H10908  12.892   9.200   9.082 -2.6272 -0.2851 -1.8551
   81MOL0     H10909  12.957   9.377   8.841 -3.4798  2.3159 -0.2360
   81MOL0     H10910  12.858   9.229   8.827  0.2529 -0.5931  0.4440
   81MOL0     H10911  12.810   9.460   9.002 -2.1751  0.4971 -0.3728
   81MOL0     H10912  12.698   9.323   8.983 -0.4249  0.8309 -0.0826
   81MOL0     H10913  12.627   9.515   8.871  1.3783 -1.0605  3.6682
   81MOL0     H10914  12.758   9.498   8.745 -2.4920 -0.9480 -3.0461
   81MOL0     H10915  13.122   8.588   9.269 -2.0968  1.0027  1.0400
   81MOL0     H10916  13.045   8.370   9.178  2.3175 -0.9704 -0.6892
   81MOL0     H10917  12.506   8.347   8.934  2.1956  0.4596  0.9509
   81MOL0     H10918  12.361   8.147   8.931  0.6316 -1.9827  0.4178
   81MOL0     H10919  11.122   8.086   9.622  0.8657 -1.3172  0.5970
   81MOL0     H10920  11.012   8.260   9.738 -0.3402 -1.0693  0.3059
   81MOL0     H10921  10.988   8.543  10.069 -2.1484  0.1842  0.2583
   81MOL0     H10922  10.840   8.682  10.173 -0.8408 -1.7043 -0.5915
   81MOL0     H10923  10.793   8.874  10.268 -1.3093 -0.6953  0.5908
   81MOL0     H10924  10.657   8.790  10.206 -1.4937  0.4977 -0.4867
   81MOL0     H10925  10.500   8.966  10.217 -0.5542  0.7141 -0.9194
   81MOL0     H10926  10.622   9.084  10.212 -0.5177 -0.8835 -1.7009
   81MOL0     H10927  10.694   8.997  10.458 -0.9241  2.1973 -0.0219
   81MOL0     H10928  10.570   8.883  10.444 -2.2594  0.9726  1.5042
   81MOL0     H10929  10.394   9.060  10.430 -1.6389 -2.3552  3.5096
   81MOL0     H10930  10.469   9.029  10.578 -0.4837 -1.0956 -0.2445
   81MOL0     H10931  10.594   9.423  10.557  0.9650 -0.2980  1.1595
   81MOL0     H10932  10.842   8.943   9.824 -1.4458  1.1850  2.2689
   81MOL0     H10933  11.029   8.728   9.604  0.7752 -0.8271 -0.1177
   81MOL0     H10934  10.914   8.859   9.606 -0.8545 -0.1444  0.9548
   81MOL0     H10935  11.085   8.878   9.655 -0.2810 -0.3306  0.2521
   82MOL0     O10936   6.777   0.673   6.953 -0.0310  0.6030  1.1164
   82MOL0     C10937   6.671   0.678   6.885 -0.4592 -0.7497  0.3837
   82MOL0     O10938   6.664   0.723   6.754 -0.2567 -0.7715 -0.1915
   82MOL0     C10939   6.732   0.666   6.653 -0.3312  0.2022 -0.1879
   82MOL0     C10940   6.669   0.664   6.525  0.1251 -0.0530 -0.5349
   82MOL0     C10941   6.738   0.608   6.409  0.4301 -0.8366 -0.9511
   82MOL0     C10942   6.860   0.547   6.429  0.3062  0.5125  0.0879
   82MOL0     O10943   6.918   0.499   6.317  0.1797 -0.4908  0.2926
   82MOL0     C10944   7.029   0.406   6.338 -0.3322  0.7015  0.0004
   82MOL0     C10945   7.075   0.353   6.202 -0.0922 -0.5536 -0.5186
   82MOL0     C10946   6.951   0.277   6.137 -0.9611  0.4735  0.2013
   82MOL0     C10947   6.949   0.252   5.991 -0.8779  0.3391 -0.2149
   82MOL0     C10948   6.905   0.369   5.904  0.0829 -0.1257  0.4520
   82MOL0     C10949   6.886   0.347   5.753 -0.1988  0.3487 -0.1218
   82MOL0     C10950   6.973   0.237   5.694  1.5202  0.1996 -0.3239
   82MOL0     C10951   6.953   0.231   5.543  0.1123 -0.7490  0.0833
   82MOL0     N10952   6.981   0.356   5.474  0.5054 -0.3116 -0.6753
   82MOL0     C10953   7.114   0.388   5.433 -0.6486 -0.3462  0.0433
   82MOL0     C10954   7.104   0.481   5.332 -0.5334 -0.1801 -0.3566
   82MOL0     C10955   7.220   0.529   5.255 -0.7616 -0.1135  1.0318
   82MOL0     C10956   7.354   0.570   5.330 -0.2426  0.1578  0.5519
   82MOL0     C10957   7.357   0.703   5.408  0.0005  0.5409 -0.9612
   82MOL0     C10958   7.273   0.690   5.542  0.8277  0.2029 -0.8498
   82MOL0     O10959   7.288   0.559   5.612 -0.2023  0.2544 -0.0054
   82MOL0     C10960   7.314   0.564   5.747 -0.4083  0.4883  0.0632
   82MOL0     C10961   7.279   0.453   5.820  0.4508  0.0720 -0.1219
   82MOL0     C10962   7.315   0.440   5.949 -0.9999  0.2859 -0.0471
   82MOL0     C10963   7.393   0.542   6.012 -0.3512 -0.0482 -0.1545
   82MOL0     C10964   7.445   0.535   6.152  0.3890  0.0663  0.2729
   82MOL0     O10965   7.393   0.437   6.221  0.5804 -0.4475 -0.5527
   82MOL0     C10966   7.389   0.430   6.357 -1.7705 -0.2019 -0.1532
   82MOL0     C10967   7.378   0.301   6.409  0.4240  0.1772 -0.4205
   82MOL0     C10968   7.331   0.282   6.543  0.1858  0.6460 -0.1340
   82MOL0     C10969   7.299   0.389   6.625  0.4567  1.0296 -0.1720
   82MOL0     O10970   7.267   0.352   6.755  0.0729 -0.9504 -0.4903
   82MOL0     C10971   7.186   0.446   6.833 -0.3735  0.2087 -0.8970
   82MOL0     C10972   7.170   0.364   6.962  0.8838  0.1777 -0.0247
   82MOL0     C10973   7.125   0.459   7.067 -1.1821 -0.5546  0.8554
   82MOL0     C10974   7.044   0.397   7.174 -0.4011 -0.5177 -0.0455
   82MOL0     C10975   7.048   0.492   7.289  0.4936  0.5479 -0.0178
   82MOL0     C10976   6.932   0.454   7.385 -0.3573  0.5933 -0.0271
   82MOL0     C10977   6.953   0.540   7.516 -0.0067 -0.2705 -0.3262
   82MOL0     C10978   6.829   0.536   7.605  0.3926  0.6325 -0.3619
   82MOL0    Cl10979   6.773   0.372   7.634  0.3706 -0.0445  0.2223
   82MOL0     C10980   7.295   0.514   6.561 -0.7418 -0.5486 -0.0177
   82MOL0     C10981   7.351   0.537   6.435 -0.0853 -0.1438  1.9455
   82MOL0     O10982   7.533   0.616   6.181 -0.2231 -0.1553 -0.7680
   82MOL0     C10983   7.429   0.657   5.936  0.5285 -0.1356 -0.8670
   82MOL0     C10984   7.393   0.663   5.802 -0.3683 -0.8735  0.1670
   82MOL0     N10985   6.968   0.516   5.328 -0.0393  0.8942  0.3782
   82MOL0     N10986   6.896   0.438   5.394 -0.3936  0.4020  0.3788
   82MOL0     C10987   6.914   0.537   6.559 -0.5881  0.4065  1.4538
   82MOL0     C10988   6.864   0.605   6.666  0.4168 -0.1025  0.6430
   82MOL0     C10989   6.540   0.635   6.954 -0.4270 -0.6950  0.3389
   82MOL0     C10990   6.422   0.640   6.875 -0.3790 -1.2607  0.5464
   82MOL0     C10991   6.296   0.619   6.923 -0.4567  0.6085  0.1050
   82MOL0     C10992   6.279   0.582   7.056 -0.4629  0.0869 -0.1983
   82MOL0     O10993   6.165   0.566   7.121  0.1655  0.1415 -0.2033
   82MOL0     C10994   6.035   0.582   7.052 -0.0194 -0.3135  0.6252
   82MOL0     C10995   5.928   0.611   7.155 -0.4276 -0.3402 -0.0735
   82MOL0     C10996   5.789   0.625   7.090 -0.1464 -0.2107  0.1898
   82MOL0     C10997   5.679   0.628   7.197 -0.4217  1.2825 -0.3471
   82MOL0     C10998   5.718   0.700   7.321  0.4649 -0.2631  0.7136
   82MOL0     C10999   5.750   0.746   7.428 -1.2697  0.0413 -0.4249
   82MOL0     C11000   6.396   0.574   7.137  0.2096 -0.2720 -0.1558
   82MOL0     C11001   6.522   0.607   7.089 -0.1896 -0.3272  0.2168
   82MOL0     C11002   6.634   0.614   7.192 -0.2337  0.8956  0.0801
   82MOL0     H11003   6.571   0.708   6.511  1.3605  2.8543 -0.7797
   82MOL0     H11004   6.678   0.618   6.319  0.1809  0.8401 -0.6418
   82MOL0     H11005   7.119   0.439   6.390  1.2818 -2.0794 -0.8103
   82MOL0     H11006   6.981   0.324   6.392 -0.5165  0.7710 -0.0558
   82MOL0     H11007   7.157   0.281   6.211 -2.8939 -3.7426  5.0907
   82MOL0     H11008   7.093   0.433   6.129 -1.3421  2.1924  1.9774
   82MOL0     H11009   6.859   0.334   6.155 -0.9058  0.6497 -0.0673
   82MOL0     H11010   6.935   0.183   6.191  1.0319 -0.7112 -1.1482
   82MOL0     H11011   7.045   0.211   5.956 -0.8687  0.5214 -0.4006
   82MOL0     H11012   6.879   0.169   5.977 -0.6988 -0.3117  2.2381
   82MOL0     H11013   6.809   0.406   5.942  1.1368  0.2047  3.0298
   82MOL0     H11014   6.984   0.441   5.929 -1.1391  0.5737  2.6040
   82MOL0     H11015   6.778   0.330   5.756 -0.3618  1.2947  2.8141
   82MOL0     H11016   6.903   0.445   5.707  1.0860 -0.4197 -1.3891
   82MOL0     H11017   6.937   0.143   5.736 -1.0314  0.4732 -1.6734
   82MOL0     H11018   7.079   0.252   5.717  1.1055  1.4951  0.8998
   82MOL0     H11019   7.016   0.158   5.493 -1.3651  0.6096 -4.2231
   82MOL0     H11020   6.850   0.203   5.520  0.0678  1.0477 -2.3914
   82MOL0     H11021   7.200   0.333   5.470 -0.7290 -0.7756 -0.3846
   82MOL0     H11022   7.251   0.458   5.178 -0.5585 -4.1602  4.4775
   82MOL0     H11023   7.185   0.622   5.211 -1.0658  0.0365  1.5709
   82MOL0     H11024   7.384   0.486   5.394  0.9302 -1.3877 -1.8974
   82MOL0     H11025   7.426   0.583   5.249 -2.5603 -0.7497 -1.8213
   82MOL0     H11026   7.314   0.786   5.350 -1.1625 -0.0499 -0.9795
   82MOL0     H11027   7.455   0.725   5.450 -0.6849 -1.1110  1.7762
   82MOL0     H11028   7.167   0.693   5.519  0.1367  1.3266  1.9883
   82MOL0     H11029   7.293   0.779   5.602 -1.3757 -1.5548  2.8532
   82MOL0     H11030   7.233   0.366   5.775  0.1545 -0.5562  1.3604
   82MOL0     H11031   7.285   0.359   6.014  1.7251 -0.2688  0.6784
   82MOL0     H11032   7.409   0.221   6.342 -1.7829 -1.4588  0.3698
   82MOL0     H11033   7.332   0.177   6.572  4.2150  0.0201 -1.9271
   82MOL0     H11034   7.247   0.534   6.854  1.4950 -1.6326  2.1365
   82MOL0     H11035   7.085   0.458   6.793  0.7928  2.2024 -3.5239
   82MOL0     H11036   7.097   0.284   6.948  2.3515 -0.9263 -1.9051
   82MOL0     H11037   7.266   0.325   6.995 -0.1330 -0.8370  1.8722
   82MOL0     H11038   7.218   0.506   7.100 -0.9291 -0.8604  0.5857
   82MOL0     H11039   7.058   0.538   7.032 -3.1536 -2.2210  0.6586
   82MOL0     H11040   7.090   0.301   7.200  0.1884  0.0844  1.2381
   82MOL0     H11041   6.943   0.385   7.135 -0.1319 -0.2160 -0.8569
   82MOL0     H11042   7.027   0.594   7.255  0.8428  0.1240 -1.5862
   82MOL0     H11043   7.144   0.495   7.342 -0.6467  0.0923  2.1602
   82MOL0     H11044   6.837   0.480   7.336  0.1203  1.1148 -0.6976
   82MOL0     H11045   6.933   0.347   7.408  1.8376  0.2898 -1.2370
   82MOL0     H11046   6.984   0.644   7.500  1.4746 -0.5475  0.5028
   82MOL0     H11047   7.033   0.495   7.576 -0.8905  0.1688  1.2377
   82MOL0     H11048   6.826   0.582   7.704 -5.6939  0.4855 -0.0712
   82MOL0     H11049   6.737   0.565   7.554  0.5924 -1.6218 -2.1750
   82MOL0     H11050   7.279   0.607   6.615 -2.1562 -2.0723  2.3668
   82MOL0     H11051   7.338   0.630   6.381 -0.8443 -0.3363  1.7767
   82MOL0     H11052   7.502   0.719   5.986  1.9388 -1.3745 -1.3097
   82MOL0     H11053   7.440   0.746   5.751 -1.9218 -0.3685 -0.5002
   82MOL0     H11054   7.006   0.480   6.571 -0.7620 -0.5977 -1.3139
   82MOL0     H11055   6.915   0.614   6.762 -1.7876  0.0413  1.8818
   82MOL0     H11056   6.426   0.644   6.766 -1.0398 -2.3753  0.4661
   82MOL0     H11057   6.207   0.641   6.866 -1.1803  1.6989  1.5764
   82MOL0     H11058   6.005   0.494   6.994 -0.4853  0.0821  0.2518
   82MOL0     H11059   6.036   0.661   6.977 -2.2308  0.5164  1.3926
   82MOL0     H11060   5.970   0.696   7.211 -2.5964  1.5884 -1.2211
   82MOL0     H11061   5.937   0.524   7.221  3.0567  0.7291  1.1232
   82MOL0     H11062   5.764   0.542   7.024  1.2015  0.1272 -0.7686
   82MOL0     H11063   5.786   0.718   7.033 -0.6797  0.8015  1.7819
   82MOL0     H11064   5.586   0.665   7.153 -2.5397 -1.5583  1.4009
   82MOL0     H11065   5.678   0.524   7.231 -1.1501  1.1703 -0.6951
   82MOL0     H11066   5.771   0.778   7.527 -0.6506 -2.2441  0.2485
   82MOL0     H11067   6.382   0.543   7.240  2.1386 -0.1031  0.1976
   82MOL0     H11068   6.707   0.695   7.183  2.3282 -1.1817  0.7022
   82MOL0     H11069   6.586   0.621   7.290 -0.6001  0.5666 -0.0723
   82MOL0     H11070   6.695   0.524   7.176 -0.5311  1.1798 -3.3138
   83MOL0     O11071   5.029   2.115   6.831 -0.3263  0.4978  0.1016
   83MOL0     C11072   5.124   2.034   6.841  1.1398 -0.5525 -0.0852
   83MOL0     O11073   5.169   1.991   6.952 -0.0305 -0.1172 -0.9338
   83MOL0     C11074   5.097   1.981   7.072  0.7818 -0.0414  0.4832
   83MOL0     C11075   4.978   2.043   7.104  0.6081 -0.6106 -0.8784
   83MOL0     C11076   4.909   2.006   7.226  0.7379 -0.6871 -0.2415
   83MOL0     C11077   4.973   1.916   7.312  0.4463  0.0459  0.8629
   83MOL0     O11078   4.906   1.858   7.420 -0.1577 -0.3669 -0.8192
   83MOL0     C11079   4.823   1.938   7.508  0.2567  0.3469 -0.0711
   83MOL0     C11080   4.811   1.853   7.632  0.2770 -0.3483 -0.3722
   83MOL0     C11081   4.714   1.930   7.731 -0.4610  0.1611 -0.4845
   83MOL0     C11082   4.691   1.869   7.871  0.6031 -0.3951 -0.1987
   83MOL0     C11083   4.591   1.956   7.946 -0.1735 -0.7014 -0.7755
   83MOL0     C11084   4.456   1.893   7.974 -0.7822 -0.4235 -0.6308
   83MOL0     C11085   4.384   1.974   8.089 -0.2010 -0.1543  0.2367
   83MOL0     C11086   4.342   2.117   8.054  0.2404 -0.4522  0.7596
   83MOL0     N11087   4.278   2.119   7.921  0.2638  0.2866  0.9071
   83MOL0     C11088   4.168   2.040   7.875 -0.8992 -0.4689  0.3789
   83MOL0     C11089   4.165   2.093   7.746 -1.0499  0.4878  0.2494
   83MOL0     C11090   4.086   2.045   7.630  0.4047  0.0805  0.6949
   83MOL0     C11091   3.955   1.996   7.671  1.2121  0.3699 -0.2751
   83MOL0     C11092   3.882   2.098   7.756  0.7291  0.5261 -0.1402
   83MOL0     C11093   3.727   2.060   7.782  0.3514 -0.3613  0.2216
   83MOL0     O11094   3.643   2.045   7.665 -0.0104 -0.3840  0.8028
   83MOL0     C11095   3.566   1.924   7.680 -0.4648  0.0697  0.5229
   83MOL0     C11096   3.638   1.800   7.650 -0.8386  0.2112  0.5603
   83MOL0     C11097   3.576   1.676   7.666  0.0161  0.1624  0.6504
   83MOL0     C11098   3.435   1.674   7.695 -0.6847 -0.2835 -0.3388
   83MOL0     C11099   3.366   1.542   7.709  0.2319 -1.4948 -0.1171
   83MOL0     O11100   3.445   1.438   7.756  0.4208 -0.1026  0.2827
   83MOL0     C11101   3.384   1.320   7.773 -0.5936  0.1671 -1.0527
   83MOL0     C11102   3.352   1.287   7.900  0.4685  0.1081 -0.2538
   83MOL0     C11103   3.288   1.159   7.923 -0.1277  0.1619  0.0488
   83MOL0     C11104   3.251   1.079   7.816 -0.4935  0.6380 -0.3697
   83MOL0     O11105   3.198   0.957   7.848  0.3088  0.3636 -0.2547
   83MOL0     C11106   3.065   0.953   7.807  0.0059 -0.1968 -0.7029
   83MOL0     C11107   2.997   0.826   7.872  0.2044  0.3676 -0.3856
   83MOL0     C11108   2.944   0.857   8.015  0.3615 -0.4145 -0.2343
   83MOL0     C11109   2.857   0.739   8.068 -0.3714 -0.6495  0.7654
   83MOL0     C11110   2.796   0.791   8.194  1.2358 -0.0652 -0.9075
   83MOL0     C11111   2.690   0.685   8.232  0.9931  1.4901  0.6645
   83MOL0     C11112   2.593   0.710   8.341  0.4198  0.6052  0.3857
   83MOL0     C11113   2.479   0.608   8.340 -0.2634 -0.1832  0.4031
   83MOL0    Cl11114   2.531   0.465   8.439 -0.0300  0.2273  0.0570
   83MOL0     C11115   3.294   1.107   7.690 -0.1783  0.3424 -0.9342
   83MOL0     C11116   3.364   1.223   7.670 -0.0128 -0.6469  0.4153
   83MOL0     O11117   3.241   1.538   7.692 -0.2802 -0.1646  0.5498
   83MOL0     C11118   3.367   1.793   7.718  0.6724  0.8697  0.2803
   83MOL0     C11119   3.430   1.915   7.715  0.1928  0.2903  0.3483
   83MOL0     N11120   4.259   2.195   7.717 -0.3354  0.4221  0.0185
   83MOL0     N11121   4.323   2.209   7.829  0.4184 -0.1241  0.1282
   83MOL0     C11122   5.102   1.864   7.293 -0.2165 -0.4994  0.2547
   83MOL0     C11123   5.165   1.906   7.173  0.1438 -0.3537 -0.1031
   83MOL0     C11124   5.203   2.003   6.713 -0.7570 -0.9372 -0.5254
   83MOL0     C11125   5.294   1.896   6.726  0.6434 -0.5114 -0.1433
   83MOL0     C11126   5.372   1.862   6.623 -0.1827  0.6622 -0.6374
   83MOL0     C11127   5.373   1.939   6.511  0.8869  0.5285  0.9075
   83MOL0     O11128   5.439   1.881   6.404 -0.1001  0.5501  0.3333
   83MOL0     C11129   5.566   1.950   6.379 -0.1125  0.6941 -0.3554
   83MOL0     C11130   5.643   1.860   6.279  0.6240 -0.1554 -1.0391
   83MOL0     C11131   5.697   1.733   6.339 -0.3761 -0.3073 -0.6222
   83MOL0     C11132   5.842   1.734   6.388  0.5089  0.1355 -0.0399
   83MOL0     C11133   5.879   1.617   6.460 -0.2496 -0.1265  1.6992
   83MOL0     C11134   5.894   1.515   6.526 -0.4479  0.2976  1.2430
   83MOL0     C11135   5.282   2.051   6.491  0.6158  0.7715  0.2004
   83MOL0     C11136   5.200   2.087   6.590 -0.1122  0.2559  0.3842
   83MOL0     C11137   5.104   2.204   6.573 -0.4272 -0.6811 -0.0651
   83MOL0     H11138   4.925   2.116   7.044  0.0601 -0.1191  0.1777
   83MOL0     H11139   4.817   2.056   7.256  2.0451  2.6438 -1.2426
   83MOL0     H11140   4.865   2.036   7.536 -1.1703  0.5153  1.6555
   83MOL0     H11141   4.719   1.950   7.475  0.1120  1.3012  0.6754
   83MOL0     H11142   4.913   1.841   7.671 -0.5108 -1.6735  1.4814
   83MOL0     H11143   4.781   1.748   7.618  0.9177 -0.3944 -1.5015
   83MOL0     H11144   4.617   1.935   7.681  0.3046 -1.5596 -2.2694
   83MOL0     H11145   4.753   2.031   7.746  1.2166 -0.3414 -1.2152
   83MOL0     H11146   4.649   1.770   7.850 -1.7337  1.0060 -2.6573
   83MOL0     H11147   4.794   1.866   7.908  2.1752  3.2625 -3.4919
   83MOL0     H11148   4.643   1.984   8.037  1.4632  0.1392 -1.9281
   83MOL0     H11149   4.564   2.049   7.896 -0.8026 -0.7613 -0.5631
   83MOL0     H11150   4.407   1.900   7.877  0.4486  1.3923 -1.1501
   83MOL0     H11151   4.476   1.791   8.008 -1.2222 -1.1577 -2.4578
   83MOL0     H11152   4.455   1.988   8.171 -0.8371  4.0654  0.2623
   83MOL0     H11153   4.297   1.911   8.109 -3.1292  3.3541 -0.3454
   83MOL0     H11154   4.268   2.147   8.129 -0.5392 -0.9646  0.2095
   83MOL0     H11155   4.437   2.170   8.052 -0.9197  1.7017  0.4103
   83MOL0     H11156   4.118   1.953   7.916 -2.1595 -0.3782 -0.9020
   83MOL0     H11157   4.076   2.137   7.572 -0.7765  0.9109  2.1506
   83MOL0     H11158   4.141   1.971   7.571 -0.3033 -0.5872  0.8547
   83MOL0     H11159   3.913   1.982   7.570  1.5906  3.5547 -0.9730
   83MOL0     H11160   3.951   1.895   7.714 -1.2335 -2.4444 -5.9729
   83MOL0     H11161   3.887   2.198   7.713  1.5425  1.0957  1.2367
   83MOL0     H11162   3.914   2.110   7.860 -2.0536  0.6883  0.7824
   83MOL0     H11163   3.693   2.131   7.857 -1.0159  0.0780 -0.7699
   83MOL0     H11164   3.719   1.966   7.838 -2.8664  1.7894  3.8624
   83MOL0     H11165   3.739   1.820   7.616 -0.2130  1.6646  3.0567
   83MOL0     H11166   3.628   1.581   7.660 -1.2515 -0.5465  0.4695
   83MOL0     H11167   3.385   1.345   7.985 -0.2540 -0.0561  0.1420
   83MOL0     H11168   3.259   1.128   8.023  0.2018 -1.1317 -0.2491
   83MOL0     H11169   3.012   1.044   7.838 -0.9533 -0.7367 -0.7265
   83MOL0     H11170   3.063   0.950   7.697  1.7431  3.5478 -1.0169
   83MOL0     H11171   2.916   0.785   7.812 -0.4980  1.5882 -0.2886
   83MOL0     H11172   3.073   0.747   7.866 -0.7232 -0.4820 -1.0994
   83MOL0     H11173   3.017   0.880   8.092  1.1111 -4.5295  0.5520
   83MOL0     H11174   2.884   0.948   8.013  2.2100  0.9170  1.1266
   83MOL0     H11175   2.920   0.649   8.076 -1.4163 -1.9644 -3.2082
   83MOL0     H11176   2.780   0.725   7.992 -1.1254  0.6448  1.2672
   83MOL0     H11177   2.750   0.889   8.205  0.6357 -0.6186  3.5636
   83MOL0     H11178   2.875   0.805   8.269  2.2920 -0.0271 -1.9929
   83MOL0     H11179   2.628   0.653   8.148  0.2239  1.8952  1.0640
   83MOL0     H11180   2.746   0.596   8.261 -2.7401 -1.1608  0.4955
   83MOL0     H11181   2.564   0.814   8.325 -2.5453 -0.3402 -1.1037
   83MOL0     H11182   2.646   0.701   8.436  0.2206  3.3700  0.8275
   83MOL0     H11183   2.402   0.674   8.380  1.7986  3.8181 -1.5969
   83MOL0     H11184   2.452   0.577   8.239  1.9696  0.6716 -0.5211
   83MOL0     H11185   3.260   1.029   7.622 -0.4949 -2.1534  1.8604
   83MOL0     H11186   3.396   1.258   7.572 -0.1942  1.8517  1.1680
   83MOL0     H11187   3.270   1.792   7.768  0.2570  1.3832 -0.4923
   83MOL0     H11188   3.371   2.002   7.743  1.5152  1.4857 -0.4270
   83MOL0     H11189   5.152   1.795   7.360 -1.3923  0.6507  2.4211
   83MOL0     H11190   5.269   1.874   7.169  0.4205  0.5672 -3.1589
   83MOL0     H11191   5.288   1.823   6.805  1.0939 -0.9815 -0.5369
   83MOL0     H11192   5.440   1.778   6.630 -1.4004 -0.2534  0.8404
   83MOL0     H11193   5.623   1.961   6.472 -1.1478 -1.2778  0.5762
   83MOL0     H11194   5.562   2.047   6.329  0.7668 -0.0348 -1.9006
   83MOL0     H11195   5.718   1.933   6.248 -2.5103  3.8069 -0.2050
   83MOL0     H11196   5.583   1.829   6.192  0.4627  1.2599 -1.4604
   83MOL0     H11197   5.684   1.669   6.251 -2.3366  0.7626 -1.1841
   83MOL0     H11198   5.640   1.701   6.427  2.8499 -2.2360  0.9441
   83MOL0     H11199   5.896   1.741   6.294 -0.0415  1.8067 -0.2667
   83MOL0     H11200   5.856   1.822   6.452 -0.7119  0.8518 -0.7193
   83MOL0     H11201   5.935   1.422   6.562  3.0310  1.9159  1.8986
   83MOL0     H11202   5.285   2.103   6.396 -0.2827  3.9434  1.7613
   83MOL0     H11203   5.155   2.278   6.510 -1.8494  1.6112  1.3403
   83MOL0     H11204   5.012   2.172   6.522 -0.3022  2.1588 -2.3322
   83MOL0     H11205   5.082   2.252   6.669 -0.4689 -0.6243 -0.1029
   84MOL0     O11206   7.375   9.889   5.962  0.2746 -0.7119  0.5624
   84MOL0     C11207   7.464   9.968   5.977  0.0913 -0.3084 -0.2097
   84MOL0     O11208   7.530   9.995   6.099  0.7882 -0.2009  0.2774
   84MOL0     C11209   7.459   9.987   6.219  0.2713  0.5650 -0.9599
   84MOL0     C11210   7.461  10.113   6.287  0.8161 -0.1378  0.1754
   84MOL0     C11211   7.414  10.110   6.420 -0.2755 -0.8823 -0.3889
   84MOL0     C11212   7.368   9.991   6.484 -0.3300  0.0586  0.4203
   84MOL0     O11213   7.326  10.009   6.613 -0.4410 -0.3702  0.0298
   84MOL0     C11214   7.229   9.921   6.658 -0.4911  0.3999 -0.5440
   84MOL0     C11215   7.182   9.982   6.787  0.8133 -0.6758 -1.6261
   84MOL0     C11216   7.076   9.901   6.863 -0.3185 -1.0734 -0.0298
   84MOL0     C11217   7.067   9.934   7.011  0.4652  0.1808 -0.1075
   84MOL0     C11218   6.960   9.850   7.084 -0.2445 -0.1056  0.0289
   84MOL0     C11219   6.957   9.880   7.233 -0.0278  0.1819  0.1807
   84MOL0     C11220   6.904   9.766   7.308  0.8791  0.8979 -0.9747
   84MOL0     C11221   6.865   9.807   7.452  0.2488 -0.3487 -0.3193
   84MOL0     N11222   6.981   9.830   7.544  0.3805  0.2102 -0.3401
   84MOL0     C11223   7.062   9.942   7.564  0.2414  0.0009  0.4160
   84MOL0     C11224   7.159   9.900   7.644  1.2920 -0.4671 -0.3368
   84MOL0     C11225   7.263  10.001   7.694  0.1548  0.0822 -0.0830
   84MOL0     C11226   7.345   9.941   7.814  0.4627 -0.5106 -0.3847
   84MOL0     C11227   7.460  10.031   7.863 -1.4199 -0.0074  0.3818
   84MOL0     C11228   7.527  10.128   7.762 -0.3522  0.5411 -0.1861
   84MOL0     O11229   7.649  10.190   7.820  0.1194  0.1692  0.0790
   84MOL0     C11230   7.762  10.119   7.819 -0.6471 -0.0065 -0.8143
   84MOL0     C11231   7.866  10.186   7.887 -0.4108  0.2892 -0.3370
   84MOL0     C11232   7.985  10.114   7.898  0.6769  0.2311  0.6172
   84MOL0     C11233   8.012   9.993   7.829  0.1085 -0.0800  0.8533
   84MOL0     C11234   8.139   9.924   7.835 -0.0681  0.1228  0.4399
   84MOL0     O11235   8.139   9.795   7.794 -0.9204 -0.0410  0.2346
   84MOL0     C11236   8.246   9.731   7.740 -0.2147  0.5759 -1.2960
   84MOL0     C11237   8.278   9.598   7.769  0.1718  0.2314 -0.7155
   84MOL0     C11238   8.386   9.538   7.717  0.2347  0.8004  0.4303
   84MOL0     C11239   8.472   9.612   7.628 -0.8071 -0.1901 -0.3659
   84MOL0     O11240   8.579   9.537   7.584  0.0629  0.0624 -0.1387
   84MOL0     C11241   8.706   9.602   7.541  0.1909 -0.0419 -0.0805
   84MOL0     C11242   8.814   9.507   7.536 -0.1250 -0.1333 -1.0438
   84MOL0     C11243   8.932   9.563   7.462 -0.4637  0.0303 -0.6464
   84MOL0     C11244   9.056   9.483   7.515  0.9060  0.2406  0.3027
   84MOL0     C11245   9.188   9.564   7.520 -0.0437 -0.0729 -0.0266
   84MOL0     C11246   9.190   9.687   7.611 -0.6892 -0.2991  0.6341
   84MOL0     C11247   9.157   9.661   7.763  0.3700 -0.6528 -0.1622
   84MOL0     C11248   9.260   9.580   7.837  0.4820 -0.5312  0.3503
   84MOL0    Cl11249   9.418   9.664   7.877  0.0513  0.4126 -0.1167
   84MOL0     C11250   8.443   9.739   7.592  0.1063 -0.6782  0.3852
   84MOL0     C11251   8.325   9.794   7.645 -0.0676  0.0373 -0.8570
   84MOL0     O11252   8.239   9.988   7.860 -0.4545 -0.6184 -0.3852
   84MOL0     C11253   7.913   9.937   7.745  0.4339 -0.7791 -0.1537
   84MOL0     C11254   7.780   9.997   7.748 -0.1948  0.2581  0.4234
   84MOL0     N11255   7.141   9.765   7.678 -0.4885 -0.5170  0.2344
   84MOL0     N11256   7.041   9.730   7.614 -0.4567  0.5788 -0.5873
   84MOL0     C11257   7.364   9.869   6.407 -0.2957 -0.8090  0.0102
   84MOL0     C11258   7.415   9.864   6.275  0.0253 -0.8564  0.1620
   84MOL0     C11259   7.538  10.018   5.865  0.3178 -0.0349  0.2020
   84MOL0     C11260   7.633  10.118   5.890  0.3368  1.2399  0.0322
   84MOL0     C11261   7.739  10.144   5.802  0.1605  0.1648  0.4914
   84MOL0     C11262   7.750  10.081   5.681 -0.2001  0.5433 -0.4200
   84MOL0     O11263   7.861  10.107   5.602  0.2113  0.2433 -0.2582
   84MOL0     C11264   7.883  10.040   5.480  0.4049 -1.0957 -0.5779
   84MOL0     C11265   7.829  10.132   5.369 -0.8495  0.3675  0.2786
   84MOL0     C11266   7.916  10.246   5.314 -0.2745 -0.5634  0.0122
   84MOL0     C11267   8.056  10.201   5.266  0.6517 -0.5468 -0.0581
   84MOL0     C11268   8.121  10.315   5.218 -0.3079 -1.0091  0.2036
   84MOL0     C11269   8.164  10.431   5.213 -0.2369 -0.1179 -0.7657
   84MOL0     C11270   7.639   9.996   5.651 -0.5833  0.3250  0.4551
   84MOL0     C11271   7.525   9.970   5.734  0.1367  0.2389  0.0057
   84MOL0     C11272   7.414   9.883   5.700 -0.3414 -0.5130  0.7273
   84MOL0     H11273   7.510  10.195   6.236 -2.3217  0.5553 -1.9816
   84MOL0     H11274   7.433  10.194   6.485 -1.4335  0.5270 -1.8040
   84MOL0     H11275   7.151   9.902   6.584 -0.9911 -1.9840  0.5046
   84MOL0     H11276   7.278   9.827   6.686  2.8966  2.7024  2.0305
   84MOL0     H11277   7.132  10.079   6.775 -1.1921 -1.2232  1.2113
   84MOL0     H11278   7.262   9.999   6.860 -0.5841 -0.8548  0.0071
   84MOL0     H11279   7.093   9.794   6.849 -3.8564 -1.5835 -1.4271
   84MOL0     H11280   6.982   9.912   6.809  1.1446 -0.2090 -2.5692
   84MOL0     H11281   7.165   9.915   7.056  0.7469  1.3181 -0.2205
   84MOL0     H11282   7.037  10.037   7.033  1.4052  0.0002  2.4462
   84MOL0     H11283   6.864   9.867   7.033  0.2889  1.8192 -0.4302
   84MOL0     H11284   6.985   9.745   7.069 -0.0731 -0.3471  1.8141
   84MOL0     H11285   7.052   9.908   7.279 -0.3630  1.8631 -0.0866
   84MOL0     H11286   6.887   9.962   7.249  0.6892  1.1924 -1.4983
   84MOL0     H11287   6.971   9.680   7.318  0.4963  0.8760  4.2251
   84MOL0     H11288   6.811   9.734   7.260 -1.0670  2.8512  1.2360
   84MOL0     H11289   6.792   9.889   7.456  1.6430  0.9349  0.2455
   84MOL0     H11290   6.813   9.721   7.494 -0.2413  0.5733  1.0409
   84MOL0     H11291   7.062  10.044   7.526 -1.3139  0.0940  0.6178
   84MOL0     H11292   7.328  10.004   7.606 -2.4466 -1.3030 -2.2195
   84MOL0     H11293   7.220  10.098   7.719 -1.2864  0.3328 -3.0700
   84MOL0     H11294   7.293   9.893   7.897 -0.5391 -0.1136 -0.7553
   84MOL0     H11295   7.392   9.852   7.772  0.9472 -0.4894  0.0979
   84MOL0     H11296   7.539   9.982   7.920 -1.0934 -0.5491 -0.5316
   84MOL0     H11297   7.414  10.090   7.944 -0.4985  0.6331  0.4478
   84MOL0     H11298   7.451  10.205   7.747  2.4145  3.6667  0.5724
   84MOL0     H11299   7.541  10.077   7.666 -0.1442  1.9914 -0.9547
   84MOL0     H11300   7.836  10.268   7.952  2.6860  1.0088  0.3490
   84MOL0     H11301   8.072  10.161   7.942  1.6113 -1.1562  0.2782
   84MOL0     H11302   8.202   9.558   7.835 -0.7890  0.6333 -1.5555
   84MOL0     H11303   8.407   9.433   7.737 -0.6350  0.7555  1.1516
   84MOL0     H11304   8.694   9.639   7.438  2.9096 -0.5045 -0.6358
   84MOL0     H11305   8.739   9.679   7.610  1.3753 -1.0364  0.4932
   84MOL0     H11306   8.824   9.488   7.643 -1.5758 -6.2645 -1.6200
   84MOL0     H11307   8.796   9.407   7.495 -1.1354 -0.6967  0.6651
   84MOL0     H11308   8.923   9.545   7.355  1.7358 -1.0283 -0.7090
   84MOL0     H11309   8.935   9.671   7.475 -1.9827  0.2232 -1.6343
   84MOL0     H11310   9.080   9.395   7.455  2.4433  0.9756 -0.2018
   84MOL0     H11311   9.038   9.451   7.618 -1.8668 -1.2453 -0.5203
   84MOL0     H11312   9.206   9.606   7.421 -0.4365 -0.6098 -0.3338
   84MOL0     H11313   9.271   9.495   7.540 -0.5541 -0.8801 -0.6515
   84MOL0     H11314   9.294   9.722   7.610 -0.5941 -0.5677  0.9260
   84MOL0     H11315   9.129   9.769   7.572  2.3371  2.7017  1.7188
   84MOL0     H11316   9.065   9.602   7.757 -0.3075  0.2954  0.7374
   84MOL0     H11317   9.136   9.748   7.826  1.1242 -1.2361  0.9400
   84MOL0     H11318   9.207   9.549   7.928 -0.3087 -0.2788 -0.0117
   84MOL0     H11319   9.266   9.483   7.787 -0.4796 -0.4176 -0.0136
   84MOL0     H11320   8.493   9.791   7.511 -1.0781 -0.8256 -0.4758
   84MOL0     H11321   8.311   9.897   7.615  2.6730  0.4800 -0.8789
   84MOL0     H11322   7.921   9.833   7.715 -0.3136 -1.2265  1.1053
   84MOL0     H11323   7.699   9.943   7.699  0.3716 -0.9994  0.8549
   84MOL0     H11324   7.324   9.779   6.453  2.0722 -1.1197  1.6255
   84MOL0     H11325   7.414   9.767   6.226 -4.1354 -0.8680 -0.0404
   84MOL0     H11326   7.638  10.175   5.982  0.3723  1.0770  0.1334
   84MOL0     H11327   7.822  10.208   5.828 -0.9841  0.8897  2.5638
   84MOL0     H11328   7.849   9.937   5.495  0.7833 -1.1412  0.0005
   84MOL0     H11329   7.991  10.028   5.473  0.4613 -1.4142  0.6220
   84MOL0     H11330   7.747  10.192   5.409  0.3171  2.6106 -0.4854
   84MOL0     H11331   7.790  10.066   5.291 -0.4592  0.0236  0.3693
   84MOL0     H11332   7.924  10.319   5.395 -0.9619  3.3472 -3.0949
   84MOL0     H11333   7.855  10.290   5.234 -0.2525 -2.7269 -1.2632
   84MOL0     H11334   8.121  10.173   5.349  1.4992  2.0501  0.2242
   84MOL0     H11335   8.046  10.123   5.190  1.9563  0.0673 -0.8904
   84MOL0     H11336   8.193  10.535   5.215  5.6063 -1.4027 -0.0698
   84MOL0     H11337   7.629   9.949   5.553 -0.8851  0.0131  0.6337
   84MOL0     H11338   7.385   9.869   5.595 -1.4259 -2.3583  1.2213
   84MOL0     H11339   7.424   9.783   5.743 -1.5421 -0.3349  1.4670
   84MOL0     H11340   7.324   9.933   5.736  0.1706  1.4608 -0.5433
   85MOL0     O11341   4.011   4.684   1.278  0.1541 -0.1947 -0.0231
   85MOL0     C11342   3.888   4.695   1.287  0.0478  0.0725 -0.2115
   85MOL0     O11343   3.805   4.755   1.192  0.1512  0.1537 -0.4338
   85MOL0     C11344   3.863   4.817   1.086  0.1058 -0.3086  0.2070
   85MOL0     C11345   3.966   4.912   1.095  0.5483 -0.0633 -0.4723
   85MOL0     C11346   4.028   4.968   0.988  0.5526  0.0814 -0.1926
   85MOL0     C11347   3.992   4.920   0.861 -0.0987  0.5259  0.4526
   85MOL0     O11348   4.035   4.980   0.746 -0.0655  0.5131  0.2918
   85MOL0     C11349   4.143   5.078   0.765 -0.3196 -0.5677  0.4551
   85MOL0     C11350   4.203   5.127   0.629  0.2087  0.0268 -0.7481
   85MOL0     C11351   4.090   5.203   0.556 -0.2596  0.2815 -0.4380
   85MOL0     C11352   4.134   5.223   0.410  0.1444  0.7792  0.5018
   85MOL0     C11353   4.262   5.305   0.389  0.0209  0.2345  0.9749
   85MOL0     C11354   4.282   5.328   0.242  0.1867  0.1568  0.2247
   85MOL0     C11355   4.344   5.197   0.185  0.2830 -0.5185 -0.1168
   85MOL0     C11356   4.348   5.202   0.033  0.3151  0.4366  0.2766
   85MOL0     N11357   4.214   5.248  -0.021 -0.5916 -0.2364  0.3009
   85MOL0     C11358   4.205   5.375  -0.087  0.0342 -0.0086  0.3454
   85MOL0     C11359   4.098   5.357  -0.170 -0.0354  0.7762 -0.8748
   85MOL0     C11360   4.041   5.457  -0.264  0.7304 -0.6093 -0.1100
   85MOL0     C11361   3.991   5.591  -0.192  0.9354 -0.3620  0.1006
   85MOL0     C11362   3.859   5.566  -0.105 -0.4031  0.3898 -0.0171
   85MOL0     C11363   3.866   5.493   0.029 -0.4038 -0.4036  0.1213
   85MOL0     O11364   3.963   5.558   0.115  0.6733  0.8343  0.0801
   85MOL0     C11365   3.927   5.681   0.167  0.3622 -0.7101 -0.0910
   85MOL0     C11366   3.826   5.687   0.268 -0.7643  1.0065  0.0542
   85MOL0     C11367   3.797   5.819   0.319 -0.3657 -0.2366 -0.0009
   85MOL0     C11368   3.847   5.936   0.260  0.0764 -0.2572  0.1336
   85MOL0     C11369   3.800   6.064   0.315 -0.0854 -0.0079 -0.0853
   85MOL0     O11370   3.835   6.171   0.243 -0.3772 -0.3493 -0.3435
   85MOL0     C11371   3.805   6.310   0.272  0.9969  0.3985 -0.4894
   85MOL0     C11372   3.748   6.372   0.386 -0.3570 -1.1139  0.7874
   85MOL0     C11373   3.735   6.518   0.386 -1.2532  0.0602  0.0187
   85MOL0     C11374   3.765   6.602   0.276 -0.3575  0.5704 -0.6309
   85MOL0     O11375   3.747   6.743   0.289  0.5363  0.3773 -0.4674
   85MOL0     C11376   3.722   6.819   0.172  0.6283  0.2162 -0.5478
   85MOL0     C11377   3.761   6.965   0.186  0.5884 -0.4326  0.5770
   85MOL0     C11378   3.911   6.973   0.179 -0.8238  0.5421 -0.7364
   85MOL0     C11379   3.951   7.076   0.081  0.0725 -0.1866 -0.3933
   85MOL0     C11380   4.103   7.077   0.085 -0.3542 -0.2074 -0.1206
   85MOL0     C11381   4.167   7.154   0.198  0.3613  0.2446 -0.2811
   85MOL0     C11382   4.304   7.208   0.181  0.0498  0.5011  0.5852
   85MOL0     C11383   4.406   7.108   0.121 -0.7055  0.8070  0.6550
   85MOL0    Cl11384   4.560   7.206   0.083  0.2185  0.3732  0.4293
   85MOL0     C11385   3.835   6.532   0.178 -0.0861 -0.2111 -0.0373
   85MOL0     C11386   3.857   6.394   0.184 -0.0426 -0.3507  0.1946
   85MOL0     O11387   3.727   6.074   0.418 -0.0311  0.7028  0.7652
   85MOL0     C11388   3.934   5.921   0.152  0.6323 -0.4741  0.3127
   85MOL0     C11389   3.978   5.790   0.107  0.1182 -0.9565 -0.3706
   85MOL0     N11390   4.059   5.227  -0.155 -1.1957 -0.2045  0.8107
   85MOL0     N11391   4.131   5.163  -0.072  0.1660  0.0419  0.5183
   85MOL0     C11392   3.896   4.818   0.844 -0.6629 -0.1386 -0.4595
   85MOL0     C11393   3.828   4.762   0.965 -1.1207 -0.8958  0.7313
   85MOL0     C11394   3.830   4.663   1.417  0.2787  0.4248  0.2175
   85MOL0     C11395   3.700   4.712   1.449  0.3937 -0.0075  0.0038
   85MOL0     C11396   3.639   4.691   1.568 -0.5012 -0.6292 -0.0201
   85MOL0     C11397   3.696   4.604   1.662 -0.2609  0.1929  0.4853
   85MOL0     O11398   3.631   4.574   1.771 -0.5120  0.4525 -1.5656
   85MOL0     C11399   3.545   4.456   1.771  0.1784  0.6940  0.2949
   85MOL0     C11400   3.455   4.433   1.893  0.7167 -0.2233 -0.8297
   85MOL0     C11401   3.519   4.456   2.033  0.3121 -0.0765  0.4244
   85MOL0     C11402   3.650   4.378   2.034  0.5864 -0.6358 -0.0328
   85MOL0     C11403   3.706   4.382   2.166 -0.3232  0.3565 -0.3915
   85MOL0     C11404   3.756   4.397   2.278  0.1532 -0.4440  0.2119
   85MOL0     C11405   3.831   4.558   1.642 -0.0078 -0.8571 -0.1620
   85MOL0     C11406   3.901   4.589   1.523  0.3643 -0.4942  0.2112
   85MOL0     C11407   4.038   4.524   1.513 -0.0013 -0.5494  0.6139
   85MOL0     H11408   3.984   4.949   1.195 -2.3115 -1.7396  0.7640
   85MOL0     H11409   4.099   5.049   1.002  0.4084  0.4833 -1.5949
   85MOL0     H11410   4.108   5.173   0.807  3.1449  1.5552 -1.0144
   85MOL0     H11411   4.225   5.027   0.817 -0.5592 -0.4763  0.9297
   85MOL0     H11412   4.227   5.042   0.564  0.3777  0.7745 -1.6851
   85MOL0     H11413   4.292   5.186   0.654  1.5354 -0.8472 -3.1128
   85MOL0     H11414   4.067   5.298   0.605 -4.7580 -1.2796  0.9274
   85MOL0     H11415   3.994   5.151   0.559 -2.1339  3.5354  0.6327
   85MOL0     H11416   4.136   5.120   0.373  1.1768  1.8762 -2.9515
   85MOL0     H11417   4.052   5.263   0.349 -0.3856 -0.4783  0.3426
   85MOL0     H11418   4.253   5.409   0.420  1.1376  1.7372 -3.0884
   85MOL0     H11419   4.349   5.264   0.440  0.1630 -1.9489 -0.8348
   85MOL0     H11420   4.192   5.362   0.191  0.2328  2.3700  1.4867
   85MOL0     H11421   4.351   5.412   0.228  0.7336 -0.3846 -0.3850
   85MOL0     H11422   4.296   5.102   0.210 -1.3771  0.5909  1.1835
   85MOL0     H11423   4.444   5.195   0.231  0.4566 -2.2459 -0.5086
   85MOL0     H11424   4.434   5.264   0.004 -0.1238  2.2928  2.6195
   85MOL0     H11425   4.366   5.098   0.004 -0.5088  0.5545 -0.7223
   85MOL0     H11426   4.269   5.463  -0.089 -0.8609  0.6630 -1.8928
   85MOL0     H11427   4.109   5.491  -0.343 -1.5378 -0.7590 -2.2448
   85MOL0     H11428   3.962   5.414  -0.327  0.6206 -0.2427 -0.2232
   85MOL0     H11429   4.076   5.642  -0.147  1.4944  0.2183 -1.5490
   85MOL0     H11430   3.953   5.657  -0.270  0.7542  1.6229  1.7720
   85MOL0     H11431   3.792   5.504  -0.165  1.2397 -1.3707 -0.1526
   85MOL0     H11432   3.811   5.662  -0.084 -2.2995 -0.4126 -0.4754
   85MOL0     H11433   3.888   5.392  -0.005 -2.4458  0.1858 -3.4872
   85MOL0     H11434   3.767   5.474   0.071 -0.1137  1.8175  1.9944
   85MOL0     H11435   3.790   5.590   0.301  4.0618 -2.4137 -3.3358
   85MOL0     H11436   3.718   5.835   0.391  0.4790  0.0004  0.8816
   85MOL0     H11437   3.701   6.324   0.472 -2.2912 -1.9384 -0.6642
   85MOL0     H11438   3.680   6.572   0.463  1.9175  0.9623  1.8001
   85MOL0     H11439   3.776   6.767   0.092  0.0289 -1.6712  0.2111
   85MOL0     H11440   3.616   6.830   0.147  0.8794  0.9747 -1.3269
   85MOL0     H11441   3.714   7.017   0.102  0.5669 -2.2615 -0.5937
   85MOL0     H11442   3.724   6.989   0.286 -1.7648 -1.5906  0.0578
   85MOL0     H11443   3.937   7.016   0.277  1.3930  0.7784 -1.3830
   85MOL0     H11444   3.955   6.876   0.157 -0.6082 -0.3938  3.1572
   85MOL0     H11445   3.913   7.177   0.097  2.7988  0.7755  0.6173
   85MOL0     H11446   3.915   7.052  -0.020  1.9383 -0.6602 -1.0020
   85MOL0     H11447   4.132   7.131  -0.006 -0.1088 -1.7712 -1.0170
   85MOL0     H11448   4.144   6.976   0.076  0.2554 -0.0026  0.3344
   85MOL0     H11449   4.102   7.239   0.223 -2.9564 -0.7932 -4.2031
   85MOL0     H11450   4.155   7.083   0.281 -0.9881 -0.5920 -1.1485
   85MOL0     H11451   4.346   7.259   0.268  1.3270  1.7629 -0.7134
   85MOL0     H11452   4.298   7.286   0.104 -1.5830 -0.1921 -0.0231
   85MOL0     H11453   4.433   7.029   0.192 -0.0480  1.5633  1.2618
   85MOL0     H11454   4.373   7.082   0.020  0.3722  2.6145 -0.2199
   85MOL0     H11455   3.882   6.574   0.089  1.4122  0.5100  1.0392
   85MOL0     H11456   3.901   6.339   0.102  2.8905  1.0628  0.6891
   85MOL0     H11457   3.967   6.010   0.100 -0.6617  0.5159  1.1410
   85MOL0     H11458   4.048   5.761   0.029  0.4642 -3.8424  0.8766
   85MOL0     H11459   3.887   4.801   0.737 -0.3583  0.5538 -0.6002
   85MOL0     H11460   3.749   4.689   0.952 -0.6062 -1.4675  0.7622
   85MOL0     H11461   3.642   4.782   1.388  1.2601 -0.8042 -1.8194
   85MOL0     H11462   3.544   4.741   1.585  0.9869  2.6621 -0.4342
   85MOL0     H11463   3.610   4.371   1.751 -0.9503 -1.8051  5.4342
   85MOL0     H11464   3.480   4.473   1.684 -0.8677  0.0729  0.9285
   85MOL0     H11465   3.403   4.337   1.892 -2.0978  1.0378  3.0206
   85MOL0     H11466   3.372   4.502   1.879  0.1083 -0.2619  1.9639
   85MOL0     H11467   3.456   4.420   2.114 -0.0840  1.0173  0.6246
   85MOL0     H11468   3.539   4.564   2.036 -0.0296  0.0979 -1.6388
   85MOL0     H11469   3.615   4.279   2.003 -1.9854  0.6062 -1.4562
   85MOL0     H11470   3.733   4.403   1.967  3.1196  0.4592  3.2519
   85MOL0     H11471   3.787   4.414   2.379 -3.2408  2.5339  0.9477
   85MOL0     H11472   3.896   4.508   1.714  0.3155  0.8029  0.7533
   85MOL0     H11473   4.074   4.508   1.411 -1.1137 -0.1798  0.1442
   85MOL0     H11474   4.110   4.595   1.554 -0.9157  0.4287  0.5657
   85MOL0     H11475   4.026   4.426   1.561  0.5517 -1.6471 -1.3432
   86MOL0     O11476  11.263   3.090   0.653 -0.5971 -0.1660  0.1721
   86MOL0     C11477  11.147   3.134   0.675  0.5159  0.4060 -0.2956
   86MOL0     O11478  11.096   3.156   0.800 -0.8124  0.0115 -0.6328
   86MOL0     C11479  11.164   3.093   0.907  0.0771 -0.5239  0.5459
   86MOL0     C11480  11.088   2.994   0.979  0.2613 -0.8516  0.1317
   86MOL0     C11481  11.127   2.963   1.107 -0.4438  0.1877 -0.1967
   86MOL0     C11482  11.246   3.009   1.158 -0.7065 -0.9265 -0.8256
   86MOL0     O11483  11.257   2.989   1.296 -0.3754 -0.1420 -0.8976
   86MOL0     C11484  11.388   2.971   1.347  0.5703  0.2170 -0.9760
   86MOL0     C11485  11.376   2.914   1.493 -0.7706  0.3239  0.2169
   86MOL0     C11486  11.511   2.878   1.546  0.3363  0.1996  0.2268
   86MOL0     C11487  11.518   2.852   1.694 -0.2192 -0.9509  0.1486
   86MOL0     C11488  11.659   2.822   1.759 -0.2957 -0.2298  0.5789
   86MOL0     C11489  11.748   2.951   1.754  0.4783 -0.7411 -0.0372
   86MOL0     C11490  11.884   2.913   1.830  0.9697  0.2663  0.1287
   86MOL0     C11491  11.972   2.829   1.736 -0.3233 -0.6541  0.3276
   86MOL0     N11492  11.945   2.686   1.746  0.1662 -0.4492  0.0393
   86MOL0     C11493  11.940   2.616   1.862 -0.2820  0.6022  0.0993
   86MOL0     C11494  11.898   2.499   1.822  0.6480 -0.7889  0.1109
   86MOL0     C11495  11.877   2.391   1.920  1.5122 -0.5273 -0.0288
   86MOL0     C11496  12.003   2.338   1.981 -0.0637  0.5714  0.4623
   86MOL0     C11497  11.979   2.192   2.038  1.0076 -0.3232 -0.1026
   86MOL0     C11498  12.110   2.107   2.039  0.2042 -0.0670 -0.7101
   86MOL0     O11499  12.205   2.185   2.116 -0.5088 -0.1822 -0.0025
   86MOL0     C11500  12.220   2.163   2.253 -0.6011 -1.5896  0.3598
   86MOL0     C11501  12.150   2.080   2.333  0.0555  0.1217  0.4422
   86MOL0     C11502  12.153   2.079   2.470 -0.0532 -0.1562  0.0126
   86MOL0     C11503  12.216   2.181   2.542  0.5617  0.7894  0.2352
   86MOL0     C11504  12.193   2.195   2.688 -0.9353  0.3864 -1.3081
   86MOL0     O11505  12.257   2.295   2.747  0.0752  0.2799 -0.3289
   86MOL0     C11506  12.232   2.307   2.883  0.2880 -0.4604  0.1938
   86MOL0     C11507  12.328   2.401   2.932  0.4066 -0.2000  0.7949
   86MOL0     C11508  12.321   2.441   3.062 -0.1224  0.6759  0.0996
   86MOL0     C11509  12.221   2.395   3.155 -0.3334  0.1247 -0.8511
   86MOL0     O11510  12.216   2.463   3.276 -0.4762  0.2723 -0.2645
   86MOL0     C11511  12.110   2.440   3.364 -0.1985 -0.1633 -0.7509
   86MOL0     C11512  12.134   2.498   3.506  0.5151  0.2601  0.5728
   86MOL0     C11513  12.189   2.646   3.515 -0.6980 -0.1850  0.0172
   86MOL0     C11514  12.068   2.747   3.465  0.9192 -0.1756  0.6020
   86MOL0     C11515  12.104   2.883   3.511 -0.3075  1.0195  0.6213
   86MOL0     C11516  12.084   2.906   3.664  0.1533 -0.2085  1.4327
   86MOL0     C11517  12.131   3.044   3.717 -0.6601  0.4514  0.1759
   86MOL0     C11518  12.098   3.044   3.866  0.5739 -1.1587  0.1666
   86MOL0    Cl11519  12.111   3.220   3.909 -0.3771  0.0335  0.0361
   86MOL0     C11520  12.128   2.301   3.107 -0.0275  0.3951  0.3683
   86MOL0     C11521  12.136   2.257   2.977 -0.1174 -0.1543 -0.7355
   86MOL0     O11522  12.131   2.109   2.754 -0.4435  0.6039 -0.6587
   86MOL0     C11523  12.298   2.265   2.467 -0.3008  0.3849 -0.7662
   86MOL0     C11524  12.296   2.256   2.325 -0.9138  0.5316  0.2798
   86MOL0     N11525  11.895   2.490   1.688 -0.8064  0.4821  0.2274
   86MOL0     N11526  11.917   2.607   1.636  0.0155 -0.1254 -0.0111
   86MOL0     C11527  11.314   3.109   1.093 -0.9027 -0.0226  0.4635
   86MOL0     C11528  11.278   3.147   0.956  0.0595 -0.3896 -0.3762
   86MOL0     C11529  11.072   3.186   0.556 -1.1624  0.1647 -0.6829
   86MOL0     C11530  10.987   3.296   0.578 -0.5543  0.0571 -0.0701
   86MOL0     C11531  10.913   3.355   0.472 -1.0134 -1.3012  0.6387
   86MOL0     C11532  10.926   3.302   0.341 -1.2527 -0.3537  0.6493
   86MOL0     O11533  10.843   3.361   0.247 -0.0632 -0.6981  0.1751
   86MOL0     C11534  10.838   3.322   0.107 -0.3446 -0.1533  0.4839
   86MOL0     C11535  10.752   3.425   0.048 -0.2447 -0.4651  0.1052
   86MOL0     C11536  10.718   3.425  -0.098 -0.7250  0.5945  0.4950
   86MOL0     C11537  10.811   3.495  -0.196 -1.0250  0.4253 -0.7533
   86MOL0     C11538  10.945   3.442  -0.212 -0.9332  0.5320  0.4772
   86MOL0     C11539  11.055   3.378  -0.230  0.0768 -1.3983 -0.3123
   86MOL0     C11540  11.017   3.192   0.315 -0.2545 -1.6901 -0.2354
   86MOL0     C11541  11.079   3.131   0.425  0.3950 -0.7188 -0.1384
   86MOL0     C11542  11.153   2.997   0.396  0.5559  0.0832 -0.6575
   86MOL0     H11543  10.990   2.965   0.942 -0.3137  1.5826 -0.4487
   86MOL0     H11544  11.062   2.899   1.166  0.8891  0.0442  1.1781
   86MOL0     H11545  11.444   2.910   1.274  0.4031  1.8063 -2.4841
   86MOL0     H11546  11.444   3.065   1.354  0.2582  0.4472 -1.5389
   86MOL0     H11547  11.310   2.827   1.498  0.5371 -0.9309 -2.3233
   86MOL0     H11548  11.325   2.992   1.551 -1.2788  0.9861 -1.0742
   86MOL0     H11549  11.588   2.954   1.528  0.7104 -0.3264 -0.4331
   86MOL0     H11550  11.546   2.790   1.492 -1.9785 -0.3228 -0.5586
   86MOL0     H11551  11.462   2.937   1.735 -1.3796 -1.2121 -0.8552
   86MOL0     H11552  11.454   2.765   1.711 -0.0283 -0.8968  1.2227
   86MOL0     H11553  11.647   2.778   1.858  1.5470  0.2464  1.0626
   86MOL0     H11554  11.711   2.747   1.698 -1.5206 -0.0532 -0.7522
   86MOL0     H11555  11.770   2.974   1.649  0.3779 -1.3485 -0.1909
   86MOL0     H11556  11.690   3.030   1.803 -2.0774 -1.1813 -2.1144
   86MOL0     H11557  11.866   2.861   1.924 -4.9430  0.9830 -0.2402
   86MOL0     H11558  11.926   3.011   1.857  1.9383 -0.2090  0.3561
   86MOL0     H11559  11.975   2.875   1.637 -0.3039 -0.9837  0.1726
   86MOL0     H11560  12.077   2.845   1.762 -0.9186  2.0200  1.3046
   86MOL0     H11561  11.973   2.624   1.965  1.2885  2.5753 -0.4915
   86MOL0     H11562  11.811   2.442   1.990  1.6669  2.5408 -1.9567
   86MOL0     H11563  11.826   2.309   1.867 -2.1400  2.6336 -1.9431
   86MOL0     H11564  12.068   2.315   1.895 -1.1721  0.0748 -0.2644
   86MOL0     H11565  12.049   2.407   2.052 -1.4554  0.8827  1.0905
   86MOL0     H11566  11.893   2.141   1.992  0.3626  1.1493 -0.6021
   86MOL0     H11567  11.950   2.200   2.143 -1.5492  0.6008 -0.7954
   86MOL0     H11568  12.131   2.088   1.934 -0.6992 -0.4583 -0.8320
   86MOL0     H11569  12.091   2.008   2.083  0.6311  0.6299  1.1527
   86MOL0     H11570  12.076   2.010   2.295 -1.2347  2.1463 -0.9776
   86MOL0     H11571  12.092   2.013   2.531 -1.6150 -1.2208 -2.4899
   86MOL0     H11572  12.402   2.452   2.871  1.7619 -1.1917  1.5654
   86MOL0     H11573  12.386   2.523   3.091  1.1840 -0.6494  1.0814
   86MOL0     H11574  12.022   2.501   3.342  0.1418  2.0624  3.0142
   86MOL0     H11575  12.072   2.338   3.373 -0.5985 -0.1899 -2.4072
   86MOL0     H11576  12.042   2.469   3.558 -3.0721  0.8580 -4.7193
   86MOL0     H11577  12.217   2.437   3.542  0.8639  1.4640  1.9289
   86MOL0     H11578  12.215   2.654   3.621 -0.7522 -1.1353  0.1102
   86MOL0     H11579  12.274   2.663   3.448 -2.6845  5.0056 -1.6849
   86MOL0     H11580  11.976   2.723   3.517  0.8717  1.8173  1.5357
   86MOL0     H11581  12.060   2.739   3.356 -0.9577 -0.5596  0.7447
   86MOL0     H11582  12.035   2.949   3.459 -0.7860 -0.6584 -0.9831
   86MOL0     H11583  12.205   2.913   3.480  0.0569 -0.6675  0.0451
   86MOL0     H11584  11.976   2.890   3.666 -0.5657  3.1627 -1.4112
   86MOL0     H11585  12.124   2.835   3.737  1.1941 -0.6905  0.4138
   86MOL0     H11586  12.073   3.127   3.675 -1.1892  0.7957  1.5398
   86MOL0     H11587  12.236   3.062   3.694 -0.0106 -2.4777  0.5317
   86MOL0     H11588  11.997   3.005   3.884  0.4297 -0.3891  1.1275
   86MOL0     H11589  12.176   2.987   3.918  0.9388 -1.1081 -0.3230
   86MOL0     H11590  12.041   2.277   3.168  0.4096 -0.9158  0.4994
   86MOL0     H11591  12.056   2.193   2.942  0.9488 -0.5908 -2.5517
   86MOL0     H11592  12.368   2.339   2.503 -1.8803  1.1740  0.8009
   86MOL0     H11593  12.354   2.330   2.271  0.2038 -0.0377  0.6710
   86MOL0     H11594  11.410   3.140   1.132  0.1980 -1.6297 -0.8197
   86MOL0     H11595  11.343   3.210   0.896 -1.0764  0.1087 -1.1037
   86MOL0     H11596  10.977   3.339   0.677  0.4857  0.1995 -0.0120
   86MOL0     H11597  10.844   3.436   0.492  1.5496  0.3450  3.5106
   86MOL0     H11598  10.788   3.225   0.102 -2.5974  0.9987 -0.3013
   86MOL0     H11599  10.932   3.316   0.051 -0.5634 -1.9586  0.2469
   86MOL0     H11600  10.792   3.525   0.068  0.2023 -0.7014  0.4259
   86MOL0     H11601  10.657   3.416   0.102 -1.1962 -1.1663 -1.6086
   86MOL0     H11602  10.626   3.484  -0.110 -1.0498  0.3849  1.8572
   86MOL0     H11603  10.703   3.320  -0.126 -1.2772  0.7205  0.3027
   86MOL0     H11604  10.766   3.494  -0.296 -0.7103  2.7430 -0.9635
   86MOL0     H11605  10.812   3.601  -0.170 -0.1612 -0.3869  3.1461
   86MOL0     H11606  11.150   3.331  -0.249  0.8263 -0.0926  0.0509
   86MOL0     H11607  11.032   3.165   0.211  2.3698  1.4880 -0.8657
   86MOL0     H11608  11.130   2.939   0.306  1.3460 -2.7142  0.8467
   86MOL0     H11609  11.262   3.008   0.390  0.4926  1.1415 -0.1160
   86MOL0     H11610  11.131   2.922   0.472 -1.1971  0.8169 -0.4101
   87MOL0     O11611   7.417   8.294   7.089 -0.1353 -0.0900  0.3509
   87MOL0     C11612   7.474   8.335   6.982  0.5575 -1.2733 -0.2927
   87MOL0     O11613   7.460   8.467   6.926 -0.4917 -0.3565 -0.5371
   87MOL0     C11614   7.368   8.552   6.993  0.4498  0.5404 -0.1723
   87MOL0     C11615   7.237   8.521   6.989  0.3748  0.3322  0.2155
   87MOL0     C11616   7.147   8.609   7.058 -0.6273  0.5647 -0.8893
   87MOL0     C11617   7.191   8.721   7.116 -0.6768  0.3133  0.3429
   87MOL0     O11618   7.086   8.804   7.157 -0.5037  0.4041 -0.2342
   87MOL0     C11619   7.114   8.935   7.208  0.3073 -0.7956 -0.5800
   87MOL0     C11620   6.981   9.004   7.239 -0.1673  0.5134 -0.4547
   87MOL0     C11621   7.006   9.116   7.332  0.4453 -0.2902  0.1808
   87MOL0     C11622   6.871   9.176   7.369  0.0234 -0.6906  0.4536
   87MOL0     C11623   6.885   9.282   7.478 -0.1267 -0.5438  0.4974
   87MOL0     C11624   6.753   9.357   7.521 -0.8151  0.9762  0.4931
   87MOL0     C11625   6.789   9.464   7.614  0.4088 -0.5605  0.3146
   87MOL0     C11626   6.779   9.429   7.762  0.0028  0.2282  0.8531
   87MOL0     N11627   6.784   9.553   7.832 -0.4612 -0.3037 -0.1456
   87MOL0     C11628   6.895   9.630   7.857 -0.8154 -0.1969  0.4916
   87MOL0     C11629   6.836   9.740   7.897  0.6641  0.0937 -0.7728
   87MOL0     C11630   6.898   9.875   7.905 -0.2939 -0.8800 -0.8880
   87MOL0     C11631   6.829   9.987   7.808 -0.7962 -0.1188 -0.1122
   87MOL0     C11632   6.689  10.023   7.865  0.1685  0.5627 -0.0606
   87MOL0     C11633   6.653  10.157   7.826 -0.2725 -1.4741  0.4377
   87MOL0     O11634   6.647  10.143   7.688  0.4693  0.5717 -0.3196
   87MOL0     C11635   6.540  10.178   7.609 -0.4465  0.7290  0.8035
   87MOL0     C11636   6.434  10.256   7.657  0.5119 -0.2214  0.3791
   87MOL0     C11637   6.333  10.311   7.575 -0.4817  0.4824 -0.0853
   87MOL0     C11638   6.337  10.276   7.432 -0.4491  0.3643  0.3643
   87MOL0     C11639   6.226  10.317   7.347  0.4965 -0.7150 -0.4302
   87MOL0     O11640   6.138  10.408   7.398  0.5396 -0.2570 -0.0641
   87MOL0     C11641   6.047  10.462   7.310 -0.2370  1.2969 -0.2514
   87MOL0     C11642   5.904  10.422   7.318 -0.3127 -0.3097 -0.5245
   87MOL0     C11643   5.805  10.493   7.241  0.3688  0.0494  0.7169
   87MOL0     C11644   5.845  10.609   7.162  0.9224  0.4871  0.4137
   87MOL0     O11645   5.763  10.697   7.096 -0.3348  0.3720 -0.2961
   87MOL0     C11646   5.662  10.638   7.014 -0.1262 -0.4614  0.0792
   87MOL0     C11647   5.586  10.746   6.935  0.2159 -1.3741  0.6550
   87MOL0     C11648   5.455  10.688   6.877 -0.7584 -0.0418  0.7317
   87MOL0     C11649   5.483  10.610   6.749 -0.2253  0.5184 -0.7407
   87MOL0     C11650   5.360  10.549   6.689 -0.4365 -0.2876 -0.6020
   87MOL0     C11651   5.266  10.639   6.613  0.9922 -0.6021 -0.3444
   87MOL0     C11652   5.132  10.571   6.567 -0.8058 -0.7209  1.3216
   87MOL0     C11653   5.161  10.456   6.465 -0.6411 -0.8818 -0.0510
   87MOL0    Cl11654   5.213  10.545   6.319 -0.1933  0.0254  0.0783
   87MOL0     C11655   5.981  10.639   7.159 -0.1266  0.5052 -0.9958
   87MOL0     C11656   6.079  10.570   7.230  0.1262 -0.8929 -0.3540
   87MOL0     O11657   6.218  10.271   7.233 -0.7363  1.0489 -0.2547
   87MOL0     C11658   6.441  10.191   7.383 -0.2491 -0.4076 -0.0350
   87MOL0     C11659   6.541  10.141   7.473  0.5396  0.2705  0.1530
   87MOL0     N11660   6.701   9.727   7.916 -1.2264 -0.1592 -0.5076
   87MOL0     N11661   6.670   9.614   7.881  0.2660  0.0579 -0.0128
   87MOL0     C11662   7.329   8.745   7.128  0.4370  0.3395  0.1781
   87MOL0     C11663   7.418   8.667   7.067 -0.5074  0.2978 -0.6480
   87MOL0     C11664   7.566   8.250   6.907  0.0940 -0.7194  1.1994
   87MOL0     C11665   7.600   8.275   6.769 -0.2656 -0.3041 -1.3570
   87MOL0     C11666   7.676   8.181   6.693 -1.4170  0.1129 -0.4087
   87MOL0     C11667   7.735   8.066   6.756 -0.3452  0.1194  0.5118
   87MOL0     O11668   7.817   7.972   6.687  0.0883  1.0189 -0.3617
   87MOL0     C11669   7.815   7.978   6.545 -0.6823  0.0439  0.7725
   87MOL0     C11670   7.686   7.949   6.471 -0.6856 -0.6747 -0.1835
   87MOL0     C11671   7.628   7.808   6.509  0.1710  0.0788 -0.5851
   87MOL0     C11672   7.493   7.760   6.449 -0.2140  0.1592  0.4457
   87MOL0     C11673   7.445   7.620   6.477 -1.4444 -0.0789 -0.1735
   87MOL0     C11674   7.433   7.505   6.497  0.4954  0.6262  0.4063
   87MOL0     C11675   7.693   8.044   6.886 -0.4622  0.2358 -0.7794
   87MOL0     C11676   7.618   8.132   6.961 -0.3104  0.7418 -0.2351
   87MOL0     C11677   7.605   8.088   7.105  0.2060 -0.2312  0.1401
   87MOL0     H11678   7.201   8.426   6.949  1.8509 -0.8938  1.6250
   87MOL0     H11679   7.044   8.579   7.072 -0.1263 -0.1341  1.8897
   87MOL0     H11680   7.170   8.914   7.300 -0.7353 -1.4489 -0.0679
   87MOL0     H11681   7.171   9.005   7.147  0.3547 -0.1035  0.2400
   87MOL0     H11682   6.920   8.924   7.284 -0.3008  1.1877  0.6181
   87MOL0     H11683   6.930   9.040   7.149 -2.1591 -0.5036  0.1866
   87MOL0     H11684   7.066   9.193   7.283 -0.3547 -0.5049 -1.1942
   87MOL0     H11685   7.053   9.081   7.424  1.7273  0.3127 -0.2273
   87MOL0     H11686   6.818   9.220   7.284  1.5639  0.4500  0.0433
   87MOL0     H11687   6.810   9.091   7.401  2.7579 -3.2035 -0.4990
   87MOL0     H11688   6.924   9.233   7.567 -0.8680  0.3718  1.3471
   87MOL0     H11689   6.953   9.360   7.441 -0.8510 -1.3365 -2.8381
   87MOL0     H11690   6.706   9.391   7.429 -0.8134  0.3010  0.2342
   87MOL0     H11691   6.690   9.290   7.580  1.5487 -0.1855  1.8761
   87MOL0     H11692   6.723   9.550   7.597  1.3732  0.2428  0.5526
   87MOL0     H11693   6.886   9.509   7.591  0.9341 -0.4163  2.5739
   87MOL0     H11694   6.689   9.369   7.777  0.7532 -0.9373  0.8246
   87MOL0     H11695   6.865   9.368   7.792  2.3733  2.0858 -1.6241
   87MOL0     H11696   7.001   9.622   7.836  0.2400  1.1595  4.4059
   87MOL0     H11697   6.916   9.920   8.003 -1.0541  0.7157 -1.4469
   87MOL0     H11698   6.998   9.860   7.863 -0.1529 -0.5853 -0.6622
   87MOL0     H11699   6.902  10.066   7.787 -0.4638 -0.9545 -2.3934
   87MOL0     H11700   6.809   9.953   7.706  4.1634  1.8068 -2.0329
   87MOL0     H11701   6.705  10.027   7.974  0.0706  2.6062 -0.0927
   87MOL0     H11702   6.609   9.959   7.826 -0.4640  0.0343  1.9644
   87MOL0     H11703   6.728  10.234   7.848  1.8866 -2.1468 -3.6998
   87MOL0     H11704   6.553  10.172   7.867 -0.0462 -1.0983  0.8722
   87MOL0     H11705   6.417  10.266   7.764 -1.3802  0.8909  0.0110
   87MOL0     H11706   6.245  10.363   7.610 -0.1694  0.1664  1.2279
   87MOL0     H11707   5.877  10.334   7.375  5.2028 -1.4516  0.9047
   87MOL0     H11708   5.700  10.463   7.237 -0.2936  2.0910  1.3967
   87MOL0     H11709   5.711  10.567   6.946  1.1326 -0.3478  0.8466
   87MOL0     H11710   5.594  10.574   7.071 -1.8006 -0.1412 -1.4708
   87MOL0     H11711   5.561  10.836   6.991 -1.7226 -1.9452  0.7587
   87MOL0     H11712   5.652  10.782   6.856 -1.7342 -1.5953 -1.1623
   87MOL0     H11713   5.391  10.645   6.954  0.0407  0.6354  1.8037
   87MOL0     H11714   5.398  10.773   6.838  2.8491  2.1383 -0.2647
   87MOL0     H11715   5.550  10.528   6.775  2.0941  2.3313 -0.7389
   87MOL0     H11716   5.539  10.670   6.678  0.7991 -2.1307 -2.3252
   87MOL0     H11717   5.302  10.499   6.767 -3.3901  2.3955 -0.8718
   87MOL0     H11718   5.384  10.468   6.619 -3.7840 -0.6268 -1.5417
   87MOL0     H11719   5.228  10.719   6.677 -0.1199  0.0438 -1.7691
   87MOL0     H11720   5.308  10.680   6.521 -2.2635 -1.4789 -2.3814
   87MOL0     H11721   5.059  10.641   6.527 -0.6752 -2.2106 -1.8237
   87MOL0     H11722   5.094  10.529   6.660 -1.4772  0.6498  1.6894
   87MOL0     H11723   5.233  10.389   6.513 -2.1629 -1.1332  2.0583
   87MOL0     H11724   5.067  10.402   6.449 -0.5759 -0.6582 -1.2053
   87MOL0     H11725   6.008  10.729   7.103 -1.0988  1.3985 -0.0815
   87MOL0     H11726   6.181  10.607   7.231  0.3342 -1.3989 -1.1086
   87MOL0     H11727   6.448  10.168   7.277  0.1694 -2.8751  0.4699
   87MOL0     H11728   6.609  10.064   7.440 -1.2431 -0.0934 -3.0233
   87MOL0     H11729   7.366   8.835   7.176  3.6707  0.2029 -1.8104
   87MOL0     H11730   7.526   8.663   7.077 -0.6329 -1.7691  0.3196
   87MOL0     H11731   7.559   8.355   6.708  2.2187  0.0873 -2.6102
   87MOL0     H11732   7.690   8.207   6.589  2.3475  3.0577  0.5959
   87MOL0     H11733   7.890   7.906   6.510 -1.1666 -0.9897  1.7900
   87MOL0     H11734   7.856   8.073   6.510 -1.2075 -0.4046 -1.1904
   87MOL0     H11735   7.703   7.942   6.364  0.9623  4.1543 -0.4541
   87MOL0     H11736   7.618   8.033   6.486 -2.5558 -2.0967 -0.2819
   87MOL0     H11737   7.611   7.816   6.616  0.3433 -2.1086 -0.3600
   87MOL0     H11738   7.699   7.731   6.479  0.0969  0.8695 -3.0038
   87MOL0     H11739   7.417   7.829   6.488  0.0123 -0.4991  2.1633
   87MOL0     H11740   7.503   7.772   6.341  2.2349 -1.4353  0.4184
   87MOL0     H11741   7.411   7.401   6.510 -0.0679  0.9313  2.1764
   87MOL0     H11742   7.711   7.942   6.919 -4.6540 -0.3835  0.1457
   87MOL0     H11743   7.618   8.178   7.165 -0.5950  1.0412 -1.5075
   87MOL0     H11744   7.510   8.042   7.135 -0.2165  1.5391  1.6488
   87MOL0     H11745   7.686   8.022   7.137  0.4693  0.3171  0.6218
   88MOL0     O11746   3.726   9.134   7.286 -0.4165  0.6988  0.0558
   88MOL0     C11747   3.734   9.235   7.350  0.4996 -0.0130 -0.0594
   88MOL0     O11748   3.698   9.353   7.311  0.1640 -0.4057 -0.5530
   88MOL0     C11749   3.666   9.383   7.186 -0.0838  0.4337  0.2339
   88MOL0     C11750   3.552   9.467   7.180  0.0575  0.1562 -0.1395
   88MOL0     C11751   3.500   9.515   7.061 -0.3958 -0.5227 -0.0165
   88MOL0     C11752   3.570   9.484   6.948  0.1194 -0.7686  1.0521
   88MOL0     O11753   3.535   9.549   6.829  0.5091  1.0059 -0.5612
   88MOL0     C11754   3.428   9.487   6.757  0.4436  1.0278 -0.7966
   88MOL0     C11755   3.334   9.595   6.712 -0.8732 -1.0102  0.2079
   88MOL0     C11756   3.379   9.660   6.578 -0.1277  0.4546  0.2733
   88MOL0     C11757   3.353   9.575   6.446 -0.5986 -0.6973  0.0908
   88MOL0     C11758   3.388   9.665   6.334 -0.1974  0.2234  0.5831
   88MOL0     C11759   3.324   9.601   6.199  0.1097  0.1282 -0.9011
   88MOL0     C11760   3.407   9.651   6.074  1.4620  0.8592 -0.0374
   88MOL0     C11761   3.323   9.625   5.946  0.0187 -0.0921  0.1074
   88MOL0     N11762   3.336   9.726   5.840 -0.6853 -0.7029 -0.4284
   88MOL0     C11763   3.377   9.699   5.706 -0.1843 -0.6036 -0.5059
   88MOL0     C11764   3.330   9.812   5.647  0.1727  0.0385 -1.1906
   88MOL0     C11765   3.357   9.833   5.496  0.1141 -0.6303 -0.5483
   88MOL0     C11766   3.471   9.919   5.462  0.0872 -0.4027 -1.5333
   88MOL0     C11767   3.467   9.953   5.316 -0.1279 -0.2716 -0.2180
   88MOL0     C11768   3.590  10.030   5.258  0.2240  0.5389 -0.5858
   88MOL0     O11769   3.602  10.021   5.115  0.7344 -0.7120 -0.1398
   88MOL0     C11770   3.669  10.128   5.069 -0.0362 -0.2736 -0.6721
   88MOL0     C11771   3.622  10.265   5.063 -0.8096 -0.2573 -0.2451
   88MOL0     C11772   3.705  10.363   5.014  0.8093  0.8576  0.0189
   88MOL0     C11773   3.825  10.331   4.945  0.2917  0.6013  0.2558
   88MOL0     C11774   3.909  10.436   4.882  0.5166  0.2508 -0.1468
   88MOL0     O11775   4.029  10.397   4.840  0.2491  0.7039 -0.2755
   88MOL0     C11776   4.108  10.497   4.792 -0.3262 -0.3726  0.0288
   88MOL0     C11777   4.232  10.517   4.868 -0.1272 -0.0155 -0.0340
   88MOL0     C11778   4.328  10.610   4.820 -0.0980  0.1630  0.0499
   88MOL0     C11779   4.310  10.684   4.700  0.4672 -0.1773 -0.1818
   88MOL0     O11780   4.399  10.769   4.648  0.1185  0.3952  0.2669
   88MOL0     C11781   4.496  10.834   4.734 -0.4339 -1.0516 -0.5358
   88MOL0     C11782   4.533  10.978   4.686 -0.3041  0.4998  0.2181
   88MOL0     C11783   4.438  11.098   4.726  0.2805 -0.6061 -0.6062
   88MOL0     C11784   4.339  11.131   4.619 -0.1088  0.2246 -0.6080
   88MOL0     C11785   4.236  11.027   4.584  0.9138  0.3294  0.3083
   88MOL0     C11786   4.125  11.078   4.479 -0.6761 -0.2153 -1.2003
   88MOL0     C11787   4.043  10.966   4.427 -0.3543 -0.3053 -0.0564
   88MOL0     C11788   3.919  10.999   4.352 -0.2024  1.0487  0.0802
   88MOL0    Cl11789   3.941  10.988   4.172 -0.1850 -0.0196 -0.7024
   88MOL0     C11790   4.193  10.658   4.626  0.2570  0.8613  0.1719
   88MOL0     C11791   4.093  10.570   4.675 -0.2879  0.3794 -0.1552
   88MOL0     O11792   3.857  10.538   4.860  0.2128 -1.2261 -0.2762
   88MOL0     C11793   3.870  10.197   4.955 -0.5020 -0.3856  0.1119
   88MOL0     C11794   3.791  10.100   5.021 -0.8133 -1.1702 -0.7465
   88MOL0     N11795   3.270   9.894   5.746 -0.8130  0.5321 -0.1251
   88MOL0     N11796   3.262   9.832   5.859 -1.8290 -0.1337  0.6200
   88MOL0     C11797   3.683   9.398   6.945 -0.2532  0.9609  0.6271
   88MOL0     C11798   3.731   9.352   7.068 -0.3860  0.7023  0.7450
   88MOL0     C11799   3.764   9.218   7.495 -0.6155 -0.5222  0.3351
   88MOL0     C11800   3.688   9.133   7.574  1.0951 -0.0167  0.4138
   88MOL0     C11801   3.706   9.117   7.710 -1.0739  0.2928 -0.3086
   88MOL0     C11802   3.812   9.191   7.772  0.5421  0.5164 -0.5313
   88MOL0     O11803   3.812   9.188   7.909 -0.1103  0.4091 -0.0290
   88MOL0     C11804   3.894   9.295   7.969 -0.2344 -1.2470  0.1241
   88MOL0     C11805   3.904   9.276   8.117 -0.5501 -0.4662 -0.8334
   88MOL0     C11806   3.947   9.143   8.157  0.0478 -0.4765 -0.0487
   88MOL0     C11807   3.971   9.149   8.313 -0.5689  0.5573 -0.0521
   88MOL0     C11808   3.849   9.172   8.387  1.1494 -0.4395 -1.1016
   88MOL0     C11809   3.751   9.179   8.459  0.5837 -0.3054 -0.3877
   88MOL0     C11810   3.888   9.272   7.694  0.4319  0.0962  0.7914
   88MOL0     C11811   3.867   9.286   7.562  0.3402 -0.0207 -0.9985
   88MOL0     C11812   3.969   9.368   7.492  0.2591 -0.0953  0.1230
   88MOL0     H11813   3.504   9.493   7.273 -0.9757 -0.5435 -0.4596
   88MOL0     H11814   3.411   9.578   7.058 -1.1731 -1.5442 -3.4103
   88MOL0     H11815   3.475   9.422   6.683  0.7619 -1.5803  1.5425
   88MOL0     H11816   3.368   9.426   6.826  1.3468 -0.3212 -1.1723
   88MOL0     H11817   3.331   9.670   6.791 -0.3097  0.0894 -0.7719
   88MOL0     H11818   3.234   9.553   6.695 -0.9616 -1.2014  1.1792
   88MOL0     H11819   3.485   9.687   6.573  0.4558 -1.8617 -1.3565
   88MOL0     H11820   3.313   9.746   6.566 -3.7437 -2.1353  0.2069
   88MOL0     H11821   3.431   9.499   6.432  1.1887  1.3617 -2.0827
   88MOL0     H11822   3.247   9.548   6.450 -1.9392  3.9359  1.5863
   88MOL0     H11823   3.341   9.761   6.355 -0.8202 -0.1462  0.8957
   88MOL0     H11824   3.494   9.693   6.331  0.6979 -2.7917  0.9152
   88MOL0     H11825   3.332   9.493   6.215  4.0957  0.6157  1.9740
   88MOL0     H11826   3.219   9.629   6.187 -0.4396 -1.3269  0.2111
   88MOL0     H11827   3.492   9.583   6.065 -1.4235 -3.6437  2.3520
   88MOL0     H11828   3.422   9.759   6.085 -0.6294  1.1496  0.4347
   88MOL0     H11829   3.353   9.523   5.917 -0.9364 -0.9356  1.9401
   88MOL0     H11830   3.217   9.605   5.966 -0.7752 -2.3194 -4.6946
   88MOL0     H11831   3.415   9.612   5.654  0.4155  1.2103 -3.2914
   88MOL0     H11832   3.361   9.743   5.434 -4.2947 -0.2758 -1.7139
   88MOL0     H11833   3.267   9.880   5.453  1.1602 -0.7293 -2.9949
   88MOL0     H11834   3.449  10.003   5.529 -2.4580 -1.8507 -0.3886
   88MOL0     H11835   3.567   9.879   5.497  0.2556  1.5562  0.4663
   88MOL0     H11836   3.380  10.017   5.295  0.0681  0.0735  0.0249
   88MOL0     H11837   3.456   9.854   5.270 -0.6635 -1.3505  2.0744
   88MOL0     H11838   3.677   9.981   5.304 -0.4636  1.1888  1.4943
   88MOL0     H11839   3.577  10.136   5.281  0.5625  1.4196 -3.8743
   88MOL0     H11840   3.526  10.292   5.107 -0.0197  4.3913 -0.8503
   88MOL0     H11841   3.672  10.466   5.023  2.1363  1.1126  3.3402
   88MOL0     H11842   4.259  10.454   4.952  3.5679  0.7073 -0.4974
   88MOL0     H11843   4.412  10.616   4.889 -2.2924  1.4022  2.8196
   88MOL0     H11844   4.474  10.827   4.841  1.7078 -1.1863 -0.0723
   88MOL0     H11845   4.593  10.785   4.739 -0.1320 -0.3372  2.2727
   88MOL0     H11846   4.632  11.006   4.722 -0.9405  3.4690 -0.1023
   88MOL0     H11847   4.547  10.973   4.577 -0.9702 -1.3551  0.1697
   88MOL0     H11848   4.377  11.052   4.804  1.1824 -0.5356  0.1596
   88MOL0     H11849   4.490  11.185   4.769  0.6618 -1.4504  0.6891
   88MOL0     H11850   4.390  11.172   4.530  3.1315  2.1828  1.8928
   88MOL0     H11851   4.277  11.215   4.651 -1.8735 -1.9694  2.1606
   88MOL0     H11852   4.201  10.991   4.681 -1.3217  0.6960 -0.3072
   88MOL0     H11853   4.293  10.947   4.536  0.6177  0.4956 -0.3349
   88MOL0     H11854   4.060  11.158   4.516  0.1996 -0.8716  2.1453
   88MOL0     H11855   4.185  11.119   4.397 -1.0157  1.7402 -0.5386
   88MOL0     H11856   4.020  10.908   4.517 -1.1198  0.8705  0.5361
   88MOL0     H11857   4.108  10.912   4.358 -0.1985 -0.9122  0.5563
   88MOL0     H11858   3.845  10.921   4.368  1.6901 -1.0142 -0.7104
   88MOL0     H11859   3.885  11.100   4.376 -1.0346  0.4856  1.3505
   88MOL0     H11860   4.183  10.708   4.531 -1.9483 -4.5345 -2.9065
   88MOL0     H11861   4.006  10.545   4.616 -1.9161  2.4640  1.2213
   88MOL0     H11862   3.967  10.176   4.912 -0.9923 -1.4158 -0.5641
   88MOL0     H11863   3.821   9.996   5.028 -1.2831 -1.2051  1.1672
   88MOL0     H11864   3.730   9.369   6.852 -2.0750 -0.1270 -0.0012
   88MOL0     H11865   3.830   9.307   7.078  0.4973  1.9342 -1.5920
   88MOL0     H11866   3.604   9.092   7.519 -0.0890  1.6890  0.8452
   88MOL0     H11867   3.658   9.044   7.775  1.9343 -3.5455 -1.9953
   88MOL0     H11868   3.840   9.387   7.944  0.4326 -1.3616 -1.8993
   88MOL0     H11869   3.990   9.295   7.917 -2.1149  0.2346 -3.7718
   88MOL0     H11870   3.802   9.289   8.155 -0.1574 -0.9718  0.4512
   88MOL0     H11871   3.967   9.359   8.150 -2.5120  1.0439 -0.6818
   88MOL0     H11872   4.044   9.122   8.111 -0.8021 -1.5234 -1.4276
   88MOL0     H11873   3.872   9.073   8.119  1.7500 -2.3744 -0.0664
   88MOL0     H11874   4.010   9.051   8.342  0.1655  0.6078 -0.8277
   88MOL0     H11875   4.034   9.234   8.341  0.9264 -0.1114 -1.2164
   88MOL0     H11876   3.667   9.209   8.518  0.2625 -0.1737 -0.9061
   88MOL0     H11877   3.971   9.325   7.740  1.4006 -0.6551 -0.0537
   88MOL0     H11878   4.035   9.306   7.430 -2.1348  1.0542 -3.9286
   88MOL0     H11879   3.913   9.435   7.427 -0.7654  0.7927  1.8490
   88MOL0     H11880   4.037   9.432   7.550  0.0561  3.1954 -2.9064
   89MOL0     O11881   0.553   7.862   2.721  0.2738  0.2486  0.0342
   89MOL0     C11882   0.655   7.927   2.739  0.3765 -0.6419  0.8462
   89MOL0     O11883   0.745   7.913   2.844  0.3535  0.5199  0.1878
   89MOL0     C11884   0.749   7.787   2.899  0.5815  0.5750  0.1317
   89MOL0     C11885   0.662   7.758   3.001  0.3060 -0.7210  0.4682
   89MOL0     C11886   0.655   7.615   3.035 -1.2822 -0.3272  1.0445
   89MOL0     C11887   0.741   7.529   2.964  0.1705  0.4351 -1.4655
   89MOL0     O11888   0.734   7.390   2.989  0.1671 -0.2837  0.5272
   89MOL0     C11889   0.631   7.333   3.062  0.7865  0.1688 -0.5158
   89MOL0     C11890   0.656   7.188   3.109 -0.1215 -0.9105 -0.2015
   89MOL0     C11891   0.535   7.128   3.165 -0.4848  0.5975 -0.0555
   89MOL0     C11892   0.513   6.988   3.121  0.0877  0.1766  0.1109
   89MOL0     C11893   0.399   6.909   3.183 -0.2245 -0.1000  0.1298
   89MOL0     C11894   0.426   6.761   3.187 -0.0806  1.3088 -0.3050
   89MOL0     C11895   0.307   6.671   3.205 -0.6777 -0.4046  0.3594
   89MOL0     C11896   0.349   6.523   3.216 -0.3653  0.2667  0.3291
   89MOL0     N11897   0.227   6.439   3.235  0.1670 -0.0209  0.3911
   89MOL0     C11898   0.156   6.371   3.138 -1.1027 -0.5962 -0.0987
   89MOL0     C11899   0.069   6.298   3.211  0.5755  0.2516  1.2534
   89MOL0     C11900  -0.053   6.223   3.158  0.1802  0.5250  0.3764
   89MOL0     C11901  -0.174   6.321   3.145 -0.1622  0.8395  0.0464
   89MOL0     C11902  -0.179   6.406   3.021 -1.0311  0.4435  0.1804
   89MOL0     C11903  -0.237   6.541   3.046  0.0650  0.4973  0.6529
   89MOL0     O11904  -0.366   6.527   3.113  0.0448 -0.8350 -0.0402
   89MOL0     C11905  -0.396   6.643   3.189 -0.6028 -0.0458  0.3550
   89MOL0     C11906  -0.452   6.750   3.106 -0.4977 -0.1526 -0.4169
   89MOL0     C11907  -0.503   6.870   3.168 -0.4153 -0.0604  0.1608
   89MOL0     C11908  -0.500   6.883   3.303 -0.8820  0.5351 -0.2589
   89MOL0     C11909  -0.555   7.001   3.365 -0.0652  1.0223 -0.0679
   89MOL0     O11910  -0.660   7.057   3.306  0.5473  0.7847  0.5134
   89MOL0     C11911  -0.712   7.174   3.358 -0.9822 -0.0689  0.3058
   89MOL0     C11912  -0.681   7.292   3.294  0.1359 -0.6223  0.3175
   89MOL0     C11913  -0.733   7.413   3.327  0.3241  0.1156  0.9561
   89MOL0     C11914  -0.833   7.419   3.429  0.4040 -0.5068  0.3282
   89MOL0     O11915  -0.888   7.550   3.457 -0.2854  0.4831 -0.0215
   89MOL0     C11916  -0.922   7.568   3.591 -0.0973  0.3335 -1.2074
   89MOL0     C11917  -0.921   7.719   3.625  0.1833 -0.1581 -0.5636
   89MOL0     C11918  -1.018   7.807   3.556  0.7266 -1.3439  0.4196
   89MOL0     C11919  -1.029   7.936   3.644 -0.4516 -0.5598  0.3048
   89MOL0     C11920  -1.075   8.061   3.563 -0.2148 -0.4351  0.7555
   89MOL0     C11921  -1.067   8.180   3.660  0.2957  1.3165  0.9511
   89MOL0     C11922  -1.122   8.316   3.601  0.9112  0.0835  0.0515
   89MOL0     C11923  -1.140   8.399   3.732 -0.2436 -0.8453 -0.0225
   89MOL0    Cl11924  -1.177   8.566   3.689  0.6412  0.1792 -0.2093
   89MOL0     C11925  -0.873   7.301   3.491 -0.1901  0.6416 -0.6345
   89MOL0     C11926  -0.811   7.172   3.460 -0.4756 -0.2022  0.0928
   89MOL0     O11927  -0.509   7.039   3.472 -0.1004 -0.1277  0.4567
   89MOL0     C11928  -0.437   6.783   3.384  0.3646 -0.1158  0.0437
   89MOL0     C11929  -0.392   6.668   3.330 -0.1726  0.0677  0.4592
   89MOL0     N11930   0.088   6.315   3.346 -0.7529  0.3044 -0.3459
   89MOL0     N11931   0.184   6.394   3.362 -0.1053  0.7506 -1.2167
   89MOL0     C11932   0.839   7.571   2.882 -0.1618  0.5665 -0.5701
   89MOL0     C11933   0.833   7.697   2.841 -0.5562  0.2704 -0.5928
   89MOL0     C11934   0.663   8.053   2.658 -0.5629 -0.3189  0.3577
   89MOL0     C11935   0.555   8.080   2.561 -0.2867 -0.1088  1.0807
   89MOL0     C11936   0.550   8.199   2.490  0.3484 -0.4360  0.8792
   89MOL0     C11937   0.646   8.299   2.508 -0.2813  0.5971  0.1525
   89MOL0     O11938   0.666   8.408   2.426 -0.0840 -0.2349  0.2906
   89MOL0     C11939   0.571   8.437   2.319 -0.5443 -0.5923 -0.4525
   89MOL0     C11940   0.478   8.555   2.337  0.7090 -0.2408 -0.1905
   89MOL0     C11941   0.355   8.519   2.421 -0.1385  0.7262 -0.5992
   89MOL0     C11942   0.241   8.452   2.345 -0.1143  0.0217 -0.2526
   89MOL0     C11943   0.139   8.403   2.442  0.5066 -1.3859 -0.0167
   89MOL0     C11944   0.054   8.360   2.520 -0.0058 -0.1100  0.2828
   89MOL0     C11945   0.747   8.277   2.606  0.4266 -0.2257  0.3792
   89MOL0     C11946   0.760   8.154   2.680  1.0763 -0.9048 -0.9160
   89MOL0     C11947   0.873   8.159   2.775 -0.1316 -0.4974 -0.0948
   89MOL0     H11948   0.592   7.830   3.042  2.0097  1.8598 -0.8722
   89MOL0     H11949   0.575   7.589   3.103 -3.0551  0.5566 -0.5904
   89MOL0     H11950   0.609   7.405   3.142 -1.0050  1.9969 -2.5327
   89MOL0     H11951   0.547   7.323   2.993  0.9852 -1.3065 -0.5660
   89MOL0     H11952   0.748   7.178   3.169 -0.5808 -2.8463  0.2397
   89MOL0     H11953   0.682   7.131   3.019  0.4541  0.1879 -0.7531
   89MOL0     H11954   0.450   7.189   3.132  1.7562  3.1199 -1.5004
   89MOL0     H11955   0.538   7.113   3.274  0.4161 -0.2448 -0.1830
   89MOL0     H11956   0.493   6.983   3.014  0.9507  3.8752 -0.3698
   89MOL0     H11957   0.607   6.934   3.139 -0.8526 -0.7075  2.8340
   89MOL0     H11958   0.389   6.946   3.285  1.5346  1.7447 -0.3133
   89MOL0     H11959   0.301   6.934   3.141 -2.3220 -1.4075  3.7852
   89MOL0     H11960   0.475   6.732   3.094  0.8325 -0.3577  0.6497
   89MOL0     H11961   0.498   6.739   3.265  0.0010  0.7468 -0.5365
   89MOL0     H11962   0.237   6.697   3.124 -0.1813  2.6421  0.7858
   89MOL0     H11963   0.263   6.694   3.302  1.0449 -1.4376  1.4194
   89MOL0     H11964   0.391   6.484   3.123 -3.4393  0.9337 -1.4698
   89MOL0     H11965   0.417   6.512   3.301 -0.2684 -1.2855  0.0651
   89MOL0     H11966   0.183   6.383   3.033  5.1729 -0.3372  1.2068
   89MOL0     H11967  -0.049   6.178   3.058 -3.0962  1.0569 -0.1153
   89MOL0     H11968  -0.081   6.139   3.222 -0.5422  1.6658  1.6290
   89MOL0     H11969  -0.269   6.268   3.158  1.0131 -1.9933 -1.7538
   89MOL0     H11970  -0.167   6.383   3.234  1.8322  0.1541  0.4263
   89MOL0     H11971  -0.244   6.355   2.949 -0.2975  0.7673 -0.7283
   89MOL0     H11972  -0.079   6.410   2.977 -0.0846 -1.4819  1.9990
   89MOL0     H11973  -0.248   6.608   2.960 -3.1652  2.0850  2.1347
   89MOL0     H11974  -0.163   6.591   3.110  2.0554 -1.3024 -0.1202
   89MOL0     H11975  -0.437   6.741   2.999 -1.6717  2.7476 -0.9224
   89MOL0     H11976  -0.543   6.951   3.108  2.5507  1.2050 -0.3131
   89MOL0     H11977  -0.610   7.276   3.213 -0.1059  0.5447 -0.1382
   89MOL0     H11978  -0.700   7.504   3.279  2.1222 -0.6799  0.5937
   89MOL0     H11979  -1.021   7.524   3.608  0.5975 -1.2384 -0.9925
   89MOL0     H11980  -0.852   7.528   3.664  0.8385 -0.7883 -2.6415
   89MOL0     H11981  -0.939   7.727   3.733 -1.7739  0.8313 -0.9148
   89MOL0     H11982  -0.828   7.769   3.599 -1.6226  3.9582  0.1075
   89MOL0     H11983  -0.986   7.833   3.455  0.7524  3.4604  1.4343
   89MOL0     H11984  -1.119   7.764   3.560  0.4294 -0.8844 -1.4213
   89MOL0     H11985  -0.932   7.968   3.684 -0.1518  0.5177 -1.2138
   89MOL0     H11986  -1.104   7.909   3.719 -2.4607 -0.8578 -1.7174
   89MOL0     H11987  -1.175   8.062   3.519  0.0677  1.3368  0.0720
   89MOL0     H11988  -1.001   8.069   3.484  1.3361 -5.2164  1.4349
   89MOL0     H11989  -1.126   8.153   3.748 -0.7051  0.9427  0.1826
   89MOL0     H11990  -0.966   8.202   3.697  0.1479 -0.5340  2.5857
   89MOL0     H11991  -1.217   8.293   3.551  1.2303 -1.2835  0.0472
   89MOL0     H11992  -1.051   8.356   3.528 -0.7918  2.5748 -0.3916
   89MOL0     H11993  -1.230   8.368   3.787 -1.4626  0.4212 -1.2127
   89MOL0     H11994  -1.053   8.401   3.798 -1.5796 -1.4103  1.8549
   89MOL0     H11995  -0.939   7.306   3.577  0.8442  0.3686  0.1905
   89MOL0     H11996  -0.849   7.084   3.511  1.1752 -0.6500  0.5937
   89MOL0     H11997  -0.429   6.793   3.492  0.1201  2.0889 -0.1088
   89MOL0     H11998  -0.338   6.592   3.385  0.5255  1.0174  1.1185
   89MOL0     H11999   0.904   7.498   2.833  0.0013 -0.5635  1.2198
   89MOL0     H12000   0.896   7.733   2.760 -0.1500 -1.6446 -1.1840
   89MOL0     H12001   0.477   8.007   2.540 -0.4672  0.6161 -0.9075
   89MOL0     H12002   0.483   8.204   2.404  0.5576 -3.3297  0.4451
   89MOL0     H12003   0.516   8.351   2.279 -2.1079  0.0360  0.2638
   89MOL0     H12004   0.633   8.460   2.231 -1.0151 -1.8526 -1.1344
   89MOL0     H12005   0.437   8.585   2.241 -2.9523 -1.9276  0.6585
   89MOL0     H12006   0.538   8.633   2.384  2.6921 -1.6426 -0.2394
   89MOL0     H12007   0.318   8.598   2.486 -0.7276 -0.5220  0.6325
   89MOL0     H12008   0.387   8.445   2.495  0.1429  0.7025 -0.7411
   89MOL0     H12009   0.205   8.533   2.281 -2.0876 -0.7610 -0.1975
   89MOL0     H12010   0.285   8.369   2.289 -1.1926 -0.7316 -0.0103
   89MOL0     H12011  -0.023   8.345   2.593 -1.5639  2.7480 -0.6040
   89MOL0     H12012   0.832   8.343   2.616 -0.0717  0.9903 -2.5130
   89MOL0     H12013   0.952   8.089   2.747  2.3439  1.4030  1.7184
   89MOL0     H12014   0.912   8.260   2.792 -0.8797 -0.7161  3.8668
   89MOL0     H12015   0.862   8.128   2.879  3.3263  0.4299  0.6907
   90MOL0     O12016   5.428  11.177   7.017  0.5913  0.3487 -0.4878
   90MOL0     C12017   5.522  11.150   6.936  0.0112  0.5764 -0.6359
   90MOL0     O12018   5.657  11.162   6.959  0.1423 -0.3194  0.7761
   90MOL0     C12019   5.705  11.176   7.086 -0.1212  0.4676 -0.3277
   90MOL0     C12020   5.798  11.085   7.128  0.0314  0.1576 -0.0508
   90MOL0     C12021   5.872  11.105   7.251  0.6087 -0.7088  0.6985
   90MOL0     C12022   5.830  11.218   7.327  0.1350 -0.8791  0.1286
   90MOL0     O12023   5.887  11.239   7.444  0.5375  0.0318  0.7658
   90MOL0     C12024   5.959  11.364   7.452  0.3702 -0.4093 -0.5804
   90MOL0     C12025   6.019  11.367   7.595 -0.5901 -0.5031 -0.3042
   90MOL0     C12026   6.140  11.455   7.590 -0.7908 -0.3594  0.6898
   90MOL0     C12027   6.262  11.377   7.537  0.1169  0.5888  0.0579
   90MOL0     C12028   6.347  11.466   7.450 -0.0487 -0.0012 -0.3785
   90MOL0     C12029   6.495  11.424   7.438  0.2439 -0.0794 -0.7554
   90MOL0     C12030   6.595  11.522   7.372  0.4181 -0.0260  0.3789
   90MOL0     C12031   6.653  11.622   7.464 -0.0651 -0.1167 -0.4414
   90MOL0     N12032   6.747  11.564   7.565 -0.5061  0.1875 -0.3403
   90MOL0     C12033   6.746  11.586   7.699 -0.8211 -0.0947 -0.2119
   90MOL0     C12034   6.841  11.501   7.758 -0.7959  0.2804  0.6703
   90MOL0     C12035   6.883  11.479   7.896  0.0270  0.7687  0.2501
   90MOL0     C12036   6.999  11.375   7.924  0.0126 -0.5077 -0.5760
   90MOL0     C12037   6.941  11.231   7.908  1.1908 -0.3903 -0.0158
   90MOL0     C12038   7.044  11.129   7.937  0.7483 -0.7963  0.0057
   90MOL0     O12039   7.003  10.989   7.899 -0.7021 -0.3836 -0.3301
   90MOL0     C12040   7.103  10.902   7.868 -0.2251 -1.0643  0.0535
   90MOL0     C12041   7.105  10.857   7.739  1.7478  0.7652 -0.6171
   90MOL0     C12042   7.202  10.770   7.699  0.6995  0.3891 -0.4273
   90MOL0     C12043   7.294  10.710   7.791  0.6862 -0.0758  0.2723
   90MOL0     C12044   7.388  10.602   7.763  0.2776  0.7042  0.1330
   90MOL0     O12045   7.363  10.535   7.646 -0.4303  0.8341  0.3219
   90MOL0     C12046   7.445  10.450   7.580  0.7188 -0.1752 -0.6975
   90MOL0     C12047   7.387  10.386   7.481  1.0472 -0.6568  0.4282
   90MOL0     C12048   7.443  10.268   7.434 -0.2815 -0.2116 -0.6918
   90MOL0     C12049   7.572  10.234   7.458 -0.0226 -0.1481 -0.5178
   90MOL0     O12050   7.623  10.117   7.407  0.0795 -0.0039  0.8889
   90MOL0     C12051   7.759  10.106   7.388 -0.9825 -0.1100 -0.4012
   90MOL0     C12052   7.785   9.954   7.373 -0.1756 -0.5430  0.5979
   90MOL0     C12053   7.928   9.921   7.352  0.6266  0.1569 -0.2100
   90MOL0     C12054   7.950   9.772   7.384 -0.1771 -0.6718 -0.0018
   90MOL0     C12055   8.097   9.734   7.359  0.2451  0.5664  0.0985
   90MOL0     C12056   8.104   9.583   7.377 -0.1351  0.4532  0.0521
   90MOL0     C12057   8.231   9.535   7.303  0.1956 -0.6803 -0.3055
   90MOL0     C12058   8.278   9.394   7.354 -0.2671 -0.6457  0.4596
   90MOL0    Cl12059   8.435   9.338   7.270 -0.0944  0.0593  0.0486
   90MOL0     C12060   7.644  10.326   7.548 -0.6712 -0.2502  0.0827
   90MOL0     C12061   7.574  10.432   7.610 -0.8649  0.9396 -0.3919
   90MOL0     O12062   7.483  10.581   7.836  0.1351 -0.5453  1.0607
   90MOL0     C12063   7.277  10.756   7.925 -1.0557  0.6672  0.4592
   90MOL0     C12064   7.192  10.858   7.964  0.8274 -0.1732  0.9772
   90MOL0     N12065   6.893  11.423   7.654  1.3085 -0.4430 -0.0683
   90MOL0     N12066   6.844  11.469   7.535 -0.0105 -0.2248  0.3712
   90MOL0     C12067   5.729  11.312   7.284 -0.1594 -0.0193 -1.3332
   90MOL0     C12068   5.666  11.290   7.163  0.1615  0.1587  0.1131
   90MOL0     C12069   5.489  11.097   6.796  0.1834 -0.4012 -0.0119
   90MOL0     C12070   5.590  11.098   6.701 -0.4516  0.4674 -0.0718
   90MOL0     C12071   5.581  11.046   6.578 -0.2431 -0.5692 -0.3569
   90MOL0     C12072   5.462  10.979   6.538 -0.6253 -0.6529 -1.0175
   90MOL0     O12073   5.454  10.908   6.418  0.6224 -0.2444 -0.7058
   90MOL0     C12074   5.571  10.919   6.323  0.0958  0.5339  0.6609
   90MOL0     C12075   5.538  10.854   6.191 -0.5128  0.2463 -1.0513
   90MOL0     C12076   5.585  10.706   6.202  0.5800  0.2235  0.8737
   90MOL0     C12077   5.496  10.614   6.113  0.2392  0.1830  0.2673
   90MOL0     C12078   5.574  10.507   6.039  0.8280  0.3040  0.7107
   90MOL0     C12079   5.635  10.433   5.964  0.2317 -0.1577  0.2929
   90MOL0     C12080   5.358  10.979   6.634 -0.7624 -0.1652  0.6918
   90MOL0     C12081   5.370  11.039   6.763 -0.0043  0.1079 -0.4971
   90MOL0     C12082   5.252  11.028   6.852 -0.0460 -0.1919  0.7272
   90MOL0     H12083   5.813  11.007   7.054 -0.0914 -0.4590  0.5650
   90MOL0     H12084   5.947  11.033   7.281 -1.6667 -3.7381 -0.3155
   90MOL0     H12085   6.038  11.357   7.378  2.6629  1.6351  1.4924
   90MOL0     H12086   5.897  11.452   7.432  0.3047 -0.5088 -0.8199
   90MOL0     H12087   6.047  11.274   7.646  1.5504  1.2994  2.0651
   90MOL0     H12088   5.945  11.415   7.660  3.9037  4.1652  2.0968
   90MOL0     H12089   6.160  11.512   7.682  1.3266  1.8296 -0.9908
   90MOL0     H12090   6.122  11.541   7.526  2.9627  1.0889  1.2943
   90MOL0     H12091   6.319  11.344   7.624  0.8902 -1.8191 -1.2779
   90MOL0     H12092   6.232  11.288   7.481  2.2569  1.5974 -2.9902
   90MOL0     H12093   6.295  11.474   7.354 -1.1920  1.0895  0.2939
   90MOL0     H12094   6.351  11.569   7.488 -1.5213 -0.3932  0.9256
   90MOL0     H12095   6.523  11.414   7.544 -0.6274 -0.6683 -0.5695
   90MOL0     H12096   6.492  11.325   7.391 -0.2636  0.2594 -1.4557
   90MOL0     H12097   6.541  11.567   7.287  2.7042  1.4565 -0.3861
   90MOL0     H12098   6.675  11.459   7.333  1.0620  0.6941  0.5240
   90MOL0     H12099   6.716  11.695   7.412 -2.3590  1.2903 -1.4353
   90MOL0     H12100   6.572  11.678   7.513  1.2559  1.4506  0.0475
   90MOL0     H12101   6.697  11.665   7.756  4.2511  4.2059 -1.0815
   90MOL0     H12102   6.923  11.574   7.932 -1.6184  0.6623  2.5455
   90MOL0     H12103   6.796  11.453   7.957 -0.5957  0.0010 -0.9345
   90MOL0     H12104   7.090  11.398   7.868  1.8571 -1.2398  1.9109
   90MOL0     H12105   7.033  11.393   8.026  1.0734  1.2310 -1.1927
   90MOL0     H12106   6.911  11.216   7.804 -0.3096 -2.9710  0.6979
   90MOL0     H12107   6.856  11.217   7.975 -1.0425  4.4299 -1.4423
   90MOL0     H12108   7.068  11.124   8.044  1.3409 -1.5510 -0.1567
   90MOL0     H12109   7.134  11.151   7.878  1.7635 -0.0396  1.7558
   90MOL0     H12110   7.036  10.905   7.671 -0.5903  4.7736  3.9759
   90MOL0     H12111   7.214  10.747   7.594 -1.0124  0.6338 -0.7046
   90MOL0     H12112   7.288  10.423   7.454  1.7631  0.5406 -0.6280
   90MOL0     H12113   7.398  10.203   7.360  0.9257 -4.6272  2.0470
   90MOL0     H12114   7.792  10.158   7.298 -0.6248  0.0865 -0.1600
   90MOL0     H12115   7.806  10.134   7.483 -2.3135  0.4432  0.1250
   90MOL0     H12116   7.741   9.890   7.450  0.1360  0.1303  1.3453
   90MOL0     H12117   7.733   9.944   7.277 -0.7229  3.8424  0.2598
   90MOL0     H12118   7.932   9.929   7.243 -1.9263 -1.2479 -0.4795
   90MOL0     H12119   8.000   9.985   7.405  0.4394  0.9559 -0.8943
   90MOL0     H12120   7.877   9.701   7.345 -1.5276  1.5831 -1.7566
   90MOL0     H12121   7.933   9.767   7.492  1.4888 -0.0522  0.3187
   90MOL0     H12122   8.175   9.788   7.413  3.4442 -0.5490 -3.0203
   90MOL0     H12123   8.118   9.763   7.256 -2.2616 -0.6135 -0.8210
   90MOL0     H12124   8.105   9.565   7.485 -0.0004 -0.3670 -0.0822
   90MOL0     H12125   8.024   9.530   7.323  0.9939  1.3074 -2.6293
   90MOL0     H12126   8.311   9.609   7.318 -0.5519  0.4567 -1.7207
   90MOL0     H12127   8.212   9.527   7.196 -1.0603 -1.6131 -0.0283
   90MOL0     H12128   8.292   9.402   7.462  1.5881  0.6450  0.1755
   90MOL0     H12129   8.201   9.317   7.342 -0.1314 -0.8591  0.9170
   90MOL0     H12130   7.750  10.312   7.566 -0.7932 -0.9395  0.3188
   90MOL0     H12131   7.641  10.488   7.675 -0.5874  0.1859 -0.0258
   90MOL0     H12132   7.339  10.703   7.997  0.3728 -1.6793 -2.2518
   90MOL0     H12133   7.174  10.889   8.066  0.3992 -0.3677  0.9645
   90MOL0     H12134   5.706  11.402   7.339  2.9404  0.0467  0.1119
   90MOL0     H12135   5.598  11.366   7.125 -0.3034  1.7552  3.7117
   90MOL0     H12136   5.685  11.145   6.721  0.3985 -1.2483  0.1740
   90MOL0     H12137   5.663  11.059   6.508  0.3864  0.4375  0.5536
   90MOL0     H12138   5.662  10.880   6.370  2.0522  2.1534 -1.5893
   90MOL0     H12139   5.601  11.022   6.300 -0.1290  0.8483  1.7151
   90MOL0     H12140   5.592  10.893   6.104 -2.0023 -1.9534 -3.1167
   90MOL0     H12141   5.430  10.859   6.171 -0.3420  1.7187 -1.7301
   90MOL0     H12142   5.569  10.668   6.303  0.7452 -1.5891  0.2511
   90MOL0     H12143   5.692  10.708   6.177  0.1921 -3.5605 -2.0437
   90MOL0     H12144   5.430  10.567   6.187  2.4077  0.7402  2.7021
   90MOL0     H12145   5.437  10.668   6.039  1.1892 -2.2492 -2.4474
   90MOL0     H12146   5.696  10.375   5.897  0.1390  0.5967 -0.4533
   90MOL0     H12147   5.265  10.928   6.612 -1.1933  0.7713  0.2773
   90MOL0     H12148   5.175  10.963   6.808 -0.6600  0.2216  1.1637
   90MOL0     H12149   5.274  10.990   6.952 -2.2698 -3.1706  0.2402
   90MOL0     H12150   5.203  11.126   6.866  3.2039  1.2050  3.6955
   91MOL0     O12151   0.976   2.542   7.337  0.4350  0.5151 -0.3024
   91MOL0     C12152   0.873   2.495   7.378 -1.3699  0.2841  0.3508
   91MOL0     O12153   0.870   2.425   7.498  0.1150 -0.3903 -0.3591
   91MOL0     C12154   0.986   2.394   7.567 -0.5912 -0.0881  0.0589
   91MOL0     C12155   1.020   2.262   7.596 -0.9477  0.1178  0.0992
   91MOL0     C12156   1.116   2.237   7.695 -0.1390 -0.1193 -0.0505
   91MOL0     C12157   1.191   2.339   7.761  0.6077  1.3704 -0.4730
   91MOL0     O12158   1.279   2.309   7.861 -0.3773 -0.8525  0.6571
   91MOL0     C12159   1.387   2.399   7.885  0.2988  0.0014  0.4379
   91MOL0     C12160   1.460   2.354   8.012 -0.2230  0.1017  0.3791
   91MOL0     C12161   1.362   2.335   8.137  0.0214  0.1153  0.4202
   91MOL0     C12162   1.435   2.275   8.248 -0.2739  1.2668  0.1152
   91MOL0     C12163   1.390   2.134   8.277  0.0993  0.0604 -0.0459
   91MOL0     C12164   1.426   2.081   8.415  0.3372  1.3114  0.5179
   91MOL0     C12165   1.573   2.074   8.441  0.4418  0.2856  0.9351
   91MOL0     C12166   1.593   2.031   8.590 -0.1682 -0.8206 -0.2038
   91MOL0     N12167   1.656   1.896   8.599  0.2230 -0.0594  0.3232
   91MOL0     C12168   1.797   1.879   8.596  0.3499  0.1329 -0.5246
   91MOL0     C12169   1.802   1.746   8.580 -0.1342  0.1631 -0.2688
   91MOL0     C12170   1.929   1.664   8.563  0.8038 -1.1822 -0.0040
   91MOL0     C12171   1.945   1.572   8.684  0.5632  1.4792 -0.1411
   91MOL0     C12172   1.980   1.433   8.656  0.3086  0.2716  0.9424
   91MOL0     C12173   1.863   1.343   8.625  0.2710  0.7254 -0.7172
   91MOL0     O12174   1.907   1.214   8.571 -0.1863 -0.5617 -0.0996
   91MOL0     C12175   1.940   1.112   8.653  0.3150  0.3787  0.2592
   91MOL0     C12176   1.895   1.091   8.791  0.0604 -0.5030 -0.3348
   91MOL0     C12177   1.921   0.982   8.868 -0.2176 -0.0865  0.2420
   91MOL0     C12178   2.008   0.884   8.811 -0.1353  0.4671  0.0479
   91MOL0     C12179   2.044   0.776   8.906 -0.8381  0.7363 -0.1891
   91MOL0     O12180   1.989   0.780   9.034 -0.2777  0.2900 -0.1433
   91MOL0     C12181   2.008   0.677   9.132  0.2234  0.4354  0.4664
   91MOL0     C12182   2.016   0.720   9.265 -1.1250  0.6516 -1.3119
   91MOL0     C12183   2.017   0.624   9.370 -0.3083 -1.0665  0.5699
   91MOL0     C12184   2.018   0.495   9.334  0.5939 -1.2151 -0.4084
   91MOL0     O12185   2.026   0.392   9.426 -0.4231  0.3196 -0.2390
   91MOL0     C12186   2.158   0.334   9.424 -1.3336  0.5886 -0.2340
   91MOL0     C12187   2.201   0.276   9.559  0.3389 -0.0205 -0.6542
   91MOL0     C12188   2.276   0.143   9.529 -0.1585  0.0221 -0.2598
   91MOL0     C12189   2.347   0.078   9.646  0.1541  0.0236 -0.4154
   91MOL0     C12190   2.261   0.047   9.772  0.2699 -0.5784  0.1021
   91MOL0     C12191   2.156  -0.056   9.719 -0.4124  0.4302  0.4334
   91MOL0     C12192   2.106  -0.147   9.830 -0.2938 -1.3816 -0.4842
   91MOL0     C12193   1.991  -0.236   9.783  0.1955 -0.0206 -0.6665
   91MOL0    Cl12194   2.065  -0.361   9.693  0.5688 -0.2612  0.4668
   91MOL0     C12195   2.008   0.453   9.205 -0.2801 -0.3013 -0.6595
   91MOL0     C12196   2.007   0.544   9.105  0.8452 -0.0805  0.6972
   91MOL0     O12197   2.130   0.693   8.873 -0.5630 -0.8200  0.2136
   91MOL0     C12198   2.059   0.903   8.680  0.2649  0.9331 -0.0787
   91MOL0     C12199   2.028   1.005   8.601 -0.6595  0.3439 -0.0250
   91MOL0     N12200   1.676   1.690   8.586  0.0707 -0.1146  0.3217
   91MOL0     N12201   1.592   1.780   8.598  0.4209 -0.0289  0.3392
   91MOL0     C12202   1.156   2.470   7.721 -0.5174 -0.3830 -0.9996
   91MOL0     C12203   1.056   2.500   7.630  0.2365 -0.1242  0.5416
   91MOL0     C12204   0.753   2.519   7.300  0.0618 -0.1395  0.2681
   91MOL0     C12205   0.642   2.428   7.323 -0.5299 -0.2484  0.3551
   91MOL0     C12206   0.519   2.443   7.263  0.5367 -0.6655 -0.6841
   91MOL0     C12207   0.493   2.555   7.191  1.0163 -0.7251  0.5219
   91MOL0     O12208   0.376   2.587   7.125 -0.3250 -0.1129 -0.4843
   91MOL0     C12209   0.262   2.591   7.206  0.3284 -0.4509  0.7530
   91MOL0     C12210   0.273   2.705   7.306  0.1316  0.2916 -0.1313
   91MOL0     C12211   0.131   2.761   7.333 -0.2567  0.5519 -0.2063
   91MOL0     C12212   0.153   2.894   7.425 -0.5020 -0.7353 -0.5862
   91MOL0     C12213   0.178   3.009   7.334  0.5556  0.3848 -0.8936
   91MOL0     C12214   0.198   3.104   7.263  0.1458  0.0822  0.4074
   91MOL0     C12215   0.595   2.643   7.171 -0.2599  0.7319  0.5549
   91MOL0     C12216   0.727   2.631   7.218 -0.0701  0.1931 -0.1007
   91MOL0     C12217   0.838   2.732   7.168 -0.5415  0.9659  0.0269
   91MOL0     H12218   0.974   2.174   7.551 -0.6316 -0.4597  0.8790
   91MOL0     H12219   1.132   2.132   7.720 -3.4538 -0.7249  0.0078
   91MOL0     H12220   1.467   2.402   7.811  1.0826 -0.2184  1.2608
   91MOL0     H12221   1.361   2.505   7.890  0.4293  0.1670 -1.6340
   91MOL0     H12222   1.542   2.423   8.033  0.8833 -0.9470 -0.4220
   91MOL0     H12223   1.510   2.259   7.995  2.7159  1.6968 -0.5956
   91MOL0     H12224   1.273   2.276   8.117 -0.2387  0.3467  0.8738
   91MOL0     H12225   1.336   2.434   8.177  0.8983 -0.1282  1.6501
   91MOL0     H12226   1.543   2.273   8.236 -0.1394 -1.1487  1.0961
   91MOL0     H12227   1.420   2.326   8.344 -1.1355 -1.6981  1.6896
   91MOL0     H12228   1.282   2.136   8.296  0.0101 -1.5133 -0.2498
   91MOL0     H12229   1.401   2.065   8.193 -3.0175 -0.4852 -0.1165
   91MOL0     H12230   1.389   2.149   8.492 -0.4918 -0.9116  2.2082
   91MOL0     H12231   1.376   1.984   8.429  1.5902  1.0173  4.4836
   91MOL0     H12232   1.611   2.174   8.421 -0.0882  0.3662  0.2828
   91MOL0     H12233   1.621   2.006   8.369 -3.1936 -0.5791 -0.9388
   91MOL0     H12234   1.654   2.109   8.637  1.3359 -1.8045 -0.4297
   91MOL0     H12235   1.495   2.021   8.637 -1.1726 -1.0196 -2.2157
   91MOL0     H12236   1.868   1.961   8.600  1.5248 -0.8716 -0.3414
   91MOL0     H12237   1.926   1.602   8.473  2.1668 -0.8756 -0.2702
   91MOL0     H12238   2.014   1.732   8.562  0.8182 -1.1998 -0.8817
   91MOL0     H12239   2.018   1.606   8.758  0.2027 -1.4784  1.7579
   91MOL0     H12240   1.851   1.551   8.738  2.1120 -4.7706  0.9214
   91MOL0     H12241   2.033   1.393   8.743 -2.4294  0.8225  2.9869
   91MOL0     H12242   2.051   1.432   8.572 -0.7233  0.3916  0.0501
   91MOL0     H12243   1.804   1.387   8.544 -0.6161 -0.0841 -0.5270
   91MOL0     H12244   1.804   1.318   8.713 -2.3591 -2.8925 -3.1892
   91MOL0     H12245   1.827   1.160   8.839  1.0163  0.1628  0.0818
   91MOL0     H12246   1.869   0.976   8.963  0.3648 -2.6917  0.4673
   91MOL0     H12247   2.022   0.826   9.284  0.5118  0.2395  0.7799
   91MOL0     H12248   2.012   0.664   9.471 -1.2706  1.5829 -0.4303
   91MOL0     H12249   2.157   0.254   9.349 -2.0902  0.6662 -0.3104
   91MOL0     H12250   2.236   0.403   9.390 -0.0979 -0.8490 -0.3901
   91MOL0     H12251   2.277   0.344   9.596  1.8595 -1.2148 -1.4769
   91MOL0     H12252   2.106   0.271   9.615 -1.1711  1.4357 -2.9305
   91MOL0     H12253   2.214   0.056   9.505 -0.7308  0.8755 -1.9990
   91MOL0     H12254   2.347   0.157   9.448  2.7624  0.1858  2.1371
   91MOL0     H12255   2.426   0.142   9.685  0.3551 -0.8207  0.5975
   91MOL0     H12256   2.401  -0.013   9.622  2.5876  1.1994  0.2630
   91MOL0     H12257   2.215   0.140   9.805  1.3814  0.2628 -0.6255
   91MOL0     H12258   2.334   0.002   9.841 -0.5361 -0.9994  0.6970
   91MOL0     H12259   2.065  -0.016   9.673 -0.3016 -0.3203 -0.4684
   91MOL0     H12260   2.203  -0.117   9.641  1.1284  2.4693 -0.3238
   91MOL0     H12261   2.062  -0.089   9.911  0.1204 -2.8522  0.8468
   91MOL0     H12262   2.202  -0.192   9.856 -0.6264 -2.3885 -0.9493
   91MOL0     H12263   1.944  -0.270   9.876  1.8839 -1.3152 -0.2443
   91MOL0     H12264   1.916  -0.191   9.717 -1.1421 -1.2513 -0.0245
   91MOL0     H12265   2.019   0.351   9.171  1.7923 -0.4867  0.4123
   91MOL0     H12266   2.005   0.506   9.003  2.0145  1.6601 -0.0151
   91MOL0     H12267   2.127   0.826   8.644 -1.1473  0.0001 -0.8644
   91MOL0     H12268   2.071   1.026   8.503  1.2295 -1.6043  0.3091
   91MOL0     H12269   1.220   2.545   7.767  2.3491 -3.4379  0.4166
   91MOL0     H12270   1.027   2.602   7.606  1.0675  0.0511  0.2322
   91MOL0     H12271   0.660   2.342   7.387 -0.9618  0.3460  1.2875
   91MOL0     H12272   0.446   2.362   7.269 -0.0095 -0.0902  1.4029
   91MOL0     H12273   0.257   2.495   7.257  0.9183 -0.0260  1.6314
   91MOL0     H12274   0.175   2.599   7.140  0.3405  1.2185  0.9001
   91MOL0     H12275   0.330   2.787   7.263 -0.5904 -0.6017 -3.0340
   91MOL0     H12276   0.321   2.667   7.397 -0.0099  2.0750  0.7140
   91MOL0     H12277   0.066   2.684   7.375 -1.3001  0.4014 -1.9946
   91MOL0     H12278   0.085   2.786   7.237 -1.6950  0.5742  0.4729
   91MOL0     H12279   0.065   2.913   7.487 -0.1324 -0.2351 -0.2108
   91MOL0     H12280   0.235   2.877   7.496 -1.2353 -2.2850 -0.0581
   91MOL0     H12281   0.205   3.194   7.205 -1.3199  1.8887  2.8491
   91MOL0     H12282   0.561   2.722   7.105 -1.9688 -1.4630 -1.3510
   91MOL0     H12283   0.784   2.815   7.122 -0.8166  1.2112  0.7784
   91MOL0     H12284   0.908   2.774   7.240  1.8427  0.4625 -1.8686
   91MOL0     H12285   0.902   2.672   7.102 -4.2018 -3.6269  0.0843
   92MOL0     O12286   9.629  11.171  11.053  0.1546 -0.3074 -0.4076
   92MOL0     C12287   9.695  11.123  10.960  0.5391 -0.5185  0.6554
   92MOL0     O12288   9.766  11.004  10.969  0.1338  0.2686 -0.4314
   92MOL0     C12289   9.784  10.949  11.095  0.1929 -0.5949 -0.8000
   92MOL0     C12290   9.677  10.884  11.164  0.5322 -0.9393 -0.1552
   92MOL0     C12291   9.691  10.846  11.302 -0.2302 -0.6167 -0.3393
   92MOL0     C12292   9.812  10.842  11.355 -0.1566  1.0805 -0.0923
   92MOL0     O12293   9.834  10.796  11.485 -0.2927  0.0859 -0.2978
   92MOL0     C12294   9.734  10.815  11.584 -0.0731  0.5464 -0.3219
   92MOL0     C12295   9.784  10.790  11.722 -0.4251  0.7763  0.2238
   92MOL0     C12296   9.879  10.894  11.757  0.4071 -0.2624 -0.9817
   92MOL0     C12297   9.805  11.022  11.812 -0.1207  0.5001 -0.5949
   92MOL0     C12298   9.819  11.037  11.966 -0.5590  0.6466  0.1385
   92MOL0     C12299   9.792  11.183  12.015 -0.2599  1.1985 -0.4961
   92MOL0     C12300   9.652  11.225  11.960 -0.3209 -0.6437  0.5142
   92MOL0     C12301   9.628  11.373  12.002  1.1174  0.8013 -0.6798
   92MOL0     N12302   9.638  11.474  11.885  0.2804 -0.1030 -0.6350
   92MOL0     C12303   9.738  11.470  11.800 -0.2232 -0.3487  0.4475
   92MOL0     C12304   9.695  11.560  11.701 -1.6745  1.0027 -0.5652
   92MOL0     C12305   9.787  11.594  11.585 -0.1617  0.5840  0.0808
   92MOL0     C12306   9.717  11.587  11.454 -0.4213  0.1444 -0.1116
   92MOL0     C12307   9.718  11.453  11.381  0.8954  0.2729  0.6208
   92MOL0     C12308   9.621  11.454  11.260  0.6193 -1.1859  0.6302
   92MOL0     O12309   9.629  11.571  11.178 -0.0940 -0.2511  0.3617
   92MOL0     C12310   9.546  11.562  11.065 -0.0453 -0.2440 -0.1220
   92MOL0     C12311   9.593  11.599  10.940  0.5158 -0.2422 -0.0423
   92MOL0     C12312   9.525  11.589  10.816  0.7821 -0.5789 -0.1393
   92MOL0     C12313   9.386  11.551  10.829 -1.3655  0.2181 -0.8846
   92MOL0     C12314   9.304  11.567  10.714  0.5583  0.7246 -0.4597
   92MOL0     O12315   9.374  11.593  10.602 -0.3453  0.4239  0.4712
   92MOL0     C12316   9.302  11.643  10.500 -0.1248  0.5683 -1.0300
   92MOL0     C12317   9.289  11.569  10.381  1.2258 -0.7103 -0.7971
   92MOL0     C12318   9.210  11.618  10.267 -0.0761 -0.1369  0.0424
   92MOL0     C12319   9.162  11.759  10.266 -0.7635  0.6047  1.4101
   92MOL0     O12320   9.093  11.821  10.162  0.6097  0.1321  0.1848
   92MOL0     C12321   9.173  11.888  10.073 -0.1950  0.1613  1.0133
   92MOL0     C12322   9.077  11.923   9.950  0.1828 -0.4548 -0.8954
   92MOL0     C12323   9.042  11.793   9.871 -0.9552  0.5201  0.0615
   92MOL0     C12324   9.157  11.742   9.772 -0.3263 -0.0753 -0.5692
   92MOL0     C12325   9.116  11.626   9.694  0.8944  0.2874  0.3776
   92MOL0     C12326   9.000  11.656   9.593 -0.3456 -1.2681 -1.0502
   92MOL0     C12327   8.984  11.528   9.506 -0.2851  0.7901 -1.2278
   92MOL0     C12328   8.914  11.553   9.376  0.9966  0.1416 -0.1419
   92MOL0    Cl12329   8.745  11.610   9.403  0.2069 -0.4669 -0.1793
   92MOL0     C12330   9.194  11.828  10.386 -0.1057 -0.1893 -0.7244
   92MOL0     C12331   9.266  11.785  10.496  0.4602 -0.0471 -0.6882
   92MOL0     O12332   9.181  11.553  10.726  0.1516 -0.2376 -0.1315
   92MOL0     C12333   9.333  11.528  10.957  0.4848  0.1196  0.4524
   92MOL0     C12334   9.413  11.530  11.066  0.1658  0.5379  0.6078
   92MOL0     N12335   9.566  11.580  11.719  0.9948  0.6764 -0.7273
   92MOL0     N12336   9.528  11.529  11.827 -0.6065 -0.1267 -0.0949
   92MOL0     C12337   9.922  10.879  11.277 -0.1648  0.5248 -0.2840
   92MOL0     C12338   9.905  10.938  11.151  0.0066 -0.2633 -0.6530
   92MOL0     C12339   9.718  11.203  10.838  0.3139 -1.1138 -0.2034
   92MOL0     C12340   9.612  11.257  10.769 -0.8007 -0.3748 -0.6300
   92MOL0     C12341   9.621  11.324  10.638  0.5300 -0.9923  0.3431
   92MOL0     C12342   9.740  11.326  10.574 -0.0419 -0.5376 -0.2762
   92MOL0     O12343   9.737  11.377  10.449  0.1927 -0.6643 -0.4209
   92MOL0     C12344   9.785  11.293  10.340 -0.3908  0.1721  0.1710
   92MOL0     C12345   9.665  11.206  10.289  0.9244 -0.0373 -0.9803
   92MOL0     C12346   9.603  11.266  10.165 -0.1285 -0.3617 -0.1094
   92MOL0     C12347   9.520  11.392  10.185 -0.1501  0.3590 -0.2480
   92MOL0     C12348   9.432  11.421  10.068  1.1714  0.9313 -0.0995
   92MOL0     C12349   9.355  11.457   9.981  0.0729  0.8487 -0.1085
   92MOL0     C12350   9.850  11.278  10.642 -0.2692  0.2012  0.1468
   92MOL0     C12351   9.841  11.223  10.773 -0.3810 -0.2335 -0.5731
   92MOL0     C12352   9.962  11.162  10.831  0.2748  0.2016 -0.3695
   92MOL0     H12353   9.576  10.884  11.124  0.2475  0.4060  0.4959
   92MOL0     H12354   9.613  10.802  11.363  1.2809 -1.5857  0.9774
   92MOL0     H12355   9.702  10.920  11.585  0.2084  0.6451  1.5322
   92MOL0     H12356   9.647  10.751  11.567 -1.9778  3.2542 -1.6072
   92MOL0     H12357   9.839  10.695  11.716  1.7095  2.0325 -2.9046
   92MOL0     H12358   9.708  10.771  11.798 -0.3200 -1.4379 -0.1578
   92MOL0     H12359   9.941  10.928  11.674 -2.9325 -1.0745 -4.0415
   92MOL0     H12360   9.937  10.853  11.841 -1.0659 -1.2676 -0.4211
   92MOL0     H12361   9.851  11.112  11.772 -1.6225  1.9941  0.9130
   92MOL0     H12362   9.697  11.012  11.796  0.1509 -2.7919 -1.1827
   92MOL0     H12363   9.758  10.957  12.009  1.5387 -0.7854  0.5940
   92MOL0     H12364   9.920  11.006  11.994 -1.2929  0.4219  2.7590
   92MOL0     H12365   9.805  11.198  12.122 -3.0277  0.2314  0.0565
   92MOL0     H12366   9.867  11.243  11.963 -0.1366  2.8947  1.5210
   92MOL0     H12367   9.580  11.161  12.012  1.2021 -2.5449  0.3966
   92MOL0     H12368   9.630  11.219  11.853 -1.4517  0.1655  0.6797
   92MOL0     H12369   9.525  11.375  12.039  0.6310  0.3170 -1.9468
   92MOL0     H12370   9.693  11.403  12.085 -1.6341 -0.2977  2.0738
   92MOL0     H12371   9.835  11.422  11.811  0.4068  0.2113 -2.0503
   92MOL0     H12372   9.824  11.694  11.607 -1.6646  1.2862 -0.4542
   92MOL0     H12373   9.870  11.522  11.580 -0.1636  0.5746  0.1968
   92MOL0     H12374   9.614  11.623  11.462 -0.5868  0.1796 -2.0232
   92MOL0     H12375   9.780  11.643  11.384 -1.3363  1.9205  0.4111
   92MOL0     H12376   9.692  11.374  11.453 -2.9445  0.1203 -0.7208
   92MOL0     H12377   9.821  11.434  11.350  0.5769 -1.0085  0.2851
   92MOL0     H12378   9.523  11.445  11.308  1.2948  0.4923  2.4721
   92MOL0     H12379   9.640  11.372  11.190  1.6402  1.7577 -2.9011
   92MOL0     H12380   9.696  11.631  10.945  0.8732 -1.3860  0.2675
   92MOL0     H12381   9.572  11.625  10.725 -2.7532 -0.9428 -2.3031
   92MOL0     H12382   9.325  11.466  10.378  1.0171 -0.7735 -2.9874
   92MOL0     H12383   9.193  11.571  10.170  2.6456  1.4875 -1.3578
   92MOL0     H12384   9.219  11.975  10.120  0.9901 -0.1805  0.5158
   92MOL0     H12385   9.247  11.815  10.041 -2.2148 -2.0387  1.0221
   92MOL0     H12386   8.985  11.967   9.990  0.5159 -2.0699  1.8989
   92MOL0     H12387   9.133  11.995   9.889  1.5509 -0.1671  0.6451
   92MOL0     H12388   9.030  11.705   9.936 -0.0958  0.3374 -0.0100
   92MOL0     H12389   8.955  11.813   9.808 -0.6529 -0.9138 -0.8513
   92MOL0     H12390   9.242  11.712   9.832 -2.4054 -0.2653  2.5078
   92MOL0     H12391   9.188  11.822   9.704  0.8879  0.0518  0.1112
   92MOL0     H12392   9.083  11.542   9.756  1.6677 -2.5543 -2.7641
   92MOL0     H12393   9.198  11.585   9.635  1.4228 -0.3824  1.5321
   92MOL0     H12394   8.905  11.683   9.642  0.6483  0.5460 -0.0246
   92MOL0     H12395   9.034  11.733   9.524 -1.3328  1.2359  1.0933
   92MOL0     H12396   8.919  11.462   9.565 -0.6828  0.5989 -1.8625
   92MOL0     H12397   9.078  11.477   9.484  1.5256  4.1419 -1.8741
   92MOL0     H12398   8.966  11.629   9.318 -1.3664  2.8330  1.0245
   92MOL0     H12399   8.907  11.463   9.314 -1.6533  0.1182  0.0815
   92MOL0     H12400   9.165  11.932  10.398  0.9340  0.6740 -4.3639
   92MOL0     H12401   9.292  11.853  10.576  2.3307  0.5772 -1.7705
   92MOL0     H12402   9.228  11.507  10.971 -0.4094  2.5418 -1.7253
   92MOL0     H12403   9.379  11.522  11.169 -1.1863  0.3060  0.1670
   92MOL0     H12404  10.025  10.868  11.309  0.2144 -0.4725 -1.7639
   92MOL0     H12405   9.996  10.965  11.099  0.0524  1.3605  0.1879
   92MOL0     H12406   9.507  11.233  10.785 -0.8172 -2.3630 -2.9221
   92MOL0     H12407   9.533  11.355  10.582  1.1460 -1.2629 -0.7841
   92MOL0     H12408   9.875  11.231  10.352 -1.1463 -1.9275 -3.5169
   92MOL0     H12409   9.809  11.363  10.260 -3.2331  2.8722  1.4613
   92MOL0     H12410   9.591  11.172  10.362 -1.1972  1.9335 -2.0805
   92MOL0     H12411   9.709  11.108  10.267  0.9310 -0.6273  1.4120
   92MOL0     H12412   9.534  11.194  10.121 -1.3019  0.6674 -0.0083
   92MOL0     H12413   9.676  11.287  10.086 -1.4290  3.0060 -0.5681
   92MOL0     H12414   9.466  11.372  10.277 -0.2125 -1.4327 -0.6261
   92MOL0     H12415   9.592  11.473  10.204  0.1128 -0.5549  3.2576
   92MOL0     H12416   9.293  11.499   9.904 -1.0938 -0.2760  0.1854
   92MOL0     H12417   9.938  11.270  10.580 -1.7039 -1.8897 -1.7994
   92MOL0     H12418  10.059  11.189  10.789  1.3638 -2.5237  0.1904
   92MOL0     H12419   9.950  11.202  10.932  1.7051  1.1024 -0.5283
   92MOL0     H12420   9.970  11.054  10.844  2.3103  0.5025  1.5915
   93MOL0     O12421   7.429   2.371   6.108  0.1907  0.1139  0.1736
   93MOL0     C12422   7.312   2.388   6.141 -0.5466  0.7433  0.5604
   93MOL0     O12423   7.241   2.494   6.101  0.7114  0.4777  0.6483
   93MOL0     C12424   7.283   2.551   5.984  0.1621 -0.4590 -0.2839
   93MOL0     C12425   7.272   2.491   5.860  0.0727 -1.0327  0.2327
   93MOL0     C12426   7.283   2.573   5.747 -0.7851  0.6840 -0.7012
   93MOL0     C12427   7.327   2.700   5.749 -0.1379 -0.2607  0.2988
   93MOL0     O12428   7.346   2.751   5.623 -0.2541 -0.0808 -0.3762
   93MOL0     C12429   7.433   2.871   5.616  0.3879  0.4419  0.6848
   93MOL0     C12430   7.453   2.913   5.475  0.6369  0.7609 -0.7392
   93MOL0     C12431   7.536   3.042   5.467 -0.2556 -0.7041 -0.0876
   93MOL0     C12432   7.531   3.104   5.320 -0.4336  0.3041  0.3734
   93MOL0     C12433   7.540   3.256   5.321 -0.3205 -0.4764  1.3150
   93MOL0     C12434   7.582   3.323   5.184  0.4540  0.4689 -0.6132
   93MOL0     C12435   7.587   3.480   5.165 -0.4878  0.7438  1.0429
   93MOL0     C12436   7.625   3.572   5.276 -0.0619 -0.4553 -0.6279
   93MOL0     N12437   7.769   3.587   5.283  0.1703 -0.6941 -0.2488
   93MOL0     C12438   7.860   3.482   5.294  0.2681 -1.1918  0.9160
   93MOL0     C12439   7.971   3.550   5.326 -0.1974 -0.3999  0.3065
   93MOL0     C12440   8.108   3.473   5.361 -0.0356 -0.1707  0.1140
   93MOL0     C12441   8.173   3.538   5.491  1.0425  0.4830  0.3327
   93MOL0     C12442   8.290   3.467   5.551 -0.2436  1.4219  0.6267
   93MOL0     C12443   8.348   3.538   5.668 -1.6586  0.6518 -0.0089
   93MOL0     O12444   8.436   3.448   5.744  0.8348  0.5528 -0.2964
   93MOL0     C12445   8.388   3.342   5.814  0.9370 -0.4418  0.5675
   93MOL0     C12446   8.255   3.324   5.859 -0.2014 -0.0988  0.6110
   93MOL0     C12447   8.196   3.207   5.896 -0.0333 -0.0285  1.2884
   93MOL0     C12448   8.275   3.092   5.915 -0.0855  0.4495  0.7442
   93MOL0     C12449   8.210   2.966   5.965 -0.3061  0.8186 -0.2269
   93MOL0     O12450   8.078   2.971   6.002 -0.7056 -0.1753 -0.6754
   93MOL0     C12451   8.022   2.853   6.038  0.0990 -0.1078 -0.0042
   93MOL0     C12452   7.958   2.842   6.165  0.1030 -0.4617 -0.7589
   93MOL0     C12453   7.895   2.724   6.191  0.6071 -0.7941 -0.4218
   93MOL0     C12454   7.902   2.621   6.101  0.0584 -0.4497 -0.1146
   93MOL0     O12455   7.832   2.503   6.123 -0.2589  0.2212  0.2073
   93MOL0     C12456   7.855   2.451   6.253  0.0678  1.4343  0.2862
   93MOL0     C12457   7.808   2.299   6.257  0.0758  0.2052  0.3277
   93MOL0     C12458   7.903   2.215   6.171 -1.2130  0.6998  0.3489
   93MOL0     C12459   7.861   2.072   6.143 -0.1718  0.3410 -0.0731
   93MOL0     C12460   7.964   1.996   6.069  0.5544  0.5693  0.6003
   93MOL0     C12461   7.966   2.020   5.913  0.3413  0.2728 -0.0348
   93MOL0     C12462   8.098   1.970   5.850 -1.1545 -0.1871  0.3588
   93MOL0     C12463   8.067   1.934   5.703  0.0356  0.0004  0.1902
   93MOL0    Cl12464   7.968   1.779   5.681 -0.0146  0.1410  0.0386
   93MOL0     C12465   7.961   2.628   5.976 -0.5223 -0.1348 -0.8210
   93MOL0     C12466   8.019   2.746   5.944 -0.5414  0.0354  0.6117
   93MOL0     O12467   8.286   2.866   5.990 -0.9968  0.1824  0.4774
   93MOL0     C12468   8.408   3.107   5.888 -0.1660  0.0902 -0.2806
   93MOL0     C12469   8.467   3.225   5.838  0.0349  0.3508 -0.3100
   93MOL0     N12470   7.946   3.690   5.339  0.8109 -0.3495 -0.2374
   93MOL0     N12471   7.821   3.708   5.331 -0.4170  1.5674 -0.2726
   93MOL0     C12472   7.346   2.759   5.869 -0.0153  0.4947 -0.2881
   93MOL0     C12473   7.329   2.686   5.986  0.5196  0.6844 -0.0482
   93MOL0     C12474   7.262   2.300   6.241  0.1714  0.5095 -0.3335
   93MOL0     C12475   7.144   2.352   6.311 -0.2998  0.4660  0.0831
   93MOL0     C12476   7.058   2.270   6.384  0.6677 -0.3481  0.3870
   93MOL0     C12477   7.095   2.131   6.391  0.1975 -0.7250 -0.0079
   93MOL0     O12478   7.021   2.051   6.466 -0.2645  0.1811 -0.3165
   93MOL0     C12479   7.054   1.917   6.490 -0.4018 -0.7750  0.2670
   93MOL0     C12480   7.013   1.822   6.391  0.1716 -0.4980 -0.1756
   93MOL0     C12481   7.064   1.677   6.409  0.2632 -0.3141 -0.4241
   93MOL0     C12482   7.041   1.623   6.549  0.3155 -0.0590  0.0093
   93MOL0     C12483   6.899   1.633   6.566  1.2570 -0.2111 -0.6411
   93MOL0     C12484   6.778   1.622   6.559  0.7445 -0.0077  0.2706
   93MOL0     C12485   7.214   2.089   6.331 -0.0494 -0.0001 -0.3049
   93MOL0     C12486   7.298   2.161   6.244  0.0633 -0.1865  0.0560
   93MOL0     C12487   7.395   2.083   6.159  0.3412 -0.8908  0.1377
   93MOL0     H12488   7.229   2.393   5.844 -0.6492 -0.7501  0.4212
   93MOL0     H12489   7.267   2.525   5.651 -4.4869 -1.3202  0.7246
   93MOL0     H12490   7.399   2.958   5.672  0.8036 -0.5298  2.5077
   93MOL0     H12491   7.536   2.856   5.648  0.5569  0.8945  0.3566
   93MOL0     H12492   7.358   2.932   5.424  0.8928  0.5281 -1.3139
   93MOL0     H12493   7.506   2.838   5.416  2.2009  2.2002 -1.2408
   93MOL0     H12494   7.640   3.031   5.498 -0.3960  1.2780  1.2351
   93MOL0     H12495   7.482   3.105   5.538 -3.2525 -2.7932 -0.2988
   93MOL0     H12496   7.614   3.058   5.265 -0.5000 -0.0751  0.5815
   93MOL0     H12497   7.436   3.067   5.282 -0.4364  0.7731 -0.0784
   93MOL0     H12498   7.451   3.306   5.360 -3.5175 -3.9854 -0.7674
   93MOL0     H12499   7.617   3.284   5.395  0.8982  1.8553 -0.6893
   93MOL0     H12500   7.679   3.278   5.163  1.0055 -0.0037  2.4755
   93MOL0     H12501   7.508   3.272   5.121 -1.0774 -3.1186  3.5541
   93MOL0     H12502   7.487   3.506   5.129  0.2223  1.2310 -0.6876
   93MOL0     H12503   7.659   3.498   5.085  1.4253  0.0712  2.5462
   93MOL0     H12504   7.595   3.674   5.251  0.0956 -0.1096  0.5625
   93MOL0     H12505   7.582   3.549   5.374 -3.3860  1.5536 -1.4458
   93MOL0     H12506   7.842   3.377   5.273 -1.2842 -1.0171  1.2553
   93MOL0     H12507   8.088   3.366   5.364  2.8883 -0.8733 -1.4430
   93MOL0     H12508   8.179   3.482   5.278  0.4030  1.4402  0.6227
   93MOL0     H12509   8.211   3.633   5.453  0.8826  0.2910 -0.3097
   93MOL0     H12510   8.103   3.533   5.575  2.6331 -4.0439  1.7189
   93MOL0     H12511   8.366   3.442   5.477 -1.0212 -4.8396  1.3536
   93MOL0     H12512   8.235   3.376   5.577 -0.5393  0.5052 -2.7626
   93MOL0     H12513   8.276   3.576   5.741  1.3231  1.0932  2.9530
   93MOL0     H12514   8.394   3.626   5.621  0.7747 -1.1573 -1.2229
   93MOL0     H12515   8.183   3.405   5.853  0.2779  0.5320  2.6135
   93MOL0     H12516   8.090   3.211   5.918 -0.1901 -1.5269  0.9548
   93MOL0     H12517   7.970   2.908   6.250 -0.6141 -0.6216 -0.5235
   93MOL0     H12518   7.835   2.715   6.281 -2.9909 -2.3173 -2.7071
   93MOL0     H12519   7.962   2.460   6.274  0.6901 -4.1444  0.9291
   93MOL0     H12520   7.799   2.502   6.331 -1.2241  1.5725 -0.7000
   93MOL0     H12521   7.802   2.273   6.363 -0.3933  3.8742  1.3320
   93MOL0     H12522   7.702   2.296   6.228  0.1890 -0.1228 -0.0630
   93MOL0     H12523   7.927   2.267   6.077  3.5641 -2.6490 -0.6310
   93MOL0     H12524   7.993   2.193   6.229 -0.9774 -2.0589 -0.8867
   93MOL0     H12525   7.763   2.077   6.094  0.3538  2.6076 -1.0446
   93MOL0     H12526   7.848   2.040   6.246 -0.0470  0.4042 -0.0376
   93MOL0     H12527   7.944   1.890   6.087  2.4883  0.1568  0.5644
   93MOL0     H12528   8.064   2.005   6.112  1.0502 -1.7297  0.0818
   93MOL0     H12529   7.883   1.967   5.866 -0.3487  2.0556 -0.9188
   93MOL0     H12530   7.966   2.129   5.897  1.1880  0.2944  0.0688
   93MOL0     H12531   8.131   1.878   5.901 -0.9162  0.0602  0.6524
   93MOL0     H12532   8.172   2.049   5.863 -2.3117  1.0717 -0.5286
   93MOL0     H12533   8.007   2.015   5.662 -1.3465  0.4994  2.9778
   93MOL0     H12534   8.156   1.917   5.641  0.0605 -0.0824  0.2470
   93MOL0     H12535   7.957   2.537   5.916 -0.5384 -0.3608 -0.4765
   93MOL0     H12536   8.058   2.758   5.844 -0.4203 -3.0949  0.1668
   93MOL0     H12537   8.483   3.039   5.927 -1.0667 -1.1833 -0.7140
   93MOL0     H12538   8.575   3.230   5.830 -0.0229 -0.5188 -2.3416
   93MOL0     H12539   7.390   2.858   5.875  1.6246 -0.1142 -1.5310
   93MOL0     H12540   7.350   2.735   6.080 -1.5353 -0.5007  1.0994
   93MOL0     H12541   7.128   2.459   6.315  0.3333  0.5414  0.9343
   93MOL0     H12542   6.977   2.320   6.437 -1.3360  0.1647 -2.8834
   93MOL0     H12543   6.999   1.894   6.583 -3.6821 -1.5019 -1.6867
   93MOL0     H12544   7.159   1.920   6.519 -0.6218 -2.0420  1.3217
   93MOL0     H12545   7.047   1.868   6.298 -2.2545  2.6769  0.3394
   93MOL0     H12546   6.903   1.818   6.395  0.1945 -1.5683 -0.1836
   93MOL0     H12547   7.171   1.660   6.392  0.1393 -1.6900  0.0403
   93MOL0     H12548   7.008   1.603   6.351  1.3204 -2.2618  0.8945
   93MOL0     H12549   7.069   1.518   6.561 -1.1613 -0.3234  1.5393
   93MOL0     H12550   7.092   1.677   6.629 -2.5239  0.9254  1.3052
   93MOL0     H12551   6.672   1.615   6.551  0.6874  1.6645 -1.0327
   93MOL0     H12552   7.254   1.991   6.355 -3.9330 -1.1678  2.4847
   93MOL0     H12553   7.376   2.110   6.055  0.5888 -0.3233  0.2361
   93MOL0     H12554   7.499   2.106   6.180  0.2441  0.8767 -1.0978
   93MOL0     H12555   7.385   1.975   6.171  2.1652 -0.7761  4.3345
   94MOL0     O12556  10.537   3.482   9.970  0.1606 -0.0524 -0.2510
   94MOL0     C12557  10.462   3.462  10.068 -1.5133 -1.1451  0.5610
   94MOL0     O12558  10.434   3.551  10.155  0.9900 -0.1316  0.4802
   94MOL0     C12559  10.507   3.675  10.154 -1.3020 -0.4531 -0.5515
   94MOL0     C12560  10.444   3.794  10.191  0.1167 -0.0612 -0.3432
   94MOL0     C12561  10.515   3.913  10.191 -0.9729 -0.4681 -0.7668
   94MOL0     C12562  10.652   3.926  10.169 -0.5825 -1.2377  0.4234
   94MOL0     O12563  10.737   4.036  10.173  0.2920  0.7387 -0.5446
   94MOL0     C12564  10.694   4.158  10.135 -0.5111 -0.2940  0.7021
   94MOL0     C12565  10.694   4.246  10.263  0.7017 -0.3225  0.0079
   94MOL0     C12566  10.669   4.396  10.233  0.0502  0.8536  1.2479
   94MOL0     C12567  10.656   4.461  10.373  0.1441 -0.3584 -0.3376
   94MOL0     C12568  10.650   4.619  10.383 -0.0390  0.1399 -1.1961
   94MOL0     C12569  10.518   4.682  10.346 -0.0469 -0.1500 -0.2880
   94MOL0     C12570  10.547   4.832  10.337  0.0614 -0.2317  0.9269
   94MOL0     C12571  10.426   4.912  10.285  0.5232  0.2913  0.0069
   94MOL0     N12572  10.434   4.919  10.135  0.2680  0.4338  0.3427
   94MOL0     C12573  10.492   5.020  10.053  0.1844  0.6096  0.2920
   94MOL0     C12574  10.453   4.995   9.927  0.4628  0.3221 -0.2190
   94MOL0     C12575  10.474   5.091   9.811 -0.6306 -0.7773 -0.6180
   94MOL0     C12576  10.361   5.180   9.788  0.7457  0.2352  0.4498
   94MOL0     C12577  10.231   5.111   9.760 -0.2273  0.1492  0.5812
   94MOL0     C12578  10.125   5.202   9.705  1.3180 -0.1594 -0.2857
   94MOL0     O12579  10.073   5.262   9.823 -0.2469  0.0992  1.1652
   94MOL0     C12580   9.989   5.368   9.801 -0.0777  0.7344  0.5464
   94MOL0     C12581   9.877   5.360   9.718 -0.6333  0.0888 -0.9249
   94MOL0     C12582   9.791   5.472   9.706  0.3315  0.3425 -0.1323
   94MOL0     C12583   9.815   5.593   9.776 -0.8566 -0.4025  0.1714
   94MOL0     C12584   9.740   5.716   9.751 -0.2572 -0.2589 -0.0538
   94MOL0     O12585   9.622   5.705   9.688 -0.3709 -0.1720  0.4626
   94MOL0     C12586   9.575   5.827   9.648 -0.0636 -0.2293  0.6418
   94MOL0     C12587   9.643   5.903   9.554 -0.0170 -0.5258 -0.7392
   94MOL0     C12588   9.595   6.035   9.507 -0.3305  0.0036  0.9909
   94MOL0     C12589   9.485   6.094   9.581 -0.2239  0.4744  0.3576
   94MOL0     O12590   9.469   6.227   9.554  0.9087 -0.1446 -0.8785
   94MOL0     C12591   9.337   6.276   9.594 -0.3880  0.9025 -0.6815
   94MOL0     C12592   9.306   6.342   9.730 -0.2330  0.0165 -0.0126
   94MOL0     C12593   9.311   6.492   9.726  0.2214 -0.3530  0.3147
   94MOL0     C12594   9.188   6.562   9.656 -0.1295 -0.8966  0.2599
   94MOL0     C12595   9.186   6.718   9.660 -0.7624 -0.3062  0.3491
   94MOL0     C12596   9.085   6.764   9.553  0.5544 -1.6351  1.0729
   94MOL0     C12597   9.089   6.919   9.539 -0.3777 -0.1919  0.2102
   94MOL0     C12598   8.959   6.968   9.475  0.2280  0.5192 -0.6405
   94MOL0    Cl12599   8.947   6.906   9.301  0.3124 -0.1975  0.0734
   94MOL0     C12600   9.420   6.019   9.688  0.2468 -1.1139  0.1090
   94MOL0     C12601   9.467   5.887   9.719  0.1479 -0.5522 -0.2810
   94MOL0     O12602   9.799   5.825   9.784  1.0400  0.2825 -0.0669
   94MOL0     C12603   9.922   5.592   9.868  0.3639 -0.4493  0.2715
   94MOL0     C12604  10.006   5.484   9.879  0.8995 -0.2864  0.5387
   94MOL0     N12605  10.391   4.867   9.930  0.0213  0.2350  0.6996
   94MOL0     N12606  10.371   4.829  10.050 -0.2284 -0.2029 -1.0953
   94MOL0     C12607  10.710   3.803  10.139 -0.5116 -0.9443  0.3584
   94MOL0     C12608  10.646   3.680  10.135 -0.1847  0.2576  0.6910
   94MOL0     C12609  10.384   3.344  10.069 -0.1424 -0.3453  0.5703
   94MOL0     C12610  10.262   3.349  10.152 -0.9630 -0.8562  1.0584
   94MOL0     C12611  10.182   3.237  10.159  0.1840  1.3819 -1.5958
   94MOL0     C12612  10.215   3.116  10.094 -0.2207 -0.1439  0.7206
   94MOL0     O12613  10.141   3.001  10.093  0.5996  0.3961 -0.5422
   94MOL0     C12614  10.211   2.880  10.103 -1.4786  0.0892 -0.2735
   94MOL0     C12615  10.107   2.778  10.146 -1.0639 -0.4829  0.7654
   94MOL0     C12616  10.006   2.762  10.036 -0.3130  0.0031  0.5230
   94MOL0     C12617   9.876   2.838  10.059 -0.4377 -0.2595  0.0637
   94MOL0     C12618   9.762   2.827   9.966  0.5919 -1.0220 -0.4128
   94MOL0     C12619   9.670   2.839   9.882 -0.3906 -0.1155 -0.5146
   94MOL0     C12620  10.329   3.117  10.013  0.4002  0.8700  0.3399
   94MOL0     C12621  10.412   3.230  10.003 -0.0129  0.2249 -0.3705
   94MOL0     C12622  10.531   3.220   9.903 -0.2570  1.2287 -0.4768
   94MOL0     H12623  10.338   3.799  10.217  1.1330 -0.9236  5.1303
   94MOL0     H12624  10.448   3.997  10.208 -1.1907 -0.5872 -1.0262
   94MOL0     H12625  10.764   4.204  10.065  1.1987 -1.4971  1.5423
   94MOL0     H12626  10.593   4.165  10.095 -0.1831  2.5675  0.1757
   94MOL0     H12627  10.788   4.226  10.314  0.4437  1.0939  1.0874
   94MOL0     H12628  10.615   4.203  10.326  0.5677 -0.9074 -0.5541
   94MOL0     H12629  10.577   4.403  10.175  0.1217 -0.5725  0.9265
   94MOL0     H12630  10.749   4.430  10.167 -0.6398 -1.3423 -0.8501
   94MOL0     H12631  10.567   4.425  10.423 -0.2402  0.6780 -0.2556
   94MOL0     H12632  10.742   4.417  10.425  0.1276 -2.9522 -2.2731
   94MOL0     H12633  10.679   4.649  10.484  0.4743 -0.4594 -1.1586
   94MOL0     H12634  10.730   4.656  10.317  0.8670 -2.5364 -1.7425
   94MOL0     H12635  10.505   4.654  10.241 -0.2720  2.4300 -0.9996
   94MOL0     H12636  10.434   4.657  10.412  2.6288 -1.6609  2.8731
   94MOL0     H12637  10.634   4.857  10.276  1.7415  0.2470  3.3809
   94MOL0     H12638  10.557   4.886  10.432  2.3321  1.1711 -0.0472
   94MOL0     H12639  10.337   4.865  10.327  0.3157  1.1911  0.6012
   94MOL0     H12640  10.431   5.014  10.324 -2.0742  0.1560  0.8523
   94MOL0     H12641  10.544   5.108  10.090 -0.0921  0.5594  0.8046
   94MOL0     H12642  10.559   5.154   9.839 -1.4395  0.8976 -1.7512
   94MOL0     H12643  10.493   5.032   9.721  5.9411 -0.1174 -0.1073
   94MOL0     H12644  10.342   5.252   9.868  1.4181  1.4915 -0.4746
   94MOL0     H12645  10.388   5.250   9.708 -0.1354  2.7244  2.2232
   94MOL0     H12646  10.203   5.069   9.857 -1.0318 -0.7564 -0.0383
   94MOL0     H12647  10.253   5.031   9.690  1.3077 -0.1122  1.3061
   94MOL0     H12648  10.050   5.141   9.654 -1.9991  2.2703  1.3222
   94MOL0     H12649  10.165   5.279   9.638 -0.5404  0.7102 -0.4596
   94MOL0     H12650   9.855   5.265   9.669  0.8503 -0.6808 -0.1804
   94MOL0     H12651   9.696   5.464   9.654 -0.9286 -1.7180  2.2886
   94MOL0     H12652   9.730   5.852   9.514 -0.4327  0.1759 -2.6352
   94MOL0     H12653   9.643   6.082   9.422 -2.3523 -2.6606 -1.8609
   94MOL0     H12654   9.299   6.345   9.518 -3.9006 -0.4137 -0.3125
   94MOL0     H12655   9.265   6.194   9.586  1.3706 -0.8760  0.7279
   94MOL0     H12656   9.215   6.300   9.774  0.0193  0.3672  0.8580
   94MOL0     H12657   9.392   6.317   9.793  0.1708  0.8935 -0.1942
   94MOL0     H12658   9.316   6.516   9.833 -0.9321  4.1586 -0.4331
   94MOL0     H12659   9.405   6.524   9.680  1.0862  0.2170  2.3869
   94MOL0     H12660   9.095   6.520   9.694  0.4951 -2.4794  0.1198
   94MOL0     H12661   9.200   6.534   9.551 -1.0487 -0.0704 -0.0798
   94MOL0     H12662   9.285   6.749   9.626 -0.5518 -2.8801 -1.7570
   94MOL0     H12663   9.173   6.772   9.754  2.9566  2.7111 -0.6048
   94MOL0     H12664   9.102   6.713   9.458 -2.6272  0.0395 -0.5593
   94MOL0     H12665   8.984   6.735   9.583 -0.6233 -1.3120 -2.1417
   94MOL0     H12666   9.176   6.950   9.480 -0.1624  0.4352  0.8465
   94MOL0     H12667   9.115   6.963   9.636 -2.2547 -0.7130  0.9963
   94MOL0     H12668   8.868   6.941   9.531  0.9031  1.2354  0.8444
   94MOL0     H12669   8.981   7.075   9.476  2.6122  0.0949  1.0019
   94MOL0     H12670   9.336   6.058   9.744  1.8080  1.4327  0.8644
   94MOL0     H12671   9.410   5.819   9.782 -1.7623  1.9716  0.9264
   94MOL0     H12672   9.959   5.677   9.924 -0.4681 -0.1438  0.3705
   94MOL0     H12673  10.095   5.488   9.941  1.0667 -2.7682  0.5567
   94MOL0     H12674  10.818   3.809  10.133 -0.6058  1.6501  0.2028
   94MOL0     H12675  10.712   3.594  10.124 -2.7773 -1.6353 -1.2748
   94MOL0     H12676  10.233   3.437  10.209 -0.6302 -2.4631  3.9087
   94MOL0     H12677  10.091   3.223  10.216  1.1400 -3.0174 -0.8036
   94MOL0     H12678  10.302   2.885  10.163 -0.6804 -1.5021 -1.2640
   94MOL0     H12679  10.243   2.834  10.009 -1.7432 -3.2234  1.0967
   94MOL0     H12680  10.062   2.814  10.239  1.2595  2.8195  0.7778
   94MOL0     H12681  10.157   2.682  10.163  0.6417  0.2860  0.2623
   94MOL0     H12682   9.991   2.656  10.014  1.4494  0.0476 -1.2266
   94MOL0     H12683  10.045   2.795   9.939 -1.4114  3.0461  1.0060
   94MOL0     H12684   9.832   2.821  10.158 -0.1695 -0.1623  0.2017
   94MOL0     H12685   9.908   2.941  10.042  1.4931 -0.6195  1.2794
   94MOL0     H12686   9.590   2.836   9.811  0.6993  1.0609 -1.8343
   94MOL0     H12687  10.355   3.035   9.947  3.0965  0.0642  2.2369
   94MOL0     H12688  10.624   3.239   9.957 -1.8292 -1.3851  3.6559
   94MOL0     H12689  10.550   3.117   9.869  1.8742  0.3297  2.9323
   94MOL0     H12690  10.522   3.284   9.815  3.4262 -0.4522 -2.3165
   95MOL0     O12691  10.508  11.519   9.143 -0.5829 -0.9284  0.6946
   95MOL0     C12692  10.591  11.432   9.133 -0.4907  0.5923 -0.0783
   95MOL0     O12693  10.695  11.406   9.224 -0.1854  0.0625  0.0459
   95MOL0     C12694  10.767  11.513   9.287 -0.2729 -0.0187 -0.0373
   95MOL0     C12695  10.753  11.646   9.241  0.8110  0.4706  0.0297
   95MOL0     C12696  10.805  11.754   9.322  0.7251 -0.0454 -0.9866
   95MOL0     C12697  10.879  11.734   9.442  0.3652  1.0907  0.2089
   95MOL0     O12698  10.934  11.824   9.530 -0.2829 -0.5064 -0.4217
   95MOL0     C12699  10.976  11.954   9.461  0.4397  0.1598 -0.6627
   95MOL0     C12700  11.048  12.027   9.573 -0.7133 -1.1626  0.1033
   95MOL0     C12701  10.944  12.094   9.672 -0.1154  0.1188  0.1626
   95MOL0     C12702  11.007  12.169   9.788  0.4777  0.5376 -1.4158
   95MOL0     C12703  10.897  12.240   9.865  0.1886  0.5214  0.1048
   95MOL0     C12704  10.958  12.337   9.974 -0.3192  0.0568  0.7356
   95MOL0     C12705  10.852  12.390  10.073 -0.3741  0.2567 -0.1301
   95MOL0     C12706  10.833  12.296  10.185 -1.0269 -0.5099 -0.5789
   95MOL0     N12707  10.754  12.356  10.300  0.1407 -0.9316  0.0238
   95MOL0     C12708  10.620  12.348  10.292  0.0487  0.8491  0.1165
   95MOL0     C12709  10.578  12.387  10.409  0.4502  0.2278  0.6569
   95MOL0     C12710  10.434  12.432  10.441 -0.5682 -0.0075  0.3441
   95MOL0     C12711  10.390  12.571  10.382 -0.8143  0.9407 -0.3774
   95MOL0     C12712  10.323  12.667  10.483 -0.7368 -0.5436  0.6665
   95MOL0     C12713  10.368  12.811  10.469  0.0769  1.0542  0.1909
   95MOL0     O12714  10.270  12.888  10.536  0.4197 -0.0827  0.8552
   95MOL0     C12715  10.304  13.017  10.547  0.0731 -0.5286  1.3574
   95MOL0     C12716  10.414  13.057  10.628  0.4787  0.8694  0.5192
   95MOL0     C12717  10.443  13.195  10.647  0.2841  0.8457 -0.1364
   95MOL0     C12718  10.365  13.292  10.579 -0.6699 -0.0392 -0.3171
   95MOL0     C12719  10.387  13.431  10.623  0.2499  0.2864  0.1171
   95MOL0     O12720  10.454  13.461  10.734  0.2461  1.1127  0.4545
   95MOL0     C12721  10.437  13.589  10.789  0.0870 -0.3375 -0.6006
   95MOL0     C12722  10.329  13.624  10.877 -0.6958  0.9407  0.4823
   95MOL0     C12723  10.306  13.755  10.923  0.7959 -0.7105 -0.2513
   95MOL0     C12724  10.375  13.866  10.875  0.1244 -0.7859 -0.0965
   95MOL0     O12725  10.357  14.001  10.905  0.4474 -0.3455 -0.7865
   95MOL0     C12726  10.226  14.021  10.939  0.2260  0.0734  0.0975
   95MOL0     C12727  10.207  14.175  10.966 -1.2265 -0.5967  0.2755
   95MOL0     C12728  10.283  14.206  11.093 -0.2764  0.4946  0.8283
   95MOL0     C12729  10.253  14.353  11.140  0.2349  0.5370 -0.0496
   95MOL0     C12730  10.342  14.469  11.094  0.1738 -0.7139  0.5408
   95MOL0     C12731  10.466  14.486  11.186  0.1779  0.5963  0.0025
   95MOL0     C12732  10.555  14.596  11.128  0.4438 -0.4479  0.1156
   95MOL0     C12733  10.574  14.704  11.235  0.2557  0.2582  0.8741
   95MOL0    Cl12734  10.433  14.806  11.251  0.0336 -0.3948 -0.2621
   95MOL0     C12735  10.473  13.837  10.786  0.5816  0.8614  0.2905
   95MOL0     C12736  10.508  13.702  10.749  0.4272  0.3870  0.2131
   95MOL0     O12737  10.327  13.510  10.549  0.6040  0.1616  0.6279
   95MOL0     C12738  10.265  13.251  10.499 -0.3218 -0.3477 -0.9725
   95MOL0     C12739  10.231  13.119  10.477 -0.3652 -0.2727  0.3124
   95MOL0     N12740  10.684  12.410  10.495 -0.0574  1.0568  0.2955
   95MOL0     N12741  10.794  12.391  10.430 -0.2793 -0.6211 -0.3770
   95MOL0     C12742  10.895  11.597   9.472 -0.2181 -0.6203 -0.0385
   95MOL0     C12743  10.845  11.492   9.398 -0.0100 -0.0339  0.1564
   95MOL0     C12744  10.558  11.320   9.034  0.8371 -0.2261  0.0155
   95MOL0     C12745  10.428  11.261   9.035  0.4814 -0.0923  0.8140
   95MOL0     C12746  10.382  11.190   8.920 -0.6667 -0.1729  0.2109
   95MOL0     C12747  10.476  11.150   8.811  0.0833 -0.1118  0.0324
   95MOL0     O12748  10.421  11.089   8.704 -0.0030 -0.3455  0.3553
   95MOL0     C12749  10.505  11.026   8.611 -1.0437 -0.3705  0.6988
   95MOL0     C12750  10.562  10.892   8.644 -0.3886  0.7337  0.0064
   95MOL0     C12751  10.614  10.807   8.522  0.2534  0.9358  0.0768
   95MOL0     C12752  10.744  10.871   8.452 -0.0708  0.9358 -0.5005
   95MOL0     C12753  10.688  10.984   8.364 -0.0962 -0.0063  0.1691
   95MOL0     C12754  10.642  11.062   8.284 -0.5259 -0.6034 -0.7589
   95MOL0     C12755  10.609  11.180   8.832 -0.3061 -0.2508  0.1553
   95MOL0     C12756  10.647  11.256   8.945 -1.1465  0.1577  0.7082
   95MOL0     C12757  10.801  11.287   8.968  0.2406 -0.0881  0.7193
   95MOL0     H12758  10.702  11.672   9.148  0.4894 -1.8998 -0.5185
   95MOL0     H12759  10.790  11.860   9.309 -0.3344  0.1073  1.0337
   95MOL0     H12760  11.045  11.929   9.380 -0.8073  1.1149 -2.0589
   95MOL0     H12761  10.889  12.009   9.425 -0.4899 -1.0728 -0.3704
   95MOL0     H12762  11.108  12.112   9.538 -1.2539 -0.6004  0.5317
   95MOL0     H12763  11.111  11.953   9.624  0.2946 -0.5169 -0.1703
   95MOL0     H12764  10.875  12.014   9.700  0.6326 -0.8965 -0.8033
   95MOL0     H12765  10.889  12.170   9.616  1.1335 -0.4517 -1.9439
   95MOL0     H12766  11.051  12.093   9.854 -0.6083  0.5063 -0.6983
   95MOL0     H12767  11.090  12.235   9.762  2.6203  0.2230  3.5191
   95MOL0     H12768  10.841  12.286   9.784  0.3144 -0.9890 -0.8799
   95MOL0     H12769  10.824  12.174   9.912  0.4151  1.0886  1.2906
   95MOL0     H12770  11.044  12.286  10.019 -1.4945 -0.9971  1.8963
   95MOL0     H12771  10.997  12.425   9.921  2.0783 -0.1228  2.0687
   95MOL0     H12772  10.754  12.401  10.026 -3.2272  0.8318  5.2506
   95MOL0     H12773  10.880  12.487  10.117 -2.6764  2.2725 -2.7016
   95MOL0     H12774  10.781  12.211  10.141  1.0495 -0.9070 -2.4199
   95MOL0     H12775  10.932  12.265  10.219 -0.1512  0.4177 -2.1603
   95MOL0     H12776  10.555  12.327  10.207  0.4901  2.8088 -0.7563
   95MOL0     H12777  10.371  12.366  10.379  0.7228  0.6454 -1.7843
   95MOL0     H12778  10.398  12.416  10.543  1.1024  0.2116  0.9837
   95MOL0     H12779  10.486  12.612  10.349  0.1891  0.2522  1.5345
   95MOL0     H12780  10.319  12.559  10.299  0.3663 -3.5165 -1.0342
   95MOL0     H12781  10.344  12.624  10.582  3.7302 -0.4825 -0.0526
   95MOL0     H12782  10.215  12.662  10.470 -0.6548  0.0416 -0.3295
   95MOL0     H12783  10.368  12.849  10.366  2.4593  3.2213  0.8886
   95MOL0     H12784  10.468  12.823  10.513 -0.4982  3.0484  1.0273
   95MOL0     H12785  10.465  12.979  10.684 -0.3316  2.8619  4.3500
   95MOL0     H12786  10.512  13.218  10.727 -3.0752 -0.4424  3.4911
   95MOL0     H12787  10.262  13.543  10.905 -2.7589  1.2324 -3.0118
   95MOL0     H12788  10.225  13.753  10.996  1.5969  2.1239  0.8815
   95MOL0     H12789  10.163  13.990  10.854  1.3265  1.7826 -1.4164
   95MOL0     H12790  10.184  13.972  11.027  1.5310 -2.2605 -0.4986
   95MOL0     H12791  10.256  14.218  10.878 -0.3864  0.0486  1.0462
   95MOL0     H12792  10.101  14.201  10.966 -1.2517 -0.2795 -2.8479
   95MOL0     H12793  10.249  14.132  11.166  0.7627 -1.2254 -0.3619
   95MOL0     H12794  10.389  14.180  11.085 -0.5601 -0.8635  1.2634
   95MOL0     H12795  10.266  14.344  11.249 -0.2833 -1.3539 -0.1100
   95MOL0     H12796  10.149  14.374  11.115  0.0405  0.9986  1.0687
   95MOL0     H12797  10.281  14.560  11.092 -0.8363 -1.3716 -1.8423
   95MOL0     H12798  10.382  14.454  10.993  2.0921  4.1051  0.2802
   95MOL0     H12799  10.432  14.493  11.290  1.3513 -1.5435  0.5841
   95MOL0     H12800  10.522  14.393  11.180 -1.3314 -0.2820 -2.0182
   95MOL0     H12801  10.524  14.643  11.034 -0.1549 -0.0812  0.4876
   95MOL0     H12802  10.658  14.561  11.118  0.8385  0.6480  0.2176
   95MOL0     H12803  10.602  14.652  11.327  0.3083  0.5811  1.0413
   95MOL0     H12804  10.667  14.760  11.221  0.1901  0.4098  1.0435
   95MOL0     H12805  10.531  13.923  10.753  2.9087  0.5163  3.1081
   95MOL0     H12806  10.574  13.686  10.664 -1.5515 -0.8542 -1.1526
   95MOL0     H12807  10.201  13.326  10.454 -0.5233  0.0257 -0.0861
   95MOL0     H12808  10.141  13.091  10.423 -0.6899 -3.1031  2.1032
   95MOL0     H12809  10.938  11.574   9.568 -2.9642 -0.4911  1.3388
   95MOL0     H12810  10.864  11.387   9.417  1.0978 -0.2859 -1.9813
   95MOL0     H12811  10.367  11.300   9.115 -0.2734 -0.2864  0.3458
   95MOL0     H12812  10.278  11.160   8.913 -0.6230 -1.4361  3.4741
   95MOL0     H12813  10.583  11.093   8.572 -1.6067 -0.0479  0.1077
   95MOL0     H12814  10.448  11.013   8.519 -0.9652  1.9106  0.2722
   95MOL0     H12815  10.482  10.840   8.696 -2.7612  2.4029 -1.7380
   95MOL0     H12816  10.643  10.910   8.715 -1.1779 -0.2344  1.1906
   95MOL0     H12817  10.534  10.802   8.448  0.1382  1.8787  0.1286
   95MOL0     H12818  10.636  10.705   8.557 -3.1867  0.7651  2.0990
   95MOL0     H12819  10.814  10.899   8.531 -2.1497 -0.1789  1.8928
   95MOL0     H12820  10.788  10.805   8.377 -0.5180  1.7991 -1.5551
   95MOL0     H12821  10.612  11.123   8.202  1.4625  2.1576  0.3967
   95MOL0     H12822  10.693  11.153   8.769  1.4537  0.3977  2.0839
   95MOL0     H12823  10.825  11.392   8.991  2.4616  0.5717 -3.5413
   95MOL0     H12824  10.830  11.219   9.048  1.0756 -0.7111 -0.0886
   95MOL0     H12825  10.861  11.264   8.879  1.0012 -0.1543  1.2336
   96MOL0     O12826   2.180   1.907  10.598  0.9034 -0.2836  0.1273
   96MOL0     C12827   2.205   1.955  10.487  0.2574 -0.1128 -0.3547
   96MOL0     O12828   2.298   1.895  10.408  0.2611 -0.8104 -1.1870
   96MOL0     C12829   2.413   1.837  10.458 -0.3569 -0.6144 -0.2407
   96MOL0     C12830   2.470   1.737  10.377  0.8262  1.1402 -0.2572
   96MOL0     C12831   2.578   1.661  10.425  0.1968  0.8356 -0.7175
   96MOL0     C12832   2.648   1.698  10.542  0.3012  0.2027  0.2036
   96MOL0     O12833   2.766   1.639  10.565 -0.0686 -0.4377 -0.2508
   96MOL0     C12834   2.794   1.637  10.712  1.0733  0.1013  0.6584
   96MOL0     C12835   2.900   1.523  10.738 -0.1315 -0.2311  0.2616
   96MOL0     C12836   3.042   1.551  10.687 -0.4948 -0.5668 -0.9732
   96MOL0     C12837   3.093   1.704  10.717 -0.0881  1.4701 -0.2220
   96MOL0     C12838   3.248   1.704  10.681  0.5701 -0.2264  0.3071
   96MOL0     C12839   3.300   1.842  10.697  0.8024  0.4011  0.9207
   96MOL0     C12840   3.447   1.854  10.662 -0.2528  0.2394  0.1341
   96MOL0     C12841   3.537   1.830  10.793 -0.0721  0.0421  0.2383
   96MOL0     N12842   3.673   1.872  10.766 -1.1072  0.0867 -0.1989
   96MOL0     C12843   3.726   1.993  10.809  1.3396 -0.0534 -0.4972
   96MOL0     C12844   3.855   2.007  10.769  0.7241 -1.1215  0.7817
   96MOL0     C12845   3.953   2.118  10.792  1.3745 -0.7071 -0.5045
   96MOL0     C12846   4.021   2.112  10.925 -0.6371 -0.7855 -0.9290
   96MOL0     C12847   4.112   2.227  10.957  0.4770 -0.1688 -0.0711
   96MOL0     C12848   4.194   2.208  11.082 -0.0715 -0.7823 -0.3072
   96MOL0     O12849   4.098   2.168  11.179 -0.2022  0.4817 -0.7542
   96MOL0     C12850   4.151   2.112  11.298  0.4428 -0.3851  0.5881
   96MOL0     C12851   4.267   2.036  11.311  0.3226  0.7816 -0.8515
   96MOL0     C12852   4.308   1.977  11.431 -1.3764 -0.2073  0.7744
   96MOL0     C12853   4.239   1.990  11.544 -1.0535 -0.7337  0.8854
   96MOL0     C12854   4.293   1.935  11.660  0.4480  0.5225 -0.1952
   96MOL0     O12855   4.226   1.957  11.770  0.0681  0.2895  0.2564
   96MOL0     C12856   4.264   1.882  11.884  0.0446  0.0004  1.0872
   96MOL0     C12857   4.384   1.919  11.954  0.1472 -0.9581  0.2964
   96MOL0     C12858   4.422   1.840  12.066 -0.1954  0.0316  0.5431
   96MOL0     C12859   4.342   1.736  12.111 -0.3196  0.2110 -0.9093
   96MOL0     O12860   4.384   1.680  12.234  0.5456 -0.1606 -0.4212
   96MOL0     C12861   4.320   1.754  12.343  0.2552  0.0492 -0.0791
   96MOL0     C12862   4.377   1.705  12.478  0.4640 -0.0815 -0.4532
   96MOL0     C12863   4.303   1.774  12.592 -0.0901  0.9345  0.0369
   96MOL0     C12864   4.403   1.767  12.717  0.6740 -1.3669  0.1127
   96MOL0     C12865   4.335   1.826  12.842  0.0502 -0.0331 -0.4456
   96MOL0     C12866   4.275   1.732  12.948 -1.1578 -0.4930  0.0383
   96MOL0     C12867   4.378   1.683  13.045  0.0256 -0.5528  0.1259
   96MOL0     C12868   4.329   1.562  13.134 -0.6886 -0.3507 -0.6428
   96MOL0    Cl12869   4.243   1.628  13.277 -0.3105 -0.4764 -0.3903
   96MOL0     C12870   4.215   1.714  12.055 -0.4866 -0.2930 -0.5736
   96MOL0     C12871   4.171   1.788  11.941 -0.1502 -0.0757  0.9084
   96MOL0     O12872   4.385   1.859  11.654 -0.1559  0.4516 -0.1759
   96MOL0     C12873   4.117   2.067  11.533  0.4751  0.3531 -0.0653
   96MOL0     C12874   4.074   2.122  11.415 -0.0499 -0.1385  1.3040
   96MOL0     N12875   3.882   1.881  10.704 -0.0940  0.5261  0.3065
   96MOL0     N12876   3.775   1.808  10.696  0.3660  0.1246  0.6274
   96MOL0     C12877   2.599   1.806  10.608  0.0610 -0.3002 -0.4554
   96MOL0     C12878   2.489   1.872  10.577 -0.3809 -0.3669 -0.3470
   96MOL0     C12879   2.133   2.067  10.436 -0.6267  0.1669  0.5706
   96MOL0     C12880   2.181   2.128  10.316  0.3514 -0.1841 -0.4221
   96MOL0     C12881   2.105   2.234  10.264 -1.0624  0.9342 -0.3630
   96MOL0     C12882   1.991   2.289  10.316  0.5079  0.3778 -0.0403
   96MOL0     O12883   1.924   2.396  10.268  0.3976  0.3601  0.2361
   96MOL0     C12884   1.889   2.389  10.127  0.2730  0.6663 -0.9104
   96MOL0     C12885   1.994   2.454  10.034 -0.4457 -0.4485  0.0318
   96MOL0     C12886   1.971   2.417   9.884  0.2459  0.4433  0.1185
   96MOL0     C12887   1.862   2.505   9.812 -0.6232  0.1540  0.4589
   96MOL0     C12888   1.920   2.634   9.797 -0.7349  0.3011  0.2731
   96MOL0     C12889   1.972   2.744   9.775 -0.0055  0.3598  0.1659
   96MOL0     C12890   1.943   2.231  10.431 -0.0233 -0.9262 -0.1875
   96MOL0     C12891   2.012   2.128  10.499  0.2205  0.3794  0.3642
   96MOL0     C12892   1.936   2.084  10.629  0.4891 -0.3819  0.3832
   96MOL0     H12893   2.435   1.703  10.279  4.4342 -3.0158 -0.3974
   96MOL0     H12894   2.609   1.580  10.360  2.3862  0.6021  0.5116
   96MOL0     H12895   2.828   1.734  10.750  1.1321  0.4327 -0.2312
   96MOL0     H12896   2.702   1.612  10.766 -0.0404  1.8631 -0.3249
   96MOL0     H12897   2.864   1.427  10.701 -1.3955  0.8123 -1.3571
   96MOL0     H12898   2.901   1.526  10.847 -0.7441  4.1077  0.3468
   96MOL0     H12899   3.047   1.526  10.580  3.0889  1.4308 -1.4163
   96MOL0     H12900   3.105   1.476  10.735  0.0382  0.0096 -0.7676
   96MOL0     H12901   3.035   1.767  10.649 -0.7365 -0.6455 -1.7608
   96MOL0     H12902   3.075   1.744  10.817 -0.7440  3.8030 -1.2094
   96MOL0     H12903   3.316   1.644  10.742  3.2169  1.7388 -0.5538
   96MOL0     H12904   3.263   1.679  10.576  1.6720 -1.8322  0.8113
   96MOL0     H12905   3.246   1.912  10.632 -1.2282 -0.7918  1.2504
   96MOL0     H12906   3.277   1.880  10.797 -2.9372  1.0907 -0.0657
   96MOL0     H12907   3.454   1.959  10.632 -0.6000  1.0036  2.4778
   96MOL0     H12908   3.490   1.791  10.584 -0.3679  0.2855  0.0341
   96MOL0     H12909   3.499   1.906  10.862  2.5695 -2.1108  4.5023
   96MOL0     H12910   3.520   1.729  10.832 -0.2203  0.2426  0.6982
   96MOL0     H12911   3.674   2.069  10.866  2.8625 -1.0347  2.3966
   96MOL0     H12912   4.017   2.113  10.704 -0.6524  0.9848 -2.2019
   96MOL0     H12913   3.909   2.218  10.779  0.1344 -1.0823  0.5644
   96MOL0     H12914   3.947   2.101  11.005  0.4574 -0.5897  0.1392
   96MOL0     H12915   4.084   2.023  10.934  1.8956  0.9269 -0.8009
   96MOL0     H12916   4.044   2.309  10.982  0.3634 -0.3577  0.2450
   96MOL0     H12917   4.182   2.255  10.877 -0.0473  1.8220  0.1128
   96MOL0     H12918   4.230   2.309  11.106  1.0333 -1.0902 -0.6259
   96MOL0     H12919   4.280   2.143  11.065  1.5885  1.6314 -1.7857
   96MOL0     H12920   4.323   2.019  11.219 -2.2796 -0.4062 -2.3348
   96MOL0     H12921   4.398   1.919  11.414 -3.2794 -2.5821 -2.0563
   96MOL0     H12922   4.442   2.002  11.913 -2.2394 -0.4992 -2.4685
   96MOL0     H12923   4.514   1.857  12.120 -1.2744  2.4633  1.8236
   96MOL0     H12924   4.342   1.860  12.331 -1.9195  0.4313 -1.4346
   96MOL0     H12925   4.212   1.738  12.336 -0.2772  3.0669  0.0234
   96MOL0     H12926   4.352   1.599  12.487 -0.5244  0.2300  0.7891
   96MOL0     H12927   4.486   1.710  12.476  0.6531 -1.5910  1.9838
   96MOL0     H12928   4.284   1.879  12.566 -0.8817  1.2485  1.7514
   96MOL0     H12929   4.201   1.739  12.610  0.6482 -0.9245  0.8830
   96MOL0     H12930   4.493   1.825  12.694  0.6031 -2.0785 -2.2734
   96MOL0     H12931   4.432   1.663  12.735  0.9605 -1.1615  0.8613
   96MOL0     H12932   4.252   1.888  12.809 -0.4839  0.5038  1.7764
   96MOL0     H12933   4.396   1.898  12.897 -0.7846 -0.1227  0.6366
   96MOL0     H12934   4.187   1.778  12.994 -0.2985 -0.7076  1.9897
   96MOL0     H12935   4.229   1.653  12.888 -0.7276 -2.0545  1.6884
   96MOL0     H12936   4.414   1.771  13.099 -1.1763 -0.3088  0.5564
   96MOL0     H12937   4.463   1.645  12.987  0.7481 -0.0755  0.8601
   96MOL0     H12938   4.266   1.490  13.081  2.2850 -2.1429 -1.9649
   96MOL0     H12939   4.407   1.487  13.150 -0.1928 -0.5216 -3.3225
   96MOL0     H12940   4.160   1.636  12.105 -0.2100  0.1844  0.5080
   96MOL0     H12941   4.079   1.766  11.888  0.0529 -1.7374  1.1935
   96MOL0     H12942   4.069   2.080  11.629  1.3059 -3.7226  1.0972
   96MOL0     H12943   3.981   2.178  11.422  0.5306  0.9763  0.4478
   96MOL0     H12944   2.650   1.854  10.691 -0.1850 -0.9044  0.0477
   96MOL0     H12945   2.454   1.955  10.638 -1.0128  0.6248 -1.9724
   96MOL0     H12946   2.273   2.095  10.268  0.7037  0.8577 -0.4956
   96MOL0     H12947   2.160   2.269  10.178 -1.4773 -0.5849 -1.2729
   96MOL0     H12948   1.798   2.450  10.121  0.4860  0.9579 -1.2056
   96MOL0     H12949   1.861   2.285  10.113  2.5187 -0.3049  1.0632
   96MOL0     H12950   2.088   2.405  10.062 -0.2652  0.0092  0.2494
   96MOL0     H12951   1.992   2.561  10.058 -2.2884 -0.7625  1.5091
   96MOL0     H12952   1.933   2.314   9.879 -0.9957  0.9199 -2.5169
   96MOL0     H12953   2.065   2.416   9.828  1.7730  2.7523  2.3907
   96MOL0     H12954   1.846   2.451   9.718  1.3095 -3.7396  2.1840
   96MOL0     H12955   1.765   2.522   9.859 -0.2708  3.2141  0.3299
   96MOL0     H12956   2.014   2.841   9.759 -0.7453  0.5003 -1.0055
   96MOL0     H12957   1.846   2.266  10.466 -1.0056 -1.2923 -2.3657
   96MOL0     H12958   1.936   2.175  10.690 -0.8297 -1.4191  2.0114
   96MOL0     H12959   1.837   2.049  10.600  1.4802 -0.8977 -2.7155
   96MOL0     H12960   1.988   2.005  10.684  0.8182 -0.1226  0.4509
   97MOL0     O12961   7.566   5.522   8.031  0.5145 -0.5677  0.3086
   97MOL0     C12962   7.620   5.606   8.100 -0.4113 -0.1875  0.2947
   97MOL0     O12963   7.559   5.703   8.168 -0.1008  0.1372 -0.2851
   97MOL0     C12964   7.431   5.743   8.135 -0.0225  0.6944  0.1434
   97MOL0     C12965   7.315   5.679   8.187  0.3215  0.1380 -0.3687
   97MOL0     C12966   7.188   5.711   8.136  0.2270  0.2533 -0.4726
   97MOL0     C12967   7.177   5.806   8.040  0.1554 -0.5809  0.2304
   97MOL0     O12968   7.050   5.828   7.990  0.1078 -0.1828 -0.4859
   97MOL0     C12969   6.996   5.965   8.009 -0.3340  0.4232  0.5571
   97MOL0     C12970   6.859   5.990   7.965  0.4349  0.5890  0.4091
   97MOL0     C12971   6.836   6.143   7.982  0.7143 -0.0389  0.3840
   97MOL0     C12972   6.822   6.179   8.137  0.0933 -0.0164  0.4185
   97MOL0     C12973   6.700   6.113   8.205  0.4389 -0.0760  0.0820
   97MOL0     C12974   6.664   6.186   8.332  0.1727  0.4349 -0.3372
   97MOL0     C12975   6.559   6.115   8.425  0.7342  1.2287  0.3238
   97MOL0     C12976   6.482   6.220   8.506 -0.7302  0.7729  0.1761
   97MOL0     N12977   6.574   6.277   8.608  0.0900 -0.8279  0.0006
   97MOL0     C12978   6.641   6.205   8.714  0.2634 -0.5550 -0.0235
   97MOL0     C12979   6.716   6.296   8.781 -0.2285 -0.8537  0.5523
   97MOL0     C12980   6.795   6.264   8.900 -0.4941 -1.3480 -0.2480
   97MOL0     C12981   6.938   6.307   8.885 -0.1291 -0.7005  0.1431
   97MOL0     C12982   7.007   6.276   8.751 -0.2705  0.1558 -0.0741
   97MOL0     C12983   7.157   6.292   8.776  0.1642 -0.3154  0.5734
   97MOL0     O12984   7.202   6.427   8.785  0.1785  0.3647 -0.5455
   97MOL0     C12985   7.332   6.457   8.771 -0.0791  0.2703  0.0195
   97MOL0     C12986   7.428   6.355   8.733  0.8566  0.4500  0.1681
   97MOL0     C12987   7.555   6.400   8.715 -0.2656 -0.5240 -0.1827
   97MOL0     C12988   7.592   6.537   8.736  0.2330  0.0735 -0.4759
   97MOL0     C12989   7.732   6.572   8.723 -0.4063  1.2739  0.4542
   97MOL0     O12990   7.809   6.467   8.671 -0.0646  0.4099 -0.6724
   97MOL0     C12991   7.935   6.489   8.616 -0.6425  0.7690 -0.2263
   97MOL0     C12992   8.041   6.413   8.676 -0.6872 -0.9315 -0.3122
   97MOL0     C12993   8.169   6.421   8.626  0.5434  0.1488 -0.6054
   97MOL0     C12994   8.203   6.509   8.525 -0.0229  0.0324 -0.1405
   97MOL0     O12995   8.323   6.527   8.471 -0.1375 -0.4993  0.3928
   97MOL0     C12996   8.409   6.420   8.432 -0.0618  0.6119 -0.9136
   97MOL0     C12997   8.401   6.404   8.283 -0.2298 -0.3634  0.6508
   97MOL0     C12998   8.408   6.539   8.199 -0.1557  0.3324 -1.3142
   97MOL0     C12999   8.403   6.544   8.043 -0.2886 -0.3523 -0.0110
   97MOL0     C13000   8.255   6.541   7.994 -0.0663  0.2364 -0.1905
   97MOL0     C13001   8.243   6.497   7.846  0.2555  0.5829  0.0989
   97MOL0     C13002   8.113   6.547   7.776 -0.1812  0.4837 -0.5959
   97MOL0     C13003   8.082   6.454   7.661  0.6608 -0.3788 -0.6955
   97MOL0    Cl13004   8.212   6.459   7.533  0.0609 -0.0076  0.2335
   97MOL0     C13005   8.103   6.577   8.453  0.0450 -0.7946 -0.2830
   97MOL0     C13006   7.975   6.570   8.507  0.3755 -0.0152  0.1979
   97MOL0     O13007   7.769   6.679   8.739 -0.3181 -0.4259  0.1235
   97MOL0     C13008   7.499   6.629   8.759  0.5278  0.5044  0.1498
   97MOL0     C13009   7.373   6.590   8.785 -0.0950 -0.0053  1.0779
   97MOL0     N13010   6.700   6.417   8.712 -0.0347 -0.5035  0.2316
   97MOL0     N13011   6.623   6.405   8.610 -0.2041  1.0045 -0.1972
   97MOL0     C13012   7.287   5.858   7.969  0.5611 -0.6725 -0.3138
   97MOL0     C13013   7.410   5.821   8.015 -0.0458 -1.1082 -0.8264
   97MOL0     C13014   7.761   5.610   8.082 -0.2003  0.1651 -0.4795
   97MOL0     C13015   7.801   5.735   8.044  0.5909  0.3376  0.4619
   97MOL0     C13016   7.932   5.759   8.016 -0.4925 -0.7853  0.5915
   97MOL0     C13017   8.027   5.658   8.037  1.1403  0.9193  0.8894
   97MOL0     O13018   8.157   5.684   8.037  0.4150 -0.1914 -0.0406
   97MOL0     C13019   8.226   5.708   7.917 -0.1207 -0.9445 -0.7907
   97MOL0     C13020   8.356   5.634   7.907 -0.1122  0.0173 -0.5630
   97MOL0     C13021   8.336   5.485   7.925 -0.3070  0.0258  0.0358
   97MOL0     C13022   8.478   5.407   7.909 -0.1136 -0.6331 -0.7090
   97MOL0     C13023   8.465   5.274   7.963 -0.6488  0.0387 -0.0080
   97MOL0     C13024   8.464   5.160   8.010  0.6528  0.1012  0.0794
   97MOL0     C13025   7.987   5.533   8.072  0.2236  0.3107  0.2448
   97MOL0     C13026   7.856   5.507   8.101 -0.4963  0.3549 -0.4388
   97MOL0     C13027   7.820   5.379   8.156  0.3069  0.6538  0.1224
   97MOL0     H13028   7.330   5.596   8.256  2.1704 -0.0921 -1.0052
   97MOL0     H13029   7.101   5.661   8.177  1.2622 -2.3939 -1.2582
   97MOL0     H13030   7.008   5.980   8.116 -2.2069  0.7213  0.7583
   97MOL0     H13031   7.069   6.027   7.956  0.2332 -0.1666  0.6375
   97MOL0     H13032   6.791   5.921   8.018  0.9787  0.0681  0.4414
   97MOL0     H13033   6.854   5.959   7.861  0.3307 -1.2702  0.9259
   97MOL0     H13034   6.736   6.155   7.940  0.1226 -1.5655  1.2680
   97MOL0     H13035   6.906   6.202   7.921 -0.3076  0.0962 -0.6897
   97MOL0     H13036   6.918   6.171   8.188  0.7981  2.0580 -0.4567
   97MOL0     H13037   6.801   6.286   8.129 -0.5814 -0.0658  1.3336
   97MOL0     H13038   6.611   6.126   8.142  0.2635  1.3508  0.6047
   97MOL0     H13039   6.729   6.009   8.226  2.1823  0.8096  2.4716
   97MOL0     H13040   6.750   6.210   8.394  0.6754  0.9233 -1.1953
   97MOL0     H13041   6.630   6.283   8.295 -0.8391  0.2569  0.0791
   97MOL0     H13042   6.611   6.043   8.489 -3.0399  1.6667  4.3889
   97MOL0     H13043   6.482   6.060   8.371 -1.6191  3.9156  0.7473
   97MOL0     H13044   6.435   6.301   8.450 -0.1839  1.0515  0.1157
   97MOL0     H13045   6.403   6.169   8.561 -0.3342  2.6087  2.6451
   97MOL0     H13046   6.624   6.099   8.730 -0.1840 -0.8165 -2.0376
   97MOL0     H13047   6.745   6.318   8.981 -1.0411 -1.4445 -0.5183
   97MOL0     H13048   6.799   6.157   8.924 -0.2170 -1.2860 -0.0147
   97MOL0     H13049   6.940   6.416   8.892 -1.4379 -0.6144 -0.5000
   97MOL0     H13050   6.981   6.273   8.979  1.6804 -1.7174 -0.9958
   97MOL0     H13051   6.974   6.352   8.679 -1.5884 -0.6941 -0.4082
   97MOL0     H13052   6.971   6.185   8.703 -0.0022  0.2298 -0.4257
   97MOL0     H13053   7.219   6.251   8.696 -0.3247 -3.6262  1.7296
   97MOL0     H13054   7.169   6.238   8.871 -0.9887  0.6330  1.2835
   97MOL0     H13055   7.413   6.247   8.727  1.9178  0.1273  2.3207
   97MOL0     H13056   7.625   6.321   8.690 -1.5774 -0.6196 -4.3430
   97MOL0     H13057   8.017   6.343   8.756  0.8042 -1.1152  0.0134
   97MOL0     H13058   8.246   6.363   8.676  1.2533  2.0139  0.5747
   97MOL0     H13059   8.510   6.443   8.467 -0.6066  0.7408  0.6700
   97MOL0     H13060   8.375   6.328   8.482  0.5461  1.0890  0.4335
   97MOL0     H13061   8.485   6.337   8.264 -0.7818 -1.1891  1.0118
   97MOL0     H13062   8.313   6.346   8.252  0.4193 -1.1312  0.2144
   97MOL0     H13063   8.343   6.609   8.253 -0.2324 -2.0241  1.9448
   97MOL0     H13064   8.510   6.578   8.214 -0.0985 -0.1597 -0.3231
   97MOL0     H13065   8.448   6.454   8.001 -0.6838  0.0333 -1.3151
   97MOL0     H13066   8.443   6.638   8.005 -1.4684  2.1308  4.2197
   97MOL0     H13067   8.208   6.636   8.020 -0.1125 -0.2764  1.7758
   97MOL0     H13068   8.207   6.469   8.060  0.7895 -1.0869 -0.9710
   97MOL0     H13069   8.326   6.541   7.790 -1.6932  3.6578 -0.5357
   97MOL0     H13070   8.234   6.388   7.844 -0.9679  0.6783 -1.4876
   97MOL0     H13071   8.124   6.650   7.740 -0.8857  0.5893 -0.5151
   97MOL0     H13072   8.037   6.554   7.854 -1.6471  0.1491 -1.9461
   97MOL0     H13073   8.066   6.350   7.691 -0.8781  0.4697  1.7306
   97MOL0     H13074   7.993   6.503   7.621 -0.6214 -0.2127  2.1145
   97MOL0     H13075   8.119   6.626   8.357 -1.2802 -1.5532 -0.9127
   97MOL0     H13076   7.879   6.601   8.467 -0.8157 -2.9721  0.5220
   97MOL0     H13077   7.531   6.732   8.766  2.2029 -0.0021  0.4021
   97MOL0     H13078   7.300   6.662   8.819 -0.5656 -1.6445  3.7950
   97MOL0     H13079   7.282   5.914   7.876  2.9536 -1.6311 -1.0823
   97MOL0     H13080   7.499   5.843   7.957  1.4392 -3.3147  0.4768
   97MOL0     H13081   7.740   5.824   8.035  2.9181  2.3992  3.0663
   97MOL0     H13082   7.989   5.850   7.995 -2.5509  0.8515  1.7401
   97MOL0     H13083   8.249   5.815   7.913  1.9331 -1.3397 -0.7494
   97MOL0     H13084   8.166   5.681   7.830  0.7903  0.2628 -1.8530
   97MOL0     H13085   8.428   5.669   7.981 -0.5595  0.4845 -0.3455
   97MOL0     H13086   8.408   5.644   7.811  0.2676 -3.2601 -0.8178
   97MOL0     H13087   8.259   5.455   7.853 -0.0791 -1.2512  0.3026
   97MOL0     H13088   8.317   5.472   8.032 -1.6382 -2.4531 -0.4229
   97MOL0     H13089   8.510   5.395   7.805 -2.5471  1.3662 -1.7885
   97MOL0     H13090   8.554   5.465   7.964 -1.5474  2.0180 -1.3468
   97MOL0     H13091   8.464   5.065   8.059  0.4221 -0.6420 -1.3081
   97MOL0     H13092   8.065   5.457   8.084 -0.6221 -0.2989  2.3947
   97MOL0     H13093   7.775   5.315   8.079  0.6175 -1.0756  1.3115
   97MOL0     H13094   7.907   5.327   8.198 -0.5615  1.4218  3.1257
   97MOL0     H13095   7.759   5.386   8.247  1.0137 -0.9832  0.7693
   98MOL0     O13096   2.934   7.543   5.492  1.4343  0.6764  0.1242
   98MOL0     C13097   2.942   7.572   5.376 -0.3917 -0.4110  0.0643
   98MOL0     O13098   3.035   7.519   5.283  0.8922  0.0841 -0.6257
   98MOL0     C13099   3.131   7.424   5.302 -0.0105 -0.3829  0.7008
   98MOL0     C13100   3.144   7.338   5.411 -0.1578 -0.1343 -0.0742
   98MOL0     C13101   3.253   7.254   5.432 -1.6124 -0.0815  0.0615
   98MOL0     C13102   3.361   7.248   5.335  0.4439  0.8942 -0.5413
   98MOL0     O13103   3.468   7.171   5.335 -0.1082  0.3079 -0.0380
   98MOL0     C13104   3.474   7.073   5.442 -0.3811  0.5356 -0.0150
   98MOL0     C13105   3.612   6.990   5.437  0.2307 -0.1807 -0.0693
   98MOL0     C13106   3.626   6.872   5.531  0.8834 -0.2000  0.4682
   98MOL0     C13107   3.765   6.806   5.516  0.4069  0.0484  0.0917
   98MOL0     C13108   3.766   6.681   5.600 -1.0901 -1.9216 -0.9554
   98MOL0     C13109   3.899   6.604   5.595 -0.3377 -1.1177  0.0253
   98MOL0     C13110   3.887   6.474   5.663 -0.2613 -0.0542  0.2372
   98MOL0     C13111   4.019   6.411   5.644 -0.7408 -0.1508 -0.9795
   98MOL0     N13112   4.026   6.279   5.710 -0.4912 -0.4385  0.5727
   98MOL0     C13113   3.929   6.177   5.683  0.1697 -0.2882 -0.5553
   98MOL0     C13114   3.975   6.056   5.732  0.4513 -1.2060 -0.3121
   98MOL0     C13115   3.916   5.924   5.704 -0.0220  0.3559  0.4043
   98MOL0     C13116   3.843   5.856   5.826  0.6519  0.1613 -0.2403
   98MOL0     C13117   3.752   5.755   5.773  0.3040 -0.4729  0.4014
   98MOL0     C13118   3.680   5.663   5.870 -0.4043 -0.3708 -0.3637
   98MOL0     O13119   3.639   5.539   5.822  0.0967  0.2294 -1.0018
   98MOL0     C13120   3.732   5.430   5.804 -0.8279  0.1424  0.7639
   98MOL0     C13121   3.697   5.318   5.735 -0.1630  0.4669 -0.4406
   98MOL0     C13122   3.784   5.204   5.710 -0.0447  0.5132 -0.6141
   98MOL0     C13123   3.915   5.209   5.759  0.1559  1.0840  0.4622
   98MOL0     C13124   4.009   5.099   5.735 -0.3409 -0.2957  0.4922
   98MOL0     O13125   3.981   5.002   5.643  0.2455  0.3068 -0.6292
   98MOL0     C13126   4.043   4.883   5.653  0.3555  0.5441 -0.4739
   98MOL0     C13127   4.023   4.805   5.767  0.5620 -0.3948  0.2892
   98MOL0     C13128   4.070   4.676   5.777  0.0455 -0.3142  0.5590
   98MOL0     C13129   4.140   4.623   5.662  0.1782  0.3276  0.2063
   98MOL0     O13130   4.156   4.487   5.663  0.3078 -0.0038 -0.1206
   98MOL0     C13131   4.293   4.445   5.669  0.1343 -0.7335  0.2108
   98MOL0     C13132   4.314   4.371   5.802 -0.1854  0.6358 -0.0258
   98MOL0     C13133   4.448   4.299   5.802  0.3135 -0.7074  0.4404
   98MOL0     C13134   4.563   4.390   5.829  0.7558  0.2006  0.0504
   98MOL0     C13135   4.705   4.330   5.800 -0.3203 -0.4968 -0.5109
   98MOL0     C13136   4.727   4.249   5.669 -0.3583 -0.0506  0.7837
   98MOL0     C13137   4.856   4.170   5.677  0.6168  0.3824  0.2846
   98MOL0     C13138   4.898   4.095   5.550  0.3921 -0.0684 -0.0886
   98MOL0    Cl13139   4.773   3.991   5.495  0.7506  0.1785  0.4056
   98MOL0     C13140   4.168   4.700   5.548  0.1445  0.8070  0.3782
   98MOL0     C13141   4.116   4.829   5.551 -0.8714 -0.5900 -0.2197
   98MOL0     O13142   4.098   5.102   5.820 -0.1529 -0.4371  0.2864
   98MOL0     C13143   3.951   5.324   5.836 -0.5875  1.2333  0.5048
   98MOL0     C13144   3.866   5.435   5.852 -0.6442 -0.4782 -0.3415
   98MOL0     N13145   4.093   6.090   5.792  0.3354 -0.3276 -0.5388
   98MOL0     N13146   4.131   6.215   5.774  0.1856 -0.3337  0.8145
   98MOL0     C13147   3.341   7.330   5.216 -1.2850 -0.0714 -1.5272
   98MOL0     C13148   3.233   7.420   5.213  0.2672  0.0329  0.9337
   98MOL0     C13149   2.874   7.688   5.330  0.0666 -0.5905 -0.4606
   98MOL0     C13150   2.950   7.798   5.286 -0.1506  0.2763  0.6155
   98MOL0     C13151   2.885   7.899   5.219  0.4781 -0.1167  0.1705
   98MOL0     C13152   2.745   7.892   5.197  0.2141 -0.6364  0.2875
   98MOL0     O13153   2.672   7.990   5.126  0.4378 -0.2895 -0.1946
   98MOL0     C13154   2.727   8.043   5.001 -0.7460  0.3636  1.0024
   98MOL0     C13155   2.609   8.073   4.911  0.7758 -0.4575  0.3466
   98MOL0     C13156   2.628   8.155   4.780  0.5967  0.2415  0.6702
   98MOL0     C13157   2.672   8.068   4.660  0.6700 -0.5798  0.0058
   98MOL0     C13158   2.669   8.159   4.543 -0.4486  0.8414 -0.8569
   98MOL0     C13159   2.662   8.229   4.444  0.5120  0.7274 -0.0425
   98MOL0     C13160   2.677   7.779   5.247 -0.5714 -0.5369  0.7487
   98MOL0     C13161   2.737   7.683   5.311  0.1192  0.1022  0.4001
   98MOL0     C13162   2.652   7.570   5.366  0.5056 -0.1602 -0.2718
   98MOL0     H13163   3.062   7.342   5.482 -1.1289  1.0573 -1.2140
   98MOL0     H13164   3.260   7.211   5.531 -0.8430  2.7264  1.3479
   98MOL0     H13165   3.470   7.123   5.538 -3.0591  3.4876 -1.5070
   98MOL0     H13166   3.391   7.002   5.444  0.0902 -0.0412  2.6955
   98MOL0     H13167   3.700   7.052   5.456  0.8803  0.0908 -3.2515
   98MOL0     H13168   3.623   6.946   5.337  1.9690  0.0483 -0.0136
   98MOL0     H13169   3.552   6.796   5.505  1.9506 -1.8168  1.8791
   98MOL0     H13170   3.601   6.904   5.633 -5.2378  0.4200 -0.8367
   98MOL0     H13171   3.793   6.794   5.412  0.9975  1.4084  0.0766
   98MOL0     H13172   3.841   6.871   5.559  0.2399  0.2726  0.0499
   98MOL0     H13173   3.747   6.722   5.700 -0.4879  1.8142 -2.2458
   98MOL0     H13174   3.680   6.621   5.568 -1.7003 -1.6149  0.0699
   98MOL0     H13175   3.912   6.578   5.490  1.7398  1.2570 -0.4028
   98MOL0     H13176   3.978   6.674   5.623 -1.6457 -0.0592  1.3001
   98MOL0     H13177   3.814   6.413   5.609 -0.2888  0.0420  0.1650
   98MOL0     H13178   3.866   6.479   5.771  1.0850 -0.5370  0.5331
   98MOL0     H13179   4.038   6.386   5.539 -0.8623  1.1658 -1.3256
   98MOL0     H13180   4.099   6.473   5.686 -1.7842  2.3864 -2.5155
   98MOL0     H13181   3.835   6.183   5.629  0.4442  2.6863 -0.8464
   98MOL0     H13182   3.846   5.937   5.620 -0.3205 -3.0079 -0.0308
   98MOL0     H13183   4.001   5.867   5.666 -1.2217 -0.5102 -1.1224
   98MOL0     H13184   3.917   5.817   5.897  2.7933  3.5707 -0.3697
   98MOL0     H13185   3.790   5.935   5.880 -0.0822  0.3957 -1.2732
   98MOL0     H13186   3.824   5.701   5.710  0.5122  2.3084 -1.9353
   98MOL0     H13187   3.682   5.802   5.704 -2.9593 -2.1582  2.3426
   98MOL0     H13188   3.589   5.705   5.914 -0.1365 -0.3363  0.1523
   98MOL0     H13189   3.735   5.645   5.963 -2.9742  0.2834  1.3893
   98MOL0     H13190   3.597   5.294   5.702 -0.9604  3.4828 -0.4868
   98MOL0     H13191   3.761   5.124   5.641 -0.1055  0.8991 -1.0486
   98MOL0     H13192   3.963   4.835   5.853 -1.0790  1.2820 -1.3446
   98MOL0     H13193   4.073   4.620   5.870  1.3688  1.1030  1.4006
   98MOL0     H13194   4.313   4.381   5.582 -2.2180 -1.2348 -0.0499
   98MOL0     H13195   4.361   4.530   5.678 -0.4427 -0.3631  1.2137
   98MOL0     H13196   4.317   4.451   5.876 -1.4452 -1.0704  2.0021
   98MOL0     H13197   4.237   4.302   5.839  1.5856 -0.4288  1.8848
   98MOL0     H13198   4.460   4.222   5.879  2.8612 -0.1059  0.7335
   98MOL0     H13199   4.452   4.243   5.707 -1.3507 -1.0071  0.5083
   98MOL0     H13200   4.559   4.428   5.931  0.5408 -0.1325  0.1693
   98MOL0     H13201   4.558   4.484   5.773 -2.2849 -0.2958 -0.7234
   98MOL0     H13202   4.723   4.253   5.876 -0.1788 -0.7845 -0.8300
   98MOL0     H13203   4.779   4.411   5.800 -1.6818  0.8123 -1.6930
   98MOL0     H13204   4.653   4.169   5.654  0.4362 -0.8724  1.1918
   98MOL0     H13205   4.734   4.326   5.592  5.7503 -0.5119  0.4470
   98MOL0     H13206   4.833   4.089   5.747  5.2537 -1.7069 -0.2288
   98MOL0     H13207   4.944   4.225   5.712 -0.5662  1.7399  1.2280
   98MOL0     H13208   4.919   4.169   5.472  0.8926  1.2883  1.2786
   98MOL0     H13209   4.987   4.034   5.567  0.9106  0.5434 -0.5575
   98MOL0     H13210   4.217   4.655   5.462  0.0799 -0.9819  1.2323
   98MOL0     H13211   4.142   4.876   5.457 -3.5761  3.4645  0.8392
   98MOL0     H13212   4.055   5.323   5.866  0.0442 -3.4050 -1.0096
   98MOL0     H13213   3.906   5.515   5.913 -4.2484 -0.2168  1.9846
   98MOL0     H13214   3.409   7.347   5.134  3.2308 -5.6318  0.4276
   98MOL0     H13215   3.218   7.495   5.136 -3.7552  1.0861  2.5266
   98MOL0     H13216   3.056   7.809   5.304  0.8810 -0.6190 -3.7314
   98MOL0     H13217   2.953   7.979   5.191  1.3531 -0.7703  0.3424
   98MOL0     H13218   2.798   7.967   4.964 -0.7126  0.7324  0.2989
   98MOL0     H13219   2.791   8.130   5.019  0.1346  0.5104 -2.1668
   98MOL0     H13220   2.542   8.127   4.978  0.6824  0.8056 -0.7169
   98MOL0     H13221   2.555   7.979   4.892 -1.0924  0.5276  0.6455
   98MOL0     H13222   2.691   8.240   4.806 -2.3350  2.6806  0.3253
   98MOL0     H13223   2.532   8.194   4.744  2.6713  4.2197 -1.2405
   98MOL0     H13224   2.774   8.033   4.678  2.3628  3.1981 -1.1984
   98MOL0     H13225   2.613   7.977   4.646 -1.7972  1.0759 -1.2473
   98MOL0     H13226   2.659   8.290   4.356  0.5258  0.7660 -0.0161
   98MOL0     H13227   2.569   7.772   5.253 -0.4107 -2.6576  2.2621
   98MOL0     H13228   2.545   7.593   5.370 -0.0919 -0.9462 -5.2656
   98MOL0     H13229   2.656   7.485   5.296 -0.3589 -0.9275  0.5742
   98MOL0     H13230   2.685   7.550   5.468 -0.6072  0.1463  0.1582
   99MOL0     O13231  10.563   2.097   8.061  0.1820 -0.3158  0.0083
   99MOL0     C13232  10.570   2.198   7.991  0.0515  0.1701  0.9864
   99MOL0     O13233  10.613   2.200   7.861  0.1220  0.1394 -0.7032
   99MOL0     C13234  10.688   2.092   7.814  0.6979 -0.0292  0.1023
   99MOL0     C13235  10.664   2.043   7.683  0.1139 -0.1108  0.6492
   99MOL0     C13236  10.754   1.958   7.625  0.4815  0.4026  0.1600
   99MOL0     C13237  10.860   1.909   7.706 -0.5701 -0.2413  0.4937
   99MOL0     O13238  10.940   1.811   7.648 -0.0347 -0.2882  0.0669
   99MOL0     C13239  10.882   1.741   7.532  0.0503 -0.3112 -0.0948
   99MOL0     C13240  10.985   1.619   7.512  0.0585  0.4352 -0.4874
   99MOL0     C13241  11.002   1.548   7.637 -0.4258  1.0633 -0.7329
   99MOL0     C13242  11.120   1.446   7.632 -0.2037  0.5202  0.1609
   99MOL0     C13243  11.137   1.374   7.763 -0.1451  0.6049 -0.1020
   99MOL0     C13244  11.254   1.273   7.774 -1.5916 -0.4974  0.8944
   99MOL0     C13245  11.222   1.147   7.857 -0.0492  0.4436 -0.6600
   99MOL0     C13246  11.343   1.054   7.850  0.4379  0.1735 -0.7221
   99MOL0     N13247  11.325   0.942   7.943  0.7672  0.3830 -0.0761
   99MOL0     C13248  11.349   0.948   8.081  0.3310 -0.9884 -0.2630
   99MOL0     C13249  11.304   0.828   8.129 -0.1840 -0.4954  0.2502
   99MOL0     C13250  11.333   0.788   8.268  0.2075 -0.8010  0.4716
   99MOL0     C13251  11.217   0.702   8.320 -0.0984 -0.9529  1.1474
   99MOL0     C13252  11.249   0.640   8.456  0.0472 -0.2118 -0.3088
   99MOL0     C13253  11.158   0.509   8.464 -0.0762  0.3071  0.8607
   99MOL0     O13254  11.181   0.441   8.590 -1.0163  0.0050 -0.0202
   99MOL0     C13255  11.127   0.490   8.704 -0.2299 -0.1450 -0.2486
   99MOL0     C13256  11.054   0.604   8.713  0.4074  1.3192 -0.3544
   99MOL0     C13257  10.998   0.653   8.831 -0.3445  0.3136 -0.4994
   99MOL0     C13258  11.023   0.592   8.954 -0.2931 -0.2858  0.2661
   99MOL0     C13259  10.969   0.643   9.080 -0.7871  0.1361 -0.5565
   99MOL0     O13260  10.885   0.751   9.078  0.8463  0.0592 -0.1046
   99MOL0     C13261  10.863   0.811   9.205 -0.3309 -0.9916  0.3544
   99MOL0     C13262  10.932   0.931   9.221 -0.3465 -0.0961 -0.6487
   99MOL0     C13263  10.914   1.015   9.328  0.3631 -0.3931 -0.6110
   99MOL0     C13264  10.809   0.981   9.418  0.3019  0.4532  0.3710
   99MOL0     O13265  10.787   1.071   9.518 -0.2595 -0.4750  0.1726
   99MOL0     C13266  10.859   1.042   9.635  0.5474 -0.1827 -0.5535
   99MOL0     C13267  10.841   1.155   9.741 -0.4690 -1.0809 -0.3436
   99MOL0     C13268  10.939   1.268   9.706  0.0246 -0.4394  0.3805
   99MOL0     C13269  10.892   1.419   9.732  0.4070  0.3700  0.2448
   99MOL0     C13270  10.947   1.512   9.634 -0.2151  0.1445 -1.2896
   99MOL0     C13271  11.098   1.529   9.634 -0.7341  0.5192 -0.2840
   99MOL0     C13272  11.153   1.598   9.757 -0.0546 -0.3517 -0.8950
   99MOL0     C13273  11.309   1.621   9.736 -0.3566 -0.1087 -0.0863
   99MOL0    Cl13274  11.350   1.750   9.610 -0.0165 -0.5372  0.0185
   99MOL0     C13275  10.744   0.854   9.405  1.2591 -0.4541  0.2604
   99MOL0     C13276  10.764   0.774   9.295  0.4045 -0.6881 -0.7912
   99MOL0     O13277  10.994   0.570   9.176  0.7397 -0.6937 -0.3334
   99MOL0     C13278  11.093   0.464   8.941  0.2030  0.4431  1.1924
   99MOL0     C13279  11.135   0.421   8.817 -0.5425  0.3947  0.0961
   99MOL0     N13280  11.265   0.753   8.025  0.1705 -0.2485  0.5063
   99MOL0     N13281  11.264   0.824   7.913  0.2100  0.1122  0.1629
   99MOL0     C13282  10.890   1.958   7.825 -0.5257 -0.5386 -0.9104
   99MOL0     C13283  10.804   2.052   7.887  0.1954  0.5188  0.2811
   99MOL0     C13284  10.517   2.324   8.048 -0.7678  0.5187 -0.7473
   99MOL0     C13285  10.381   2.341   8.045  0.2289  0.4392 -0.2581
   99MOL0     C13286  10.313   2.450   8.098 -0.3134 -0.1028  0.0294
   99MOL0     C13287  10.387   2.555   8.159  0.4326  0.5704  0.8606
   99MOL0     O13288  10.314   2.665   8.199  0.2133 -0.9146  0.5479
   99MOL0     C13289  10.364   2.743   8.299 -0.7838 -0.4662 -0.1147
   99MOL0     C13290  10.259   2.826   8.389 -0.0237  0.0930  0.2005
   99MOL0     C13291  10.176   2.919   8.310  0.5358 -1.0333  0.5118
   99MOL0     C13292  10.095   3.008   8.411  0.0878 -0.9529 -0.1756
   99MOL0     C13293  10.167   3.092   8.511 -0.1123 -0.9695  0.2552
   99MOL0     C13294  10.220   3.172   8.586  0.0983 -1.1805 -1.1281
   99MOL0     C13295  10.530   2.543   8.160  0.7026 -0.3469  0.7967
   99MOL0     C13296  10.589   2.421   8.116 -0.6486 -0.0331  0.7777
   99MOL0     C13297  10.744   2.419   8.116 -0.2855 -0.2913 -0.3480
   99MOL0     H13298  10.579   2.087   7.631  1.6631 -1.2171 -3.1472
   99MOL0     H13299  10.735   1.935   7.521 -1.7472 -0.9667  0.7988
   99MOL0     H13300  10.781   1.705   7.554 -0.2633  1.8646  2.5439
   99MOL0     H13301  10.877   1.804   7.443  0.6557  1.5610  1.1351
   99MOL0     H13302  11.083   1.666   7.502  1.5667 -1.5780  3.0152
   99MOL0     H13303  10.959   1.544   7.437  1.9848 -0.0042 -0.7697
   99MOL0     H13304  10.914   1.483   7.648  1.9815 -2.6430 -1.7449
   99MOL0     H13305  11.012   1.614   7.724  0.6024 -2.3351  1.9928
   99MOL0     H13306  11.086   1.368   7.563  3.0173 -2.2394  1.3958
   99MOL0     H13307  11.214   1.491   7.597 -2.0534  2.4370 -2.7706
   99MOL0     H13308  11.150   1.457   7.835  0.6834  0.6554 -0.2922
   99MOL0     H13309  11.048   1.318   7.791 -0.3537  2.0621  2.5850
   99MOL0     H13310  11.284   1.241   7.674 -0.0722 -2.8477  1.9940
   99MOL0     H13311  11.332   1.321   7.835 -2.7476  0.4654  1.6678
   99MOL0     H13312  11.142   1.086   7.815 -0.6467 -0.3529  1.4999
   99MOL0     H13313  11.184   1.180   7.954 -1.7115 -0.4324 -0.9669
   99MOL0     H13314  11.347   1.014   7.748  0.0867 -1.2320 -0.2172
   99MOL0     H13315  11.437   1.106   7.871  2.9935 -2.8145 -3.6917
   99MOL0     H13316  11.381   1.038   8.132 -2.3043 -1.4058  2.3691
   99MOL0     H13317  11.430   0.740   8.283  0.3451 -0.7210 -0.1636
   99MOL0     H13318  11.329   0.884   8.321  0.3485 -0.1209 -0.7139
   99MOL0     H13319  11.126   0.763   8.327 -0.4396 -1.5593  2.2046
   99MOL0     H13320  11.204   0.623   8.245 -0.0226  0.3401 -0.2897
   99MOL0     H13321  11.217   0.718   8.526 -1.3067  0.9270 -2.1042
   99MOL0     H13322  11.352   0.605   8.461 -1.0271 -3.4959  1.3494
   99MOL0     H13323  11.181   0.446   8.377  1.2282  1.9617 -0.0569
   99MOL0     H13324  11.054   0.537   8.448 -0.2961 -0.3874  1.0367
   99MOL0     H13325  11.023   0.660   8.625  2.8581  0.3565 -1.9325
   99MOL0     H13326  10.943   0.747   8.829  0.8127  1.2238  2.9065
   99MOL0     H13327  11.006   0.942   9.143 -0.8905 -2.3613 -1.5558
   99MOL0     H13328  10.965   1.107   9.355 -2.1419  1.3003 -1.3363
   99MOL0     H13329  10.806   0.955   9.674  0.8668  0.3517  1.1667
   99MOL0     H13330  10.962   1.006   9.622  1.3286  1.2491  1.2003
   99MOL0     H13331  10.738   1.191   9.756 -1.3684 -3.4542 -0.3083
   99MOL0     H13332  10.855   1.116   9.842 -3.1879  3.4996  2.1452
   99MOL0     H13333  11.035   1.254   9.757 -0.6618 -2.0761  1.3032
   99MOL0     H13334  10.952   1.262   9.598 -5.9942 -0.9769 -0.6442
   99MOL0     H13335  10.921   1.442   9.835  2.4360  0.7272 -0.3566
   99MOL0     H13336  10.783   1.417   9.733  0.3114  2.7547  1.5213
   99MOL0     H13337  10.907   1.613   9.650  1.8527  0.7190  0.7985
   99MOL0     H13338  10.919   1.476   9.534 -0.3964 -4.0383  0.1105
   99MOL0     H13339  11.145   1.430   9.630 -2.7985 -0.6465  1.6589
   99MOL0     H13340  11.127   1.574   9.539  0.6465 -1.0149 -0.6460
   99MOL0     H13341  11.142   1.530   9.842  0.1517  0.2443 -0.3852
   99MOL0     H13342  11.095   1.691   9.762  1.2302  0.6170 -2.6529
   99MOL0     H13343  11.362   1.639   9.830  1.6605 -1.1388 -0.9443
   99MOL0     H13344  11.353   1.528   9.697 -1.5724 -0.8622  0.3008
   99MOL0     H13345  10.671   0.827   9.481 -1.9849 -0.2578 -2.5843
   99MOL0     H13346  10.695   0.691   9.283  0.1014 -0.3921 -1.1154
   99MOL0     H13347  11.091   0.393   9.023  1.0801  0.8958  1.6175
   99MOL0     H13348  11.183   0.324   8.812 -1.3232  0.0575 -1.8623
   99MOL0     H13349  10.985   1.937   7.873  0.5895  3.4130 -1.0039
   99MOL0     H13350  10.815   2.097   7.985  0.3958  3.1177 -0.8444
   99MOL0     H13351  10.326   2.261   7.997  0.8130 -0.0157 -0.1885
   99MOL0     H13352  10.205   2.460   8.088 -0.1082  0.7181 -1.7283
   99MOL0     H13353  10.437   2.816   8.262  0.9455 -2.8211 -1.6359
   99MOL0     H13354  10.430   2.682   8.362  1.5045  1.9433 -0.0267
   99MOL0     H13355  10.319   2.885   8.458 -2.0843  0.1356  2.0616
   99MOL0     H13356  10.191   2.754   8.436  1.8502 -0.3188  2.4668
   99MOL0     H13357  10.105   2.846   8.269 -0.1965 -0.7582  1.2804
   99MOL0     H13358  10.237   2.972   8.236  0.7455  0.0938  1.4714
   99MOL0     H13359  10.027   3.066   8.348 -0.3731 -2.3904 -1.0750
   99MOL0     H13360  10.027   2.944   8.468 -0.0609 -0.1063  0.6129
   99MOL0     H13361  10.242   3.243   8.663 -2.2934  1.7595 -2.9176
   99MOL0     H13362  10.599   2.619   8.195  2.9428 -1.7583 -0.3087
   99MOL0     H13363  10.791   2.439   8.213 -2.4499  2.3857  0.2565
   99MOL0     H13364  10.779   2.319   8.087  0.0178 -0.2469 -0.1486
   99MOL0     H13365  10.775   2.489   8.037 -2.8871 -0.0423 -1.2383
  100MOL0     O13366   6.587   3.882   5.962  0.1810 -0.8165 -0.2534
  100MOL0     C13367   6.497   3.958   5.936  0.1540 -0.6677  0.2483
  100MOL0     O13368   6.416   3.951   5.828  0.8654 -0.6253  0.1876
  100MOL0     C13369   6.404   3.842   5.752 -0.7831  0.4048 -0.1050
  100MOL0     C13370   6.401   3.717   5.808 -0.6953  0.2399  1.0992
  100MOL0     C13371   6.383   3.612   5.721  0.2441 -0.1723  0.5842
  100MOL0     C13372   6.361   3.621   5.582 -0.0270 -0.4714  0.0976
  100MOL0     O13373   6.357   3.499   5.512  0.5471 -0.0837  0.7905
  100MOL0     C13374   6.358   3.511   5.369 -0.1280  0.4753 -0.0141
  100MOL0     C13375   6.392   3.377   5.317 -0.8490  0.4731  0.1349
  100MOL0     C13376   6.281   3.276   5.357 -0.0645 -0.1240  0.2160
  100MOL0     C13377   6.142   3.316   5.312  0.4491 -0.7159  0.5270
  100MOL0     C13378   6.049   3.367   5.429 -0.7677  0.2263 -0.0933
  100MOL0     C13379   5.990   3.248   5.519 -0.3379 -0.0412  0.0117
  100MOL0     C13380   5.941   3.299   5.655 -0.0206 -0.9231 -0.0806
  100MOL0     C13381   5.866   3.184   5.723 -0.1314 -0.1267 -0.1385
  100MOL0     N13382   5.947   3.076   5.769 -0.8890  0.5542 -0.3371
  100MOL0     C13383   6.018   3.096   5.881 -0.4030  0.2327  0.0789
  100MOL0     C13384   6.081   2.975   5.898  0.7666 -0.4647  0.0316
  100MOL0     C13385   6.203   2.948   5.991  1.0977 -0.2896 -0.1975
  100MOL0     C13386   6.314   3.056   5.965 -0.4219 -0.2170  0.2521
  100MOL0     C13387   6.454   3.025   6.035 -0.1471 -1.0185 -0.4696
  100MOL0     C13388   6.450   2.979   6.182  0.0332  1.1760 -0.2886
  100MOL0     O13389   6.373   3.050   6.274 -0.3223  0.3087 -0.7942
  100MOL0     C13390   6.378   2.996   6.395  0.2013 -0.3076  0.2381
  100MOL0     C13391   6.286   3.059   6.482  0.3269 -0.4164 -0.7944
  100MOL0     C13392   6.283   3.022   6.626  0.0500 -0.1286  0.0011
  100MOL0     C13393   6.363   2.916   6.673  0.3725 -0.4465  0.1391
  100MOL0     C13394   6.365   2.874   6.819 -0.0559 -0.5531 -0.7771
  100MOL0     O13395   6.423   2.750   6.858  0.8823  0.4049 -0.1026
  100MOL0     C13396   6.404   2.712   6.995  0.1773 -0.4776 -0.2065
  100MOL0     C13397   6.309   2.623   7.023  0.2750 -0.2002 -0.2816
  100MOL0     C13398   6.290   2.581   7.156  0.3908 -0.2046  0.8714
  100MOL0     C13399   6.371   2.626   7.261  0.4479 -0.3326 -0.5917
  100MOL0     O13400   6.370   2.565   7.389 -0.3935  0.2496 -0.7208
  100MOL0     C13401   6.248   2.500   7.437  0.1840 -0.2833  0.4582
  100MOL0     C13402   6.248   2.475   7.589  0.2334  0.1821 -0.5402
  100MOL0     C13403   6.295   2.607   7.673 -0.0591  0.8735 -0.5878
  100MOL0     C13404   6.260   2.576   7.816 -0.9747 -0.1724  0.4532
  100MOL0     C13405   6.258   2.709   7.896  0.3451 -0.7105  1.1127
  100MOL0     C13406   6.232   2.697   8.051  0.0068  0.0039 -0.3750
  100MOL0     C13407   6.184   2.831   8.107 -0.5905 -1.6058  0.7228
  100MOL0     C13408   6.291   2.948   8.113  0.1385  0.2046  0.0866
  100MOL0    Cl13409   6.441   2.919   8.215 -0.1839  0.5184 -0.1137
  100MOL0     C13410   6.472   2.716   7.230 -0.0511 -0.3517 -0.7713
  100MOL0     C13411   6.489   2.760   7.102 -0.0685 -0.0767 -0.0454
  100MOL0     O13412   6.318   2.954   6.901  0.4404  0.4918  0.0822
  100MOL0     C13413   6.449   2.847   6.583  0.2148 -0.1427  0.9092
  100MOL0     C13414   6.449   2.880   6.443 -0.0797 -0.2297 -0.1522
  100MOL0     N13415   6.049   2.888   5.793  0.3366 -0.0902  0.4715
  100MOL0     N13416   5.975   2.950   5.713  0.4697 -0.2878  0.8323
  100MOL0     C13417   6.357   3.746   5.530 -0.0423  0.1538  0.0564
  100MOL0     C13418   6.383   3.859   5.615 -0.0968  0.7254 -0.2546
  100MOL0     C13419   6.453   4.069   6.030  0.9339  0.2406 -0.9639
  100MOL0     C13420   6.326   4.131   6.021 -0.7478  0.0620  0.3253
  100MOL0     C13421   6.276   4.216   6.123  0.0938 -0.2145  0.2253
  100MOL0     C13422   6.370   4.269   6.211  0.4840 -0.8297 -0.1604
  100MOL0     O13423   6.324   4.380   6.276 -0.2146  1.2727 -0.7920
  100MOL0     C13424   6.324   4.375   6.420 -0.3316 -0.0455  0.4565
  100MOL0     C13425   6.168   4.352   6.455  0.8493 -0.7293  0.4187
  100MOL0     C13426   6.147   4.348   6.609 -0.1136 -0.3078  0.1457
  100MOL0     C13427   6.011   4.309   6.672  0.1381  0.2331 -0.3207
  100MOL0     C13428   5.906   4.407   6.623 -0.7776 -0.3223 -0.3069
  100MOL0     C13429   5.813   4.460   6.564 -0.0208  0.0597 -0.1362
  100MOL0     C13430   6.490   4.218   6.228 -0.9362  0.3458  0.1158
  100MOL0     C13431   6.537   4.121   6.135  0.3171  0.3201 -0.0841
  100MOL0     C13432   6.677   4.092   6.142 -0.6090  0.0015  0.7978
  100MOL0     H13433   6.414   3.699   5.914 -0.9916  0.0674  1.1079
  100MOL0     H13434   6.417   3.512   5.745  2.2360  0.9587  2.9389
  100MOL0     H13435   6.267   3.556   5.329  0.9142  2.2900 -0.4232
  100MOL0     H13436   6.439   3.579   5.342  1.6563 -0.8996  1.5264
  100MOL0     H13437   6.483   3.341   5.366  0.2940 -4.6465 -4.7479
  100MOL0     H13438   6.399   3.371   5.208  2.2306  0.1599  0.2585
  100MOL0     H13439   6.286   3.270   5.466  2.6042  0.2941  0.1996
  100MOL0     H13440   6.308   3.177   5.319  0.0154 -0.6876  1.6610
  100MOL0     H13441   6.142   3.390   5.231 -1.7121 -0.3335  0.8095
  100MOL0     H13442   6.084   3.234   5.269 -4.4032  1.3517  2.3703
  100MOL0     H13443   6.116   3.420   5.497 -0.8371 -0.0442  0.1884
  100MOL0     H13444   5.968   3.433   5.396  0.9941  3.8945  2.3305
  100MOL0     H13445   5.907   3.209   5.459 -0.6488 -0.1039  0.4779
  100MOL0     H13446   6.062   3.175   5.559 -2.8492 -3.0048 -0.4542
  100MOL0     H13447   5.870   3.380   5.637 -1.4475 -1.9516  0.6359
  100MOL0     H13448   6.021   3.334   5.720  1.2290  2.8167 -3.2921
  100MOL0     H13449   5.819   3.224   5.813 -1.6705 -2.0336 -0.0227
  100MOL0     H13450   5.794   3.134   5.657 -2.1263 -1.8579  3.0938
  100MOL0     H13451   6.014   3.191   5.935  3.0472 -1.4289  3.8189
  100MOL0     H13452   6.168   2.970   6.092  0.9297 -0.3686 -0.2398
  100MOL0     H13453   6.246   2.847   5.987 -0.9677 -1.1750 -2.6590
  100MOL0     H13454   6.332   3.068   5.857 -2.0598 -2.3421 -0.3403
  100MOL0     H13455   6.293   3.160   5.988 -2.0168  0.3604 -3.1307
  100MOL0     H13456   6.509   3.119   6.038 -0.1093 -0.9225 -2.7233
  100MOL0     H13457   6.508   2.955   5.971  1.0546  1.1364 -1.9371
  100MOL0     H13458   6.556   2.987   6.207  0.1311 -0.4878 -0.0704
  100MOL0     H13459   6.419   2.874   6.188  1.3902  0.8295  1.5424
  100MOL0     H13460   6.218   3.135   6.443  1.6740  0.2440 -1.9790
  100MOL0     H13461   6.228   3.080   6.699 -0.9854 -1.2707  0.1595
  100MOL0     H13462   6.257   2.585   6.936 -1.0097  4.1759 -1.6754
  100MOL0     H13463   6.210   2.509   7.171  0.0262  0.5537  2.9641
  100MOL0     H13464   6.160   2.555   7.401  1.9176  2.9925  0.8760
  100MOL0     H13465   6.233   2.404   7.387 -1.4279  0.8925 -1.5182
  100MOL0     H13466   6.145   2.446   7.611  0.4898 -1.5045 -1.3841
  100MOL0     H13467   6.317   2.394   7.614  0.6343  1.1287  1.6764
  100MOL0     H13468   6.404   2.613   7.669  0.0364  1.0787  1.4753
  100MOL0     H13469   6.244   2.698   7.638 -1.4562 -0.0738 -1.0991
  100MOL0     H13470   6.326   2.502   7.861 -1.4021 -1.4090 -0.8818
  100MOL0     H13471   6.161   2.528   7.814 -0.7155 -0.7297  0.7534
  100MOL0     H13472   6.180   2.768   7.848  0.4892 -1.1891  0.2672
  100MOL0     H13473   6.355   2.756   7.881  0.0203 -0.8685 -2.5622
  100MOL0     H13474   6.155   2.619   8.059  1.0944 -1.5444 -3.6218
  100MOL0     H13475   6.328   2.673   8.098 -0.3464 -1.1950 -0.2342
  100MOL0     H13476   6.147   2.826   8.210 -0.3153  1.7765  1.0825
  100MOL0     H13477   6.097   2.862   8.048  2.0001  1.6737 -1.7797
  100MOL0     H13478   6.328   2.993   8.021  1.5550  1.6857  1.3302
  100MOL0     H13479   6.242   3.029   8.167 -1.8414  0.4647 -1.9630
  100MOL0     H13480   6.543   2.739   7.308 -0.1014 -3.5570  0.3476
  100MOL0     H13481   6.568   2.826   7.066 -0.2571  2.0155  3.0019
  100MOL0     H13482   6.510   2.764   6.618  1.3033  0.1230 -0.2884
  100MOL0     H13483   6.519   2.820   6.386 -1.3845 -1.3571 -0.6236
  100MOL0     H13484   6.348   3.773   5.426 -2.1186  3.0444  0.8640
  100MOL0     H13485   6.387   3.951   5.557 -0.9167  0.4490 -0.7705
  100MOL0     H13486   6.258   4.104   5.940 -1.3298  0.3998  0.6927
  100MOL0     H13487   6.175   4.255   6.125  0.5633  1.0604  0.0311
  100MOL0     H13488   6.356   4.476   6.449  0.7445  0.9750 -3.6190
  100MOL0     H13489   6.395   4.303   6.460  0.4453  0.9130  0.8462
  100MOL0     H13490   6.116   4.272   6.401 -0.1257  0.2193 -0.0802
  100MOL0     H13491   6.119   4.444   6.424  4.0316  0.8936 -0.2100
  100MOL0     H13492   6.174   4.440   6.662 -3.1770 -0.5448  2.4328
  100MOL0     H13493   6.214   4.267   6.639 -2.5500 -2.2596  0.6662
  100MOL0     H13494   5.970   4.209   6.653  0.3913  0.2145 -0.7991
  100MOL0     H13495   6.024   4.316   6.780  1.9404  2.5054 -0.6151
  100MOL0     H13496   5.736   4.513   6.513  0.9440  0.8869 -0.7876
  100MOL0     H13497   6.544   4.286   6.294 -1.0982  0.2815  0.3144
  100MOL0     H13498   6.733   4.128   6.055  0.0848 -1.0240  0.8047
  100MOL0     H13499   6.712   4.135   6.236 -0.2271 -1.0861  1.1746
  100MOL0     H13500   6.696   3.987   6.169  2.1629  1.2231  4.4259
  101MOL0     O13501   5.119   6.494   0.330  0.0726 -0.1761  0.2856
  101MOL0     C13502   5.068   6.390   0.381 -1.2374  0.2343 -0.3240
  101MOL0     O13503   5.113   6.265   0.365  0.4184  0.3478  0.3763
  101MOL0     C13504   5.231   6.269   0.288  0.2856 -0.3040  0.8534
  101MOL0     C13505   5.347   6.317   0.346 -0.0316 -0.9373  0.4005
  101MOL0     C13506   5.471   6.301   0.284  0.1160  0.3440 -0.3725
  101MOL0     C13507   5.479   6.232   0.164 -0.7854  0.4694 -0.7509
  101MOL0     O13508   5.594   6.226   0.087  0.4292 -0.5994  0.6210
  101MOL0     C13509   5.711   6.305   0.110 -0.3752  1.2656  0.1646
  101MOL0     C13510   5.824   6.299   0.001 -0.6417  0.6420 -0.2733
  101MOL0     C13511   5.858   6.148   0.018 -0.9343 -0.5268  0.0925
  101MOL0     C13512   5.899   6.075  -0.116 -0.3347 -0.0353  0.0151
  101MOL0     C13513   5.918   5.920  -0.104  0.8309 -0.4467  0.5972
  101MOL0     C13514   5.807   5.853  -0.189  0.2782 -0.7564  0.7432
  101MOL0     C13515   5.838   5.711  -0.212 -0.3664  0.8732  1.0483
  101MOL0     C13516   5.710   5.623  -0.216 -0.4706 -0.7709  0.4683
  101MOL0     N13517   5.742   5.481  -0.251 -0.0615 -0.5316 -0.0311
  101MOL0     C13518   5.788   5.434  -0.370 -0.5938  0.4848 -0.0124
  101MOL0     C13519   5.776   5.305  -0.361 -0.3943 -0.0865  0.4162
  101MOL0     C13520   5.812   5.204  -0.472 -0.5711  0.4419 -0.7450
  101MOL0     C13521   5.769   5.260  -0.612  0.6012 -0.1174  0.8147
  101MOL0     C13522   5.799   5.161  -0.723 -1.0870 -0.7787 -0.4498
  101MOL0     C13523   5.744   5.204  -0.857 -0.6870 -0.7914 -1.6737
  101MOL0     O13524   5.604   5.172  -0.865  0.7872 -0.8785 -0.2564
  101MOL0     C13525   5.536   5.223  -0.967  0.2434  0.2412  0.4647
  101MOL0     C13526   5.499   5.140  -1.074  0.3049  0.2182  0.1460
  101MOL0     C13527   5.433   5.198  -1.181 -0.2349 -0.9200  0.4949
  101MOL0     C13528   5.412   5.330  -1.201 -0.9482 -0.6343  0.4972
  101MOL0     C13529   5.360   5.369  -1.345 -0.0335  0.1660  0.2413
  101MOL0     O13530   5.375   5.273  -1.448 -0.0284  0.5148  0.2023
  101MOL0     C13531   5.306   5.278  -1.564  0.7217  1.0625  0.0648
  101MOL0     C13532   5.263   5.147  -1.616  0.4430 -0.1823 -0.0880
  101MOL0     C13533   5.187   5.135  -1.735  0.6840 -0.5311 -0.2653
  101MOL0     C13534   5.148   5.256  -1.800 -0.3047 -0.6772  0.5776
  101MOL0     O13535   5.083   5.258  -1.919 -0.4922  0.0058  0.3073
  101MOL0     C13536   5.110   5.147  -2.012  0.1951 -1.0467 -0.0268
  101MOL0     C13537   5.048   5.195  -2.158  0.7739 -0.3797  0.5850
  101MOL0     C13538   4.898   5.209  -2.132  0.2937 -0.1089  0.6188
  101MOL0     C13539   4.862   5.362  -2.113  0.5661  0.0202 -0.1472
  101MOL0     C13540   4.714   5.388  -2.137  0.1316  0.3335  0.1022
  101MOL0     C13541   4.690   5.533  -2.165  0.3349 -0.0086 -0.0707
  101MOL0     C13542   4.540   5.559  -2.207  0.4241 -0.1884  1.3616
  101MOL0     C13543   4.508   5.708  -2.236  0.1838  0.3267  0.4251
  101MOL0    Cl13544   4.580   5.756  -2.394 -0.1143 -0.1949 -0.0164
  101MOL0     C13545   5.176   5.387  -1.745  0.7201 -0.6023  0.4125
  101MOL0     C13546   5.253   5.396  -1.627  0.8346 -0.8323 -0.2970
  101MOL0     O13547   5.296   5.473  -1.345  0.0466  0.0126 -0.4536
  101MOL0     C13548   5.429   5.417  -1.089 -0.7841  0.0259 -0.4516
  101MOL0     C13549   5.479   5.355  -0.967 -0.1423  0.4700 -1.0943
  101MOL0     N13550   5.717   5.266  -0.241 -0.4602 -0.4820  0.3444
  101MOL0     N13551   5.700   5.372  -0.173 -0.3719 -0.0379 -0.6677
  101MOL0     C13552   5.363   6.167   0.110 -0.3785 -1.0129 -0.3385
  101MOL0     C13553   5.238   6.191   0.170  0.4092  0.2468  0.6709
  101MOL0     C13554   4.956   6.410   0.477 -0.3732 -0.4689 -0.3314
  101MOL0     C13555   4.948   6.327   0.595  0.0575 -0.2406  0.0382
  101MOL0     C13556   4.854   6.355   0.684  0.8000 -0.3303  0.5182
  101MOL0     C13557   4.756   6.457   0.666  0.0703  0.4842 -0.0370
  101MOL0     O13558   4.655   6.497   0.753 -0.8685 -0.2499 -0.3430
  101MOL0     C13559   4.637   6.410   0.867  0.6371 -0.2425 -0.3140
  101MOL0     C13560   4.551   6.479   0.967  0.1836 -0.2064  0.1303
  101MOL0     C13561   4.401   6.493   0.924  0.0471  0.1712 -0.2080
  101MOL0     C13562   4.327   6.604   1.007  0.6728 -0.3599 -0.1715
  101MOL0     C13563   4.310   6.552   1.143 -0.9202  0.4783  0.6144
  101MOL0     C13564   4.295   6.529   1.266  0.3363 -0.1797 -0.3638
  101MOL0     C13565   4.770   6.537   0.559 -0.4180  0.2465  0.8554
  101MOL0     C13566   4.865   6.517   0.462 -0.0681 -0.5194  0.2941
  101MOL0     C13567   4.856   6.605   0.341  0.4945  0.2876 -0.2284
  101MOL0     H13568   5.350   6.366   0.443 -2.1077 -1.3259  0.7200
  101MOL0     H13569   5.560   6.327   0.341 -0.0491  3.5053 -1.3920
  101MOL0     H13570   5.686   6.411   0.115  3.6825  2.3128  2.0228
  101MOL0     H13571   5.757   6.274   0.204 -0.0883  3.1347  0.6646
  101MOL0     H13572   5.907   6.368   0.023  0.0249 -0.5269  1.0380
  101MOL0     H13573   5.788   6.325  -0.099 -1.2805 -1.7408 -0.7192
  101MOL0     H13574   5.774   6.089   0.055  0.7151 -4.1772 -1.5342
  101MOL0     H13575   5.934   6.147   0.097  1.0746 -0.2703 -1.7516
  101MOL0     H13576   5.820   6.101  -0.187 -0.1067  0.6751  0.0121
  101MOL0     H13577   5.992   6.111  -0.162  1.5483 -2.3762  1.6985
  101MOL0     H13578   6.020   5.897  -0.138  0.6874 -1.6837  0.9506
  101MOL0     H13579   5.915   5.878  -0.003 -0.6420 -1.2492  0.2458
  101MOL0     H13580   5.718   5.850  -0.127  0.9719  1.9908  2.0027
  101MOL0     H13581   5.788   5.902  -0.285  0.3895 -1.3693  0.3981
  101MOL0     H13582   5.900   5.670  -0.131  1.9815  0.8114 -0.6528
  101MOL0     H13583   5.887   5.702  -0.309 -1.1726 -2.5614  0.8078
  101MOL0     H13584   5.654   5.614  -0.123 -2.6830  2.4491 -0.3691
  101MOL0     H13585   5.641   5.662  -0.292 -0.0696  2.2815  1.5335
  101MOL0     H13586   5.831   5.489  -0.453 -1.4901  1.0377 -0.1231
  101MOL0     H13587   5.922   5.208  -0.469 -0.5014 -1.3370  0.8273
  101MOL0     H13588   5.763   5.108  -0.456 -0.9267  0.5680 -1.0733
  101MOL0     H13589   5.663   5.289  -0.609  1.3361  2.7686  1.9045
  101MOL0     H13590   5.816   5.353  -0.646  0.3068 -0.9792 -2.2117
  101MOL0     H13591   5.757   5.065  -0.690  1.7376 -0.4861  5.1330
  101MOL0     H13592   5.907   5.144  -0.729 -0.4940  1.8616  1.1627
  101MOL0     H13593   5.807   5.158  -0.934  0.6237 -3.1132  0.6450
  101MOL0     H13594   5.762   5.312  -0.851  1.7618 -1.1976 -0.3265
  101MOL0     H13595   5.538   5.040  -1.083 -2.5814 -0.8387 -3.0154
  101MOL0     H13596   5.417   5.136  -1.269 -1.0580 -2.7483  1.8565
  101MOL0     H13597   5.287   5.053  -1.567 -0.3872 -0.0393  0.6050
  101MOL0     H13598   5.161   5.033  -1.762  0.0035 -0.9738  1.8231
  101MOL0     H13599   5.216   5.130  -2.029  0.7332  0.8758  1.1713
  101MOL0     H13600   5.075   5.053  -1.967  1.8823 -0.4268  2.8129
  101MOL0     H13601   5.091   5.284  -2.204 -2.3435  1.2179  0.4435
  101MOL0     H13602   5.060   5.111  -2.226 -1.0400 -0.1521 -0.0940
  101MOL0     H13603   4.846   5.175  -2.223 -0.8448 -0.4919  1.3945
  101MOL0     H13604   4.853   5.147  -2.054 -0.7726  0.2437  0.2978
  101MOL0     H13605   4.919   5.422  -2.184 -2.2733  2.4886 -0.5516
  101MOL0     H13606   4.891   5.404  -2.017 -0.4031  2.0976 -0.7063
  101MOL0     H13607   4.662   5.362  -2.044 -1.2542  0.4105 -0.6339
  101MOL0     H13608   4.680   5.323  -2.217 -1.1425 -2.0056  2.3967
  101MOL0     H13609   4.700   5.579  -2.066 -1.3290 -0.8595  0.5253
  101MOL0     H13610   4.759   5.556  -2.246 -0.5588 -2.9402 -1.8168
  101MOL0     H13611   4.477   5.516  -2.128 -0.6734  0.8553  1.0884
  101MOL0     H13612   4.517   5.504  -2.298  2.1586 -1.0724  1.4294
  101MOL0     H13613   4.398   5.710  -2.240  0.2370  1.0585 -1.3399
  101MOL0     H13614   4.540   5.782  -2.162  2.7693  0.0623 -0.3451
  101MOL0     H13615   5.126   5.475  -1.786 -0.3748 -2.3796 -2.3596
  101MOL0     H13616   5.265   5.491  -1.575  2.1605 -1.4229  0.5303
  101MOL0     H13617   5.388   5.518  -1.097 -0.8229 -0.0791 -1.8304
  101MOL0     H13618   5.474   5.399  -0.868  2.4489 -1.1543 -0.1153
  101MOL0     H13619   5.366   6.111   0.017 -2.1985  0.3496 -1.2801
  101MOL0     H13620   5.148   6.144   0.131  0.6850 -1.3433  1.8489
  101MOL0     H13621   5.006   6.237   0.612  0.1180  0.1237  2.1211
  101MOL0     H13622   4.858   6.296   0.776 -1.6640 -0.4527  0.5926
  101MOL0     H13623   4.734   6.399   0.917  1.6467  0.8033 -1.9321
  101MOL0     H13624   4.591   6.317   0.830  0.0648  0.3517 -1.1416
  101MOL0     H13625   4.597   6.577   0.981 -0.8468  0.0352  2.2551
  101MOL0     H13626   4.548   6.418   1.058  0.4371 -1.0243 -0.3941
  101MOL0     H13627   4.357   6.394   0.939  3.5847 -1.8903 -2.0832
  101MOL0     H13628   4.390   6.518   0.818 -0.7593 -0.5159 -0.2969
  101MOL0     H13629   4.376   6.701   1.005 -0.8122  0.4190  0.0020
  101MOL0     H13630   4.227   6.625   0.968 -0.0740 -1.7034  0.9238
  101MOL0     H13631   4.296   6.515   1.372  2.2829  1.6613 -0.0673
  101MOL0     H13632   4.711   6.628   0.554  3.2056  2.7817  0.5311
  101MOL0     H13633   4.825   6.549   0.252 -0.4315  2.9978 -1.7337
  101MOL0     H13634   4.790   6.690   0.356 -0.8762 -1.0092  1.4483
  101MOL0     H13635   4.954   6.648   0.316 -1.5036  3.4767 -3.6386
  102MOL0     O13636   1.715  11.002   1.217  0.0301  0.4796 -0.6202
  102MOL0     C13637   1.835  10.991   1.199 -0.6194 -0.0950  0.6366
  102MOL0     O13638   1.913  11.096   1.175  0.1084 -0.2204 -0.4147
  102MOL0     C13639   1.863  11.221   1.229 -0.4996  0.3106 -0.8564
  102MOL0     C13640   1.752  11.285   1.171 -1.3868 -0.7452 -0.5002
  102MOL0     C13641   1.721  11.420   1.200 -0.4975 -0.0415  0.0349
  102MOL0     C13642   1.794  11.485   1.303 -0.2276 -0.1549 -0.0139
  102MOL0     O13643   1.760  11.617   1.329 -0.3814 -0.1099 -0.4998
  102MOL0     C13644   1.841  11.697   1.422  0.0847  0.5477 -0.1357
  102MOL0     C13645   1.824  11.849   1.384  0.0601 -0.1748  0.5619
  102MOL0     C13646   1.711  11.931   1.457 -0.4495 -0.6880  0.9126
  102MOL0     C13647   1.574  11.934   1.380 -0.1605 -0.3536  0.2516
  102MOL0     C13648   1.456  11.959   1.465 -0.4015 -0.4658  0.0725
  102MOL0     C13649   1.324  11.921   1.394  0.1269  0.2099  0.1066
  102MOL0     C13650   1.210  11.988   1.469 -0.0488  1.1899 -0.6212
  102MOL0     C13651   1.190  12.143   1.460  0.4336  0.5907 -0.1577
  102MOL0     N13652   1.049  12.176   1.503  0.4880 -0.2202  0.5764
  102MOL0     C13653   0.931  12.160   1.428 -0.3017 -0.4954  0.0107
  102MOL0     C13654   0.832  12.212   1.509 -1.0379  0.1452  0.3006
  102MOL0     C13655   0.685  12.200   1.458  0.4640 -0.3127 -1.2510
  102MOL0     C13656   0.609  12.333   1.477 -0.4856 -0.4324 -0.3303
  102MOL0     C13657   0.489  12.357   1.369  0.3235  0.5258  0.2930
  102MOL0     C13658   0.523  12.364   1.217 -0.4449  0.0919  0.0755
  102MOL0     O13659   0.629  12.463   1.201 -0.6414 -0.6463 -0.0578
  102MOL0     C13660   0.692  12.492   1.081 -0.1097  0.1494 -0.3423
  102MOL0     C13661   0.685  12.413   0.965  0.4217  0.1403  0.8496
  102MOL0     C13662   0.747  12.457   0.848  0.1250  0.2485  0.6698
  102MOL0     C13663   0.822  12.571   0.849  0.2418  0.3905  0.1791
  102MOL0     C13664   0.878  12.628   0.719  0.2176  0.1731 -0.8581
  102MOL0     O13665   0.949  12.739   0.738 -0.5900  0.8216 -0.0268
  102MOL0     C13666   0.974  12.815   0.623  0.2443  0.0217 -0.5282
  102MOL0     C13667   1.090  12.808   0.545 -0.3064  0.0190  1.0679
  102MOL0     C13668   1.110  12.880   0.428 -0.6724  0.8487  0.9577
  102MOL0     C13669   1.007  12.965   0.386  0.6498 -0.2672  0.4897
  102MOL0     O13670   1.022  13.017   0.255  0.4390 -0.0828 -0.1922
  102MOL0     C13671   1.104  13.131   0.226  0.1120  0.3023  0.0840
  102MOL0     C13672   1.064  13.264   0.293 -0.4521  0.1399  0.0149
  102MOL0     C13673   1.177  13.368   0.260 -0.0708 -0.4031  0.1848
  102MOL0     C13674   1.145  13.507   0.303  0.3832 -0.2898 -0.1365
  102MOL0     C13675   1.118  13.597   0.180  0.4243  0.4981  0.0096
  102MOL0     C13676   1.199  13.721   0.188 -0.2652 -0.3030  0.6753
  102MOL0     C13677   1.349  13.697   0.157  0.2128  0.0980  0.2213
  102MOL0     C13678   1.416  13.842   0.154  0.1406  0.8699  0.0154
  102MOL0    Cl13679   1.426  13.910  -0.011 -0.0347 -0.0408  0.1149
  102MOL0     C13680   0.887  12.978   0.460 -0.2649  0.6297 -1.2293
  102MOL0     C13681   0.875  12.910   0.580  0.2616  0.6539  0.4141
  102MOL0     O13682   0.846  12.578   0.615 -0.4983 -0.9363  0.4509
  102MOL0     C13683   0.843  12.641   0.971  0.4235  0.6172 -0.5132
  102MOL0     C13684   0.771  12.599   1.082 -1.0874 -0.5914  0.1418
  102MOL0     N13685   0.884  12.238   1.630 -0.1122  0.1697  0.1004
  102MOL0     N13686   1.018  12.236   1.619  0.8356  0.2409  0.2268
  102MOL0     C13687   1.883  11.406   1.379 -0.4763 -1.1499 -0.0420
  102MOL0     C13688   1.920  11.275   1.344 -0.1095  0.0559  0.4016
  102MOL0     C13689   1.901  10.865   1.231  0.1796 -0.9192 -0.5192
  102MOL0     C13690   1.821  10.754   1.261  0.1501  0.2248 -0.2778
  102MOL0     C13691   1.870  10.637   1.313  0.1468  0.4110 -0.2240
  102MOL0     C13692   2.006  10.609   1.317  0.1102 -0.1385 -0.3360
  102MOL0     O13693   2.077  10.502   1.355 -0.2053 -0.1005 -0.0229
  102MOL0     C13694   2.005  10.405   1.430 -0.0714 -0.1383  0.7898
  102MOL0     C13695   2.104  10.313   1.500 -0.1929 -0.8648  0.1218
  102MOL0     C13696   2.196  10.387   1.605  0.0665 -0.0039 -0.0036
  102MOL0     C13697   2.276  10.291   1.686  0.7711  0.0341 -0.1083
  102MOL0     C13698   2.379  10.369   1.749  0.4594  0.1603 -0.4163
  102MOL0     C13699   2.464  10.446   1.786 -0.4559  0.1849  0.0885
  102MOL0     C13700   2.084  10.708   1.265  0.0786 -0.4513  0.3835
  102MOL0     C13701   2.041  10.842   1.224 -1.0306  0.0320  0.9066
  102MOL0     C13702   2.151  10.936   1.167  1.3159  0.0630  0.0460
  102MOL0     H13703   1.700  11.232   1.092 -2.1079  0.9834 -1.2407
  102MOL0     H13704   1.648  11.468   1.135  1.1935  0.9511 -1.2157
  102MOL0     H13705   1.799  11.688   1.522 -3.0075 -2.1779 -1.5000
  102MOL0     H13706   1.945  11.670   1.402  0.3760 -0.2036  2.1450
  102MOL0     H13707   1.814  11.871   1.277  0.8177  1.3729  0.7768
  102MOL0     H13708   1.920  11.899   1.401 -1.8200  3.8389  0.4687
  102MOL0     H13709   1.746  12.034   1.471  0.6900 -0.6053 -1.8716
  102MOL0     H13710   1.697  11.896   1.559 -0.1101 -2.6039  0.3539
  102MOL0     H13711   1.588  12.016   1.309  1.0226  0.8465  1.8063
  102MOL0     H13712   1.560  11.839   1.326 -4.0095  0.3428 -0.2202
  102MOL0     H13713   1.478  11.896   1.551 -1.5000  1.3415  1.7439
  102MOL0     H13714   1.472  12.063   1.494  2.4185 -1.0024  0.7256
  102MOL0     H13715   1.321  11.971   1.297 -1.7856  3.6257  1.7475
  102MOL0     H13716   1.328  11.812   1.381  0.7469 -0.2699  3.3758
  102MOL0     H13717   1.220  11.972   1.577 -0.2979 -0.3520 -0.8012
  102MOL0     H13718   1.120  11.947   1.422 -0.6767  0.1865  1.3193
  102MOL0     H13719   1.269  12.193   1.517 -1.4049  3.9429 -0.3329
  102MOL0     H13720   1.207  12.172   1.356 -0.6642  0.0893 -0.4957
  102MOL0     H13721   0.916  12.103   1.337 -0.0586 -0.8823  0.2081
  102MOL0     H13722   0.697  12.166   1.354  2.1314 -3.2948 -0.1935
  102MOL0     H13723   0.638  12.122   1.519  1.0182 -0.2592 -0.7501
  102MOL0     H13724   0.566  12.334   1.577  0.0603 -1.5448 -0.0719
  102MOL0     H13725   0.673  12.421   1.469 -1.5495  0.5344  1.3306
  102MOL0     H13726   0.441  12.452   1.397 -1.9938 -0.7021  0.6678
  102MOL0     H13727   0.424  12.270   1.382  0.4468  0.3074 -0.5279
  102MOL0     H13728   0.436  12.393   1.157 -1.6949 -0.9235  1.3314
  102MOL0     H13729   0.552  12.268   1.173  1.2729  1.0452 -0.9954
  102MOL0     H13730   0.631  12.319   0.973 -0.6764  0.6899  0.0993
  102MOL0     H13731   0.735  12.403   0.754 -2.6230 -1.5288  1.9382
  102MOL0     H13732   1.164  12.744   0.591  0.8113  0.4721 -0.0641
  102MOL0     H13733   1.207  12.868   0.381 -0.5448  0.1634  1.3765
  102MOL0     H13734   1.207  13.097   0.241 -0.8931 -3.2404 -0.0084
  102MOL0     H13735   1.090  13.157   0.121 -1.5273  3.9138  1.0641
  102MOL0     H13736   0.970  13.301   0.250  0.3252  1.6099 -0.4996
  102MOL0     H13737   1.058  13.251   0.402  0.8142  1.9793  0.3577
  102MOL0     H13738   1.270  13.341   0.312 -1.0268  1.0207  2.7674
  102MOL0     H13739   1.192  13.368   0.152  1.7853  3.9692  0.2304
  102MOL0     H13740   1.228  13.539   0.366 -0.2904  2.5878 -0.5547
  102MOL0     H13741   1.061  13.514   0.372  1.8968  0.3727  1.7019
  102MOL0     H13742   1.013  13.626   0.181 -0.4285 -2.1734  2.8947
  102MOL0     H13743   1.136  13.553   0.082 -2.9637  0.5064 -0.7386
  102MOL0     H13744   1.158  13.792   0.116  1.1028  1.8968  1.9455
  102MOL0     H13745   1.193  13.766   0.288  2.2029 -1.2255  1.2940
  102MOL0     H13746   1.363  13.632   0.070  2.9089 -4.6304  3.6727
  102MOL0     H13747   1.392  13.631   0.233  2.0924 -0.9200 -1.6221
  102MOL0     H13748   1.355  13.907   0.217 -0.9061  1.0389 -1.1369
  102MOL0     H13749   1.520  13.844   0.189 -0.0906  2.0413  0.6796
  102MOL0     H13750   0.818  13.055   0.428 -2.3284 -0.9311 -0.7922
  102MOL0     H13751   0.780  12.922   0.632 -0.5067 -1.9825 -0.2186
  102MOL0     H13752   0.896  12.736   0.974 -0.7900  1.3342  3.1602
  102MOL0     H13753   0.792  12.659   1.170 -1.3601 -0.1255 -0.1078
  102MOL0     H13754   1.943  11.462   1.450  0.4323 -2.9965  0.7032
  102MOL0     H13755   2.006  11.230   1.392  0.3608  1.1933  0.6693
  102MOL0     H13756   1.714  10.761   1.246  0.3819 -1.5122 -3.5350
  102MOL0     H13757   1.801  10.558   1.342 -0.6931  1.8700  1.9295
  102MOL0     H13758   1.937  10.356   1.359 -0.4288  3.0197 -1.2605
  102MOL0     H13759   1.939  10.447   1.506  0.2116 -1.1860  1.6296
  102MOL0     H13760   2.153  10.265   1.416  0.5982 -2.4371  1.4250
  102MOL0     H13761   2.056  10.233   1.557 -2.9733  1.8265  1.9629
  102MOL0     H13762   2.143  10.454   1.673  3.5348  1.9545  1.0121
  102MOL0     H13763   2.260  10.458   1.551  0.3002  0.8183  1.3339
  102MOL0     H13764   2.219  10.234   1.760 -0.2912  0.6871 -0.3984
  102MOL0     H13765   2.318  10.208   1.628 -0.5253  1.4250 -3.2427
  102MOL0     H13766   2.541  10.520   1.793 -2.5459  2.4457  0.4143
  102MOL0     H13767   2.188  10.676   1.257  0.6323  0.9126  1.6084
  102MOL0     H13768   2.253  10.897   1.175  1.4166 -0.7477 -3.4681
  102MOL0     H13769   2.134  10.953   1.060 -2.2513  0.9784  0.6450
  102MOL0     H13770   2.145  11.030   1.222  1.9218 -0.8469  1.7464
  103MOL0     O13771   7.873   9.451   3.687  0.8896 -0.5645 -0.3064
  103MOL0     C13772   7.758   9.448   3.740 -0.6413 -0.3733  0.4313
  103MOL0     O13773   7.638   9.403   3.691 -1.2770 -0.1709 -0.4832
  103MOL0     C13774   7.601   9.459   3.563 -0.8774  0.1373 -0.2270
  103MOL0     C13775   7.681   9.544   3.478 -0.6424 -0.7628  0.0216
  103MOL0     C13776   7.612   9.593   3.360 -1.1186  0.2772  0.5380
  103MOL0     C13777   7.489   9.553   3.314  0.4532 -0.4228  0.1257
  103MOL0     O13778   7.416   9.595   3.202  0.2013 -0.1215  0.9308
  103MOL0     C13779   7.487   9.679   3.104 -0.0890 -0.4286 -1.1138
  103MOL0     C13780   7.389   9.723   3.002 -0.3039 -0.2723  0.1806
  103MOL0     C13781   7.329   9.602   2.919  0.1932 -0.0654 -0.8233
  103MOL0     C13782   7.212   9.637   2.828  0.9825  1.0810 -0.3202
  103MOL0     C13783   7.139   9.511   2.781  0.7937  0.1483 -0.7423
  103MOL0     C13784   7.215   9.424   2.692  0.0120  0.4466 -1.7065
  103MOL0     C13785   7.159   9.286   2.652 -0.6533 -0.0785 -0.7430
  103MOL0     C13786   7.057   9.318   2.546 -0.8336 -0.0467  0.2809
  103MOL0     N13787   6.968   9.208   2.522  0.6061 -0.2594 -0.6896
  103MOL0     C13788   6.900   9.143   2.614  0.3105 -0.6805 -0.3671
  103MOL0     C13789   6.826   9.055   2.549 -0.0242 -0.6264 -0.3889
  103MOL0     C13790   6.735   8.956   2.617  0.1434 -0.5293 -0.3958
  103MOL0     C13791   6.750   8.809   2.572  0.1425 -0.6353 -0.2235
  103MOL0     C13792   6.613   8.754   2.525  0.3737  0.0348 -0.3832
  103MOL0     C13793   6.565   8.835   2.400 -0.0023  0.1359 -0.1286
  103MOL0     O13794   6.484   8.739   2.330  0.1981  0.3259  0.4798
  103MOL0     C13795   6.493   8.737   2.194  0.4149  0.7445  0.2317
  103MOL0     C13796   6.524   8.842   2.105  0.4495  0.7647 -0.0266
  103MOL0     C13797   6.512   8.815   1.968  0.4238  0.6382  0.3347
  103MOL0     C13798   6.490   8.686   1.911  0.7016  0.5504 -0.0698
  103MOL0     C13799   6.493   8.671   1.770  0.0134  0.4401  0.7163
  103MOL0     O13800   6.452   8.552   1.700 -0.9777 -0.0117 -0.2821
  103MOL0     C13801   6.443   8.561   1.563  1.4286 -0.7958 -0.5117
  103MOL0     C13802   6.366   8.638   1.484  0.8082 -0.0427 -0.5948
  103MOL0     C13803   6.358   8.609   1.348 -0.7738  0.2448 -1.3286
  103MOL0     C13804   6.441   8.524   1.288  0.4298 -0.5384 -0.1709
  103MOL0     O13805   6.437   8.493   1.150 -0.1990 -0.2838  0.2734
  103MOL0     C13806   6.337   8.572   1.074 -0.2901  0.5293 -0.9172
  103MOL0     C13807   6.355   8.556   0.921 -0.1643  0.4185  0.6228
  103MOL0     C13808   6.253   8.639   0.852 -0.4955  0.2596  0.5603
  103MOL0     C13809   6.274   8.662   0.706  0.3246 -0.5879 -0.8451
  103MOL0     C13810   6.212   8.551   0.624  0.3481  0.4001 -0.1761
  103MOL0     C13811   6.246   8.561   0.467 -0.4374 -0.1278 -0.5386
  103MOL0     C13812   6.177   8.451   0.388  0.0435 -0.9797  0.4373
  103MOL0     C13813   6.057   8.494   0.308  0.6616  0.3744 -0.2832
  103MOL0    Cl13814   5.958   8.347   0.263  0.1245 -0.1344 -0.0195
  103MOL0     C13815   6.517   8.438   1.362 -0.9662 -0.0205  0.5620
  103MOL0     C13816   6.529   8.466   1.498  0.6160  0.2247 -0.2765
  103MOL0     O13817   6.544   8.769   1.709  0.0400  0.3159 -1.0029
  103MOL0     C13818   6.473   8.580   2.000 -0.5990  0.2807  0.5179
  103MOL0     C13819   6.479   8.604   2.139  0.2780 -0.3697 -0.8696
  103MOL0     N13820   6.837   9.068   2.414 -0.0132  1.0223  0.2086
  103MOL0     N13821   6.921   9.171   2.396 -0.2755  0.9633  0.4410
  103MOL0     C13822   7.423   9.456   3.385 -0.0060  0.6317  0.9819
  103MOL0     C13823   7.479   9.411   3.509  0.3136  0.4172 -0.1955
  103MOL0     C13824   7.741   9.501   3.884 -1.1771  0.7881 -0.0038
  103MOL0     C13825   7.624   9.575   3.911 -0.4405 -1.3665 -0.4155
  103MOL0     C13826   7.607   9.627   4.043  0.6113 -0.4189 -0.7536
  103MOL0     C13827   7.699   9.624   4.145  0.9238  0.6137  0.5174
  103MOL0     O13828   7.678   9.688   4.264 -0.8533 -0.6186  0.4116
  103MOL0     C13829   7.794   9.713   4.353  0.2927  0.3655  0.2511
  103MOL0     C13830   7.801   9.598   4.461 -0.1998  1.0560 -0.3183
  103MOL0     C13831   7.887   9.633   4.579 -0.4306  0.4867 -0.2674
  103MOL0     C13832   7.933   9.510   4.645 -0.0897  0.1779 -0.1348
  103MOL0     C13833   7.829   9.409   4.673  0.7302 -0.1255  0.5442
  103MOL0     C13834   7.762   9.304   4.676  0.9495 -1.5057 -0.0735
  103MOL0     C13835   7.803   9.541   4.111  0.9314  0.1997 -0.7445
  103MOL0     C13836   7.827   9.482   3.991 -0.1734  0.9372  0.2839
  103MOL0     C13837   7.925   9.369   3.983 -0.6119 -0.4027 -0.3322
  103MOL0     H13838   7.769   9.586   3.525 -1.7781 -1.8069  3.3533
  103MOL0     H13839   7.675   9.661   3.303 -0.2269 -1.6010 -0.8028
  103MOL0     H13840   7.523   9.774   3.145 -1.2928  0.0610 -1.1444
  103MOL0     H13841   7.570   9.629   3.055  1.7633 -1.6131  2.8362
  103MOL0     H13842   7.431   9.791   2.927  2.1797 -1.3967  0.4453
  103MOL0     H13843   7.309   9.778   3.052 -1.1086 -0.9493 -0.3316
  103MOL0     H13844   7.288   9.532   2.993  4.7751 -2.0529  0.2060
  103MOL0     H13845   7.414   9.558   2.866 -0.8791 -0.5733 -2.1801
  103MOL0     H13846   7.136   9.697   2.880 -0.9693 -0.2944 -1.4568
  103MOL0     H13847   7.236   9.698   2.741 -0.6104  2.1019 -0.0897
  103MOL0     H13848   7.108   9.451   2.868  0.2420  0.2957 -0.8314
  103MOL0     H13849   7.044   9.534   2.732  1.1351 -1.8416 -2.4737
  103MOL0     H13850   7.235   9.482   2.601  1.9249 -0.5804 -1.9879
  103MOL0     H13851   7.314   9.404   2.733 -1.2586  0.0748  1.5331
  103MOL0     H13852   7.126   9.227   2.738  0.5025  0.3861  0.0491
  103MOL0     H13853   7.234   9.226   2.600 -2.5622 -1.7202 -1.7297
  103MOL0     H13854   6.996   9.406   2.568 -0.9269 -0.1465  0.4228
  103MOL0     H13855   7.105   9.344   2.451  1.8660 -3.5406  0.4637
  103MOL0     H13856   6.923   9.143   2.721  4.3787  1.9166 -1.0134
  103MOL0     H13857   6.766   8.953   2.722  1.4264  0.3620 -0.7182
  103MOL0     H13858   6.632   8.991   2.623 -1.1657 -3.9103 -0.9884
  103MOL0     H13859   6.837   8.794   2.508 -0.1912 -0.3392 -0.7537
  103MOL0     H13860   6.764   8.741   2.657  0.7667 -1.6636 -1.1243
  103MOL0     H13861   6.535   8.763   2.602  4.2503 -0.4825  4.0421
  103MOL0     H13862   6.633   8.650   2.499  4.3332 -0.0169  2.1841
  103MOL0     H13863   6.646   8.857   2.330  0.3176  1.0582  0.5144
  103MOL0     H13864   6.511   8.928   2.419 -1.9402 -1.0352  0.3569
  103MOL0     H13865   6.575   8.935   2.128  0.5727  1.6970 -3.6054
  103MOL0     H13866   6.533   8.902   1.906  0.9307 -0.4381 -1.0693
  103MOL0     H13867   6.295   8.713   1.519  1.4756  0.1473  0.3823
  103MOL0     H13868   6.283   8.666   1.295  0.2427  0.5638 -2.4664
  103MOL0     H13869   6.234   8.553   1.105 -0.4874  2.2795 -0.4338
  103MOL0     H13870   6.355   8.675   1.106 -0.4529  0.4911 -0.7012
  103MOL0     H13871   6.455   8.590   0.893 -0.3488 -0.1796 -0.8181
  103MOL0     H13872   6.354   8.451   0.892  1.2587  0.3934  0.5947
  103MOL0     H13873   6.153   8.599   0.866 -0.8242  1.7801  3.3169
  103MOL0     H13874   6.252   8.737   0.903 -2.8401  0.3048  0.5350
  103MOL0     H13875   6.381   8.673   0.686  0.8972 -0.2633  1.9930
  103MOL0     H13876   6.225   8.757   0.683 -2.3894 -1.0964  2.0983
  103MOL0     H13877   6.104   8.553   0.639  0.1389 -2.1381 -0.8628
  103MOL0     H13878   6.257   8.460   0.666  2.1106  2.2605  2.3397
  103MOL0     H13879   6.239   8.663   0.428  3.7420  1.5070  2.2713
  103MOL0     H13880   6.353   8.542   0.448 -0.2012  1.0790 -0.4872
  103MOL0     H13881   6.153   8.365   0.451 -0.1997 -0.5431  0.9519
  103MOL0     H13882   6.238   8.411   0.307  0.1282  2.9942 -1.6802
  103MOL0     H13883   5.990   8.562   0.361 -1.7087 -0.5033 -2.0130
  103MOL0     H13884   6.092   8.549   0.220  1.6488 -1.7432 -1.2808
  103MOL0     H13885   6.582   8.378   1.300 -0.1402  1.5652 -0.1449
  103MOL0     H13886   6.576   8.398   1.568 -0.2374 -0.7390 -0.6067
  103MOL0     H13887   6.453   8.481   1.959  0.9164 -0.2802  1.0802
  103MOL0     H13888   6.443   8.523   2.202  0.7103  0.7179  0.8316
  103MOL0     H13889   7.330   9.431   3.336 -1.4317  5.5918  0.6164
  103MOL0     H13890   7.421   9.327   3.547 -0.8745  0.4892 -1.7195
  103MOL0     H13891   7.551   9.614   3.840 -0.4622 -1.1590 -0.2828
  103MOL0     H13892   7.527   9.698   4.059  1.3260  0.4137 -0.8242
  103MOL0     H13893   7.783   9.806   4.409  3.2849  0.5618  0.7151
  103MOL0     H13894   7.890   9.704   4.301 -0.1150  0.0619 -0.4501
  103MOL0     H13895   7.832   9.500   4.425  0.7827  1.8697 -1.7950
  103MOL0     H13896   7.702   9.595   4.508 -0.2293  1.3959 -0.3561
  103MOL0     H13897   7.822   9.688   4.648 -3.0118  0.0939 -2.2106
  103MOL0     H13898   7.977   9.691   4.556  0.0050  0.6862  1.7284
  103MOL0     H13899   8.002   9.467   4.572 -2.5181 -0.3394 -2.2683
  103MOL0     H13900   7.986   9.524   4.740  1.1190  3.2644 -1.1280
  103MOL0     H13901   7.708   9.211   4.684  0.8379 -1.2511  3.2150
  103MOL0     H13902   7.883   9.523   4.183 -0.0757  0.0429  0.3651
  103MOL0     H13903   8.028   9.404   3.976 -0.0782 -1.9943 -1.0534
  103MOL0     H13904   7.915   9.304   4.071  1.7215  0.7215  0.8329
  103MOL0     H13905   7.912   9.309   3.893 -0.1759 -0.9549 -0.0343
  104MOL0     O13906   2.109   2.993   1.736  0.0774 -0.4351 -0.2145
  104MOL0     C13907   2.207   3.001   1.811 -0.8769 -1.1504  0.3262
  104MOL0     O13908   2.214   3.068   1.926  0.1352  0.0055  0.1745
  104MOL0     C13909   2.101   3.145   1.964  0.2961  0.1047 -0.0352
  104MOL0     C13910   2.021   3.242   1.887  0.0869 -0.1909  0.6988
  104MOL0     C13911   1.904   3.297   1.949  0.7889 -0.4704  0.3636
  104MOL0     C13912   1.859   3.261   2.076  0.3419  0.4777 -0.3088
  104MOL0     O13913   1.740   3.312   2.119 -0.1770  0.5032 -0.1085
  104MOL0     C13914   1.685   3.280   2.246  0.0411 -1.0063  0.3172
  104MOL0     C13915   1.578   3.389   2.270  0.4420  0.0944 -0.2717
  104MOL0     C13916   1.617   3.533   2.325 -0.0832 -0.5621 -1.0263
  104MOL0     C13917   1.721   3.598   2.246 -0.6427 -0.5696 -0.6152
  104MOL0     C13918   1.729   3.754   2.229 -0.4419  0.8685 -0.6264
  104MOL0     C13919   1.838   3.808   2.130 -0.0506  0.8676  0.1754
  104MOL0     C13920   1.837   3.956   2.095  0.1385  0.0576  0.2090
  104MOL0     C13921   1.735   3.991   1.981 -0.2977 -0.1720 -0.9913
  104MOL0     N13922   1.769   4.126   1.922  0.0135  0.6372 -0.7919
  104MOL0     C13923   1.692   4.237   1.933 -0.3748  0.5779 -0.7148
  104MOL0     C13924   1.748   4.316   1.840  0.9327 -0.2865 -0.3915
  104MOL0     C13925   1.690   4.444   1.791 -0.5527 -0.9986 -0.1902
  104MOL0     C13926   1.597   4.437   1.667 -0.1579 -0.9783  0.8681
  104MOL0     C13927   1.459   4.382   1.694  0.2895  0.0891 -0.5143
  104MOL0     C13928   1.358   4.419   1.588  0.5471  0.1619  0.7624
  104MOL0     O13929   1.405   4.354   1.464 -0.5207 -0.2175  0.0123
  104MOL0     C13930   1.327   4.369   1.352  0.1757 -0.0147  0.4016
  104MOL0     C13931   1.221   4.464   1.337 -0.0391  0.7093 -0.4283
  104MOL0     C13932   1.145   4.462   1.221  0.7562 -0.6974  0.2639
  104MOL0     C13933   1.179   4.375   1.120 -1.1748  0.2188  0.6918
  104MOL0     C13934   1.101   4.375   0.997 -0.5385 -0.8690  0.4578
  104MOL0     O13935   1.003   4.464   0.988  0.8344  0.9863  0.7023
  104MOL0     C13936   0.942   4.469   0.863 -0.2465 -0.4883 -0.2363
  104MOL0     C13937   0.832   4.389   0.826 -0.6361 -0.7099 -0.4868
  104MOL0     C13938   0.755   4.421   0.723  0.4065  0.0867 -0.8183
  104MOL0     C13939   0.786   4.525   0.632 -0.1642  0.4786 -0.5801
  104MOL0     O13940   0.705   4.565   0.530  0.5227  0.4518 -0.4685
  104MOL0     C13941   0.703   4.699   0.487  1.0410 -0.3937 -0.6728
  104MOL0     C13942   0.596   4.717   0.373  0.5689  0.5769 -0.1518
  104MOL0     C13943   0.619   4.848   0.295 -0.2245  0.5437  0.9817
  104MOL0     C13944   0.549   4.855   0.152 -0.6054 -0.7447  0.0316
  104MOL0     C13945   0.574   4.979   0.065  0.5348  1.2105 -0.1752
  104MOL0     C13946   0.714   4.973  -0.007 -0.4048 -0.6538 -0.4594
  104MOL0     C13947   0.739   5.100  -0.095  0.6988 -0.8135  0.3729
  104MOL0     C13948   0.648   5.102  -0.216  0.6301 -0.3391 -0.0808
  104MOL0    Cl13949   0.659   4.940  -0.307 -0.3789 -0.3155  0.2348
  104MOL0     C13950   0.888   4.604   0.672 -0.4452 -0.2262 -0.0373
  104MOL0     C13951   0.970   4.577   0.780  0.3365 -0.1846  0.4201
  104MOL0     O13952   1.135   4.302   0.901 -0.5325  0.2427 -0.0050
  104MOL0     C13953   1.280   4.273   1.133 -0.3848 -0.2562 -0.0271
  104MOL0     C13954   1.354   4.277   1.252  0.0989  0.0654 -0.0270
  104MOL0     N13955   1.858   4.257   1.772  0.2802 -0.0219  0.0867
  104MOL0     N13956   1.867   4.147   1.833 -0.0017  0.0213  1.2304
  104MOL0     C13957   1.930   3.165   2.140  0.6640 -0.3718 -0.1153
  104MOL0     C13958   2.049   3.113   2.087  0.0616 -0.5843 -0.0927
  104MOL0     C13959   2.337   2.940   1.765  0.5492 -0.4528 -0.2210
  104MOL0     C13960   2.451   2.987   1.826 -1.1475 -0.3369  0.8410
  104MOL0     C13961   2.572   2.942   1.775  0.1585  0.5853 -0.6742
  104MOL0     C13962   2.581   2.835   1.683 -0.3405 -0.2667  0.4084
  104MOL0     O13963   2.712   2.790   1.653  0.0834  0.1757  0.3068
  104MOL0     C13964   2.733   2.688   1.558  0.8951  0.5079  0.0482
  104MOL0     C13965   2.876   2.641   1.558  0.4978 -0.6483 -0.5904
  104MOL0     C13966   2.981   2.749   1.545  0.2075 -0.2680  0.9277
  104MOL0     C13967   2.971   2.830   1.417  0.0262 -0.3761  0.8606
  104MOL0     C13968   3.099   2.884   1.381  0.0702 -0.4530  0.2882
  104MOL0     C13969   3.208   2.930   1.356 -0.2529  0.9392 -0.4238
  104MOL0     C13970   2.462   2.791   1.614 -1.1361  0.5716  0.7243
  104MOL0     C13971   2.340   2.843   1.660 -0.9781 -0.3662  0.1521
  104MOL0     C13972   2.218   2.794   1.575  0.7423 -1.1679  0.4773
  104MOL0     H13973   2.055   3.260   1.786  2.5956 -2.5529  1.0058
  104MOL0     H13974   1.838   3.374   1.910  1.9088  1.9585  2.9500
  104MOL0     H13975   1.632   3.186   2.228 -1.9567  0.0467  0.4627
  104MOL0     H13976   1.750   3.271   2.333  0.5278 -2.1981 -0.1374
  104MOL0     H13977   1.498   3.343   2.329  0.0164 -0.2059 -1.0651
  104MOL0     H13978   1.548   3.418   2.170  3.2975  0.7683 -1.0138
  104MOL0     H13979   1.654   3.522   2.428 -0.3883  0.2969 -0.8169
  104MOL0     H13980   1.535   3.604   2.316  1.6843  1.5881 -0.9983
  104MOL0     H13981   1.816   3.578   2.297 -0.4091 -0.3367 -0.9548
  104MOL0     H13982   1.715   3.565   2.142 -2.1425  0.2688 -0.8240
  104MOL0     H13983   1.629   3.782   2.194  0.0687  0.6307 -2.4028
  104MOL0     H13984   1.758   3.796   2.326 -0.4444 -1.3163  0.3660
  104MOL0     H13985   1.940   3.783   2.161 -1.1294 -0.8319  2.6671
  104MOL0     H13986   1.827   3.757   2.033 -2.0306 -0.1094  0.8552
  104MOL0     H13987   1.940   3.980   2.064  0.1853  1.4255  1.3303
  104MOL0     H13988   1.813   4.022   2.178 -0.3055  0.2649 -0.0789
  104MOL0     H13989   1.766   3.925   1.899  4.3734 -2.8573  2.4861
  104MOL0     H13990   1.631   3.980   2.015 -0.8284 -1.2734 -2.8299
  104MOL0     H13991   1.604   4.245   1.996 -1.4796 -2.1767 -1.7404
  104MOL0     H13992   1.629   4.487   1.871 -1.1607 -1.1635 -0.5570
  104MOL0     H13993   1.766   4.521   1.775 -1.6487  0.0988 -0.2619
  104MOL0     H13994   1.580   4.539   1.633  2.9714 -0.4263  0.6846
  104MOL0     H13995   1.641   4.384   1.582  1.9773 -2.2412  2.6561
  104MOL0     H13996   1.427   4.399   1.798 -2.0235  2.3775 -1.5091
  104MOL0     H13997   1.452   4.273   1.686 -3.9677  0.1201  0.3978
  104MOL0     H13998   1.331   4.525   1.591  0.3479  0.2642 -2.1767
  104MOL0     H13999   1.266   4.367   1.617 -1.3292  2.7720 -0.1266
  104MOL0     H14000   1.195   4.547   1.402 -0.5157 -1.7033  2.6838
  104MOL0     H14001   1.064   4.532   1.199  1.7570  0.1555 -0.7775
  104MOL0     H14002   0.803   4.308   0.892 -0.0782 -1.9020 -1.6605
  104MOL0     H14003   0.683   4.349   0.687 -0.8852  0.7620  0.3323
  104MOL0     H14004   0.683   4.763   0.574  1.2881  0.2091 -1.0481
  104MOL0     H14005   0.798   4.728   0.442  0.9123 -2.5090 -2.4879
  104MOL0     H14006   0.608   4.629   0.309  1.3232  1.4590 -1.2690
  104MOL0     H14007   0.494   4.722   0.412  0.4752  1.6678 -0.5155
  104MOL0     H14008   0.577   4.931   0.352  0.0122  0.7517  0.8565
  104MOL0     H14009   0.728   4.857   0.286 -0.0459 -0.1309  2.2068
  104MOL0     H14010   0.440   4.858   0.162 -0.8317  3.8221 -1.5169
  104MOL0     H14011   0.571   4.765   0.094  1.2439 -1.7301  2.1261
  104MOL0     H14012   0.545   5.061   0.131 -2.3357 -0.9131  1.4570
  104MOL0     H14013   0.495   4.975  -0.011 -1.0637 -1.7192  1.4409
  104MOL0     H14014   0.799   4.961   0.060  1.4749 -3.2545 -3.0790
  104MOL0     H14015   0.724   4.884  -0.070 -0.6272 -0.6824 -0.4565
  104MOL0     H14016   0.838   5.101  -0.141  0.2031 -0.8465 -0.7141
  104MOL0     H14017   0.732   5.195  -0.040  1.1270 -1.3096  1.3108
  104MOL0     H14018   0.546   5.123  -0.182  0.0074  0.9689 -2.5477
  104MOL0     H14019   0.669   5.195  -0.269 -1.5868  0.8762  0.9843
  104MOL0     H14020   0.912   4.695   0.618  0.7491  0.5180  1.6404
  104MOL0     H14021   1.049   4.645   0.812  1.4711 -1.0807 -0.3884
  104MOL0     H14022   1.286   4.195   1.058 -2.6133 -2.9807  2.4291
  104MOL0     H14023   1.440   4.216   1.279 -0.1663 -1.1959 -1.9039
  104MOL0     H14024   1.904   3.115   2.233 -1.2985 -3.4694 -2.1359
  104MOL0     H14025   2.097   3.028   2.136 -0.3456 -0.0394  1.3100
  104MOL0     H14026   2.447   3.052   1.913 -1.3025  0.6865  0.0932
  104MOL0     H14027   2.668   2.960   1.822  1.3772 -3.2396 -1.3460
  104MOL0     H14028   2.704   2.734   1.463 -2.9429 -0.3243  0.6505
  104MOL0     H14029   2.667   2.601   1.557  1.4614  0.0688 -0.5385
  104MOL0     H14030   2.880   2.564   1.480 -0.7297 -0.8392 -0.4916
  104MOL0     H14031   2.900   2.574   1.641  0.6016 -0.4182 -0.4333
  104MOL0     H14032   3.077   2.701   1.566  0.9004  1.2814  1.4572
  104MOL0     H14033   2.969   2.802   1.640  3.3660 -0.5983  1.6152
  104MOL0     H14034   2.949   2.771   1.327  0.4897  0.9277 -0.1403
  104MOL0     H14035   2.902   2.914   1.428 -0.8669 -0.8665 -0.6695
  104MOL0     H14036   3.305   2.965   1.328  0.7499 -0.3343  1.2777
  104MOL0     H14037   2.456   2.728   1.525 -1.8867 -0.1065  1.2431
  104MOL0     H14038   2.249   2.704   1.521  1.8267 -0.0634 -0.8039
  104MOL0     H14039   2.124   2.776   1.628  1.2152  1.5121  2.4282
  104MOL0     H14040   2.198   2.868   1.497 -1.5088 -0.7632  1.3562
  105MOL0     O14041  10.103   6.593  10.488  0.2541 -0.2067 -0.9096
  105MOL0     C14042  10.147   6.697  10.440 -0.7848 -0.4010  1.5126
  105MOL0     O14043  10.240   6.702  10.334  0.1350 -0.1318 -0.4381
  105MOL0     C14044  10.283   6.580  10.288 -0.7233 -1.0471 -0.3365
  105MOL0     C14045  10.419   6.554  10.315  0.3380 -0.7663 -0.6478
  105MOL0     C14046  10.467   6.417  10.292  1.0374  0.1764  0.1487
  105MOL0     C14047  10.380   6.318  10.242 -0.2115  1.1563  0.2091
  105MOL0     O14048  10.440   6.196  10.221 -0.9310  0.0218 -0.2557
  105MOL0     C14049  10.365   6.079  10.182  0.5912 -0.0434 -0.0841
  105MOL0     C14050  10.437   5.959  10.125  0.1074 -0.1827  0.8963
  105MOL0     C14051  10.497   5.986   9.992 -0.2682  0.8440 -0.6727
  105MOL0     C14052  10.415   6.050   9.883 -0.3632  0.1002  0.1725
  105MOL0     C14053  10.500   6.113   9.770 -0.2451 -0.1746 -1.4432
  105MOL0     C14054  10.577   6.013   9.695 -1.2356  0.7673 -0.0090
  105MOL0     C14055  10.559   6.008   9.542 -0.1726 -0.2027 -0.1740
  105MOL0     C14056  10.623   5.889   9.469 -0.3452 -0.9121 -0.1743
  105MOL0     N14057  10.767   5.894   9.493  0.9357  0.0787 -0.3133
  105MOL0     C14058  10.863   5.968   9.432  0.4907  0.8603  0.1584
  105MOL0     C14059  10.982   5.937   9.495  0.6238  0.3706  0.7630
  105MOL0     C14060  11.114   6.000   9.456 -0.0055  0.9529  0.8475
  105MOL0     C14061  11.139   6.017   9.297  0.5773 -0.1202 -0.6251
  105MOL0     C14062  11.082   6.148   9.241 -0.2928 -1.0443  0.1258
  105MOL0     C14063  11.069   6.144   9.084  0.4593  0.2160 -0.8378
  105MOL0     O14064  10.979   6.033   9.049 -0.1519  0.5618  0.2579
  105MOL0     C14065  10.840   6.047   9.060  0.0016  0.4279 -0.3607
  105MOL0     C14066  10.769   5.933   9.013 -1.2370 -1.5169 -0.4898
  105MOL0     C14067  10.630   5.924   9.036 -0.6611 -0.2173  0.4819
  105MOL0     C14068  10.558   6.034   9.094  0.7059  0.5472 -0.2100
  105MOL0     C14069  10.413   6.025   9.122  0.8461  0.1071 -0.2027
  105MOL0     O14070  10.349   6.131   9.185  0.7468  1.1035 -0.2988
  105MOL0     C14071  10.220   6.162   9.175  0.5837 -0.5476 -0.3555
  105MOL0     C14072  10.181   6.275   9.246  0.5386 -0.2636 -0.7521
  105MOL0     C14073  10.055   6.322   9.242 -0.3973  0.3186 -0.1711
  105MOL0     C14074   9.957   6.262   9.159  0.1497 -0.2544  1.1958
  105MOL0     O14075   9.827   6.297   9.159 -0.2552  0.5497  0.1256
  105MOL0     C14076   9.755   6.314   9.035  0.4139 -0.4551 -0.4346
  105MOL0     C14077   9.618   6.390   9.047 -0.1696  0.1387  0.1753
  105MOL0     C14078   9.510   6.319   9.130  0.0656 -0.0440  0.4743
  105MOL0     C14079   9.390   6.410   9.166 -0.0665  0.6414  0.4098
  105MOL0     C14080   9.269   6.311   9.185 -0.1800 -0.2264  0.2465
  105MOL0     C14081   9.151   6.376   9.268  0.7757  1.0937  0.1228
  105MOL0     C14082   9.085   6.498   9.221 -0.2265  0.6560  0.6674
  105MOL0     C14083   9.065   6.525   9.068  0.6253  0.0655 -0.0746
  105MOL0    Cl14084   8.943   6.418   9.004  0.3538 -0.3724 -0.1738
  105MOL0     C14085   9.997   6.144   9.079  0.5475 -1.1336 -0.3895
  105MOL0     C14086  10.126   6.095   9.090  0.2612  0.1056  0.1822
  105MOL0     O14087  10.361   5.918   9.100 -0.5262 -0.6944  0.6118
  105MOL0     C14088  10.625   6.154   9.128 -0.3335 -0.1075 -0.0053
  105MOL0     C14089  10.765   6.162   9.111 -0.1803  0.1445 -0.9913
  105MOL0     N14090  10.947   5.850   9.594 -0.2282 -0.0389  0.4853
  105MOL0     N14091  10.822   5.828   9.593  0.7295 -0.2133 -0.3320
  105MOL0     C14092  10.258   6.355  10.198 -1.1590  0.3122 -0.1887
  105MOL0     C14093  10.212   6.487  10.227  0.1958  0.7770 -0.2419
  105MOL0     C14094  10.108   6.829  10.498  0.2718  1.0323  0.6058
  105MOL0     C14095  10.217   6.906  10.538  0.7215  0.0108  0.0380
  105MOL0     C14096  10.198   7.034  10.595  0.7982 -0.0025 -0.4569
  105MOL0     C14097  10.071   7.077  10.603 -0.3117  0.6643  0.4989
  105MOL0     O14098  10.054   7.201  10.659 -0.1370  0.9312 -0.0119
  105MOL0     C14099   9.921   7.240  10.707  0.3932  0.5927 -0.0773
  105MOL0     C14100   9.922   7.387  10.761 -0.5772 -0.2120  0.3426
  105MOL0     C14101   9.964   7.498  10.665 -0.4226 -1.1210  0.0508
  105MOL0     C14102   9.902   7.631  10.707  1.0595  0.1866  0.0462
  105MOL0     C14103   9.950   7.763  10.661 -0.2356 -1.0770  0.2614
  105MOL0     C14104  10.002   7.868  10.632  0.1683 -0.1778 -0.0472
  105MOL0     C14105   9.965   6.999  10.550  0.5246  0.7766 -0.2156
  105MOL0     C14106   9.981   6.869  10.505 -0.0884  0.6152  0.3227
  105MOL0     C14107   9.866   6.798  10.435 -0.3410  0.2931  0.6745
  105MOL0     H14108  10.478   6.626  10.371  1.0066 -2.1967  0.5546
  105MOL0     H14109  10.570   6.383  10.299  0.9233 -0.8967 -2.3603
  105MOL0     H14110  10.327   6.047  10.279 -0.1273 -0.4108 -0.4822
  105MOL0     H14111  10.275   6.093  10.122 -1.2483  1.4097  2.8102
  105MOL0     H14112  10.362   5.880  10.138 -2.1236  1.1941 -2.3063
  105MOL0     H14113  10.517   5.943  10.198  1.3894  0.0114 -0.4093
  105MOL0     H14114  10.527   5.887   9.957  2.8044  2.2909 -2.5358
  105MOL0     H14115  10.589   6.043  10.011  1.4974 -2.1480  0.3511
  105MOL0     H14116  10.338   5.980   9.849  0.5461 -1.2049  0.7269
  105MOL0     H14117  10.350   6.123   9.932 -2.0611 -1.3813  0.2084
  105MOL0     H14118  10.434   6.178   9.713 -1.5898  0.3500  0.6021
  105MOL0     H14119  10.573   6.180   9.816 -2.0592  1.5532 -0.9652
  105MOL0     H14120  10.683   6.023   9.718 -1.5347  0.1590  1.7459
  105MOL0     H14121  10.563   5.909   9.726 -0.8160  0.2078 -1.5910
  105MOL0     H14122  10.616   6.094   9.506  2.7186 -2.6002 -1.8110
  105MOL0     H14123  10.451   6.015   9.529 -0.2108 -0.7563 -0.1836
  105MOL0     H14124  10.581   5.797   9.511 -3.1497  0.1723 -0.3763
  105MOL0     H14125  10.604   5.901   9.362  1.3766 -1.1988 -0.5488
  105MOL0     H14126  10.843   6.037   9.350 -2.4217  0.0984  0.1242
  105MOL0     H14127  11.144   6.088   9.512 -0.3055  1.6579 -0.0775
  105MOL0     H14128  11.195   5.932   9.486 -2.4125 -2.5448  0.0756
  105MOL0     H14129  11.245   6.021   9.269  0.0874  4.1902 -2.6960
  105MOL0     H14130  11.087   5.940   9.239 -0.7231  0.2317  0.0505
  105MOL0     H14131  11.149   6.233   9.258  0.0756 -1.6752  2.0347
  105MOL0     H14132  10.980   6.171   9.275 -1.2554 -0.4828 -2.8140
  105MOL0     H14133  11.169   6.138   9.041  1.6702  2.9140  1.3026
  105MOL0     H14134  11.019   6.239   9.064 -6.5299 -2.7479 -0.5013
  105MOL0     H14135  10.815   5.839   8.982  0.2077 -0.7379 -0.7816
  105MOL0     H14136  10.580   5.832   9.010  2.0882 -0.7794 -3.9260
  105MOL0     H14137  10.260   6.326   9.299 -2.0022  0.9791  2.2049
  105MOL0     H14138  10.036   6.407   9.307  0.5102 -0.2136  0.8212
  105MOL0     H14139   9.821   6.373   8.970  5.0096 -2.3483  2.0550
  105MOL0     H14140   9.734   6.219   8.986 -2.6684 -0.1972  0.2155
  105MOL0     H14141   9.649   6.482   9.097 -0.1422  0.3212 -0.1831
  105MOL0     H14142   9.572   6.404   8.949  0.5712  1.3327 -0.0155
  105MOL0     H14143   9.480   6.239   9.063  1.1848 -0.3371  0.3089
  105MOL0     H14144   9.551   6.293   9.228  1.1686  2.0530  0.6246
  105MOL0     H14145   9.369   6.486   9.089  0.9849  0.9293  0.3901
  105MOL0     H14146   9.410   6.459   9.262 -0.7499  0.1950  0.7876
  105MOL0     H14147   9.309   6.226   9.241 -1.6812 -1.8928 -1.1086
  105MOL0     H14148   9.243   6.267   9.089  1.8348 -1.4404  0.1906
  105MOL0     H14149   9.065   6.309   9.274 -0.9709  3.2335  0.0528
  105MOL0     H14150   9.166   6.386   9.376 -0.4260  0.9363  0.3161
  105MOL0     H14151   9.151   6.583   9.241 -1.1149  1.9154 -1.3978
  105MOL0     H14152   8.989   6.520   9.269 -0.1390  0.1441  1.0919
  105MOL0     H14153   9.034   6.627   9.043 -0.3258 -0.8974 -3.4438
  105MOL0     H14154   9.151   6.506   9.003 -0.7878  1.0572 -2.3480
  105MOL0     H14155   9.934   6.082   9.016  2.2799 -2.4677 -0.8860
  105MOL0     H14156  10.166   6.019   9.024  0.6307  2.3280 -2.3369
  105MOL0     H14157  10.569   6.236   9.172  1.1956  1.3392 -0.6451
  105MOL0     H14158  10.817   6.240   9.164  0.5054 -1.1224  0.2682
  105MOL0     H14159  10.196   6.285  10.145 -0.8744  0.5759 -0.8830
  105MOL0     H14160  10.106   6.498  10.204 -0.3318 -1.2936  0.9663
  105MOL0     H14161  10.323   6.885  10.529  0.4272 -0.5534 -4.4856
  105MOL0     H14162  10.281   7.092  10.635  3.2345 -3.1987 -0.5121
  105MOL0     H14163   9.903   7.175  10.793  2.8868 -1.5330 -1.0346
  105MOL0     H14164   9.846   7.227  10.629  0.1944  1.0568  0.0301
  105MOL0     H14165   9.999   7.389  10.839 -1.8210  3.1731  1.6532
  105MOL0     H14166   9.830   7.404  10.817 -0.1750 -1.6724  1.4997
  105MOL0     H14167   9.932   7.493  10.560 -3.2786 -0.5596  0.8104
  105MOL0     H14168  10.071   7.505  10.689 -0.7641  1.3075  1.1652
  105MOL0     H14169   9.803   7.626  10.661  1.0607  1.0132 -0.0631
  105MOL0     H14170   9.878   7.633  10.814  1.2697 -0.2808  0.1039
  105MOL0     H14171  10.058   7.959  10.626  0.0164  0.0672  1.6550
  105MOL0     H14172   9.864   7.038  10.551 -0.8513 -2.2974 -2.2880
  105MOL0     H14173   9.877   6.808  10.327  0.9839  4.3446  1.0253
  105MOL0     H14174   9.857   6.693  10.465  0.0038  0.7228  2.4131
  105MOL0     H14175   9.767   6.841  10.454 -0.6762 -0.2984  0.2953
  106MOL0     O14176   6.654  11.122   9.002 -0.0465  0.0511  0.3072
  106MOL0     C14177   6.711  11.075   8.901  0.6895 -0.4010 -0.7619
  106MOL0     O14178   6.678  10.967   8.829 -0.2479  0.2782 -0.9835
  106MOL0     C14179   6.576  10.885   8.871 -0.5262  0.7711  1.1314
  106MOL0     C14180   6.551  10.853   9.009 -0.4877  0.6476 -0.3031
  106MOL0     C14181   6.442  10.772   9.046  0.2352  0.6636 -0.0088
  106MOL0     C14182   6.368  10.718   8.943  0.6193  1.4408 -0.5278
  106MOL0     O14183   6.257  10.640   8.965  0.4872 -0.1362 -0.4902
  106MOL0     C14184   6.280  10.519   9.037  0.8777  0.2651 -0.1467
  106MOL0     C14185   6.151  10.486   9.123 -0.7082 -0.8172 -0.1892
  106MOL0     C14186   6.156  10.354   9.193 -0.1838  0.7074  0.3643
  106MOL0     C14187   6.020  10.319   9.262 -0.0557 -0.2502  0.5028
  106MOL0     C14188   5.992  10.402   9.386 -0.2988  0.0149  0.0824
  106MOL0     C14189   6.105  10.403   9.488  0.3285  0.0122 -1.1548
  106MOL0     C14190   6.073  10.387   9.633  0.3514 -0.4222 -0.0770
  106MOL0     C14191   5.986  10.493   9.697  0.5467  0.1027 -0.6822
  106MOL0     N14192   6.057  10.600   9.761  0.1913 -0.6657  2.1877
  106MOL0     C14193   6.087  10.629   9.890 -0.4376  0.4213 -0.9346
  106MOL0     C14194   6.184  10.710   9.911  0.1795 -1.0572 -0.0058
  106MOL0     C14195   6.254  10.726  10.047  0.1740  0.5873 -0.1789
  106MOL0     C14196   6.402  10.711  10.021  0.7321 -0.4155 -0.1495
  106MOL0     C14197   6.485  10.670  10.152 -0.3792 -1.0425  0.9962
  106MOL0     C14198   6.478  10.793  10.256  0.5327  0.4436  0.8394
  106MOL0     O14199   6.553  10.911  10.222  0.3956  0.2738  0.5215
  106MOL0     C14200   6.691  10.899  10.245  1.3201 -0.3477  0.2651
  106MOL0     C14201   6.750  10.797  10.321  0.5745  0.6979 -0.4142
  106MOL0     C14202   6.893  10.791  10.339  0.1135  1.4332  0.1596
  106MOL0     C14203   6.976  10.884  10.277  0.1904  0.2066 -0.0324
  106MOL0     C14204   7.119  10.873  10.278 -0.3566 -0.6214 -1.0954
  106MOL0     O14205   7.179  10.960  10.200 -0.2681 -0.2518 -0.0987
  106MOL0     C14206   7.317  10.958  10.191 -0.1440 -0.6165  0.5704
  106MOL0     C14207   7.388  10.984  10.307 -1.3315 -0.4361  0.4939
  106MOL0     C14208   7.530  10.981  10.302  0.2905  0.0102  0.1656
  106MOL0     C14209   7.605  10.957  10.191 -0.1078  0.0532  0.5617
  106MOL0     O14210   7.741  10.937  10.207 -0.3008  0.0165 -0.3127
  106MOL0     C14211   7.808  10.886  10.082 -0.1833  0.4651 -0.1904
  106MOL0     C14212   7.960  10.866  10.120 -0.2132 -0.5552 -0.5124
  106MOL0     C14213   7.976  10.804  10.269  0.2525 -0.0072  0.2500
  106MOL0     C14214   8.120  10.776  10.312 -0.0171 -0.1226 -0.4715
  106MOL0     C14215   8.135  10.726  10.452 -0.5342 -0.3426 -0.3934
  106MOL0     C14216   8.286  10.745  10.481 -0.4009  0.3999 -0.0351
  106MOL0     C14217   8.317  10.690  10.624 -0.4884  0.0504 -0.7092
  106MOL0     C14218   8.382  10.552  10.620  0.2700  0.0586 -0.6519
  106MOL0    Cl14219   8.534  10.554  10.549 -0.2565 -0.1310  0.4398
  106MOL0     C14220   7.528  10.947  10.079 -0.0803  0.2421 -0.0727
  106MOL0     C14221   7.389  10.953  10.073  0.2075  0.2768  0.2700
  106MOL0     O14222   7.168  10.773  10.331 -0.0491 -0.4469  0.2297
  106MOL0     C14223   6.907  10.980  10.192 -0.0113  0.3521 -0.0736
  106MOL0     C14224   6.767  10.995  10.191 -0.0314  0.5618 -0.0647
  106MOL0     N14225   6.207  10.760   9.784 -0.2469 -0.2613 -0.5217
  106MOL0     N14226   6.148  10.680   9.700  0.4770 -0.0986  0.3316
  106MOL0     C14227   6.402  10.735   8.812  1.5214 -0.2846  0.6803
  106MOL0     C14228   6.502  10.818   8.769 -0.1290  0.6518  0.4777
  106MOL0     C14229   6.829  11.149   8.845  0.5324 -0.6213 -0.1027
  106MOL0     C14230   6.922  11.084   8.764 -0.7655  0.1618 -0.7445
  106MOL0     C14231   7.040  11.144   8.711  0.4414 -0.9600  0.2749
  106MOL0     C14232   7.059  11.276   8.734 -0.2787 -0.5159 -0.3041
  106MOL0     O14233   7.171  11.342   8.679  0.2872 -0.0054  0.5079
  106MOL0     C14234   7.207  11.321   8.545  0.4748 -0.1290  0.5441
  106MOL0     C14235   7.130  11.438   8.473  0.5998  0.1556 -0.9049
  106MOL0     C14236   7.139  11.437   8.320  0.8612  0.0427 -0.0858
  106MOL0     C14237   7.063  11.556   8.262  0.3336  0.0261 -0.3247
  106MOL0     C14238   6.922  11.555   8.259  0.0029  0.1103  0.0436
  106MOL0     C14239   6.803  11.549   8.266 -0.2140  0.8507 -0.0406
  106MOL0     C14240   6.971  11.351   8.814  0.8736 -0.2844  0.9892
  106MOL0     C14241   6.859  11.289   8.876  1.0406  0.1866  0.2745
  106MOL0     C14242   6.779  11.369   8.973 -1.1530 -0.1632  0.2217
  106MOL0     H14243   6.610  10.889   9.092 -1.0601  1.3895 -0.2127
  106MOL0     H14244   6.415  10.766   9.151  1.9846 -0.6167  0.4229
  106MOL0     H14245   6.287  10.442   8.960 -5.9552 -0.4658 -0.6481
  106MOL0     H14246   6.359  10.533   9.112  0.6322  3.0445 -0.2904
  106MOL0     H14247   6.059  10.483   9.063 -1.6401 -0.7805  1.1911
  106MOL0     H14248   6.150  10.562   9.202 -0.7968  0.2387 -1.1755
  106MOL0     H14249   6.233  10.362   9.271 -1.7345  2.3210  1.8200
  106MOL0     H14250   6.165  10.279   9.114 -1.4397  1.4457 -0.5093
  106MOL0     H14251   5.944  10.334   9.186  1.0381  0.7356 -0.4458
  106MOL0     H14252   6.022  10.212   9.285 -0.0739 -1.2697 -3.4991
  106MOL0     H14253   5.975  10.506   9.356 -2.0033 -0.1914  0.2847
  106MOL0     H14254   5.894  10.370   9.420 -0.4779 -0.1871 -0.5991
  106MOL0     H14255   6.161  10.313   9.460 -0.7059 -0.3295 -2.2055
  106MOL0     H14256   6.169  10.491   9.474 -0.6968  1.3820  1.9162
  106MOL0     H14257   6.165  10.368   9.691  2.8625 -1.9597 -4.1336
  106MOL0     H14258   6.017  10.294   9.637  0.0425 -0.3272 -1.7803
  106MOL0     H14259   5.924  10.522   9.612 -0.0511  1.0075  0.0414
  106MOL0     H14260   5.942  10.440   9.781 -0.3531 -2.6288 -2.7462
  106MOL0     H14261   6.045  10.583   9.979  1.3809  2.2088  0.9406
  106MOL0     H14262   6.227  10.825  10.085 -1.0583 -0.9967  3.5005
  106MOL0     H14263   6.219  10.648  10.115  1.6130 -0.3529 -0.4788
  106MOL0     H14264   6.429  10.640   9.942 -0.5593 -1.0373 -0.0566
  106MOL0     H14265   6.431  10.814  10.000 -5.4693  1.4525 -1.4743
  106MOL0     H14266   6.589  10.660  10.122 -0.6841  1.4316 -1.1802
  106MOL0     H14267   6.449  10.576  10.196 -2.4688  0.7135  3.3149
  106MOL0     H14268   6.492  10.766  10.361 -1.6776 -1.5295  0.7209
  106MOL0     H14269   6.374  10.827  10.256  0.7457  1.8707 -4.2590
  106MOL0     H14270   6.699  10.719  10.378  0.1635 -0.6806 -2.5638
  106MOL0     H14271   6.925  10.716  10.410  0.7610  1.1492 -0.4135
  106MOL0     H14272   7.340  11.005  10.402 -2.3493  2.2982 -0.5267
  106MOL0     H14273   7.565  10.987  10.404 -3.1366  2.7306  1.3518
  106MOL0     H14274   7.770  10.792  10.042 -1.1035  1.1055 -0.8702
  106MOL0     H14275   7.800  10.963  10.004  0.3653  1.4875  0.7288
  106MOL0     H14276   7.999  10.809  10.035 -2.8761  0.1721 -2.3597
  106MOL0     H14277   8.011  10.962  10.131  0.3064 -0.7552 -1.1329
  106MOL0     H14278   7.935  10.868  10.348 -0.8953  0.8461 -0.9882
  106MOL0     H14279   7.922  10.709  10.264 -1.6213  1.0397 -1.0423
  106MOL0     H14280   8.180  10.868  10.303 -0.5946  0.1302 -1.8838
  106MOL0     H14281   8.161  10.706  10.239 -0.9738  0.3313 -1.4796
  106MOL0     H14282   8.100  10.624  10.437  3.2790 -2.7185  4.0769
  106MOL0     H14283   8.078  10.794  10.516  0.9680  0.9809 -0.3747
  106MOL0     H14284   8.350  10.701  10.404 -0.5116 -0.6537  0.4576
  106MOL0     H14285   8.307  10.852  10.491  1.7839 -0.1996  3.8364
  106MOL0     H14286   8.229  10.690  10.689  0.7571  0.8154  1.0731
  106MOL0     H14287   8.396  10.754  10.665  1.1301  0.3111 -3.8928
  106MOL0     H14288   8.380  10.517  10.723 -0.3923 -0.2999 -0.7831
  106MOL0     H14289   8.317  10.478  10.571  1.5897 -0.0463 -2.3480
  106MOL0     H14290   7.569  10.913   9.985  1.0940  0.0536  0.4876
  106MOL0     H14291   7.342  10.920   9.981  1.2223  2.8457 -1.2831
  106MOL0     H14292   6.965  11.049  10.131 -0.4539 -1.0906 -2.2367
  106MOL0     H14293   6.719  11.072  10.132  2.4486  3.0928  0.9778
  106MOL0     H14294   6.333  10.689   8.741 -1.9695  1.8242  2.4350
  106MOL0     H14295   6.514  10.837   8.662  0.0518 -3.7398 -0.4379
  106MOL0     H14296   6.900  10.980   8.739  0.1499 -1.4209  3.9563
  106MOL0     H14297   7.109  11.077   8.660  1.0659  0.4250 -0.7615
  106MOL0     H14298   7.190  11.221   8.505 -0.5813  0.5841 -0.8552
  106MOL0     H14299   7.310  11.357   8.533  0.8570 -0.8019  1.6324
  106MOL0     H14300   7.172  11.531   8.512 -0.8718  0.3573  0.2884
  106MOL0     H14301   7.026  11.440   8.507  1.0446  0.5581  0.4982
  106MOL0     H14302   7.082  11.351   8.285 -0.5797  0.1650  1.7696
  106MOL0     H14303   7.243  11.429   8.286  0.6752 -0.1070 -0.6298
  106MOL0     H14304   7.096  11.638   8.327  2.6374  1.4114 -3.0386
  106MOL0     H14305   7.111  11.584   8.168 -0.0972 -1.3756 -0.9810
  106MOL0     H14306   6.696  11.557   8.267 -0.3550 -0.2541  2.5564
  106MOL0     H14307   6.993  11.450   8.851 -1.5282  0.2337  1.1853
  106MOL0     H14308   6.804  11.335   9.074  0.0425  0.1639  0.0599
  106MOL0     H14309   6.813  11.473   8.973 -0.4576 -0.3816  0.0522
  106MOL0     H14310   6.671  11.366   8.956 -1.2262  1.8364  0.0672
  107MOL0     O14311   8.489   3.810   3.716  1.1246  0.2560  0.5216
  107MOL0     C14312   8.597   3.776   3.658 -0.4502 -0.0300 -0.4628
  107MOL0     O14313   8.725   3.806   3.707  0.0422 -0.3605  0.2346
  107MOL0     C14314   8.752   3.934   3.759  0.1840  0.7598  1.4057
  107MOL0     C14315   8.802   3.935   3.888 -0.6073 -0.7951  0.2267
  107MOL0     C14316   8.827   4.063   3.937 -0.0171  0.7832 -1.0981
  107MOL0     C14317   8.808   4.183   3.868 -0.7355  0.1161  0.5173
  107MOL0     O14318   8.831   4.307   3.920 -0.4467  0.1975 -0.3967
  107MOL0     C14319   8.835   4.317   4.060 -0.6310  0.7939  0.3163
  107MOL0     C14320   8.867   4.467   4.073 -1.0294  0.3596  0.0816
  107MOL0     C14321   8.851   4.509   4.219 -0.3928  0.8444 -0.4836
  107MOL0     C14322   8.927   4.648   4.236  0.5270 -0.7899  0.1334
  107MOL0     C14323   8.913   4.710   4.368  0.0701  0.4249  0.0875
  107MOL0     C14324   8.761   4.751   4.412  0.4201 -0.9749  1.2348
  107MOL0     C14325   8.779   4.835   4.539 -0.5205 -0.0257 -0.1860
  107MOL0     C14326   8.656   4.906   4.590 -0.2778  0.0520  0.4795
  107MOL0     N14327   8.675   4.981   4.717 -0.1027 -0.4903 -0.1895
  107MOL0     C14328   8.764   4.941   4.808  0.2079  0.2370 -0.1114
  107MOL0     C14329   8.726   4.996   4.922  0.3039  0.3504 -0.2221
  107MOL0     C14330   8.798   5.000   5.042  0.2046 -0.1562  0.1791
  107MOL0     C14331   8.887   5.123   5.081  0.3834  0.2943  0.2950
  107MOL0     C14332   8.989   5.148   4.965  0.1052  1.1844 -0.7933
  107MOL0     C14333   9.102   5.246   4.997 -0.1767  0.3582 -0.4397
  107MOL0     O14334   9.220   5.234   4.916 -0.4953 -0.3388  0.0551
  107MOL0     C14335   9.331   5.310   4.947  0.2415  0.0636  0.6958
  107MOL0     C14336   9.330   5.404   5.053  0.6571  0.0385 -0.1583
  107MOL0     C14337   9.454   5.465   5.089  0.2157 -0.7518  0.0739
  107MOL0     C14338   9.570   5.436   5.012 -0.9034  0.0560 -0.0791
  107MOL0     C14339   9.706   5.494   5.040  0.0277  0.0803  1.0267
  107MOL0     O14340   9.811   5.475   4.944  0.5515  0.1629 -0.7677
  107MOL0     C14341   9.929   5.545   4.971  1.4115  0.2929 -0.1120
  107MOL0     C14342   9.927   5.680   4.985 -0.4136 -0.0397 -0.6684
  107MOL0     C14343  10.045   5.756   5.017  0.5518  0.7242 -0.9652
  107MOL0     C14344  10.162   5.686   5.039 -0.8901 -0.3046 -0.2482
  107MOL0     O14345  10.282   5.751   5.071  0.2027  0.0200 -0.0804
  107MOL0     C14346  10.308   5.889   5.029  0.5549  0.0080 -0.8799
  107MOL0     C14347  10.452   5.895   4.980  0.2260 -0.3531 -0.8026
  107MOL0     C14348  10.491   6.041   4.940 -0.1054  0.2545 -0.0111
  107MOL0     C14349  10.458   6.074   4.793  0.1082  0.7603 -0.0557
  107MOL0     C14350  10.503   6.217   4.742 -0.4517 -0.0401 -0.1571
  107MOL0     C14351  10.647   6.242   4.755 -0.5839 -1.2282  0.0295
  107MOL0     C14352  10.719   6.158   4.655  0.0597 -0.1446 -0.2972
  107MOL0     C14353  10.868   6.179   4.666 -0.5206  0.7159  1.0574
  107MOL0    Cl14354  10.947   6.055   4.552 -0.2657  0.0818  0.0569
  107MOL0     C14355  10.157   5.542   5.032 -0.2270 -0.6566 -0.1687
  107MOL0     C14356  10.053   5.475   4.977 -0.0185  0.3311  0.1359
  107MOL0     O14357   9.704   5.567   5.131 -0.7165 -0.3042  0.7098
  107MOL0     C14358   9.568   5.335   4.908  0.3590 -0.5108  0.6031
  107MOL0     C14359   9.443   5.281   4.879 -0.3872  0.2064 -0.5099
  107MOL0     N14360   8.617   5.081   4.893 -1.3669  0.3064 -0.4208
  107MOL0     N14361   8.579   5.058   4.777  0.1064  0.8358 -0.2853
  107MOL0     C14362   8.769   4.178   3.733 -0.0676 -0.4309  0.5919
  107MOL0     C14363   8.739   4.050   3.686  0.0057  0.1245 -0.6705
  107MOL0     C14364   8.587   3.686   3.538 -0.2454  0.1127 -0.1714
  107MOL0     C14365   8.465   3.631   3.495 -0.5474  0.1615 -1.1146
  107MOL0     C14366   8.453   3.530   3.409  0.7553  0.0549 -0.0246
  107MOL0     C14367   8.563   3.478   3.350 -0.9659  0.0877  0.6762
  107MOL0     O14368   8.550   3.376   3.261 -0.2149  0.2339 -0.2583
  107MOL0     C14369   8.521   3.421   3.126 -0.5101  0.1705  0.3936
  107MOL0     C14370   8.565   3.303   3.041  0.2154 -0.1831  0.0700
  107MOL0     C14371   8.720   3.309   3.023 -0.0448  0.4492  0.2030
  107MOL0     C14372   8.795   3.168   3.009 -0.0606 -0.6572 -1.0571
  107MOL0     C14373   8.849   3.143   2.876  0.0824 -0.1303 -0.4253
  107MOL0     C14374   8.888   3.112   2.762 -0.2877 -0.2090  0.3256
  107MOL0     C14375   8.693   3.541   3.367  0.2485 -0.3057  0.2095
  107MOL0     C14376   8.704   3.645   3.463  0.2104  0.1649  0.0864
  107MOL0     C14377   8.834   3.712   3.480 -0.2009  0.6804  0.6036
  107MOL0     H14378   8.831   3.843   3.937  1.0381 -0.2935  0.2387
  107MOL0     H14379   8.864   4.057   4.039  3.3770 -0.7949 -2.2914
  107MOL0     H14380   8.733   4.305   4.095 -0.9478  0.4639 -0.6883
  107MOL0     H14381   8.907   4.250   4.109 -3.5010 -2.9474 -0.1303
  107MOL0     H14382   8.802   4.526   4.007 -0.3247  0.8637 -0.1765
  107MOL0     H14383   8.967   4.490   4.035 -0.2770  0.2372  1.8974
  107MOL0     H14384   8.899   4.439   4.288  0.3315  3.3044  1.6746
  107MOL0     H14385   8.744   4.516   4.243 -0.0777 -2.7778  2.9512
  107MOL0     H14386   9.034   4.630   4.222  1.1553  2.2926  0.1438
  107MOL0     H14387   8.894   4.719   4.159 -0.8992  1.2241  2.4596
  107MOL0     H14388   8.950   4.642   4.446 -2.6776 -2.1358 -0.6395
  107MOL0     H14389   8.980   4.796   4.368  0.5108  0.0899  0.8855
  107MOL0     H14390   8.712   4.802   4.328  0.6540  0.5032  1.9696
  107MOL0     H14391   8.694   4.668   4.434 -0.4080 -0.7646 -0.3614
  107MOL0     H14392   8.864   4.905   4.538 -1.0248  0.8239  3.1113
  107MOL0     H14393   8.799   4.767   4.622 -3.7357  0.1274  0.8540
  107MOL0     H14394   8.609   4.964   4.510  0.5652  0.2613  0.1308
  107MOL0     H14395   8.583   4.828   4.615  1.5281 -1.5511  1.0190
  107MOL0     H14396   8.847   4.872   4.809  0.0854 -0.0726  3.9987
  107MOL0     H14397   8.725   4.985   5.122 -0.1437  0.4820 -0.0022
  107MOL0     H14398   8.863   4.913   5.034 -2.1347 -1.8813 -1.5437
  107MOL0     H14399   8.824   5.212   5.091  0.2862  0.0842  1.7664
  107MOL0     H14400   8.938   5.115   5.177 -0.6291 -0.9223  0.7506
  107MOL0     H14401   8.936   5.179   4.875 -0.0519  1.1591 -0.7094
  107MOL0     H14402   9.044   5.056   4.945  1.9939  2.1583 -0.3150
  107MOL0     H14403   9.137   5.221   5.097  1.3934  0.8794 -0.8332
  107MOL0     H14404   9.056   5.344   4.982  2.0126  1.2098 -2.1820
  107MOL0     H14405   9.241   5.425   5.113  0.4358 -1.9420  0.2635
  107MOL0     H14406   9.465   5.528   5.177  2.8700  1.0689 -1.4266
  107MOL0     H14407   9.836   5.739   4.976  0.5825  1.5769 -0.5714
  107MOL0     H14408  10.037   5.862   5.036  0.8383  0.1900  2.7685
  107MOL0     H14409  10.239   5.938   4.960 -1.4607  1.6048  2.0352
  107MOL0     H14410  10.301   5.952   5.118 -1.1857 -1.4029  0.0378
  107MOL0     H14411  10.528   5.858   5.050  1.1074  1.4550 -0.7606
  107MOL0     H14412  10.466   5.829   4.894 -1.2381 -0.7374 -0.7737
  107MOL0     H14413  10.434   6.101   5.012  1.7758 -1.2405  2.9322
  107MOL0     H14414  10.597   6.054   4.963  1.2230 -2.0519 -3.9233
  107MOL0     H14415  10.349   6.079   4.784  0.1234 -0.8670 -1.7796
  107MOL0     H14416  10.486   5.996   4.722  1.1415  3.9622 -3.5377
  107MOL0     H14417  10.464   6.286   4.818  1.3554  0.2088  0.6096
  107MOL0     H14418  10.457   6.230   4.644 -1.2771  1.6038  0.4000
  107MOL0     H14419  10.663   6.347   4.731 -2.2381 -0.7678  0.8212
  107MOL0     H14420  10.682   6.217   4.855  1.4114 -2.0434 -0.8132
  107MOL0     H14421  10.689   6.184   4.553 -2.3213  1.5510  0.7406
  107MOL0     H14422  10.705   6.053   4.683  0.9594 -0.4923 -1.1171
  107MOL0     H14423  10.886   6.278   4.623 -1.2360  0.7070  0.7116
  107MOL0     H14424  10.924   6.170   4.759  0.7761 -1.2106  0.1574
  107MOL0     H14425  10.254   5.505   5.062 -0.4196 -0.4696  0.7297
  107MOL0     H14426  10.062   5.370   4.952 -0.9507  0.7865 -2.3679
  107MOL0     H14427   9.633   5.296   4.830 -0.3525  1.6114 -1.1524
  107MOL0     H14428   9.447   5.193   4.816  0.9735 -1.9623  2.3398
  107MOL0     H14429   8.781   4.254   3.658 -0.5978 -0.4274  0.5043
  107MOL0     H14430   8.708   4.038   3.582 -2.9509 -0.0889  0.1502
  107MOL0     H14431   8.372   3.661   3.543 -0.5060 -1.3486 -0.0332
  107MOL0     H14432   8.358   3.490   3.376  1.1936 -1.3329  0.3121
  107MOL0     H14433   8.575   3.510   3.093  0.8573 -1.7101 -3.0069
  107MOL0     H14434   8.414   3.440   3.114 -0.8576 -1.6751  0.3389
  107MOL0     H14435   8.519   3.306   2.941  1.6369  1.4774 -0.5908
  107MOL0     H14436   8.536   3.210   3.090  1.9810 -1.1246 -0.5712
  107MOL0     H14437   8.751   3.362   3.113 -0.2792  2.1066 -0.6374
  107MOL0     H14438   8.732   3.378   2.938  0.1652 -0.3077 -0.3870
  107MOL0     H14439   8.880   3.177   3.077  0.2761 -3.8645 -0.8918
  107MOL0     H14440   8.735   3.090   3.057  1.4351 -0.8168  0.6619
  107MOL0     H14441   8.913   3.117   2.658 -1.0266  1.3545  0.1977
  107MOL0     H14442   8.780   3.492   3.325  0.2383  1.0488 -1.5040
  107MOL0     H14443   8.904   3.692   3.399  0.6772  0.6874  1.3486
  107MOL0     H14444   8.814   3.819   3.475  1.5306  1.2142  3.2771
  107MOL0     H14445   8.882   3.681   3.573  1.3180 -0.0968 -0.4081
  108MOL0     O14446   4.101   2.172   1.351 -0.0192  0.0541  0.4294
  108MOL0     C14447   3.980   2.150   1.325 -0.1760 -0.2789  1.3407
  108MOL0     O14448   3.878   2.139   1.414 -0.1954  0.0444  0.5430
  108MOL0     C14449   3.904   2.086   1.537  0.4104 -0.3156  0.6655
  108MOL0     C14450   3.956   1.955   1.547  0.3811 -0.0423 -0.3745
  108MOL0     C14451   3.986   1.905   1.668  0.4230  0.4656  1.5060
  108MOL0     C14452   3.957   1.968   1.789  0.3920  0.2300 -0.6430
  108MOL0     O14453   3.966   1.884   1.905 -0.9506  0.0728 -0.2363
  108MOL0     C14454   3.934   1.919   2.044  0.0177 -0.2580  0.5585
  108MOL0     C14455   3.811   1.837   2.093 -0.8100 -0.1603  0.1806
  108MOL0     C14456   3.818   1.688   2.051 -0.0433 -0.4721  0.3854
  108MOL0     C14457   3.729   1.689   1.918 -0.0303  0.5085 -0.9707
  108MOL0     C14458   3.760   1.559   1.846 -0.3123 -0.3380  0.1074
  108MOL0     C14459   3.896   1.531   1.783  0.7709 -0.2218  0.0051
  108MOL0     C14460   3.922   1.378   1.745  0.3897  0.1804 -0.1774
  108MOL0     C14461   4.047   1.343   1.655  0.8107  0.0216  0.1343
  108MOL0     N14462   4.017   1.207   1.609 -0.3093  0.2342 -0.9323
  108MOL0     C14463   4.006   1.152   1.476  0.6489  0.2728 -0.5678
  108MOL0     C14464   4.008   1.021   1.503  0.0518  0.8563 -0.0480
  108MOL0     C14465   3.991   0.914   1.411 -1.0033 -0.1289 -0.1210
  108MOL0     C14466   3.950   0.957   1.266  0.0600  0.0659 -0.1754
  108MOL0     C14467   3.924   0.831   1.176  0.3122 -0.1953  0.8047
  108MOL0     C14468   3.812   0.857   1.077 -0.6811  0.4641 -1.4235
  108MOL0     O14469   3.686   0.829   1.148  0.3595  0.1188  0.1078
  108MOL0     C14470   3.569   0.824   1.074 -0.9021 -0.5243 -0.5118
  108MOL0     C14471   3.446   0.839   1.137 -0.4325 -0.2561 -0.5912
  108MOL0     C14472   3.325   0.811   1.070  0.4769 -0.4935 -0.4272
  108MOL0     C14473   3.323   0.794   0.924 -0.1212 -0.1200 -0.3637
  108MOL0     C14474   3.203   0.750   0.851 -0.3127  0.0416 -0.5439
  108MOL0     O14475   3.208   0.743   0.712 -0.2537 -0.6227 -0.5059
  108MOL0     C14476   3.096   0.760   0.639  0.0013  0.4725 -0.8229
  108MOL0     C14477   2.993   0.651   0.629  0.1760 -0.6358  0.6510
  108MOL0     C14478   2.877   0.674   0.562  0.5809  0.2229 -0.4163
  108MOL0     C14479   2.857   0.787   0.490 -0.6238 -0.0439  0.8626
  108MOL0     O14480   2.747   0.791   0.410  0.4515  0.3735  0.8055
  108MOL0     C14481   2.725   0.890   0.305  0.9729  0.6510  0.3709
  108MOL0     C14482   2.612   0.848   0.211 -0.4850  0.4674  0.5712
  108MOL0     C14483   2.474   0.845   0.267  0.2315 -0.5297 -0.2609
  108MOL0     C14484   2.437   0.709   0.327  0.2221  0.4514 -0.2117
  108MOL0     C14485   2.301   0.719   0.400  0.4360 -0.3287 -0.2964
  108MOL0     C14486   2.217   0.588   0.395 -0.2106  0.9123 -0.4002
  108MOL0     C14487   2.295   0.476   0.462  1.3918 -0.7881  0.8558
  108MOL0     C14488   2.197   0.387   0.546 -0.7303  0.9137 -0.0229
  108MOL0    Cl14489   2.057   0.306   0.475 -0.3469 -1.3136  0.0603
  108MOL0     C14490   2.955   0.895   0.489  0.1542  0.7791  0.4840
  108MOL0     C14491   3.072   0.882   0.570  0.8227  0.4511 -0.6350
  108MOL0     O14492   3.101   0.734   0.913 -0.0195  0.2846 -0.5309
  108MOL0     C14493   3.443   0.796   0.863 -0.1505 -0.7075  0.0928
  108MOL0     C14494   3.562   0.813   0.931 -0.3247 -0.4972 -0.7622
  108MOL0     N14495   4.012   0.997   1.639  0.2380  0.1753  0.7273
  108MOL0     N14496   4.001   1.103   1.700  0.3640  0.1629 -0.3244
  108MOL0     C14497   3.913   2.096   1.782 -1.0894  0.1043  0.6538
  108MOL0     C14498   3.887   2.159   1.652 -0.7425 -0.7419  0.3259
  108MOL0     C14499   3.935   2.223   1.198 -0.1014  0.4787 -0.0636
  108MOL0     C14500   3.896   2.361   1.211  0.6196  1.2565  0.9921
  108MOL0     C14501   3.850   2.432   1.097  1.0896 -0.3716  0.6598
  108MOL0     C14502   3.845   2.377   0.973 -0.4118 -0.3011 -0.0643
  108MOL0     O14503   3.809   2.449   0.862 -0.2506 -0.8476  0.4357
  108MOL0     C14504   3.815   2.391   0.726 -0.8886  0.2451  1.0269
  108MOL0     C14505   3.799   2.489   0.612 -0.4828  0.1279  0.5692
  108MOL0     C14506   3.886   2.607   0.616 -1.0688  0.1059 -0.4146
  108MOL0     C14507   3.816   2.727   0.549  0.3375 -0.6933 -0.9625
  108MOL0     C14508   3.904   2.844   0.550  1.6887  0.5250 -0.1627
  108MOL0     C14509   3.976   2.940   0.535 -0.1200 -0.3023 -0.3194
  108MOL0     C14510   3.882   2.239   0.972  0.5369  0.1457  0.7985
  108MOL0     C14511   3.929   2.163   1.070  0.4462 -0.5518 -0.4165
  108MOL0     C14512   3.955   2.017   1.043 -0.2118 -0.1135 -0.2910
  108MOL0     H14513   3.977   1.886   1.466 -1.0387 -0.3105 -0.5382
  108MOL0     H14514   4.025   1.804   1.671  2.1410  0.8222 -2.6313
  108MOL0     H14515   4.025   1.904   2.103 -2.8903 -1.7633  5.1837
  108MOL0     H14516   3.914   2.027   2.047  3.1940  0.5406 -1.7796
  108MOL0     H14517   3.720   1.883   2.051 -0.6998 -1.4091 -1.5620
  108MOL0     H14518   3.796   1.841   2.201 -0.6797  2.0489  0.1648
  108MOL0     H14519   3.759   1.637   2.127  0.4466 -0.1815  0.9711
  108MOL0     H14520   3.918   1.645   2.046  0.9743  1.4282  2.8830
  108MOL0     H14521   3.623   1.712   1.934  0.6301  2.3961  1.1921
  108MOL0     H14522   3.752   1.772   1.850 -0.8633  0.9300 -0.7561
  108MOL0     H14523   3.735   1.480   1.917  3.2654 -1.8910 -0.1655
  108MOL0     H14524   3.689   1.557   1.763  1.7308  0.8736 -1.7912
  108MOL0     H14525   3.903   1.592   1.693 -2.8783 -1.0485 -1.0077
  108MOL0     H14526   3.973   1.554   1.857  0.1538 -1.2364  0.9947
  108MOL0     H14527   3.834   1.339   1.693 -0.1847  0.7033  0.3773
  108MOL0     H14528   3.925   1.316   1.835 -1.6845 -1.4597 -1.1435
  108MOL0     H14529   4.061   1.405   1.566 -0.7769  0.1209 -0.0793
  108MOL0     H14530   4.138   1.345   1.716 -1.0431  0.5015  3.1149
  108MOL0     H14531   3.997   1.195   1.377 -4.4998  3.0704  0.7138
  108MOL0     H14532   4.086   0.860   1.399 -1.9839 -1.7312 -1.0268
  108MOL0     H14533   3.923   0.832   1.438 -1.7802  0.7007  0.5078
  108MOL0     H14534   3.864   1.022   1.253 -1.0002 -1.1679  0.4032
  108MOL0     H14535   4.028   1.019   1.222  0.4766 -0.3141  0.0166
  108MOL0     H14536   3.917   0.745   1.243  0.6566  0.7616  2.1293
  108MOL0     H14537   4.018   0.817   1.122 -0.4094  0.8664 -0.8100
  108MOL0     H14538   3.830   0.798   0.987 -2.1104 -4.2481  1.0421
  108MOL0     H14539   3.820   0.959   1.038  2.9227  0.5806 -0.7776
  108MOL0     H14540   3.433   0.872   1.240  0.1635 -1.7734 -0.0082
  108MOL0     H14541   3.238   0.808   1.136  0.0445 -0.5047 -0.9907
  108MOL0     H14542   3.017   0.568   0.695  2.5828 -0.3967  0.1464
  108MOL0     H14543   2.802   0.597   0.549  2.8498 -2.8344  2.7711
  108MOL0     H14544   2.710   0.991   0.344 -1.0692  0.7026 -0.4269
  108MOL0     H14545   2.813   0.908   0.243  1.2035  2.0449  1.0693
  108MOL0     H14546   2.613   0.914   0.124 -2.5325  1.2052  1.0544
  108MOL0     H14547   2.653   0.757   0.166 -0.3746  0.9511 -0.3434
  108MOL0     H14548   2.471   0.926   0.340  1.7247 -0.9110  0.2573
  108MOL0     H14549   2.401   0.856   0.187  1.5053  1.3048 -1.2521
  108MOL0     H14550   2.514   0.664   0.390 -0.8451 -0.6709  0.3497
  108MOL0     H14551   2.430   0.633   0.249 -1.1482  1.0178 -0.6819
  108MOL0     H14552   2.248   0.789   0.335  2.2588  0.2467 -1.2177
  108MOL0     H14553   2.302   0.770   0.497 -1.0285 -0.2004 -0.3248
  108MOL0     H14554   2.122   0.606   0.446  0.2966  2.0026  0.2059
  108MOL0     H14555   2.202   0.568   0.289 -1.8913  0.0188 -0.0317
  108MOL0     H14556   2.368   0.521   0.529  2.0963  1.3111 -1.1844
  108MOL0     H14557   2.345   0.425   0.380 -0.8562  2.8986 -3.2532
  108MOL0     H14558   2.261   0.306   0.583 -0.6056  0.6608 -0.7780
  108MOL0     H14559   2.162   0.449   0.630 -0.9411 -0.7932  1.2104
  108MOL0     H14560   2.949   0.983   0.425  2.0858 -0.0639 -0.9674
  108MOL0     H14561   3.148   0.959   0.580 -0.8660  2.0586  0.4500
  108MOL0     H14562   3.454   0.780   0.756  2.2649 -0.6794  0.2831
  108MOL0     H14563   3.644   0.825   0.860  0.6854  0.0209  0.4521
  108MOL0     H14564   3.886   2.145   1.875  0.9268 -0.9529  1.8667
  108MOL0     H14565   3.831   2.252   1.642 -0.5312 -0.9047 -4.4952
  108MOL0     H14566   3.887   2.402   1.311 -2.9792  0.9451  0.9344
  108MOL0     H14567   3.798   2.528   1.098 -2.3588 -2.0961  1.8445
  108MOL0     H14568   3.730   2.322   0.713  0.8332 -1.6479 -0.9442
  108MOL0     H14569   3.907   2.334   0.714 -0.9450  0.1824  0.8907
  108MOL0     H14570   3.697   2.529   0.613  0.3504  2.4158  1.8119
  108MOL0     H14571   3.821   2.431   0.522 -1.3669  1.6411 -0.6587
  108MOL0     H14572   3.990   2.579   0.594  1.5927  5.5506  2.8907
  108MOL0     H14573   3.912   2.628   0.721  0.0166 -1.9449 -0.2135
  108MOL0     H14574   3.793   2.706   0.444 -2.4332  0.7855 -0.7284
  108MOL0     H14575   3.720   2.748   0.596  2.0095 -0.2796  2.5788
  108MOL0     H14576   4.039   3.025   0.520  1.6905 -0.8436  3.2132
  108MOL0     H14577   3.874   2.193   0.874  2.1045 -0.1552  0.7846
  108MOL0     H14578   4.036   1.983   1.108 -1.3771 -2.6621 -0.0490
  108MOL0     H14579   3.864   1.965   1.075 -0.4688  0.4227 -0.1430
  108MOL0     H14580   3.987   1.994   0.941  0.6449  0.6019 -0.1839
  109MOL0     O14581   9.718  10.903   4.298  0.4060 -0.4061  0.7330
  109MOL0     C14582   9.747  10.829   4.210  0.7391 -0.2714  0.5332
  109MOL0     O14583   9.705  10.837   4.083 -0.0355  0.7081 -0.5721
  109MOL0     C14584   9.622  10.942   4.061 -1.4966 -0.3331 -0.7788
  109MOL0     C14585   9.483  10.931   4.059 -0.6366  0.3801 -0.8892
  109MOL0     C14586   9.401  11.047   4.055  0.7441 -0.5586  0.4382
  109MOL0     C14587   9.465  11.170   4.025 -0.5587 -0.4994  0.1714
  109MOL0     O14588   9.392  11.282   4.018 -0.1168 -0.3608 -0.6217
  109MOL0     C14589   9.288  11.280   3.919 -0.2147  0.6477 -0.4639
  109MOL0     C14590   9.245  11.407   3.872  0.3472 -0.0342  0.2535
  109MOL0     C14591   9.189  11.497   3.987  0.7382 -0.1128 -0.0417
  109MOL0     C14592   9.116  11.619   3.919 -0.0080  0.5854 -0.3217
  109MOL0     C14593   9.044  11.702   4.019 -0.4308 -0.3612  0.1957
  109MOL0     C14594   9.140  11.813   4.072 -0.3108 -0.2293  0.0841
  109MOL0     C14595   9.096  11.875   4.204 -0.0670 -0.3865 -0.6055
  109MOL0     C14596   9.007  11.998   4.179  0.5631  0.7933 -0.0001
  109MOL0     N14597   8.936  12.052   4.300 -0.3697 -0.7910  0.3340
  109MOL0     C14598   8.947  12.190   4.333 -0.2713 -0.3039  0.4099
  109MOL0     C14599   8.854  12.212   4.427  0.1698  0.8363  0.3893
  109MOL0     C14600   8.841  12.352   4.482  0.1314  0.7087 -0.7214
  109MOL0     C14601   8.938  12.379   4.601  0.0815  0.5860  1.0382
  109MOL0     C14602   8.888  12.500   4.682 -0.0083  0.1537  0.0409
  109MOL0     C14603   8.922  12.632   4.621  0.3315  0.1234  0.1163
  109MOL0     O14604   8.880  12.742   4.708 -0.9444 -0.1380 -0.0483
  109MOL0     C14605   8.868  12.864   4.654  0.0626  0.2558 -0.2847
  109MOL0     C14606   8.938  12.908   4.537 -0.6486 -0.0709 -0.3516
  109MOL0     C14607   8.920  13.037   4.483  0.3739  0.0750 -0.5763
  109MOL0     C14608   8.835  13.133   4.548 -0.7462 -0.4295  0.6568
  109MOL0     C14609   8.821  13.272   4.481 -0.6115 -0.5559  0.3423
  109MOL0     O14610   8.702  13.335   4.508  0.4594  0.2272 -0.1573
  109MOL0     C14611   8.691  13.466   4.452  0.2175  0.0117  0.2243
  109MOL0     C14612   8.591  13.493   4.359  0.1897 -0.5067 -0.0973
  109MOL0     C14613   8.582  13.616   4.293  0.1204 -0.2041 -0.3979
  109MOL0     C14614   8.678  13.710   4.310  0.4844  0.8565  0.7390
  109MOL0     O14615   8.645  13.830   4.250  0.1869  0.4912 -0.2418
  109MOL0     C14616   8.722  13.944   4.286  0.1144 -1.1821 -0.7006
  109MOL0     C14617   8.644  14.067   4.243 -1.0091 -0.4177 -0.2005
  109MOL0     C14618   8.581  14.065   4.104  0.7368  0.0522  0.2362
  109MOL0     C14619   8.498  14.189   4.080 -0.7548 -1.1889 -0.5015
  109MOL0     C14620   8.430  14.192   3.945 -0.2812  0.9394  0.4232
  109MOL0     C14621   8.382  14.334   3.910 -0.0745  0.4870 -0.4010
  109MOL0     C14622   8.248  14.326   3.832  0.5676 -0.0189 -0.5599
  109MOL0     C14623   8.179  14.465   3.845 -0.0175 -0.1682  0.3003
  109MOL0    Cl14624   8.015  14.449   3.787  0.2565  0.0212  0.4787
  109MOL0     C14625   8.779  13.684   4.394 -0.2281  0.5607 -0.1897
  109MOL0     C14626   8.787  13.570   4.468 -0.7688  0.0922  0.3333
  109MOL0     O14627   8.907  13.302   4.390 -1.0527  0.4624  0.1747
  109MOL0     C14628   8.772  13.092   4.668 -0.7000 -0.4141 -0.5428
  109MOL0     C14629   8.792  12.963   4.714  0.3463 -0.2713  0.0627
  109MOL0     N14630   8.764  12.099   4.430  0.1872 -0.1310 -0.8894
  109MOL0     N14631   8.821  12.013   4.356 -0.6330 -0.2132  0.0307
  109MOL0     C14632   9.604  11.174   4.000  0.0168  0.2173 -0.4407
  109MOL0     C14633   9.682  11.055   4.029  0.0167 -1.2121  0.2993
  109MOL0     C14634   9.836  10.714   4.262 -0.7821  0.4733  0.0404
  109MOL0     C14635   9.784  10.587   4.243 -0.8626 -0.1030 -0.6493
  109MOL0     C14636   9.843  10.475   4.308 -0.5905 -0.2352  0.5280
  109MOL0     C14637   9.957  10.490   4.392 -0.2463  0.2694 -0.4941
  109MOL0     O14638  10.020  10.394   4.468 -0.4884 -0.2767  0.2059
  109MOL0     C14639   9.987  10.257   4.444  0.9559  0.4895 -0.0967
  109MOL0     C14640  10.102  10.174   4.509  1.3126  0.4811 -0.7112
  109MOL0     C14641  10.116  10.188   4.671  1.3301  0.2851  0.3681
  109MOL0     C14642  10.026  10.093   4.760  0.0296 -1.0469  0.3480
  109MOL0     C14643  10.101   9.980   4.807 -0.4132 -1.0284 -0.1785
  109MOL0     C14644  10.178   9.885   4.811 -0.1512 -0.3102  0.6548
  109MOL0     C14645  10.021  10.619   4.400  0.2288  0.1936 -0.2250
  109MOL0     C14646   9.955  10.733   4.345  0.2730 -0.6339  0.7141
  109MOL0     C14647  10.025  10.866   4.368 -0.4923  0.5116  0.2586
  109MOL0     H14648   9.444  10.832   4.080  2.3414 -0.4862  1.2910
  109MOL0     H14649   9.293  11.041   4.065  0.4214  1.4562 -1.2309
  109MOL0     H14650   9.326  11.226   3.833 -0.5777 -0.4371  0.0423
  109MOL0     H14651   9.200  11.227   3.958  1.0134 -0.0321  1.5358
  109MOL0     H14652   9.166  11.390   3.799  2.4762 -1.5711 -1.8822
  109MOL0     H14653   9.323  11.461   3.817  0.1546 -0.7758 -0.7796
  109MOL0     H14654   9.270  11.530   4.053 -1.4498  0.0175  2.7536
  109MOL0     H14655   9.120  11.444   4.053  1.1147  1.0387  1.3234
  109MOL0     H14656   9.187  11.678   3.860  1.0459  1.3930  1.6264
  109MOL0     H14657   9.037  11.582   3.853 -1.4007  2.9513 -0.0898
  109MOL0     H14658   8.960  11.752   3.972 -0.2409  1.7449  1.9164
  109MOL0     H14659   9.001  11.634   4.093  1.9445  0.0414  2.1019
  109MOL0     H14660   9.241  11.777   4.091 -0.5725 -0.1698  1.8066
  109MOL0     H14661   9.134  11.895   4.000 -3.2934  0.0987  0.5792
  109MOL0     H14662   9.185  11.909   4.257  2.0634 -1.7834 -3.0592
  109MOL0     H14663   9.050  11.800   4.270  0.2524 -0.8986 -0.9571
  109MOL0     H14664   9.048  12.084   4.127  3.2928 -0.6325 -0.4290
  109MOL0     H14665   8.927  11.967   4.112  0.4722 -1.4947  1.0521
  109MOL0     H14666   9.030  12.255   4.306  2.7533 -4.3815 -1.1375
  109MOL0     H14667   8.851  12.425   4.402  1.8736 -0.4396 -1.6150
  109MOL0     H14668   8.739  12.375   4.514 -0.5859  2.5013 -3.8731
  109MOL0     H14669   8.947  12.293   4.667 -1.5688 -0.4855 -0.0350
  109MOL0     H14670   9.038  12.396   4.560  0.2381 -1.1069  0.6203
  109MOL0     H14671   8.924  12.499   4.785  0.0608  1.8104  0.0512
  109MOL0     H14672   8.780  12.502   4.697 -0.0774  0.6962 -0.4993
  109MOL0     H14673   8.881  12.646   4.521  4.5010 -1.2601 -2.0261
  109MOL0     H14674   9.029  12.643   4.604  0.2545 -0.5174 -0.8534
  109MOL0     H14675   9.009  12.853   4.476 -1.3884 -1.9417  0.3890
  109MOL0     H14676   8.960  13.053   4.384 -0.9506  0.3719 -1.0837
  109MOL0     H14677   8.516  13.423   4.324  1.5879 -0.9094 -2.4931
  109MOL0     H14678   8.498  13.625   4.226 -2.7510 -0.2312  2.9239
  109MOL0     H14679   8.736  13.945   4.394  2.1019  1.2627 -0.8908
  109MOL0     H14680   8.820  13.941   4.236  0.8044 -2.6477  0.6274
  109MOL0     H14681   8.569  14.081   4.321 -1.9934 -1.4080 -0.9349
  109MOL0     H14682   8.704  14.158   4.245 -0.8100 -0.5253 -0.9261
  109MOL0     H14683   8.667  14.055   4.038  0.3438  0.7326 -0.4072
  109MOL0     H14684   8.513  13.981   4.090  0.6882  0.3910 -1.9193
  109MOL0     H14685   8.579  14.262   4.081  0.2889 -2.2094  2.8089
  109MOL0     H14686   8.430  14.219   4.160 -0.7347  2.3973 -1.6694
  109MOL0     H14687   8.353  14.116   3.931 -1.7045  2.5070 -0.4893
  109MOL0     H14688   8.512  14.160   3.880  0.6999 -0.8609  2.3867
  109MOL0     H14689   8.364  14.398   3.997 -2.1176  1.2352 -1.3087
  109MOL0     H14690   8.462  14.387   3.857 -0.2316  0.7122 -0.4127
  109MOL0     H14691   8.183  14.247   3.869  3.1330 -1.2331  1.7412
  109MOL0     H14692   8.272  14.322   3.726  1.6542 -0.9970 -0.2963
  109MOL0     H14693   8.174  14.504   3.947 -0.5582 -0.6527  0.4680
  109MOL0     H14694   8.212  14.550   3.784 -1.4009  0.3954  0.2902
  109MOL0     H14695   8.846  13.767   4.413 -0.3427  1.0998 -1.9188
  109MOL0     H14696   8.876  13.573   4.529 -0.5722 -0.9559  0.1173
  109MOL0     H14697   8.717  13.171   4.718 -1.2877 -0.9263 -0.3623
  109MOL0     H14698   8.737  12.929   4.801  0.2251 -2.2100 -0.7122
  109MOL0     H14699   9.663  11.262   3.974  0.2912  0.4039  0.7176
  109MOL0     H14700   9.790  11.066   4.019 -0.2810  1.3763 -0.8735
  109MOL0     H14701   9.692  10.573   4.186 -2.9160  2.3602  1.7283
  109MOL0     H14702   9.789  10.381   4.301  1.2309 -1.1959 -2.1328
  109MOL0     H14703   9.977  10.230   4.338  1.3684 -3.7609  0.7379
  109MOL0     H14704   9.893  10.249   4.500  0.8463  3.9730  0.4034
  109MOL0     H14705  10.194  10.218   4.469  3.0045 -0.4780  1.8669
  109MOL0     H14706  10.101  10.065   4.495 -0.1086  0.0309  2.0911
  109MOL0     H14707  10.085  10.290   4.695  1.6484 -0.0256  2.3215
  109MOL0     H14708  10.215  10.177   4.717 -0.1517 -2.3865  3.3199
  109MOL0     H14709   9.968  10.153   4.832  0.1699 -0.6459  0.1312
  109MOL0     H14710   9.948  10.046   4.701 -1.9684  4.6238 -2.2031
  109MOL0     H14711  10.245   9.802   4.811 -0.3757 -0.4944  0.3278
  109MOL0     H14712  10.101  10.642   4.469 -0.7490  1.5319  0.5256
  109MOL0     H14713   9.983  10.931   4.446  1.5466  1.7639  0.3826
  109MOL0     H14714  10.130  10.851   4.392 -0.7227  1.4431  1.9949
  109MOL0     H14715  10.022  10.917   4.271  0.9045 -3.8351 -2.3547
  110MOL0     O14716   2.164  11.379   9.313 -0.1879  0.1811  0.4193
  110MOL0     C14717   2.057  11.426   9.268  0.4533  0.2208  0.5495
  110MOL0     O14718   2.047  11.483   9.145  0.1932  0.4278 -0.0526
  110MOL0     C14719   2.153  11.473   9.051 -1.0117  0.8235 -0.0070
  110MOL0     C14720   2.125  11.423   8.924 -0.0405 -0.0680  0.1282
  110MOL0     C14721   2.216  11.426   8.824  0.0544 -0.4123  0.0620
  110MOL0     C14722   2.348  11.469   8.852 -0.5331  0.6641 -0.9093
  110MOL0     O14723   2.456  11.470   8.757  0.7159 -0.5178 -0.7664
  110MOL0     C14724   2.416  11.486   8.625  0.1041  1.3158 -0.5690
  110MOL0     C14725   2.525  11.569   8.550  0.9646 -0.5813 -0.2356
  110MOL0     C14726   2.645  11.478   8.509 -0.5052  0.4281 -0.5783
  110MOL0     C14727   2.731  11.428   8.631 -0.2806  0.1710  0.0566
  110MOL0     C14728   2.844  11.354   8.571  0.1126 -0.1933 -0.4258
  110MOL0     C14729   2.972  11.442   8.551  0.0191 -0.4404 -0.3133
  110MOL0     C14730   3.083  11.425   8.655  0.9610  1.0016 -0.5151
  110MOL0     C14731   3.206  11.503   8.621 -0.2906 -0.8948 -0.2369
  110MOL0     N14732   3.275  11.471   8.496  0.2237 -0.0651 -0.2119
  110MOL0     C14733   3.286  11.570   8.394  0.0067  0.5054 -0.1663
  110MOL0     C14734   3.346  11.504   8.298 -1.0258  0.2657  0.3179
  110MOL0     C14735   3.379  11.552   8.162 -0.3478  0.1061  0.3637
  110MOL0     C14736   3.276  11.518   8.052 -0.1928 -0.0229 -0.4782
  110MOL0     C14737   3.129  11.568   8.097 -0.2895 -0.2402  0.3853
  110MOL0     C14738   3.045  11.568   7.970  1.0592  0.1673 -1.2117
  110MOL0     O14739   3.021  11.434   7.922  0.0000  0.6714 -0.3171
  110MOL0     C14740   2.950  11.339   8.009 -0.3293  0.0984  1.6307
  110MOL0     C14741   2.861  11.381   8.105  0.9062 -0.0151 -1.0811
  110MOL0     C14742   2.787  11.286   8.183 -0.0791 -0.1428  0.2289
  110MOL0     C14743   2.789  11.149   8.155  0.4625 -0.6098 -0.2951
  110MOL0     C14744   2.692  11.054   8.226 -0.2264 -1.0285 -0.2446
  110MOL0     O14745   2.580  11.115   8.281  0.8509  0.2487  0.0428
  110MOL0     C14746   2.539  11.080   8.406 -0.2999 -0.2327 -0.4239
  110MOL0     C14747   2.609  11.004   8.498 -0.1175  0.0347 -0.1644
  110MOL0     C14748   2.563  10.986   8.630  2.1580 -0.8933  0.0660
  110MOL0     C14749   2.435  11.028   8.661 -0.1268 -0.8585 -0.4901
  110MOL0     O14750   2.398  11.012   8.789  0.7367 -0.3603 -0.0754
  110MOL0     C14751   2.283  11.089   8.826 -0.8423 -0.0686  0.5325
  110MOL0     C14752   2.289  11.132   8.971 -0.0364 -1.2558  0.9155
  110MOL0     C14753   2.274  11.011   9.058 -0.2473 -0.2045  0.1044
  110MOL0     C14754   2.260  11.048   9.210  0.1508  0.6449 -0.0142
  110MOL0     C14755   2.396  11.101   9.261  1.0285 -0.3927  0.5379
  110MOL0     C14756   2.392  11.141   9.409  0.4327 -0.0372 -0.0291
  110MOL0     C14757   2.519  11.210   9.442 -0.1664 -0.7906 -0.6796
  110MOL0     C14758   2.513  11.252   9.595  0.4998 -0.1677 -1.0507
  110MOL0    Cl14759   2.658  11.346   9.649 -0.0530 -0.2953  0.0024
  110MOL0     C14760   2.355  11.089   8.560 -0.3089 -0.6330  0.2944
  110MOL0     C14761   2.413  11.122   8.440  0.0283  0.2034 -0.8997
  110MOL0     O14762   2.735  10.940   8.234 -0.0873  0.3710  0.1995
  110MOL0     C14763   2.883  11.110   8.057 -1.4493  0.4753  0.3627
  110MOL0     C14764   2.971  11.198   7.986 -0.0734  0.0863  0.8588
  110MOL0     N14765   3.381  11.379   8.348 -0.7790 -0.1836 -0.0192
  110MOL0     N14766   3.339  11.359   8.462  0.2121 -0.6982  0.0442
  110MOL0     C14767   2.383  11.506   8.984 -0.6100 -0.0463  0.3681
  110MOL0     C14768   2.283  11.504   9.086  0.2992 -0.1213  0.0817
  110MOL0     C14769   1.928  11.393   9.336  0.3440 -0.1696 -0.2166
  110MOL0     C14770   1.918  11.268   9.383  0.6265  0.8124  0.3458
  110MOL0     C14771   1.802  11.221   9.447 -0.9180 -0.1721  0.3390
  110MOL0     C14772   1.696  11.310   9.480 -0.1957  0.4856 -0.9253
  110MOL0     O14773   1.591  11.282   9.552  0.5387 -0.7735 -0.5157
  110MOL0     C14774   1.557  11.145   9.586 -0.6596 -0.0870 -0.1349
  110MOL0     C14775   1.634  11.086   9.710  0.7794  0.0818  0.0255
  110MOL0     C14776   1.573  10.956   9.761  0.0717  0.4288  0.3302
  110MOL0     C14777   1.526  10.851   9.654 -0.0066 -1.3438 -1.0241
  110MOL0     C14778   1.632  10.794   9.577 -0.7632 -0.1321 -0.3696
  110MOL0     C14779   1.720  10.741   9.493  0.1910  0.6490 -0.0040
  110MOL0     C14780   1.716  11.440   9.442  0.3005 -0.6456  0.4922
  110MOL0     C14781   1.831  11.483   9.371  0.4252 -0.6399  0.8809
  110MOL0     C14782   1.849  11.635   9.319  1.0497  0.6664 -0.2758
  110MOL0     H14783   2.024  11.388   8.906 -0.4236  1.7527 -1.7266
  110MOL0     H14784   2.189  11.385   8.727 -1.2063 -3.3118  1.4942
  110MOL0     H14785   2.396  11.390   8.578  2.3272 -1.3042  3.3346
  110MOL0     H14786   2.321  11.537   8.607 -1.0969 -1.1990 -1.7986
  110MOL0     H14787   2.563  11.650   8.613  1.3733  0.4223 -1.6888
  110MOL0     H14788   2.490  11.626   8.463 -0.3300 -0.4388  0.3632
  110MOL0     H14789   2.710  11.527   8.437  1.5883 -1.1283  0.1437
  110MOL0     H14790   2.596  11.388   8.469 -1.0432  1.4078 -2.2255
  110MOL0     H14791   2.767  11.506   8.699 -1.3992 -0.3588  1.3076
  110MOL0     H14792   2.673  11.361   8.695  2.3629 -3.7300 -1.2378
  110MOL0     H14793   2.852  11.271   8.641 -2.3680  0.6098  0.9427
  110MOL0     H14794   2.816  11.305   8.477 -3.7496 -0.4826  0.6677
  110MOL0     H14795   2.993  11.418   8.447  0.4335  1.8573 -0.8277
  110MOL0     H14796   2.941  11.545   8.528 -1.4699 -1.3317 -2.6158
  110MOL0     H14797   3.114  11.320   8.664 -0.7751  0.4751 -0.2793
  110MOL0     H14798   3.038  11.455   8.750  0.4517 -2.4200  0.4652
  110MOL0     H14799   3.198  11.612   8.630  2.6771 -0.6236  0.3130
  110MOL0     H14800   3.276  11.474   8.700 -0.5590 -3.3795 -0.8388
  110MOL0     H14801   3.238  11.667   8.402  0.5617  0.7279  0.6709
  110MOL0     H14802   3.404  11.659   8.165 -0.0596  0.0370  0.4511
  110MOL0     H14803   3.471  11.501   8.131 -0.8145 -0.9113  0.6293
  110MOL0     H14804   3.303  11.575   7.963 -0.1593 -2.0928 -1.8498
  110MOL0     H14805   3.286  11.414   8.020 -1.9431 -0.7372  1.0903
  110MOL0     H14806   3.134  11.662   8.152  1.5933 -1.5761  2.7001
  110MOL0     H14807   3.097  11.494   8.171 -3.8526  2.2021  1.5170
  110MOL0     H14808   3.095  11.629   7.895 -0.5064  3.0579 -0.0936
  110MOL0     H14809   2.949  11.617   7.989  0.9712 -0.8871  1.5962
  110MOL0     H14810   2.861  11.487   8.127  3.2521 -0.1161 -0.2742
  110MOL0     H14811   2.725  11.320   8.265  0.4607  0.1645  0.5116
  110MOL0     H14812   2.709  10.970   8.471  0.7973  2.1898  0.3525
  110MOL0     H14813   2.620  10.937   8.708  0.7364 -1.6327  0.6865
  110MOL0     H14814   2.291  11.182   8.769 -1.7357 -0.4056 -0.1579
  110MOL0     H14815   2.191  11.040   8.794  0.9398 -0.4575 -4.9747
  110MOL0     H14816   2.383  11.183   8.995 -0.1434 -0.0519 -0.9854
  110MOL0     H14817   2.202  11.196   8.993 -0.8362 -2.0036 -0.0127
  110MOL0     H14818   2.184  10.951   9.043 -1.3160  1.3465  0.1196
  110MOL0     H14819   2.359  10.945   9.040 -0.6148 -0.6145 -0.1580
  110MOL0     H14820   2.231  10.956   9.261  2.1477 -1.3138 -2.1577
  110MOL0     H14821   2.174  11.114   9.227  0.0042  0.0628  1.7105
  110MOL0     H14822   2.424  11.192   9.208  3.9719 -0.9753  0.9095
  110MOL0     H14823   2.476  11.034   9.231  0.9359 -0.2582 -0.0232
  110MOL0     H14824   2.318  11.221   9.423  1.1458  0.4939  0.7698
  110MOL0     H14825   2.371  11.052   9.469 -2.9126 -1.2917 -2.6689
  110MOL0     H14826   2.535  11.294   9.375  0.8962  0.1325  0.6580
  110MOL0     H14827   2.594  11.136   9.414 -0.7632 -0.7865 -2.3433
  110MOL0     H14828   2.423  11.311   9.615  0.2581 -0.7919 -0.2511
  110MOL0     H14829   2.510  11.162   9.657 -1.3269 -2.4261 -4.1524
  110MOL0     H14830   2.261  11.142   8.574 -0.1383 -0.7035  1.8934
  110MOL0     H14831   2.368  11.170   8.354 -0.1484 -0.0790 -0.9630
  110MOL0     H14832   2.887  11.004   8.036  2.0930  0.4905  0.3082
  110MOL0     H14833   3.045  11.166   7.914 -2.2065  2.2938 -2.6360
  110MOL0     H14834   2.481  11.546   9.009 -0.5190  0.1405 -0.2796
  110MOL0     H14835   2.311  11.529   9.188  2.4587  2.4996 -1.0557
  110MOL0     H14836   2.004  11.215   9.343  1.4416  2.5866 -0.3775
  110MOL0     H14837   1.815  11.126   9.498  0.7899 -0.5499 -0.6979
  110MOL0     H14838   1.567  11.083   9.497 -0.8716 -0.6626  0.2369
  110MOL0     H14839   1.450  11.148   9.607 -0.5478 -1.1596  0.6592
  110MOL0     H14840   1.636  11.159   9.790 -1.5860  1.4766 -1.1060
  110MOL0     H14841   1.739  11.062   9.686  0.4506 -0.8165 -0.5760
  110MOL0     H14842   1.490  10.979   9.828 -0.8686  0.6577 -0.8778
  110MOL0     H14843   1.650  10.915   9.827  0.1610 -0.3919 -0.2787
  110MOL0     H14844   1.496  10.757   9.701  2.3472 -4.0487 -4.4400
  110MOL0     H14845   1.441  10.888   9.598  0.6879 -0.2250 -1.3735
  110MOL0     H14846   1.798  10.683   9.448 -0.6702 -0.6343  0.1023
  110MOL0     H14847   1.652  11.523   9.471  2.3265  0.5562  1.8426
  110MOL0     H14848   1.839  11.637   9.210 -2.1866 -0.6253 -0.1158
  110MOL0     H14849   1.769  11.697   9.359  0.4050  0.7859 -1.6801
  110MOL0     H14850   1.948  11.674   9.344  0.6076  1.1253  0.7864
  111MOL0     O14851   1.346   3.166   9.669 -0.1954  0.0749  0.8367
  111MOL0     C14852   1.386   3.264   9.605  0.5294 -0.4615 -0.2907
  111MOL0     O14853   1.313   3.360   9.551 -0.1554  0.4021  0.2642
  111MOL0     C14854   1.178   3.357   9.567 -0.1537  0.4538  1.2392
  111MOL0     C14855   1.115   3.460   9.618 -1.4551  0.7246 -0.8613
  111MOL0     C14856   0.977   3.464   9.624 -0.0327 -0.1002 -0.2454
  111MOL0     C14857   0.901   3.362   9.569  0.9154  0.1599 -0.5455
  111MOL0     O14858   0.765   3.371   9.558  0.1320  0.5943 -0.1975
  111MOL0     C14859   0.680   3.258   9.519  0.5919  0.4239  0.7042
  111MOL0     C14860   0.549   3.277   9.598  0.0937  1.2822  0.0631
  111MOL0     C14861   0.439   3.160   9.585  0.3371 -0.1868  0.5442
  111MOL0     C14862   0.337   3.165   9.695  0.2738 -0.0769 -0.3769
  111MOL0     C14863   0.237   3.047   9.678 -0.2126 -0.3786  0.0658
  111MOL0     C14864   0.120   3.067   9.782  0.0907  0.6632  0.4153
  111MOL0     C14865   0.005   2.960   9.766  0.4196 -0.1275 -0.0269
  111MOL0     C14866  -0.056   2.909   9.901 -0.2919 -0.4192  0.8323
  111MOL0     N14867   0.030   2.814   9.959 -0.6174  0.0146 -0.2146
  111MOL0     C14868   0.127   2.729   9.908  0.0079 -0.0072  0.0506
  111MOL0     C14869   0.119   2.611   9.981  0.2965  0.2690 -0.7468
  111MOL0     C14870   0.199   2.485   9.994 -0.8955  0.5769  0.4270
  111MOL0     C14871   0.304   2.486  10.102 -0.0950 -0.1911  0.1006
  111MOL0     C14872   0.385   2.346  10.085  0.8957  0.7444  0.4999
  111MOL0     C14873   0.508   2.333  10.157 -0.9938 -0.7748 -0.4206
  111MOL0     O14874   0.613   2.416  10.104  0.5017  0.4535 -0.0342
  111MOL0     C14875   0.746   2.392  10.153  0.0727  0.2336  0.4330
  111MOL0     C14876   0.857   2.429  10.075 -0.6859  0.1829  0.4084
  111MOL0     C14877   0.991   2.403  10.105  0.7180 -1.1653  0.0281
  111MOL0     C14878   1.015   2.359  10.231 -0.0080 -0.1880  0.0346
  111MOL0     C14879   1.145   2.328  10.281  0.6328  0.0223 -0.3043
  111MOL0     O14880   1.153   2.247  10.394  0.2530 -0.2043  0.1727
  111MOL0     C14881   1.279   2.236  10.446 -0.1894 -0.0187 -0.5469
  111MOL0     C14882   1.357   2.354  10.475  0.6050 -1.2383 -0.5739
  111MOL0     C14883   1.460   2.335  10.566 -1.4207  0.5482 -0.4353
  111MOL0     C14884   1.512   2.214  10.599 -0.5298 -0.1895  1.4999
  111MOL0     O14885   1.632   2.211  10.673  0.1476 -0.1189 -0.1291
  111MOL0     C14886   1.641   2.116  10.780 -0.4530  0.1682  0.7265
  111MOL0     C14887   1.525   2.125  10.883  0.2999 -0.2352 -0.4995
  111MOL0     C14888   1.536   2.024  10.987 -0.2680  0.1378  0.6324
  111MOL0     C14889   1.422   2.020  11.101 -0.0682 -0.7715  0.9081
  111MOL0     C14890   1.472   1.964  11.238  0.0304 -1.0856  0.0802
  111MOL0     C14891   1.487   1.807  11.229  0.1400 -0.7468  0.2583
  111MOL0     C14892   1.359   1.718  11.217 -0.1502  0.3164 -0.5772
  111MOL0     C14893   1.287   1.727  11.355  0.3813 -0.2006 -0.1372
  111MOL0    Cl14894   1.403   1.657  11.475 -0.9144  0.1684 -0.3143
  111MOL0     C14895   1.431   2.100  10.559 -0.7538  0.3820 -0.4607
  111MOL0     C14896   1.311   2.117  10.500 -0.0926 -0.8090 -0.5735
  111MOL0     O14897   1.238   2.379  10.217  0.2981 -0.7776 -0.5222
  111MOL0     C14898   0.903   2.325  10.314  0.4237 -0.1262  1.0081
  111MOL0     C14899   0.774   2.327  10.270  0.0753 -0.7370 -0.2751
  111MOL0     N14900   0.012   2.625  10.064 -0.0014  0.8126 -0.3832
  111MOL0     N14901  -0.023   2.746  10.066  0.9295 -0.3876 -0.9547
  111MOL0     C14902   0.972   3.261   9.502 -0.4229 -0.0908  0.7985
  111MOL0     C14903   1.116   3.257   9.499 -0.0454  0.1389 -0.6991
  111MOL0     C14904   1.540   3.278   9.594  0.2129  0.7637  0.6136
  111MOL0     C14905   1.594   3.394   9.536 -0.5273 -0.0535  0.6122
  111MOL0     C14906   1.725   3.424   9.540 -0.7865  0.8687 -0.4419
  111MOL0     C14907   1.820   3.325   9.580  0.1980 -0.3585 -0.3629
  111MOL0     O14908   1.958   3.341   9.590  0.9069 -0.2251  0.2359
  111MOL0     C14909   2.020   3.450   9.528  0.1458  0.9211 -0.8543
  111MOL0     C14910   2.140   3.386   9.464 -0.1701  0.1803  0.2533
  111MOL0     C14911   2.113   3.260   9.390  0.0129  0.4684  0.4364
  111MOL0     C14912   2.225   3.218   9.297 -0.9308 -0.6785 -0.2411
  111MOL0     C14913   2.262   3.313   9.191 -0.3920  0.6724 -0.8127
  111MOL0     C14914   2.316   3.380   9.109  0.5673 -0.6740 -0.1045
  111MOL0     C14915   1.764   3.210   9.638 -0.1051  0.5615  0.6586
  111MOL0     C14916   1.630   3.181   9.639  0.5370 -0.2066 -0.6877
  111MOL0     C14917   1.595   3.040   9.695 -0.1467 -0.3374  0.2491
  111MOL0     H14918   1.180   3.529   9.671 -1.9110  1.5388 -1.3464
  111MOL0     H14919   0.948   3.558   9.670  1.9324  1.5042 -2.0086
  111MOL0     H14920   0.660   3.257   9.411 -0.9793  2.2852  0.9200
  111MOL0     H14921   0.732   3.167   9.548  0.8038 -0.5571 -2.3795
  111MOL0     H14922   0.507   3.375   9.577 -0.0177  1.4674  1.0854
  111MOL0     H14923   0.581   3.275   9.703 -1.0053 -0.9535  0.4169
  111MOL0     H14924   0.490   3.063   9.596  1.5500  0.2982 -0.5813
  111MOL0     H14925   0.398   3.165   9.484 -0.5320 -2.4687  0.7277
  111MOL0     H14926   0.381   3.166   9.796  0.0728  0.7857 -0.2916
  111MOL0     H14927   0.281   3.255   9.670  0.3766  1.0767  2.9394
  111MOL0     H14928   0.198   3.035   9.576 -0.2294 -1.6490  0.2062
  111MOL0     H14929   0.286   2.955   9.711  2.2528  1.8105  3.0247
  111MOL0     H14930   0.156   3.053   9.885 -2.2030  1.5375  1.3894
  111MOL0     H14931   0.090   3.170   9.764 -0.4940  0.4164 -0.0508
  111MOL0     H14932   0.041   2.875   9.706 -1.1123 -1.5324  0.9356
  111MOL0     H14933  -0.077   3.001   9.706  0.5449 -0.4951 -0.4569
  111MOL0     H14934  -0.070   2.993   9.969  0.4785  1.7755 -1.5336
  111MOL0     H14935  -0.145   2.849   9.884  0.1533 -1.2608  1.3870
  111MOL0     H14936   0.197   2.744   9.826 -1.1023  0.7064 -0.8141
  111MOL0     H14937   0.137   2.397  10.013 -1.8587  0.9816 -0.6850
  111MOL0     H14938   0.237   2.458   9.895  0.8464 -0.9356  1.4435
  111MOL0     H14939   0.376   2.567  10.091  0.5724 -0.6743  0.7890
  111MOL0     H14940   0.242   2.492  10.193  0.6054 -0.1752  0.5803
  111MOL0     H14941   0.410   2.327   9.980  0.7349 -0.5795  0.6892
  111MOL0     H14942   0.327   2.257  10.111 -1.1688  0.3638 -4.3568
  111MOL0     H14943   0.534   2.228  10.172 -2.0089 -0.9523  0.2555
  111MOL0     H14944   0.501   2.374  10.258  2.9951  0.1836 -0.3762
  111MOL0     H14945   0.835   2.486   9.985  0.8115 -0.2715 -0.2698
  111MOL0     H14946   1.067   2.456  10.048 -1.3974 -0.1786 -2.0768
  111MOL0     H14947   1.331   2.456  10.452  3.1720 -0.3031  0.2797
  111MOL0     H14948   1.501   2.418  10.623 -1.5950  0.1845  0.2206
  111MOL0     H14949   1.646   2.013  10.743  0.8212  0.0893  1.0869
  111MOL0     H14950   1.736   2.122  10.833 -1.5793  4.8497  2.7001
  111MOL0     H14951   1.504   2.225  10.921  2.9903  0.3903 -0.4774
  111MOL0     H14952   1.435   2.092  10.830 -1.4910 -0.6429  2.5631
  111MOL0     H14953   1.549   1.918  10.962  2.5433 -0.4688  3.8257
  111MOL0     H14954   1.635   2.044  11.028 -0.1833 -1.5792  1.3554
  111MOL0     H14955   1.335   1.965  11.064  1.0437 -2.5990  0.9057
  111MOL0     H14956   1.390   2.122  11.122 -0.8489 -1.2553  2.2338
  111MOL0     H14957   1.404   2.005  11.314  0.3313  2.3260 -1.2810
  111MOL0     H14958   1.574   2.002  11.248 -0.0967  0.4425 -3.1326
  111MOL0     H14959   1.553   1.791  11.143 -2.2595  2.1063 -2.3825
  111MOL0     H14960   1.543   1.791  11.321 -1.0960  6.2090  2.7771
  111MOL0     H14961   1.391   1.616  11.195  1.4793 -0.0772  2.8943
  111MOL0     H14962   1.285   1.756  11.145 -2.5943 -0.1090  1.5497
  111MOL0     H14963   1.279   1.833  11.380  3.0874  0.1637 -0.5023
  111MOL0     H14964   1.196   1.666  11.351  0.6403 -0.5457 -1.0209
  111MOL0     H14965   1.445   1.999  10.597  0.6582  0.8439  0.3219
  111MOL0     H14966   1.236   2.043  10.474  0.9784 -0.8490 -4.0799
  111MOL0     H14967   0.919   2.293  10.417  0.3996  2.1104  1.7542
  111MOL0     H14968   0.707   2.311  10.355  0.4891 -1.8771 -0.1420
  111MOL0     H14969   0.925   3.185   9.441  0.1456 -1.6338  2.2083
  111MOL0     H14970   1.170   3.170   9.463  0.6473 -0.0875  0.7964
  111MOL0     H14971   1.533   3.472   9.491  0.2144 -1.0087 -2.1842
  111MOL0     H14972   1.754   3.517   9.491  0.4091  0.0109 -1.4218
  111MOL0     H14973   2.045   3.530   9.598 -0.2851  0.3445 -0.0159
  111MOL0     H14974   1.963   3.497   9.447  2.6306  0.4321 -3.0184
  111MOL0     H14975   2.219   3.372   9.538 -0.2527 -2.8634 -0.1178
  111MOL0     H14976   2.173   3.463   9.394  1.8721 -0.9061 -0.0639
  111MOL0     H14977   2.029   3.284   9.323 -0.4133 -2.3470 -0.1554
  111MOL0     H14978   2.093   3.179   9.460  4.3584 -0.4523  0.8929
  111MOL0     H14979   2.309   3.207   9.366  2.4858  3.5839 -3.1323
  111MOL0     H14980   2.201   3.124   9.248 -1.9301 -0.3835 -0.3356
  111MOL0     H14981   2.339   3.452   9.033 -2.7684 -1.2441 -1.8388
  111MOL0     H14982   1.842   3.146   9.677  0.9126  2.3447  1.7018
  111MOL0     H14983   1.682   2.976   9.711 -0.3932 -0.7131  0.0902
  111MOL0     H14984   1.528   3.044   9.782 -0.3091 -2.4556  0.2649
  111MOL0     H14985   1.537   2.989   9.618  0.1177  0.3400 -0.4142
  112MOL0     O14986   2.503   9.218  10.543 -0.7473  0.4616  0.6203
  112MOL0     C14987   2.595   9.271  10.603 -0.6232  0.8781  0.1233
  112MOL0     O14988   2.702   9.340  10.540  0.1726  0.8474 -0.0174
  112MOL0     C14989   2.699   9.375  10.405 -0.4047  0.9424 -0.3348
  112MOL0     C14990   2.818   9.368  10.340 -0.5780 -0.0070  0.1300
  112MOL0     C14991   2.839   9.390  10.203  0.0405 -0.1186  0.5855
  112MOL0     C14992   2.724   9.415  10.129  0.5970  0.8281 -0.8523
  112MOL0     O14993   2.708   9.429   9.989 -0.8316  0.1411 -0.3514
  112MOL0     C14994   2.824   9.446   9.911 -0.1427  0.2020 -0.5092
  112MOL0     C14995   2.792   9.475   9.768  0.3540 -1.0047 -1.0492
  112MOL0     C14996   2.812   9.351   9.685 -0.0364  0.2172  0.6837
  112MOL0     C14997   2.872   9.391   9.554 -0.3312 -0.1432  1.2036
  112MOL0     C14998   2.864   9.284   9.444  0.5344  0.5494  0.7146
  112MOL0     C14999   2.739   9.294   9.352  0.0836 -0.9207 -0.7440
  112MOL0     C15000   2.621   9.204   9.404 -0.1677  0.0883  0.8358
  112MOL0     C15001   2.505   9.199   9.298 -1.1300  0.3882 -0.4200
  112MOL0     N15002   2.450   9.332   9.286 -0.3205  0.7684 -0.5587
  112MOL0     C15003   2.439   9.397   9.167 -0.1066 -0.1046 -0.0245
  112MOL0     C15004   2.404   9.524   9.204  1.2402  0.0280  0.3070
  112MOL0     C15005   2.361   9.637   9.115  0.0840  0.8054  0.1881
  112MOL0     C15006   2.471   9.666   9.016 -0.2821  1.1847  0.8937
  112MOL0     C15007   2.597   9.715   9.078  0.5401  0.6551  0.4505
  112MOL0     C15008   2.697   9.727   8.966 -0.4519  0.0272  0.3344
  112MOL0     O15009   2.807   9.812   9.015  0.5787 -0.0724 -0.2501
  112MOL0     C15010   2.911   9.759   9.079  0.2535 -1.0189 -0.7867
  112MOL0     C15011   3.023   9.846   9.089  0.0214  0.6108 -0.2890
  112MOL0     C15012   3.145   9.799   9.144 -0.2976  0.2529 -0.1874
  112MOL0     C15013   3.157   9.677   9.212  0.5527 -0.8386  0.0426
  112MOL0     C15014   3.291   9.635   9.270  0.1012 -0.3404 -0.1718
  112MOL0     O15015   3.408   9.679   9.216 -0.8200  0.3190  0.0448
  112MOL0     C15016   3.530   9.655   9.275 -0.6016 -0.8317  0.1893
  112MOL0     C15017   3.599   9.753   9.345 -0.0338 -0.0920 -0.2349
  112MOL0     C15018   3.738   9.733   9.394 -0.4460 -0.6557 -0.0750
  112MOL0     C15019   3.793   9.612   9.387  0.1506 -0.2208 -0.0917
  112MOL0     O15020   3.909   9.577   9.454  0.0692  0.2472  0.4281
  112MOL0     C15021   4.027   9.652   9.427 -0.2977 -0.0602 -0.4550
  112MOL0     C15022   4.142   9.563   9.409 -0.8132  0.0316  0.1300
  112MOL0     C15023   4.111   9.455   9.302 -0.6800 -0.1288  1.4443
  112MOL0     C15024   4.236   9.369   9.287 -0.6655  0.2787 -0.4457
  112MOL0     C15025   4.217   9.255   9.187  0.2452 -0.8628 -0.5225
  112MOL0     C15026   4.329   9.147   9.177 -0.2615 -0.2285 -0.2847
  112MOL0     C15027   4.295   9.000   9.142  0.9593  0.8489  0.8302
  112MOL0     C15028   4.253   8.992   8.991 -0.3469  0.4613  0.2972
  112MOL0    Cl15029   4.174   8.834   8.959 -0.1010 -1.1644 -0.4069
  112MOL0     C15030   3.711   9.512   9.326 -1.0663 -0.7054  0.2403
  112MOL0     C15031   3.591   9.531   9.258  0.1903  0.3456  0.3978
  112MOL0     O15032   3.297   9.581   9.377  1.3808  0.5218  0.3082
  112MOL0     C15033   3.040   9.600   9.216  0.0971 -0.1801 -1.1732
  112MOL0     C15034   2.922   9.631   9.143 -0.1108  0.5564  0.6578
  112MOL0     N15035   2.379   9.520   9.335  0.1032 -0.3568  0.1126
  112MOL0     N15036   2.412   9.412   9.386  0.1688 -0.5961  0.5419
  112MOL0     C15037   2.594   9.419  10.194 -0.2839  1.5283 -0.0101
  112MOL0     C15038   2.586   9.401  10.330  0.1149 -1.5876 -0.3502
  112MOL0     C15039   2.581   9.301  10.742 -0.6687  1.0215 -1.5446
  112MOL0     C15040   2.619   9.429  10.792  0.0668  0.1833 -0.0568
  112MOL0     C15041   2.575   9.473  10.919 -1.4269  0.8263 -0.1046
  112MOL0     C15042   2.507   9.372  10.991  1.0160 -0.1670 -0.0910
  112MOL0     O15043   2.442   9.409  11.103  0.1754  0.8319 -0.0974
  112MOL0     C15044   2.399   9.541  11.127 -0.1192  0.3590 -0.5325
  112MOL0     C15045   2.300   9.598  11.019 -1.5231 -0.3405  0.2015
  112MOL0     C15046   2.255   9.740  11.080  0.3183 -0.1697 -1.2291
  112MOL0     C15047   2.151   9.806  10.979 -0.3694 -0.2741 -0.6288
  112MOL0     C15048   2.203   9.818  10.847 -0.2959 -0.3280 -0.3739
  112MOL0     C15049   2.246   9.794  10.729  0.1361  0.4413 -0.3602
  112MOL0     C15050   2.488   9.240  10.959  0.2834  0.1840  1.5389
  112MOL0     C15051   2.527   9.203  10.829  0.5752 -0.7707 -0.6038
  112MOL0     C15052   2.481   9.064  10.784  0.1826 -0.0344  0.8020
  112MOL0     H15053   2.913   9.343  10.386  0.6250  1.6491 -1.3260
  112MOL0     H15054   2.934   9.394  10.150 -0.7111 -1.6937 -0.9947
  112MOL0     H15055   2.886   9.519   9.963  1.2067 -2.5575  2.0792
  112MOL0     H15056   2.884   9.355   9.921  2.4918  2.0298  1.3712
  112MOL0     H15057   2.870   9.549   9.748 -1.5830  1.0093 -1.6341
  112MOL0     H15058   2.692   9.518   9.758 -0.2039 -1.4970  1.7404
  112MOL0     H15059   2.715   9.301   9.675 -0.1612  0.1649  1.9343
  112MOL0     H15060   2.882   9.283   9.735  0.2129 -4.2802 -4.7277
  112MOL0     H15061   2.818   9.479   9.518  0.5123  0.0047  0.2652
  112MOL0     H15062   2.980   9.408   9.553 -0.4806  0.9660  1.6312
  112MOL0     H15063   2.946   9.294   9.371  0.8237 -3.7430  0.2369
  112MOL0     H15064   2.884   9.185   9.486 -1.2633  0.3746  1.2041
  112MOL0     H15065   2.712   9.399   9.337  1.8772 -0.7047 -2.9971
  112MOL0     H15066   2.773   9.246   9.259  0.9594 -3.0705  0.6066
  112MOL0     H15067   2.571   9.245   9.492 -0.1105 -0.2214  1.0117
  112MOL0     H15068   2.672   9.108   9.417 -0.0496  0.1376  0.7393
  112MOL0     H15069   2.564   9.169   9.211 -0.7296 -1.9624  0.5815
  112MOL0     H15070   2.432   9.122   9.326  1.5799 -1.7766  1.0801
  112MOL0     H15071   2.445   9.348   9.070  0.1888 -0.4355  0.1590
  112MOL0     H15072   2.273   9.600   9.060  0.9117 -1.7487  0.4467
  112MOL0     H15073   2.347   9.733   9.164  1.9166  1.9093 -1.2975
  112MOL0     H15074   2.495   9.578   8.956 -2.8013  0.2656  1.0812
  112MOL0     H15075   2.426   9.736   8.945 -1.5112  0.9349  1.3943
  112MOL0     H15076   2.633   9.652   9.161  0.9042  2.5868  1.8203
  112MOL0     H15077   2.567   9.815   9.110 -0.1064 -0.0922  2.3302
  112MOL0     H15078   2.656   9.781   8.880 -1.3309  1.8340  1.8053
  112MOL0     H15079   2.720   9.625   8.935 -0.6465 -0.4809  1.7667
  112MOL0     H15080   3.006   9.948   9.058 -4.0373 -0.7202 -3.3861
  112MOL0     H15081   3.230   9.866   9.133  1.5522 -2.1992 -2.1593
  112MOL0     H15082   3.563   9.854   9.361  1.1666  0.1262  1.3898
  112MOL0     H15083   3.794   9.813   9.441 -0.9776  1.4579 -2.7688
  112MOL0     H15084   4.015   9.717   9.340 -1.9729 -3.0707 -2.7116
  112MOL0     H15085   4.050   9.705   9.519  1.0974  0.6704 -1.1918
  112MOL0     H15086   4.231   9.626   9.397 -1.4222  0.7726 -0.7192
  112MOL0     H15087   4.156   9.508   9.502 -3.4771  1.2461  1.3589
  112MOL0     H15088   4.020   9.397   9.320 -0.7934 -1.6779 -2.9705
  112MOL0     H15089   4.094   9.514   9.212 -0.9906 -2.6858 -0.2550
  112MOL0     H15090   4.263   9.315   9.378 -0.9180  1.8236  0.5835
  112MOL0     H15091   4.319   9.434   9.259 -2.5274  2.2071 -1.7703
  112MOL0     H15092   4.205   9.292   9.085  2.7557  0.2142 -0.5010
  112MOL0     H15093   4.129   9.197   9.218 -1.2569  1.7040  0.2764
  112MOL0     H15094   4.402   9.180   9.102  0.3134 -1.1419 -0.1471
  112MOL0     H15095   4.388   9.153   9.269  1.1238 -1.2829 -1.0700
  112MOL0     H15096   4.215   8.980   9.213  1.0005 -1.1384  0.3964
  112MOL0     H15097   4.378   8.931   9.162  1.6095  0.8643 -1.4578
  112MOL0     H15098   4.181   9.068   8.961 -0.7104 -0.7404 -2.1146
  112MOL0     H15099   4.343   9.012   8.932 -1.7506  0.9101 -1.8103
  112MOL0     H15100   3.742   9.409   9.340  0.9764  0.0709  2.0521
  112MOL0     H15101   3.544   9.435   9.241  1.7728 -0.6699  1.4033
  112MOL0     H15102   3.053   9.502   9.259  1.3811 -0.2318 -1.6325
  112MOL0     H15103   2.841   9.559   9.144 -0.3851  0.8571  1.6210
  112MOL0     H15104   2.507   9.443  10.134 -0.9421 -0.8263 -0.0725
  112MOL0     H15105   2.495   9.425  10.386 -0.9525 -1.5929 -2.0085
  112MOL0     H15106   2.680   9.490  10.726 -0.2013  1.3280  0.7249
  112MOL0     H15107   2.603   9.566  10.967 -0.2189  0.2302  0.4028
  112MOL0     H15108   2.487   9.607  11.132  0.5205 -0.5785  1.7806
  112MOL0     H15109   2.361   9.551  11.229  2.1138  1.1700  0.2796
  112MOL0     H15110   2.214   9.534  10.997 -0.5113 -1.0137 -2.1239
  112MOL0     H15111   2.352   9.623  10.926 -2.3389  1.9200  0.2947
  112MOL0     H15112   2.332   9.813  11.106 -0.5465  0.5156 -0.5106
  112MOL0     H15113   2.200   9.717  11.172 -1.0884  2.3767 -1.3570
  112MOL0     H15114   2.057   9.752  10.981  1.8549 -4.6273  1.5869
  112MOL0     H15115   2.127   9.911  11.000 -1.0333 -0.2940 -1.2693
  112MOL0     H15116   2.287   9.760  10.636  0.0416  2.9668 -1.4006
  112MOL0     H15117   2.450   9.170  11.033 -0.8754 -2.6223 -1.4485
  112MOL0     H15118   2.553   9.032  10.707  1.6886 -1.1484  2.5792
  112MOL0     H15119   2.479   8.998  10.871  1.5200  0.6163  1.3623
  112MOL0     H15120   2.378   9.081  10.751  0.2604  4.4567  2.2098
  113MOL0     O15121   1.360  10.190  10.966  0.5755 -0.2179 -0.1551
  113MOL0     C15122   1.396  10.082  10.914  0.9219  1.0439 -1.1472
  113MOL0     O15123   1.491  10.058  10.815  0.1027 -0.8591  0.9017
  113MOL0     C15124   1.559  10.163  10.764  0.3653 -0.6554  0.6331
  113MOL0     C15125   1.698  10.170  10.766  0.8246  0.0424 -0.4124
  113MOL0     C15126   1.775  10.265  10.695 -1.2730 -0.3612  0.8906
  113MOL0     C15127   1.717  10.371  10.627 -0.1207 -1.0493  0.3331
  113MOL0     O15128   1.777  10.450  10.543  0.1483 -0.4131  1.0479
  113MOL0     C15129   1.905  10.514  10.570 -0.0438  0.9148  0.0268
  113MOL0     C15130   1.922  10.641  10.483  0.8081  0.4313 -0.1438
  113MOL0     C15131   1.806  10.740  10.495 -0.3503 -0.5820 -0.1768
  113MOL0     C15132   1.794  10.788  10.640 -0.0797  0.2537 -0.7051
  113MOL0     C15133   1.713  10.912  10.667  0.4018 -0.1359 -1.6872
  113MOL0     C15134   1.728  10.978  10.802 -0.2631  0.6599  0.2928
  113MOL0     C15135   1.839  11.091  10.783  0.3898 -0.2798 -0.6497
  113MOL0     C15136   1.869  11.188  10.897 -0.1384 -0.5431  0.2941
  113MOL0     N15137   1.947  11.128  11.007  0.5109  0.8895 -0.3706
  113MOL0     C15138   1.915  11.112  11.140 -0.4867 -0.1364  0.1113
  113MOL0     C15139   2.012  11.042  11.197 -0.4494 -0.5072  0.8426
  113MOL0     C15140   2.012  10.996  11.338  0.5949  0.6204  0.9034
  113MOL0     C15141   2.122  10.892  11.353 -0.9420  0.3924  0.2498
  113MOL0     C15142   2.145  10.871  11.506 -0.8442  0.1557  0.3593
  113MOL0     C15143   2.031  10.789  11.564  0.9628  0.0893  0.0355
  113MOL0     O15144   2.071  10.712  11.682  0.8506  0.3047 -0.3598
  113MOL0     C15145   1.969  10.665  11.764  0.5329  0.0722 -0.2694
  113MOL0     C15146   1.848  10.618  11.716 -0.4951 -0.2894 -0.4749
  113MOL0     C15147   1.748  10.561  11.794 -0.2591 -0.3812 -0.1528
  113MOL0     C15148   1.775  10.557  11.930  0.9786  0.0439 -0.6173
  113MOL0     C15149   1.664  10.506  12.028 -0.1604  0.1380  0.2142
  113MOL0     O15150   1.548  10.450  11.966 -0.2770  0.0556 -0.3499
  113MOL0     C15151   1.431  10.423  12.039 -0.2219  0.1809 -1.3705
  113MOL0     C15152   1.411  10.417  12.175 -0.2782  0.6160 -0.1511
  113MOL0     C15153   1.285  10.387  12.230 -0.0644 -1.0115 -0.2307
  113MOL0     C15154   1.175  10.358  12.143  0.7018 -0.5998 -0.2259
  113MOL0     O15155   1.051  10.343  12.198  0.3248 -0.0309  0.7279
  113MOL0     C15156   0.932  10.316  12.110 -0.6284  0.6817  0.3295
  113MOL0     C15157   0.811  10.311  12.198 -1.0998  0.0673  0.0497
  113MOL0     C15158   0.691  10.265  12.123  0.1949  0.1935  0.6281
  113MOL0     C15159   0.632  10.366  12.027 -0.3539 -0.8288  0.1341
  113MOL0     C15160   0.523  10.299  11.936  0.0294 -0.4049  0.4252
  113MOL0     C15161   0.432  10.414  11.884  1.0319  0.8475 -0.1368
  113MOL0     C15162   0.495  10.512  11.782 -0.2418  0.7072 -0.7018
  113MOL0     C15163   0.392  10.535  11.667 -0.5993  0.1041  0.4366
  113MOL0    Cl15164   0.378  10.378  11.570 -0.0337  0.0140 -0.8405
  113MOL0     C15165   1.201  10.369  12.009  0.2009 -0.2526  0.0115
  113MOL0     C15166   1.321  10.407  11.956  0.0379  0.3771 -0.7927
  113MOL0     O15167   1.676  10.524  12.145 -1.3108  0.4001 -0.3173
  113MOL0     C15168   1.897  10.590  11.988  0.1962  0.2239  0.7807
  113MOL0     C15169   1.992  10.642  11.899 -0.6307 -0.4571  0.1924
  113MOL0     N15170   2.116  11.036  11.107  0.7526  0.5704  0.2140
  113MOL0     N15171   2.075  11.085  10.994 -1.3856 -0.0339  0.4127
  113MOL0     C15172   1.582  10.364  10.613  1.1993  0.6145 -0.4377
  113MOL0     C15173   1.502  10.264  10.685 -1.2223  0.3107 -0.1995
  113MOL0     C15174   1.338   9.961  10.973 -0.9584  0.8467  0.3973
  113MOL0     C15175   1.279   9.868  10.891  0.6019 -0.0215 -0.1482
  113MOL0     C15176   1.200   9.770  10.937 -0.3840  0.1482  0.4964
  113MOL0     C15177   1.199   9.737  11.072 -1.4795 -0.5871 -0.0909
  113MOL0     O15178   1.138   9.635  11.141 -0.8381 -0.6356 -0.5897
  113MOL0     C15179   1.025   9.585  11.077  0.4546  0.2832  0.0454
  113MOL0     C15180   0.965   9.456  11.154 -0.7438  0.3064  0.0243
  113MOL0     C15181   0.819   9.418  11.105 -0.4210 -0.4020 -0.8078
  113MOL0     C15182   0.772   9.287  11.173  0.2329 -0.3766 -0.0841
  113MOL0     C15183   0.755   9.288  11.321 -0.1263  0.9991 -0.7854
  113MOL0     C15184   0.732   9.279  11.441 -0.8386  1.0044 -0.4508
  113MOL0     C15185   1.278   9.815  11.155 -0.1811 -0.0406 -0.4632
  113MOL0     C15186   1.337   9.937  11.118  1.0388  0.0931  0.1665
  113MOL0     C15187   1.396  10.027  11.223  0.6199 -0.8602  0.7272
  113MOL0     H15188   1.750  10.085  10.810  2.7076  0.7686 -1.1497
  113MOL0     H15189   1.881  10.242  10.688 -1.8516 -4.2803  2.5517
  113MOL0     H15190   1.912  10.537  10.677  2.9321  2.1775 -0.3442
  113MOL0     H15191   1.985  10.443  10.546 -0.8177  1.0084 -3.2533
  113MOL0     H15192   1.914  10.610  10.379 -1.7481 -1.7084  0.5796
  113MOL0     H15193   2.019  10.691  10.496  0.7995  0.2668  0.6424
  113MOL0     H15194   1.715  10.704  10.445 -1.1449  0.5247  0.4110
  113MOL0     H15195   1.839  10.831  10.445  3.4046 -0.9968  1.2753
  113MOL0     H15196   1.769  10.703  10.705 -2.6141  1.8589  0.5911
  113MOL0     H15197   1.893  10.818  10.675 -1.0584  1.0793  1.5715
  113MOL0     H15198   1.739  10.980  10.585  0.9583 -2.6044 -3.6806
  113MOL0     H15199   1.605  10.893  10.660 -0.0787  0.5735  1.7115
  113MOL0     H15200   1.627  11.013  10.824 -0.4790 -0.9079  2.0351
  113MOL0     H15201   1.747  10.912  10.887 -3.0474  0.2360  0.6807
  113MOL0     H15202   1.813  11.165  10.706  2.1147  1.8072  0.6534
  113MOL0     H15203   1.933  11.044  10.751  2.4053  0.8835  2.9747
  113MOL0     H15204   1.930  11.274  10.867  0.7226 -1.5534 -0.9450
  113MOL0     H15205   1.772  11.212  10.942  0.2993 -0.0991  1.0149
  113MOL0     H15206   1.825  11.143  11.191 -0.5571 -2.5827  1.6418
  113MOL0     H15207   2.016  11.075  11.414  0.7189  1.0858  0.4198
  113MOL0     H15208   1.917  10.945  11.356  0.3624  1.3142  1.7037
  113MOL0     H15209   2.103  10.797  11.301 -0.4164  0.9683 -1.0494
  113MOL0     H15210   2.213  10.937  11.312 -1.2632 -0.2177 -1.1926
  113MOL0     H15211   2.165  10.964  11.561  2.1234  0.3422 -0.8982
  113MOL0     H15212   2.229  10.802  11.516 -0.7751  0.2903  0.7383
  113MOL0     H15213   1.981  10.713  11.503 -3.1557  0.9279  2.0386
  113MOL0     H15214   1.960  10.868  11.589  1.0565 -0.3340  1.7463
  113MOL0     H15215   1.828  10.637  11.611  1.8052  0.0649 -0.9113
  113MOL0     H15216   1.652  10.524  11.761 -0.1239 -0.7015 -0.1921
  113MOL0     H15217   1.488  10.458  12.240 -0.1638 -2.8107  2.1482
  113MOL0     H15218   1.272  10.387  12.338 -0.3308 -3.4099 -0.2161
  113MOL0     H15219   0.928  10.397  12.037 -1.6806 -1.8133 -2.6017
  113MOL0     H15220   0.933  10.215  12.067  0.4366  0.0042  1.8409
  113MOL0     H15221   0.835  10.225  12.262  4.4618  1.6792  0.6448
  113MOL0     H15222   0.796  10.406  12.249  1.5400  2.6199 -3.4228
  113MOL0     H15223   0.711  10.170  12.074 -0.0538  0.7452 -0.5721
  113MOL0     H15224   0.615  10.248  12.200 -2.0888  1.8913 -1.1016
  113MOL0     H15225   0.715  10.397  11.962  3.0519 -3.1865  2.9837
  113MOL0     H15226   0.585  10.451  12.077 -3.9440 -2.6368  0.1504
  113MOL0     H15227   0.473  10.225  12.000 -1.8084  1.8136  1.6629
  113MOL0     H15228   0.574  10.236  11.863 -2.6235 -2.3061  0.0791
  113MOL0     H15229   0.343  10.365  11.842  0.4987  1.4961  0.2135
  113MOL0     H15230   0.395  10.476  11.966  0.8971  0.5357  0.0384
  113MOL0     H15231   0.595  10.479  11.749  0.1237 -0.0744  1.0881
  113MOL0     H15232   0.500  10.613  11.822 -1.1030  0.0908  1.0555
  113MOL0     H15233   0.288  10.559  11.694 -0.5756  1.0328 -0.2408
  113MOL0     H15234   0.423  10.611  11.595  0.4387  0.6522  1.4285
  113MOL0     H15235   1.131  10.349  11.928  0.5556  0.0686 -0.3817
  113MOL0     H15236   1.333  10.406  11.848  0.6418  3.6211 -0.8354
  113MOL0     H15237   1.922  10.580  12.093 -0.0762  1.1099  0.9378
  113MOL0     H15238   2.090  10.667  11.937  0.4073 -2.7568 -0.8158
  113MOL0     H15239   1.539  10.440  10.548 -0.6619 -0.0275  0.0049
  113MOL0     H15240   1.394  10.257  10.676 -1.1870 -1.5562  0.2649
  113MOL0     H15241   1.280   9.879  10.783 -2.0674  0.1233 -0.2178
  113MOL0     H15242   1.149   9.718  10.857  1.2072 -1.5633  0.5230
  113MOL0     H15243   1.043   9.545  10.977  1.6472 -2.2699  1.1847
  113MOL0     H15244   0.954   9.668  11.072  0.6105  0.3602 -1.1210
  113MOL0     H15245   0.957   9.466  11.263 -2.5026  1.5257 -0.1654
  113MOL0     H15246   1.043   9.380  11.147  0.9819  2.0038 -0.0878
  113MOL0     H15247   0.819   9.398  10.998 -1.8234  1.0120 -1.1064
  113MOL0     H15248   0.749   9.499  11.127 -0.6133 -0.8413  0.2700
  113MOL0     H15249   0.683   9.245  11.126  0.8332 -2.3059  0.4148
  113MOL0     H15250   0.855   9.219  11.155  0.9892  0.6008 -0.3564
  113MOL0     H15251   0.720   9.257  11.545 -0.2060  3.6888  0.2619
  113MOL0     H15252   1.281   9.777  11.257  0.6997  1.0836 -0.0461
  113MOL0     H15253   1.503  10.009  11.211  0.4091 -0.2374 -3.6328
  113MOL0     H15254   1.391  10.135  11.209  0.5186 -0.7833  1.3414
  113MOL0     H15255   1.357  10.011  11.324 -1.8288 -0.0706 -0.0232
  114MOL0     O15256   4.522   9.387  10.357  0.6749 -0.6986  1.0316
  114MOL0     C15257   4.402   9.424  10.349 -0.3011 -0.3860  0.0136
  114MOL0     O15258   4.295   9.348  10.379  0.0588 -0.4039 -0.6723
  114MOL0     C15259   4.331   9.223  10.431  0.3507  0.5114  0.1025
  114MOL0     C15260   4.375   9.210  10.562 -0.4155  0.4721  0.1715
  114MOL0     C15261   4.383   9.073  10.605 -0.7692 -0.5324  0.7434
  114MOL0     C15262   4.372   8.957  10.515 -0.6375  0.3784 -0.2519
  114MOL0     O15263   4.392   8.831  10.582  0.5110  0.0674 -0.1489
  114MOL0     C15264   4.527   8.802  10.626 -0.6899 -0.8615  0.3752
  114MOL0     C15265   4.637   8.772  10.517  1.1581 -0.4948 -0.0197
  114MOL0     C15266   4.585   8.664  10.426  0.4052  0.8913  1.2970
  114MOL0     C15267   4.699   8.601  10.346  0.3359 -0.9133  0.1834
  114MOL0     C15268   4.654   8.503  10.235 -0.2766 -0.4593 -0.1804
  114MOL0     C15269   4.758   8.398  10.184  0.1176 -0.0159 -0.2617
  114MOL0     C15270   4.694   8.319  10.074  0.3216  0.0909  0.6578
  114MOL0     C15271   4.666   8.405   9.952 -0.0883  0.5292  0.2269
  114MOL0     N15272   4.664   8.314   9.830  0.3710 -1.0365  0.9002
  114MOL0     C15273   4.773   8.317   9.740  0.9499 -1.1198  0.1961
  114MOL0     C15274   4.726   8.247   9.635  1.2617  0.1649  0.2048
  114MOL0     C15275   4.789   8.204   9.508 -0.9642 -0.0351 -0.1867
  114MOL0     C15276   4.890   8.090   9.536  1.0601 -0.5937  0.0629
  114MOL0     C15277   4.816   7.949   9.559 -0.1486 -0.2751 -0.5652
  114MOL0     C15278   4.924   7.844   9.596  0.7437 -0.6314  0.0914
  114MOL0     O15279   5.000   7.815   9.478  0.0495 -0.6402 -0.2099
  114MOL0     C15280   5.045   7.684   9.460  0.4442 -0.5676 -0.3119
  114MOL0     C15281   5.052   7.588   9.566  0.3179 -0.1753 -0.1617
  114MOL0     C15282   5.073   7.454   9.539 -0.3704 -0.1225 -0.1978
  114MOL0     C15283   5.110   7.406   9.407 -0.0167 -0.3015 -0.4009
  114MOL0     C15284   5.135   7.257   9.376 -0.1788  0.1171  0.0480
  114MOL0     O15285   5.186   7.243   9.258 -0.7838  1.1188 -0.3105
  114MOL0     C15286   5.224   7.123   9.213 -0.2960 -0.5665  0.9660
  114MOL0     C15287   5.126   7.043   9.150  0.0357  0.3415  0.3871
  114MOL0     C15288   5.173   6.932   9.072 -0.7315 -0.0559  1.0987
  114MOL0     C15289   5.303   6.888   9.068  0.2082 -0.9730 -0.6898
  114MOL0     O15290   5.313   6.777   8.991 -0.5531  0.9152  0.7037
  114MOL0     C15291   5.435   6.694   9.011  0.3462  0.6516  1.0481
  114MOL0     C15292   5.420   6.577   9.102  0.5720  0.1363  0.6301
  114MOL0     C15293   5.280   6.520   9.100 -0.7107 -0.5182  0.2401
  114MOL0     C15294   5.282   6.385   9.170  0.1613  0.3733  0.7386
  114MOL0     C15295   5.284   6.392   9.317  0.2093 -0.2692 -0.0212
  114MOL0     C15296   5.301   6.252   9.358 -0.1333  0.3704 -0.9663
  114MOL0     C15297   5.279   6.244   9.516  0.0206 -0.9166 -0.2037
  114MOL0     C15298   5.375   6.144   9.577  0.2027  0.4360 -0.5398
  114MOL0    Cl15299   5.390   6.015   9.464  0.6798  0.2998  0.1194
  114MOL0     C15300   5.400   6.964   9.144 -0.0072  0.5768  0.1738
  114MOL0     C15301   5.356   7.079   9.204 -0.7342 -0.5667 -0.3021
  114MOL0     O15302   5.101   7.164   9.449  0.4432 -0.0745 -0.7316
  114MOL0     C15303   5.117   7.506   9.306 -1.1222  1.2315 -0.4256
  114MOL0     C15304   5.085   7.642   9.333  0.8443 -0.4723  0.1529
  114MOL0     N15305   4.608   8.191   9.676  0.4370  0.0756 -0.1060
  114MOL0     N15306   4.562   8.241   9.788 -0.1805  0.5560  0.0236
  114MOL0     C15307   4.344   8.978  10.377  0.1435  0.2776 -0.0527
  114MOL0     C15308   4.319   9.111  10.346  0.0898  0.2606  0.8326
  114MOL0     C15309   4.377   9.559  10.286  0.4672  0.3218  0.1929
  114MOL0     C15310   4.257   9.626  10.313  0.8229 -0.2634  0.2440
  114MOL0     C15311   4.205   9.731  10.250  0.1894 -0.0479  0.7947
  114MOL0     C15312   4.292   9.794  10.157 -0.4041  0.3189 -0.4387
  114MOL0     O15313   4.254   9.908  10.093  0.1656  0.5929  0.3704
  114MOL0     C15314   4.232   9.901   9.949  0.2221  0.8160 -0.0711
  114MOL0     C15315   4.281  10.014   9.862 -0.2773 -1.1012  0.4981
  114MOL0     C15316   4.237   9.973   9.721 -0.3658  0.3048 -0.7891
  114MOL0     C15317   4.324  10.034   9.614  0.1215 -0.9227  0.2130
  114MOL0     C15318   4.476  10.045   9.616  0.4197 -0.1125 -0.4571
  114MOL0     C15319   4.593  10.051   9.612 -0.1633  0.0885 -0.4568
  114MOL0     C15320   4.415   9.741  10.123 -0.0417 -0.1951 -0.6674
  114MOL0     C15321   4.461   9.620  10.182  0.2558 -1.3317  0.4339
  114MOL0     C15322   4.596   9.571  10.156 -1.1281  0.3238 -0.4193
  114MOL0     H15323   4.393   9.305  10.612 -1.1048 -0.6712  2.7580
  114MOL0     H15324   4.411   9.052  10.707 -0.0990 -0.4328  0.5871
  114MOL0     H15325   4.577   8.859  10.705 -1.6991  0.0241  0.3911
  114MOL0     H15326   4.510   8.712  10.684  0.2916 -1.9735 -0.9783
  114MOL0     H15327   4.733   8.751  10.566  0.6314 -1.0037  0.8220
  114MOL0     H15328   4.670   8.853  10.452 -1.6259  0.9758  0.2527
  114MOL0     H15329   4.521   8.718  10.355 -1.2185  0.7401  2.6038
  114MOL0     H15330   4.518   8.592  10.473 -0.2799 -1.2618 -2.5813
  114MOL0     H15331   4.760   8.678  10.298 -2.3965  0.9539 -0.5407
  114MOL0     H15332   4.767   8.547  10.414  0.0259 -1.8383 -0.2182
  114MOL0     H15333   4.557   8.460  10.262 -1.8469  3.0164  0.2239
  114MOL0     H15334   4.627   8.571  10.154  1.7174 -0.6929 -1.1254
  114MOL0     H15335   4.849   8.440  10.142 -0.1524 -1.0808 -2.0689
  114MOL0     H15336   4.781   8.337  10.272 -0.7549  3.2860  2.4292
  114MOL0     H15337   4.606   8.271  10.118  0.0806  0.2172  0.3197
  114MOL0     H15338   4.753   8.230  10.050 -1.2436 -0.4068 -1.6831
  114MOL0     H15339   4.569   8.455   9.955 -0.6933 -0.2924 -2.6519
  114MOL0     H15340   4.739   8.486   9.942  1.4390 -0.1162  4.1675
  114MOL0     H15341   4.871   8.361   9.752  0.1659  0.6027  0.6635
  114MOL0     H15342   4.717   8.170   9.433 -0.8487 -4.3455  1.3817
  114MOL0     H15343   4.837   8.291   9.461  0.1225 -0.0137  0.9249
  114MOL0     H15344   4.962   8.075   9.456  1.0811  0.3375 -0.1095
  114MOL0     H15345   4.936   8.118   9.631 -2.6257 -1.5463  2.3449
  114MOL0     H15346   4.747   7.931   9.475 -1.3152  1.1948  0.0494
  114MOL0     H15347   4.757   7.963   9.649  0.2089  1.9890 -0.6250
  114MOL0     H15348   4.864   7.759   9.630  5.0159 -4.1268 -0.2110
  114MOL0     H15349   4.988   7.894   9.669  0.9668  1.9715 -1.7468
  114MOL0     H15350   5.010   7.624   9.660 -0.3111  0.9262 -0.8544
  114MOL0     H15351   5.085   7.391   9.626  1.5846  2.6177  1.7211
  114MOL0     H15352   5.024   7.079   9.146  0.7663  2.6614 -3.4628
  114MOL0     H15353   5.107   6.877   9.006 -0.9741 -0.3342  1.5688
  114MOL0     H15354   5.459   6.650   8.914 -3.4758  0.6629 -0.0523
  114MOL0     H15355   5.525   6.753   9.035  0.2163  1.8140 -1.1038
  114MOL0     H15356   5.498   6.509   9.064  1.1579  1.7982 -1.3248
  114MOL0     H15357   5.441   6.605   9.206 -0.1079 -1.2419  1.1650
  114MOL0     H15358   5.210   6.583   9.156 -0.5606  0.1637 -0.3272
  114MOL0     H15359   5.237   6.512   8.999 -0.7756 -0.4227  0.2592
  114MOL0     H15360   5.367   6.326   9.134 -0.9050 -0.2715 -0.8561
  114MOL0     H15361   5.194   6.334   9.130 -0.9184 -0.1340  3.5274
  114MOL0     H15362   5.189   6.428   9.359 -1.0041 -1.1975 -1.8001
  114MOL0     H15363   5.371   6.449   9.351  2.3252 -4.1017  1.5856
  114MOL0     H15364   5.227   6.183   9.318  0.1213  0.0693 -0.9228
  114MOL0     H15365   5.401   6.217   9.331  0.5371 -0.8005  2.4911
  114MOL0     H15366   5.175   6.211   9.524 -0.0094 -1.0273 -0.9799
  114MOL0     H15367   5.300   6.342   9.560  1.1492  1.4507 -5.3133
  114MOL0     H15368   5.474   6.189   9.589 -0.7062  2.0338  1.6225
  114MOL0     H15369   5.339   6.112   9.675  1.6486  0.2161 -0.0663
  114MOL0     H15370   5.502   6.930   9.150 -0.4018 -0.9597 -1.1082
  114MOL0     H15371   5.436   7.128   9.258 -1.1668 -2.0222  1.7372
  114MOL0     H15372   5.136   7.474   9.204 -0.3695 -3.6584  0.9705
  114MOL0     H15373   5.096   7.711   9.250 -0.0859  0.7535  1.0094
  114MOL0     H15374   4.336   8.902  10.300 -0.0717 -0.3079  0.5390
  114MOL0     H15375   4.283   9.127  10.245  0.4176  0.8348  0.8003
  114MOL0     H15376   4.197   9.573  10.386  1.3634 -0.7259  0.3567
  114MOL0     H15377   4.104   9.768  10.262  0.1919  0.3940 -0.3999
  114MOL0     H15378   4.126   9.890   9.928  0.1652 -1.9794  1.1910
  114MOL0     H15379   4.287   9.810   9.923  0.3794  0.3715  1.6402
  114MOL0     H15380   4.390  10.007   9.872 -0.0363  0.1364 -0.9224
  114MOL0     H15381   4.233  10.108   9.889 -3.1112 -1.6772 -1.9948
  114MOL0     H15382   4.137  10.016   9.713 -1.5482 -2.1890 -0.0615
  114MOL0     H15383   4.235   9.866   9.699  1.9979  0.6912 -3.5360
  114MOL0     H15384   4.299   9.981   9.522 -0.7676 -0.5330  0.2257
  114MOL0     H15385   4.287  10.137   9.620 -2.9927 -1.8000 -1.5822
  114MOL0     H15386   4.700  10.061   9.619 -0.4164  2.3328  2.4063
  114MOL0     H15387   4.483   9.794  10.057  0.4285  0.3016  0.1955
  114MOL0     H15388   4.646   9.628  10.077  1.5763  0.6309  1.4001
  114MOL0     H15389   4.666   9.564  10.240 -1.9240  0.0369  0.2354
  114MOL0     H15390   4.589   9.469  10.119 -0.9950 -0.9358  2.6990
  115MOL0     O15391   5.475   8.261   2.105  0.0973 -0.1899  0.6295
  115MOL0     C15392   5.509   8.179   2.182  0.2371  0.3090 -0.3124
  115MOL0     O15393   5.523   8.045   2.157 -0.5632  0.8207  0.0041
  115MOL0     C15394   5.497   8.000   2.030  0.5422 -0.6308 -1.0231
  115MOL0     C15395   5.375   8.007   1.971  0.7330  0.5126  1.3878
  115MOL0     C15396   5.354   7.969   1.839  0.0283 -0.2586  0.1333
  115MOL0     C15397   5.454   7.906   1.764 -0.4469  0.7825  0.6617
  115MOL0     O15398   5.436   7.851   1.639 -0.1965  0.0557 -0.9980
  115MOL0     C15399   5.353   7.923   1.551 -0.3187 -0.4564  0.1690
  115MOL0     C15400   5.383   7.878   1.403  0.1172 -0.1823  0.4293
  115MOL0     C15401   5.278   7.781   1.346  0.1189  0.2057  0.5156
  115MOL0     C15402   5.313   7.735   1.202  0.4168 -0.1021  0.2210
  115MOL0     C15403   5.194   7.682   1.127 -0.0230 -0.6178 -0.7226
  115MOL0     C15404   5.238   7.624   0.992  0.9862 -0.5602 -0.1621
  115MOL0     C15405   5.127   7.606   0.890  0.0381 -0.3077  0.4869
  115MOL0     C15406   5.040   7.488   0.941 -0.5694  0.1773 -0.2634
  115MOL0     N15407   5.083   7.349   0.939 -0.0151 -0.0685 -0.8007
  115MOL0     C15408   5.090   7.274   0.828  0.7590  0.2652 -0.3317
  115MOL0     C15409   5.160   7.156   0.864 -0.5490 -0.1426  0.0088
  115MOL0     C15410   5.217   7.072   0.762 -1.1613  0.2765 -0.2767
  115MOL0     C15411   5.179   6.924   0.769 -0.1702  0.2705  0.0385
  115MOL0     C15412   5.261   6.841   0.674 -0.3696 -0.5723 -0.0385
  115MOL0     C15413   5.410   6.814   0.711  1.4611 -0.6201  0.8929
  115MOL0     O15414   5.488   6.744   0.612  0.2096 -0.1661 -0.4463
  115MOL0     C15415   5.622   6.732   0.630 -0.8651 -0.2133  0.4192
  115MOL0     C15416   5.708   6.677   0.531  0.2321  0.7256 -0.2758
  115MOL0     C15417   5.846   6.658   0.551  0.1980  0.7505  0.0717
  115MOL0     C15418   5.901   6.674   0.674  0.7979  0.6039 -0.4349
  115MOL0     C15419   6.043   6.639   0.701 -0.9883  0.2071  0.3031
  115MOL0     O15420   6.106   6.544   0.627  0.4084 -0.0212 -0.1267
  115MOL0     C15421   6.237   6.516   0.661 -0.1517  1.0432 -0.1349
  115MOL0     C15422   6.342   6.614   0.658  0.7477 -0.1071  0.6880
  115MOL0     C15423   6.474   6.572   0.684  0.5243  0.3006 -0.4932
  115MOL0     C15424   6.498   6.441   0.725  0.3124  0.7166 -1.1115
  115MOL0     O15425   6.630   6.411   0.764  0.0338  0.1352 -0.1396
  115MOL0     C15426   6.658   6.301   0.861 -0.4496  0.1449 -0.3740
  115MOL0     C15427   6.813   6.291   0.882  0.0083 -0.0451  0.1073
  115MOL0     C15428   6.880   6.233   0.763 -0.3783  0.0356  0.2779
  115MOL0     C15429   7.028   6.236   0.771 -0.0670 -0.2171  0.7235
  115MOL0     C15430   7.082   6.184   0.641  0.2743 -0.2003  0.2614
  115MOL0     C15431   7.227   6.216   0.607  0.8159  0.3323  0.9353
  115MOL0     C15432   7.246   6.190   0.455 -0.5445 -0.2148  0.2413
  115MOL0     C15433   7.213   6.050   0.415 -0.2895 -0.3082  0.0642
  115MOL0    Cl15434   7.218   6.016   0.242 -0.8850 -0.0526 -0.1464
  115MOL0     C15435   6.399   6.343   0.727  1.1146 -0.4693 -0.2214
  115MOL0     C15436   6.266   6.387   0.697 -0.1486  1.3378  0.8230
  115MOL0     O15437   6.102   6.695   0.796  0.6525 -0.2245  0.7670
  115MOL0     C15438   5.824   6.742   0.775  0.1543 -0.6171 -0.0476
  115MOL0     C15439   5.687   6.774   0.750  0.0466  0.5238 -0.3398
  115MOL0     N15440   5.183   7.166   0.999  0.0821 -0.0858 -0.5441
  115MOL0     N15441   5.141   7.281   1.047  0.1598 -0.0664  0.6231
  115MOL0     C15442   5.580   7.902   1.826  0.5921 -0.0295 -0.0774
  115MOL0     C15443   5.600   7.945   1.955  0.5015  0.2738  0.2907
  115MOL0     C15444   5.505   8.228   2.326  0.3295 -1.3807  0.2969
  115MOL0     C15445   5.546   8.366   2.342  0.1645  0.4937  0.0281
  115MOL0     C15446   5.585   8.424   2.459 -0.3277 -0.1222  0.7940
  115MOL0     C15447   5.584   8.352   2.580  0.1147 -0.4770 -0.1403
  115MOL0     O15448   5.632   8.422   2.695  0.8936  0.1989  0.7185
  115MOL0     C15449   5.593   8.363   2.818 -0.8176 -0.3261  0.9185
  115MOL0     C15450   5.617   8.470   2.932 -0.0100  0.3605  0.1062
  115MOL0     C15451   5.771   8.501   2.951  0.3451  0.5358  0.4233
  115MOL0     C15452   5.799   8.641   2.997  0.1818 -0.2962  0.1193
  115MOL0     C15453   5.740   8.667   3.130 -1.4286 -0.2483 -0.6047
  115MOL0     C15454   5.690   8.708   3.241 -0.1868 -0.9675  0.2476
  115MOL0     C15455   5.538   8.221   2.565 -0.2556 -0.4910 -0.7944
  115MOL0     C15456   5.493   8.154   2.444  0.5953 -0.1949  0.7379
  115MOL0     C15457   5.447   8.014   2.456 -0.4152 -0.2177 -0.5858
  115MOL0     H15458   5.294   8.063   2.016 -0.8820 -1.6913  1.3369
  115MOL0     H15459   5.255   7.987   1.799  0.9721 -0.4840 -2.5678
  115MOL0     H15460   5.251   7.908   1.587 -1.3463  1.0412 -1.8523
  115MOL0     H15461   5.365   8.032   1.555 -1.5419 -0.3228  0.7740
  115MOL0     H15462   5.486   7.844   1.396 -0.0707 -0.5096 -1.1216
  115MOL0     H15463   5.361   7.972   1.351  1.4366  0.9352  1.7972
  115MOL0     H15464   5.184   7.837   1.355  1.0261  1.7619  0.7531
  115MOL0     H15465   5.259   7.701   1.418 -1.4251 -0.9659 -1.1192
  115MOL0     H15466   5.380   7.807   1.155  1.1683 -1.2821 -0.5637
  115MOL0     H15467   5.377   7.647   1.217 -1.0331 -0.7296  3.7346
  115MOL0     H15468   5.142   7.610   1.191  1.0997 -1.7558 -1.0400
  115MOL0     H15469   5.129   7.768   1.113  1.6288  0.6800 -0.6765
  115MOL0     H15470   5.314   7.684   0.942 -0.6995  1.2242 -0.7063
  115MOL0     H15471   5.292   7.531   1.012 -0.1495 -1.2796 -0.3348
  115MOL0     H15472   5.170   7.584   0.792 -2.4990 -1.1709 -0.5214
  115MOL0     H15473   5.069   7.699   0.882  2.7824  1.5756  1.1780
  115MOL0     H15474   4.996   7.518   1.036  0.3724 -1.9361  0.8978
  115MOL0     H15475   4.948   7.488   0.881 -0.0213  1.5811 -1.1470
  115MOL0     H15476   5.046   7.301   0.732  1.0765  0.4714 -0.4195
  115MOL0     H15477   5.188   7.112   0.664 -0.9579 -1.7338 -1.2234
  115MOL0     H15478   5.326   7.078   0.758 -1.2584  2.5806 -2.8256
  115MOL0     H15479   5.193   6.882   0.869  0.1102  2.1608  0.8442
  115MOL0     H15480   5.075   6.899   0.746  0.6022 -3.2561 -0.2830
  115MOL0     H15481   5.273   6.885   0.574 -3.2551  0.9462  0.1606
  115MOL0     H15482   5.215   6.745   0.653  0.6797 -0.7653 -1.6208
  115MOL0     H15483   5.415   6.767   0.809 -4.7259 -1.9089  1.0156
  115MOL0     H15484   5.463   6.909   0.721 -0.0769  0.4150 -0.2457
  115MOL0     H15485   5.665   6.658   0.433  0.4863  0.7497 -0.3922
  115MOL0     H15486   5.909   6.605   0.480 -2.1024 -3.2458  0.7153
  115MOL0     H15487   6.325   6.715   0.622  0.1617  0.1653  1.6986
  115MOL0     H15488   6.554   6.641   0.711  0.3178 -0.6977  3.3440
  115MOL0     H15489   6.606   6.324   0.955 -0.5251  2.0657 -0.8380
  115MOL0     H15490   6.617   6.206   0.827  0.9949 -0.6657  0.0380
  115MOL0     H15491   6.841   6.392   0.913 -2.4632  1.4465 -2.0920
  115MOL0     H15492   6.832   6.226   0.968 -2.9392  0.8901  1.5941
  115MOL0     H15493   6.834   6.134   0.748 -2.3254  1.2622 -2.8658
  115MOL0     H15494   6.843   6.289   0.677 -2.3160 -0.0574  0.9990
  115MOL0     H15495   7.080   6.179   0.849  0.6651  0.7734  0.9944
  115MOL0     H15496   7.055   6.340   0.794 -0.6822 -0.2771  1.8007
  115MOL0     H15497   7.019   6.223   0.560 -3.8700 -3.0279  1.7275
  115MOL0     H15498   7.059   6.077   0.646  2.2227 -0.7092 -0.6370
  115MOL0     H15499   7.238   6.323   0.630 -2.3180  1.3756 -1.5581
  115MOL0     H15500   7.290   6.154   0.671  0.0132  2.2386  3.8185
  115MOL0     H15501   7.353   6.202   0.435 -0.9179 -0.9176 -2.6870
  115MOL0     H15502   7.189   6.262   0.396  1.0091  0.5837 -0.3240
  115MOL0     H15503   7.288   5.991   0.470  0.0405  3.4556  4.2288
  115MOL0     H15504   7.110   6.029   0.443 -0.0870 -1.7577 -0.1811
  115MOL0     H15505   6.420   6.240   0.753 -0.5378  0.4317  6.7065
  115MOL0     H15506   6.188   6.312   0.683  0.1954  0.3910  3.3617
  115MOL0     H15507   5.868   6.780   0.866 -0.0322 -0.7856  0.1135
  115MOL0     H15508   5.636   6.840   0.819 -3.2463  0.4293 -2.4867
  115MOL0     H15509   5.661   7.849   1.776 -0.1854 -1.9480  0.5944
  115MOL0     H15510   5.693   7.916   2.002  2.5580  3.4256 -1.4840
  115MOL0     H15511   5.557   8.422   2.250 -2.4300  0.1573 -0.5695
  115MOL0     H15512   5.602   8.531   2.460 -0.6789  0.0604 -2.3643
  115MOL0     H15513   5.638   8.265   2.836  0.1750 -0.2577 -0.9569
  115MOL0     H15514   5.486   8.353   2.801 -0.8577  0.2560  0.8050
  115MOL0     H15515   5.574   8.434   3.026 -0.1398 -0.6142 -0.3176
  115MOL0     H15516   5.555   8.556   2.906  0.7629  1.3672  1.4799
  115MOL0     H15517   5.811   8.488   2.850 -3.5847 -1.0760 -1.1168
  115MOL0     H15518   5.814   8.425   3.018 -2.9544 -2.9533 -1.0614
  115MOL0     H15519   5.908   8.652   2.994  0.6103 -3.5945 -2.8257
  115MOL0     H15520   5.758   8.718   2.930 -1.0259  0.7622  1.9822
  115MOL0     H15521   5.653   8.747   3.334 -3.7208  3.5246 -2.6386
  115MOL0     H15522   5.548   8.174   2.663 -0.7809 -0.3015 -0.6414
  115MOL0     H15523   5.421   7.989   2.559  1.0409  1.1945  0.1726
  115MOL0     H15524   5.369   8.003   2.380  1.3382  2.4154 -2.9832
  115MOL0     H15525   5.530   7.953   2.420  2.0582  1.7587  1.3688
  116MOL0     O15526   3.948   0.477   2.953 -0.4026 -0.1129  0.3631
  116MOL0     C15527   3.886   0.409   2.871  0.3772  0.9865  0.6307
  116MOL0     O15528   3.753   0.428   2.822 -0.6698 -0.4623  0.3468
  116MOL0     C15529   3.683   0.526   2.889 -0.0259 -0.8414  0.1128
  116MOL0     C15530   3.606   0.500   3.000  1.3438  0.1252  0.3108
  116MOL0     C15531   3.510   0.589   3.046 -0.0456 -0.5280 -0.0162
  116MOL0     C15532   3.494   0.713   2.983 -0.3286  0.4504 -1.2123
  116MOL0     O15533   3.413   0.810   3.027  0.4631  0.8247 -0.7289
  116MOL0     C15534   3.449   0.879   3.155 -0.8380  0.1639  0.1553
  116MOL0     C15535   3.331   0.904   3.245  0.2762  0.8052 -0.2486
  116MOL0     C15536   3.243   1.024   3.207  0.1979  0.3910  0.0627
  116MOL0     C15537   3.140   0.995   3.104  0.2773 -0.5464  0.8704
  116MOL0     C15538   3.091   1.127   3.044  0.7101  0.0367  1.2020
  116MOL0     C15539   3.046   1.102   2.904 -0.8274  0.3423  0.1529
  116MOL0     C15540   2.917   1.007   2.895  0.6683  0.0807  1.3134
  116MOL0     C15541   2.831   1.029   2.774 -0.0704 -0.7717  0.3087
  116MOL0     N15542   2.727   1.126   2.799 -1.1435 -0.8690  0.7694
  116MOL0     C15543   2.756   1.268   2.811  0.4235  0.1523 -0.7302
  116MOL0     C15544   2.636   1.318   2.846 -0.4637 -0.5198 -0.0276
  116MOL0     C15545   2.596   1.459   2.881  0.4946  0.2713 -0.4883
  116MOL0     C15546   2.681   1.571   2.834  0.4490  0.2268  0.4918
  116MOL0     C15547   2.651   1.717   2.855 -0.0459  0.0608  0.9086
  116MOL0     C15548   2.663   1.761   2.993  0.4165 -0.5562 -0.6759
  116MOL0     O15549   2.578   1.696   3.080 -0.2856 -0.2820 -0.3921
  116MOL0     C15550   2.503   1.763   3.175 -0.1517 -0.3007  0.3010
  116MOL0     C15551   2.554   1.857   3.266  0.3240  0.6553 -0.2145
  116MOL0     C15552   2.464   1.920   3.354 -0.3157  0.3010  0.6627
  116MOL0     C15553   2.328   1.889   3.351  0.1791  0.2949  0.3492
  116MOL0     C15554   2.226   1.954   3.435  0.3412 -0.5387  0.2874
  116MOL0     O15555   2.101   1.900   3.441  0.3588 -0.0470  0.0573
  116MOL0     C15556   1.996   1.969   3.504  0.5538 -0.7888 -0.0709
  116MOL0     C15557   1.971   2.104   3.478 -0.3355 -0.4758  0.4894
  116MOL0     C15558   1.865   2.166   3.536  0.3756 -0.5120 -0.2234
  116MOL0     C15559   1.781   2.095   3.624 -0.2431  0.6258  0.9994
  116MOL0     O15560   1.674   2.147   3.682 -0.4529  0.2305  0.1263
  116MOL0     C15561   1.639   2.283   3.663  0.1005  0.1069 -0.0530
  116MOL0     C15562   1.534   2.326   3.754 -0.0576 -0.1549 -1.0099
  116MOL0     C15563   1.489   2.481   3.752 -0.7790  0.7070  0.6433
  116MOL0     C15564   1.586   2.594   3.791 -0.3605  0.3857 -0.5913
  116MOL0     C15565   1.525   2.735   3.846 -0.3085  0.1911  0.1931
  116MOL0     C15566   1.629   2.842   3.854 -0.6212 -0.9591  0.9099
  116MOL0     C15567   1.575   2.955   3.956 -0.1504  0.1096  0.0110
  116MOL0     C15568   1.674   3.080   3.963  0.7809 -0.2821 -0.8567
  116MOL0    Cl15569   1.824   3.044   4.054 -0.3340  0.1030  0.0762
  116MOL0     C15570   1.803   1.966   3.652 -0.0394  0.1021  0.1551
  116MOL0     C15571   1.906   1.906   3.584 -2.0437 -0.2062 -1.5439
  116MOL0     O15572   2.250   2.066   3.487  0.0154 -0.1131 -0.7222
  116MOL0     C15573   2.277   1.792   3.272  0.0888 -0.0542  0.0448
  116MOL0     C15574   2.371   1.735   3.173  0.5289  0.7236 -0.3994
  116MOL0     N15575   2.544   1.221   2.855  0.1388  0.3375  0.4403
  116MOL0     N15576   2.595   1.111   2.821  0.4476 -0.8404  0.1660
  116MOL0     C15577   3.578   0.741   2.875  0.8029 -0.0870  0.4344
  116MOL0     C15578   3.662   0.650   2.818 -0.2085 -0.2103 -0.5248
  116MOL0     C15579   3.945   0.284   2.836 -0.0823  0.2952 -0.5489
  116MOL0     C15580   3.856   0.165   2.832  0.2415  0.0040  0.1974
  116MOL0     C15581   3.901   0.043   2.790  0.4162  0.1739 -0.7642
  116MOL0     C15582   4.038   0.025   2.753  0.5146  0.1802 -0.3397
  116MOL0     O15583   4.078  -0.091   2.691  0.4460  0.1911  0.1924
  116MOL0     C15584   3.981  -0.207   2.659  1.0425  1.0140 -0.1707
  116MOL0     C15585   4.068  -0.314   2.585  0.7800 -0.0985  0.5980
  116MOL0     C15586   4.182  -0.363   2.686 -0.4304  0.1515  0.2433
  116MOL0     C15587   4.133  -0.419   2.823 -0.5570 -0.3411 -0.3046
  116MOL0     C15588   4.039  -0.532   2.815 -0.1483 -0.0813  0.6610
  116MOL0     C15589   3.963  -0.623   2.792 -0.2683 -0.2224  0.2562
  116MOL0     C15590   4.124   0.135   2.754  0.0306  0.1959 -0.7938
  116MOL0     C15591   4.080   0.261   2.798  0.4573 -1.7478 -1.2526
  116MOL0     C15592   4.165   0.384   2.773  0.3554 -1.0694  0.3050
  116MOL0     H15593   3.607   0.405   3.053 -0.1177  1.5300  3.1056
  116MOL0     H15594   3.442   0.563   3.126  0.8229  0.4794  1.0940
  116MOL0     H15595   3.534   0.828   3.201  1.0036  2.4166 -0.5611
  116MOL0     H15596   3.502   0.972   3.136 -0.7515  0.3331  1.1731
  116MOL0     H15597   3.378   0.911   3.344  1.6206 -2.2129 -0.5353
  116MOL0     H15598   3.273   0.812   3.231 -0.5876  1.3421 -0.2319
  116MOL0     H15599   3.305   1.111   3.185 -1.7019  2.1691  1.3405
  116MOL0     H15600   3.189   1.062   3.294 -1.6936  3.6145 -2.2784
  116MOL0     H15601   3.200   0.942   3.030  1.2049  2.6033 -0.7916
  116MOL0     H15602   3.049   0.945   3.140  1.1810 -0.6806  3.1174
  116MOL0     H15603   3.019   1.178   3.109  2.1538  1.1159  2.0328
  116MOL0     H15604   3.177   1.195   3.042  0.6897  0.0367  0.2497
  116MOL0     H15605   3.018   1.197   2.857 -1.4698 -0.6789 -1.6168
  116MOL0     H15606   3.125   1.062   2.840 -2.1509 -1.4160 -0.4496
  116MOL0     H15607   2.858   1.009   2.988 -1.3468 -1.9558  0.1874
  116MOL0     H15608   2.960   0.907   2.894  0.8647  0.1408 -1.3712
  116MOL0     H15609   2.891   1.046   2.684 -0.0881 -3.9451 -0.4409
  116MOL0     H15610   2.774   0.935   2.767 -3.4810  1.2231 -1.7188
  116MOL0     H15611   2.847   1.326   2.801  1.8006 -1.8314 -0.2848
  116MOL0     H15612   2.492   1.480   2.852  0.1042 -0.4690  0.3239
  116MOL0     H15613   2.598   1.464   2.990 -1.5625 -1.2373 -0.3159
  116MOL0     H15614   2.785   1.564   2.868  0.8539  1.7870 -0.3538
  116MOL0     H15615   2.685   1.552   2.726 -2.5599  2.0421 -0.0238
  116MOL0     H15616   2.545   1.738   2.833 -1.1329 -2.8905  2.7178
  116MOL0     H15617   2.720   1.783   2.801  1.9485 -1.8892  0.9512
  116MOL0     H15618   2.636   1.867   2.986 -1.5707 -0.8365  1.5822
  116MOL0     H15619   2.760   1.754   3.043 -0.2886 -3.6086  0.4830
  116MOL0     H15620   2.661   1.874   3.265  0.2865  0.9517  0.3461
  116MOL0     H15621   2.505   1.987   3.429  0.2528 -0.7707  1.3254
  116MOL0     H15622   2.035   2.169   3.420  0.8260 -2.0828 -0.1077
  116MOL0     H15623   1.852   2.271   3.511 -0.4491 -0.4018  0.6155
  116MOL0     H15624   1.727   2.337   3.699  0.1128 -0.0061  0.0855
  116MOL0     H15625   1.604   2.318   3.566 -2.8894  1.4627  1.3838
  116MOL0     H15626   1.457   2.256   3.719  1.2049 -1.9095 -0.3937
  116MOL0     H15627   1.565   2.310   3.857  1.1037  4.2790 -0.4687
  116MOL0     H15628   1.470   2.484   3.644  2.9756  0.3237 -0.1880
  116MOL0     H15629   1.406   2.487   3.822  0.1726 -0.7142  1.9502
  116MOL0     H15630   1.652   2.609   3.705  0.4778 -1.3758 -0.3064
  116MOL0     H15631   1.653   2.563   3.873 -0.8059  2.8663  0.8203
  116MOL0     H15632   1.485   2.713   3.946  2.3073 -1.9566  0.8779
  116MOL0     H15633   1.435   2.762   3.790  0.0085  1.8795  0.4424
  116MOL0     H15634   1.726   2.795   3.876  0.0112 -0.5708 -0.8486
  116MOL0     H15635   1.644   2.882   3.753 -0.9424  1.1027  1.6425
  116MOL0     H15636   1.571   2.910   4.055 -0.7200 -1.1408 -0.5649
  116MOL0     H15637   1.481   2.982   3.906  1.1499 -0.2104 -2.8373
  116MOL0     H15638   1.696   3.111   3.861 -1.6902 -2.3168 -2.1371
  116MOL0     H15639   1.630   3.159   4.025 -0.1664 -0.8354 -0.7964
  116MOL0     H15640   1.748   1.914   3.729  0.3860  0.0802  0.4476
  116MOL0     H15641   1.921   1.798   3.587 -1.7613 -0.2332  2.5050
  116MOL0     H15642   2.172   1.762   3.268  0.3737 -1.2108  0.6288
  116MOL0     H15643   2.340   1.664   3.097  2.4824 -0.1273 -0.4424
  116MOL0     H15644   3.588   0.844   2.843 -0.7045  0.5948  1.9772
  116MOL0     H15645   3.712   0.674   2.725 -0.5584 -0.3133 -0.7426
  116MOL0     H15646   3.754   0.174   2.870 -0.0172 -2.0713  0.1042
  116MOL0     H15647   3.829  -0.038   2.795 -1.1695  1.6193  1.9698
  116MOL0     H15648   3.894  -0.184   2.598 -0.9142 -0.8242  1.7658
  116MOL0     H15649   3.927  -0.257   2.740  0.2258 -1.4009 -2.0756
  116MOL0     H15650   4.123  -0.266   2.504  3.4555 -0.4050  2.0963
  116MOL0     H15651   4.004  -0.395   2.549  0.4080  0.5749 -0.2808
  116MOL0     H15652   4.260  -0.290   2.710  0.7274 -1.4749  1.7444
  116MOL0     H15653   4.253  -0.434   2.641 -0.5884 -1.0018  1.7215
  116MOL0     H15654   4.216  -0.452   2.887 -0.9316  1.5359  1.2468
  116MOL0     H15655   4.082  -0.340   2.879  1.7055 -1.8535  4.4485
  116MOL0     H15656   3.902  -0.708   2.772  1.6157 -1.3641 -0.9080
  116MOL0     H15657   4.226   0.140   2.716  1.3602 -0.0826  2.3949
  116MOL0     H15658   4.241   0.364   2.698  0.0985 -0.0620 -0.2365
  116MOL0     H15659   4.114   0.476   2.743 -1.6426 -1.5609  1.9156
  116MOL0     H15660   4.221   0.408   2.864  3.9760  1.0847 -2.2282
  117MOL0     O15661  11.532   5.679  11.390  0.1079 -0.5356 -0.6216
  117MOL0     C15662  11.551   5.691  11.511  0.2650  0.2026 -0.2983
  117MOL0     O15663  11.654   5.632  11.579  0.3691  0.0370  1.0061
  117MOL0     C15664  11.764   5.601  11.498 -0.7010  0.1515  0.4636
  117MOL0     C15665  11.771   5.488  11.422 -0.2909  0.2179  0.0479
  117MOL0     C15666  11.894   5.457  11.347 -0.0841  0.7119 -0.0633
  117MOL0     C15667  12.007   5.536  11.348 -0.4460  1.3136  0.2370
  117MOL0     O15668  12.119   5.498  11.290 -0.3682 -0.7930  0.0315
  117MOL0     C15669  12.189   5.577  11.194 -0.6278 -0.5915  0.4335
  117MOL0     C15670  12.206   5.484  11.060  0.3427 -0.2277 -0.3609
  117MOL0     C15671  12.311   5.543  10.957 -1.1445  0.3435 -0.7942
  117MOL0     C15672  12.282   5.495  10.811  0.7125  0.9002 -0.7893
  117MOL0     C15673  12.377   5.560  10.718 -0.2913 -0.5351  0.6785
  117MOL0     C15674  12.354   5.509  10.580 -0.8645  0.9550 -0.3570
  117MOL0     C15675  12.209   5.512  10.516 -0.0970  1.0933  0.9609
  117MOL0     C15676  12.155   5.647  10.499  0.2835  0.2406 -0.1214
  117MOL0     N15677  12.077   5.659  10.372 -0.4034  0.0040  0.0886
  117MOL0     C15678  11.966   5.589  10.326  0.5141  0.0690 -0.3467
  117MOL0     C15679  11.907   5.652  10.225  0.1881 -0.4323  0.6589
  117MOL0     C15680  11.797   5.591  10.151  1.4682  0.1703  0.5280
  117MOL0     C15681  11.848   5.502  10.045 -0.5534  0.3042 -0.4617
  117MOL0     C15682  11.894   5.562   9.911 -0.0275 -0.8579  0.1503
  117MOL0     C15683  11.802   5.664   9.849  0.6025 -0.1666  0.9241
  117MOL0     O15684  11.823   5.789   9.909  0.3882 -0.0674 -0.4284
  117MOL0     C15685  11.769   5.898   9.843 -0.8054  0.1911  0.3788
  117MOL0     C15686  11.684   5.895   9.742  0.4351 -0.2090 -0.1177
  117MOL0     C15687  11.629   6.011   9.688 -0.1485 -0.2043 -0.0008
  117MOL0     C15688  11.657   6.139   9.746 -0.7487  0.0038  0.0420
  117MOL0     C15689  11.594   6.264   9.691 -0.0925  0.5521 -0.4419
  117MOL0     O15690  11.646   6.386   9.735  0.9620  0.5838 -0.8501
  117MOL0     C15691  11.620   6.508   9.679  0.1572 -0.3285 -0.6911
  117MOL0     C15692  11.494   6.565   9.679  0.2217 -0.1470 -0.2101
  117MOL0     C15693  11.467   6.680   9.598 -0.5107 -0.2144  1.3601
  117MOL0     C15694  11.574   6.747   9.528 -0.1244  0.4905  1.1874
  117MOL0     O15695  11.536   6.858   9.458  0.4240  0.0259 -0.5430
  117MOL0     C15696  11.627   6.966   9.438 -0.0050 -0.5061 -0.7880
  117MOL0     C15697  11.541   7.068   9.383  0.3867 -0.0414  0.1920
  117MOL0     C15698  11.597   7.216   9.354 -0.4480  1.1261  0.6229
  117MOL0     C15699  11.489   7.315   9.310  0.3491  0.3776  0.5524
  117MOL0     C15700  11.478   7.319   9.159 -0.1292 -0.6038  0.4619
  117MOL0     C15701  11.356   7.385   9.095  0.0611 -0.0557 -1.3842
  117MOL0     C15702  11.232   7.329   9.146  0.6847 -0.6058  0.1676
  117MOL0     C15703  11.112   7.411   9.083 -0.5194 -0.0210 -0.2911
  117MOL0    Cl15704  11.118   7.581   9.139  0.0943  0.2619 -0.4742
  117MOL0     C15705  11.699   6.691   9.532 -0.2212  0.4272 -0.3767
  117MOL0     C15706  11.723   6.572   9.608  0.5714 -0.6678 -0.0307
  117MOL0     O15707  11.498   6.255   9.613  0.1610 -0.7875  0.0303
  117MOL0     C15708  11.747   6.140   9.849 -1.1940  1.4089 -0.3727
  117MOL0     C15709  11.808   6.021   9.899  0.0371  0.3715  0.1383
  117MOL0     N15710  11.981   5.764  10.210  1.2749  0.5882 -1.1092
  117MOL0     N15711  12.079   5.771  10.298  0.4228  0.4555  0.7130
  117MOL0     C15712  11.998   5.644  11.432 -1.0690 -1.2072  0.4389
  117MOL0     C15713  11.877   5.683  11.506  0.5123  0.2072 -0.0449
  117MOL0     C15714  11.475   5.789  11.583 -0.7959 -0.1490  0.8716
  117MOL0     C15715  11.522   5.825  11.717  0.6011 -0.0228  0.0971
  117MOL0     C15716  11.453   5.920  11.788 -0.1885 -0.7274 -1.0953
  117MOL0     C15717  11.332   5.975  11.738  0.0688  0.8783  0.6513
  117MOL0     O15718  11.261   6.071  11.811 -0.2351  0.0132 -0.1914
  117MOL0     C15719  11.296   6.108  11.945  0.7003  1.0840 -0.1472
  117MOL0     C15720  11.174   6.203  11.982 -0.1037 -0.7732  0.1337
  117MOL0     C15721  11.205   6.275  12.118  0.2321  0.7910  1.0839
  117MOL0     C15722  11.092   6.339  12.178  0.9236  0.3077 -0.3642
  117MOL0     C15723  11.085   6.478  12.160  0.7943 -0.0996 -0.5302
  117MOL0     C15724  11.058   6.602  12.154 -0.4730  0.0790 -1.0322
  117MOL0     C15725  11.291   5.942  11.613  0.0134 -0.9714  0.4925
  117MOL0     C15726  11.353   5.851  11.533 -0.3056  0.5819 -0.4888
  117MOL0     C15727  11.290   5.815  11.394 -0.3895  0.2199 -1.5832
  117MOL0     H15728  11.681   5.431  11.402  1.2931 -2.6836  0.6092
  117MOL0     H15729  11.896   5.367  11.285  0.5757  0.8700 -0.2787
  117MOL0     H15730  12.136   5.670  11.173 -1.7260 -1.2728  0.1399
  117MOL0     H15731  12.287   5.600  11.237 -0.7565 -0.8615  0.8784
  117MOL0     H15732  12.100   5.482  11.036 -0.4437  1.6921  2.4183
  117MOL0     H15733  12.237   5.383  11.089  5.3074  0.0238 -3.5231
  117MOL0     H15734  12.410   5.525  10.999 -2.2516 -0.3584  1.6830
  117MOL0     H15735  12.297   5.651  10.964 -4.6342 -0.0955  1.2871
  117MOL0     H15736  12.285   5.386  10.801  3.0819  0.4710  2.6298
  117MOL0     H15737  12.184   5.532  10.781  0.2993 -0.9646 -1.9382
  117MOL0     H15738  12.369   5.668  10.701  4.3257 -0.1850 -0.6481
  117MOL0     H15739  12.479   5.553  10.755 -0.0796  0.1884  0.2375
  117MOL0     H15740  12.421   5.566  10.516 -1.8978  2.0978 -0.4551
  117MOL0     H15741  12.391   5.406  10.576 -2.8526  0.1039  1.1955
  117MOL0     H15742  12.138   5.459  10.580  1.6985  0.4336  2.5176
  117MOL0     H15743  12.205   5.461  10.420 -1.3625 -0.1199  1.6257
  117MOL0     H15744  12.098   5.671  10.588  0.5159 -0.1434  0.1359
  117MOL0     H15745  12.241   5.715  10.503 -1.3887  2.4243  1.7118
  117MOL0     H15746  11.944   5.486  10.351  5.6365 -1.0064  0.9546
  117MOL0     H15747  11.724   5.548  10.220  0.7825  0.6878  0.1471
  117MOL0     H15748  11.748   5.677  10.103  2.2938 -0.1310 -0.9214
  117MOL0     H15749  11.921   5.429  10.081 -1.3066  1.2219  3.2988
  117MOL0     H15750  11.775   5.428  10.009  1.5925 -1.2744 -1.8079
  117MOL0     H15751  11.909   5.488   9.832 -2.6445 -0.8895 -0.4116
  117MOL0     H15752  11.992   5.594   9.948 -0.1509 -1.0729  0.6843
  117MOL0     H15753  11.695   5.646   9.867 -0.4468  2.2586 -2.0240
  117MOL0     H15754  11.825   5.662   9.743  1.1729  0.4756  1.0287
  117MOL0     H15755  11.642   5.802   9.707  0.0966 -0.7447  1.6444
  117MOL0     H15756  11.560   5.994   9.607 -1.8494  0.4914  1.2531
  117MOL0     H15757  11.420   6.510   9.737  0.2353 -0.0990 -0.1490
  117MOL0     H15758  11.365   6.714   9.614 -1.1229  0.9390 -3.5031
  117MOL0     H15759  11.673   7.003   9.531  1.6137 -3.0882 -0.4466
  117MOL0     H15760  11.714   6.936   9.379  1.0988 -1.4455  1.2136
  117MOL0     H15761  11.497   7.040   9.287 -1.2093  1.8643  0.3145
  117MOL0     H15762  11.448   7.082   9.439  0.0788 -3.2493  0.6503
  117MOL0     H15763  11.620   7.260   9.451 -1.8045  2.1869  0.5029
  117MOL0     H15764  11.680   7.227   9.284 -1.8095  2.8068 -0.8400
  117MOL0     H15765  11.513   7.415   9.349 -0.6690  1.7133 -2.0005
  117MOL0     H15766  11.391   7.298   9.357 -0.4134  0.8254 -0.8270
  117MOL0     H15767  11.482   7.213   9.131  1.1267 -1.0106  2.0414
  117MOL0     H15768  11.565   7.363   9.111 -1.0760  1.8267  0.8318
  117MOL0     H15769  11.373   7.483   9.139  3.2334 -0.3211 -1.7621
  117MOL0     H15770  11.361   7.391   8.986  0.2081 -3.5569 -1.6904
  117MOL0     H15771  11.211   7.340   9.252 -2.8848 -0.7360 -0.3836
  117MOL0     H15772  11.222   7.224   9.116 -3.4240 -0.6585  1.0849
  117MOL0     H15773  11.121   7.392   8.976  5.3378 -1.7452  0.1557
  117MOL0     H15774  11.016   7.365   9.108 -1.3673 -0.9258 -4.5348
  117MOL0     H15775  11.784   6.718   9.470  1.5575 -1.0795  1.2666
  117MOL0     H15776  11.824   6.533   9.617  0.8484  0.4194  2.1436
  117MOL0     H15777  11.767   6.236   9.897  2.1980 -0.1243  1.6947
  117MOL0     H15778  11.880   6.003   9.978  2.5742 -4.0161 -2.7361
  117MOL0     H15779  12.085   5.707  11.437 -2.7306  1.2006  0.5763
  117MOL0     H15780  11.882   5.783  11.549 -0.5893 -0.6084  2.1152
  117MOL0     H15781  11.616   5.787  11.756  1.5529  0.4473 -1.6148
  117MOL0     H15782  11.497   5.943  11.884  0.5841  1.9428 -2.0154
  117MOL0     H15783  11.387   6.168  11.945 -1.4945  4.9751  3.3346
  117MOL0     H15784  11.290   6.023  12.014  0.5565  1.8283  0.7949
  117MOL0     H15785  11.077   6.152  11.987 -0.8583  0.5985 -0.0880
  117MOL0     H15786  11.174   6.278  11.903  1.2639 -1.2955 -0.3977
  117MOL0     H15787  11.297   6.334  12.118  1.4808 -1.0529  1.7582
  117MOL0     H15788  11.222   6.194  12.190 -1.7967 -1.1301 -0.4709
  117MOL0     H15789  10.994   6.302  12.144  0.2382  2.2147 -0.6037
  117MOL0     H15790  11.103   6.329  12.286 -1.5565 -1.6990 -0.1868
  117MOL0     H15791  11.013   6.699  12.149 -2.1578 -0.5853  0.2903
  117MOL0     H15792  11.194   5.987  11.594  0.4086  0.3409  1.4319
  117MOL0     H15793  11.181   5.819  11.404 -0.3252  1.1362 -1.2026
  117MOL0     H15794  11.330   5.890  11.325  0.3771  2.8137  1.4678
  117MOL0     H15795  11.305   5.712  11.361 -0.5641 -0.3554  0.0345
  118MOL0     O15796   3.443   5.600   9.119 -0.0573 -0.2138 -0.6835
  118MOL0     C15797   3.367   5.640   9.035  0.9963  0.0299 -0.1811
  118MOL0     O15798   3.376   5.614   8.903  0.6898  0.9929  0.2648
  118MOL0     C15799   3.460   5.515   8.856 -0.8953  0.9955  0.7652
  118MOL0     C15800   3.510   5.401   8.930  0.3604  0.1827  0.3298
  118MOL0     C15801   3.582   5.294   8.882  0.1406  0.4060 -0.5729
  118MOL0     C15802   3.609   5.301   8.745  1.2847 -0.3416 -0.4218
  118MOL0     O15803   3.665   5.191   8.691 -0.5897 -1.0528  0.6506
  118MOL0     C15804   3.718   5.197   8.558  0.0218  0.1946 -1.2470
  118MOL0     C15805   3.756   5.062   8.492 -0.0751 -0.4147  0.1902
  118MOL0     C15806   3.875   4.998   8.560  1.8069 -0.1912 -0.5550
  118MOL0     C15807   3.816   4.912   8.685 -0.0367 -0.4739  0.1012
  118MOL0     C15808   3.800   4.766   8.665  0.2578  0.4820 -0.7868
  118MOL0     C15809   3.689   4.697   8.754  0.2560 -0.1648  0.6206
  118MOL0     C15810   3.704   4.727   8.898  0.7073  0.6182  0.0239
  118MOL0     C15811   3.608   4.673   9.008  0.3068  0.3403  1.0421
  118MOL0     N15812   3.481   4.738   8.999 -0.4775  0.7712 -0.6148
  118MOL0     C15813   3.464   4.880   8.989  0.7781 -0.4817  0.1284
  118MOL0     C15814   3.331   4.903   8.992  0.1276  0.3484 -0.5969
  118MOL0     C15815   3.264   5.041   9.013  0.6709  0.4129 -0.4097
  118MOL0     C15816   3.288   5.090   9.155 -0.3389  0.1305  0.0871
  118MOL0     C15817   3.250   5.238   9.177 -0.7172 -0.2454  0.5216
  118MOL0     C15818   3.101   5.244   9.210 -0.7784  0.0908  0.0308
  118MOL0     O15819   3.061   5.377   9.193  0.0251 -0.4524  0.7772
  118MOL0     C15820   2.923   5.384   9.164  0.1918 -0.0440 -1.2466
  118MOL0     C15821   2.829   5.435   9.261 -0.8059 -0.2413  0.2801
  118MOL0     C15822   2.691   5.442   9.237 -1.2079 -0.9032  0.5753
  118MOL0     C15823   2.642   5.422   9.105  0.3856 -0.1536  0.1799
  118MOL0     C15824   2.496   5.442   9.073  0.2333 -0.1219 -0.5807
  118MOL0     O15825   2.402   5.436   9.164 -0.1832 -1.0437  0.0440
  118MOL0     C15826   2.271   5.445   9.121 -0.0375  0.2701  0.2027
  118MOL0     C15827   2.189   5.334   9.098 -0.0967  0.4306  0.4090
  118MOL0     C15828   2.063   5.353   9.050  0.0031  0.0890 -0.4916
  118MOL0     C15829   2.013   5.477   8.994  0.4333  0.6531 -1.0114
  118MOL0     O15830   1.895   5.485   8.939 -0.4741 -0.3731 -0.3537
  118MOL0     C15831   1.894   5.437   8.799 -0.1973 -0.5037  0.0699
  118MOL0     C15832   1.758   5.479   8.741  0.6242 -0.1413  0.3166
  118MOL0     C15833   1.719   5.396   8.616  0.3434  0.2948  0.3868
  118MOL0     C15834   1.830   5.399   8.501  0.8501  0.1753  0.0541
  118MOL0     C15835   1.745   5.387   8.371  1.3479  0.0762 -0.1939
  118MOL0     C15836   1.835   5.363   8.256 -0.9894  0.7983  0.4706
  118MOL0     C15837   1.760   5.321   8.131  0.2433  0.8792 -0.2064
  118MOL0     C15838   1.698   5.443   8.058 -0.5612  0.6302 -0.5444
  118MOL0    Cl15839   1.528   5.407   8.049  0.1680 -0.4733 -0.5219
  118MOL0     C15840   2.098   5.588   9.024  0.2831 -1.3829  0.5770
  118MOL0     C15841   2.222   5.567   9.079 -0.3537  1.2441 -0.7309
  118MOL0     O15842   2.471   5.459   8.955 -0.9175 -0.3203  0.1569
  118MOL0     C15843   2.736   5.385   9.014 -0.2792  0.7700  0.6102
  118MOL0     C15844   2.878   5.365   9.038 -0.3287 -0.6847  0.6317
  118MOL0     N15845   3.273   4.777   8.989  0.8218 -0.1815  0.0399
  118MOL0     N15846   3.353   4.680   9.003 -0.4478 -0.0514  1.0620
  118MOL0     C15847   3.571   5.413   8.669 -0.2068  0.3125 -0.2823
  118MOL0     C15848   3.498   5.511   8.721  0.2879 -0.8998 -0.5298
  118MOL0     C15849   3.259   5.734   9.070 -0.1071  0.8027  0.4116
  118MOL0     C15850   3.130   5.709   9.023 -0.4419  0.0116  0.0573
  118MOL0     C15851   3.017   5.781   9.065 -0.4257  0.1141  0.0925
  118MOL0     C15852   3.040   5.887   9.156  0.5417 -0.5692 -0.5892
  118MOL0     O15853   2.937   5.961   9.212 -0.0448  0.5662  0.1104
  118MOL0     C15854   2.799   5.919   9.183 -0.3478  0.7132  0.7974
  118MOL0     C15855   2.751   5.798   9.257  0.1728  0.5545  0.3464
  118MOL0     C15856   2.692   5.835   9.397 -0.5187  0.0694  0.1408
  118MOL0     C15857   2.537   5.827   9.395  0.6306 -0.5647 -0.1383
  118MOL0     C15858   2.447   5.903   9.300 -0.1252  0.2732 -1.2872
  118MOL0     C15859   2.385   5.966   9.225 -0.1390  0.7176  0.9440
  118MOL0     C15860   3.170   5.911   9.203  0.5139  0.3537  0.4454
  118MOL0     C15861   3.280   5.839   9.167 -0.6265  0.1779  0.2236
  118MOL0     C15862   3.423   5.892   9.201  0.7094  0.4387  0.4295
  118MOL0     H15863   3.480   5.382   9.032 -0.4897  1.2786  0.3079
  118MOL0     H15864   3.615   5.204   8.933  1.8738 -0.5602 -3.1845
  118MOL0     H15865   3.649   5.243   8.487 -1.1966 -0.6475 -0.6527
  118MOL0     H15866   3.816   5.244   8.571  1.0597 -2.5268  2.4827
  118MOL0     H15867   3.784   5.070   8.386 -0.1027  0.5619  0.2451
  118MOL0     H15868   3.670   4.995   8.494 -0.2080 -0.2745 -0.3880
  118MOL0     H15869   3.954   5.069   8.588  0.5862  1.4110 -1.0007
  118MOL0     H15870   3.914   4.930   8.483  1.3479  0.0827 -1.0413
  118MOL0     H15871   3.882   4.920   8.773  0.2128  0.6181 -0.1668
  118MOL0     H15872   3.726   4.964   8.720 -0.3511 -0.2048 -1.0644
  118MOL0     H15873   3.777   4.757   8.558 -0.2275 -0.0520 -0.6397
  118MOL0     H15874   3.892   4.714   8.693  0.1711  2.2153  3.4260
  118MOL0     H15875   3.591   4.731   8.720 -0.8620 -2.3652  1.4032
  118MOL0     H15876   3.689   4.591   8.726  3.6109  0.0846 -0.8241
  118MOL0     H15877   3.710   4.836   8.910 -2.4585  0.7359  1.7630
  118MOL0     H15878   3.797   4.679   8.928  0.8988  0.6785 -0.4704
  118MOL0     H15879   3.584   4.567   9.006 -1.5159  0.7195  0.7562
  118MOL0     H15880   3.659   4.694   9.102 -1.7921  0.7968  2.1422
  118MOL0     H15881   3.536   4.958   9.010  0.6809 -0.1298 -0.8052
  118MOL0     H15882   3.313   5.112   8.945 -1.5125  3.2922  0.8010
  118MOL0     H15883   3.160   5.046   8.980  1.1498  1.7968 -1.8603
  118MOL0     H15884   3.241   5.024   9.228  1.4757  0.2385  1.4367
  118MOL0     H15885   3.397   5.080   9.158  0.0634  3.2703 -0.2766
  118MOL0     H15886   3.273   5.282   9.079  0.1481 -1.6225  0.0673
  118MOL0     H15887   3.305   5.291   9.256  0.0514  2.3059 -1.5754
  118MOL0     H15888   3.090   5.207   9.312  2.5955 -3.4305 -0.6555
  118MOL0     H15889   3.041   5.175   9.150 -1.9215 -1.2357  2.5668
  118MOL0     H15890   2.869   5.459   9.360  2.1442  1.1460 -1.1084
  118MOL0     H15891   2.619   5.461   9.316  0.1411  1.5715  1.3279
  118MOL0     H15892   2.218   5.236   9.134  0.8138 -1.2351 -4.1287
  118MOL0     H15893   1.986   5.277   9.058 -1.1585  1.4139  2.0351
  118MOL0     H15894   1.969   5.477   8.731 -2.6156  0.7302 -2.0126
  118MOL0     H15895   1.906   5.328   8.798 -1.3747 -0.6741  1.3824
  118MOL0     H15896   1.695   5.453   8.827  1.6741 -2.0392  0.5619
  118MOL0     H15897   1.752   5.588   8.732 -0.0234 -0.3102 -1.8744
  118MOL0     H15898   1.708   5.290   8.643  1.8300  0.2573  0.9852
  118MOL0     H15899   1.622   5.435   8.585 -0.8008  1.0925  4.3215
  118MOL0     H15900   1.890   5.309   8.518 -0.4082 -0.4960  1.2011
  118MOL0     H15901   1.897   5.485   8.506 -1.6322  2.1906  1.0303
  118MOL0     H15902   1.688   5.480   8.360 -0.5697 -1.1623 -1.2538
  118MOL0     H15903   1.679   5.301   8.384  0.2516  0.9889  0.4442
  118MOL0     H15904   1.910   5.440   8.235 -0.1849 -0.4233 -1.3671
  118MOL0     H15905   1.897   5.277   8.281  1.7117  2.1577 -1.1118
  118MOL0     H15906   1.679   5.255   8.165 -0.0792  1.7240  0.7232
  118MOL0     H15907   1.823   5.272   8.056  2.0992  0.6944  1.4045
  118MOL0     H15908   1.731   5.535   8.107  0.0911  1.2620 -2.1059
  118MOL0     H15909   1.744   5.437   7.959  0.7905 -3.4915  0.0943
  118MOL0     H15910   2.064   5.688   8.997  1.8681 -0.2553  2.4434
  118MOL0     H15911   2.300   5.634   9.114 -0.0837 -0.2744  1.7657
  118MOL0     H15912   2.700   5.381   8.912 -2.8156 -2.7772  1.4560
  118MOL0     H15913   2.947   5.337   8.959 -0.3491 -1.2192  0.7956
  118MOL0     H15914   3.594   5.415   8.563 -2.1439 -1.2229 -0.7804
  118MOL0     H15915   3.476   5.599   8.662 -0.1311 -1.2777 -0.9480
  118MOL0     H15916   3.121   5.639   8.940  2.7082 -0.2585 -0.1896
  118MOL0     H15917   2.923   5.768   9.012  0.4861 -1.7054 -1.1740
  118MOL0     H15918   2.794   5.899   9.076 -1.8824 -0.7231  1.1069
  118MOL0     H15919   2.719   5.992   9.196 -0.3080  0.9436 -0.1855
  118MOL0     H15920   2.827   5.719   9.255 -1.1898 -0.7979  0.2463
  118MOL0     H15921   2.671   5.749   9.202  1.0599 -0.5443 -0.0037
  118MOL0     H15922   2.737   5.931   9.422 -1.9136  0.5977  0.6577
  118MOL0     H15923   2.724   5.777   9.484 -1.3010  0.9270  1.0166
  118MOL0     H15924   2.511   5.721   9.395  2.8414 -1.2381 -3.5239
  118MOL0     H15925   2.507   5.856   9.496 -0.6232 -0.2991 -0.5653
  118MOL0     H15926   2.327   6.041   9.175 -0.9767 -0.3355  0.2931
  118MOL0     H15927   3.185   5.983   9.283 -2.1076 -1.0544  2.3502
  118MOL0     H15928   3.427   5.999   9.225 -0.5115  0.3628  1.0354
  118MOL0     H15929   3.466   5.846   9.291  1.2813  1.3138  0.6217
  118MOL0     H15930   3.493   5.882   9.118  1.0767  2.0830  0.5013
  119MOL0     O15931   2.284   0.427   7.707  0.0835  0.0506 -0.6060
  119MOL0     C15932   2.332   0.339   7.637 -0.1544  0.0363  0.5238
  119MOL0     O15933   2.291   0.202   7.633  0.7774  0.4436 -0.1341
  119MOL0     C15934   2.197   0.151   7.725 -0.2208  0.0152  0.3317
  119MOL0     C15935   2.078   0.212   7.767  0.5025  0.1001  0.0312
  119MOL0     C15936   1.970   0.139   7.819 -0.5901 -0.4005 -1.0275
  119MOL0     C15937   1.978   0.004   7.828 -0.1890 -0.7622 -0.5582
  119MOL0     O15938   1.864  -0.041   7.888  0.0390  0.4780 -1.6833
  119MOL0     C15939   1.853  -0.176   7.928 -0.5131 -0.1008 -0.6004
  119MOL0     C15940   1.739  -0.196   8.036  1.2524 -0.7687 -0.7424
  119MOL0     C15941   1.606  -0.180   7.972  0.0165  0.3486  0.5190
  119MOL0     C15942   1.492  -0.200   8.066 -0.4123 -1.2461  0.4840
  119MOL0     C15943   1.361  -0.153   8.011  0.2913 -0.5492  0.9142
  119MOL0     C15944   1.309  -0.262   7.922 -0.2100  0.8033  0.7511
  119MOL0     C15945   1.188  -0.203   7.853  0.3277 -0.3721  0.3052
  119MOL0     C15946   1.115  -0.304   7.762  0.0468  0.5266 -0.0541
  119MOL0     N15947   1.035  -0.405   7.837 -0.2965 -0.2406 -0.6509
  119MOL0     C15948   0.945  -0.377   7.945 -0.0800 -0.1052 -0.7724
  119MOL0     C15949   0.904  -0.495   7.990 -0.1674 -0.2975 -0.4895
  119MOL0     C15950   0.809  -0.518   8.113  0.7168  0.2977  0.1794
  119MOL0     C15951   0.733  -0.651   8.088 -0.5473  0.5332  0.1272
  119MOL0     C15952   0.630  -0.679   8.202 -0.8221  0.0239  0.6711
  119MOL0     C15953   0.690  -0.663   8.339 -0.1095 -0.4552  0.1266
  119MOL0     O15954   0.595  -0.701   8.446 -0.2527  0.0814  0.5629
  119MOL0     C15955   0.517  -0.607   8.510  0.4967 -0.1984 -0.4878
  119MOL0     C15956   0.406  -0.663   8.588 -0.1270 -0.4105 -0.3116
  119MOL0     C15957   0.309  -0.576   8.645 -0.5525  0.3029  0.2535
  119MOL0     C15958   0.311  -0.433   8.625  0.1252 -0.2556  1.5299
  119MOL0     C15959   0.213  -0.342   8.686  0.4414 -0.5230  0.0639
  119MOL0     O15960   0.242  -0.201   8.691  0.1356  0.8920  0.1907
  119MOL0     C15961   0.155  -0.123   8.754 -0.2217  0.4192  0.7381
  119MOL0     C15962   0.063  -0.059   8.678  0.2579 -1.0844  0.3084
  119MOL0     C15963  -0.036   0.019   8.742 -0.5017 -0.4927  1.1211
  119MOL0     C15964  -0.041   0.019   8.884 -0.1675 -0.4429  1.1765
  119MOL0     O15965  -0.146   0.107   8.933  0.5022  0.2665 -0.1411
  119MOL0     C15966  -0.135   0.155   9.064  0.4587 -0.6285  0.3427
  119MOL0     C15967  -0.243   0.083   9.156 -0.8523  0.0373 -0.6393
  119MOL0     C15968  -0.264   0.122   9.301  1.0200 -1.0338 -0.5142
  119MOL0     C15969  -0.147   0.189   9.367  0.0708  0.7463 -1.2224
  119MOL0     C15970  -0.179   0.244   9.501  0.7401  0.0174 -0.6494
  119MOL0     C15971  -0.055   0.281   9.590  0.0199  0.7104  0.0274
  119MOL0     C15972  -0.092   0.344   9.737 -0.8806  0.6477  1.3277
  119MOL0     C15973  -0.120   0.498   9.711  0.2207  0.4441 -0.6383
  119MOL0    Cl15974  -0.114   0.593   9.867 -0.0540  0.0828  0.1809
  119MOL0     C15975   0.051  -0.057   8.954 -0.4414  0.4535 -0.7329
  119MOL0     C15976   0.152  -0.129   8.891 -0.4219 -0.0690  0.0929
  119MOL0     O15977   0.116  -0.396   8.746  0.8898 -0.3743 -0.1725
  119MOL0     C15978   0.418  -0.381   8.546  0.0881  0.2908  0.2763
  119MOL0     C15979   0.522  -0.466   8.495 -0.0206  0.8240  0.3030
  119MOL0     N15980   0.977  -0.594   7.925  0.0103 -0.1736  0.1444
  119MOL0     N15981   1.044  -0.542   7.828 -0.7016 -0.1918  0.4192
  119MOL0     C15982   2.094  -0.061   7.796 -0.1693  0.3556  0.0019
  119MOL0     C15983   2.208   0.009   7.749 -0.0158 -0.1978  0.2191
  119MOL0     C15984   2.437   0.381   7.536 -0.0495  0.7101 -0.4472
  119MOL0     C15985   2.443   0.327   7.406  0.3311 -0.2536  0.8981
  119MOL0     C15986   2.518   0.388   7.299  0.2822 -0.0040 -0.3003
  119MOL0     C15987   2.614   0.481   7.316 -0.3413  0.1128  0.4366
  119MOL0     O15988   2.697   0.515   7.223 -0.5346 -0.2203  0.2373
  119MOL0     C15989   2.661   0.524   7.079  0.4717  0.9427  0.1397
  119MOL0     C15990   2.776   0.599   7.016  0.5019  0.4847  0.3011
  119MOL0     C15991   2.774   0.603   6.855 -0.7799  0.2221  1.3850
  119MOL0     C15992   2.648   0.657   6.788 -0.4351  0.2992  0.8534
  119MOL0     C15993   2.536   0.566   6.818 -0.0716  0.5180  1.1082
  119MOL0     C15994   2.433   0.503   6.835 -0.0279 -0.6848  0.4091
  119MOL0     C15995   2.622   0.521   7.456  0.6461 -0.8657  0.4872
  119MOL0     C15996   2.537   0.477   7.563  0.2599 -0.7941 -0.4986
  119MOL0     C15997   2.548   0.549   7.700 -0.2003  1.0279  1.1341
  119MOL0     H15998   2.069   0.316   7.735 -1.7798 -0.3862 -1.1486
  119MOL0     H15999   1.883   0.196   7.850 -0.3583 -1.4872  1.8677
  119MOL0     H16000   1.843  -0.242   7.841 -2.5933  0.5373 -0.9052
  119MOL0     H16001   1.949  -0.190   7.979 -1.9217  0.0919  2.2564
  119MOL0     H16002   1.750  -0.122   8.116 -2.1401 -0.0201 -0.8431
  119MOL0     H16003   1.746  -0.296   8.080 -2.8738 -1.2336 -0.7756
  119MOL0     H16004   1.596  -0.251   7.889  0.3826  3.4409 -2.3814
  119MOL0     H16005   1.597  -0.076   7.941 -0.4223  0.4664  1.0201
  119MOL0     H16006   1.494  -0.300   8.111 -1.8159 -0.9950  1.1511
  119MOL0     H16007   1.519  -0.131   8.146  2.1267  2.0487 -2.9064
  119MOL0     H16008   1.284  -0.114   8.079 -0.8931 -0.2779 -0.5344
  119MOL0     H16009   1.389  -0.057   7.967  2.0069 -0.2613  2.4915
  119MOL0     H16010   1.371  -0.281   7.835 -3.2234  1.5774 -1.7408
  119MOL0     H16011   1.281  -0.351   7.981 -0.8065  0.2931 -0.2718
  119MOL0     H16012   1.225  -0.126   7.784 -0.9833 -0.3277 -0.3696
  119MOL0     H16013   1.132  -0.164   7.938  3.7221 -0.5942  2.8656
  119MOL0     H16014   1.058  -0.242   7.693 -0.1679 -0.0671 -0.4136
  119MOL0     H16015   1.188  -0.353   7.697 -0.2846 -0.0923  0.0315
  119MOL0     H16016   0.901  -0.286   7.985 -0.1380  0.9374 -3.0663
  119MOL0     H16017   0.880  -0.534   8.195 -0.0203  4.2104  1.8274
  119MOL0     H16018   0.739  -0.440   8.144  0.9959 -0.1798  2.1293
  119MOL0     H16019   0.688  -0.640   7.989  0.5253  0.4800 -0.3713
  119MOL0     H16020   0.805  -0.732   8.076 -0.5684  0.4412  0.5912
  119MOL0     H16021   0.602  -0.784   8.192  0.9823 -1.1842  5.4584
  119MOL0     H16022   0.560  -0.597   8.185 -1.5279 -0.4136  1.4122
  119MOL0     H16023   0.720  -0.559   8.355 -0.5147 -0.3945  0.5093
  119MOL0     H16024   0.780  -0.725   8.352  0.9005  0.6431 -1.2046
  119MOL0     H16025   0.403  -0.771   8.604  1.2026 -0.2209  1.7205
  119MOL0     H16026   0.223  -0.616   8.697 -1.3787 -2.0765 -2.6824
  119MOL0     H16027   0.061  -0.069   8.570 -0.3222  0.1540  0.1901
  119MOL0     H16028  -0.105   0.074   8.679 -0.4374  0.3423  1.7607
  119MOL0     H16029  -0.040   0.138   9.115 -1.4022 -4.7837  2.9809
  119MOL0     H16030  -0.151   0.263   9.061 -0.1129 -0.4435  4.2436
  119MOL0     H16031  -0.334   0.100   9.098 -0.1604  1.3155 -1.3939
  119MOL0     H16032  -0.230  -0.025   9.144 -0.7529  0.1742 -1.8915
  119MOL0     H16033  -0.348   0.191   9.299 -0.0352 -2.2929 -0.7397
  119MOL0     H16034  -0.301   0.039   9.361  1.4571 -0.1937  0.9460
  119MOL0     H16035  -0.106   0.273   9.309  2.5400  1.3593  1.2023
  119MOL0     H16036  -0.070   0.113   9.386 -0.7898 -0.3395 -1.9280
  119MOL0     H16037  -0.226   0.164   9.558  3.6408 -1.5015 -0.2618
  119MOL0     H16038  -0.244   0.333   9.502  2.0742  1.2693  4.8464
  119MOL0     H16039  -0.001   0.191   9.622 -0.6895  0.5002  0.6582
  119MOL0     H16040   0.013   0.349   9.538  1.5426  1.3879  2.7060
  119MOL0     H16041   0.005   0.341   9.786 -0.5660 -2.3829  0.7495
  119MOL0     H16042  -0.169   0.284   9.788 -0.7738 -1.3896 -0.7455
  119MOL0     H16043  -0.041   0.547   9.654  0.7330  1.4264  0.8623
  119MOL0     H16044  -0.221   0.513   9.672  0.9338  4.2232 -1.4336
  119MOL0     H16045   0.041  -0.061   9.062 -1.1565 -1.2588 -0.8368
  119MOL0     H16046   0.218  -0.191   8.951  1.5685  1.1019 -0.7857
  119MOL0     H16047   0.430  -0.274   8.535  0.4213  0.4325  1.7114
  119MOL0     H16048   0.607  -0.420   8.446 -1.1443  1.5268 -1.0460
  119MOL0     H16049   2.096  -0.169   7.809 -1.7647  0.0404 -1.8775
  119MOL0     H16050   2.299  -0.046   7.728  1.2590  0.1501  4.0383
  119MOL0     H16051   2.377   0.248   7.372  2.2597 -1.0438 -1.2917
  119MOL0     H16052   2.503   0.339   7.203  1.3372  0.6841 -0.8399
  119MOL0     H16053   2.577   0.594   7.082  0.7684  1.3366 -0.3227
  119MOL0     H16054   2.641   0.433   7.022  1.5125  1.4800 -1.1474
  119MOL0     H16055   2.871   0.552   7.044 -0.2414 -1.0327  0.3742
  119MOL0     H16056   2.781   0.700   7.058  0.8068  0.0495  1.3466
  119MOL0     H16057   2.796   0.506   6.810  1.0305  2.3026 -2.7084
  119MOL0     H16058   2.859   0.662   6.820 -0.3401 -2.2917 -2.3000
  119MOL0     H16059   2.615   0.757   6.819  0.6646  0.5794  1.1922
  119MOL0     H16060   2.658   0.665   6.680  1.1033 -1.1186  0.8424
  119MOL0     H16061   2.339   0.453   6.830  0.0393 -0.7672 -0.1663
  119MOL0     H16062   2.694   0.599   7.481  0.7626 -1.8384  3.6515
  119MOL0     H16063   2.488   0.640   7.701 -0.2698  1.0929 -1.5022
  119MOL0     H16064   2.534   0.487   7.789 -2.6228 -0.3680 -0.0987
  119MOL0     H16065   2.645   0.599   7.705  0.4916 -0.1839  0.3879
  120MOL0     O16066   5.486   1.592   0.205 -0.0849 -0.4692 -0.8643
  120MOL0     C16067   5.572   1.533   0.139  0.8643 -1.0548 -0.1964
  120MOL0     O16068   5.585   1.397   0.132 -0.2878 -0.5509  0.3886
  120MOL0     C16069   5.490   1.311   0.177  0.4048  0.6789 -0.4542
  120MOL0     C16070   5.390   1.252   0.098 -0.1608  1.2345 -0.3510
  120MOL0     C16071   5.301   1.155   0.160  0.4035 -0.7303 -0.8279
  120MOL0     C16072   5.329   1.112   0.293  0.9545  0.8930 -0.9348
  120MOL0     O16073   5.257   1.025   0.362 -0.5055 -0.5010  0.0545
  120MOL0     C16074   5.128   0.975   0.320  0.2802 -0.0357 -0.5284
  120MOL0     C16075   5.061   0.886   0.426 -0.4529 -0.0261  0.3999
  120MOL0     C16076   5.055   0.961   0.565  0.0058 -0.5125 -0.3053
  120MOL0     C16077   4.972   1.094   0.548  0.5102 -1.3000 -0.2303
  120MOL0     C16078   4.960   1.176   0.686 -0.4464 -0.3199 -0.4388
  120MOL0     C16079   4.897   1.099   0.798  0.0733  0.3644 -0.0174
  120MOL0     C16080   4.985   1.040   0.903 -0.7189 -0.3863 -0.4613
  120MOL0     C16081   5.070   1.147   0.989 -0.8973 -0.0431 -0.5350
  120MOL0     N16082   5.154   1.085   1.098 -0.7016 -0.7826 -0.2118
  120MOL0     C16083   5.266   1.010   1.058 -0.1928  0.5601 -0.1274
  120MOL0     C16084   5.295   0.919   1.159 -0.1248 -0.8875 -0.0481
  120MOL0     C16085   5.400   0.809   1.168  0.0827 -1.0413  1.3266
  120MOL0     C16086   5.462   0.802   1.306 -0.2176  0.4840 -0.1327
  120MOL0     C16087   5.599   0.734   1.305 -0.5920  0.3761  0.5018
  120MOL0     C16088   5.606   0.582   1.294 -0.5943  0.5482  0.1312
  120MOL0     O16089   5.581   0.545   1.155  0.0096 -0.3626 -0.3363
  120MOL0     C16090   5.674   0.485   1.066 -0.3906 -0.3544 -0.6490
  120MOL0     C16091   5.679   0.538   0.938 -0.2581  0.9680 -0.2190
  120MOL0     C16092   5.734   0.461   0.828 -0.0932  0.2988 -0.5187
  120MOL0     C16093   5.791   0.343   0.850 -0.3432  1.2715 -0.7573
  120MOL0     C16094   5.861   0.277   0.736 -0.3639  0.4720 -0.2009
  120MOL0     O16095   5.953   0.175   0.767  0.1361  0.1975  0.0356
  120MOL0     C16096   6.014   0.123   0.656  0.9350  1.0500 -0.2881
  120MOL0     C16097   6.141   0.173   0.621  0.5584  0.0707 -0.3564
  120MOL0     C16098   6.204   0.127   0.512 -0.2982  0.1423  0.7749
  120MOL0     C16099   6.140   0.028   0.427 -1.2291 -0.0431  0.7217
  120MOL0     O16100   6.200  -0.018   0.317  0.1419 -0.3543  0.4434
  120MOL0     C16101   6.343  -0.026   0.315 -0.1352 -1.2950  0.0131
  120MOL0     C16102   6.408  -0.106   0.209  0.6067 -0.1626  0.5547
  120MOL0     C16103   6.552  -0.134   0.250 -0.7613  0.3767 -0.3785
  120MOL0     C16104   6.648  -0.013   0.279 -0.9110 -0.3805  0.5243
  120MOL0     C16105   6.647   0.085   0.167 -0.0256  1.2563  1.2672
  120MOL0     C16106   6.749   0.210   0.194  0.2801 -0.4908 -0.4970
  120MOL0     C16107   6.716   0.318   0.079  0.4020  0.4227 -0.5596
  120MOL0     C16108   6.845   0.386   0.038 -0.1933 -0.0137 -0.0673
  120MOL0    Cl16109   6.916   0.455   0.196  0.0398 -0.1127  0.3512
  120MOL0     C16110   6.012  -0.016   0.461 -0.2028 -0.6667 -0.4340
  120MOL0     C16111   5.947   0.020   0.579  0.1934  0.2307  0.8729
  120MOL0     O16112   5.847   0.325   0.632 -0.6231  0.0823  0.6723
  120MOL0     C16113   5.797   0.292   0.981  0.2895  0.4981 -0.3884
  120MOL0     C16114   5.738   0.361   1.086 -0.0425  0.3225  0.1535
  120MOL0     N16115   5.216   0.962   1.267 -0.5590 -0.6417 -0.1450
  120MOL0     N16116   5.128   1.061   1.234 -1.0529 -0.1890 -0.2766
  120MOL0     C16117   5.441   1.164   0.356 -0.3894  0.7291  0.0410
  120MOL0     C16118   5.524   1.258   0.299 -0.2657 -0.0909 -0.2387
  120MOL0     C16119   5.683   1.614   0.080 -0.1646 -0.2030  0.0063
  120MOL0     C16120   5.657   1.748   0.048 -0.4246  0.1864  0.5760
  120MOL0     C16121   5.755   1.835   0.002  0.2749 -0.5531 -0.0249
  120MOL0     C16122   5.883   1.796  -0.031  0.5306 -0.9017 -0.9453
  120MOL0     O16123   5.980   1.878  -0.085  0.8130 -0.0170  0.5417
  120MOL0     C16124   5.940   2.017  -0.133  0.4951 -0.1957  0.1544
  120MOL0     C16125   6.061   2.074  -0.201  0.0542  0.1951  0.3101
  120MOL0     C16126   6.053   2.034  -0.347  0.3061 -0.7358  0.1715
  120MOL0     C16127   6.164   2.106  -0.433  0.8703 -0.3774 -0.0514
  120MOL0     C16128   6.184   2.037  -0.556 -0.3127 -0.6828  0.6047
  120MOL0     C16129   6.220   1.990  -0.669  0.3609  0.7029  0.5787
  120MOL0     C16130   5.917   1.667  -0.003 -0.2832  0.8489  0.3655
  120MOL0     C16131   5.827   1.576   0.062  0.0904 -0.1571  0.3394
  120MOL0     C16132   5.872   1.439   0.109  0.4826  0.5167  0.5212
  120MOL0     H16133   5.378   1.288  -0.004  0.7419 -1.1176 -1.3540
  120MOL0     H16134   5.214   1.112   0.110 -1.7596  2.8704 -0.5032
  120MOL0     H16135   5.063   1.061   0.301 -1.4958 -1.3073 -0.5029
  120MOL0     H16136   5.136   0.919   0.227 -0.2539 -2.6588  0.8946
  120MOL0     H16137   5.126   0.798   0.434 -0.1506  0.2849  1.6837
  120MOL0     H16138   4.956   0.872   0.398 -0.0985 -0.8640 -0.5845
  120MOL0     H16139   5.149   0.986   0.615 -2.3806  1.3588  3.8080
  120MOL0     H16140   4.989   0.905   0.632 -1.4061  0.2219 -1.0291
  120MOL0     H16141   5.006   1.167   0.474 -3.8636 -0.6382 -1.8420
  120MOL0     H16142   4.867   1.071   0.530  0.0472 -0.0582  0.7136
  120MOL0     H16143   5.057   1.218   0.712 -2.0635  1.5735  3.3224
  120MOL0     H16144   4.891   1.259   0.670 -1.7187 -1.2640 -0.0190
  120MOL0     H16145   4.834   1.169   0.854 -2.2207 -1.1452 -0.5682
  120MOL0     H16146   4.837   1.018   0.756 -1.6300 -0.7127  4.0679
  120MOL0     H16147   5.057   0.977   0.850 -2.1038 -0.0180 -2.9786
  120MOL0     H16148   4.931   0.966   0.962 -0.5611 -1.5087 -1.6903
  120MOL0     H16149   5.142   1.201   0.927 -0.4242  0.7598  0.6812
  120MOL0     H16150   5.006   1.227   1.029 -0.1000  0.5634 -0.4375
  120MOL0     H16151   5.317   1.002   0.963 -1.0550 -3.6975 -0.4239
  120MOL0     H16152   5.362   0.715   1.130 -3.3327 -0.0490  1.9750
  120MOL0     H16153   5.475   0.847   1.098 -1.6530  0.9607  0.4651
  120MOL0     H16154   5.468   0.903   1.348  1.2996  0.5686 -0.5207
  120MOL0     H16155   5.405   0.739   1.375 -0.1236 -0.1692 -0.6432
  120MOL0     H16156   5.653   0.750   1.399  0.2725 -0.2197  0.1186
  120MOL0     H16157   5.670   0.775   1.233 -0.7973  1.5779  0.9535
  120MOL0     H16158   5.525   0.531   1.348  0.0450  0.3790  0.9411
  120MOL0     H16159   5.709   0.563   1.324  1.0036  4.5266 -2.0429
  120MOL0     H16160   5.621   0.626   0.911 -1.4397 -0.5579 -3.2051
  120MOL0     H16161   5.730   0.513   0.732 -2.2269  3.1831  0.9788
  120MOL0     H16162   6.192   0.245   0.683  0.5014 -0.5677  0.4509
  120MOL0     H16163   6.299   0.173   0.488 -0.9379  0.3652 -1.5121
  120MOL0     H16164   6.377   0.077   0.306  1.9221 -1.6735  2.2761
  120MOL0     H16165   6.378  -0.064   0.412 -0.4081 -1.9669 -0.1449
  120MOL0     H16166   6.350  -0.196   0.187 -1.8663  2.0031 -2.6017
  120MOL0     H16167   6.404  -0.054   0.113 -3.7916  1.9068  1.6049
  120MOL0     H16168   6.554  -0.199   0.337  1.1954  2.0940  0.9486
  120MOL0     H16169   6.607  -0.187   0.171  2.1940 -0.8349  2.2774
  120MOL0     H16170   6.749  -0.053   0.293 -0.5374  0.2360 -0.2958
  120MOL0     H16171   6.626   0.035   0.374  2.9600 -0.1448  1.4709
  120MOL0     H16172   6.544   0.120   0.157 -1.4615 -2.6532  0.7706
  120MOL0     H16173   6.672   0.027   0.078  0.9814  0.7836  1.8434
  120MOL0     H16174   6.746   0.253   0.295 -1.6363 -1.2556 -0.1821
  120MOL0     H16175   6.852   0.175   0.193  0.4719  0.0705 -1.3426
  120MOL0     H16176   6.648   0.394   0.117  0.4307  0.7129 -1.0882
  120MOL0     H16177   6.676   0.264  -0.007 -0.6888 -2.6674  1.6813
  120MOL0     H16178   6.908   0.312  -0.013 -0.7020  1.0905 -2.4321
  120MOL0     H16179   6.819   0.472  -0.025 -2.0685  0.9862  1.9545
  120MOL0     H16180   5.978  -0.097   0.397  0.3534 -0.8372 -0.5238
  120MOL0     H16181   5.861  -0.031   0.621 -0.1827  0.8329  0.8467
  120MOL0     H16182   5.850   0.203   1.014  2.8271  3.4473  4.7004
  120MOL0     H16183   5.757   0.328   1.188  1.1780  0.2176 -0.0927
  120MOL0     H16184   5.445   1.131   0.459  1.0639  0.8370  0.0409
  120MOL0     H16185   5.608   1.314   0.337  2.1269 -2.4828 -1.5933
  120MOL0     H16186   5.555   1.779   0.069 -0.5743 -1.1333  2.0025
  120MOL0     H16187   5.724   1.939   0.004  1.8555 -0.0205  2.7319
  120MOL0     H16188   5.924   2.087  -0.050  1.3608 -0.2249  0.3589
  120MOL0     H16189   5.845   2.010  -0.186  1.0148 -1.9981 -0.6138
  120MOL0     H16190   6.159   2.033  -0.175 -0.1498 -1.6378 -1.5780
  120MOL0     H16191   6.065   2.183  -0.194 -0.0099  0.1701  0.7805
  120MOL0     H16192   5.951   2.053  -0.382  0.1383  1.0083  1.4866
  120MOL0     H16193   6.065   1.926  -0.359 -0.2521 -0.6896 -0.9176
  120MOL0     H16194   6.143   2.212  -0.451  1.8545  0.2307  2.1413
  120MOL0     H16195   6.261   2.101  -0.383  2.7535  2.0237 -3.0597
  120MOL0     H16196   6.240   1.952  -0.767  0.9750 -0.6613  1.2243
  120MOL0     H16197   6.015   1.633  -0.033 -0.4845 -0.9825  1.6347
  120MOL0     H16198   5.837   1.421   0.211  2.4740  0.7727  1.3003
  120MOL0     H16199   5.836   1.367   0.035 -1.0178  1.0413  0.7014
  120MOL0     H16200   5.981   1.434   0.103  0.3871  0.3389 -2.1593
  121MOL0     O16201  10.768  10.718   3.672 -0.0497 -0.2835  0.3320
  121MOL0     C16202  10.698  10.788   3.752  0.4117  0.6526 -0.1468
  121MOL0     O16203  10.568  10.830   3.719  0.3216 -1.0341  0.1581
  121MOL0     C16204  10.523  10.841   3.586 -0.4223 -0.4342  0.1360
  121MOL0     C16205  10.388  10.880   3.585  0.0059  0.1861 -0.6819
  121MOL0     C16206  10.316  10.897   3.468 -0.6576 -0.5323 -0.3173
  121MOL0     C16207  10.377  10.876   3.348 -0.7383  0.0836 -0.3533
  121MOL0     O16208  10.320  10.878   3.225  0.3622  0.1932  0.5766
  121MOL0     C16209  10.337  10.765   3.140  0.1978 -0.5743 -0.7049
  121MOL0     C16210  10.248  10.768   3.019 -0.1597 -0.8314 -0.5579
  121MOL0     C16211  10.097  10.770   3.061 -0.6961 -0.3669  0.3055
  121MOL0     C16212  10.019  10.840   2.951 -0.5773  0.4463 -0.1104
  121MOL0     C16213  10.042  10.782   2.805 -0.7877  0.7756 -0.9607
  121MOL0     C16214   9.945  10.832   2.695 -0.1702 -0.2572  0.3476
  121MOL0     C16215   9.963  10.784   2.552 -0.0424  0.2018 -0.6964
  121MOL0     C16216   9.886  10.649   2.538 -0.3582  0.2090  0.9452
  121MOL0     N16217   9.740  10.664   2.530 -0.5556 -0.0726 -0.4863
  121MOL0     C16218   9.675  10.745   2.434  0.0113  0.1806 -0.0205
  121MOL0     C16219   9.555  10.780   2.498 -0.3743 -0.0747  0.8391
  121MOL0     C16220   9.459  10.895   2.462 -0.0046  0.9048 -0.3965
  121MOL0     C16221   9.320  10.896   2.532 -0.4364 -0.4944  0.0979
  121MOL0     C16222   9.229  11.020   2.479 -0.3967 -0.8774 -0.4495
  121MOL0     C16223   9.096  11.029   2.547 -0.3505 -0.6219 -0.4759
  121MOL0     O16224   9.025  10.902   2.532  0.1954 -0.6260 -0.1485
  121MOL0     C16225   8.903  10.883   2.462 -0.4774 -0.8504  1.4332
  121MOL0     C16226   8.856  10.976   2.374  0.7987  0.4009 -0.4098
  121MOL0     C16227   8.739  10.943   2.313  0.7937  0.0435  0.4051
  121MOL0     C16228   8.677  10.821   2.322  1.2534  0.6711 -0.5092
  121MOL0     C16229   8.564  10.773   2.238  0.3007  0.7937 -0.4176
  121MOL0     O16230   8.491  10.871   2.176  0.1450  0.0510 -0.5397
  121MOL0     C16231   8.378  10.839   2.102 -0.2508  0.6971 -0.1693
  121MOL0     C16232   8.267  10.755   2.148 -0.2625 -0.0318  0.4798
  121MOL0     C16233   8.168  10.711   2.066 -0.1114 -0.1486 -0.6796
  121MOL0     C16234   8.158  10.766   1.940 -0.3953  1.1751  0.7043
  121MOL0     O16235   8.037  10.745   1.870 -0.4764  0.5255  0.3110
  121MOL0     C16236   8.020  10.768   1.732 -0.4337 -0.3117 -0.1354
  121MOL0     C16237   7.922  10.671   1.662 -0.4434  0.4658  0.0766
  121MOL0     C16238   7.799  10.746   1.604 -0.0727  0.7152  0.4124
  121MOL0     C16239   7.680  10.652   1.578  1.0199  0.3224 -0.3937
  121MOL0     C16240   7.596  10.640   1.708 -1.4370  0.0435 -0.5807
  121MOL0     C16241   7.488  10.534   1.676  0.8832  0.6155 -0.1053
  121MOL0     C16242   7.526  10.387   1.652 -1.6608  0.5417  0.2298
  121MOL0     C16243   7.606  10.324   1.760 -0.5988 -0.5154  1.5907
  121MOL0    Cl16244   7.504  10.298   1.920 -0.3934 -0.1464 -0.2882
  121MOL0     C16245   8.249  10.865   1.901  0.0486  1.5981  0.4258
  121MOL0     C16246   8.358  10.901   1.976  0.0108  0.3691  0.7499
  121MOL0     O16247   8.544  10.645   2.240  1.0076  0.1705 -0.5239
  121MOL0     C16248   8.731  10.731   2.412 -0.2291 -0.0503  1.0105
  121MOL0     C16249   8.844  10.761   2.486 -0.0758 -1.2469  0.1218
  121MOL0     N16250   9.554  10.724   2.628  0.6476 -0.5352 -0.4011
  121MOL0     N16251   9.661  10.654   2.642  0.1104 -0.0010  0.4303
  121MOL0     C16252  10.519  10.864   3.350 -0.9121 -0.2398 -0.5723
  121MOL0     C16253  10.589  10.839   3.466 -0.9976  0.2173 -0.3572
  121MOL0     C16254  10.752  10.817   3.885 -0.3479  0.2388 -0.6003
  121MOL0     C16255  10.702  10.920   3.953  0.7859 -0.9083  0.2020
  121MOL0     C16256  10.755  10.972   4.073  0.2557  0.3175 -0.1923
  121MOL0     C16257  10.882  10.926   4.122  0.2988 -0.4805  0.6350
  121MOL0     O16258  10.913  10.982   4.243 -0.2834 -0.8680  0.1643
  121MOL0     C16259  10.983  10.903   4.342  0.3092 -0.2225  0.4679
  121MOL0     C16260  11.137  10.938   4.332 -0.4483  0.5349 -0.0785
  121MOL0     C16261  11.227  10.870   4.435 -0.8667 -0.6710  0.1399
  121MOL0     C16262  11.370  10.902   4.396 -0.0837 -0.7031  0.2235
  121MOL0     C16263  11.426  10.843   4.271 -0.1690  0.8259  0.1749
  121MOL0     C16264  11.456  10.807   4.165  0.2449 -0.9179 -0.3982
  121MOL0     C16265  10.940  10.827   4.046 -0.3905 -0.2684 -0.1796
  121MOL0     C16266  10.875  10.765   3.935  0.4359  0.0523  0.6910
  121MOL0     C16267  10.951  10.653   3.872 -0.3583  0.0522 -0.6182
  121MOL0     H16268  10.352  10.885   3.687  0.6420  2.4061 -0.5137
  121MOL0     H16269  10.210  10.921   3.468 -0.8232 -1.2016  0.4121
  121MOL0     H16270  10.441  10.771   3.105  1.2480  1.3238  2.3439
  121MOL0     H16271  10.318  10.677   3.202 -2.7895  0.2299 -0.3384
  121MOL0     H16272  10.269  10.679   2.958  0.5476  0.7927 -2.8451
  121MOL0     H16273  10.276  10.859   2.965 -1.6186 -0.4510 -0.6990
  121MOL0     H16274  10.076  10.811   3.161  1.4497  3.2697 -0.5723
  121MOL0     H16275  10.082  10.661   3.066 -0.7825 -0.3876 -0.3493
  121MOL0     H16276   9.912  10.828   2.967 -0.5027 -2.2907 -1.2047
  121MOL0     H16277  10.026  10.950   2.949 -1.0470  0.4676 -1.0024
  121MOL0     H16278  10.143  10.809   2.773 -0.4286 -0.2316 -0.7138
  121MOL0     H16279  10.040  10.672   2.804 -0.2809  0.7658 -0.9820
  121MOL0     H16280   9.844  10.817   2.732 -0.0647 -0.9746  0.3679
  121MOL0     H16281   9.970  10.938   2.706 -0.4404 -0.3065  1.6689
  121MOL0     H16282  10.071  10.776   2.536  0.2064  2.1388 -0.1909
  121MOL0     H16283   9.919  10.853   2.480  2.3616  1.0160 -1.4658
  121MOL0     H16284   9.916  10.608   2.441  1.4434 -1.0441  1.9666
  121MOL0     H16285   9.920  10.577   2.613  0.0670 -1.6201 -0.8869
  121MOL0     H16286   9.710  10.779   2.337  0.9447 -1.4638 -0.2985
  121MOL0     H16287   9.506  10.994   2.471 -1.6947  1.5638  2.0588
  121MOL0     H16288   9.427  10.876   2.359 -1.0725 -1.5760  0.3192
  121MOL0     H16289   9.262  10.805   2.513  0.7517 -1.6826  1.9428
  121MOL0     H16290   9.328  10.921   2.638 -1.7133 -0.7526  0.2767
  121MOL0     H16291   9.221  11.019   2.370  1.7974  1.7393 -0.7558
  121MOL0     H16292   9.273  11.115   2.511 -0.9695 -1.5501  2.7333
  121MOL0     H16293   9.046  11.118   2.508  2.9344  1.8522  0.4945
  121MOL0     H16294   9.107  11.049   2.654  0.6188  2.1756 -1.0204
  121MOL0     H16295   8.897  11.077   2.369 -1.1344  1.2077 -0.8550
  121MOL0     H16296   8.695  11.012   2.242  0.5622 -1.7468 -1.2988
  121MOL0     H16297   8.280  10.724   2.252 -0.7786 -3.1057 -0.2771
  121MOL0     H16298   8.090  10.640   2.089 -0.6970  1.2120  1.8658
  121MOL0     H16299   7.999  10.875   1.725  2.2743  0.2935  0.0699
  121MOL0     H16300   8.108  10.764   1.667  0.5289  1.2178  1.0071
  121MOL0     H16301   7.957  10.606   1.581 -2.5504  1.1009 -1.4375
  121MOL0     H16302   7.900  10.600   1.742  0.2313  1.2446  0.9719
  121MOL0     H16303   7.759  10.826   1.666 -2.6502 -0.2869  0.1635
  121MOL0     H16304   7.822  10.778   1.502  0.1550 -0.8415 -0.0591
  121MOL0     H16305   7.716  10.557   1.537  1.7663  1.0926 -1.5957
  121MOL0     H16306   7.610  10.696   1.507 -0.0313  0.2208  0.5548
  121MOL0     H16307   7.557  10.741   1.722  0.7198  1.1835 -2.1494
  121MOL0     H16308   7.642  10.616   1.804 -2.3044 -2.0478 -0.6202
  121MOL0     H16309   7.416  10.524   1.757 -0.1840  2.1237 -0.8218
  121MOL0     H16310   7.432  10.582   1.595 -0.1095 -2.4076 -1.3771
  121MOL0     H16311   7.586  10.395   1.561 -1.3886  1.5155  0.4850
  121MOL0     H16312   7.441  10.320   1.633 -1.9470  0.7870  0.6443
  121MOL0     H16313   7.641  10.227   1.726  1.5356  0.8435 -0.3723
  121MOL0     H16314   7.698  10.379   1.783  2.0783 -3.4815 -1.1298
  121MOL0     H16315   8.226  10.912   1.806  0.0896 -1.7709 -1.3963
  121MOL0     H16316   8.437  10.961   1.932  1.8545 -1.1279  1.8651
  121MOL0     H16317   8.697  10.629   2.426  2.8543 -1.6792 -1.8447
  121MOL0     H16318   8.875  10.692   2.564 -0.5936 -1.0894  0.4677
  121MOL0     H16319  10.569  10.877   3.255 -0.9913  0.4636 -0.5252
  121MOL0     H16320  10.696  10.827   3.462 -0.8806  1.4485 -1.4058
  121MOL0     H16321  10.608  10.960   3.915  0.5869 -3.4631 -2.3314
  121MOL0     H16322  10.699  11.051   4.121 -0.0032 -0.3870  0.6887
  121MOL0     H16323  10.963  10.800   4.312 -3.1001 -0.0373  1.6613
  121MOL0     H16324  10.945  10.917   4.444  1.3323 -0.6186  0.9145
  121MOL0     H16325  11.157  11.045   4.338 -2.7804  1.2443 -2.6590
  121MOL0     H16326  11.176  10.912   4.233  3.8747  1.8247  1.0644
  121MOL0     H16327  11.219  10.761   4.433 -2.2008 -0.5934 -2.6391
  121MOL0     H16328  11.208  10.904   4.537 -0.1709 -0.2343  0.1299
  121MOL0     H16329  11.385  11.009   4.412 -2.2094 -0.6346  2.3417
  121MOL0     H16330  11.440  10.871   4.475  4.1898  4.3713 -1.0018
  121MOL0     H16331  11.492  10.788   4.066  2.5259 -0.7278  0.3345
  121MOL0     H16332  11.031  10.777   4.077  0.9972  0.4124 -2.8482
  121MOL0     H16333  10.879  10.578   3.838 -1.1741 -0.2244  1.5563
  121MOL0     H16334  11.004  10.697   3.787  0.5518 -0.6265 -0.4112
  121MOL0     H16335  11.023  10.619   3.947 -0.1308  2.6879  0.4655
  122MOL0     O16336   2.556   7.381   6.342  0.0303 -0.6381  0.3984
  122MOL0     C16337   2.479   7.484   6.343  0.3351  0.9134  0.3425
  122MOL0     O16338   2.356   7.487   6.392 -0.9134 -0.1313  0.9210
  122MOL0     C16339   2.293   7.389   6.458 -1.2570  0.6279 -0.5746
  122MOL0     C16340   2.169   7.339   6.416  0.4938 -0.1169 -0.2757
  122MOL0     C16341   2.106   7.231   6.478 -0.1909 -0.3449  0.2943
  122MOL0     C16342   2.155   7.175   6.599  0.9894 -0.5290 -0.6950
  122MOL0     O16343   2.100   7.081   6.678 -0.7871 -0.9141  0.7137
  122MOL0     C16344   1.970   7.047   6.634  0.1855  0.0894 -0.3204
  122MOL0     C16345   1.931   6.921   6.701  0.1163  1.0727  0.2989
  122MOL0     C16346   1.785   6.868   6.683  0.0021 -0.2660 -0.3157
  122MOL0     C16347   1.670   6.949   6.754 -0.3231 -0.3769 -0.4165
  122MOL0     C16348   1.532   6.929   6.693  0.1525 -1.1789 -0.5819
  122MOL0     C16349   1.455   6.795   6.694 -0.6128 -0.3316  0.8208
  122MOL0     C16350   1.398   6.766   6.834  0.5451 -0.1798 -0.6384
  122MOL0     C16351   1.356   6.625   6.840  0.8421 -0.6635  0.3248
  122MOL0     N16352   1.308   6.567   6.970 -0.4175 -0.7009  0.3821
  122MOL0     C16353   1.345   6.611   7.096  0.9163  0.8175 -0.0280
  122MOL0     C16354   1.258   6.541   7.174  0.1135 -0.2603 -0.3564
  122MOL0     C16355   1.251   6.525   7.320  0.1696 -0.4758 -0.2008
  122MOL0     C16356   1.289   6.393   7.379  0.4287  0.1029  0.2159
  122MOL0     C16357   1.265   6.375   7.535  0.5806  0.6711 -0.0659
  122MOL0     C16358   1.325   6.240   7.591 -0.2966 -0.0730 -0.6257
  122MOL0     O16359   1.465   6.243   7.555  0.1030  0.8116 -0.5447
  122MOL0     C16360   1.557   6.145   7.609  0.4524 -0.5938 -0.2724
  122MOL0     C16361   1.527   6.023   7.669 -0.0480  0.2323 -0.0811
  122MOL0     C16362   1.620   5.935   7.722  0.2428 -0.2352  0.2558
  122MOL0     C16363   1.752   5.963   7.708 -0.2931  0.0980  0.8395
  122MOL0     C16364   1.860   5.876   7.762  0.1569  0.3593 -0.1691
  122MOL0     O16365   1.820   5.787   7.852 -0.2596 -0.0519  0.1079
  122MOL0     C16366   1.901   5.685   7.875 -0.2501  0.9774 -1.1601
  122MOL0     C16367   1.940   5.583   7.793  0.0565  0.2359 -0.1997
  122MOL0     C16368   2.031   5.479   7.821  0.2741 -0.2079  0.6995
  122MOL0     C16369   2.082   5.482   7.943 -0.0793 -0.3760 -0.4180
  122MOL0     O16370   2.162   5.385   7.995 -0.2011 -0.0079 -0.4173
  122MOL0     C16371   2.304   5.413   7.997  0.4615  0.4560 -0.5002
  122MOL0     C16372   2.351   5.546   8.064 -0.3921 -0.7096 -0.7445
  122MOL0     C16373   2.499   5.578   8.100 -0.3119 -0.2175 -0.6091
  122MOL0     C16374   2.548   5.455   8.183 -0.7128  0.7596  0.1827
  122MOL0     C16375   2.680   5.494   8.261  1.0841  0.8263  1.4720
  122MOL0     C16376   2.796   5.526   8.163 -0.4097 -0.7038 -0.0910
  122MOL0     C16377   2.925   5.525   8.245 -1.2133  0.2799 -0.6565
  122MOL0     C16378   3.041   5.567   8.163 -0.3801  0.1067  0.1398
  122MOL0    Cl16379   3.182   5.482   8.233  0.1205 -0.7312  0.4996
  122MOL0     C16380   2.032   5.573   8.040 -0.0370  0.5034 -0.2934
  122MOL0     C16381   1.936   5.668   8.013  0.5860  0.2618  1.4497
  122MOL0     O16382   1.976   5.894   7.729 -0.1457  0.0098 -0.0728
  122MOL0     C16383   1.783   6.088   7.647 -1.0576 -0.2923 -1.2720
  122MOL0     C16384   1.689   6.176   7.601 -0.4605 -0.0837  0.1450
  122MOL0     N16385   1.164   6.470   7.096  0.3584  0.0185 -0.1047
  122MOL0     N16386   1.188   6.502   6.979  0.0622  0.3038  0.0949
  122MOL0     C16387   2.275   7.231   6.640 -0.4842 -0.3860  0.2528
  122MOL0     C16388   2.341   7.346   6.578 -0.1547 -0.2190 -0.3311
  122MOL0     C16389   2.535   7.617   6.287 -0.3714 -1.7292  0.5898
  122MOL0     C16390   2.471   7.739   6.315 -0.3498 -0.2783 -0.3877
  122MOL0     C16391   2.513   7.866   6.279  0.5415 -0.4886  0.3378
  122MOL0     C16392   2.632   7.888   6.212 -0.9523  0.5390  0.3496
  122MOL0     O16393   2.684   8.008   6.162 -0.4857  0.7435  0.1885
  122MOL0     C16394   2.601   8.126   6.172 -0.0659 -0.4331 -0.4352
  122MOL0     C16395   2.696   8.245   6.168 -0.3770 -1.1256 -0.3468
  122MOL0     C16396   2.754   8.282   6.032  0.4756 -0.1436  1.5858
  122MOL0     C16397   2.894   8.225   5.997 -0.3916 -0.5752  0.1355
  122MOL0     C16398   3.001   8.290   6.071 -0.0102 -0.4532 -0.1697
  122MOL0     C16399   3.093   8.356   6.114 -0.7816 -0.8770 -0.4416
  122MOL0     C16400   2.692   7.768   6.164  0.2356 -0.2419  0.3908
  122MOL0     C16401   2.650   7.639   6.203  0.0285  0.4177  0.0381
  122MOL0     C16402   2.715   7.515   6.146 -0.6067 -0.4128 -0.8058
  122MOL0     H16403   2.127   7.386   6.327  2.4338 -2.5824 -2.6725
  122MOL0     H16404   2.011   7.198   6.438 -0.8493 -0.6314  2.0070
  122MOL0     H16405   1.892   7.121   6.656  1.3623  1.6482 -1.2422
  122MOL0     H16406   1.979   7.021   6.528  2.7032 -0.9515  0.0753
  122MOL0     H16407   1.929   6.946   6.807  0.6331  2.4711 -0.0016
  122MOL0     H16408   2.006   6.845   6.676  0.2553  1.0104  0.8870
  122MOL0     H16409   1.787   6.769   6.729 -1.8739  0.5599  1.7215
  122MOL0     H16410   1.770   6.858   6.575  1.9640 -0.6695 -0.5808
  122MOL0     H16411   1.661   6.916   6.858 -0.3621  1.2419  0.1080
  122MOL0     H16412   1.702   7.053   6.745  1.0791 -0.9441 -3.1196
  122MOL0     H16413   1.479   7.009   6.746  2.2226 -0.7898  1.0378
  122MOL0     H16414   1.540   6.957   6.588  0.6652 -2.7461 -0.9778
  122MOL0     H16415   1.369   6.795   6.626  0.2729 -0.3672 -0.3357
  122MOL0     H16416   1.513   6.708   6.660 -1.1778  0.0782 -1.3432
  122MOL0     H16417   1.309   6.824   6.860 -0.6503 -1.9758 -0.5675
  122MOL0     H16418   1.472   6.794   6.910 -1.5359  0.9022  1.0899
  122MOL0     H16419   1.268   6.617   6.776  0.8458 -3.2522  0.5145
  122MOL0     H16420   1.443   6.565   6.811  1.7508  0.7204  0.1217
  122MOL0     H16421   1.431   6.674   7.119 -0.3540  3.7393 -2.6046
  122MOL0     H16422   1.311   6.610   7.354 -1.3520  0.3161  0.6177
  122MOL0     H16423   1.144   6.535   7.340  0.3332  1.2657  0.0238
  122MOL0     H16424   1.232   6.331   7.309 -0.9389  2.3300 -0.7559
  122MOL0     H16425   1.393   6.369   7.355 -0.9894 -2.9951 -4.0269
  122MOL0     H16426   1.160   6.388   7.562  0.6818  0.7308  0.2953
  122MOL0     H16427   1.314   6.463   7.578 -1.5190  0.5295  2.9310
  122MOL0     H16428   1.269   6.153   7.556  0.3377 -0.4182 -0.7852
  122MOL0     H16429   1.311   6.228   7.699  1.1967 -1.2063 -0.5287
  122MOL0     H16430   1.421   6.001   7.668  0.3955 -2.4891  2.0661
  122MOL0     H16431   1.592   5.845   7.776  2.6892 -0.3011  1.5590
  122MOL0     H16432   1.891   5.590   7.696  0.6325  4.0151 -0.3566
  122MOL0     H16433   2.050   5.407   7.742 -0.3742  1.3058 -0.9146
  122MOL0     H16434   2.352   5.319   8.026 -0.2892  0.3511  0.4409
  122MOL0     H16435   2.317   5.427   7.889  2.8562 -1.5093 -0.5579
  122MOL0     H16436   2.316   5.634   8.010 -2.4054  1.5764  3.7137
  122MOL0     H16437   2.299   5.554   8.160 -2.0307  4.1836 -1.7690
  122MOL0     H16438   2.545   5.588   8.001 -0.3962 -0.3372 -0.6581
  122MOL0     H16439   2.487   5.663   8.168 -4.0423 -1.9382  1.1792
  122MOL0     H16440   2.558   5.369   8.116 -4.2051  1.1760 -1.0804
  122MOL0     H16441   2.462   5.430   8.247 -3.2026  2.4659 -2.2367
  122MOL0     H16442   2.713   5.416   8.330 -0.0762  0.3898  1.5567
  122MOL0     H16443   2.656   5.576   8.329  0.3800  2.7077 -0.9190
  122MOL0     H16444   2.807   5.434   8.105  3.8548 -1.3868  1.4246
  122MOL0     H16445   2.782   5.620   8.110 -0.7151  0.5262  2.0545
  122MOL0     H16446   2.942   5.421   8.277  0.8754  0.6903 -0.3211
  122MOL0     H16447   2.915   5.584   8.337 -4.2773  1.0031 -1.3478
  122MOL0     H16448   3.026   5.550   8.056  0.6397  1.2073 -0.2032
  122MOL0     H16449   3.062   5.674   8.173  2.3521 -0.4525  1.1228
  122MOL0     H16450   2.061   5.561   8.144 -1.7137  1.5590  0.3365
  122MOL0     H16451   1.888   5.735   8.083 -1.1143  1.6126 -0.8475
  122MOL0     H16452   1.884   6.128   7.640 -1.6474  1.4350 -0.5624
  122MOL0     H16453   1.700   6.271   7.550 -0.8247 -0.3865 -0.5037
  122MOL0     H16454   2.305   7.208   6.742 -0.1120  3.5974  1.2297
  122MOL0     H16455   2.428   7.399   6.617 -1.9387  2.1783  0.6397
  122MOL0     H16456   2.378   7.743   6.370 -3.0150 -1.7679 -4.3017
  122MOL0     H16457   2.462   7.950   6.325  2.3580  0.3134  0.9631
  122MOL0     H16458   2.555   8.149   6.268 -0.0072  0.2737 -0.5696
  122MOL0     H16459   2.517   8.128   6.102  0.6148  0.8072 -1.2654
  122MOL0     H16460   2.778   8.228   6.239 -0.4398  1.7203  0.5183
  122MOL0     H16461   2.641   8.329   6.211 -0.3922 -1.1042 -0.4076
  122MOL0     H16462   2.751   8.392   6.024 -2.1336 -0.3003 -1.8323
  122MOL0     H16463   2.691   8.245   5.951  4.6038 -0.8243 -1.6817
  122MOL0     H16464   2.900   8.119   6.024 -1.7404 -0.4603  0.9630
  122MOL0     H16465   2.920   8.231   5.891 -0.6037 -3.7905 -0.2153
  122MOL0     H16466   3.162   8.435   6.135  0.2009 -1.8680  0.1669
  122MOL0     H16467   2.776   7.769   6.095 -0.3495 -0.5901 -0.3476
  122MOL0     H16468   2.781   7.546   6.064 -4.2246  2.7653 -2.8428
  122MOL0     H16469   2.764   7.458   6.225 -1.0078 -3.7007 -2.7320
  122MOL0     H16470   2.638   7.446   6.109 -0.0704 -0.5317 -1.7341
  123MOL0     O16471   1.118   4.490   6.746 -0.0549 -0.4418  0.9601
  123MOL0     C16472   1.000   4.444   6.732 -0.5432 -0.4523 -0.0186
  123MOL0     O16473   0.965   4.308   6.742  0.2286 -0.0249  0.3548
  123MOL0     C16474   1.060   4.227   6.795  0.3568 -0.6791 -0.1299
  123MOL0     C16475   1.141   4.253   6.912 -0.2547  0.4902 -0.1031
  123MOL0     C16476   1.234   4.160   6.961  0.3090  0.9238  0.6524
  123MOL0     C16477   1.250   4.035   6.894  0.0894  0.5984  0.3932
  123MOL0     O16478   1.356   3.959   6.910 -0.5016 -0.9461  0.1789
  123MOL0     C16479   1.392   3.942   7.046  0.0191  0.1705  0.4917
  123MOL0     C16480   1.510   3.834   7.051 -0.1219  0.4978  0.7793
  123MOL0     C16481   1.566   3.806   7.193 -0.7464  1.0259 -0.2247
  123MOL0     C16482   1.647   3.673   7.183 -0.3076  0.4516  0.1190
  123MOL0     C16483   1.700   3.612   7.305  0.7628 -0.4122 -0.4423
  123MOL0     C16484   1.822   3.680   7.366  0.1290 -0.2876 -0.4508
  123MOL0     C16485   1.829   3.655   7.511 -0.5238 -0.2074 -0.2304
  123MOL0     C16486   1.937   3.742   7.572  0.5954 -0.3875 -1.3268
  123MOL0     N16487   1.949   3.737   7.718  0.1157  0.3698 -0.0367
  123MOL0     C16488   1.869   3.817   7.802 -0.2630  0.9504  0.6532
  123MOL0     C16489   1.906   3.785   7.934 -0.1566  0.5879 -0.2877
  123MOL0     C16490   1.874   3.870   8.054 -0.6155 -0.9663  0.8418
  123MOL0     C16491   1.852   3.792   8.185 -0.3686  0.2581 -0.0710
  123MOL0     C16492   1.796   3.885   8.301  0.0662  0.3900 -0.3982
  123MOL0     C16493   1.803   3.799   8.435 -1.0030  0.2796 -1.0272
  123MOL0     O16494   1.777   3.894   8.538  0.2778  0.1565  0.0827
  123MOL0     C16495   1.664   3.888   8.616  0.5927  0.7303  0.3857
  123MOL0     C16496   1.597   3.766   8.638 -0.6109  0.0699  0.0311
  123MOL0     C16497   1.479   3.765   8.723 -0.2008  0.8814  0.1027
  123MOL0     C16498   1.420   3.880   8.780 -0.0600 -0.5297  0.0299
  123MOL0     C16499   1.303   3.875   8.875  0.0331  0.1374  1.3292
  123MOL0     O16500   1.252   3.996   8.912 -0.3436  0.3169  0.0695
  123MOL0     C16501   1.117   3.996   8.957  0.3055  0.9310  0.5779
  123MOL0     C16502   1.005   4.050   8.886  0.6613  0.0769  0.7096
  123MOL0     C16503   0.883   4.044   8.932  0.0657  0.0984  0.0534
  123MOL0     C16504   0.858   3.976   9.051  0.3363 -0.0727  0.8265
  123MOL0     O16505   0.725   3.978   9.080  0.2478 -0.4800  0.8188
  123MOL0     C16506   0.676   3.956   9.212 -0.7947 -0.5765  0.1734
  123MOL0     C16507   0.642   3.807   9.239  0.2745 -0.2592 -0.3628
  123MOL0     C16508   0.530   3.780   9.350 -0.2280 -0.4033 -0.4550
  123MOL0     C16509   0.471   3.642   9.356 -0.3903  0.7091 -0.5482
  123MOL0     C16510   0.371   3.634   9.472 -0.0240 -0.4791  0.6336
  123MOL0     C16511   0.231   3.676   9.421 -0.8300  0.3693 -0.7687
  123MOL0     C16512   0.140   3.703   9.541  0.0148 -0.7462  0.2248
  123MOL0     C16513   0.120   3.600   9.648  0.2490  0.0362 -1.0680
  123MOL0    Cl16514  -0.007   3.651   9.757  0.2449 -1.0337 -0.0399
  123MOL0     C16515   0.957   3.915   9.124  0.3854  0.0164 -0.5014
  123MOL0     C16516   1.091   3.922   9.072  0.1113  0.2220  0.0584
  123MOL0     O16517   1.254   3.768   8.897 -0.1831  1.1797  0.5058
  123MOL0     C16518   1.493   3.999   8.751  0.3914 -0.0713  0.9506
  123MOL0     C16519   1.603   4.002   8.666 -0.2385  0.6178  0.1382
  123MOL0     N16520   1.996   3.674   7.920  0.0133 -0.5382  0.4560
  123MOL0     N16521   2.018   3.648   7.792  0.4627  1.0355 -0.0479
  123MOL0     C16522   1.175   4.005   6.783 -0.6614 -0.2333  0.1550
  123MOL0     C16523   1.074   4.097   6.743  0.2826 -0.0531  0.5899
  123MOL0     C16524   0.901   4.531   6.665  0.5643 -0.3888 -1.0275
  123MOL0     C16525   0.837   4.634   6.733 -0.0316 -0.5243  0.7900
  123MOL0     C16526   0.733   4.702   6.687  0.1131  0.0236  0.3813
  123MOL0     C16527   0.677   4.671   6.560  0.3470  1.3638 -1.1242
  123MOL0     O16528   0.554   4.720   6.513 -0.1143 -0.2216 -0.6143
  123MOL0     C16529   0.482   4.800   6.596 -0.0699 -0.3015  0.1221
  123MOL0     C16530   0.417   4.745   6.705  0.1382  0.7077  0.3565
  123MOL0     C16531   0.258   4.770   6.703 -0.1545 -0.0399  0.3904
  123MOL0     C16532   0.226   4.911   6.758 -0.6619 -0.3143 -0.8258
  123MOL0     C16533   0.272   4.928   6.897  0.2732 -0.2469 -0.7208
  123MOL0     C16534   0.291   4.930   7.019 -0.3275 -0.2777 -0.2641
  123MOL0     C16535   0.740   4.572   6.486 -0.2592  0.1035  0.3218
  123MOL0     C16536   0.847   4.499   6.541  0.1226 -0.1599 -0.2409
  123MOL0     C16537   0.896   4.381   6.466 -0.6775 -0.0943 -0.1533
  123MOL0     H16538   1.121   4.346   6.964 -1.2660  0.2363 -0.0168
  123MOL0     H16539   1.291   4.190   7.048  0.9196 -0.6400  0.8244
  123MOL0     H16540   1.436   4.035   7.084 -1.1225  0.1061  2.0893
  123MOL0     H16541   1.298   3.917   7.097  0.6104 -1.5318  0.8124
  123MOL0     H16542   1.602   3.862   6.999  1.5676 -0.4867  3.0444
  123MOL0     H16543   1.472   3.746   6.997 -1.3993  0.9398  0.9128
  123MOL0     H16544   1.488   3.801   7.270 -0.3346 -0.6193  0.1202
  123MOL0     H16545   1.640   3.879   7.225  3.5120 -3.3689  1.1725
  123MOL0     H16546   1.593   3.602   7.119  1.5180  1.1340 -2.3313
  123MOL0     H16547   1.728   3.699   7.114  1.2058  0.8991  1.9958
  123MOL0     H16548   1.623   3.621   7.382  3.3071 -0.0184  2.2127
  123MOL0     H16549   1.722   3.507   7.286 -2.3453 -1.3510  0.5429
  123MOL0     H16550   1.908   3.645   7.307 -0.5768 -0.6240 -1.2938
  123MOL0     H16551   1.812   3.787   7.345 -0.2179  0.1898  1.8476
  123MOL0     H16552   1.857   3.552   7.537 -0.4034  0.4375  2.5710
  123MOL0     H16553   1.735   3.681   7.561  1.2362  5.6463  0.8009
  123MOL0     H16554   2.036   3.718   7.532  0.4916  0.7662 -2.3281
  123MOL0     H16555   1.918   3.848   7.555  4.5079  0.9340  0.9972
  123MOL0     H16556   1.804   3.895   7.763  1.6537  1.1632 -2.3869
  123MOL0     H16557   1.942   3.955   8.064 -2.5976  1.5749 -3.8780
  123MOL0     H16558   1.782   3.916   8.016  1.5934  3.2354 -0.0541
  123MOL0     H16559   1.786   3.707   8.166  0.2699  0.2768 -2.8152
  123MOL0     H16560   1.952   3.757   8.212 -0.5779 -1.7135 -1.5552
  123MOL0     H16561   1.696   3.922   8.276  0.7034  3.0441  0.6299
  123MOL0     H16562   1.865   3.969   8.306  1.2710 -0.6441  1.0785
  123MOL0     H16563   1.897   3.743   8.444 -1.2639 -0.2506 -1.5425
  123MOL0     H16564   1.733   3.715   8.434 -0.7551  0.0786 -1.6025
  123MOL0     H16565   1.634   3.680   8.583  1.1300  1.8233 -1.7247
  123MOL0     H16566   1.424   3.672   8.719  2.4426 -0.8072  0.4064
  123MOL0     H16567   1.028   4.106   8.796  0.0346  2.8958  2.1836
  123MOL0     H16568   0.800   4.080   8.872  2.9151  1.8343 -3.1956
  123MOL0     H16569   0.762   3.975   9.277 -2.0011  1.6331  1.2772
  123MOL0     H16570   0.594   4.026   9.232 -0.4675  0.0335 -0.5468
  123MOL0     H16571   0.621   3.753   9.147 -2.2009  1.1735 -0.7281
  123MOL0     H16572   0.720   3.747   9.287 -2.5382 -2.9676  1.1981
  123MOL0     H16573   0.589   3.801   9.440 -3.1370  2.9737  0.8752
  123MOL0     H16574   0.446   3.850   9.349 -0.3918 -0.5403  1.1761
  123MOL0     H16575   0.554   3.572   9.365  0.3079  1.7454  2.8160
  123MOL0     H16576   0.422   3.624   9.260  1.4889  2.5544 -1.9321
  123MOL0     H16577   0.396   3.708   9.549  1.0778  0.8836 -0.9826
  123MOL0     H16578   0.387   3.532   9.509  2.4173  0.0931  1.3463
  123MOL0     H16579   0.233   3.765   9.357  1.1609  1.3656  0.5628
  123MOL0     H16580   0.187   3.591   9.368 -1.3582  1.4157 -2.0893
  123MOL0     H16581   0.043   3.706   9.489  0.6491 -0.0406 -0.9759
  123MOL0     H16582   0.153   3.807   9.571  0.1919  0.7765 -4.2673
  123MOL0     H16583   0.088   3.503   9.606  1.1027 -0.3856 -0.7553
  123MOL0     H16584   0.203   3.573   9.713  1.6744  2.8317 -1.5790
  123MOL0     H16585   0.951   3.866   9.221 -0.5110 -1.3039 -1.1929
  123MOL0     H16586   1.179   3.868   9.107  0.2981  0.7243  0.3786
  123MOL0     H16587   1.454   4.099   8.769 -1.5972 -0.7922  0.8765
  123MOL0     H16588   1.652   4.091   8.628 -2.0184  0.9179 -1.5993
  123MOL0     H16589   1.187   3.912   6.728  1.4394  0.6697 -1.0300
  123MOL0     H16590   1.019   4.061   6.657 -1.6718  1.7479  0.9893
  123MOL0     H16591   0.874   4.654   6.833 -1.3295  0.7967  1.0342
  123MOL0     H16592   0.682   4.766   6.758 -1.2631 -1.0395  0.4091
  123MOL0     H16593   0.413   4.859   6.535 -1.5458 -1.0359  1.0169
  123MOL0     H16594   0.551   4.877   6.634 -0.8473  1.1553 -1.2981
  123MOL0     H16595   0.460   4.775   6.801  1.1700  0.4830 -0.0286
  123MOL0     H16596   0.425   4.636   6.707 -1.1926  0.5610  3.2377
  123MOL0     H16597   0.222   4.693   6.772  1.2633  0.7445  2.0571
  123MOL0     H16598   0.212   4.746   6.606  1.2374 -0.9941 -0.0757
  123MOL0     H16599   0.267   4.983   6.687 -0.6683 -0.6408 -1.1664
  123MOL0     H16600   0.118   4.923   6.748 -0.2190  4.3005 -2.1468
  123MOL0     H16601   0.310   4.946   7.123 -1.3760 -0.1345 -0.0806
  123MOL0     H16602   0.690   4.567   6.390 -0.5335  2.6087  0.2585
  123MOL0     H16603   0.816   4.306   6.463 -2.7211  1.9551 -0.0580
  123MOL0     H16604   0.885   4.412   6.362 -3.3062  0.3145  0.1820
  123MOL0     H16605   0.998   4.349   6.487 -0.7883 -0.7176 -0.5244
  124MOL0     O16606  11.059   1.161   4.471 -0.4771 -0.3661  0.1913
  124MOL0     C16607  11.118   1.157   4.577 -0.3522  0.7774 -0.0421
  124MOL0     O16608  11.067   1.171   4.701 -0.1125 -0.6773  0.4160
  124MOL0     C16609  10.937   1.176   4.712  0.4544  0.1047  0.7658
  124MOL0     C16610  10.851   1.074   4.662  0.3598 -0.8197 -0.1677
  124MOL0     C16611  10.709   1.074   4.687  0.0061  0.7355  0.0028
  124MOL0     C16612  10.663   1.186   4.761  0.3978 -0.3321 -0.1580
  124MOL0     O16613  10.531   1.204   4.795  1.2124 -0.0637  0.2391
  124MOL0     C16614  10.440   1.096   4.776 -1.0803 -0.4541  0.3055
  124MOL0     C16615  10.452   1.016   4.904 -0.0274 -0.1252 -0.7011
  124MOL0     C16616  10.316   1.025   4.984  0.7283  0.6254 -0.2763
  124MOL0     C16617  10.219   0.918   4.940  0.8388 -0.1491  0.5261
  124MOL0     C16618  10.245   0.791   5.009 -0.4328 -0.3281 -0.8677
  124MOL0     C16619  10.160   0.679   4.946 -0.3155 -0.3919 -0.4077
  124MOL0     C16620  10.176   0.543   5.018  0.2649 -0.9865 -0.0906
  124MOL0     C16621  10.080   0.429   4.942 -0.3919  0.2079  0.4300
  124MOL0     N16622  10.094   0.297   4.997  0.0413  0.4934 -0.8587
  124MOL0     C16623  10.207   0.235   5.031 -0.6853  0.4589  0.5007
  124MOL0     C16624  10.171   0.109   5.063  0.2201  0.0872  0.3656
  124MOL0     C16625  10.259  -0.003   5.081 -1.1658  0.8935 -0.9435
  124MOL0     C16626  10.330  -0.001   5.215  0.4953 -0.3150 -0.0392
  124MOL0     C16627  10.246  -0.027   5.339  0.5857 -0.0043 -0.2497
  124MOL0     C16628  10.350  -0.020   5.459  0.3744 -0.1662  1.1085
  124MOL0     O16629  10.300  -0.066   5.587  1.2127  0.4890 -0.6664
  124MOL0     C16630  10.212  -0.005   5.676  0.1097  0.3551  0.1858
  124MOL0     C16631  10.161  -0.065   5.788 -0.8151  0.0826 -0.7771
  124MOL0     C16632  10.059  -0.013   5.867 -0.7518  0.4273 -0.0653
  124MOL0     C16633   9.988   0.105   5.831 -0.0986  0.0369  0.8905
  124MOL0     C16634   9.878   0.155   5.904  0.2636  0.2960 -0.6115
  124MOL0     O16635   9.803   0.256   5.850  0.1494  0.0226 -0.0004
  124MOL0     C16636   9.691   0.299   5.921 -0.8895  0.3492  0.7972
  124MOL0     C16637   9.712   0.403   6.009  0.1774  0.3642  0.5087
  124MOL0     C16638   9.597   0.437   6.090  0.6405  0.3679 -0.6983
  124MOL0     C16639   9.470   0.384   6.076 -0.2809  0.6787  1.3828
  124MOL0     O16640   9.386   0.431   6.174 -0.0925  0.5144  0.4824
  124MOL0     C16641   9.241   0.410   6.160  0.2005  0.2809 -0.2780
  124MOL0     C16642   9.161   0.457   6.289 -0.5008  1.2842 -0.6017
  124MOL0     C16643   9.204   0.589   6.345  0.0085 -0.1743  0.4837
  124MOL0     C16644   9.142   0.600   6.482  0.4589 -1.4011 -0.8984
  124MOL0     C16645   9.171   0.744   6.542 -0.2606 -0.2199  0.1128
  124MOL0     C16646   9.095   0.780   6.672 -0.3163  0.8133 -0.3591
  124MOL0     C16647   9.139   0.919   6.718  0.5535  0.0639  0.1059
  124MOL0     C16648   9.048   0.956   6.839  0.8726  0.1708 -0.5902
  124MOL0    Cl16649   9.143   1.072   6.943  0.1287 -0.0664  0.0859
  124MOL0     C16650   9.457   0.282   5.980  1.1534  0.4562  0.9085
  124MOL0     C16651   9.567   0.246   5.895  0.1214  0.2604 -0.3280
  124MOL0     O16652   9.861   0.103   6.023 -0.6577 -0.4856 -0.3669
  124MOL0     C16653  10.032   0.175   5.710  0.4262  0.3213 -0.6247
  124MOL0     C16654  10.136   0.116   5.635 -0.4597  0.3210  0.1102
  124MOL0     N16655  10.029   0.097   5.047 -0.5126  0.5651  0.0465
  124MOL0     N16656   9.991   0.210   5.003 -0.6014 -0.2669 -0.0991
  124MOL0     C16657  10.746   1.284   4.817 -0.5035 -0.0924 -0.8773
  124MOL0     C16658  10.890   1.274   4.792  0.1951 -0.1610  0.7905
  124MOL0     C16659  11.269   1.145   4.575  0.9714  0.4852 -1.1705
  124MOL0     C16660  11.335   1.119   4.685  0.0232 -0.9041 -0.8176
  124MOL0     C16661  11.474   1.124   4.693  0.4649  0.6072  0.8666
  124MOL0     C16662  11.550   1.129   4.568 -0.2700  0.2790 -0.7220
  124MOL0     O16663  11.687   1.102   4.561  0.4869 -0.5900 -0.0933
  124MOL0     C16664  11.757   1.077   4.683 -0.4310  0.1389  0.6590
  124MOL0     C16665  11.904   1.078   4.633 -0.1741  1.1371 -0.7344
  124MOL0     C16666  11.955   1.227   4.592 -0.1768 -0.3431 -0.5229
  124MOL0     C16667  12.061   1.232   4.486  0.5759  0.0969  0.5585
  124MOL0     C16668  12.171   1.163   4.540 -0.8942  0.0229  1.0403
  124MOL0     C16669  12.263   1.097   4.590  0.4470  0.7028 -0.1481
  124MOL0     C16670  11.480   1.160   4.451  1.0938  0.1727  0.4124
  124MOL0     C16671  11.343   1.157   4.449 -0.0681  0.3061 -0.5773
  124MOL0     C16672  11.282   1.178   4.311  0.7245  0.4675  0.2004
  124MOL0     H16673  10.909   0.991   4.623 -0.3523 -0.0913 -2.9760
  124MOL0     H16674  10.651   0.985   4.668 -1.4554  2.1248 -2.5525
  124MOL0     H16675  10.343   1.145   4.759 -0.8811  0.4777  1.6788
  124MOL0     H16676  10.455   1.040   4.683 -1.2606  1.7445 -1.1175
  124MOL0     H16677  10.539   1.040   4.966  0.7363 -2.8927 -0.5839
  124MOL0     H16678  10.461   0.911   4.874 -4.2748 -0.2423 -2.2383
  124MOL0     H16679  10.257   1.116   4.978 -2.4306 -1.0831  1.7496
  124MOL0     H16680  10.339   1.002   5.088 -2.4414  0.4122  0.4939
  124MOL0     H16681  10.116   0.951   4.950  0.2565 -2.0646  1.3516
  124MOL0     H16682  10.236   0.892   4.835  3.0552 -0.8924  1.0122
  124MOL0     H16683  10.352   0.769   4.999 -0.7592 -1.1235 -3.3709
  124MOL0     H16684  10.212   0.787   5.113  2.4769  0.3971  0.1856
  124MOL0     H16685  10.055   0.712   4.948  0.7840  3.6836 -0.4185
  124MOL0     H16686  10.187   0.662   4.842  1.9260  0.4621 -0.0145
  124MOL0     H16687  10.139   0.551   5.120 -0.9512  3.2050 -0.6782
  124MOL0     H16688  10.280   0.508   5.024  0.1837 -0.9823  1.6792
  124MOL0     H16689   9.973   0.447   4.953 -0.6730 -1.1176  0.0055
  124MOL0     H16690  10.108   0.407   4.838 -0.0744 -1.8267  0.9100
  124MOL0     H16691  10.305   0.283   5.035  0.3292 -1.1796 -1.9195
  124MOL0     H16692  10.214  -0.103   5.092  0.9676  0.1283  6.1091
  124MOL0     H16693  10.338  -0.001   5.006  1.1413  0.8144  1.3329
  124MOL0     H16694  10.410  -0.075   5.216  0.6846 -0.1227  1.5992
  124MOL0     H16695  10.368   0.101   5.227  1.2761 -0.6978  0.8032
  124MOL0     H16696  10.197  -0.124   5.346 -1.2150  0.9948  3.4504
  124MOL0     H16697  10.175   0.055   5.350  0.3989 -0.1017 -0.7189
  124MOL0     H16698  10.383   0.084   5.471  2.3684 -0.6520  0.1166
  124MOL0     H16699  10.428  -0.091   5.432 -0.2362 -0.8221  1.0514
  124MOL0     H16700  10.220  -0.148   5.827 -2.3269 -0.6326  0.0830
  124MOL0     H16701  10.019  -0.064   5.954  2.2436 -2.2686 -0.0759
  124MOL0     H16702   9.799   0.468   6.018 -1.5697  2.7519  1.3387
  124MOL0     H16703   9.614   0.511   6.168  0.7328 -0.1015 -0.2707
  124MOL0     H16704   9.206   0.460   6.070  0.8848 -0.9391 -1.2594
  124MOL0     H16705   9.223   0.302   6.162 -2.1830  0.6127 -0.7367
  124MOL0     H16706   9.053   0.461   6.277 -0.8732  0.9777  2.1586
  124MOL0     H16707   9.177   0.388   6.372  0.9337  3.4286  0.9945
  124MOL0     H16708   9.313   0.590   6.355  0.5575 -2.2807 -3.2455
  124MOL0     H16709   9.182   0.668   6.273  0.5925 -1.1729 -0.8278
  124MOL0     H16710   9.187   0.523   6.545  0.7656 -2.6316 -2.5739
  124MOL0     H16711   9.034   0.595   6.470  0.1252  1.7149  0.0235
  124MOL0     H16712   9.145   0.815   6.463  0.3774  2.8750  2.4829
  124MOL0     H16713   9.277   0.757   6.566 -0.1697 -0.2456 -0.2715
  124MOL0     H16714   8.986   0.774   6.661 -0.2619  2.0115 -1.9624
  124MOL0     H16715   9.123   0.705   6.746 -1.5212  2.1833  1.5801
  124MOL0     H16716   9.144   1.004   6.649  4.7235  0.9959  1.2543
  124MOL0     H16717   9.239   0.901   6.759 -0.4051 -0.6986  2.2523
  124MOL0     H16718   8.959   1.011   6.808  1.1794  0.1927 -1.4664
  124MOL0     H16719   9.019   0.871   6.901  1.5671  1.0199  0.9355
  124MOL0     H16720   9.363   0.229   5.966  1.0169  1.5244 -4.3086
  124MOL0     H16721   9.572   0.160   5.829  1.8166 -2.0932  2.6206
  124MOL0     H16722   9.973   0.259   5.674 -1.1137 -0.4506 -0.0024
  124MOL0     H16723  10.160   0.170   5.545  2.5726  0.6877  1.0390
  124MOL0     H16724  10.704   1.360   4.882  2.1271  0.4135  0.3575
  124MOL0     H16725  10.957   1.348   4.835 -1.8399  1.7136  0.9244
  124MOL0     H16726  11.290   1.101   4.783 -0.8706 -0.5635 -1.1570
  124MOL0     H16727  11.522   1.092   4.785  0.0042 -2.6649  0.0913
  124MOL0     H16728  11.726   0.979   4.720  1.1874 -0.2456  1.0769
  124MOL0     H16729  11.742   1.157   4.755  0.4411  1.6749 -0.7849
  124MOL0     H16730  11.910   1.016   4.543 -2.1195  0.4913 -0.4681
  124MOL0     H16731  11.967   1.030   4.709 -2.3905 -1.4187 -0.3463
  124MOL0     H16732  11.982   1.282   4.683  1.7415 -1.8438 -0.1103
  124MOL0     H16733  11.874   1.283   4.545  0.6990  2.2559  0.8713
  124MOL0     H16734  12.012   1.192   4.397 -0.1077  3.1804 -0.5865
  124MOL0     H16735  12.091   1.335   4.463  1.9548 -0.6792 -1.4536
  124MOL0     H16736  12.323   1.026   4.643  1.5962 -0.5409 -2.9310
  124MOL0     H16737  11.536   1.178   4.359  0.6003 -0.8235 -0.1073
  124MOL0     H16738  11.222   1.089   4.290  2.6338 -0.1167 -3.8583
  124MOL0     H16739  11.226   1.272   4.314  1.9548  1.3504 -1.6865
  124MOL0     H16740  11.361   1.192   4.236 -0.1654  1.4906 -0.5820
  125MOL0     O16741   5.456   1.010   8.083 -0.3964 -0.3902  0.4871
  125MOL0     C16742   5.540   1.061   8.001  0.1369 -0.0816 -0.4921
  125MOL0     O16743   5.619   1.002   7.909 -0.3454  0.0294  0.0865
  125MOL0     C16744   5.617   0.858   7.927  0.8500  0.0228  0.1804
  125MOL0     C16745   5.509   0.783   7.876  0.1161 -0.2907 -0.2330
  125MOL0     C16746   5.515   0.644   7.892  0.5185  0.0951  0.1132
  125MOL0     C16747   5.614   0.577   7.964  0.1657 -1.0919  0.6283
  125MOL0     O16748   5.625   0.452   7.982 -0.0971 -0.0080 -0.2992
  125MOL0     C16749   5.558   0.364   7.890 -0.2779 -0.5584 -0.3599
  125MOL0     C16750   5.636   0.223   7.901  0.2133 -0.6040 -0.5603
  125MOL0     C16751   5.571   0.114   7.819 -0.4051 -0.9864 -0.0573
  125MOL0     C16752   5.656  -0.013   7.832  0.1181  0.3008  0.0765
  125MOL0     C16753   5.653  -0.093   7.702 -0.1086 -0.1532  0.3943
  125MOL0     C16754   5.509  -0.145   7.680  0.7725 -0.0414 -0.2443
  125MOL0     C16755   5.490  -0.281   7.755 -0.1396 -0.2054  0.2555
  125MOL0     C16756   5.566  -0.411   7.719 -0.1726 -0.4498  0.0952
  125MOL0     N16757   5.583  -0.495   7.843  0.1994  0.2554  0.1810
  125MOL0     C16758   5.682  -0.478   7.940 -0.2647 -0.5875  0.4297
  125MOL0     C16759   5.684  -0.586   8.021  0.0352 -0.1818  0.2294
  125MOL0     C16760   5.757  -0.604   8.148 -0.1506 -0.7169  0.9431
  125MOL0     C16761   5.675  -0.599   8.276  0.1207 -0.7137 -0.8572
  125MOL0     C16762   5.752  -0.543   8.393 -0.3457  0.5950  0.7478
  125MOL0     C16763   5.674  -0.579   8.522 -0.0233  0.1663 -0.0003
  125MOL0     O16764   5.542  -0.520   8.521 -0.4420  0.4861 -0.2834
  125MOL0     C16765   5.520  -0.416   8.603 -0.6063  0.2270 -0.6664
  125MOL0     C16766   5.617  -0.311   8.606  0.9401 -0.0293 -0.5758
  125MOL0     C16767   5.589  -0.190   8.679 -0.6596  0.3523 -0.8828
  125MOL0     C16768   5.462  -0.171   8.745  0.1188 -0.3497 -0.5099
  125MOL0     C16769   5.436  -0.047   8.822 -0.5082 -0.3474 -0.0166
  125MOL0     O16770   5.312  -0.055   8.885  0.1253 -0.2569  0.3284
  125MOL0     C16771   5.302   0.014   9.006  0.0885  0.5959  1.2535
  125MOL0     C16772   5.307   0.154   9.010  0.0727  0.1806  0.1435
  125MOL0     C16773   5.308   0.225   9.133 -0.5897 -0.6911  0.5323
  125MOL0     C16774   5.299   0.157   9.257  0.1848  0.3351  0.7973
  125MOL0     O16775   5.290   0.222   9.376 -0.0500  0.5209 -0.6632
  125MOL0     C16776   5.285   0.369   9.363  0.3404 -0.4117  0.5965
  125MOL0     C16777   5.249   0.433   9.494  0.5698  0.6563  0.0413
  125MOL0     C16778   5.178   0.573   9.466  0.0404  0.1135  1.8614
  125MOL0     C16779   5.166   0.684   9.569  0.8195  0.2244 -0.7401
  125MOL0     C16780   5.263   0.688   9.685 -0.2136  0.0882  0.6215
  125MOL0     C16781   5.239   0.585   9.800  0.0513 -0.4524 -0.5967
  125MOL0     C16782   5.340   0.617   9.922 -0.3756 -0.0473  0.1335
  125MOL0     C16783   5.483   0.593   9.874 -0.2169  0.4203 -0.8814
  125MOL0    Cl16784   5.503   0.421   9.824 -0.0791  0.1627  0.1355
  125MOL0     C16785   5.291   0.022   9.254  0.0028 -0.2118 -0.0041
  125MOL0     C16786   5.298  -0.050   9.139  0.1120  0.5883  1.3427
  125MOL0     O16787   5.527   0.036   8.847  1.6701 -0.3315  0.5501
  125MOL0     C16788   5.368  -0.265   8.721 -0.7409 -0.1576  0.7387
  125MOL0     C16789   5.401  -0.390   8.663  0.5366  0.1293  0.5999
  125MOL0     N16790   5.592  -0.669   7.958 -0.9767  0.1893  0.0451
  125MOL0     N16791   5.528  -0.614   7.864  0.4413  0.0336 -0.0750
  125MOL0     C16792   5.714   0.659   8.019  0.3427  0.8448  0.5053
  125MOL0     C16793   5.714   0.793   7.999 -1.1063 -0.5137  0.0797
  125MOL0     C16794   5.548   1.211   8.009 -0.2325  0.0176 -0.8733
  125MOL0     C16795   5.434   1.290   8.033  0.5351  1.0319 -0.0572
  125MOL0     C16796   5.433   1.427   8.030  0.3349  0.6604 -0.4771
  125MOL0     C16797   5.562   1.500   8.015  1.2943  0.2137  0.0924
  125MOL0     O16798   5.579   1.631   8.001 -0.0802 -0.5291 -0.7381
  125MOL0     C16799   5.473   1.727   7.979  0.5326 -1.2160  0.0536
  125MOL0     C16800   5.377   1.704   7.860  0.1327  0.7048 -0.3703
  125MOL0     C16801   5.338   1.841   7.798  0.0881  0.5939  0.6290
  125MOL0     C16802   5.279   1.817   7.662  0.0555  0.2173  0.6113
  125MOL0     C16803   5.279   1.946   7.592 -0.1084 -1.2445 -0.0813
  125MOL0     C16804   5.288   2.052   7.529 -0.8438  0.9246  0.6992
  125MOL0     C16805   5.676   1.413   7.996  0.2830  0.4500  1.3321
  125MOL0     C16806   5.673   1.271   7.996 -1.4966  0.1965  0.0630
  125MOL0     C16807   5.806   1.193   7.980 -0.5538 -0.7435  0.5345
  125MOL0     H16808   5.432   0.829   7.815 -0.1888  2.3429  1.9677
  125MOL0     H16809   5.429   0.589   7.853  2.2005 -0.2224 -3.5461
  125MOL0     H16810   5.455   0.367   7.925 -1.4055  2.8766 -3.2767
  125MOL0     H16811   5.567   0.402   7.787 -0.2916  3.0874  0.8358
  125MOL0     H16812   5.624   0.196   8.006  2.7440  2.9874  0.8468
  125MOL0     H16813   5.743   0.233   7.879  0.2843  0.4937  0.1949
  125MOL0     H16814   5.575   0.147   7.715 -3.4190  0.7890  0.2477
  125MOL0     H16815   5.465   0.114   7.846 -0.5259 -0.0565 -0.4720
  125MOL0     H16816   5.757   0.010   7.868 -0.0738 -0.9486  1.5177
  125MOL0     H16817   5.609  -0.082   7.903 -0.8250  1.1420  0.3012
  125MOL0     H16818   5.695  -0.040   7.616 -2.4443 -1.8978 -1.9868
  125MOL0     H16819   5.717  -0.181   7.709  1.4913  0.8970 -0.5911
  125MOL0     H16820   5.428  -0.080   7.712  0.4641 -0.9981  1.0124
  125MOL0     H16821   5.493  -0.182   7.579  0.0833 -0.9456  0.1795
  125MOL0     H16822   5.386  -0.308   7.736 -0.0374 -3.1746  3.0504
  125MOL0     H16823   5.502  -0.265   7.863 -0.6484  0.2131  0.2521
  125MOL0     H16824   5.507  -0.470   7.647  0.2027 -1.7567  0.8191
  125MOL0     H16825   5.666  -0.388   7.683  0.0959 -0.1183  1.0457
  125MOL0     H16826   5.756  -0.399   7.940 -1.2317  0.3536 -0.2707
  125MOL0     H16827   5.819  -0.694   8.143 -1.5663 -1.8109  2.1892
  125MOL0     H16828   5.830  -0.523   8.143  0.2543 -1.0524  1.3780
  125MOL0     H16829   5.585  -0.541   8.256  1.0435  1.4481  0.9074
  125MOL0     H16830   5.648  -0.702   8.302 -0.7201 -1.3760 -3.9016
  125MOL0     H16831   5.754  -0.434   8.382  0.6073  0.6666  1.4925
  125MOL0     H16832   5.854  -0.583   8.397 -0.0822  1.3102  1.3190
  125MOL0     H16833   5.726  -0.533   8.607  1.1222 -1.0492 -0.0114
  125MOL0     H16834   5.669  -0.687   8.540  1.2541 -0.3672 -2.4602
  125MOL0     H16835   5.714  -0.318   8.558  0.7095 -2.8530 -0.7551
  125MOL0     H16836   5.665  -0.113   8.688 -1.5063  1.1359 -0.3039
  125MOL0     H16837   5.326   0.203   8.915 -0.1810  3.1151  1.4745
  125MOL0     H16838   5.326   0.332   9.122 -1.8430 -0.1399  3.0654
  125MOL0     H16839   5.375   0.414   9.320  0.7677  0.0156  1.8717
  125MOL0     H16840   5.201   0.391   9.297  0.2172 -0.9677  0.5599
  125MOL0     H16841   5.193   0.360   9.553 -0.2661 -1.6046 -3.2215
  125MOL0     H16842   5.343   0.451   9.547  0.9986 -0.0837 -0.4464
  125MOL0     H16843   5.231   0.618   9.382  3.5829 -2.8841  2.2455
  125MOL0     H16844   5.081   0.553   9.420  0.6062  0.8112  0.3157
  125MOL0     H16845   5.063   0.670   9.605  1.1609 -1.0305 -0.2144
  125MOL0     H16846   5.180   0.772   9.506 -0.4598  1.3811  0.5082
  125MOL0     H16847   5.247   0.788   9.728 -0.6311 -0.1474  1.0228
  125MOL0     H16848   5.360   0.685   9.635 -1.8395 -2.7062 -2.8069
  125MOL0     H16849   5.134   0.584   9.831  1.1388 -1.4945  3.6780
  125MOL0     H16850   5.267   0.486   9.761  2.5971  0.6264 -1.7324
  125MOL0     H16851   5.319   0.558  10.011  0.0688  1.2813  1.1642
  125MOL0     H16852   5.326   0.721   9.955  2.7999  0.5119  0.0511
  125MOL0     H16853   5.503   0.665   9.793 -0.3005 -0.6799 -1.8974
  125MOL0     H16854   5.562   0.621   9.945  0.2454 -1.9778 -0.3878
  125MOL0     H16855   5.287  -0.026   9.352  0.8979  0.3052  0.2937
  125MOL0     H16856   5.289  -0.158   9.144  2.3703  0.2730  0.0286
  125MOL0     H16857   5.265  -0.247   8.749 -2.4562 -1.8462 -3.6093
  125MOL0     H16858   5.326  -0.466   8.643  0.8824  0.3276 -1.7292
  125MOL0     H16859   5.793   0.609   8.074 -1.1948 -0.8855  1.2485
  125MOL0     H16860   5.796   0.856   8.032  0.2791 -2.6329  0.8238
  125MOL0     H16861   5.344   1.230   8.025  2.0641 -1.4775  0.3408
  125MOL0     H16862   5.346   1.492   8.042  0.1369  0.1766  0.8971
  125MOL0     H16863   5.521   1.824   7.989 -0.8351 -0.6955  2.6755
  125MOL0     H16864   5.409   1.719   8.068 -3.2971 -0.4186 -2.4173
  125MOL0     H16865   5.285   1.658   7.899  1.0515  1.6457  3.3932
  125MOL0     H16866   5.423   1.643   7.782 -2.6167  0.1380 -1.6721
  125MOL0     H16867   5.426   1.906   7.789  1.4889 -1.4238 -0.9593
  125MOL0     H16868   5.261   1.903   7.846 -0.7115  0.3063 -0.2459
  125MOL0     H16869   5.338   1.743   7.608 -2.1666 -1.5851  0.4489
  125MOL0     H16870   5.178   1.777   7.677 -1.3161  2.8277 -0.9726
  125MOL0     H16871   5.311   2.152   7.496  3.5965 -0.3984 -0.9426
  125MOL0     H16872   5.774   1.456   7.975 -1.6028  4.9761  0.6027
  125MOL0     H16873   5.788   1.141   7.885 -1.0756 -4.1401  2.3681
  125MOL0     H16874   5.888   1.265   7.966 -1.7179  0.2628 -1.7059
  125MOL0     H16875   5.837   1.115   8.049  1.3050 -1.6161 -1.1802
  126MOL0     O16876   4.115   0.821   0.129  0.2970 -0.6676  0.7658
  126MOL0     C16877   4.142   0.823   0.007 -0.1548  0.4532  0.2269
  126MOL0     O16878   4.049   0.783  -0.096 -0.6748  0.0379 -0.0001
  126MOL0     C16879   3.939   0.713  -0.067  0.8184  0.3679  0.0183
  126MOL0     C16880   3.826   0.748  -0.143  0.9273 -0.0090 -0.1591
  126MOL0     C16881   3.704   0.674  -0.128 -0.4460  0.3197 -0.3396
  126MOL0     C16882   3.705   0.580  -0.016  0.0377  0.5139  0.5919
  126MOL0     O16883   3.591   0.512   0.027 -0.3694 -1.0871 -1.0882
  126MOL0     C16884   3.488   0.471  -0.059 -0.3523  0.8718 -0.3542
  126MOL0     C16885   3.426   0.349   0.014 -0.2963 -0.3944 -0.4633
  126MOL0     C16886   3.333   0.270  -0.075 -0.2583 -0.2672 -0.2838
  126MOL0     C16887   3.204   0.358  -0.107 -0.5187 -0.9506  0.4596
  126MOL0     C16888   3.118   0.279  -0.205 -0.2783  1.1630  0.0948
  126MOL0     C16889   3.009   0.195  -0.144 -0.6645  0.7429  0.5885
  126MOL0     C16890   2.911   0.158  -0.259 -0.4859  0.2532 -0.5750
  126MOL0     C16891   2.811   0.271  -0.281  0.3479 -0.0133  0.5631
  126MOL0     N16892   2.691   0.228  -0.368  0.5477  0.8127  0.0184
  126MOL0     C16893   2.559   0.241  -0.336 -0.2059 -0.2518 -0.1800
  126MOL0     C16894   2.491   0.193  -0.442 -0.7769 -0.9999 -0.4449
  126MOL0     C16895   2.343   0.205  -0.470  0.0021 -0.3044  0.1144
  126MOL0     C16896   2.257   0.086  -0.416  0.5889 -1.7588  0.6505
  126MOL0     C16897   2.316  -0.044  -0.417 -0.1145  0.2310 -0.2657
  126MOL0     C16898   2.223  -0.158  -0.393 -0.0461  0.6715 -0.2439
  126MOL0     O16899   2.166  -0.179  -0.255 -0.2756 -0.5961  0.1232
  126MOL0     C16900   2.249  -0.198  -0.150  0.1888  0.5302  0.0763
  126MOL0     C16901   2.182  -0.189  -0.028  0.1665  0.2640  0.0513
  126MOL0     C16902   2.244  -0.179   0.100 -0.5154  0.6297 -0.3118
  126MOL0     C16903   2.391  -0.188   0.103  0.3016 -0.1907  1.1068
  126MOL0     C16904   2.463  -0.149   0.222  0.0721  0.0287 -0.4538
  126MOL0     O16905   2.394  -0.095   0.330 -0.2036 -0.2103 -0.5447
  126MOL0     C16906   2.471  -0.020   0.415 -1.4085 -1.3542 -0.8209
  126MOL0     C16907   2.478   0.120   0.414 -0.4617 -0.4050  1.1626
  126MOL0     C16908   2.570   0.197   0.494  0.3457 -0.1302 -0.3383
  126MOL0     C16909   2.661   0.124   0.588  0.2224 -0.2407  1.5744
  126MOL0     O16910   2.751   0.209   0.659  0.9410 -0.2246  0.7599
  126MOL0     C16911   2.840   0.151   0.747 -0.4033  0.9332 -0.2835
  126MOL0     C16912   2.940   0.268   0.775  0.1107 -0.8303  0.4303
  126MOL0     C16913   3.043   0.216   0.875 -0.8810  0.8391  0.5625
  126MOL0     C16914   3.122   0.320   0.941 -1.2437 -0.0233  0.1883
  126MOL0     C16915   3.226   0.282   1.046 -0.7120  0.6779  0.4102
  126MOL0     C16916   3.324   0.406   1.042  1.2736  0.1618 -0.1137
  126MOL0     C16917   3.426   0.401   1.165 -0.0297 -0.4940  0.1053
  126MOL0     C16918   3.463   0.530   1.244  0.7553  0.5994 -0.4519
  126MOL0    Cl16919   3.572   0.473   1.382  0.0420  0.3068 -0.1222
  126MOL0     C16920   2.660  -0.013   0.586  0.5855  0.1491  0.0320
  126MOL0     C16921   2.569  -0.080   0.500  0.3268  0.3691  1.7140
  126MOL0     O16922   2.583  -0.159   0.213  0.2976  0.3904  0.3466
  126MOL0     C16923   2.457  -0.200  -0.019 -0.5930  0.3108 -0.0971
  126MOL0     C16924   2.387  -0.212  -0.147  0.5114 -0.6239 -0.7483
  126MOL0     N16925   2.587   0.165  -0.539 -0.4491 -0.1211  0.0595
  126MOL0     N16926   2.707   0.175  -0.493 -0.3461 -0.3904  0.3732
  126MOL0     C16927   3.814   0.549   0.057 -0.0929 -0.5432 -0.3461
  126MOL0     C16928   3.936   0.613   0.031  0.4274  0.4822  0.6156
  126MOL0     C16929   4.271   0.879  -0.030 -0.5925  0.4968 -0.0374
  126MOL0     C16930   4.342   0.963   0.068  0.1374  0.2576  0.1368
  126MOL0     C16931   4.462   1.021   0.043  0.0756 -0.2820 -0.0796
  126MOL0     C16932   4.523   1.000  -0.083 -0.3707 -0.7680 -0.3335
  126MOL0     O16933   4.655   1.046  -0.099  0.4148 -0.1386  0.3648
  126MOL0     C16934   4.731   1.055  -0.224 -0.8170 -0.9462 -0.6028
  126MOL0     C16935   4.878   1.108  -0.192  0.1549  0.4530  0.2767
  126MOL0     C16936   4.950   1.030  -0.088 -0.0691  0.3142  0.2610
  126MOL0     C16937   5.002   0.894  -0.137 -0.9094  0.5477  0.1003
  126MOL0     C16938   5.113   0.846  -0.046 -0.3387 -0.0622 -0.6372
  126MOL0     C16939   5.203   0.795   0.021  0.8648 -0.1133  0.6457
  126MOL0     C16940   4.464   0.925  -0.177 -0.0770 -0.1520 -0.9803
  126MOL0     C16941   4.339   0.870  -0.158  0.2809  0.2779  0.8728
  126MOL0     C16942   4.277   0.808  -0.281  0.1849  0.1821  0.6300
  126MOL0     H16943   3.841   0.825  -0.219  2.4099 -2.4093 -2.4744
  126MOL0     H16944   3.608   0.689  -0.176 -0.9802  0.8923  0.8709
  126MOL0     H16945   3.414   0.546  -0.084  0.7944  1.2545 -2.9379
  126MOL0     H16946   3.534   0.451  -0.157  0.0773  0.9450 -0.1711
  126MOL0     H16947   3.361   0.381   0.096 -1.5369 -0.6836 -1.2978
  126MOL0     H16948   3.506   0.281   0.044  2.3352  3.3000  1.7049
  126MOL0     H16949   3.297   0.176  -0.034  0.4540 -1.4104 -2.1773
  126MOL0     H16950   3.396   0.248  -0.162 -1.4652  2.1961 -1.8952
  126MOL0     H16951   3.140   0.378  -0.020 -2.9302 -0.3860 -1.3540
  126MOL0     H16952   3.233   0.457  -0.141 -0.1885 -0.9292  0.7937
  126MOL0     H16953   3.069   0.353  -0.270 -0.6210 -0.7278 -1.9232
  126MOL0     H16954   3.182   0.218  -0.269  2.2931  3.8008 -0.0342
  126MOL0     H16955   3.072   0.115  -0.103 -0.5145  0.2739 -0.5196
  126MOL0     H16956   2.954   0.251  -0.068 -1.6412 -0.2735  0.6551
  126MOL0     H16957   2.856   0.069  -0.228 -1.2592  0.3121 -1.6990
  126MOL0     H16958   2.970   0.126  -0.346  3.7414 -3.2608  3.0782
  126MOL0     H16959   2.769   0.302  -0.184 -1.5202  2.3867 -0.8647
  126MOL0     H16960   2.859   0.352  -0.336 -1.4065 -1.0570 -2.7729
  126MOL0     H16961   2.520   0.280  -0.242  1.4755 -1.9596  1.3149
  126MOL0     H16962   2.304   0.300  -0.432  1.3793  0.2581  0.1557
  126MOL0     H16963   2.320   0.201  -0.577 -0.9578 -0.7783  0.3198
  126MOL0     H16964   2.210   0.100  -0.318  0.6538 -4.6653  1.1943
  126MOL0     H16965   2.171   0.088  -0.484  2.0674 -4.7040 -1.5507
  126MOL0     H16966   2.394  -0.042  -0.341 -2.1444  2.3509  1.8983
  126MOL0     H16967   2.346  -0.064  -0.521  0.5228  1.3760 -0.3182
  126MOL0     H16968   2.274  -0.251  -0.423  0.2662 -0.6197  3.6587
  126MOL0     H16969   2.141  -0.150  -0.465  0.3524 -1.0459 -0.9478
  126MOL0     H16970   2.074  -0.176  -0.032 -0.0750 -0.4461  2.4527
  126MOL0     H16971   2.174  -0.160   0.181 -1.2210 -1.5105 -0.3497
  126MOL0     H16972   2.399   0.163   0.354 -0.2928  1.1439  1.9946
  126MOL0     H16973   2.554   0.303   0.477 -1.5196 -0.2750  0.2791
  126MOL0     H16974   2.792   0.121   0.840  2.0044 -3.0501 -0.0823
  126MOL0     H16975   2.882   0.063   0.697 -2.4439  0.7433 -1.7967
  126MOL0     H16976   2.987   0.312   0.687  1.9211  2.1381  2.7127
  126MOL0     H16977   2.877   0.345   0.821 -0.2865 -2.0685  2.0946
  126MOL0     H16978   2.999   0.156   0.955  0.6763 -1.0194  0.0993
  126MOL0     H16979   3.119   0.164   0.816  0.1853  4.1070 -1.2024
  126MOL0     H16980   3.044   0.383   0.985  0.3524  0.4713  2.4955
  126MOL0     H16981   3.179   0.367   0.860  1.0391  0.7364  2.1108
  126MOL0     H16982   3.277   0.189   1.019  0.2363  1.2748  0.0923
  126MOL0     H16983   3.175   0.262   1.140 -3.7887  1.5885 -0.9148
  126MOL0     H16984   3.371   0.415   0.944  1.7556  0.1591  0.1131
  126MOL0     H16985   3.274   0.502   1.056  1.1238  0.0365  0.2132
  126MOL0     H16986   3.513   0.347   1.127 -1.7756 -1.1239 -3.3750
  126MOL0     H16987   3.389   0.328   1.238  2.0507  0.4760  2.2787
  126MOL0     H16988   3.519   0.596   1.176  2.1718  1.9466  1.8826
  126MOL0     H16989   3.378   0.584   1.286  1.9170  3.1073 -1.1093
  126MOL0     H16990   2.722  -0.053   0.666 -0.1032  0.3828  0.6895
  126MOL0     H16991   2.569  -0.189   0.502 -0.5098  0.3390  0.6285
  126MOL0     H16992   2.565  -0.196  -0.034 -0.5933 -0.2629 -0.2699
  126MOL0     H16993   2.460  -0.225  -0.226  2.0577  0.0027  0.5301
  126MOL0     H16994   3.813   0.464   0.124  3.9204  1.1186  2.2074
  126MOL0     H16995   4.024   0.588   0.090 -0.8985 -0.6879  2.1799
  126MOL0     H16996   4.305   0.985   0.168 -0.3447  1.7864 -0.3579
  126MOL0     H16997   4.520   1.048   0.130 -1.1621 -3.2972  1.8676
  126MOL0     H16998   4.693   1.142  -0.279  1.7138 -0.9173 -2.4757
  126MOL0     H16999   4.718   0.970  -0.292 -1.9372 -1.5940  0.3789
  126MOL0     H17000   4.866   1.212  -0.161  5.2253  1.9749 -1.9216
  126MOL0     H17001   4.928   1.115  -0.289 -3.3597  1.1239 -1.6616
  126MOL0     H17002   4.899   1.021   0.008  1.4688  3.5433  1.5119
  126MOL0     H17003   5.031   1.099  -0.061 -0.5738  2.0792 -2.3591
  126MOL0     H17004   4.924   0.818  -0.147  2.7686 -3.4314 -1.7705
  126MOL0     H17005   5.043   0.904  -0.238 -1.3420 -4.1006 -0.7639
  126MOL0     H17006   5.296   0.767   0.066  0.0477 -1.7992  1.3258
  126MOL0     H17007   4.520   0.905  -0.268 -0.9973 -1.1972 -1.3462
  126MOL0     H17008   4.201   0.873  -0.326  1.1089 -1.2644 -3.5335
  126MOL0     H17009   4.351   0.801  -0.362 -0.6279  2.9019 -0.4675
  126MOL0     H17010   4.232   0.711  -0.260 -4.9866  2.6553  2.6341
  127MOL0     O17011   4.606   7.842   3.610  0.3836  0.0490 -0.0397
  127MOL0     C17012   4.498   7.784   3.622 -0.4251  0.0443 -0.1058
  127MOL0     O17013   4.380   7.848   3.658  0.4857 -0.6564 -0.3552
  127MOL0     C17014   4.382   7.985   3.688 -1.1996 -0.0503  0.1527
  127MOL0     C17015   4.386   8.032   3.821  0.6724 -0.0585  0.5592
  127MOL0     C17016   4.376   8.168   3.866 -0.3125 -0.4701 -0.9822
  127MOL0     C17017   4.340   8.261   3.765  0.4503  0.1179 -0.2978
  127MOL0     O17018   4.303   8.391   3.782 -0.1082  0.1476 -0.0913
  127MOL0     C17019   4.395   8.470   3.866 -0.0656 -0.0316  0.5064
  127MOL0     C17020   4.522   8.523   3.791 -0.2779 -0.1942 -0.1839
  127MOL0     C17021   4.583   8.650   3.853  0.3436  0.5168 -0.2430
  127MOL0     C17022   4.735   8.673   3.805  0.0573 -0.3570  0.5969
  127MOL0     C17023   4.751   8.828   3.788 -0.8054 -0.2878  0.2873
  127MOL0     C17024   4.702   8.873   3.653  1.0686  0.9296 -0.3838
  127MOL0     C17025   4.686   9.019   3.647 -1.0785 -0.5267 -0.0689
  127MOL0     C17026   4.589   9.057   3.543 -1.2249  0.3270 -0.2642
  127MOL0     N17027   4.620   9.018   3.409  0.2367 -0.1284  0.0630
  127MOL0     C17028   4.723   9.058   3.329 -0.9477 -0.2832 -0.0678
  127MOL0     C17029   4.713   8.979   3.220  0.2632 -0.2135 -0.0758
  127MOL0     C17030   4.831   8.972   3.134  0.6662 -0.2796 -0.5088
  127MOL0     C17031   4.946   8.909   3.204  0.5884 -0.3351 -0.0771
  127MOL0     C17032   4.916   8.772   3.269 -0.0309  0.6986 -0.0123
  127MOL0     C17033   4.873   8.672   3.176  0.0646  0.0431  0.1896
  127MOL0     O17034   4.979   8.648   3.086 -0.2377 -0.8359  0.9966
  127MOL0     C17035   4.961   8.554   2.985  0.3446  1.8634  0.2646
  127MOL0     C17036   4.849   8.465   2.976  0.1550 -0.4727  0.0325
  127MOL0     C17037   4.846   8.369   2.869 -0.1768  0.7834 -0.7046
  127MOL0     C17038   4.949   8.353   2.780  0.0926 -0.6048  1.3436
  127MOL0     C17039   4.943   8.250   2.670 -0.1924  1.0821  1.3936
  127MOL0     O17040   4.829   8.184   2.651  0.4896 -0.2641 -0.6337
  127MOL0     C17041   4.815   8.095   2.552 -0.1722  0.3609 -0.2663
  127MOL0     C17042   4.728   8.132   2.439  0.0567  0.3558  0.2684
  127MOL0     C17043   4.704   8.037   2.341  0.6574  0.3630  0.2766
  127MOL0     C17044   4.760   7.910   2.347  0.8858  0.5078  0.4965
  127MOL0     O17045   4.735   7.818   2.242  0.2965  0.0851  0.0927
  127MOL0     C17046   4.605   7.761   2.246 -0.1583 -0.4822 -0.0918
  127MOL0     C17047   4.596   7.632   2.156  0.0971  0.3577 -0.5099
  127MOL0     C17048   4.646   7.647   2.001 -0.3202  0.0798 -0.7521
  127MOL0     C17049   4.647   7.509   1.935 -0.3678  0.7274  0.6652
  127MOL0     C17050   4.661   7.517   1.782  0.6182 -0.2634  0.5256
  127MOL0     C17051   4.745   7.395   1.723 -0.3130 -0.6256 -1.0034
  127MOL0     C17052   4.650   7.277   1.700  0.3990  0.2843  0.5301
  127MOL0     C17053   4.557   7.224   1.808  0.2486 -0.2283 -0.0927
  127MOL0    Cl17054   4.484   7.078   1.744 -0.0707 -0.2971  0.7092
  127MOL0     C17055   4.841   7.869   2.452  0.4363  0.0742 -0.0287
  127MOL0     C17056   4.868   7.969   2.556 -0.0000  0.3499 -0.0951
  127MOL0     O17057   5.044   8.230   2.605 -0.7877  0.6460 -0.2883
  127MOL0     C17058   5.061   8.431   2.801 -0.6171 -0.5355 -0.4178
  127MOL0     C17059   5.066   8.535   2.898  0.3689 -0.1073 -0.0651
  127MOL0     N17060   4.612   8.886   3.241  0.6922 -0.5923 -0.7891
  127MOL0     N17061   4.562   8.911   3.357  0.6272 -0.0170  0.4295
  127MOL0     C17062   4.333   8.219   3.630 -0.1728 -0.4821 -0.2285
  127MOL0     C17063   4.350   8.083   3.596 -0.3027  0.9990  0.3013
  127MOL0     C17064   4.491   7.640   3.585  0.7331  0.9437  0.3960
  127MOL0     C17065   4.393   7.569   3.659  0.0887  0.9076 -0.2215
  127MOL0     C17066   4.389   7.426   3.653  0.0271 -0.6592  0.2417
  127MOL0     C17067   4.485   7.357   3.572  0.8354 -0.0263 -0.4472
  127MOL0     O17068   4.496   7.218   3.593 -0.0495 -0.2236 -0.6106
  127MOL0     C17069   4.481   7.141   3.472  0.4751  0.7182  0.6935
  127MOL0     C17070   4.513   6.995   3.497 -0.2395  0.0997  0.0716
  127MOL0     C17071   4.404   6.896   3.446 -0.6039  1.1089 -0.0202
  127MOL0     C17072   4.427   6.740   3.485  0.8461  0.2475  0.2674
  127MOL0     C17073   4.570   6.695   3.464  0.1886 -0.7692  0.0775
  127MOL0     C17074   4.684   6.655   3.434 -0.1927  0.3610 -0.6475
  127MOL0     C17075   4.578   7.435   3.501 -0.7649 -0.8028  0.4330
  127MOL0     C17076   4.580   7.572   3.499  1.0570 -0.0314 -0.2466
  127MOL0     C17077   4.680   7.637   3.403 -0.1272  0.1791 -0.0814
  127MOL0     H17078   4.377   7.953   3.895 -1.3262  0.4155  0.9036
  127MOL0     H17079   4.364   8.195   3.971 -3.1691 -1.3041 -0.9946
  127MOL0     H17080   4.346   8.562   3.898  0.0277  0.6909 -1.2981
  127MOL0     H17081   4.417   8.412   3.956 -3.7205 -4.2074 -0.8984
  127MOL0     H17082   4.487   8.554   3.692 -1.9065  1.4222  0.8291
  127MOL0     H17083   4.594   8.441   3.783 -1.0991 -0.8474 -1.0992
  127MOL0     H17084   4.571   8.640   3.961 -0.1171 -1.6395 -0.4378
  127MOL0     H17085   4.521   8.739   3.839  0.2909  0.6883  0.9614
  127MOL0     H17086   4.801   8.631   3.881  1.5888 -0.2678 -0.6214
  127MOL0     H17087   4.755   8.615   3.714 -3.9813 -4.5321  1.9897
  127MOL0     H17088   4.702   8.885   3.867  0.4842  1.4929 -0.1328
  127MOL0     H17089   4.857   8.849   3.802 -0.4903 -0.8512 -1.0683
  127MOL0     H17090   4.766   8.838   3.571  2.5503  2.4462  0.0851
  127MOL0     H17091   4.603   8.829   3.637  0.4972  0.8146  2.9393
  127MOL0     H17092   4.783   9.062   3.623 -1.4692 -0.5730 -1.8770
  127MOL0     H17093   4.660   9.068   3.741  1.4458  2.6965 -0.8641
  127MOL0     H17094   4.493   9.013   3.571  0.9164 -4.7908  0.2294
  127MOL0     H17095   4.592   9.165   3.557  0.6982 -0.0442  3.4985
  127MOL0     H17096   4.799   9.131   3.354 -0.6424 -0.8308  0.6327
  127MOL0     H17097   4.810   8.910   3.046  0.9429 -0.8936 -0.1518
  127MOL0     H17098   4.857   9.074   3.106  5.8580  0.3141  4.6490
  127MOL0     H17099   5.034   8.925   3.141  0.4463  1.2473  0.0904
  127MOL0     H17100   4.978   8.977   3.282 -0.9063 -0.7331  0.9256
  127MOL0     H17101   4.840   8.782   3.348  1.3661 -2.4942  1.9418
  127MOL0     H17102   5.005   8.734   3.320 -0.8939 -2.2642 -0.5226
  127MOL0     H17103   4.779   8.694   3.126 -0.0615 -3.6283 -1.5352
  127MOL0     H17104   4.844   8.581   3.229 -0.1205  1.2136  2.1959
  127MOL0     H17105   4.760   8.471   3.038 -1.2943 -4.4953 -1.3434
  127MOL0     H17106   4.765   8.298   2.859  3.0762 -3.8472  1.9376
  127MOL0     H17107   4.671   8.224   2.432 -0.5651  0.0329  0.9891
  127MOL0     H17108   4.640   8.060   2.257  1.3929 -1.7429 -0.9393
  127MOL0     H17109   4.564   7.730   2.342 -0.8146 -1.8393 -0.7765
  127MOL0     H17110   4.532   7.830   2.203  0.5383 -0.6400 -1.5919
  127MOL0     H17111   4.654   7.565   2.220  0.3670  2.6904  1.8631
  127MOL0     H17112   4.492   7.602   2.172  0.8960 -2.5493 -0.1798
  127MOL0     H17113   4.574   7.702   1.940 -0.9954 -1.5922 -1.5332
  127MOL0     H17114   4.751   7.675   1.991  0.1970 -1.8229 -1.0608
  127MOL0     H17115   4.560   7.450   1.966 -0.1690 -0.4539 -0.8635
  127MOL0     H17116   4.737   7.457   1.968  2.1256  2.2801 -3.0417
  127MOL0     H17117   4.707   7.610   1.747  0.5856 -0.5817 -0.4046
  127MOL0     H17118   4.566   7.519   1.728  0.8360 -4.1632 -0.3047
  127MOL0     H17119   4.801   7.428   1.635  0.9315  2.6771  0.8480
  127MOL0     H17120   4.830   7.363   1.783  0.1110  0.6464 -0.8917
  127MOL0     H17121   4.707   7.194   1.658 -0.5224  1.2779 -2.9871
  127MOL0     H17122   4.587   7.300   1.614  0.2324  0.0295  0.5820
  127MOL0     H17123   4.612   7.205   1.901 -0.5658  5.1064  1.8441
  127MOL0     H17124   4.479   7.293   1.843  1.3309  0.5886  0.7670
  127MOL0     H17125   4.881   7.768   2.445 -1.2073 -0.6937  1.0247
  127MOL0     H17126   4.949   7.948   2.625  0.8602 -1.2938 -1.5040
  127MOL0     H17127   5.151   8.428   2.741  1.8432  1.2793  2.8533
  127MOL0     H17128   5.144   8.609   2.908 -0.5609  0.8472  0.2889
  127MOL0     H17129   4.308   8.284   3.547  1.3609  0.4418 -0.0023
  127MOL0     H17130   4.340   8.053   3.492  2.0443 -0.9416  0.5583
  127MOL0     H17131   4.333   7.624   3.731  0.2781  2.2604 -1.0555
  127MOL0     H17132   4.319   7.365   3.710 -1.1746 -0.0836 -0.5775
  127MOL0     H17133   4.548   7.173   3.392  0.7073  0.9016  0.9616
  127MOL0     H17134   4.383   7.163   3.429  1.7388  1.5608 -2.0360
  127MOL0     H17135   4.531   6.967   3.601 -1.5561  1.3193  0.6655
  127MOL0     H17136   4.608   6.976   3.446  0.3736  2.6750  0.1187
  127MOL0     H17137   4.394   6.911   3.338  0.6889  0.0031 -0.3291
  127MOL0     H17138   4.312   6.922   3.499  0.2111 -1.9390  3.2825
  127MOL0     H17139   4.407   6.715   3.590  0.4175  0.8967  0.3419
  127MOL0     H17140   4.364   6.688   3.413 -0.8317  2.1990  0.2384
  127MOL0     H17141   4.786   6.629   3.413 -0.4645 -2.1979  0.8025
  127MOL0     H17142   4.645   7.379   3.437 -0.7567 -1.0457  0.6554
  127MOL0     H17143   4.682   7.599   3.301  1.1241  2.5190 -1.0024
  127MOL0     H17144   4.665   7.745   3.392  0.4577  0.5455  2.1017
  127MOL0     H17145   4.778   7.643   3.451 -1.3302  2.3157  2.3921
  128MOL0     O17146  10.457   3.502   2.742 -0.2239  0.0317  0.0846
  128MOL0     C17147  10.411   3.413   2.676 -0.5991  0.7492 -0.5402
  128MOL0     O17148  10.282   3.365   2.690  0.5612 -0.2013 -0.3447
  128MOL0     C17149  10.206   3.426   2.786 -0.8741  0.8791  1.1137
  128MOL0     C17150  10.095   3.495   2.742 -0.5221  0.1192  0.2341
  128MOL0     C17151  10.022   3.560   2.844  0.3692 -0.3259  0.5766
  128MOL0     C17152  10.041   3.547   2.981 -0.9827 -0.7689  0.2142
  128MOL0     O17153   9.952   3.606   3.064 -0.7018  0.3621 -0.4223
  128MOL0     C17154   9.986   3.606   3.204  0.8852  0.3471 -0.2463
  128MOL0     C17155   9.873   3.682   3.282 -0.2557  0.0498  0.9617
  128MOL0     C17156   9.739   3.612   3.260  0.0399 -0.4383  0.0698
  128MOL0     C17157   9.675   3.552   3.389 -1.2141  0.6741  0.4899
  128MOL0     C17158   9.721   3.412   3.414  0.0978  1.1487  0.2605
  128MOL0     C17159   9.704   3.356   3.559  0.2093  0.8203  0.9134
  128MOL0     C17160   9.769   3.446   3.666  0.1313  1.0696 -0.1945
  128MOL0     C17161   9.759   3.383   3.811 -0.1781  0.3616 -0.2466
  128MOL0     N17162   9.751   3.488   3.908 -1.2320 -0.2351  0.2954
  128MOL0     C17163   9.631   3.565   3.925 -0.4096 -0.5156  0.0206
  128MOL0     C17164   9.628   3.589   4.057 -0.0582  0.4224  0.4460
  128MOL0     C17165   9.506   3.658   4.109  0.6903 -0.2801 -0.5285
  128MOL0     C17166   9.454   3.776   4.025 -0.4993  0.3859  0.2541
  128MOL0     C17167   9.369   3.858   4.126 -0.2344  1.1198  0.0826
  128MOL0     C17168   9.261   3.945   4.064 -0.8052  0.1206 -0.4698
  128MOL0     O17169   9.192   4.015   4.159  1.2261 -0.2908  0.1459
  128MOL0     C17170   9.240   4.134   4.211  0.4815 -0.0741 -0.0262
  128MOL0     C17171   9.145   4.216   4.284 -0.0482 -0.7212 -0.0084
  128MOL0     C17172   9.182   4.342   4.336  0.5969  0.3812  0.1814
  128MOL0     C17173   9.318   4.379   4.327  0.0764 -0.3769 -0.4603
  128MOL0     C17174   9.358   4.503   4.395  0.3308 -0.5563 -0.8058
  128MOL0     O17175   9.492   4.524   4.400 -0.5503  0.1342  0.9656
  128MOL0     C17176   9.523   4.642   4.449 -0.5189 -0.0220 -0.1647
  128MOL0     C17177   9.521   4.665   4.587 -0.1376 -0.4613  0.0196
  128MOL0     C17178   9.570   4.786   4.641  0.6809 -0.6593 -0.2666
  128MOL0     C17179   9.608   4.895   4.551 -1.1736 -0.6693  0.4369
  128MOL0     O17180   9.668   5.011   4.593  0.0125  0.0321  0.3692
  128MOL0     C17181   9.793   5.041   4.528 -0.8387 -0.2108  0.5649
  128MOL0     C17182   9.850   5.170   4.590  0.1475  0.2790  0.3070
  128MOL0     C17183   9.770   5.297   4.545  0.6036  0.0217 -0.6257
  128MOL0     C17184   9.760   5.321   4.395 -0.5944  0.1147 -0.1445
  128MOL0     C17185   9.701   5.456   4.359  0.2779 -0.3201 -0.0312
  128MOL0     C17186   9.699   5.489   4.205  0.0612 -0.6850  0.2133
  128MOL0     C17187   9.633   5.615   4.168  0.2536  0.5717 -0.1692
  128MOL0     C17188   9.482   5.590   4.165  0.2153 -0.0665  0.6124
  128MOL0    Cl17189   9.431   5.471   4.052 -0.2887  0.0230 -0.1193
  128MOL0     C17190   9.617   4.864   4.414 -0.3067 -0.0887 -0.3078
  128MOL0     C17191   9.570   4.744   4.358  0.8013 -0.0708  0.1929
  128MOL0     O17192   9.266   4.583   4.435 -0.0225  0.3374  0.0603
  128MOL0     C17193   9.407   4.316   4.245  0.3218 -0.6524  0.7042
  128MOL0     C17194   9.368   4.187   4.199 -0.3831 -0.5440 -0.9909
  128MOL0     N17195   9.732   3.528   4.123 -0.7311  1.1806 -0.2551
  128MOL0     N17196   9.803   3.461   4.037  0.1630  0.4405  0.2032
  128MOL0     C17197  10.157   3.472   3.022 -0.2923 -0.2430 -0.1300
  128MOL0     C17198  10.239   3.417   2.926 -0.2262 -0.1123  0.4573
  128MOL0     C17199  10.492   3.366   2.560  0.5617  0.2942  0.2213
  128MOL0     C17200  10.437   3.257   2.479  0.4104 -0.4370 -0.2734
  128MOL0     C17201  10.493   3.220   2.366 -0.1286 -0.2004 -0.4488
  128MOL0     C17202  10.620   3.264   2.331 -0.1563  0.2818 -0.6427
  128MOL0     O17203  10.669   3.227   2.212 -0.3317 -0.5112  0.3269
  128MOL0     C17204  10.804   3.167   2.210  0.5868  0.4716  0.8062
  128MOL0     C17205  10.852   3.169   2.060 -0.0418 -1.4554 -0.5549
  128MOL0     C17206  10.983   3.095   2.055 -0.1723 -0.1424 -0.2329
  128MOL0     C17207  11.036   3.074   1.917  0.4438 -0.0679  0.5176
  128MOL0     C17208  11.131   2.965   1.910 -0.2790  0.5926  0.1424
  128MOL0     C17209  11.204   2.867   1.891  1.0418  0.1813  0.6215
  128MOL0     C17210  10.689   3.349   2.408  0.0147 -0.0773 -0.2829
  128MOL0     C17211  10.624   3.413   2.520 -0.0781  0.1900  0.2354
  128MOL0     C17212  10.684   3.535   2.576  0.1158 -0.3013 -0.0233
  128MOL0     H17213  10.062   3.495   2.639 -0.9053 -0.7311  0.3437
  128MOL0     H17214   9.927   3.605   2.816 -1.0219 -3.9779 -1.2135
  128MOL0     H17215   9.991   3.503   3.239  0.4826  0.6302  0.7100
  128MOL0     H17216  10.075   3.664   3.231  1.3689 -0.8900  0.9285
  128MOL0     H17217   9.855   3.787   3.257  1.1884  0.3107  0.9571
  128MOL0     H17218   9.899   3.687   3.388  1.6024  0.1218  0.5378
  128MOL0     H17219   9.750   3.542   3.177  0.4536  0.7345 -0.9054
  128MOL0     H17220   9.677   3.689   3.214  0.6837  1.0094  1.5141
  128MOL0     H17221   9.696   3.610   3.479  1.1154  0.2309  0.3208
  128MOL0     H17222   9.567   3.550   3.373 -1.1962 -1.3682  0.3738
  128MOL0     H17223   9.684   3.334   3.347  0.6353 -0.0286  1.2957
  128MOL0     H17224   9.830   3.422   3.409  0.2986 -1.1715 -1.4807
  128MOL0     H17225   9.597   3.351   3.579 -0.3291  1.3088 -1.5542
  128MOL0     H17226   9.740   3.254   3.570  0.7646  0.9383  0.2509
  128MOL0     H17227   9.733   3.549   3.666 -1.9549  0.4017 -0.7196
  128MOL0     H17228   9.875   3.443   3.644  0.1679 -3.4095 -0.3741
  128MOL0     H17229   9.671   3.321   3.830  0.9775 -1.4533 -0.5923
  128MOL0     H17230   9.839   3.311   3.828 -0.6534 -1.1045 -3.3817
  128MOL0     H17231   9.551   3.582   3.853 -2.9237  0.4467  2.8610
  128MOL0     H17232   9.427   3.586   4.130  2.0860 -1.9265 -0.6340
  128MOL0     H17233   9.539   3.698   4.206 -0.9671 -0.5540  0.1733
  128MOL0     H17234   9.533   3.846   3.998 -2.9424  2.9991 -0.6914
  128MOL0     H17235   9.388   3.744   3.943 -2.3527  1.4504  1.2513
  128MOL0     H17236   9.439   3.917   4.185  0.9844 -1.5638  1.5263
  128MOL0     H17237   9.316   3.799   4.201 -1.2155  0.2433 -1.2494
  128MOL0     H17238   9.197   3.869   4.019  1.1155 -2.4788  0.9055
  128MOL0     H17239   9.298   4.005   3.980 -0.0505 -0.6732 -0.7142
  128MOL0     H17240   9.043   4.179   4.285 -0.0494 -0.7630 -0.9814
  128MOL0     H17241   9.105   4.404   4.381  1.0608  2.2169 -1.4527
  128MOL0     H17242   9.499   4.582   4.654 -2.7686  1.4335  1.6535
  128MOL0     H17243   9.588   4.785   4.748  2.9378 -1.7894 -0.5889
  128MOL0     H17244   9.847   4.950   4.557 -2.6095 -1.4960  0.0416
  128MOL0     H17245   9.791   5.047   4.419  1.0790 -1.4086  0.4141
  128MOL0     H17246   9.842   5.159   4.698  0.9078  2.0055  0.5707
  128MOL0     H17247   9.954   5.189   4.564 -0.3482 -1.3438 -3.5074
  128MOL0     H17248   9.665   5.293   4.573  0.6851  1.6367  0.0524
  128MOL0     H17249   9.827   5.383   4.582 -0.6764  0.8577 -0.5288
  128MOL0     H17250   9.693   5.247   4.353 -0.9433  0.4891 -0.2526
  128MOL0     H17251   9.860   5.317   4.350 -1.4177  0.7602 -2.1038
  128MOL0     H17252   9.733   5.546   4.413  0.3185 -1.1390  1.3387
  128MOL0     H17253   9.594   5.450   4.384  0.0735  1.1788 -0.4194
  128MOL0     H17254   9.799   5.507   4.164 -1.0519 -0.5401 -2.7069
  128MOL0     H17255   9.669   5.405   4.141  1.4630  1.8617 -4.2479
  128MOL0     H17256   9.665   5.634   4.065 -0.8327 -0.9519 -0.8271
  128MOL0     H17257   9.645   5.695   4.242  0.8514  0.2117  0.1376
  128MOL0     H17258   9.452   5.562   4.267 -0.1847 -1.3234  0.1637
  128MOL0     H17259   9.440   5.688   4.143  0.6271  0.2807  1.3393
  128MOL0     H17260   9.644   4.940   4.342  0.1231 -0.6218 -0.7143
  128MOL0     H17261   9.560   4.725   4.252  0.5838 -1.0022  0.3698
  128MOL0     H17262   9.499   4.366   4.216  0.6110 -1.5075  0.0997
  128MOL0     H17263   9.445   4.140   4.140 -2.6362 -3.7219 -1.6768
  128MOL0     H17264  10.172   3.458   3.128 -0.6941 -0.4179 -0.0940
  128MOL0     H17265  10.329   3.368   2.961 -0.4313 -2.1351 -1.6004
  128MOL0     H17266  10.340   3.213   2.497 -0.6749  0.5206 -3.2509
  128MOL0     H17267  10.436   3.162   2.293 -1.4936  0.6739 -0.1118
  128MOL0     H17268  10.791   3.064   2.244  1.3150  0.7536  1.9926
  128MOL0     H17269  10.886   3.207   2.271  1.1234  2.9723 -1.3713
  128MOL0     H17270  10.859   3.267   2.014 -2.4666 -1.4092 -0.9547
  128MOL0     H17271  10.782   3.101   2.010 -0.8700 -0.6726 -0.4658
  128MOL0     H17272  10.968   2.994   2.095 -0.2859 -0.4761 -1.1145
  128MOL0     H17273  11.051   3.154   2.118 -0.6474 -0.2590  0.4059
  128MOL0     H17274  10.949   3.052   1.854  0.9846  1.6540 -0.9082
  128MOL0     H17275  11.067   3.164   1.863 -1.7614  0.7370  0.4849
  128MOL0     H17276  11.258   2.775   1.880  3.4354  1.6912 -1.4139
  128MOL0     H17277  10.786   3.377   2.368  0.6968 -0.9727  0.7147
  128MOL0     H17278  10.775   3.564   2.523 -1.0778  0.9043 -1.5521
  128MOL0     H17279  10.620   3.623   2.565  2.8657  1.7186 -0.8925
  128MOL0     H17280  10.711   3.509   2.678 -1.8243 -2.4826  0.0160
  129MOL0     O17281   3.062  10.360   5.264 -0.0146 -0.3907 -0.0190
  129MOL0     C17282   3.177  10.323   5.301 -0.4393 -0.1878  0.3715
  129MOL0     O17283   3.207  10.203   5.358 -0.4358 -0.2351 -0.0027
  129MOL0     C17284   3.113  10.131   5.418 -0.7253  0.4254  0.4499
  129MOL0     C17285   3.002  10.086   5.341  1.0127 -0.7521 -0.5807
  129MOL0     C17286   2.897  10.012   5.401  0.7165 -0.4563 -0.7745
  129MOL0     C17287   2.885   9.999   5.538 -0.4067  0.0989  0.5399
  129MOL0     O17288   2.774   9.961   5.622 -0.0211  0.1772  0.4788
  129MOL0     C17289   2.656  10.023   5.581  0.2329  0.0329  0.2769
  129MOL0     C17290   2.547   9.938   5.643 -1.3106 -0.3981 -0.0252
  129MOL0     C17291   2.414   9.994   5.593  0.5182  0.1592  1.6470
  129MOL0     C17292   2.294   9.911   5.639  0.2897 -0.0552 -0.5123
  129MOL0     C17293   2.166   9.960   5.598  1.3120 -1.0422 -0.1674
  129MOL0     C17294   2.116  10.093   5.669 -0.5414 -0.6700 -0.6175
  129MOL0     C17295   2.096  10.070   5.828 -0.3716 -0.6710 -0.0502
  129MOL0     C17296   2.028  10.198   5.893  0.2689 -0.9059  1.1694
  129MOL0     N17297   1.888  10.192   5.879 -0.7137  0.4295  0.6423
  129MOL0     C17298   1.795  10.299   5.871 -0.0326  0.6003  0.4303
  129MOL0     C17299   1.673  10.233   5.836 -0.3879 -0.5166  0.1647
  129MOL0     C17300   1.546  10.317   5.808 -0.4013  0.4553 -0.0371
  129MOL0     C17301   1.539  10.349   5.662  0.6981  1.1228  0.9721
  129MOL0     C17302   1.420  10.447   5.632 -0.3415  0.6854  0.8059
  129MOL0     C17303   1.438  10.509   5.487  0.1644 -0.1256  0.7986
  129MOL0     O17304   1.323  10.585   5.441 -0.3756 -0.4727  0.2635
  129MOL0     C17305   1.337  10.638   5.316 -0.7629 -0.1371  0.2322
  129MOL0     C17306   1.251  10.746   5.275 -0.2253  0.9213  0.0486
  129MOL0     C17307   1.270  10.805   5.154  0.5688  0.8992  0.4043
  129MOL0     C17308   1.375  10.767   5.069 -0.0845  0.5401 -0.0682
  129MOL0     C17309   1.397  10.832   4.937 -0.9446 -0.2164 -0.0966
  129MOL0     O17310   1.279  10.862   4.877 -0.6483 -0.6993  0.5865
  129MOL0     C17311   1.274  10.947   4.765  0.2800 -0.0645 -0.5767
  129MOL0     C17312   1.152  10.982   4.725 -0.2481 -0.2199  0.2967
  129MOL0     C17313   1.118  11.059   4.606 -0.0569 -0.2436 -0.2854
  129MOL0     C17314   1.225  11.115   4.536 -0.1342 -0.4978 -0.4387
  129MOL0     O17315   1.211  11.189   4.423 -0.6548 -0.6156  0.2098
  129MOL0     C17316   1.113  11.152   4.320  0.8159  0.2556  0.1232
  129MOL0     C17317   1.179  11.157   4.181 -0.0728 -0.2363  0.4535
  129MOL0     C17318   1.193  11.302   4.134 -0.1902  0.1863  0.5848
  129MOL0     C17319   1.240  11.320   3.990  0.0323  0.4477  0.7543
  129MOL0     C17320   1.338  11.429   3.972  0.1034  0.6658 -0.7308
  129MOL0     C17321   1.408  11.421   3.835  0.8697 -0.9011 -0.5665
  129MOL0     C17322   1.318  11.462   3.710 -0.3195 -0.5816 -0.6532
  129MOL0     C17323   1.396  11.488   3.576  0.1075  0.0021 -0.4646
  129MOL0    Cl17324   1.483  11.332   3.531 -0.4202 -0.3938 -0.0189
  129MOL0     C17325   1.355  11.089   4.573  0.6832 -0.0083 -0.1285
  129MOL0     C17326   1.378  10.996   4.683 -0.8778 -0.1137 -0.1274
  129MOL0     O17327   1.512  10.850   4.908 -0.2193  0.1478  0.4902
  129MOL0     C17328   1.460  10.661   5.107 -0.0496 -0.5062  1.1410
  129MOL0     C17329   1.441  10.599   5.229  0.2579 -0.2944 -0.8092
  129MOL0     N17330   1.689  10.098   5.856  0.5252 -0.1851  0.5391
  129MOL0     N17331   1.812  10.076   5.879  0.2120 -0.2796  0.5493
  129MOL0     C17332   2.993  10.041   5.621  0.6322  0.0442 -0.5780
  129MOL0     C17333   3.104  10.103   5.558 -0.3496 -0.2787 -0.5863
  129MOL0     C17334   3.285  10.421   5.275  0.6459  0.2763  0.2534
  129MOL0     C17335   3.398  10.421   5.356 -0.3823 -0.9885  0.2155
  129MOL0     C17336   3.496  10.508   5.321  0.3959 -0.2045  0.5091
  129MOL0     C17337   3.487  10.598   5.219 -0.5545  0.3057 -0.2861
  129MOL0     O17338   3.579  10.691   5.182  0.4674  0.2529  1.0655
  129MOL0     C17339   3.695  10.711   5.268  0.0193 -0.1699 -0.2844
  129MOL0     C17340   3.678  10.828   5.363  0.2427  0.3783  0.8432
  129MOL0     C17341   3.814  10.877   5.428  0.1798 -0.9679  0.0749
  129MOL0     C17342   3.790  11.016   5.508  0.1201  0.0777  0.4982
  129MOL0     C17343   3.912  11.070   5.573  1.5778 -0.2022  0.9141
  129MOL0     C17344   4.007  11.130   5.609 -0.4079  1.2184  0.0240
  129MOL0     C17345   3.378  10.590   5.131  0.6759  1.5621  0.2022
  129MOL0     C17346   3.271  10.499   5.150 -0.6745  0.2460 -0.1099
  129MOL0     C17347   3.164  10.490   5.044 -0.0287  0.0399  0.5047
  129MOL0     H17348   2.994  10.092   5.233 -2.7485 -1.7011 -0.4883
  129MOL0     H17349   2.824   9.963   5.336 -2.8393 -1.1088  3.2848
  129MOL0     H17350   2.657  10.127   5.614 -1.8114 -0.2621  1.4488
  129MOL0     H17351   2.642  10.023   5.472  1.7839  0.8358  0.0455
  129MOL0     H17352   2.555   9.949   5.751  0.4080  1.0999 -0.2661
  129MOL0     H17353   2.559   9.833   5.615  0.4204 -0.1328 -0.3611
  129MOL0     H17354   2.392  10.008   5.487 -2.1558  1.2186  2.2717
  129MOL0     H17355   2.399  10.097   5.627 -0.3330  0.8634 -0.6860
  129MOL0     H17356   2.286   9.808   5.605 -1.6168 -0.4635  0.9645
  129MOL0     H17357   2.301   9.900   5.747  0.5106  1.2543 -0.3769
  129MOL0     H17358   2.157   9.977   5.490  1.4500 -0.5313 -0.1046
  129MOL0     H17359   2.091   9.884   5.618  1.2437 -1.3527 -1.5315
  129MOL0     H17360   2.188  10.173   5.650  0.5803 -2.2881 -3.8669
  129MOL0     H17361   2.024  10.128   5.622 -1.1245 -2.2711 -0.7484
  129MOL0     H17362   2.200  10.066   5.863  0.5753 -2.9892 -2.7582
  129MOL0     H17363   2.051   9.973   5.848 -0.9947  0.0686  2.4570
  129MOL0     H17364   2.053  10.226   5.995  0.1262 -1.0604  1.2465
  129MOL0     H17365   2.077  10.278   5.836  0.7544 -1.3857  0.9051
  129MOL0     H17366   1.799  10.407   5.880 -2.7844  0.5984  3.4019
  129MOL0     H17367   1.455  10.270   5.846 -0.2069  1.5625  1.9220
  129MOL0     H17368   1.558  10.410   5.865  0.9579  0.5157 -0.3968
  129MOL0     H17369   1.626  10.401   5.621  0.8439  0.5920  0.5839
  129MOL0     H17370   1.516  10.255   5.610 -0.3615  1.3127  1.0692
  129MOL0     H17371   1.413  10.532   5.700  0.2589  2.6469 -1.4326
  129MOL0     H17372   1.325  10.393   5.625  0.0712  0.0004  0.3583
  129MOL0     H17373   1.449  10.426   5.416 -3.3016  1.2121 -1.5864
  129MOL0     H17374   1.525  10.575   5.480 -0.9413  1.2089 -1.5516
  129MOL0     H17375   1.169  10.792   5.331  0.8445  1.8780  0.8918
  129MOL0     H17376   1.208  10.886   5.117 -0.8600 -1.2723 -2.3936
  129MOL0     H17377   1.061  10.939   4.766 -2.3832  2.3220 -1.4508
  129MOL0     H17378   1.014  11.065   4.575 -0.9524 -0.8946  2.3166
  129MOL0     H17379   1.072  11.054   4.349  4.6497 -1.4112  0.4804
  129MOL0     H17380   1.029  11.222   4.323  2.3003  2.1089  1.2796
  129MOL0     H17381   1.273  11.102   4.178  0.9977  1.4808 -2.6852
  129MOL0     H17382   1.108  11.109   4.113 -0.5196  0.7189  0.2232
  129MOL0     H17383   1.096  11.351   4.146  0.2133  1.1242  0.1340
  129MOL0     H17384   1.270  11.345   4.199 -0.0933 -3.1584  2.9758
  129MOL0     H17385   1.155  11.327   3.921  1.2154 -1.2136 -0.9737
  129MOL0     H17386   1.290  11.232   3.949 -3.6402 -0.5034 -2.2358
  129MOL0     H17387   1.412  11.426   4.052 -0.1365  1.4286 -0.4730
  129MOL0     H17388   1.289  11.527   3.966 -1.5534  0.0909  1.7898
  129MOL0     H17389   1.492  11.490   3.830  0.3233 -0.2796 -4.3798
  129MOL0     H17390   1.429  11.316   3.817 -0.3223 -1.5166  1.3627
  129MOL0     H17391   1.259  11.551   3.737  1.2327 -0.5678  3.1944
  129MOL0     H17392   1.244  11.386   3.685 -2.1653  2.0448 -4.2523
  129MOL0     H17393   1.334  11.528   3.495 -1.9416 -1.8509  0.0949
  129MOL0     H17394   1.472  11.564   3.596  0.2562  0.8123 -3.5305
  129MOL0     H17395   1.441  11.139   4.528  1.5656 -1.1707  0.2061
  129MOL0     H17396   1.484  10.980   4.701 -0.3609  2.3472 -0.6162
  129MOL0     H17397   1.545  10.637   5.044  0.3688  3.8913 -0.3149
  129MOL0     H17398   1.501  10.510   5.246 -0.4452 -0.2275  2.9036
  129MOL0     H17399   2.992  10.029   5.729  3.1017 -1.5380 -0.6548
  129MOL0     H17400   3.182  10.130   5.628 -2.4861  0.7112  1.5303
  129MOL0     H17401   3.414  10.353   5.438 -4.0155 -0.9136  1.1244
  129MOL0     H17402   3.582  10.487   5.384  0.3972 -3.2895 -0.3292
  129MOL0     H17403   3.782  10.736   5.206  0.3077  0.5508  0.3970
  129MOL0     H17404   3.732  10.623   5.323 -0.0118 -0.3721 -0.5829
  129MOL0     H17405   3.618  10.799   5.450 -2.4546 -0.0677 -1.0217
  129MOL0     H17406   3.621  10.900   5.303 -3.0903 -2.6008  0.0187
  129MOL0     H17407   3.877  10.890   5.339  1.1797 -2.1829  0.5918
  129MOL0     H17408   3.867  10.797   5.479  0.5000 -1.3767 -0.8764
  129MOL0     H17409   3.754  11.098   5.445 -0.6965 -0.2039  0.5963
  129MOL0     H17410   3.707  11.011   5.578 -0.2842  3.6396  0.4644
  129MOL0     H17411   4.096  11.179   5.643 -0.8032  1.5578  0.5840
  129MOL0     H17412   3.389  10.647   5.039  0.0800  0.1664 -0.7698
  129MOL0     H17413   3.079  10.548   5.079  0.4932  1.4622 -0.5103
  129MOL0     H17414   3.201  10.538   4.953  1.1689 -0.9118  0.4511
  129MOL0     H17415   3.134  10.386   5.028 -1.7341  0.4415  0.8668
  130MOL0     O17416  10.588   5.230   8.328 -0.3220 -0.1223  0.1690
  130MOL0     C17417  10.513   5.265   8.414  0.4949 -0.7978  0.1021
  130MOL0     O17418  10.449   5.186   8.495 -0.0035  0.0126 -0.2730
  130MOL0     C17419  10.453   5.054   8.473  0.3466 -0.2033 -0.0378
  130MOL0     C17420  10.327   5.002   8.423  0.6768 -0.8193  0.1359
  130MOL0     C17421  10.331   4.876   8.367  0.2517  0.6194 -1.1586
  130MOL0     C17422  10.449   4.797   8.374  0.0317 -0.4094  0.0967
  130MOL0     O17423  10.468   4.681   8.306 -0.4910  0.0150  0.3113
  130MOL0     C17424  10.379   4.579   8.320  0.2433 -0.3656 -0.6050
  130MOL0     C17425  10.449   4.460   8.381 -0.3535 -0.0819  0.1058
  130MOL0     C17426  10.526   4.482   8.515  0.0968  0.2874  0.8571
  130MOL0     C17427  10.445   4.512   8.641  0.0750  0.1660  0.9015
  130MOL0     C17428  10.516   4.482   8.777 -0.5172  0.9101  0.5821
  130MOL0     C17429  10.601   4.604   8.826  0.5015  0.5064 -0.0395
  130MOL0     C17430  10.509   4.719   8.876  0.4411 -0.4541  0.6986
  130MOL0     C17431  10.537   4.849   8.791  0.6832  0.8959 -0.4312
  130MOL0     N17432  10.668   4.906   8.808 -0.7162  0.0473 -0.6730
  130MOL0     C17433  10.767   4.879   8.727 -0.6860 -0.1477  0.0155
  130MOL0     C17434  10.880   4.938   8.788  0.8531  0.6271 -0.1370
  130MOL0     C17435  11.015   4.919   8.743  1.4834  0.2359 -0.2679
  130MOL0     C17436  11.080   5.054   8.723  0.2989 -0.1330 -0.1504
  130MOL0     C17437  11.148   5.109   8.847 -0.0845  1.0832  1.8310
  130MOL0     C17438  11.293   5.064   8.876 -0.0316 -0.1668  0.0357
  130MOL0     O17439  11.381   5.072   8.765  0.2685 -0.1339  0.0502
  130MOL0     C17440  11.410   4.963   8.681  0.1513  0.3862 -0.2038
  130MOL0     C17441  11.470   5.005   8.561 -0.2455  1.0824 -0.1892
  130MOL0     C17442  11.500   4.915   8.455 -0.4389  0.6858 -0.5330
  130MOL0     C17443  11.452   4.788   8.460  0.1540  0.3802  0.2753
  130MOL0     C17444  11.485   4.688   8.360 -0.6884  0.2543 -0.4890
  130MOL0     O17445  11.429   4.558   8.366  0.2170 -0.2885  0.7455
  130MOL0     C17446  11.491   4.467   8.288 -0.3642  0.7994 -0.3336
  130MOL0     C17447  11.627   4.420   8.311  0.6758  0.4139  0.5162
  130MOL0     C17448  11.676   4.336   8.214 -1.0461 -1.4930 -0.0273
  130MOL0     C17449  11.597   4.281   8.112 -0.4343  0.4529  0.0516
  130MOL0     O17450  11.655   4.204   8.017 -0.0569  0.5857 -0.3251
  130MOL0     C17451  11.581   4.092   7.959 -0.3937 -0.8442  0.7073
  130MOL0     C17452  11.677   3.998   7.897 -0.2762  0.3851 -0.4314
  130MOL0     C17453  11.609   3.879   7.825 -0.2197  1.0507 -0.5361
  130MOL0     C17454  11.532   3.926   7.697  0.0873 -0.2490  0.2339
  130MOL0     C17455  11.475   3.808   7.605 -1.0170 -0.2532  0.2127
  130MOL0     C17456  11.412   3.870   7.477 -0.5273  0.6981  0.1720
  130MOL0     C17457  11.296   3.972   7.516 -0.3414  0.0473  0.2825
  130MOL0     C17458  11.179   3.966   7.422 -0.7700  0.4983  0.2646
  130MOL0    Cl17459  11.064   4.074   7.480  0.0245  0.6354  0.2458
  130MOL0     C17460  11.464   4.330   8.096  0.8979  0.1410  0.3868
  130MOL0     C17461  11.415   4.412   8.188 -0.1852 -0.0098 -0.1036
  130MOL0     O17462  11.574   4.722   8.282  0.0322  0.2703 -0.8100
  130MOL0     C17463  11.393   4.750   8.580 -0.2468  1.2938  0.3351
  130MOL0     C17464  11.392   4.826   8.695  0.0053 -0.8742 -0.6226
  130MOL0     N17465  10.839   4.995   8.905  0.7651  0.1672 -0.9857
  130MOL0     N17466  10.705   4.974   8.914 -0.4341  0.2598 -1.1182
  130MOL0     C17467  10.565   4.844   8.438  0.0792  0.3194  0.1024
  130MOL0     C17468  10.569   4.977   8.479 -0.1740  0.0041 -0.3003
  130MOL0     C17469  10.486   5.412   8.411  0.6058 -0.8707 -0.1624
  130MOL0     C17470  10.375   5.457   8.486  0.4328 -0.6560 -0.4980
  130MOL0     C17471  10.341   5.594   8.484 -0.1617 -0.6120 -0.6315
  130MOL0     C17472  10.421   5.685   8.406 -1.4316 -0.3005 -0.2701
  130MOL0     O17473  10.381   5.812   8.382 -0.1862  0.1755  0.0190
  130MOL0     C17474  10.287   5.886   8.462  1.2183  0.2170  0.3332
  130MOL0     C17475  10.214   5.987   8.372 -0.4298  0.1386  1.4510
  130MOL0     C17476  10.111   6.071   8.457 -0.5046  0.0687  0.1446
  130MOL0     C17477  10.037   6.176   8.373 -0.2208 -0.1493 -0.3259
  130MOL0     C17478   9.970   6.277   8.453  0.3910  0.6093 -0.5849
  130MOL0     C17479   9.909   6.357   8.528  0.1706  0.5425 -0.3028
  130MOL0     C17480  10.516   5.635   8.325  0.4005  0.4707  0.2540
  130MOL0     C17481  10.557   5.502   8.337  0.6066 -1.2430  0.6396
  130MOL0     C17482  10.685   5.474   8.256  1.2703 -0.0161  0.7707
  130MOL0     H17483  10.228   5.045   8.425  0.9387 -0.1839  3.0334
  130MOL0     H17484  10.252   4.839   8.302  0.6470  0.9336 -1.8211
  130MOL0     H17485  10.288   4.602   8.377  0.7783 -3.1359  1.6072
  130MOL0     H17486  10.341   4.541   8.225  0.8523 -1.0453 -0.5877
  130MOL0     H17487  10.530   4.422   8.319  0.0724  0.0628  0.5613
  130MOL0     H17488  10.371   4.385   8.399  1.1871 -1.5925  0.7973
  130MOL0     H17489  10.589   4.567   8.486  0.2386 -0.4294 -1.0944
  130MOL0     H17490  10.596   4.399   8.530 -0.4677  0.2302  3.6869
  130MOL0     H17491  10.409   4.615   8.640 -0.5514 -0.0455  0.8917
  130MOL0     H17492  10.357   4.447   8.633  0.7318 -0.5074 -2.6793
  130MOL0     H17493  10.435   4.473   8.850  1.0282  2.3427  2.5800
  130MOL0     H17494  10.575   4.390   8.772 -1.0669  0.6046 -1.0292
  130MOL0     H17495  10.666   4.573   8.908 -0.3149 -0.3526  0.3149
  130MOL0     H17496  10.666   4.632   8.742  2.0573  1.8380  1.5342
  130MOL0     H17497  10.543   4.733   8.979  3.3943 -0.4158 -0.1747
  130MOL0     H17498  10.405   4.688   8.870  0.5609 -0.8112  0.4253
  130MOL0     H17499  10.523   4.824   8.686 -3.5093  2.4770 -0.4326
  130MOL0     H17500  10.463   4.925   8.821 -0.1086 -0.1426  0.3576
  130MOL0     H17501  10.777   4.804   8.649 -0.9141  1.0381 -1.1929
  130MOL0     H17502  11.069   4.867   8.822 -0.0751  0.3206  0.9197
  130MOL0     H17503  11.006   4.865   8.648  1.4982  2.3997 -1.5654
  130MOL0     H17504  11.152   5.048   8.641 -3.0180  1.3842 -3.5198
  130MOL0     H17505  11.010   5.123   8.674  0.1671  0.9946  1.5497
  130MOL0     H17506  11.087   5.093   8.936  3.2957  0.7337  4.3019
  130MOL0     H17507  11.152   5.218   8.842  1.5058  1.0955  2.6434
  130MOL0     H17508  11.290   4.968   8.927 -1.4360  0.2488  0.7841
  130MOL0     H17509  11.321   5.137   8.953  0.7081 -2.2087  1.8012
  130MOL0     H17510  11.500   5.109   8.565 -0.2425  1.0802 -0.1552
  130MOL0     H17511  11.558   4.958   8.374  3.5136 -0.0331  1.6910
  130MOL0     H17512  11.683   4.457   8.397  1.4279  2.6547 -0.8627
  130MOL0     H17513  11.777   4.297   8.217  0.0154  0.9762 -1.2929
  130MOL0     H17514  11.530   4.027   8.031 -0.2565 -0.4080  1.2039
  130MOL0     H17515  11.523   4.133   7.875 -2.9900 -0.0621  2.7392
  130MOL0     H17516  11.735   4.057   7.826 -1.9050  1.7583 -0.6789
  130MOL0     H17517  11.737   3.957   7.979 -0.1390 -1.3224 -1.3307
  130MOL0     H17518  11.689   3.807   7.805 -0.1985  0.2068  2.1842
  130MOL0     H17519  11.536   3.826   7.887 -1.2605  0.3997 -2.2443
  130MOL0     H17520  11.604   3.993   7.650 -0.3338 -1.0794 -1.7129
  130MOL0     H17521  11.448   3.985   7.733 -2.7504 -2.9466 -1.4522
  130MOL0     H17522  11.403   3.750   7.663 -1.0369  0.3283  0.7891
  130MOL0     H17523  11.557   3.737   7.594 -0.3539  0.4449  0.5343
  130MOL0     H17524  11.490   3.922   7.422  0.3990 -2.0308 -1.2879
  130MOL0     H17525  11.363   3.794   7.415  0.9487  1.1739 -1.6685
  130MOL0     H17526  11.342   4.072   7.512  1.7135 -0.8688 -1.8950
  130MOL0     H17527  11.260   3.956   7.618 -0.3120  1.5782  0.5587
  130MOL0     H17528  11.200   3.997   7.319 -1.2901 -1.6673 -0.5359
  130MOL0     H17529  11.142   3.863   7.419 -1.1802  0.6528 -0.1798
  130MOL0     H17530  11.410   4.296   8.009  1.5983 -0.4428  0.1790
  130MOL0     H17531  11.321   4.463   8.172 -0.2588 -0.7301 -2.3037
  130MOL0     H17532  11.348   4.652   8.584 -0.1742  1.2435 -0.0119
  130MOL0     H17533  11.358   4.786   8.789  1.2180  1.5624  0.9651
  130MOL0     H17534  10.651   4.781   8.419 -1.1448 -2.7160  3.4056
  130MOL0     H17535  10.669   5.004   8.509 -0.3251 -0.1390  0.3519
  130MOL0     H17536  10.307   5.397   8.547 -1.4876  1.3485 -0.5647
  130MOL0     H17537  10.261   5.635   8.545  2.2487  2.5685  0.7347
  130MOL0     H17538  10.350   5.931   8.540 -0.6165  0.1638  1.9049
  130MOL0     H17539  10.208   5.833   8.516  0.4068  0.0822 -0.9402
  130MOL0     H17540  10.163   5.946   8.284  1.5517  2.2787 -0.8814
  130MOL0     H17541  10.285   6.047   8.312 -2.1952  0.4453 -0.4510
  130MOL0     H17542  10.158   6.141   8.527  3.6164 -0.1264 -2.0944
  130MOL0     H17543  10.050   5.999   8.513  0.6974 -1.4212 -0.3898
  130MOL0     H17544  10.104   6.230   8.306  0.5881  0.1778  0.7169
  130MOL0     H17545   9.964   6.129   8.306 -2.6022  0.1010  1.9200
  130MOL0     H17546   9.868   6.414   8.609  0.0888 -3.6165  2.9022
  130MOL0     H17547  10.555   5.695   8.243 -2.8991 -1.9168 -3.4453
  130MOL0     H17548  10.742   5.390   8.298 -0.4859 -1.5766  0.1637
  130MOL0     H17549  10.651   5.437   8.159 -0.7403  1.3087  0.9034
  130MOL0     H17550  10.748   5.562   8.240 -0.8418  1.7160  1.5672
  131MOL0     O17551   7.316   3.386  11.505  0.4399 -0.4378  0.0340
  131MOL0     C17552   7.396   3.309  11.447 -0.1984 -0.0420  0.6336
  131MOL0     O17553   7.439   3.319  11.319  0.5745 -0.2303 -1.0580
  131MOL0     C17554   7.389   3.404  11.218 -0.4416 -0.4585  0.1127
  131MOL0     C17555   7.278   3.483  11.229 -0.1435 -0.3922 -0.1033
  131MOL0     C17556   7.246   3.583  11.139 -0.4460 -0.7305  0.7569
  131MOL0     C17557   7.323   3.593  11.016  0.3234 -0.8435 -0.6347
  131MOL0     O17558   7.294   3.695  10.929 -0.1524  0.6874 -0.3696
  131MOL0     C17559   7.390   3.731  10.830 -0.2112 -0.5358 -0.3261
  131MOL0     C17560   7.332   3.871  10.761 -0.0006  0.2199 -0.3352
  131MOL0     C17561   7.442   3.947  10.690 -0.1303  0.0231 -0.2569
  131MOL0     C17562   7.498   3.869  10.570  0.1921  0.3205  0.6510
  131MOL0     C17563   7.585   3.962  10.473  0.4863 -0.4661  0.1150
  131MOL0     C17564   7.698   4.049  10.535  0.3083  1.4545  0.1633
  131MOL0     C17565   7.738   4.155  10.444 -1.2514  0.2527  0.1852
  131MOL0     C17566   7.867   4.209  10.497 -0.4036 -0.5813  0.1467
  131MOL0     N17567   7.877   4.351  10.474  0.5202 -1.1150  0.2895
  131MOL0     C17568   7.809   4.467  10.522 -0.1723  0.3521 -1.2250
  131MOL0     C17569   7.879   4.569  10.468 -0.4732  0.4242  0.6709
  131MOL0     C17570   7.820   4.712  10.462  0.2269  0.0453  0.1292
  131MOL0     C17571   7.727   4.733  10.349 -0.7566  1.3589  0.9116
  131MOL0     C17572   7.651   4.868  10.338 -0.4391  0.4912  0.8273
  131MOL0     C17573   7.582   4.909  10.464 -0.9508 -0.4406 -0.2593
  131MOL0     O17574   7.521   5.032  10.443  0.7255 -0.6389 -0.4119
  131MOL0     C17575   7.395   5.048  10.388  0.6769 -0.4304  1.2986
  131MOL0     C17576   7.307   4.941  10.363 -0.1742 -0.0345  1.1771
  131MOL0     C17577   7.183   4.963  10.298 -0.3089 -0.9177  0.0943
  131MOL0     C17578   7.149   5.098  10.265  0.2886  0.4837 -0.2395
  131MOL0     C17579   7.020   5.114  10.192  0.2932  0.3489  0.2146
  131MOL0     O17580   6.914   5.040  10.217 -0.2327 -0.0581  0.3709
  131MOL0     C17581   6.817   5.028  10.119  1.0076  0.1473  1.0458
  131MOL0     C17582   6.798   4.910  10.048 -0.4283 -0.3228 -0.0291
  131MOL0     C17583   6.682   4.882   9.969  0.6443  0.6296 -0.2521
  131MOL0     C17584   6.585   4.981   9.958  1.0105  0.3081  0.5862
  131MOL0     O17585   6.469   4.957   9.881  0.5462 -0.1427 -0.1486
  131MOL0     C17586   6.400   5.071   9.837 -0.0167 -0.5186  0.0896
  131MOL0     C17587   6.284   5.021   9.742  0.5499  1.0588 -1.1155
  131MOL0     C17588   6.359   4.993   9.610  0.0156 -0.8315 -0.6231
  131MOL0     C17589   6.269   4.966   9.493  0.8896 -0.0845 -0.0700
  131MOL0     C17590   6.168   4.847   9.501 -0.5523 -0.3923 -0.9545
  131MOL0     C17591   6.090   4.845   9.367 -0.5515 -0.6883  0.2356
  131MOL0     C17592   5.951   4.920   9.379 -0.2783 -0.9011  0.1204
  131MOL0     C17593   5.871   4.919   9.244 -0.6248  0.9488 -0.0250
  131MOL0    Cl17594   5.946   5.037   9.133  0.3391 -0.0366  0.0193
  131MOL0     C17595   6.599   5.100  10.026 -0.0408  0.0099  0.1939
  131MOL0     C17596   6.716   5.129  10.100 -0.0802  0.1338  0.2378
  131MOL0     O17597   7.034   5.183  10.085 -0.2306  0.6729 -0.4549
  131MOL0     C17598   7.231   5.204  10.289  0.1846  1.3381 -0.9217
  131MOL0     C17599   7.348   5.176  10.359  0.4707 -1.3730 -0.1391
  131MOL0     N17600   7.989   4.515  10.404 -0.8777 -0.1945  0.7149
  131MOL0     N17601   7.980   4.393  10.404 -0.1244  0.4250 -0.5903
  131MOL0     C17602   7.425   3.500  10.991  0.9099  0.1926 -0.7764
  131MOL0     C17603   7.449   3.413  11.096 -0.7830 -0.5050  0.9619
  131MOL0     C17604   7.463   3.210  11.542  0.1798 -0.0841 -0.8229
  131MOL0     C17605   7.399   3.171  11.662  0.3245  0.2278  0.3886
  131MOL0     C17606   7.444   3.061  11.733 -0.0900 -1.3366  0.0239
  131MOL0     C17607   7.548   2.980  11.687  0.2714 -0.8922  0.5319
  131MOL0     O17608   7.594   2.873  11.747  1.1797 -0.8252 -0.2477
  131MOL0     C17609   7.500   2.766  11.768  0.6331  0.2707 -0.4061
  131MOL0     C17610   7.473   2.691  11.639  0.1992  0.1878 -0.5461
  131MOL0     C17611   7.588   2.589  11.612  0.7393 -0.0643  0.1341
  131MOL0     C17612   7.567   2.531  11.471  1.2747  0.1726  0.6254
  131MOL0     C17613   7.572   2.627  11.353 -0.0562 -0.1632 -0.3350
  131MOL0     C17614   7.571   2.713  11.277  0.0957  0.2269  0.5564
  131MOL0     C17615   7.625   3.033  11.580 -0.3156 -0.2223 -0.4004
  131MOL0     C17616   7.577   3.142  11.508  0.3379 -0.1228  0.0894
  131MOL0     C17617   7.659   3.179  11.391 -0.1789 -0.1193  0.5627
  131MOL0     H17618   7.225   3.493  11.323 -1.2184  1.6573 -0.8637
  131MOL0     H17619   7.164   3.649  11.166  0.1406 -0.5426  2.1826
  131MOL0     H17620   7.477   3.773  10.882  0.5625 -1.1894 -1.0712
  131MOL0     H17621   7.430   3.648  10.772 -0.6719 -1.1369  0.2011
  131MOL0     H17622   7.299   3.938  10.842 -0.4681 -2.1454  1.5326
  131MOL0     H17623   7.250   3.862  10.690 -0.4631  0.0724  0.2140
  131MOL0     H17624   7.525   3.945  10.761 -1.6667 -2.9066  1.6705
  131MOL0     H17625   7.413   4.047  10.657  5.0407  1.2069 -2.0289
  131MOL0     H17626   7.561   3.789  10.610 -0.7027 -1.4614 -1.3477
  131MOL0     H17627   7.422   3.821  10.508  0.0288  2.0206 -0.5374
  131MOL0     H17628   7.629   3.891  10.402 -0.9800 -1.7603  0.4242
  131MOL0     H17629   7.514   4.029  10.423  0.8172  2.8412  3.6302
  131MOL0     H17630   7.680   4.081  10.638 -1.5316  1.8498 -0.2342
  131MOL0     H17631   7.785   3.984  10.527 -0.2461  0.8212 -1.0728
  131MOL0     H17632   7.662   4.232  10.455 -1.3988  0.3117 -1.0348
  131MOL0     H17633   7.745   4.119  10.340 -1.2604 -2.6218  1.1041
  131MOL0     H17634   7.891   4.193  10.603 -1.2775 -0.0576  0.4402
  131MOL0     H17635   7.956   4.167  10.450  1.8377  3.0350  0.7458
  131MOL0     H17636   7.719   4.470  10.584 -0.2260 -0.1847 -1.2692
  131MOL0     H17637   7.767   4.727  10.556 -0.4750 -0.9166 -0.0904
  131MOL0     H17638   7.901   4.784  10.447  0.1119  0.5311  1.7392
  131MOL0     H17639   7.776   4.701  10.257 -1.8596 -1.5444  1.2535
  131MOL0     H17640   7.643   4.664  10.364 -1.8460  2.8425  2.0844
  131MOL0     H17641   7.566   4.850  10.271 -1.9381 -0.2939  2.8324
  131MOL0     H17642   7.716   4.944  10.295 -0.1871 -0.7768 -1.1625
  131MOL0     H17643   7.659   4.925  10.540 -0.0421  1.2480 -1.4775
  131MOL0     H17644   7.510   4.832  10.492 -0.2300 -0.6366  1.1445
  131MOL0     H17645   7.326   4.842  10.403  0.4657  0.0541  1.1009
  131MOL0     H17646   7.110   4.890  10.266  0.0406 -1.3454  0.2742
  131MOL0     H17647   6.873   4.832  10.055 -0.0491  0.0836  0.4316
  131MOL0     H17648   6.667   4.785   9.923  1.8814 -2.1862  4.5572
  131MOL0     H17649   6.353   5.113   9.926  0.2384  0.5221 -0.2586
  131MOL0     H17650   6.459   5.150   9.790 -2.0388  1.9092  1.4012
  131MOL0     H17651   6.238   4.926   9.772  0.4807  0.8011 -1.9889
  131MOL0     H17652   6.210   5.100   9.733  0.4148  1.0511 -0.1470
  131MOL0     H17653   6.426   5.076   9.586 -1.7437  1.2053  1.0676
  131MOL0     H17654   6.436   4.916   9.623  0.7601  0.1837  1.4008
  131MOL0     H17655   6.324   4.955   9.399  0.5433  0.1908 -0.3085
  131MOL0     H17656   6.218   5.062   9.480  3.5655  1.5473  0.8161
  131MOL0     H17657   6.107   4.848   9.592 -1.4708 -1.4515 -1.5367
  131MOL0     H17658   6.232   4.759   9.513 -1.5829 -0.7478  4.2538
  131MOL0     H17659   6.157   4.883   9.289  0.6133 -2.5194  0.2797
  131MOL0     H17660   6.079   4.737   9.351 -2.1132 -0.3565 -1.2488
  131MOL0     H17661   5.983   5.019   9.410 -0.0410 -1.3910  1.5035
  131MOL0     H17662   5.895   4.873   9.461  2.0686 -4.0223  0.1420
  131MOL0     H17663   5.866   4.815   9.209  0.1498  1.0663 -0.5152
  131MOL0     H17664   5.763   4.939   9.246 -0.3713  3.2865 -2.8692
  131MOL0     H17665   6.521   5.174  10.038  0.2912  0.6420 -1.3401
  131MOL0     H17666   6.744   5.220  10.150 -0.1817  0.6267 -0.5790
  131MOL0     H17667   7.201   5.307  10.278  1.5851  2.1487  1.9170
  131MOL0     H17668   7.401   5.264  10.394 -2.7116  0.1859  1.1312
  131MOL0     H17669   7.487   3.495  10.902 -0.0812 -2.6282 -1.4113
  131MOL0     H17670   7.521   3.334  11.080  0.2471  0.7612 -1.1372
  131MOL0     H17671   7.312   3.228  11.696  0.4186  0.2173  0.6467
  131MOL0     H17672   7.391   3.041  11.826  1.3587  0.3872  1.2990
  131MOL0     H17673   7.402   2.806  11.798 -1.3133  2.4433 -7.6889
  131MOL0     H17674   7.531   2.684  11.834 -0.9495 -1.6242 -1.8867
  131MOL0     H17675   7.461   2.766  11.560  2.8393  1.6610  0.3249
  131MOL0     H17676   7.374   2.644  11.640  0.4267 -0.4149 -2.4307
  131MOL0     H17677   7.568   2.511  11.686  1.4348  1.4971  2.0661
  131MOL0     H17678   7.690   2.628  11.623  0.5966  0.2499  0.3620
  131MOL0     H17679   7.628   2.442  11.458  2.3130  0.9783 -0.2694
  131MOL0     H17680   7.464   2.492  11.470  0.5709  1.8714 -1.3118
  131MOL0     H17681   7.560   2.782  11.196  0.6717 -0.4432 -0.1071
  131MOL0     H17682   7.711   2.970  11.558 -1.0551 -0.7505 -1.8426
  131MOL0     H17683   7.670   3.288  11.401  2.8572 -0.5032  2.8195
  131MOL0     H17684   7.757   3.131  11.382 -1.7675 -3.3070 -1.6622
  131MOL0     H17685   7.615   3.152  11.294  2.2231  0.0172 -0.6441
  132MOL0     O17686  11.512   6.024   5.811 -0.6228 -1.5391 -0.7589
  132MOL0     C17687  11.602   6.001   5.737  0.9280  1.1356 -0.0375
  132MOL0     O17688  11.630   5.869   5.696 -0.5203  0.2020  0.7890
  132MOL0     C17689  11.553   5.769   5.736 -0.1086  0.0299 -0.4238
  132MOL0     C17690  11.425   5.755   5.672 -0.3403  0.1425 -1.0713
  132MOL0     C17691  11.352   5.649   5.726 -1.4311 -0.2551  1.5650
  132MOL0     C17692  11.376   5.585   5.843 -0.1048  1.3024 -0.4335
  132MOL0     O17693  11.277   5.500   5.892 -0.2206  0.3332  0.2233
  132MOL0     C17694  11.312   5.417   5.999  0.2912 -0.1026  0.0875
  132MOL0     C17695  11.205   5.302   6.012  0.3501  0.6387  0.0996
  132MOL0     C17696  11.254   5.195   6.121  0.0455 -0.4644  0.7056
  132MOL0     C17697  11.166   5.075   6.085  0.0060 -0.2386 -0.1645
  132MOL0     C17698  11.200   4.968   6.188  0.0340 -0.4246  0.2714
  132MOL0     C17699  11.137   4.831   6.136  0.0159 -0.4631 -0.3412
  132MOL0     C17700  10.993   4.822   6.192 -0.8436 -0.3661 -0.5603
  132MOL0     C17701  10.920   4.683   6.167 -0.0800 -0.2827  0.7989
  132MOL0     N17702  10.984   4.579   6.248 -0.3324 -0.7187  0.4105
  132MOL0     C17703  11.047   4.468   6.188  0.3060 -0.2455 -0.8746
  132MOL0     C17704  11.042   4.376   6.293 -0.4029 -0.6604  0.3132
  132MOL0     C17705  11.090   4.226   6.301  0.6157 -0.2382 -0.0801
  132MOL0     C17706  11.186   4.196   6.420 -0.6965 -0.5672 -0.3945
  132MOL0     C17707  11.213   4.036   6.454  0.2206  0.2069 -0.4666
  132MOL0     C17708  11.282   3.962   6.329  0.3790  0.2312  0.4244
  132MOL0     O17709  11.192   3.926   6.217 -0.1364  0.0866 -0.2305
  132MOL0     C17710  11.095   3.820   6.225 -0.4539  0.0619  0.1196
  132MOL0     C17711  10.977   3.838   6.148  0.3965 -0.0906  0.1075
  132MOL0     C17712  10.867   3.758   6.170 -0.0766 -0.3470 -1.2799
  132MOL0     C17713  10.869   3.641   6.259 -1.5355 -0.1705  0.8060
  132MOL0     C17714  10.749   3.547   6.277 -0.4876  0.0635  0.3427
  132MOL0     O17715  10.654   3.581   6.194 -0.0818 -0.0007  0.6407
  132MOL0     C17716  10.526   3.567   6.235  0.3276 -0.3109 -0.5122
  132MOL0     C17717  10.431   3.558   6.125 -0.5562  0.0308  0.9944
  132MOL0     C17718  10.296   3.569   6.156  0.1820 -0.1631 -0.4361
  132MOL0     C17719  10.247   3.579   6.285 -0.1431 -0.6991 -0.0244
  132MOL0     O17720  10.117   3.591   6.320  0.0698  0.3793  0.2578
  132MOL0     C17721  10.063   3.711   6.372  0.6922 -0.6857  0.5571
  132MOL0     C17722  10.058   3.821   6.274  0.4079  0.2321  0.2867
  132MOL0     C17723   9.976   3.939   6.345  0.0636 -0.0485 -0.4144
  132MOL0     C17724   9.970   4.067   6.254 -1.0135 -0.2701  0.6335
  132MOL0     C17725   9.896   4.185   6.343  0.3557 -0.1727 -0.5477
  132MOL0     C17726   9.748   4.165   6.377 -0.9477  0.7560  0.5424
  132MOL0     C17727   9.689   4.301   6.394  1.9597  0.3194  0.1988
  132MOL0     C17728   9.746   4.384   6.518  0.0407  0.9023  0.6228
  132MOL0    Cl17729   9.601   4.417   6.626 -0.2129 -0.2066  0.1524
  132MOL0     C17730  10.340   3.598   6.388 -0.3056  0.4915 -0.9066
  132MOL0     C17731  10.478   3.586   6.363 -0.2443  0.6756 -0.1679
  132MOL0     O17732  10.740   3.466   6.364  0.5837  0.1106 -0.0491
  132MOL0     C17733  11.000   3.621   6.325  0.3231 -0.0283  0.8466
  132MOL0     C17734  11.101   3.715   6.312 -0.3621  0.4576 -0.5474
  132MOL0     N17735  10.984   4.433   6.397  0.4286  0.3274  0.1910
  132MOL0     N17736  10.962   4.558   6.377  0.3780 -0.9106  0.9042
  132MOL0     C17737  11.503   5.607   5.909  0.0819 -0.8877  0.2202
  132MOL0     C17738  11.591   5.698   5.847  0.1140  0.6207  0.2341
  132MOL0     C17739  11.686   6.105   5.698 -0.0992 -1.3878  0.4240
  132MOL0     C17740  11.742   6.194   5.792  1.1552  0.1556  0.3954
  132MOL0     C17741  11.821   6.298   5.756 -0.5195 -0.4307 -0.4402
  132MOL0     C17742  11.877   6.306   5.627  0.5756  0.2773  0.2203
  132MOL0     O17743  11.980   6.390   5.588  0.3016 -0.2522  0.2174
  132MOL0     C17744  12.046   6.474   5.680 -0.2744  0.7085  0.2651
  132MOL0     C17745  12.180   6.515   5.622  0.3157  1.0794 -0.5881
  132MOL0     C17746  12.181   6.597   5.498  0.4724 -0.5022  1.3530
  132MOL0     C17747  12.279   6.713   5.488  0.1407  0.0610  0.0427
  132MOL0     C17748  12.230   6.826   5.398 -0.7253  0.0340  0.1605
  132MOL0     C17749  12.201   6.912   5.319  0.1705 -0.4680 -0.2517
  132MOL0     C17750  11.835   6.215   5.538  0.4210 -0.2957 -0.3588
  132MOL0     C17751  11.740   6.113   5.569 -0.1613  0.3097 -0.0949
  132MOL0     C17752  11.695   6.031   5.455  0.5603  0.4891  0.2183
  132MOL0     H17753  11.393   5.796   5.577 -2.2834 -1.1182 -1.0190
  132MOL0     H17754  11.257   5.629   5.678 -0.0397  0.4974 -1.7564
  132MOL0     H17755  11.412   5.372   5.994  1.2475  1.7505  1.4634
  132MOL0     H17756  11.331   5.485   6.082  3.4405  1.6528 -1.8588
  132MOL0     H17757  11.177   5.255   5.917 -3.2981 -1.7399  2.1216
  132MOL0     H17758  11.104   5.336   6.036 -1.1579 -0.7298 -3.5539
  132MOL0     H17759  11.232   5.234   6.220  3.3087  0.6664  1.1005
  132MOL0     H17760  11.361   5.170   6.116  0.7012  2.0299  0.9643
  132MOL0     H17761  11.059   5.095   6.100  0.1419 -0.6062  1.3965
  132MOL0     H17762  11.180   5.046   5.980 -0.3300 -0.9368 -0.0191
  132MOL0     H17763  11.308   4.950   6.178 -0.1160  0.0034 -3.4524
  132MOL0     H17764  11.165   4.993   6.288 -0.5390 -1.9073  0.4645
  132MOL0     H17765  11.127   4.828   6.027  1.0815 -2.2552 -0.4455
  132MOL0     H17766  11.209   4.754   6.166 -0.7335 -0.9534  0.2378
  132MOL0     H17767  10.937   4.904   6.145  1.9831  1.3174 -1.2329
  132MOL0     H17768  10.995   4.852   6.297  3.1114  1.7705 -1.0534
  132MOL0     H17769  10.812   4.677   6.183 -0.4536 -2.8869 -1.9482
  132MOL0     H17770  10.923   4.657   6.061 -1.5554  1.0672  0.3819
  132MOL0     H17771  11.081   4.450   6.087 -1.8368 -1.8174 -1.3841
  132MOL0     H17772  11.000   4.165   6.313  0.8266 -1.2460 -2.9156
  132MOL0     H17773  11.129   4.203   6.201 -0.2369 -2.7240  0.0903
  132MOL0     H17774  11.281   4.250   6.418 -0.7453 -0.4002  0.7287
  132MOL0     H17775  11.143   4.247   6.507 -0.7749  0.9729 -1.2973
  132MOL0     H17776  11.119   3.985   6.475  2.4745 -4.3395 -0.2462
  132MOL0     H17777  11.274   4.031   6.545 -2.8833 -0.6936  1.7335
  132MOL0     H17778  11.341   3.875   6.361  1.4734  0.9620  0.4373
  132MOL0     H17779  11.355   4.037   6.297  1.7817  0.5395  3.9176
  132MOL0     H17780  10.971   3.926   6.084 -3.0379  0.8396  1.4951
  132MOL0     H17781  10.777   3.793   6.121 -1.0267  1.6744  1.6226
  132MOL0     H17782  10.466   3.547   6.023  1.2376  2.7531  1.2105
  132MOL0     H17783  10.231   3.583   6.070  2.8468  2.9808 -2.1834
  132MOL0     H17784   9.965   3.690   6.416 -0.8785  2.7137 -1.0052
  132MOL0     H17785  10.115   3.748   6.461  3.4387 -0.6082 -0.9753
  132MOL0     H17786  10.159   3.861   6.264  2.0791 -2.3735  4.1222
  132MOL0     H17787  10.015   3.778   6.183 -1.2221 -0.3922  1.3077
  132MOL0     H17788   9.874   3.904   6.363  0.8888 -1.6393  1.4822
  132MOL0     H17789  10.023   3.965   6.441  1.1202 -1.1150 -0.6239
  132MOL0     H17790   9.908   4.047   6.166  0.3740  0.9634 -0.6838
  132MOL0     H17791  10.069   4.097   6.218 -0.8077  0.6003  1.8652
  132MOL0     H17792   9.911   4.278   6.286  0.5818  1.5096  2.0784
  132MOL0     H17793   9.957   4.201   6.433 -0.9263 -2.4586  0.7982
  132MOL0     H17794   9.709   4.117   6.286 -0.1141 -0.1754  0.6659
  132MOL0     H17795   9.738   4.105   6.467 -0.9992 -2.8970 -1.6948
  132MOL0     H17796   9.584   4.281   6.416  2.1430 -1.2630 -0.2355
  132MOL0     H17797   9.709   4.362   6.306  1.4061 -0.1979 -0.2904
  132MOL0     H17798   9.803   4.312   6.577 -1.8239  0.0783  1.4959
  132MOL0     H17799   9.814   4.463   6.484  3.4625  0.2767  5.0837
  132MOL0     H17800  10.318   3.602   6.494  0.6298 -1.9733 -0.5454
  132MOL0     H17801  10.542   3.598   6.451 -3.0723 -1.1259  2.3253
  132MOL0     H17802  11.003   3.549   6.407  0.2732 -1.3787 -0.2954
  132MOL0     H17803  11.188   3.689   6.372 -1.5507 -0.7606  0.7327
  132MOL0     H17804  11.526   5.564   6.007 -1.4708  2.0290  2.0065
  132MOL0     H17805  11.695   5.703   5.879  0.0759 -2.0877  1.0348
  132MOL0     H17806  11.701   6.198   5.892  0.8316 -4.7035  0.6740
  132MOL0     H17807  11.850   6.370   5.831 -1.7127  0.3947 -0.7445
  132MOL0     H17808  12.056   6.414   5.770 -0.7134 -1.2815 -0.9462
  132MOL0     H17809  11.982   6.559   5.708 -2.6225 -1.8154  3.3462
  132MOL0     H17810  12.242   6.426   5.608  1.6131  1.4406  2.2108
  132MOL0     H17811  12.226   6.580   5.697 -0.7163  3.5715 -1.9759
  132MOL0     H17812  12.082   6.641   5.486  0.4099 -0.8759  0.4769
  132MOL0     H17813  12.205   6.530   5.416 -1.9748 -0.5492  0.6212
  132MOL0     H17814  12.299   6.747   5.590  1.3128 -0.8703  0.1276
  132MOL0     H17815  12.377   6.684   5.449 -0.5694 -0.2817 -1.5945
  132MOL0     H17816  12.178   6.986   5.245 -0.1149 -0.7439 -0.4403
  132MOL0     H17817  11.885   6.205   5.442  1.0117 -0.6523 -0.0176
  132MOL0     H17818  11.695   6.093   5.365  1.5839 -1.0222 -0.8777
  132MOL0     H17819  11.764   5.947   5.445 -0.2903 -0.1435 -0.4687
  132MOL0     H17820  11.593   5.995   5.471  0.6329 -0.1327 -0.6629
  133MOL0     O17821   8.042   8.729   0.679  0.0234  0.0746  0.2405
  133MOL0     C17822   8.010   8.738   0.794 -0.4001 -0.5629 -0.2336
  133MOL0     O17823   7.896   8.698   0.845  0.3822  0.3626  0.0654
  133MOL0     C17824   7.802   8.647   0.764 -0.1895  0.1228  0.3002
  133MOL0     C17825   7.760   8.516   0.795 -0.1143  1.1339  0.5394
  133MOL0     C17826   7.660   8.450   0.720  0.4013  0.7895  0.5459
  133MOL0     C17827   7.612   8.507   0.607  0.6136  0.1825  0.6757
  133MOL0     O17828   7.506   8.441   0.533 -0.1482  0.0558  0.2381
  133MOL0     C17829   7.560   8.345   0.446  0.6346  1.2124  0.3702
  133MOL0     C17830   7.458   8.325   0.328 -0.8010  1.3411  0.6158
  133MOL0     C17831   7.510   8.223   0.223 -0.9712 -0.4375 -0.6044
  133MOL0     C17832   7.401   8.189   0.116  0.2458  0.1155  0.9267
  133MOL0     C17833   7.441   8.060   0.028  0.7808  0.3620 -0.4351
  133MOL0     C17834   7.358   8.044  -0.100  0.6575 -0.8282  0.7151
  133MOL0     C17835   7.405   7.913  -0.167 -0.2927  0.9483  0.4624
  133MOL0     C17836   7.294   7.861  -0.259 -1.1444 -0.4487  0.4035
  133MOL0     N17837   7.327   7.732  -0.333 -0.2279 -0.1876  0.5770
  133MOL0     C17838   7.391   7.625  -0.277 -0.2866 -0.1857  0.5957
  133MOL0     C17839   7.398   7.525  -0.373 -0.2309 -0.8683 -0.7093
  133MOL0     C17840   7.447   7.389  -0.338  0.7666  0.5429  0.2222
  133MOL0     C17841   7.587   7.378  -0.285  0.6220 -0.3852  0.2882
  133MOL0     C17842   7.689   7.446  -0.383  0.3309 -0.1302 -0.2254
  133MOL0     C17843   7.832   7.454  -0.336 -0.6039  0.2990 -0.6764
  133MOL0     O17844   7.843   7.522  -0.210 -0.4473  0.0045 -0.1580
  133MOL0     C17845   7.866   7.655  -0.199 -0.4637 -0.0600  0.4393
  133MOL0     C17846   7.938   7.691  -0.088 -0.2527 -1.0529 -0.9743
  133MOL0     C17847   7.971   7.830  -0.064  0.7984 -0.0328  0.5773
  133MOL0     C17848   7.941   7.925  -0.159 -0.0863 -0.0480  0.1815
  133MOL0     C17849   7.964   8.071  -0.124 -0.4039 -0.6895  0.2414
  133MOL0     O17850   8.025   8.112  -0.016  0.6561 -0.1183 -0.6097
  133MOL0     C17851   8.027   8.241   0.021 -0.3355 -0.0363 -0.9146
  133MOL0     C17852   7.924   8.298   0.097  0.5395  1.2276  0.4453
  133MOL0     C17853   7.930   8.431   0.116 -0.1701 -0.6047 -0.0336
  133MOL0     C17854   8.025   8.522   0.067  0.1645 -0.5392 -0.2835
  133MOL0     O17855   8.029   8.659   0.076 -0.1008  0.1366  0.5272
  133MOL0     C17856   7.949   8.734   0.167  0.0009 -0.0568 -0.5780
  133MOL0     C17857   8.002   8.876   0.202 -0.3646 -0.0694  0.5326
  133MOL0     C17858   7.951   8.929   0.330  1.7120 -0.2294  0.6851
  133MOL0     C17859   7.790   8.951   0.320 -0.7161 -0.2310  0.5246
  133MOL0     C17860   7.745   9.058   0.218 -0.6089 -1.0732  0.5337
  133MOL0     C17861   7.844   9.189   0.205  0.5106  0.8258 -0.0028
  133MOL0     C17862   7.818   9.254   0.072  0.5263  0.0543  0.0444
  133MOL0     C17863   7.924   9.349   0.023  0.1961 -0.2849  0.7075
  133MOL0    Cl17864   7.898   9.474   0.146 -0.4255 -0.4642 -0.2643
  133MOL0     C17865   8.129   8.466  -0.006 -0.2222  0.8485  0.6478
  133MOL0     C17866   8.131   8.323  -0.027 -0.3691  0.6942  0.3528
  133MOL0     O17867   7.915   8.149  -0.200  0.2826 -0.5338  0.6726
  133MOL0     C17868   7.884   7.885  -0.278  0.2337 -0.7576  0.0744
  133MOL0     C17869   7.844   7.747  -0.303 -0.2473 -0.8568 -0.0089
  133MOL0     N17870   7.336   7.568  -0.483 -0.3275 -0.4794  0.3286
  133MOL0     N17871   7.291   7.692  -0.459  0.0886  0.3962  0.3942
  133MOL0     C17872   7.646   8.640   0.579 -0.0348  0.1847 -0.1835
  133MOL0     C17873   7.748   8.711   0.653  0.0121 -0.7628  0.5156
  133MOL0     C17874   8.107   8.806   0.884 -0.6713  0.1251  0.0541
  133MOL0     C17875   8.120   8.751   1.010 -0.2180 -1.0150  0.5084
  133MOL0     C17876   8.204   8.808   1.105 -0.1813  0.3416 -0.3308
  133MOL0     C17877   8.296   8.909   1.069 -0.8477  0.4153 -0.5822
  133MOL0     O17878   8.378   8.946   1.172  0.1498 -0.4776  0.3123
  133MOL0     C17879   8.452   9.072   1.173  0.0041 -0.3145 -0.8873
  133MOL0     C17880   8.593   9.038   1.184  0.2567  0.0271  0.3365
  133MOL0     C17881   8.628   9.001   1.330 -0.9574  1.0056  0.2882
  133MOL0     C17882   8.768   8.937   1.348  0.2910  0.0851  0.3043
  133MOL0     C17883   8.779   8.879   1.483 -0.3487  0.4863  0.3048
  133MOL0     C17884   8.777   8.802   1.581  0.1197  0.0117  0.1010
  133MOL0     C17885   8.297   8.956   0.938 -0.2677  0.7101 -0.4588
  133MOL0     C17886   8.200   8.910   0.850  0.5184 -0.1911 -0.2834
  133MOL0     C17887   8.197   8.973   0.709 -0.0997 -0.0054 -0.7423
  133MOL0     H17888   7.808   8.478   0.885  1.5439  3.0359  0.5475
  133MOL0     H17889   7.616   8.354   0.745  1.3012  1.1110  3.9223
  133MOL0     H17890   7.646   8.384   0.391 -0.6616  1.5885 -1.5016
  133MOL0     H17891   7.578   8.255   0.505 -0.8646  0.5309 -0.1647
  133MOL0     H17892   7.457   8.419   0.272 -0.4532  0.5006 -0.8380
  133MOL0     H17893   7.361   8.298   0.371  0.5155 -3.4670  1.1419
  133MOL0     H17894   7.530   8.135   0.285  0.0417 -0.7158 -1.2972
  133MOL0     H17895   7.598   8.259   0.170  0.4492 -1.4213  1.0024
  133MOL0     H17896   7.309   8.171   0.172  0.8329 -0.9368  1.5886
  133MOL0     H17897   7.396   8.272   0.045  0.7387  0.7098  1.5658
  133MOL0     H17898   7.544   8.056  -0.010  0.0806 -3.5919 -2.3925
  133MOL0     H17899   7.437   7.978   0.101 -0.2617  0.4712 -0.3618
  133MOL0     H17900   7.250   8.039  -0.089  0.2792 -0.7239 -2.1963
  133MOL0     H17901   7.364   8.128  -0.170 -0.8723 -2.0027 -0.9123
  133MOL0     H17902   7.427   7.834  -0.096  1.7430  0.3694 -0.7420
  133MOL0     H17903   7.491   7.922  -0.234 -0.1227 -0.9019  0.3870
  133MOL0     H17904   7.200   7.848  -0.204 -0.7341 -1.7104  0.8520
  133MOL0     H17905   7.282   7.932  -0.341  3.0206  0.4620  0.3527
  133MOL0     H17906   7.435   7.620  -0.177 -1.2853  0.6302  1.1045
  133MOL0     H17907   7.371   7.344  -0.274 -2.0693  2.8131 -1.2708
  133MOL0     H17908   7.466   7.327  -0.426  3.5926  1.4203  0.0942
  133MOL0     H17909   7.596   7.406  -0.180  4.3402  0.0105 -0.0328
  133MOL0     H17910   7.600   7.270  -0.279  0.8128 -0.2896  2.5304
  133MOL0     H17911   7.645   7.545  -0.399 -1.3178 -0.3570  2.3138
  133MOL0     H17912   7.694   7.379  -0.469  1.9353 -1.2724  0.7049
  133MOL0     H17913   7.897   7.496  -0.412  3.0958 -0.2433  1.8951
  133MOL0     H17914   7.867   7.351  -0.324  0.8948  0.5879 -2.1742
  133MOL0     H17915   7.958   7.615  -0.013  2.2720  2.2941  2.1188
  133MOL0     H17916   8.002   7.846   0.039 -3.4961  2.2608  1.7720
  133MOL0     H17917   7.838   8.240   0.129 -0.3599  0.7796 -2.4339
  133MOL0     H17918   7.842   8.482   0.152 -2.5890 -3.7753 -0.9410
  133MOL0     H17919   7.848   8.734   0.124 -0.0736 -0.4187 -0.4093
  133MOL0     H17920   7.941   8.678   0.260 -0.8857 -1.9562 -1.7272
  133MOL0     H17921   8.111   8.866   0.210 -0.2898 -0.0013 -0.3178
  133MOL0     H17922   7.975   8.946   0.122  1.1202 -1.4209 -1.2569
  133MOL0     H17923   7.980   8.868   0.416 -1.6138 -4.5507 -0.8858
  133MOL0     H17924   7.986   9.030   0.354  0.7620  0.9570 -2.4352
  133MOL0     H17925   7.750   8.970   0.420 -3.5912 -2.0912 -0.1251
  133MOL0     H17926   7.745   8.857   0.287  0.0523 -0.5736  0.4516
  133MOL0     H17927   7.643   9.086   0.245 -1.0126 -1.6557 -0.3475
  133MOL0     H17928   7.740   9.011   0.119 -0.9243 -0.4797  0.2640
  133MOL0     H17929   7.825   9.264   0.282  1.8208  3.0239 -1.6982
  133MOL0     H17930   7.948   9.156   0.214 -0.4713 -2.1224  2.3333
  133MOL0     H17931   7.717   9.295   0.062  1.0920  1.2304 -1.0942
  133MOL0     H17932   7.820   9.170   0.002  0.7621 -1.2556  1.5519
  133MOL0     H17933   8.022   9.301   0.026  0.4963  0.2586 -0.0510
  133MOL0     H17934   7.891   9.393  -0.072 -0.4676  0.6708  1.3602
  133MOL0     H17935   8.199   8.534  -0.053 -1.3714  0.1328 -2.3836
  133MOL0     H17936   8.209   8.293  -0.096 -1.2903  0.1798 -0.4957
  133MOL0     H17937   7.865   7.946  -0.366  1.7586 -1.2706 -0.6428
  133MOL0     H17938   7.806   7.709  -0.397 -0.9542  3.0563 -1.4928
  133MOL0     H17939   7.586   8.689   0.503 -2.6853  1.5578  2.5627
  133MOL0     H17940   7.771   8.813   0.626  1.3678 -1.4074 -0.9231
  133MOL0     H17941   8.062   8.662   1.029 -0.0130 -1.0741  0.8674
  133MOL0     H17942   8.196   8.769   1.206  1.5613  0.2885 -0.1973
  133MOL0     H17943   8.414   9.127   1.260 -0.9197 -0.1315 -1.4037
  133MOL0     H17944   8.443   9.134   1.084  4.1234 -4.0192 -4.3623
  133MOL0     H17945   8.645   9.134   1.169  2.3007 -0.7610  1.9633
  133MOL0     H17946   8.609   8.958   1.111 -0.7924 -1.6552  1.8997
  133MOL0     H17947   8.553   8.925   1.354 -0.0467 -0.0485 -0.1242
  133MOL0     H17948   8.619   9.085   1.399 -0.1370 -0.0746  1.7632
  133MOL0     H17949   8.776   8.856   1.275  2.3905 -0.0069  0.5746
  133MOL0     H17950   8.850   9.003   1.319  1.3706  0.0115  2.8738
  133MOL0     H17951   8.763   8.742   1.668  1.7566 -3.4264 -1.8076
  133MOL0     H17952   8.372   9.018   0.890 -1.5908  0.7897 -2.5935
  133MOL0     H17953   8.242   9.072   0.692  0.3575  0.1051  0.9885
  133MOL0     H17954   8.231   8.900   0.635  3.7155  2.6584 -1.9465
  133MOL0     H17955   8.096   9.001   0.677 -0.4604 -1.7239 -1.1903
  134MOL0     O17956   8.183   1.581   9.021 -0.6683 -0.5057  0.2712
  134MOL0     C17957   8.102   1.652   8.959 -0.5506 -0.1203  0.6385
  134MOL0     O17958   8.062   1.626   8.831  0.9493 -0.2757  0.6258
  134MOL0     C17959   8.094   1.512   8.763  0.0869  0.1148 -0.1422
  134MOL0     C17960   8.031   1.389   8.789  0.4373  0.5705  0.5509
  134MOL0     C17961   8.092   1.267   8.731  0.1874 -0.1550  0.8434
  134MOL0     C17962   8.210   1.280   8.653 -0.3989  0.0042  1.0420
  134MOL0     O17963   8.269   1.158   8.618 -0.2370 -0.2626 -0.6076
  134MOL0     C17964   8.409   1.142   8.654  1.0278  0.5145 -0.3141
  134MOL0     C17965   8.500   1.105   8.539 -0.3693 -0.3227  0.1152
  134MOL0     C17966   8.540   0.958   8.539  0.1687  0.7895  0.1678
  134MOL0     C17967   8.410   0.870   8.544 -0.8901  0.6984  0.2328
  134MOL0     C17968   8.448   0.724   8.507 -0.0196 -0.3243 -0.4460
  134MOL0     C17969   8.329   0.623   8.499 -1.1741 -0.4565  0.3513
  134MOL0     C17970   8.226   0.649   8.386  0.4661  0.0518 -0.4452
  134MOL0     C17971   8.148   0.530   8.337 -0.0908  0.4678  0.2693
  134MOL0     N17972   8.080   0.561   8.208  0.3761 -0.2830  0.2608
  134MOL0     C17973   7.978   0.656   8.186  0.7647 -0.9247  0.3648
  134MOL0     C17974   7.982   0.679   8.056  0.0811  0.2316  0.2644
  134MOL0     C17975   7.889   0.769   7.978  0.3301 -0.1465 -0.1960
  134MOL0     C17976   7.902   0.915   8.026  0.1617  0.4474  0.0826
  134MOL0     C17977   7.769   0.998   7.989 -0.4153  0.1376 -0.6564
  134MOL0     C17978   7.636   0.941   8.023  0.5582 -0.5833 -0.9085
  134MOL0     O17979   7.631   0.914   8.163 -0.0797  0.1424 -0.2563
  134MOL0     C17980   7.521   0.844   8.211  0.8807  0.2905  0.1054
  134MOL0     C17981   7.387   0.856   8.169  0.3190 -0.0411  0.1785
  134MOL0     C17982   7.284   0.772   8.212 -0.0497 -0.7105 -0.0800
  134MOL0     C17983   7.312   0.692   8.328  2.2269  1.0438  0.5624
  134MOL0     C17984   7.195   0.619   8.390 -0.4146 -0.9101 -1.0906
  134MOL0     O17985   7.229   0.500   8.440 -0.5537  0.2485 -0.4402
  134MOL0     C17986   7.132   0.416   8.500  0.1175  0.7415  0.3495
  134MOL0     C17987   7.139   0.393   8.637  0.1310  0.0405 -0.8471
  134MOL0     C17988   7.027   0.328   8.702  0.4197 -0.1324  0.5734
  134MOL0     C17989   6.912   0.283   8.631 -0.3256  0.5606  0.0211
  134MOL0     O17990   6.809   0.223   8.689 -0.1895 -0.6416  0.4620
  134MOL0     C17991   6.725   0.138   8.615  0.3348 -0.2406  0.1194
  134MOL0     C17992   6.621   0.089   8.716  0.6422  1.0434  0.2679
  134MOL0     C17993   6.524   0.007   8.628  0.7758 -0.4527  0.3716
  134MOL0     C17994   6.387  -0.011   8.697 -1.3261 -0.2001 -0.6748
  134MOL0     C17995   6.283  -0.073   8.611  0.6531  0.0040  0.0758
  134MOL0     C17996   6.305  -0.218   8.565 -0.6094  0.3936  0.0572
  134MOL0     C17997   6.186  -0.275   8.485 -0.8502 -0.9763  0.3632
  134MOL0     C17998   6.124  -0.183   8.374 -0.3053 -0.2445  0.3539
  134MOL0    Cl17999   6.254  -0.160   8.255  0.2271 -0.1335  0.0312
  134MOL0     C18000   6.916   0.300   8.491  0.8320 -0.7955 -0.1507
  134MOL0     C18001   7.022   0.369   8.430 -1.0208 -1.1731 -0.0963
  134MOL0     O18002   7.090   0.671   8.392  1.0753  0.0805  0.9178
  134MOL0     C18003   7.437   0.693   8.387 -0.5096  0.1166  1.4028
  134MOL0     C18004   7.541   0.762   8.324 -0.6690 -0.1687  0.6805
  134MOL0     N18005   8.074   0.592   8.000  0.0871 -0.0860  1.0257
  134MOL0     N18006   8.135   0.531   8.088  0.1402 -0.1382  0.2055
  134MOL0     C18007   8.248   1.406   8.612 -0.0104  0.2603 -0.3655
  134MOL0     C18008   8.202   1.517   8.678  0.8411  0.3267  0.5957
  134MOL0     C18009   8.054   1.772   9.024 -0.4610  0.2612  0.9100
  134MOL0     C18010   8.026   1.772   9.165 -0.3511 -0.2123  0.4681
  134MOL0     C18011   7.975   1.880   9.236 -0.2459 -0.0005 -0.4929
  134MOL0     C18012   7.933   1.991   9.166 -0.0053 -0.1446  0.7335
  134MOL0     O18013   7.887   2.108   9.222  0.1916 -0.8086  0.0110
  134MOL0     C18014   7.795   2.103   9.336 -0.7858  0.4459 -0.3451
  134MOL0     C18015   7.686   2.212   9.324  0.6269 -0.0844  0.2701
  134MOL0     C18016   7.626   2.236   9.465  0.0285  0.8932 -0.4135
  134MOL0     C18017   7.732   2.302   9.568  0.6651  0.4126 -0.0036
  134MOL0     C18018   7.733   2.221   9.689  0.2102 -0.4258 -0.1569
  134MOL0     C18019   7.729   2.158   9.790  0.1623  0.8626  0.0153
  134MOL0     C18020   7.944   1.996   9.029 -0.2167 -0.3634 -0.4975
  134MOL0     C18021   8.013   1.888   8.955  1.3001  1.0250 -0.3157
  134MOL0     C18022   8.000   1.908   8.812 -0.2334 -0.0528 -0.0417
  134MOL0     H18023   7.935   1.386   8.840  0.5495  2.1554  0.9147
  134MOL0     H18024   8.045   1.171   8.748 -2.2620  0.2323 -2.5612
  134MOL0     H18025   8.445   1.232   8.705 -1.7079  2.1691 -1.1061
  134MOL0     H18026   8.415   1.059   8.725  0.1795 -2.2810 -3.2642
  134MOL0     H18027   8.594   1.156   8.560 -0.6496 -0.0493  0.7325
  134MOL0     H18028   8.459   1.135   8.443 -4.8375  1.9213  2.3973
  134MOL0     H18029   8.607   0.940   8.623  0.1502  1.1899  0.2682
  134MOL0     H18030   8.579   0.938   8.439 -1.7754  0.9885 -0.6734
  134MOL0     H18031   8.362   0.879   8.642 -1.3162  0.1994  0.0746
  134MOL0     H18032   8.333   0.907   8.476 -0.8339  2.9585  1.3160
  134MOL0     H18033   8.492   0.736   8.408 -1.3589  1.1790 -0.9105
  134MOL0     H18034   8.516   0.689   8.586 -1.3498  0.5056  1.1227
  134MOL0     H18035   8.372   0.525   8.475  0.6781  0.4031 -0.0204
  134MOL0     H18036   8.284   0.624   8.598  2.9567 -0.9245  2.4668
  134MOL0     H18037   8.288   0.702   8.313  1.3989  0.8967  0.9045
  134MOL0     H18038   8.153   0.718   8.428  0.4989  0.5832 -1.2272
  134MOL0     H18039   8.214   0.444   8.327 -1.6029 -0.6798 -0.2167
  134MOL0     H18040   8.071   0.492   8.405 -1.6198 -0.3390 -1.7823
  134MOL0     H18041   7.921   0.717   8.255  0.7510  0.3032 -0.6925
  134MOL0     H18042   7.913   0.753   7.872 -0.7298 -0.4180 -0.4076
  134MOL0     H18043   7.792   0.719   7.988  1.1653 -2.2226 -1.7281
  134MOL0     H18044   7.897   0.917   8.135 -3.6175  0.3302  0.0534
  134MOL0     H18045   7.987   0.966   7.979  0.3879  1.5201  1.5597
  134MOL0     H18046   7.774   1.021   7.882  0.5177  4.5459  0.1338
  134MOL0     H18047   7.766   1.098   8.033 -0.8832 -1.1545  2.4699
  134MOL0     H18048   7.615   0.853   7.961  0.5246  0.0221 -1.7736
  134MOL0     H18049   7.559   1.017   8.009  0.8228 -0.1044  0.1669
  134MOL0     H18050   7.344   0.912   8.086  1.6633  0.8618  0.0651
  134MOL0     H18051   7.187   0.787   8.166  0.1003  3.9843  0.5938
  134MOL0     H18052   7.218   0.442   8.693 -1.9273 -0.3700  2.7298
  134MOL0     H18053   7.012   0.319   8.809  2.0389  0.2460  0.8604
  134MOL0     H18054   6.670   0.195   8.539 -3.7881 -4.3001 -0.3619
  134MOL0     H18055   6.781   0.053   8.575 -0.6146 -1.8434  2.0184
  134MOL0     H18056   6.666   0.028   8.795  0.8285  0.4423 -0.2916
  134MOL0     H18057   6.578   0.177   8.764  0.4415  1.0774  0.0248
  134MOL0     H18058   6.515   0.053   8.529  4.2919  0.0692  0.1472
  134MOL0     H18059   6.570  -0.091   8.613 -1.6317 -1.5968 -0.0834
  134MOL0     H18060   6.363   0.090   8.731 -0.0754  0.3823 -1.4230
  134MOL0     H18061   6.405  -0.076   8.783  0.6734  0.8910 -0.1703
  134MOL0     H18062   6.244  -0.005   8.535  0.3335 -3.1377 -2.8127
  134MOL0     H18063   6.198  -0.085   8.678  1.4802  3.1757  1.8960
  134MOL0     H18064   6.397  -0.211   8.506 -0.9723  2.7026 -0.3419
  134MOL0     H18065   6.318  -0.272   8.659 -3.5050  0.3700  0.5535
  134MOL0     H18066   6.107  -0.277   8.561 -2.3538 -1.8721 -1.1467
  134MOL0     H18067   6.206  -0.375   8.446  3.5238 -0.7463  1.5764
  134MOL0     H18068   6.034  -0.230   8.332 -1.3205  0.4688  1.6469
  134MOL0     H18069   6.102  -0.082   8.412 -1.5834 -0.6088  0.6521
  134MOL0     H18070   6.838   0.265   8.424  1.2598 -2.7589  0.3210
  134MOL0     H18071   7.043   0.390   8.325 -0.7472  2.4145  0.5430
  134MOL0     H18072   7.466   0.627   8.469  2.5464 -0.5307 -0.0361
  134MOL0     H18073   7.639   0.745   8.366  1.3076 -0.8623 -3.6719
  134MOL0     H18074   8.325   1.416   8.536  0.4615  0.5422  0.1393
  134MOL0     H18075   8.242   1.614   8.650 -2.2624  1.9130  1.1237
  134MOL0     H18076   8.062   1.693   9.230 -0.7689  1.4360  2.8170
  134MOL0     H18077   7.972   1.882   9.345  4.0065  3.4786 -0.1281
  134MOL0     H18078   7.848   2.131   9.427 -2.9343  3.1861  0.1953
  134MOL0     H18079   7.759   1.999   9.339 -0.2384  0.2261 -1.1470
  134MOL0     H18080   7.605   2.176   9.259 -2.3220  3.0230  1.8937
  134MOL0     H18081   7.726   2.301   9.275 -0.7641 -0.3503 -1.4545
  134MOL0     H18082   7.582   2.146   9.509  0.0790  1.4461  0.8101
  134MOL0     H18083   7.551   2.315   9.450  2.2806  2.6271 -4.0192
  134MOL0     H18084   7.829   2.312   9.518  1.5488 -2.4056  0.9806
  134MOL0     H18085   7.700   2.402   9.597  3.2778  0.6858  2.3554
  134MOL0     H18086   7.736   2.087   9.871  0.2841 -1.3333 -1.8194
  134MOL0     H18087   7.917   2.092   8.986  1.6184  0.8801  0.9899
  134MOL0     H18088   8.007   2.016   8.796  2.7277 -0.3933 -1.6395
  134MOL0     H18089   8.083   1.864   8.756 -0.4218 -0.1287 -0.2679
  134MOL0     H18090   7.907   1.866   8.773 -0.8692 -1.6550  2.8948
  135MOL0     O18091   3.186   5.353   3.601  0.2719 -0.4845  0.1795
  135MOL0     C18092   3.242   5.418   3.684 -0.2243 -0.4022  0.7470
  135MOL0     O18093   3.219   5.401   3.808 -0.4735  0.0916  0.4241
  135MOL0     C18094   3.162   5.291   3.859  0.4691 -0.1968  0.0827
  135MOL0     C18095   3.157   5.164   3.802  0.0123 -0.1524  0.5993
  135MOL0     C18096   3.098   5.047   3.867 -0.5250  0.1669 -0.4673
  135MOL0     C18097   3.054   5.059   4.003  0.5431  0.0571  0.6713
  135MOL0     O18098   3.017   4.947   4.074  0.3087  0.0033  0.4689
  135MOL0     C18099   2.871   4.940   4.088 -0.3492  0.0818 -0.0767
  135MOL0     C18100   2.820   4.796   4.042  0.0557 -0.7729  0.3858
  135MOL0     C18101   2.822   4.694   4.165 -0.4838 -0.2028  0.2781
  135MOL0     C18102   2.953   4.666   4.230 -0.2829  0.3468  0.4393
  135MOL0     C18103   2.938   4.547   4.323  0.1634  0.4107 -0.9359
  135MOL0     C18104   3.075   4.482   4.371 -0.4364  0.0717  0.6737
  135MOL0     C18105   3.046   4.338   4.423  0.6852  1.2189  0.1187
  135MOL0     C18106   2.968   4.333   4.554  0.4346 -0.1165 -0.9192
  135MOL0     N18107   2.919   4.200   4.599  0.5243 -0.2420  0.8670
  135MOL0     C18108   2.832   4.109   4.546  0.2634 -1.0609  0.6969
  135MOL0     C18109   2.858   3.994   4.610  0.5177  0.8910 -0.2205
  135MOL0     C18110   2.751   3.875   4.583 -0.2609 -0.0692 -0.6260
  135MOL0     C18111   2.612   3.890   4.646  0.5151 -0.8033 -0.6823
  135MOL0     C18112   2.519   3.768   4.645 -0.0072 -0.0671  0.6994
  135MOL0     C18113   2.373   3.804   4.654  0.2805 -0.1152  0.6033
  135MOL0     O18114   2.294   3.694   4.694 -0.1265  0.0840  0.4719
  135MOL0     C18115   2.163   3.693   4.656 -0.3729  0.0250 -0.7020
  135MOL0     C18116   2.104   3.569   4.664 -0.4079 -0.6631 -0.1218
  135MOL0     C18117   1.968   3.551   4.655 -0.7455  1.0216  1.2608
  135MOL0     C18118   1.885   3.656   4.611  0.6717 -0.3080 -0.0184
  135MOL0     C18119   1.737   3.642   4.608  0.5155 -0.5415 -0.5754
  135MOL0     O18120   1.667   3.728   4.528  0.7068 -0.1010  0.4748
  135MOL0     C18121   1.526   3.734   4.527  0.2733 -0.0014 -0.1270
  135MOL0     C18122   1.440   3.624   4.554  0.9500 -0.9157 -0.6688
  135MOL0     C18123   1.300   3.642   4.536 -1.4240  0.1215 -0.7968
  135MOL0     C18124   1.244   3.762   4.495 -0.4578 -0.0413 -0.2734
  135MOL0     O18125   1.109   3.782   4.494  0.0120  0.2581  0.1028
  135MOL0     C18126   1.019   3.718   4.591  0.8180  0.0569  1.0917
  135MOL0     C18127   0.943   3.618   4.516 -0.3211  0.4421 -0.2894
  135MOL0     C18128   0.790   3.644   4.527 -0.7717  1.0273  0.9815
  135MOL0     C18129   0.716   3.538   4.444  0.3212  0.1094 -0.2735
  135MOL0     C18130   0.562   3.568   4.420 -0.4506 -1.0402 -0.0194
  135MOL0     C18131   0.486   3.545   4.551 -0.1299  0.6042  0.6537
  135MOL0     C18132   0.343   3.595   4.539  0.6532  0.5253  0.7908
  135MOL0     C18133   0.253   3.472   4.495  0.5059 -0.3713 -0.6542
  135MOL0    Cl18134   0.235   3.458   4.328 -0.3651  0.5361 -0.3697
  135MOL0     C18135   1.327   3.865   4.456 -0.0653  0.2147 -0.2561
  135MOL0     C18136   1.468   3.845   4.465  0.8031 -0.4453 -0.0463
  135MOL0     O18137   1.700   3.527   4.644  0.5771 -0.1657  0.2058
  135MOL0     C18138   1.942   3.788   4.595 -1.0873  0.3726  0.3923
  135MOL0     C18139   2.078   3.804   4.621  0.5246  0.5676 -0.6067
  135MOL0     N18140   2.949   4.005   4.709 -0.5532 -0.0648 -0.4228
  135MOL0     N18141   2.988   4.129   4.694 -0.0943  0.3756 -0.1846
  135MOL0     C18142   3.061   5.190   4.052 -0.4764  0.7061  0.0451
  135MOL0     C18143   3.109   5.304   3.987 -0.3308  0.3804  0.1955
  135MOL0     C18144   3.324   5.543   3.653 -0.5902 -1.0243  1.3709
  135MOL0     C18145   3.317   5.655   3.737  0.7051  0.9902 -0.2122
  135MOL0     C18146   3.385   5.773   3.716  0.4334 -0.3918 -0.6992
  135MOL0     C18147   3.473   5.781   3.614 -0.4132  0.8652  0.2043
  135MOL0     O18148   3.550   5.899   3.606 -0.1225  0.2391 -0.5310
  135MOL0     C18149   3.645   5.937   3.507  0.8686  0.8160  0.0327
  135MOL0     C18150   3.735   6.014   3.587 -0.0605  0.3390  0.5056
  135MOL0     C18151   3.693   6.157   3.597 -0.3552  0.0480 -0.0333
  135MOL0     C18152   3.782   6.241   3.681  0.2309  0.1440  1.1634
  135MOL0     C18153   3.907   6.273   3.600 -0.1717  1.1966 -0.0615
  135MOL0     C18154   4.013   6.292   3.552 -0.2451 -0.5805 -0.0240
  135MOL0     C18155   3.480   5.673   3.520 -0.7807 -0.8756  0.4280
  135MOL0     C18156   3.408   5.556   3.538  0.0876  1.1928  0.5436
  135MOL0     C18157   3.447   5.442   3.440  0.6843  0.2558 -0.3340
  135MOL0     H18158   3.198   5.145   3.704  1.3303 -0.6909  1.2390
  135MOL0     H18159   3.108   4.947   3.826 -0.7857 -1.2096  2.5343
  135MOL0     H18160   2.837   4.957   4.191 -0.3837 -2.5664  0.4131
  135MOL0     H18161   2.825   5.020   4.029 -2.1594 -0.1061  0.9838
  135MOL0     H18162   2.886   4.766   3.960  1.5295 -3.7150  2.4764
  135MOL0     H18163   2.715   4.813   4.016 -0.0534  1.1511  1.8464
  135MOL0     H18164   2.782   4.603   4.119 -0.7682  0.7297 -1.4008
  135MOL0     H18165   2.755   4.720   4.247  0.4689 -0.4357  1.1428
  135MOL0     H18166   3.039   4.659   4.163 -2.1345 -4.7968 -1.9813
  135MOL0     H18167   2.986   4.755   4.284  0.1671  0.6053 -0.2485
  135MOL0     H18168   2.878   4.578   4.409  2.4788  0.6634  0.6521
  135MOL0     H18169   2.885   4.466   4.272  0.9750  0.5728 -2.0648
  135MOL0     H18170   3.146   4.473   4.289 -2.7642  0.9346 -1.5784
  135MOL0     H18171   3.118   4.543   4.452 -1.6563  2.7499 -0.5607
  135MOL0     H18172   3.140   4.284   4.440  0.8661  1.6539  0.5247
  135MOL0     H18173   2.988   4.289   4.344  2.3746 -1.1273  0.2146
  135MOL0     H18174   3.025   4.373   4.638 -2.6485  1.5400  0.5503
  135MOL0     H18175   2.880   4.398   4.553  1.5317  1.4406  0.5067
  135MOL0     H18176   2.749   4.124   4.477 -2.4974 -3.7135  3.0756
  135MOL0     H18177   2.741   3.869   4.475  2.5440  1.1577 -1.0458
  135MOL0     H18178   2.767   3.774   4.621 -1.9113  0.4663  1.7598
  135MOL0     H18179   2.615   3.935   4.746  1.9152 -0.6637 -0.7598
  135MOL0     H18180   2.567   3.969   4.585  0.9853  2.4749  2.7811
  135MOL0     H18181   2.542   3.692   4.720 -0.0203  0.1726  0.9438
  135MOL0     H18182   2.534   3.725   4.545 -4.0979 -0.3000  0.0083
  135MOL0     H18183   2.338   3.838   4.556 -2.6575  0.6546  1.8046
  135MOL0     H18184   2.369   3.890   4.722 -2.6842 -1.7002  2.6846
  135MOL0     H18185   2.174   3.489   4.686  1.2438  0.9751  0.8673
  135MOL0     H18186   1.925   3.462   4.699 -1.6270  0.1241 -1.2852
  135MOL0     H18187   1.477   3.529   4.591  1.1285  0.1114  1.9883
  135MOL0     H18188   1.243   3.549   4.543 -1.6350  0.3899  2.1515
  135MOL0     H18189   1.067   3.682   4.682  3.6883 -2.3335 -1.1695
  135MOL0     H18190   0.952   3.801   4.619  2.0573  1.4431  0.0967
  135MOL0     H18191   0.978   3.610   4.413 -4.0190 -1.8863 -1.5584
  135MOL0     H18192   0.951   3.520   4.564  0.7357  1.2240  1.2316
  135MOL0     H18193   0.769   3.640   4.634  0.0543 -2.5633  1.1561
  135MOL0     H18194   0.773   3.745   4.490  0.9916  1.5312  1.4368
  135MOL0     H18195   0.720   3.442   4.496  1.2637  0.2845 -0.0096
  135MOL0     H18196   0.768   3.535   4.348  2.1483  2.8486  0.4899
  135MOL0     H18197   0.523   3.519   4.331 -1.8095  2.4624 -1.5413
  135MOL0     H18198   0.552   3.675   4.398 -1.3925 -0.9258  0.8533
  135MOL0     H18199   0.512   3.448   4.593  3.6432  1.9726  1.9442
  135MOL0     H18200   0.531   3.609   4.627  0.2228  0.6909  0.3784
  135MOL0     H18201   0.333   3.669   4.458  1.1117 -2.6532 -2.4097
  135MOL0     H18202   0.312   3.638   4.634 -2.2592 -1.1393  0.7198
  135MOL0     H18203   0.289   3.377   4.535 -3.0606 -0.7624  2.1803
  135MOL0     H18204   0.151   3.488   4.529  0.6330 -1.3877  0.2715
  135MOL0     H18205   1.282   3.958   4.422 -0.8027 -0.7760 -2.1148
  135MOL0     H18206   1.525   3.933   4.438  1.6185 -1.6438 -2.6245
  135MOL0     H18207   1.880   3.876   4.580 -0.6303  1.0966  2.4028
  135MOL0     H18208   2.120   3.904   4.620  1.6477  0.1158 -0.0104
  135MOL0     H18209   3.027   5.203   4.154  2.9863 -0.3518  1.4899
  135MOL0     H18210   3.127   5.400   4.035  0.1971  0.1960  0.3667
  135MOL0     H18211   3.253   5.649   3.824  2.7975  1.1411  1.3925
  135MOL0     H18212   3.378   5.837   3.803 -1.3792 -1.5194  0.0260
  135MOL0     H18213   3.590   5.976   3.422 -0.5578 -2.7577 -0.8634
  135MOL0     H18214   3.698   5.846   3.477  2.3241  0.7721  2.3872
  135MOL0     H18215   3.833   6.018   3.538 -1.6395 -2.2800 -3.4306
  135MOL0     H18216   3.742   5.964   3.683 -0.1217 -2.7546 -0.9729
  135MOL0     H18217   3.597   6.164   3.649 -0.7700  0.9651 -0.8756
  135MOL0     H18218   3.679   6.198   3.496 -0.8398  0.4982  0.2140
  135MOL0     H18219   3.721   6.327   3.706 -2.3095 -1.9121  2.5271
  135MOL0     H18220   3.806   6.198   3.778 -3.3072 -0.2877  1.9692
  135MOL0     H18221   4.114   6.299   3.515  0.0193  0.2854  0.8284
  135MOL0     H18222   3.555   5.679   3.441 -0.3834  4.6543  0.8274
  135MOL0     H18223   3.454   5.346   3.493  0.7923  1.4321  1.8897
  135MOL0     H18224   3.374   5.439   3.359 -2.3065 -3.6548  2.1133
  135MOL0     H18225   3.550   5.455   3.406  1.7004 -5.1172 -0.2472
  136MOL0     O18226   4.716   0.405   8.071 -1.0916  0.8595 -0.3264
  136MOL0     C18227   4.722   0.284   8.045  0.1767 -0.0627  0.0928
  136MOL0     O18228   4.682   0.182   8.125  0.2738  1.1065  0.2973
  136MOL0     C18229   4.673   0.209   8.260  0.6033  0.1915 -0.0231
  136MOL0     C18230   4.547   0.261   8.305  0.3350 -1.4116 -0.3280
  136MOL0     C18231   4.533   0.280   8.445  0.7316 -0.1849  0.4516
  136MOL0     C18232   4.624   0.229   8.537 -1.0790  0.7265  0.2679
  136MOL0     O18233   4.599   0.223   8.669  0.4672 -0.2548 -0.4335
  136MOL0     C18234   4.669   0.307   8.763 -0.5055 -0.0794  1.0955
  136MOL0     C18235   4.594   0.326   8.892  0.3600 -0.2099  0.3192
  136MOL0     C18236   4.501   0.451   8.879 -0.5854 -0.6805 -0.5581
  136MOL0     C18237   4.439   0.482   9.010 -0.6681 -0.8280 -0.2475
  136MOL0     C18238   4.412   0.633   9.040 -0.0781 -0.1817  0.7400
  136MOL0     C18239   4.323   0.665   9.163  0.1123 -0.2832  1.1122
  136MOL0     C18240   4.393   0.632   9.297  0.6971  0.2144 -0.5551
  136MOL0     C18241   4.308   0.660   9.416 -0.1243 -1.7191  0.9817
  136MOL0     N18242   4.296   0.807   9.451  0.8305  1.1452 -0.6635
  136MOL0     C18243   4.391   0.905   9.435  0.0942 -0.1369 -0.4784
  136MOL0     C18244   4.326   1.016   9.482 -0.0912  0.7000  0.5817
  136MOL0     C18245   4.379   1.150   9.484 -0.5543 -0.1730 -0.0306
  136MOL0     C18246   4.508   1.145   9.569  0.1848 -0.4111 -0.0983
  136MOL0     C18247   4.553   1.284   9.592 -0.0999 -0.2287 -0.4933
  136MOL0     C18248   4.619   1.292   9.735  0.4071 -0.7632  0.1584
  136MOL0     O18249   4.645   1.436   9.771 -0.3032  0.3650  0.2865
  136MOL0     C18250   4.771   1.491   9.761  0.1076 -0.4947  0.3981
  136MOL0     C18251   4.886   1.420   9.732 -0.0388  0.7509 -0.2996
  136MOL0     C18252   5.009   1.485   9.733  0.4675  0.0553  0.0043
  136MOL0     C18253   5.008   1.625   9.759 -0.3879 -0.0432  0.1346
  136MOL0     C18254   5.133   1.702   9.769  0.0211 -0.9733 -0.8365
  136MOL0     O18255   5.250   1.633   9.774 -0.3316  0.5580 -0.6049
  136MOL0     C18256   5.367   1.698   9.780 -0.8565  0.2803 -0.1483
  136MOL0     C18257   5.421   1.747   9.909 -0.5322  1.1631  0.8509
  136MOL0     C18258   5.551   1.794   9.920 -0.3969 -0.8692 -0.4261
  136MOL0     C18259   5.634   1.813   9.812  0.4955 -0.0112  0.5648
  136MOL0     O18260   5.761   1.856   9.844 -0.5052  0.1826  0.4828
  136MOL0     C18261   5.815   1.957   9.750  0.0590  0.9294 -0.6050
  136MOL0     C18262   5.930   2.021   9.828 -0.4075 -0.2725  0.5572
  136MOL0     C18263   6.072   1.996   9.772 -0.7050 -0.3507  0.3271
  136MOL0     C18264   6.127   1.852   9.775 -0.7784  0.4168  0.8220
  136MOL0     C18265   6.242   1.820   9.679  0.0585  0.8748 -0.0841
  136MOL0     C18266   6.277   1.667   9.683 -0.2847  0.1325  0.0450
  136MOL0     C18267   6.390   1.649   9.580 -0.3236  0.5191  0.2978
  136MOL0     C18268   6.423   1.504   9.592  0.0360  0.1980  0.5753
  136MOL0    Cl18269   6.562   1.477   9.478  0.5831  0.4134  0.5601
  136MOL0     C18270   5.584   1.768   9.686  1.1853 -0.5596  0.8957
  136MOL0     C18271   5.445   1.720   9.671  0.0976 -0.5290  1.6362
  136MOL0     O18272   5.115   1.829   9.782 -1.0665 -0.0242  0.7694
  136MOL0     C18273   4.890   1.696   9.779  0.5801  0.1168 -1.3873
  136MOL0     C18274   4.771   1.627   9.783 -0.3704  0.8740 -0.2126
  136MOL0     N18275   4.198   0.986   9.531 -0.6265  0.5035  0.7382
  136MOL0     N18276   4.191   0.857   9.524  0.4176  0.4086 -0.0496
  136MOL0     C18277   4.749   0.174   8.491  0.0537 -0.6617 -0.3234
  136MOL0     C18278   4.761   0.160   8.354 -0.8824 -0.6186 -0.5855
  136MOL0     C18279   4.772   0.239   7.911  0.6016  0.1508 -0.4028
  136MOL0     C18280   4.724   0.117   7.862 -0.1924  0.3447 -0.7648
  136MOL0     C18281   4.745   0.063   7.733  1.5912  0.4119 -0.1866
  136MOL0     C18282   4.812   0.131   7.642  0.3598 -0.0508  0.3314
  136MOL0     O18283   4.840   0.100   7.508  0.2279  0.2202  0.9680
  136MOL0     C18284   4.772  -0.014   7.447  0.1996 -0.1867 -0.0289
  136MOL0     C18285   4.813  -0.039   7.302  0.8068 -0.2173  0.8025
  136MOL0     C18286   4.813   0.081   7.209  0.2242  0.8647  0.0056
  136MOL0     C18287   4.700   0.180   7.242  0.1933 -0.7590  1.0439
  136MOL0     C18288   4.667   0.254   7.117  0.4517 -0.6079  0.7380
  136MOL0     C18289   4.630   0.327   7.022 -0.3383 -0.9901  0.2350
  136MOL0     C18290   4.890   0.247   7.688 -0.0808  0.1711  0.1771
  136MOL0     C18291   4.866   0.300   7.821  0.4879  0.1231 -1.0553
  136MOL0     C18292   4.952   0.424   7.869  0.0047 -0.0596  0.9500
  136MOL0     H18293   4.477   0.316   8.243  1.8566  1.4690  0.3189
  136MOL0     H18294   4.458   0.344   8.490  1.5020  1.4731 -0.5297
  136MOL0     H18295   4.767   0.259   8.779 -0.3722 -1.1747 -2.2591
  136MOL0     H18296   4.686   0.402   8.712 -1.3308  1.4105  3.4181
  136MOL0     H18297   4.671   0.349   8.966 -0.0683 -0.8789  0.9859
  136MOL0     H18298   4.536   0.242   8.931 -1.2568  1.1305  0.9519
  136MOL0     H18299   4.412   0.443   8.815  0.1879  0.8179 -1.9014
  136MOL0     H18300   4.563   0.536   8.849  0.6601 -1.7073 -0.9366
  136MOL0     H18301   4.348   0.423   9.017 -1.8876  0.6735 -2.2569
  136MOL0     H18302   4.509   0.440   9.083 -0.3301 -2.7404 -1.5876
  136MOL0     H18303   4.503   0.693   9.052 -0.4206  0.2921  1.0287
  136MOL0     H18304   4.371   0.666   8.945 -0.4099  1.2879  1.3678
  136MOL0     H18305   4.289   0.769   9.163  1.0185  0.0210  1.0550
  136MOL0     H18306   4.244   0.590   9.148  1.6701 -1.6604 -0.7029
  136MOL0     H18307   4.492   0.673   9.317  1.4749 -2.3412  1.3552
  136MOL0     H18308   4.404   0.524   9.287  0.1167  0.1791 -0.8504
  136MOL0     H18309   4.210   0.618   9.392 -0.3421 -1.4319  1.3640
  136MOL0     H18310   4.350   0.598   9.497  1.0811 -4.4152 -1.5105
  136MOL0     H18311   4.486   0.914   9.383  0.6697  2.1356  0.8024
  136MOL0     H18312   4.402   1.194   9.387 -2.7232 -0.8634 -0.9207
  136MOL0     H18313   4.298   1.193   9.545 -0.0829 -1.3264  1.4721
  136MOL0     H18314   4.486   1.109   9.670  0.3336  1.1335  0.5142
  136MOL0     H18315   4.584   1.089   9.515  0.6638  1.2224 -1.2040
  136MOL0     H18316   4.470   1.355   9.596  1.1382  1.6180 -4.0862
  136MOL0     H18317   4.618   1.331   9.519  1.2329  2.7852  2.3664
  136MOL0     H18318   4.700   1.218   9.742  0.4878 -0.8356 -1.3106
  136MOL0     H18319   4.545   1.258   9.808 -2.8994  0.3508 -2.4040
  136MOL0     H18320   4.890   1.313   9.714  2.0338  0.7225  0.0841
  136MOL0     H18321   5.099   1.425   9.721 -0.1243 -1.2451  1.6752
  136MOL0     H18322   5.351   1.723   9.989 -2.3613 -5.7180 -2.0289
  136MOL0     H18323   5.584   1.831  10.018 -3.4455  1.4712 -0.1408
  136MOL0     H18324   5.846   1.910   9.656 -0.9791  0.7580 -0.8694
  136MOL0     H18325   5.750   2.040   9.722 -0.7517  0.7293  0.5982
  136MOL0     H18326   5.910   2.127   9.841 -1.6388 -0.4265  0.0278
  136MOL0     H18327   5.935   1.980   9.930 -1.2811  3.0614  2.0818
  136MOL0     H18328   6.072   2.028   9.667 -0.8697 -0.2104  0.3695
  136MOL0     H18329   6.148   2.047   9.832  1.4242 -1.0312 -1.6533
  136MOL0     H18330   6.045   1.789   9.739  1.8739 -2.9604  0.1425
  136MOL0     H18331   6.158   1.811   9.871  0.2659 -4.7067 -1.3577
  136MOL0     H18332   6.330   1.875   9.715 -0.4629  2.6254 -1.3444
  136MOL0     H18333   6.211   1.846   9.577  2.8484 -3.5336 -2.3925
  136MOL0     H18334   6.322   1.642   9.779  1.3385 -2.0464 -1.1915
  136MOL0     H18335   6.180   1.618   9.668 -0.6331 -0.1634  2.7249
  136MOL0     H18336   6.480   1.709   9.595 -3.3379  4.6548  6.4183
  136MOL0     H18337   6.340   1.663   9.484  0.6313  0.5812 -0.1922
  136MOL0     H18338   6.460   1.481   9.692  0.0115  2.3696  1.1299
  136MOL0     H18339   6.331   1.450   9.571 -0.6542  1.4216  0.3780
  136MOL0     H18340   5.652   1.785   9.603  0.1206  1.4134  0.3556
  136MOL0     H18341   5.404   1.678   9.579  0.3576  2.0017  0.2635
  136MOL0     H18342   4.879   1.802   9.799  0.8730 -0.4407  2.5771
  136MOL0     H18343   4.686   1.684   9.820 -0.6956 -0.2630  0.8795
  136MOL0     H18344   4.821   0.138   8.565  0.3093 -0.2604 -0.3721
  136MOL0     H18345   4.852   0.112   8.320 -1.2811 -2.5196  0.8983
  136MOL0     H18346   4.660   0.053   7.922 -0.5572 -1.5306 -2.9983
  136MOL0     H18347   4.707  -0.038   7.715  2.2425  0.3488 -1.2818
  136MOL0     H18348   4.664   0.003   7.444  0.3235  1.1581  1.6060
  136MOL0     H18349   4.776  -0.109   7.501 -1.3049 -1.5119 -2.0667
  136MOL0     H18350   4.734  -0.108   7.271  1.6115 -0.0280 -1.9798
  136MOL0     H18351   4.907  -0.087   7.272 -0.6172 -1.9223 -1.3186
  136MOL0     H18352   4.812   0.052   7.104  0.3923  4.0035 -0.9859
  136MOL0     H18353   4.909   0.134   7.221 -0.0938  0.8414  3.5398
  136MOL0     H18354   4.603   0.137   7.267 -2.1725  2.7655 -1.1739
  136MOL0     H18355   4.727   0.249   7.323 -0.9038  1.6104 -0.4762
  136MOL0     H18356   4.608   0.387   6.935  0.6586  0.4620  0.9366
  136MOL0     H18357   4.948   0.305   7.617 -0.7081 -1.5905 -1.8794
  136MOL0     H18358   5.018   0.459   7.789  1.3693 -1.1938  1.5362
  136MOL0     H18359   4.887   0.505   7.904 -1.6441 -0.6320 -0.6197
  136MOL0     H18360   5.007   0.384   7.955  2.0812 -1.3384 -0.8939
  137MOL0     O18361   4.768   4.069   8.949 -0.3905 -0.1222 -0.3168
  137MOL0     C18362   4.706   3.962   8.940  0.2592  0.3379 -0.0469
  137MOL0     O18363   4.746   3.840   8.985 -0.6363 -0.9941  0.1754
  137MOL0     C18364   4.881   3.832   9.017  0.4160  0.1585  0.1329
  137MOL0     C18365   4.994   3.863   8.940 -0.4684  0.0605  0.3466
  137MOL0     C18366   5.122   3.834   8.979 -0.1589 -0.3483  1.1921
  137MOL0     C18367   5.143   3.778   9.102  0.0069 -1.1511 -0.4325
  137MOL0     O18368   5.270   3.745   9.139  0.0745 -0.3134 -0.0037
  137MOL0     C18369   5.295   3.612   9.135 -0.5162  0.6418 -0.2624
  137MOL0     C18370   5.437   3.588   9.203  0.1377 -0.5121 -0.2584
  137MOL0     C18371   5.453   3.451   9.266 -1.0578  0.1092 -0.0834
  137MOL0     C18372   5.391   3.419   9.413  0.5672 -0.7642  0.1511
  137MOL0     C18373   5.389   3.269   9.438 -0.3399 -0.4442  0.8980
  137MOL0     C18374   5.428   3.237   9.581 -0.0429  0.0030 -0.1365
  137MOL0     C18375   5.455   3.092   9.593  0.6522  0.0870  0.3244
  137MOL0     C18376   5.521   3.076   9.734  0.8313 -0.5581  0.0669
  137MOL0     N18377   5.583   2.950   9.765  0.8118 -0.0519 -0.5997
  137MOL0     C18378   5.525   2.826   9.773  0.5641 -1.3030  0.1555
  137MOL0     C18379   5.617   2.740   9.819 -0.0383  0.2878  0.3892
  137MOL0     C18380   5.608   2.599   9.861  0.1020 -0.7670  0.5455
  137MOL0     C18381   5.722   2.514   9.787 -0.2720 -0.0124 -1.4105
  137MOL0     C18382   5.718   2.374   9.842 -0.2600 -0.2371 -0.3011
  137MOL0     C18383   5.591   2.298   9.805  0.1820  1.2367 -0.1205
  137MOL0     O18384   5.495   2.310   9.908 -0.1125 -0.2815  0.5193
  137MOL0     C18385   5.514   2.254  10.032  0.1515 -0.7152  0.1113
  137MOL0     C18386   5.611   2.164  10.069  0.4926 -1.0335 -0.4960
  137MOL0     C18387   5.629   2.115  10.196 -0.9211 -0.0874 -1.2312
  137MOL0     C18388   5.538   2.154  10.298 -0.1363 -0.4165  0.7831
  137MOL0     C18389   5.562   2.122  10.433  0.5339  0.8182 -0.3179
  137MOL0     O18390   5.673   2.048  10.450  0.1659 -0.1978 -0.1042
  137MOL0     C18391   5.683   1.974  10.563 -0.0031  0.1372  0.0575
  137MOL0     C18392   5.590   1.884  10.615  0.3332  0.6005  0.3318
  137MOL0     C18393   5.628   1.809  10.726 -0.1431 -0.1618 -0.9899
  137MOL0     C18394   5.759   1.819  10.791  0.1917  0.0507  0.1467
  137MOL0     O18395   5.777   1.742  10.905 -0.1028  0.3030  0.1957
  137MOL0     C18396   5.889   1.777  10.994  0.0703 -0.0034 -0.5387
  137MOL0     C18397   5.890   1.685  11.119 -0.0388 -0.1253 -0.4700
  137MOL0     C18398   5.769   1.707  11.201  0.1998  0.1037 -0.1160
  137MOL0     C18399   5.645   1.624  11.147  1.4212  0.6010  0.7997
  137MOL0     C18400   5.554   1.590  11.263 -0.0683 -0.0796  1.6985
  137MOL0     C18401   5.426   1.510  11.230 -0.1600 -0.3229  1.0141
  137MOL0     C18402   5.346   1.574  11.117  0.2987 -0.1867  0.1052
  137MOL0     C18403   5.275   1.461  11.049 -0.0880  0.1634  0.2457
  137MOL0    Cl18404   5.381   1.389  10.915 -0.4178 -0.4857  0.3198
  137MOL0     C18405   5.847   1.912  10.734 -0.8769  0.1375  0.2387
  137MOL0     C18406   5.814   1.987  10.617 -0.2008  0.6943  0.1089
  137MOL0     O18407   5.488   2.166  10.522  0.2665 -0.1978 -0.3093
  137MOL0     C18408   5.441   2.242  10.264  0.9749 -0.4245  0.8147
  137MOL0     C18409   5.417   2.280  10.131  1.2572  0.0866  0.5625
  137MOL0     N18410   5.730   2.820   9.841  0.0617 -0.2251 -0.2188
  137MOL0     N18411   5.714   2.942   9.799 -0.1658 -0.1006  0.1479
  137MOL0     C18412   5.034   3.756   9.192 -0.1752  0.0085 -0.3168
  137MOL0     C18413   4.903   3.777   9.146 -0.2588 -0.2038 -0.3763
  137MOL0     C18414   4.571   3.961   8.878 -0.2017  0.2088  1.0791
  137MOL0     C18415   4.497   3.843   8.880  0.4749  0.0459  0.2164
  137MOL0     C18416   4.361   3.840   8.841  0.3374  0.4878  0.3632
  137MOL0     C18417   4.301   3.952   8.793  0.6309  0.3510 -0.5136
  137MOL0     O18418   4.167   3.940   8.746 -0.3976  0.0481  0.6061
  137MOL0     C18419   4.084   4.061   8.750  0.2215  0.6620 -0.4888
  137MOL0     C18420   3.940   4.043   8.777  0.4904  0.2774  0.8661
  137MOL0     C18421   3.840   4.161   8.766 -0.1450  0.0396  0.1566
  137MOL0     C18422   3.697   4.121   8.803  0.5725 -0.6059  0.3711
  137MOL0     C18423   3.602   4.228   8.777  0.4475 -0.2885  0.4096
  137MOL0     C18424   3.527   4.304   8.733 -0.0674  0.2601  0.2831
  137MOL0     C18425   4.375   4.068   8.779 -0.3003 -0.3292  0.7847
  137MOL0     C18426   4.509   4.073   8.818 -0.0047  0.0404 -0.7476
  137MOL0     C18427   4.568   4.211   8.796  0.0340 -0.2431  0.9418
  137MOL0     H18428   4.992   3.908   8.841  1.9878  2.3812  1.2100
  137MOL0     H18429   5.204   3.863   8.914 -1.2868 -0.6515 -0.3933
  137MOL0     H18430   5.220   3.538   9.165  0.3606 -1.5051 -3.0054
  137MOL0     H18431   5.302   3.579   9.031 -3.7876 -0.7479 -0.1721
  137MOL0     H18432   5.465   3.661   9.279  2.5433 -0.8237 -0.7578
  137MOL0     H18433   5.505   3.596   9.117 -1.0441  2.3934 -1.0420
  137MOL0     H18434   5.560   3.430   9.259 -1.5358 -2.7715  0.0997
  137MOL0     H18435   5.397   3.385   9.199  1.0305 -0.9753 -0.8287
  137MOL0     H18436   5.449   3.481   9.483 -1.5418  1.5260  0.0401
  137MOL0     H18437   5.290   3.461   9.423  0.0102 -1.3934 -2.1862
  137MOL0     H18438   5.284   3.238   9.427  0.1775 -1.4802 -2.2331
  137MOL0     H18439   5.459   3.219   9.371  2.6729  0.0012  3.5154
  137MOL0     H18440   5.509   3.298   9.621 -2.9241  3.8980  0.2644
  137MOL0     H18441   5.335   3.272   9.628  0.9375  2.6902 -0.0473
  137MOL0     H18442   5.516   3.039   9.520 -1.7639 -3.9403  0.9349
  137MOL0     H18443   5.357   3.045   9.599  0.1160  1.0687 -0.6015
  137MOL0     H18444   5.601   3.151   9.735  1.0847 -0.8309  0.6390
  137MOL0     H18445   5.452   3.117   9.809  1.4637 -0.7717  0.7785
  137MOL0     H18446   5.420   2.815   9.748 -0.4026  3.4520  1.2443
  137MOL0     H18447   5.607   2.592   9.970  0.0178  3.3105  0.9712
  137MOL0     H18448   5.508   2.569   9.829 -1.9996  4.4834  1.1109
  137MOL0     H18449   5.689   2.505   9.683 -0.7306 -1.3265 -1.1732
  137MOL0     H18450   5.825   2.550   9.795  0.8341 -3.2563  1.4747
  137MOL0     H18451   5.729   2.378   9.951  0.1477 -0.4765 -0.3312
  137MOL0     H18452   5.801   2.321   9.794 -2.3077 -2.4062 -1.6404
  137MOL0     H18453   5.612   2.193   9.779  2.0986  1.7314 -0.7213
  137MOL0     H18454   5.543   2.343   9.718 -1.3030  1.3771  0.7231
  137MOL0     H18455   5.682   2.134   9.993  1.1744  0.1027 -0.3444
  137MOL0     H18456   5.715   2.050  10.210  0.0738  1.6219  1.2180
  137MOL0     H18457   5.494   1.875  10.565  1.0025 -2.7612 -0.6348
  137MOL0     H18458   5.563   1.728  10.757 -5.0308  3.9726  1.0009
  137MOL0     H18459   5.988   1.764  10.951  0.3507 -1.6931  0.5232
  137MOL0     H18460   5.886   1.882  11.026  0.9184  0.1854 -1.0510
  137MOL0     H18461   5.897   1.581  11.087 -1.2993  0.2176 -2.0090
  137MOL0     H18462   5.968   1.709  11.192  0.1890 -0.5460 -0.5764
  137MOL0     H18463   5.798   1.651  11.290 -0.4539 -1.2331 -0.7082
  137MOL0     H18464   5.740   1.809  11.227 -3.0194 -1.3594  2.8196
  137MOL0     H18465   5.678   1.534  11.094  1.4607  0.8899  0.3240
  137MOL0     H18466   5.595   1.696  11.081  0.7278 -0.2758  0.3349
  137MOL0     H18467   5.521   1.684  11.307 -4.8192 -0.9550  0.5176
  137MOL0     H18468   5.614   1.524  11.326  2.0838  0.2203  0.0842
  137MOL0     H18469   5.464   1.414  11.193 -1.0160 -0.5407  0.6889
  137MOL0     H18470   5.360   1.494  11.316 -1.0093 -0.8441  0.2708
  137MOL0     H18471   5.395   1.633  11.039  0.8257 -0.2464  0.3891
  137MOL0     H18472   5.270   1.627  11.174 -0.7025 -2.9142  1.4937
  137MOL0     H18473   5.236   1.388  11.121  0.9379 -2.4019 -1.6507
  137MOL0     H18474   5.185   1.498  10.998  0.7026  0.8376 -0.6738
  137MOL0     H18475   5.934   1.947  10.788  0.2793  1.0077 -2.0652
  137MOL0     H18476   5.888   2.051  10.569  0.0069 -0.1169 -0.6891
  137MOL0     H18477   5.366   2.283  10.331 -0.5849  1.6029 -1.9292
  137MOL0     H18478   5.332   2.347  10.123  1.7760  1.6231  4.9281
  137MOL0     H18479   5.057   3.699   9.281  0.4236  1.1915  0.3153
  137MOL0     H18480   4.829   3.735   9.212  1.4107 -0.2105  1.5675
  137MOL0     H18481   4.529   3.753   8.932 -2.7567  0.5949  3.5413
  137MOL0     H18482   4.320   3.741   8.853 -1.4761  1.1905  0.3187
  137MOL0     H18483   4.098   4.111   8.654  2.5371  0.9966 -0.0263
  137MOL0     H18484   4.124   4.124   8.830 -1.0833 -0.3124  0.9971
  137MOL0     H18485   3.935   3.994   8.875 -1.7907 -1.6186 -0.0856
  137MOL0     H18486   3.913   3.968   8.701  1.6895 -2.5146  3.0221
  137MOL0     H18487   3.833   4.190   8.661 -0.2609 -3.5165 -0.9725
  137MOL0     H18488   3.864   4.255   8.817 -0.1363  0.8281 -1.2599
  137MOL0     H18489   3.680   4.041   8.729 -3.1831 -2.0946  2.5657
  137MOL0     H18490   3.691   4.083   8.905  2.6805 -0.4942  0.5731
  137MOL0     H18491   3.471   4.377   8.678 -3.3164 -1.0083  1.6816
  137MOL0     H18492   4.325   4.145   8.721  2.4303  0.1312 -1.1677
  137MOL0     H18493   4.662   4.215   8.740  0.2952  2.0230  1.4451
  137MOL0     H18494   4.502   4.271   8.733 -0.7217 -1.8245  0.1568
  137MOL0     H18495   4.571   4.276   8.884 -0.0464  1.4309 -0.2440
  138MOL0     O18496  10.929   5.314   3.827  0.2220  0.2473  1.0716
  138MOL0     C18497  10.808   5.325   3.850 -0.2368  0.3668  0.9455
  138MOL0     O18498  10.752   5.401   3.947 -0.1909  0.4372  0.8551
  138MOL0     C18499  10.835   5.468   4.030 -0.0392 -0.1106  1.0025
  138MOL0     C18500  10.837   5.610   4.023  0.3929  0.9220 -0.0834
  138MOL0     C18501  10.941   5.675   4.092  0.2137 -0.8825  1.1924
  138MOL0     C18502  11.045   5.600   4.157 -0.2953  0.5731  0.4509
  138MOL0     O18503  11.168   5.657   4.194  0.2014 -0.0328 -0.5708
  138MOL0     C18504  11.166   5.798   4.199  0.1572 -0.0781  0.1030
  138MOL0     C18505  11.297   5.841   4.255  0.0904  0.1224 -1.3164
  138MOL0     C18506  11.321   5.995   4.249  0.2263 -0.4021  0.1751
  138MOL0     C18507  11.469   6.034   4.258 -0.7125  0.7439  0.4592
  138MOL0     C18508  11.490   6.191   4.228  0.1319 -0.5995  0.9042
  138MOL0     C18509  11.639   6.248   4.235  0.6023  0.2154 -0.0829
  138MOL0     C18510  11.697   6.267   4.375 -0.5810 -0.4742 -0.5986
  138MOL0     C18511  11.813   6.380   4.365 -0.4096  0.5536 -0.5138
  138MOL0     N18512  11.766   6.507   4.310  0.4639 -0.3191  0.2807
  138MOL0     C18513  11.673   6.593   4.365  0.1655  0.4758 -0.1025
  138MOL0     C18514  11.658   6.695   4.281 -0.3733  0.3031 -0.0199
  138MOL0     C18515  11.564   6.821   4.289 -0.5159 -0.2879  0.7619
  138MOL0     C18516  11.446   6.805   4.195 -0.5744 -0.2030 -0.1791
  138MOL0     C18517  11.355   6.927   4.215  0.3849  0.8270 -0.0484
  138MOL0     C18518  11.234   6.928   4.126  0.0825 -0.0386  1.1062
  138MOL0     O18519  11.158   6.804   4.142 -0.1243 -0.5335  0.7347
  138MOL0     C18520  11.105   6.773   4.266 -0.7029 -0.6624  0.6221
  138MOL0     C18521  11.161   6.659   4.322  0.4025 -0.1607  0.4897
  138MOL0     C18522  11.140   6.621   4.454 -0.1103 -0.6573  0.3917
  138MOL0     C18523  11.036   6.697   4.518 -1.2654  0.6597  0.8910
  138MOL0     C18524  10.991   6.658   4.660  0.0553  0.8967  0.3757
  138MOL0     O18525  10.943   6.761   4.736 -0.3103 -0.6439 -0.0667
  138MOL0     C18526  10.882   6.714   4.852  0.4014 -0.4842  0.9196
  138MOL0     C18527  10.946   6.657   4.965 -0.4535  0.4466  0.5953
  138MOL0     C18528  10.870   6.606   5.070 -0.5470 -0.7036  0.2923
  138MOL0     C18529  10.733   6.638   5.074  0.3670  0.1877  0.8628
  138MOL0     O18530  10.668   6.594   5.187 -0.6761  1.1325 -0.8727
  138MOL0     C18531  10.591   6.685   5.258 -0.0396 -0.3749 -0.9385
  138MOL0     C18532  10.607   6.656   5.398 -1.1104 -0.1288 -0.2463
  138MOL0     C18533  10.532   6.537   5.453 -0.1261  0.0696  0.4799
  138MOL0     C18534  10.378   6.578   5.487 -0.6107 -0.0614 -0.2941
  138MOL0     C18535  10.357   6.620   5.640  0.3418 -0.5047  0.9245
  138MOL0     C18536  10.206   6.641   5.658 -0.6112  0.7135  0.5777
  138MOL0     C18537  10.162   6.622   5.799 -0.1742  0.0944  0.0238
  138MOL0     C18538  10.180   6.480   5.861  0.0819  0.3264 -0.7029
  138MOL0    Cl18539  10.039   6.419   5.972 -0.0628 -0.2594  0.1314
  138MOL0     C18540  10.670   6.707   4.969 -1.3044 -0.3849 -1.1977
  138MOL0     C18541  10.742   6.740   4.857 -0.3543  0.7563  1.3528
  138MOL0     O18542  11.001   6.535   4.694  0.4366 -0.5282  0.1050
  138MOL0     C18543  10.974   6.811   4.458 -0.8645 -0.3440 -0.5242
  138MOL0     C18544  11.009   6.855   4.328  0.6855  0.5031 -0.1901
  138MOL0     N18545  11.743   6.678   4.176  0.0192  0.1968  0.4535
  138MOL0     N18546  11.806   6.567   4.198 -0.0614  0.6005 -1.2877
  138MOL0     C18547  11.023   5.466   4.179 -0.0441  0.3340 -0.4706
  138MOL0     C18548  10.919   5.401   4.111 -0.3953 -0.3342 -0.4144
  138MOL0     C18549  10.714   5.263   3.760  0.5944 -0.1092  0.0222
  138MOL0     C18550  10.583   5.308   3.746  0.1685  0.1964 -0.0274
  138MOL0     C18551  10.502   5.257   3.646 -0.4817 -0.7110  0.2013
  138MOL0     C18552  10.551   5.154   3.562  0.4643 -1.0500  0.3428
  138MOL0     O18553  10.467   5.109   3.470 -0.2570  0.6929 -0.6839
  138MOL0     C18554  10.382   5.003   3.513  0.0917  0.8563  0.4783
  138MOL0     C18555  10.357   4.927   3.387  0.7109 -0.3835 -0.6505
  138MOL0     C18556  10.484   4.896   3.300 -0.3617  0.0891  0.4390
  138MOL0     C18557  10.461   4.836   3.161  1.3748 -0.2115  0.0399
  138MOL0     C18558  10.390   4.708   3.165 -0.7001  0.1899 -0.7713
  138MOL0     C18559  10.320   4.610   3.166 -0.2672  0.4825 -0.2109
  138MOL0     C18560  10.675   5.103   3.567 -0.2933  0.0756 -0.3571
  138MOL0     C18561  10.756   5.157   3.668 -0.4484 -0.5206 -0.0713
  138MOL0     C18562  10.889   5.084   3.674 -0.5594  0.5728  0.0941
  138MOL0     H18563  10.763   5.652   3.956  0.7276 -2.2488 -2.7245
  138MOL0     H18564  10.943   5.783   4.080  0.1799 -0.8654  1.3373
  138MOL0     H18565  11.167   5.844   4.099 -1.1127 -1.2482 -0.4849
  138MOL0     H18566  11.087   5.839   4.262  1.4720  0.8864  1.1670
  138MOL0     H18567  11.373   5.791   4.194  0.0919 -0.1326 -1.1022
  138MOL0     H18568  11.321   5.816   4.358 -0.7439 -2.0772 -1.6028
  138MOL0     H18569  11.266   6.041   4.332  0.6083  0.1434  0.1314
  138MOL0     H18570  11.275   6.036   4.159 -2.2218 -2.4795  0.3845
  138MOL0     H18571  11.514   6.010   4.355  2.8377 -1.1127 -1.4662
  138MOL0     H18572  11.528   5.969   4.194 -1.2430  0.9030 -0.1955
  138MOL0     H18573  11.452   6.188   4.126 -2.4036 -2.2977  1.8129
  138MOL0     H18574  11.433   6.253   4.297  0.0139 -0.4184  0.6454
  138MOL0     H18575  11.696   6.175   4.178 -1.3926  0.0231 -1.9419
  138MOL0     H18576  11.646   6.342   4.180  4.6213 -0.4507 -0.9685
  138MOL0     H18577  11.724   6.167   4.412 -1.1139 -0.0536  1.0242
  138MOL0     H18578  11.623   6.308   4.445  1.2503 -0.1464  1.2388
  138MOL0     H18579  11.847   6.399   4.468  2.7982  1.8334 -1.6869
  138MOL0     H18580  11.894   6.335   4.307 -1.8060  0.4938 -2.4920
  138MOL0     H18581  11.638   6.585   4.468  0.8961 -1.5805  0.0284
  138MOL0     H18582  11.546   6.843   4.395 -4.3113 -3.5222  1.0113
  138MOL0     H18583  11.630   6.900   4.251  0.7400 -2.5165 -2.0349
  138MOL0     H18584  11.478   6.779   4.094 -2.6229  0.2823 -1.0126
  138MOL0     H18585  11.389   6.715   4.220  1.8592 -2.3055 -1.8107
  138MOL0     H18586  11.413   7.016   4.186 -0.2054  0.9387 -0.9364
  138MOL0     H18587  11.321   6.930   4.318 -0.5072 -2.7265 -0.1353
  138MOL0     H18588  11.259   6.949   4.022  0.5310 -0.2403  1.1717
  138MOL0     H18589  11.162   7.007   4.153 -1.8915 -1.0862 -0.8185
  138MOL0     H18590  11.232   6.595   4.270  3.0188  3.4054 -0.7247
  138MOL0     H18591  11.199   6.549   4.510  2.0979  1.5836  1.1039
  138MOL0     H18592  11.054   6.656   4.974 -0.3115  1.1147 -0.7857
  138MOL0     H18593  10.927   6.568   5.154  0.8167 -0.1216 -0.3361
  138MOL0     H18594  10.627   6.786   5.239  0.4480 -0.2546  0.5116
  138MOL0     H18595  10.487   6.671   5.227  0.0448 -0.4693 -1.1741
  138MOL0     H18596  10.713   6.638   5.415 -1.2212 -2.8179 -1.8029
  138MOL0     H18597  10.587   6.742   5.462 -0.9192  0.5630 -1.1033
  138MOL0     H18598  10.513   6.456   5.383 -2.4127 -1.9285  3.1508
  138MOL0     H18599  10.574   6.512   5.551  0.9366  1.4450  0.3901
  138MOL0     H18600  10.314   6.491   5.468 -1.8816  0.3726  1.6874
  138MOL0     H18601  10.343   6.654   5.417 -0.0140  0.8586  0.3814
  138MOL0     H18602  10.409   6.712   5.668  1.0130 -0.8438  0.8066
  138MOL0     H18603  10.391   6.544   5.711 -2.9474 -0.6653  2.5152
  138MOL0     H18604  10.173   6.740   5.626  1.0605  1.2695  0.4844
  138MOL0     H18605  10.155   6.570   5.591  1.5585 -0.0583 -0.3450
  138MOL0     H18606  10.057   6.652   5.804 -1.0309 -2.1648 -2.2787
  138MOL0     H18607  10.225   6.690   5.858 -0.7869 -0.5797  1.5094
  138MOL0     H18608  10.209   6.404   5.787 -0.7210 -1.8685  1.1196
  138MOL0     H18609  10.266   6.494   5.926 -1.3198  0.1309  1.2899
  138MOL0     H18610  10.564   6.733   4.973 -1.6977 -2.0138  2.2054
  138MOL0     H18611  10.698   6.804   4.782 -0.4179  0.6382  1.2887
  138MOL0     H18612  10.891   6.872   4.494  1.1055  1.0793  1.9531
  138MOL0     H18613  10.953   6.936   4.282 -0.4256 -0.0894  0.1045
  138MOL0     H18614  11.097   5.397   4.220 -0.9629 -0.3620  0.0571
  138MOL0     H18615  10.894   5.299   4.138 -2.6212  1.0536  3.7214
  138MOL0     H18616  10.537   5.392   3.798 -2.0764 -1.1567  0.3179
  138MOL0     H18617  10.399   5.288   3.631 -0.8565 -1.5881  0.8494
  138MOL0     H18618  10.295   5.047   3.561 -1.7970 -0.7207 -1.2869
  138MOL0     H18619  10.433   4.934   3.581 -0.4252 -1.9975 -1.8116
  138MOL0     H18620  10.281   4.983   3.332  0.0402  0.3344  0.9274
  138MOL0     H18621  10.311   4.829   3.403  2.1497 -0.8102  1.1453
  138MOL0     H18622  10.547   4.826   3.356 -1.8174 -1.6361  0.0256
  138MOL0     H18623  10.536   4.988   3.270 -1.8039  0.0390 -2.5765
  138MOL0     H18624  10.391   4.898   3.104  2.0512 -0.9841 -1.6756
  138MOL0     H18625  10.554   4.832   3.105  2.1187 -1.4870  1.3007
  138MOL0     H18626  10.255   4.529   3.143 -0.3652  1.4213 -3.8195
  138MOL0     H18627  10.718   5.030   3.499  2.4568  1.7299 -0.5337
  138MOL0     H18628  10.921   5.090   3.778 -1.9869  4.2179  0.4829
  138MOL0     H18629  10.874   4.981   3.642 -1.6426  1.4403 -2.5088
  138MOL0     H18630  10.955   5.142   3.608 -2.1215 -0.4942 -2.5629
  139MOL0     O18631   6.670   9.800   0.646  0.4183 -0.6664  1.3746
  139MOL0     C18632   6.650   9.732   0.748  0.6423  0.5997  0.3792
  139MOL0     O18633   6.683   9.770   0.879 -0.6772 -0.6200  1.1126
  139MOL0     C18634   6.752   9.889   0.884  0.4582 -0.6322 -0.4035
  139MOL0     C18635   6.686   9.988   0.957  0.1453  0.7554 -0.3267
  139MOL0     C18636   6.761  10.103   0.994 -0.2500  0.0660  0.2574
  139MOL0     C18637   6.897  10.114   0.970  0.1167  0.1152  0.8766
  139MOL0     O18638   6.957  10.225   1.022 -0.3523  0.7867 -0.1530
  139MOL0     C18639   7.100  10.247   1.039  0.0478 -0.4730  0.5149
  139MOL0     C18640   7.179  10.137   1.129  0.3366  0.3675 -0.7365
  139MOL0     C18641   7.337  10.159   1.130  2.2322  0.1867 -0.3483
  139MOL0     C18642   7.406  10.054   1.229  0.1475  0.1968 -0.4144
  139MOL0     C18643   7.355  10.049   1.370  0.6935  0.4454 -0.1516
  139MOL0     C18644   7.442   9.952   1.448 -0.8739 -0.2327  0.5991
  139MOL0     C18645   7.375   9.915   1.592  0.1864 -0.2268  0.0955
  139MOL0     C18646   7.369  10.031   1.696  0.1688 -0.0336  0.0732
  139MOL0     N18647   7.295   9.994   1.818 -0.0583 -0.3999 -0.0800
  139MOL0     C18648   7.164  10.027   1.842 -0.0480 -0.9821  0.3976
  139MOL0     C18649   7.141  10.014   1.971 -0.3294 -0.4862  0.2037
  139MOL0     C18650   7.016  10.047   2.047  0.2107 -0.4496  0.0218
  139MOL0     C18651   7.041  10.143   2.169 -0.3365 -0.0788  0.0531
  139MOL0     C18652   7.060  10.287   2.120  0.3507  0.0044  0.5742
  139MOL0     C18653   6.926  10.364   2.104 -0.1050 -0.3075  0.5569
  139MOL0     O18654   6.861  10.323   1.983  0.0742  0.6406  1.4046
  139MOL0     C18655   6.721  10.332   1.961 -0.4777 -0.3821 -0.2060
  139MOL0     C18656   6.632  10.391   2.052 -0.6639 -1.0197  0.3218
  139MOL0     C18657   6.498  10.399   2.027  0.8680 -0.3853  0.3669
  139MOL0     C18658   6.452  10.327   1.913  0.0842  0.8456 -0.2730
  139MOL0     C18659   6.303  10.338   1.875  0.7168 -0.6886  0.4484
  139MOL0     O18660   6.212  10.389   1.966  0.4601  0.1742  0.8315
  139MOL0     C18661   6.083  10.411   1.929 -0.0031 -0.6318  0.0566
  139MOL0     C18662   6.053  10.521   1.837  0.4833  0.6992  0.5983
  139MOL0     C18663   5.921  10.531   1.809  0.0082 -0.5838 -0.4126
  139MOL0     C18664   5.816  10.445   1.844  0.5601 -0.2369  0.0569
  139MOL0     O18665   5.691  10.443   1.780 -0.5915 -0.2531 -0.0479
  139MOL0     C18666   5.608  10.554   1.792 -0.4652 -0.2281  0.4113
  139MOL0     C18667   5.462  10.519   1.755  0.3393 -0.0357 -0.7630
  139MOL0     C18668   5.438  10.516   1.602 -0.2317 -0.0738 -1.0879
  139MOL0     C18669   5.288  10.528   1.568  0.5216  0.1236 -0.2911
  139MOL0     C18670   5.250  10.505   1.419  0.0783  0.3243  0.0109
  139MOL0     C18671   5.212  10.365   1.388  0.9528  0.1692 -0.2311
  139MOL0     C18672   5.123  10.360   1.265 -0.4928  0.3611  0.0456
  139MOL0     C18673   5.186  10.360   1.129 -0.3257 -1.0839  0.5944
  139MOL0    Cl18674   5.283  10.227   1.085 -0.0408 -0.5501 -0.1993
  139MOL0     C18675   5.850  10.355   1.945  1.4434 -0.5022 -0.1724
  139MOL0     C18676   5.974  10.348   1.996  0.3728  0.5823 -0.1236
  139MOL0     O18677   6.273  10.284   1.769  0.3543  0.4124 -0.7270
  139MOL0     C18678   6.543  10.274   1.821 -0.4454 -0.4834  0.3313
  139MOL0     C18679   6.678  10.279   1.849 -0.0883 -0.0150 -0.3096
  139MOL0     N18680   7.260   9.972   2.028 -0.4549 -0.5607  0.3455
  139MOL0     N18681   7.342   9.945   1.932 -0.1529  0.6148 -0.5160
  139MOL0     C18682   6.963  10.008   0.896 -0.3964  0.3097  1.1218
  139MOL0     C18683   6.888   9.889   0.858 -0.7697 -0.1793 -0.2422
  139MOL0     C18684   6.590   9.592   0.724 -0.2424 -0.0325  0.0619
  139MOL0     C18685   6.627   9.526   0.607  0.1614  0.5416 -0.6022
  139MOL0     C18686   6.590   9.391   0.595 -1.4668 -0.2123 -0.3233
  139MOL0     C18687   6.498   9.324   0.672  0.2164  0.0660 -0.3675
  139MOL0     O18688   6.448   9.196   0.644  0.2838 -0.3244 -0.0066
  139MOL0     C18689   6.505   9.106   0.551 -0.5291 -0.4569  0.4212
  139MOL0     C18690   6.449   9.125   0.413 -0.8350 -0.1570 -0.3169
  139MOL0     C18691   6.302   9.116   0.408  0.1634 -0.0701  0.0500
  139MOL0     C18692   6.238   9.085   0.280  0.0156 -0.0954  0.0662
  139MOL0     C18693   6.236   8.948   0.237  0.1351  0.0261 -0.3278
  139MOL0     C18694   6.245   8.835   0.202 -0.4991  0.4714 -0.0702
  139MOL0     C18695   6.433   9.404   0.774  0.1488  0.4750 -1.1466
  139MOL0     C18696   6.490   9.530   0.814 -0.0051 -0.4451  0.3009
  139MOL0     C18697   6.425   9.599   0.934 -0.0659  0.9537 -0.0210
  139MOL0     H18698   6.579   9.976   0.975  0.3899 -3.6167 -0.6746
  139MOL0     H18699   6.725  10.183   1.059 -0.8987 -2.2924  3.0227
  139MOL0     H18700   7.146  10.247   0.939  2.3694  1.2403  1.4914
  139MOL0     H18701   7.115  10.344   1.087  3.4184 -2.3345  3.6845
  139MOL0     H18702   7.156  10.035   1.099 -0.7569 -0.0895  1.4190
  139MOL0     H18703   7.143  10.141   1.233  1.1386  0.0242 -0.4415
  139MOL0     H18704   7.359  10.263   1.158  1.7535  0.5292 -1.2061
  139MOL0     H18705   7.384  10.137   1.034  1.8960 -3.0151  0.1002
  139MOL0     H18706   7.416   9.955   1.184 -2.4707 -0.3846  0.1448
  139MOL0     H18707   7.509  10.090   1.233 -0.9152  3.5299 -0.3414
  139MOL0     H18708   7.356  10.153   1.403 -1.0264  2.0988 -4.5500
  139MOL0     H18709   7.249  10.020   1.370  0.4305  1.3146 -1.1963
  139MOL0     H18710   7.462   9.867   1.383  1.7642  3.1456 -3.4769
  139MOL0     H18711   7.542   9.989   1.469 -0.4918 -0.4922 -0.6954
  139MOL0     H18712   7.436   9.832   1.631  1.6271  1.2168  1.0449
  139MOL0     H18713   7.273   9.877   1.577  0.1081 -0.0866  0.2569
  139MOL0     H18714   7.475  10.050   1.716 -0.0805  1.3545  0.2025
  139MOL0     H18715   7.322  10.122   1.658 -3.8854 -2.1886 -0.6232
  139MOL0     H18716   7.105  10.060   1.758  3.1232  0.8117 -1.3247
  139MOL0     H18717   6.949  10.096   1.976 -0.7241 -0.3209  0.9710
  139MOL0     H18718   6.975   9.949   2.073 -1.9937  1.1698  3.2959
  139MOL0     H18719   6.951  10.136   2.232 -1.1869  1.5256 -0.9196
  139MOL0     H18720   7.123  10.098   2.226  2.0447  2.1423 -1.4221
  139MOL0     H18721   7.118  10.285   2.027 -3.5373 -4.7516 -2.2983
  139MOL0     H18722   7.123  10.345   2.187  0.3296  1.2105 -0.4141
  139MOL0     H18723   6.950  10.471   2.100  0.8980 -0.5468 -2.0797
  139MOL0     H18724   6.862  10.348   2.191  1.9845 -2.1339  1.8439
  139MOL0     H18725   6.674  10.434   2.143  1.0626  2.3268 -1.8782
  139MOL0     H18726   6.424  10.436   2.098  0.8120  0.2009  0.0065
  139MOL0     H18727   6.120  10.586   1.782 -0.9411  3.2078  1.6523
  139MOL0     H18728   5.887  10.608   1.740 -0.7975  0.9642  1.6189
  139MOL0     H18729   5.618  10.585   1.897 -2.4132  0.9866  0.2802
  139MOL0     H18730   5.644  10.641   1.735  1.4612 -1.7090 -0.7669
  139MOL0     H18731   5.430  10.428   1.807 -0.4449  1.2019  1.0126
  139MOL0     H18732   5.406  10.603   1.796  2.1365  0.6708  0.3633
  139MOL0     H18733   5.488  10.602   1.557 -1.3278  1.1430 -0.0855
  139MOL0     H18734   5.483  10.422   1.568 -1.5307 -1.0068 -0.3149
  139MOL0     H18735   5.264  10.633   1.585 -0.6365 -0.4771  2.2003
  139MOL0     H18736   5.220  10.478   1.637 -2.2369  0.4235 -2.6003
  139MOL0     H18737   5.344  10.517   1.365  1.9281 -0.7455  2.7785
  139MOL0     H18738   5.173  10.577   1.389 -1.1197 -1.5258 -1.6403
  139MOL0     H18739   5.299  10.305   1.361 -0.5078 -1.7489 -0.9619
  139MOL0     H18740   5.153  10.315   1.466  0.7887 -0.4458 -0.7385
  139MOL0     H18741   5.052  10.444   1.266 -0.6636  0.4172 -3.3338
  139MOL0     H18742   5.068  10.266   1.280  0.6213  0.0811  2.9665
  139MOL0     H18743   5.110  10.359   1.050  0.7490  0.0049 -0.5037
  139MOL0     H18744   5.255  10.443   1.110 -2.0297  0.4823  0.9526
  139MOL0     H18745   5.777  10.284   1.983  1.3094  0.4963  1.5529
  139MOL0     H18746   6.001  10.277   2.074 -0.2976 -1.2067 -1.4732
  139MOL0     H18747   6.511  10.236   1.725 -1.7312  0.8222  0.2140
  139MOL0     H18748   6.758  10.243   1.784  0.8125  2.8545 -0.9264
  139MOL0     H18749   7.068  10.009   0.871  0.0268 -2.6274  2.3631
  139MOL0     H18750   6.933   9.809   0.799  3.0752 -0.9310  3.2064
  139MOL0     H18751   6.686   9.573   0.530  0.7742 -0.2928 -0.6511
  139MOL0     H18752   6.630   9.348   0.504  0.0995  0.1276  0.1672
  139MOL0     H18753   6.498   9.007   0.598 -1.2724  1.4312  4.8097
  139MOL0     H18754   6.611   9.129   0.535 -0.2680 -1.1796  1.0150
  139MOL0     H18755   6.506   9.053   0.352  2.3611  1.1819  0.8681
  139MOL0     H18756   6.475   9.222   0.369 -1.3156  0.3958  0.5832
  139MOL0     H18757   6.288   9.218   0.444 -4.6554 -0.9668  1.4816
  139MOL0     H18758   6.276   9.055   0.495  4.2146  1.4106  2.5847
  139MOL0     H18759   6.135   9.112   0.305  1.1471  1.4194  3.6777
  139MOL0     H18760   6.283   9.139   0.196 -2.0149  1.7370  0.0486
  139MOL0     H18761   6.250   8.732   0.174 -0.0598  0.2134  0.9033
  139MOL0     H18762   6.354   9.349   0.825  0.9063 -0.1514 -0.6084
  139MOL0     H18763   6.333   9.648   0.899 -0.7941 -0.4669 -0.1690
  139MOL0     H18764   6.401   9.530   1.015  0.0408  0.7479 -0.1627
  139MOL0     H18765   6.496   9.659   0.992  2.4321 -1.6644 -0.1517
  140MOL0     O18766   7.547   5.797   7.613 -0.4105  0.2056  0.3752
  140MOL0     C18767   7.474   5.753   7.519 -0.4915  1.0681  1.3505
  140MOL0     O18768   7.502   5.776   7.387  0.1101  0.5793  0.2197
  140MOL0     C18769   7.606   5.845   7.351  0.2143  0.1346 -0.3278
  140MOL0     C18770   7.599   5.981   7.339  0.4179 -0.2923  0.5538
  140MOL0     C18771   7.702   6.060   7.303 -0.2470  1.0924 -0.0258
  140MOL0     C18772   7.821   5.997   7.262 -0.4465  0.1482  0.1389
  140MOL0     O18773   7.923   6.062   7.204  0.1061  0.1986  0.2189
  140MOL0     C18774   7.945   6.199   7.250  0.0621 -0.6779  0.5101
  140MOL0     C18775   8.098   6.219   7.235  0.4976 -0.0593  0.3152
  140MOL0     C18776   8.136   6.227   7.084 -0.0606  0.8449 -0.6388
  140MOL0     C18777   8.290   6.230   7.073  0.7480 -0.0725  0.0136
  140MOL0     C18778   8.352   6.088   7.078 -0.2751  0.1172 -0.6213
  140MOL0     C18779   8.498   6.107   7.045 -0.5304  1.0258  0.7833
  140MOL0     C18780   8.567   5.973   7.025  0.0077 -0.5907 -0.1291
  140MOL0     C18781   8.511   5.879   6.926  0.0927 -0.1162 -0.3036
  140MOL0     N18782   8.591   5.765   6.887 -0.5231 -0.1036 -0.4924
  140MOL0     C18783   8.613   5.731   6.760 -0.2025  0.0688 -0.7618
  140MOL0     C18784   8.653   5.603   6.760  0.2229  0.6928 -0.5178
  140MOL0     C18785   8.687   5.521   6.639  0.2279  0.2106 -0.0910
  140MOL0     C18786   8.774   5.392   6.648  0.6301  0.9440  0.6775
  140MOL0     C18787   8.913   5.424   6.712 -0.9053 -0.0280 -0.2802
  140MOL0     C18788   9.010   5.302   6.723  0.8464  0.9434 -1.0589
  140MOL0     O18789   9.056   5.277   6.592 -0.3808 -0.1438 -0.4151
  140MOL0     C18790   9.183   5.226   6.578 -1.3349  0.0916 -0.5150
  140MOL0     C18791   9.244   5.144   6.678 -0.0640 -0.2935 -0.3724
  140MOL0     C18792   9.366   5.086   6.663  0.4294  0.7505 -0.0063
  140MOL0     C18793   9.427   5.102   6.530  0.2572 -0.0763 -0.9188
  140MOL0     C18794   9.565   5.046   6.507  0.8867  0.4773 -0.9369
  140MOL0     O18795   9.583   4.915   6.533 -0.5507  0.0408 -0.4764
  140MOL0     C18796   9.699   4.852   6.494 -0.3134 -0.9810 -1.1362
  140MOL0     C18797   9.763   4.859   6.379 -0.3592 -0.2293  0.0267
  140MOL0     C18798   9.875   4.795   6.357 -0.8562  0.8290 -0.1722
  140MOL0     C18799   9.938   4.723   6.460 -0.0437 -0.1235 -0.6765
  140MOL0     O18800  10.066   4.671   6.443 -0.3960 -0.5090 -0.5349
  140MOL0     C18801  10.142   4.608   6.557  0.6903  0.1791 -0.0971
  140MOL0     C18802  10.100   4.463   6.581 -0.1636  0.0085  0.0539
  140MOL0     C18803  10.188   4.386   6.688  0.6437 -0.0030 -0.9750
  140MOL0     C18804  10.313   4.321   6.630 -0.0861  0.1506 -1.0256
  140MOL0     C18805  10.399   4.242   6.731  0.1960  0.3257  0.9791
  140MOL0     C18806  10.445   4.322   6.849 -0.0735  0.5593  0.1773
  140MOL0     C18807  10.528   4.450   6.830  1.2358 -0.0697 -0.8237
  140MOL0     C18808  10.655   4.440   6.762  0.1627  0.3940  0.4440
  140MOL0    Cl18809  10.724   4.601   6.743 -0.5065 -0.1111 -0.2600
  140MOL0     C18810   9.863   4.702   6.580  0.1759  0.5745 -0.8646
  140MOL0     C18811   9.745   4.762   6.596  0.7875 -0.0246  0.4226
  140MOL0     O18812   9.648   5.125   6.476  0.1242  0.1555 -0.6635
  140MOL0     C18813   9.372   5.187   6.441 -0.0735 -0.2190  0.4007
  140MOL0     C18814   9.257   5.258   6.460 -0.6856  0.2931 -0.0569
  140MOL0     N18815   8.650   5.562   6.894  0.4534 -0.0031  0.0354
  140MOL0     N18816   8.611   5.659   6.963  0.5530  0.1394 -0.4851
  140MOL0     C18817   7.832   5.865   7.271 -0.2749  0.1475 -0.7453
  140MOL0     C18818   7.730   5.788   7.325  0.3426 -0.4065  0.0800
  140MOL0     C18819   7.347   5.670   7.546  0.6356 -0.2468  0.0126
  140MOL0     C18820   7.313   5.645   7.675  0.3740 -0.6268 -0.4006
  140MOL0     C18821   7.193   5.582   7.723  0.4278 -0.6483 -0.5152
  140MOL0     C18822   7.106   5.535   7.625 -1.1223 -0.4427 -0.6032
  140MOL0     O18823   6.999   5.464   7.665 -1.4763  0.0356 -0.5715
  140MOL0     C18824   6.879   5.548   7.707 -0.5106  0.7353  0.3039
  140MOL0     C18825   6.867   5.518   7.852 -0.4496 -0.6003 -0.0754
  140MOL0     C18826   6.743   5.572   7.915  0.7594 -0.4693  0.5283
  140MOL0     C18827   6.770   5.616   8.051 -0.6767 -0.6717 -0.0166
  140MOL0     C18828   6.651   5.694   8.089  0.2400 -0.1473 -0.5848
  140MOL0     C18829   6.549   5.735   8.141  0.0614 -1.3024  0.4341
  140MOL0     C18830   7.133   5.554   7.495 -0.5920 -0.3592 -0.0247
  140MOL0     C18831   7.249   5.619   7.450  0.8141 -1.0801  0.2330
  140MOL0     C18832   7.261   5.648   7.297  0.2479  0.9231  0.5707
  140MOL0     H18833   7.504   6.015   7.380  0.2541 -0.0626  0.0048
  140MOL0     H18834   7.683   6.164   7.325 -2.2606  0.1933  3.3084
  140MOL0     H18835   7.896   6.259   7.173  1.6660 -0.4836 -0.3981
  140MOL0     H18836   7.907   6.225   7.350 -1.2212  0.7346 -0.3026
  140MOL0     H18837   8.137   6.128   7.282  0.6203 -0.3749 -0.3853
  140MOL0     H18838   8.129   6.313   7.280 -1.5644 -0.2830  2.4209
  140MOL0     H18839   8.102   6.318   7.033 -2.4862  0.4798  0.1988
  140MOL0     H18840   8.087   6.149   7.026 -1.8598  1.7195 -0.3758
  140MOL0     H18841   8.315   6.279   6.977  0.0495  0.2718  0.0029
  140MOL0     H18842   8.348   6.296   7.139  2.6341 -2.5639  1.0002
  140MOL0     H18843   8.325   6.047   7.176  3.5947 -4.8776 -1.1909
  140MOL0     H18844   8.302   6.031   6.999  0.6781  1.0433 -1.9328
  140MOL0     H18845   8.505   6.167   6.953  0.7815  1.6691  1.2747
  140MOL0     H18846   8.554   6.173   7.111 -1.7051  1.5693  1.2629
  140MOL0     H18847   8.567   5.924   7.123 -0.1551 -1.3961 -0.5254
  140MOL0     H18848   8.673   5.992   7.005 -0.3240 -0.6902 -2.2401
  140MOL0     H18849   8.416   5.840   6.961 -0.2315  2.9120  2.7254
  140MOL0     H18850   8.495   5.931   6.831  2.9971 -2.0757 -2.0371
  140MOL0     H18851   8.593   5.802   6.680 -2.3636  1.0876  0.5902
  140MOL0     H18852   8.597   5.475   6.597 -1.7254  0.9402  2.9842
  140MOL0     H18853   8.726   5.591   6.564 -0.7984  3.3173  2.0966
  140MOL0     H18854   8.724   5.319   6.713 -0.3942  0.8667 -0.1672
  140MOL0     H18855   8.790   5.348   6.549  0.5527 -1.0544  1.5030
  140MOL0     H18856   8.890   5.467   6.810 -1.2551  5.1525 -2.3018
  140MOL0     H18857   8.962   5.506   6.658 -1.8633  2.0544  1.8595
  140MOL0     H18858   8.956   5.216   6.765 -1.1243  2.5573 -0.1270
  140MOL0     H18859   9.096   5.323   6.788  2.0416  2.1754 -2.9262
  140MOL0     H18860   9.192   5.120   6.771 -1.4425  0.7346 -0.8349
  140MOL0     H18861   9.428   5.053   6.746 -0.6081  1.8594  1.2582
  140MOL0     H18862   9.735   4.931   6.303  2.3166 -0.1764 -1.0247
  140MOL0     H18863   9.932   4.814   6.267 -0.7665  3.9831  0.4093
  140MOL0     H18864  10.246   4.612   6.524  0.0948  0.1261 -2.1087
  140MOL0     H18865  10.122   4.674   6.641  0.9286 -0.0506  0.1411
  140MOL0     H18866  10.000   4.454   6.624 -1.8623  0.3101 -3.4855
  140MOL0     H18867  10.094   4.416   6.482  0.4009  1.6657 -0.7991
  140MOL0     H18868  10.232   4.461   6.755  2.2784 -0.5831 -1.3629
  140MOL0     H18869  10.137   4.309   6.746  2.0083  0.5826  1.1361
  140MOL0     H18870  10.369   4.397   6.574  1.5090  1.2563  1.8412
  140MOL0     H18871  10.277   4.240   6.566  1.7231 -3.3926  2.0682
  140MOL0     H18872  10.488   4.197   6.686 -0.4225 -0.9387  0.9783
  140MOL0     H18873  10.335   4.161   6.768  1.3962 -1.3253 -0.4189
  140MOL0     H18874  10.357   4.360   6.902  1.6041  2.8027  1.5079
  140MOL0     H18875  10.496   4.244   6.906  1.3017 -0.1529 -1.9142
  140MOL0     H18876  10.534   4.474   6.936  0.3868  0.6604 -0.9372
  140MOL0     H18877  10.467   4.522   6.776  1.7868  0.1404 -1.1740
  140MOL0     H18878  10.727   4.387   6.826  3.6106  0.9271 -2.6183
  140MOL0     H18879  10.643   4.391   6.665 -2.0271 -0.1504  0.9316
  140MOL0     H18880   9.895   4.627   6.651 -1.0075 -3.2433 -3.9580
  140MOL0     H18881   9.697   4.735   6.689 -1.3686 -1.3647 -0.9957
  140MOL0     H18882   9.434   5.204   6.353 -0.4148 -1.2549 -0.0511
  140MOL0     H18883   9.214   5.325   6.387 -1.9104  2.8753  2.8366
  140MOL0     H18884   7.926   5.814   7.254 -1.4163 -2.7251  0.7834
  140MOL0     H18885   7.761   5.686   7.350 -0.1772 -0.0370  2.4502
  140MOL0     H18886   7.386   5.680   7.747 -1.3953  0.8107  0.8031
  140MOL0     H18887   7.193   5.550   7.826 -1.9191  0.6828 -0.0402
  140MOL0     H18888   6.786   5.513   7.663 -0.9029  2.0334  0.0635
  140MOL0     H18889   6.903   5.653   7.692  2.9806  0.4141  2.4773
  140MOL0     H18890   6.959   5.563   7.891 -0.6538 -2.3114  2.6526
  140MOL0     H18891   6.867   5.408   7.855  3.9176 -0.8486 -1.2449
  140MOL0     H18892   6.665   5.497   7.928  0.3601 -0.0566  0.5746
  140MOL0     H18893   6.701   5.646   7.846  1.1116  0.8410  1.6709
  140MOL0     H18894   6.777   5.528   8.116  0.2551  0.1200  0.9984
  140MOL0     H18895   6.863   5.672   8.063 -1.2156  0.3477 -0.4403
  140MOL0     H18896   6.457   5.775   8.179  0.3996 -0.5966  0.5219
  140MOL0     H18897   7.076   5.517   7.411  1.0773  1.2248 -1.9423
  140MOL0     H18898   7.322   5.565   7.260  0.2472  0.5540  1.3868
  140MOL0     H18899   7.161   5.628   7.256  0.4109  0.0871  0.5667
  140MOL0     H18900   7.297   5.748   7.273  0.1445  1.1426  1.3028
  141MOL0     O18901   5.169   5.136   1.389  0.6769  1.4592  0.0941
  141MOL0     C18902   5.140   5.188   1.496 -0.9143  1.0704 -0.1792
  141MOL0     O18903   5.068   5.144   1.598  0.3757 -0.3253 -0.6506
  141MOL0     C18904   4.991   5.026   1.599 -0.2392 -0.2350 -0.5430
  141MOL0     C18905   4.970   4.930   1.491 -0.7670  0.1676  0.3137
  141MOL0     C18906   4.884   4.822   1.507 -0.0467  1.2700  0.1571
  141MOL0     C18907   4.812   4.798   1.631 -0.6863  0.4685 -0.0541
  141MOL0     O18908   4.734   4.690   1.668  0.1614 -0.4092  0.3067
  141MOL0     C18909   4.708   4.586   1.572  0.8329  1.1830 -0.1438
  141MOL0     C18910   4.595   4.503   1.633  1.1439 -1.1444 -0.6002
  141MOL0     C18911   4.511   4.416   1.545  0.2541  0.1840  0.5721
  141MOL0     C18912   4.367   4.393   1.620 -0.1388  0.7402 -0.1120
  141MOL0     C18913   4.310   4.253   1.577  0.2937  0.1688  0.6859
  141MOL0     C18914   4.300   4.227   1.423  0.1764 -0.1180  0.4378
  141MOL0     C18915   4.181   4.119   1.412 -0.2699  0.0213 -0.0247
  141MOL0     C18916   4.140   4.076   1.270  0.4492 -1.1368  0.0278
  141MOL0     N18917   4.225   3.976   1.218  0.4053  0.0636  0.6876
  141MOL0     C18918   4.359   3.995   1.187  0.0761 -0.4770 -0.3731
  141MOL0     C18919   4.393   3.887   1.118 -0.7466  0.1160  0.8639
  141MOL0     C18920   4.532   3.862   1.057 -0.7869  0.3040 -0.3118
  141MOL0     C18921   4.639   3.867   1.167 -0.5164  0.0906 -0.1025
  141MOL0     C18922   4.783   3.828   1.097  0.3741  0.0008  0.4647
  141MOL0     C18923   4.836   3.938   0.998 -0.1558 -0.5876  0.4978
  141MOL0     O18924   4.814   4.066   1.043 -0.5348  0.5085  0.1121
  141MOL0     C18925   4.889   4.098   1.152  0.5026 -0.0375 -0.2561
  141MOL0     C18926   4.865   4.227   1.204 -0.6856 -0.9664 -0.1689
  141MOL0     C18927   4.934   4.275   1.318 -1.1555 -0.4032 -1.3992
  141MOL0     C18928   5.043   4.198   1.372 -0.2248  0.1183 -0.4719
  141MOL0     C18929   5.116   4.242   1.492  0.9843 -0.3400  0.9423
  141MOL0     O18930   5.119   4.383   1.513 -0.1929 -0.1805  1.0634
  141MOL0     C18931   5.212   4.438   1.602  0.3423  0.4115 -0.4577
  141MOL0     C18932   5.182   4.569   1.633  0.2235 -0.8170  0.0723
  141MOL0     C18933   5.250   4.639   1.731  0.7246 -0.2134 -0.7925
  141MOL0     C18934   5.352   4.581   1.801  0.2983  1.1145 -1.0842
  141MOL0     O18935   5.414   4.641   1.909  0.0514 -0.7260 -0.1788
  141MOL0     C18936   5.346   4.608   2.029  1.0656  0.9390 -0.7752
  141MOL0     C18937   5.406   4.685   2.146  0.7674  0.2012  0.4157
  141MOL0     C18938   5.547   4.653   2.179 -0.0380  0.4476 -0.5778
  141MOL0     C18939   5.606   4.718   2.304 -0.2946  0.0699  0.1766
  141MOL0     C18940   5.540   4.678   2.448  0.4540  0.1485  0.5958
  141MOL0     C18941   5.587   4.547   2.495  0.3803 -0.4813  0.2494
  141MOL0     C18942   5.579   4.526   2.650 -0.1025  0.1503  0.1367
  141MOL0     C18943   5.618   4.381   2.696  0.9345 -0.6702 -0.5592
  141MOL0    Cl18944   5.609   4.380   2.870 -0.3498  0.0930  0.3756
  141MOL0     C18945   5.404   4.451   1.756  0.8737  0.4764  0.2937
  141MOL0     C18946   5.329   4.378   1.662  0.5148  0.6583  0.6298
  141MOL0     O18947   5.168   4.159   1.563 -0.1083  0.4711  0.0658
  141MOL0     C18948   5.078   4.085   1.304 -0.8619 -0.6722  0.7824
  141MOL0     C18949   5.003   4.028   1.206 -0.4655 -0.1941  0.0638
  141MOL0     N18950   4.287   3.800   1.120  0.6202 -0.0960 -0.3743
  141MOL0     N18951   4.183   3.856   1.173  0.0222  1.4763 -0.2807
  141MOL0     C18952   4.838   4.888   1.735 -1.0128 -0.0153 -1.5486
  141MOL0     C18953   4.931   4.989   1.720  0.1690 -0.8990  0.2471
  141MOL0     C18954   5.202   5.327   1.525  0.2334 -0.2955  1.2184
  141MOL0     C18955   5.257   5.401   1.413  0.9350  0.4922  0.1942
  141MOL0     C18956   5.315   5.515   1.429  0.2182 -1.0928  0.9935
  141MOL0     C18957   5.332   5.580   1.555 -0.3347  0.0420  0.4169
  141MOL0     O18958   5.379   5.708   1.566  0.3103  0.4624  1.2445
  141MOL0     C18959   5.474   5.755   1.473  0.1483 -0.8360 -0.2128
  141MOL0     C18960   5.608   5.676   1.473 -0.6922  0.2507  0.5936
  141MOL0     C18961   5.712   5.737   1.378  0.6346 -0.2973 -0.8379
  141MOL0     C18962   5.771   5.876   1.419  0.7566 -0.6102 -0.4586
  141MOL0     C18963   5.845   5.859   1.538  0.1121  0.3389  0.5259
  141MOL0     C18964   5.918   5.808   1.617 -0.6368  0.4655  0.4190
  141MOL0     C18965   5.284   5.506   1.665  0.8212 -0.5518  0.7109
  141MOL0     C18966   5.213   5.380   1.658  0.0651 -1.1935  0.4890
  141MOL0     C18967   5.161   5.329   1.791  0.4943 -0.8142  0.7496
  141MOL0     H18968   5.015   4.947   1.394 -0.2237 -1.6316  0.2097
  141MOL0     H18969   4.867   4.750   1.427 -2.0761 -2.4597  3.5638
  141MOL0     H18970   4.674   4.609   1.471  0.4189 -1.2681 -0.6284
  141MOL0     H18971   4.795   4.521   1.559 -0.4431  0.0083 -3.9500
  141MOL0     H18972   4.525   4.577   1.671  0.8215 -1.0226 -1.4034
  141MOL0     H18973   4.627   4.448   1.722  2.3695  0.9475  0.3372
  141MOL0     H18974   4.566   4.326   1.517  2.6509  1.6785  0.2214
  141MOL0     H18975   4.490   4.453   1.445  2.0848 -0.1617  0.0211
  141MOL0     H18976   4.383   4.394   1.728  0.9898  1.4780 -0.2642
  141MOL0     H18977   4.293   4.473   1.610  0.5234  1.7918  2.5986
  141MOL0     H18978   4.377   4.175   1.615 -0.2218  0.1487  1.5832
  141MOL0     H18979   4.218   4.231   1.632  2.1428 -3.5951  2.5917
  141MOL0     H18980   4.277   4.310   1.356 -2.4911  0.3304  1.7579
  141MOL0     H18981   4.400   4.187   1.403 -1.4386 -3.0749 -2.8264
  141MOL0     H18982   4.094   4.160   1.464 -0.6314  0.2116 -0.7792
  141MOL0     H18983   4.201   4.029   1.472  0.2273 -1.0729 -1.7763
  141MOL0     H18984   4.038   4.038   1.274  0.3316 -1.0462 -1.4296
  141MOL0     H18985   4.139   4.160   1.200  0.4178  2.3249  3.8238
  141MOL0     H18986   4.408   4.088   1.214 -1.2355  0.2150 -0.2813
  141MOL0     H18987   4.540   3.766   1.006 -3.4739  0.8448 -1.9720
  141MOL0     H18988   4.557   3.938   0.982 -2.8463  3.9048  2.2961
  141MOL0     H18989   4.641   3.965   1.216  0.8665  0.6646 -1.2559
  141MOL0     H18990   4.619   3.796   1.248 -0.1211 -1.1920 -1.0889
  141MOL0     H18991   4.782   3.732   1.044 -0.7533 -0.2372  0.8934
  141MOL0     H18992   4.839   3.811   1.189 -0.0661  2.5772  1.2887
  141MOL0     H18993   4.780   3.935   0.904  0.8074 -1.5206 -0.0750
  141MOL0     H18994   4.936   3.922   0.957  0.2747 -3.4917  2.3543
  141MOL0     H18995   4.779   4.286   1.174  2.4766  3.3670 -1.7267
  141MOL0     H18996   4.897   4.368   1.360  2.2032 -0.1604  1.3594
  141MOL0     H18997   5.106   4.628   1.582  1.9154  1.0657 -0.4288
  141MOL0     H18998   5.208   4.733   1.762  1.5339  0.7047 -2.3205
  141MOL0     H18999   5.238   4.621   2.019  1.0833  0.0390 -2.7082
  141MOL0     H19000   5.369   4.502   2.048 -0.5399  0.2937 -2.1713
  141MOL0     H19001   5.392   4.791   2.122  2.6896  0.6047  0.9056
  141MOL0     H19002   5.343   4.658   2.231 -1.2702 -0.1107 -1.1190
  141MOL0     H19003   5.544   4.547   2.204 -1.7545  0.1973 -1.6904
  141MOL0     H19004   5.613   4.676   2.095 -1.5914  1.9393 -1.4516
  141MOL0     H19005   5.612   4.826   2.285 -0.5843  0.1859  0.7223
  141MOL0     H19006   5.709   4.682   2.310  0.7444  1.9770 -3.3828
  141MOL0     H19007   5.432   4.686   2.433  0.8847  0.7435 -3.1164
  141MOL0     H19008   5.564   4.756   2.521 -0.4910  1.5053 -0.4831
  141MOL0     H19009   5.536   4.466   2.443  3.4470 -0.6480 -2.9099
  141MOL0     H19010   5.688   4.549   2.453  0.0798  0.4801 -0.4834
  141MOL0     H19011   5.481   4.550   2.691 -1.0281 -1.6141 -0.9001
  141MOL0     H19012   5.644   4.602   2.693  0.8974  0.8005 -2.3270
  141MOL0     H19013   5.546   4.308   2.658 -1.0113  0.9998 -0.2175
  141MOL0     H19014   5.716   4.361   2.651  1.4801 -1.3444  0.8499
  141MOL0     H19015   5.479   4.395   1.810 -0.2408  0.1183  1.5376
  141MOL0     H19016   5.361   4.281   1.625 -0.6581 -0.6156  2.7409
  141MOL0     H19017   5.167   4.040   1.347 -1.4908 -0.9955  1.7750
  141MOL0     H19018   5.041   3.934   1.168 -2.1142 -0.4665 -1.0266
  141MOL0     H19019   4.800   4.866   1.835  0.4524  2.8851 -0.2508
  141MOL0     H19020   4.940   5.053   1.807 -0.4991  2.3786 -1.9526
  141MOL0     H19021   5.240   5.373   1.310 -0.3462 -0.3781  0.6251
  141MOL0     H19022   5.358   5.560   1.340 -1.9122 -4.4547 -2.0218
  141MOL0     H19023   5.513   5.852   1.505  0.6207 -0.0246 -2.9982
  141MOL0     H19024   5.431   5.767   1.373  1.3342  1.0370 -0.5477
  141MOL0     H19025   5.585   5.572   1.451 -1.8606  0.2014  1.9100
  141MOL0     H19026   5.649   5.681   1.575  4.6111 -1.1985 -1.1299
  141MOL0     H19027   5.658   5.752   1.284 -3.3789  0.7708  1.3912
  141MOL0     H19028   5.796   5.670   1.359  0.5289 -1.7107  2.9082
  141MOL0     H19029   5.846   5.921   1.354  0.9848 -0.2498  0.0446
  141MOL0     H19030   5.699   5.956   1.436  4.1496  2.3760  1.2496
  141MOL0     H19031   5.978   5.764   1.694 -1.2405  0.1398  0.7121
  141MOL0     H19032   5.302   5.547   1.764 -0.1025 -0.3097  0.7946
  141MOL0     H19033   5.202   5.232   1.821 -0.4903 -0.8565  2.0436
  141MOL0     H19034   5.190   5.394   1.874  0.4188  3.0808 -2.0114
  141MOL0     H19035   5.053   5.327   1.776  0.7261  0.8836 -1.8518
  142MOL0     O19036   4.235   6.348   7.520 -0.4532  0.8121 -0.5998
  142MOL0     C19037   4.118   6.318   7.565 -0.0945  0.0082 -0.3719
  142MOL0     O19038   4.012   6.406   7.574  0.5227  0.2646  0.4574
  142MOL0     C19039   4.024   6.522   7.498 -0.1765  0.6752 -0.3466
  142MOL0     C19040   3.987   6.518   7.361  0.2580 -0.2947 -0.5881
  142MOL0     C19041   4.010   6.635   7.285  1.1624 -0.3466 -0.2173
  142MOL0     C19042   4.063   6.747   7.332 -0.4223 -0.4571  0.2668
  142MOL0     O19043   4.077   6.856   7.250 -0.3391 -0.3374 -0.1425
  142MOL0     C19044   4.116   6.973   7.312 -1.1723  0.1928 -0.2651
  142MOL0     C19045   4.130   7.085   7.216 -0.1166  0.0470 -0.5314
  142MOL0     C19046   4.258   7.069   7.130 -0.5399  0.0869 -0.7872
  142MOL0     C19047   4.285   7.172   7.032 -0.1446  0.5914 -0.1176
  142MOL0     C19048   4.407   7.156   6.946  0.2556  1.1470 -0.5606
  142MOL0     C19049   4.373   7.078   6.822 -0.9728  0.8348  0.8764
  142MOL0     C19050   4.503   7.053   6.742  0.2294 -0.4478  1.3019
  142MOL0     C19051   4.503   6.963   6.612  0.0966 -0.1162  0.1703
  142MOL0     N19052   4.390   6.983   6.523  0.1287 -0.9397  0.1303
  142MOL0     C19053   4.333   6.891   6.441 -0.3737 -0.4471  0.0174
  142MOL0     C19054   4.254   6.959   6.355  0.9063  0.2085  0.2826
  142MOL0     C19055   4.157   6.903   6.246 -0.7600 -0.1329  0.0240
  142MOL0     C19056   4.257   6.838   6.143  0.1633 -0.2439 -0.5566
  142MOL0     C19057   4.180   6.731   6.058  0.7458 -0.2016  0.7190
  142MOL0     C19058   4.197   6.582   6.101  0.6727 -0.5535  0.0378
  142MOL0     O19059   4.096   6.506   6.038 -0.1623 -0.1536  1.2198
  142MOL0     C19060   4.084   6.370   6.064 -0.6793  0.6113 -0.1564
  142MOL0     C19061   4.192   6.293   6.120 -0.5901  0.3191 -1.0352
  142MOL0     C19062   4.170   6.167   6.171  0.0563  0.0313  0.2204
  142MOL0     C19063   4.052   6.097   6.148 -0.5980  0.4532 -0.2512
  142MOL0     C19064   4.032   5.951   6.185  0.1544 -0.3073  0.8785
  142MOL0     O19065   3.899   5.914   6.199 -0.1836 -0.7096 -0.4338
  142MOL0     C19066   3.856   5.791   6.225 -0.5059  0.0715 -0.0478
  142MOL0     C19067   3.744   5.776   6.302  0.3407 -0.0689  0.9521
  142MOL0     C19068   3.700   5.650   6.337 -0.9914 -0.3507 -0.6500
  142MOL0     C19069   3.771   5.540   6.304 -0.4992 -1.0590  0.0932
  142MOL0     O19070   3.738   5.416   6.355  0.1229  0.5164 -0.0531
  142MOL0     C19071   3.743   5.412   6.497  0.4058  1.1637  0.2036
  142MOL0     C19072   3.654   5.299   6.556  0.0522  0.0553  0.3501
  142MOL0     C19073   3.678   5.166   6.479  0.2011  0.3625 -0.1284
  142MOL0     C19074   3.594   5.053   6.541  0.5551 -0.1197  0.4180
  142MOL0     C19075   3.640   4.913   6.498 -0.0036 -0.6600 -0.5660
  142MOL0     C19076   3.530   4.814   6.543  1.1177  0.1784  0.7295
  142MOL0     C19077   3.571   4.666   6.558  0.3746 -0.6452 -1.1288
  142MOL0     C19078   3.461   4.567   6.540 -0.3113 -0.2248  0.5863
  142MOL0    Cl19079   3.394   4.583   6.358 -0.2004 -0.1843  0.0833
  142MOL0     C19080   3.884   5.548   6.222  0.0633 -0.0150 -0.5187
  142MOL0     C19081   3.929   5.677   6.184 -0.0439 -0.7599  0.1310
  142MOL0     O19082   4.132   5.883   6.206  0.4736 -0.3452  0.0531
  142MOL0     C19083   3.950   6.166   6.081  0.4243  0.4270 -0.4895
  142MOL0     C19084   3.967   6.299   6.045 -0.4139  0.7080  0.8864
  142MOL0     N19085   4.268   7.095   6.384 -0.1050 -0.3200  0.0560
  142MOL0     N19086   4.348   7.106   6.481  0.2633 -0.4730  0.7642
  142MOL0     C19087   4.109   6.743   7.464 -0.6846  0.0205  0.1339
  142MOL0     C19088   4.091   6.631   7.548 -1.1246  0.1128  0.2026
  142MOL0     C19089   4.094   6.176   7.610 -0.1242  0.1896 -0.8963
  142MOL0     C19090   3.958   6.135   7.636  0.3756  0.1968 -1.0094
  142MOL0     C19091   3.926   6.014   7.689  1.0158 -0.9360 -0.0394
  142MOL0     C19092   4.027   5.931   7.719 -0.3213 -0.2891  0.5798
  142MOL0     O19093   4.002   5.804   7.766 -0.2658 -0.1256 -1.2440
  142MOL0     C19094   3.880   5.753   7.740  1.0198 -0.0022 -1.0823
  142MOL0     C19095   3.857   5.612   7.791  0.6434 -0.3964  0.9932
  142MOL0     C19096   3.917   5.527   7.676 -0.4335 -0.8616 -0.1113
  142MOL0     C19097   3.889   5.381   7.703 -0.4090 -1.2435  0.0530
  142MOL0     C19098   3.914   5.297   7.585  0.9927  0.8650  0.0174
  142MOL0     C19099   3.952   5.236   7.487  0.4431  0.2275 -0.7001
  142MOL0     C19100   4.154   5.962   7.693  1.0084 -0.6082  1.3986
  142MOL0     C19101   4.194   6.085   7.636 -0.2047 -1.0709 -0.2639
  142MOL0     C19102   4.338   6.090   7.603  0.1978  0.1292 -0.3572
  142MOL0     H19103   3.949   6.423   7.324 -3.6861  1.0626 -0.5287
  142MOL0     H19104   3.974   6.641   7.183  0.3412 -1.1656  0.0084
  142MOL0     H19105   4.048   6.996   7.395  1.1526  1.8860  1.3081
  142MOL0     H19106   4.207   6.962   7.372 -2.7673 -1.7583  1.9946
  142MOL0     H19107   4.146   7.180   7.269 -3.5749 -0.2611  1.4006
  142MOL0     H19108   4.046   7.097   7.146 -0.1539 -1.8768 -0.8692
  142MOL0     H19109   4.260   6.968   7.090 -2.3795 -0.9203  1.4452
  142MOL0     H19110   4.342   7.063   7.200 -1.5958 -1.1676  0.4053
  142MOL0     H19111   4.202   7.168   6.962  1.6137 -2.5609 -2.2740
  142MOL0     H19112   4.296   7.266   7.087 -1.4783 -0.7536  2.6519
  142MOL0     H19113   4.444   7.257   6.922 -0.3464  2.1480  2.3681
  142MOL0     H19114   4.481   7.098   7.001 -2.0244 -1.2699  0.1306
  142MOL0     H19115   4.346   6.977   6.853 -2.1423  0.6465 -0.6426
  142MOL0     H19116   4.286   7.121   6.771  0.9746 -0.6826 -4.3087
  142MOL0     H19117   4.574   7.020   6.819 -2.0899  0.9106  4.2606
  142MOL0     H19118   4.526   7.151   6.698 -2.5101 -1.3715 -2.6744
  142MOL0     H19119   4.597   6.980   6.561  0.2615  1.4862  0.9613
  142MOL0     H19120   4.500   6.862   6.654 -1.1442 -0.3922 -0.5391
  142MOL0     H19121   4.334   6.784   6.460  1.3323 -0.1329  2.0635
  142MOL0     H19122   4.090   6.829   6.288  0.4669 -0.9132  0.6653
  142MOL0     H19123   4.104   6.993   6.212  0.7377  2.1547  3.2298
  142MOL0     H19124   4.312   6.919   6.094 -0.3296  0.5914  0.2369
  142MOL0     H19125   4.342   6.785   6.187  0.4477  1.5786  1.2408
  142MOL0     H19126   4.207   6.745   5.953 -1.8382  0.9115  0.1308
  142MOL0     H19127   4.075   6.761   6.056  1.0566  1.0423  1.8240
  142MOL0     H19128   4.190   6.567   6.209  2.2222  0.1129  0.2605
  142MOL0     H19129   4.303   6.559   6.091  1.0557  1.3840 -0.8767
  142MOL0     H19130   4.290   6.325   6.152 -0.9738 -0.9077  1.6332
  142MOL0     H19131   4.247   6.112   6.224  2.4963 -0.3192 -3.2978
  142MOL0     H19132   3.696   5.871   6.326  0.1779  0.4822 -1.3241
  142MOL0     H19133   3.603   5.648   6.387 -0.7470 -3.3153 -0.1184
  142MOL0     H19134   3.843   5.400   6.540 -0.2491  2.2476  2.1458
  142MOL0     H19135   3.691   5.502   6.530  1.0426  1.8978 -0.7565
  142MOL0     H19136   3.672   5.290   6.664 -2.1769 -0.8782  0.6822
  142MOL0     H19137   3.548   5.324   6.546  0.0473  1.0139  2.2692
  142MOL0     H19138   3.639   5.177   6.377 -0.5713 -0.2719  0.0918
  142MOL0     H19139   3.784   5.142   6.468 -0.5727 -2.4344 -3.2282
  142MOL0     H19140   3.489   5.073   6.518  0.4475  0.1595  1.1105
  142MOL0     H19141   3.591   5.061   6.650  0.6256  1.2335  0.3282
  142MOL0     H19142   3.735   4.886   6.547 -1.1181  0.0536  2.1610
  142MOL0     H19143   3.644   4.902   6.390 -1.5427  0.6822 -0.7952
  142MOL0     H19144   3.499   4.847   6.643 -2.4549  2.3131 -0.8649
  142MOL0     H19145   3.438   4.827   6.485 -0.0327 -1.6035  2.0408
  142MOL0     H19146   3.614   4.664   6.658  1.4167  3.3199 -1.3253
  142MOL0     H19147   3.646   4.653   6.479  1.2959  1.9828 -0.8022
  142MOL0     H19148   3.484   4.462   6.560  0.6818  0.0124  0.7236
  142MOL0     H19149   3.383   4.585   6.615 -0.5924 -3.2730  1.1238
  142MOL0     H19150   3.931   5.457   6.185  0.2432 -0.8173  1.5545
  142MOL0     H19151   4.017   5.697   6.123  0.9813 -0.1955  1.7186
  142MOL0     H19152   3.851   6.122   6.070 -0.6571  2.3932  0.8715
  142MOL0     H19153   3.892   6.357   5.992  2.3396  4.4038  0.6013
  142MOL0     H19154   4.171   6.814   7.518  2.7961 -2.9380  0.4248
  142MOL0     H19155   4.140   6.638   7.645  0.6775 -0.5782 -0.6161
  142MOL0     H19156   3.873   6.202   7.625 -1.7957 -2.0833  0.8729
  142MOL0     H19157   3.819   5.996   7.700  0.7816 -0.9944 -1.9442
  142MOL0     H19158   3.860   5.764   7.633 -1.1369 -1.9424 -0.9587
  142MOL0     H19159   3.810   5.803   7.807  3.3643 -2.0509  3.2680
  142MOL0     H19160   3.747   5.609   7.793  0.5944 -3.6804 -0.3864
  142MOL0     H19161   3.896   5.592   7.891  0.7133  1.3210  1.3508
  142MOL0     H19162   4.024   5.547   7.660 -0.7395 -0.9844 -2.8518
  142MOL0     H19163   3.874   5.550   7.578 -1.5262 -0.2421  0.4895
  142MOL0     H19164   3.955   5.347   7.783 -2.4746  1.0890  2.9372
  142MOL0     H19165   3.786   5.379   7.741 -0.1884 -2.1128  0.6424
  142MOL0     H19166   3.981   5.188   7.395 -0.6896 -2.3130  0.1927
  142MOL0     H19167   4.233   5.889   7.707 -0.4122 -3.2301 -2.4667
  142MOL0     H19168   4.377   6.179   7.654  1.0081 -0.5136  0.1709
  142MOL0     H19169   4.390   5.996   7.618 -3.7443 -1.8411  2.9259
  142MOL0     H19170   4.354   6.107   7.496  0.1736 -1.3225 -0.6029
  143MOL0     O19171   0.962   8.375   5.917  0.6915 -0.1964  0.0947
  143MOL0     C19172   0.899   8.479   5.890 -0.0483 -0.9977  0.1399
  143MOL0     O19173   0.770   8.483   5.848 -0.0477  0.7610 -0.0801
  143MOL0     C19174   0.714   8.372   5.788 -0.2589 -0.9392  0.0384
  143MOL0     C19175   0.685   8.269   5.864 -0.6728  0.8065  0.8682
  143MOL0     C19176   0.619   8.161   5.803 -0.6635  0.4397  0.1354
  143MOL0     C19177   0.582   8.159   5.665 -0.7284 -0.6016 -0.5992
  143MOL0     O19178   0.516   8.054   5.610  0.2049 -0.3181  0.4912
  143MOL0     C19179   0.450   8.070   5.481  0.0944 -1.1827  0.2597
  143MOL0     C19180   0.376   7.939   5.438  0.1872  0.0231 -0.7336
  143MOL0     C19181   0.248   7.926   5.521  0.2445 -0.0269  0.3172
  143MOL0     C19182   0.192   7.793   5.529 -0.1261 -0.2837 -0.2687
  143MOL0     C19183   0.275   7.684   5.605 -0.0165 -0.8401 -0.3268
  143MOL0     C19184   0.220   7.540   5.590  0.3762 -0.4772 -0.4443
  143MOL0     C19185   0.069   7.528   5.648 -0.2608  0.6287 -1.0473
  143MOL0     C19186   0.077   7.548   5.800 -0.3783 -0.1881  0.8369
  143MOL0     N19187   0.148   7.422   5.859 -0.0836 -0.4773 -0.0661
  143MOL0     C19188   0.074   7.312   5.902  0.0715 -0.6885  0.5687
  143MOL0     C19189   0.163   7.234   5.967  0.3187  0.6893 -0.4969
  143MOL0     C19190   0.155   7.093   6.018 -0.0224 -0.5034 -0.0633
  143MOL0     C19191   0.017   7.035   6.008  0.8901 -0.0162 -0.6853
  143MOL0     C19192   0.010   6.885   6.053  0.2119 -0.9981  0.3289
  143MOL0     C19193  -0.127   6.819   6.048  0.7321  1.2416 -0.0437
  143MOL0     O19194  -0.145   6.701   6.123  0.3170  0.0930  1.0643
  143MOL0     C19195  -0.164   6.722   6.257  0.0206  0.7636 -0.4322
  143MOL0     C19196  -0.222   6.617   6.328  0.1389 -0.1034  0.0462
  143MOL0     C19197  -0.266   6.623   6.461 -0.3878 -0.9029  0.9247
  143MOL0     C19198  -0.262   6.747   6.526 -0.5596 -1.2239 -0.3945
  143MOL0     C19199  -0.322   6.771   6.656 -0.0552 -0.1149 -0.1045
  143MOL0     O19200  -0.411   6.685   6.711 -0.2038  0.1317 -0.0935
  143MOL0     C19201  -0.477   6.735   6.818  0.3472 -0.3919 -0.9666
  143MOL0     C19202  -0.615   6.757   6.808 -0.8950 -0.1565  0.5220
  143MOL0     C19203  -0.685   6.808   6.920  0.4358  0.7408 -0.1514
  143MOL0     C19204  -0.623   6.819   7.049  0.7828  0.9441 -1.0822
  143MOL0     O19205  -0.699   6.874   7.152 -0.6424  0.0929  0.2107
  143MOL0     C19206  -0.814   6.792   7.171  0.4085 -0.3766 -0.2744
  143MOL0     C19207  -0.874   6.839   7.310  0.1408  2.1398  0.4242
  143MOL0     C19208  -0.832   6.745   7.424 -0.5706  0.8010  0.7167
  143MOL0     C19209  -0.925   6.759   7.540 -0.2459 -1.2689 -0.7882
  143MOL0     C19210  -0.867   6.695   7.663 -0.9731 -0.4663  0.7445
  143MOL0     C19211  -0.874   6.544   7.657 -0.1005 -0.3293 -0.0211
  143MOL0     C19212  -0.875   6.475   7.803  0.3567 -0.1766 -0.4346
  143MOL0     C19213  -0.785   6.345   7.796 -0.4342  0.7733 -0.0009
  143MOL0    Cl19214  -0.618   6.385   7.773 -0.5160  0.2076 -0.2895
  143MOL0     C19215  -0.486   6.800   7.057  0.3692  0.1160  1.0754
  143MOL0     C19216  -0.412   6.759   6.947  0.3486  0.0880  0.0452
  143MOL0     O19217  -0.289   6.879   6.704  0.2398 -0.1359  0.2054
  143MOL0     C19218  -0.180   6.853   6.465  0.0904  0.1601  0.0918
  143MOL0     C19219  -0.130   6.837   6.332 -0.4663 -0.2102  0.3203
  143MOL0     N19220   0.283   7.297   5.968  0.4660  0.1044  0.0200
  143MOL0     N19221   0.264   7.426   5.925  0.4488 -0.1527 -0.0399
  143MOL0     C19222   0.611   8.278   5.591  1.3425 -0.5663 -0.0052
  143MOL0     C19223   0.677   8.386   5.657  0.3404 -0.3885  0.0766
  143MOL0     C19224   0.990   8.599   5.894  0.6028  0.0268  0.7079
  143MOL0     C19225   1.018   8.673   6.009 -0.3589  0.2078 -0.1548
  143MOL0     C19226   1.078   8.802   5.994 -0.0559  0.9350 -0.5147
  143MOL0     C19227   1.120   8.851   5.873 -0.6555  0.0115  0.2252
  143MOL0     O19228   1.202   8.957   5.851  0.1436 -0.0832 -0.3191
  143MOL0     C19229   1.155   9.081   5.811  0.0224  0.7092  0.6755
  143MOL0     C19230   1.109   9.157   5.934  0.7279  0.0335  0.1234
  143MOL0     C19231   1.226   9.207   6.022 -1.4648  0.1481  0.5564
  143MOL0     C19232   1.184   9.306   6.136  0.0092 -0.1575  0.8246
  143MOL0     C19233   1.086   9.245   6.215 -0.2738  0.5860  0.1883
  143MOL0     C19234   1.007   9.208   6.300 -1.1201  0.3881  0.3343
  143MOL0     C19235   1.093   8.775   5.758  0.4013 -1.4880 -0.5376
  143MOL0     C19236   1.025   8.652   5.763 -0.4681  0.1545  0.6157
  143MOL0     C19237   1.004   8.568   5.638 -0.2551  0.2776  0.4077
  143MOL0     H19238   0.716   8.268   5.968  1.8756 -0.9131  0.1928
  143MOL0     H19239   0.595   8.078   5.869  0.4740 -0.1026 -0.1007
  143MOL0     H19240   0.384   8.158   5.481  1.9632  0.2741  0.0466
  143MOL0     H19241   0.518   8.092   5.399 -1.6704  1.8949 -0.5538
  143MOL0     H19242   0.442   7.857   5.469 -1.2630 -0.4994  1.1723
  143MOL0     H19243   0.357   7.956   5.332  0.1556  0.7803 -0.6136
  143MOL0     H19244   0.162   7.973   5.472  0.5931  0.5506  0.2526
  143MOL0     H19245   0.266   7.962   5.622  0.6424  0.5492  0.0403
  143MOL0     H19246   0.089   7.810   5.564 -1.5105 -0.9677 -3.6103
  143MOL0     H19247   0.158   7.752   5.433  0.8684  2.5779 -1.9652
  143MOL0     H19248   0.378   7.684   5.566  0.7034  0.5480  1.4393
  143MOL0     H19249   0.279   7.714   5.710  1.9302 -2.1767  0.0443
  143MOL0     H19250   0.227   7.517   5.484  1.1983 -1.6210 -0.1598
  143MOL0     H19251   0.279   7.464   5.642  3.8463  3.0790  1.4279
  143MOL0     H19252   0.036   7.424   5.639  1.5439  0.0510 -1.3427
  143MOL0     H19253  -0.005   7.599   5.608 -1.0479 -0.4126 -1.5026
  143MOL0     H19254   0.131   7.635   5.838 -0.6859  0.3318  0.0984
  143MOL0     H19255  -0.026   7.549   5.838 -0.8234 -0.0052 -0.3398
  143MOL0     H19256  -0.031   7.285   5.889  0.0993  0.2930 -2.5195
  143MOL0     H19257   0.235   7.051   5.956  0.1812  1.6028 -1.3432
  143MOL0     H19258   0.178   7.092   6.125 -0.2276 -2.0921 -0.0038
  143MOL0     H19259  -0.060   7.092   6.061 -0.4193 -3.0851  0.9955
  143MOL0     H19260  -0.015   7.032   5.904  0.0248  0.0711 -0.4249
  143MOL0     H19261   0.057   6.889   6.152  0.6524  0.0058  0.0922
  143MOL0     H19262   0.075   6.827   5.986 -0.0215 -0.6980 -0.1634
  143MOL0     H19263  -0.141   6.785   5.945 -1.7884 -0.0688  0.6710
  143MOL0     H19264  -0.197   6.903   6.054 -0.1051  0.8444 -2.7453
  143MOL0     H19265  -0.222   6.517   6.286  1.2001  0.2913 -0.9626
  143MOL0     H19266  -0.302   6.530   6.504 -0.8440 -2.8605 -3.2190
  143MOL0     H19267  -0.663   6.733   6.714  1.7960 -3.1312 -0.2798
  143MOL0     H19268  -0.791   6.831   6.917 -0.7877 -2.6680  4.5341
  143MOL0     H19269  -0.888   6.812   7.093  1.4740  1.3206 -0.8975
  143MOL0     H19270  -0.793   6.684   7.173  1.2927 -0.2213  2.1429
  143MOL0     H19271  -0.854   6.945   7.328  1.0739  1.9562  0.4896
  143MOL0     H19272  -0.982   6.833   7.295  0.4674  0.9937 -1.9781
  143MOL0     H19273  -0.834   6.640   7.396 -2.7720  0.2305  2.6913
  143MOL0     H19274  -0.727   6.773   7.441 -0.0547 -0.9260  0.6036
  143MOL0     H19275  -1.021   6.711   7.519 -0.9816 -2.3053  3.8419
  143MOL0     H19276  -0.949   6.865   7.554  1.3198 -0.6714 -2.2526
  143MOL0     H19277  -0.935   6.733   7.741  0.1317 -1.8936  2.4918
  143MOL0     H19278  -0.767   6.737   7.677 -0.6174  0.4847 -3.5681
  143MOL0     H19279  -0.956   6.526   7.587  1.0347 -0.7278 -1.2940
  143MOL0     H19280  -0.784   6.499   7.614  2.4320  0.2720  4.0722
  143MOL0     H19281  -0.974   6.438   7.830  1.1981 -0.6475  2.3820
  143MOL0     H19282  -0.837   6.533   7.888  1.5772 -0.3190 -0.8581
  143MOL0     H19283  -0.797   6.307   7.898 -3.7530  0.9381 -0.2141
  143MOL0     H19284  -0.806   6.267   7.723 -1.3771 -0.5507  1.6161
  143MOL0     H19285  -0.438   6.840   7.146  3.1414 -0.7847  0.0787
  143MOL0     H19286  -0.307   6.732   6.944  0.5057  0.6608 -3.3879
  143MOL0     H19287  -0.158   6.939   6.527 -0.0393  0.5541 -0.4003
  143MOL0     H19288  -0.073   6.928   6.314  1.1530 -0.3762  3.8634
  143MOL0     H19289   0.587   8.289   5.485 -1.1369  0.1919  0.5540
  143MOL0     H19290   0.700   8.484   5.616 -1.9108  0.4639  0.6875
  143MOL0     H19291   0.975   8.656   6.108  1.8663  4.4723  1.8119
  143MOL0     H19292   1.088   8.851   6.090 -0.6265  1.5606 -0.7641
  143MOL0     H19293   1.080   9.077   5.731  1.3172  1.4216 -0.6241
  143MOL0     H19294   1.238   9.133   5.763 -0.1686  0.9284  0.5821
  143MOL0     H19295   1.020   9.116   5.984  0.2336  1.6354  0.6183
  143MOL0     H19296   1.060   9.241   5.884  2.9649  1.0842 -0.4532
  143MOL0     H19297   1.293   9.266   5.959 -1.8396  0.2872  0.2821
  143MOL0     H19298   1.288   9.124   6.056 -0.1067  0.9231  0.0275
  143MOL0     H19299   1.263   9.319   6.210 -0.7441  0.3604  1.5658
  143MOL0     H19300   1.159   9.408   6.105 -1.6458  0.0109  2.4885
  143MOL0     H19301   0.941   9.182   6.381 -0.8830 -0.4919  0.2516
  143MOL0     H19302   1.140   8.801   5.664  0.1944  0.6075 -0.0970
  143MOL0     H19303   0.961   8.631   5.559 -0.8173  1.5919  1.6999
  143MOL0     H19304   1.102   8.531   5.607 -0.4235  1.4713 -1.7613
  143MOL0     H19305   0.937   8.482   5.643 -0.5375  0.1646 -3.1031
  144MOL0     O19306   0.686   9.711   2.979 -0.1741 -0.5249 -1.2928
  144MOL0     C19307   0.759   9.621   2.946  0.2703  0.2041 -0.5728
  144MOL0     O19308   0.790   9.589   2.813 -0.8351 -0.2943 -0.7106
  144MOL0     C19309   0.764   9.676   2.707 -0.3414  0.5975 -0.3834
  144MOL0     C19310   0.804   9.802   2.710 -0.0023 -0.9046  0.4550
  144MOL0     C19311   0.763   9.891   2.621 -0.0456 -0.1972  0.2667
  144MOL0     C19312   0.679   9.852   2.517 -0.0716  0.3480 -0.2040
  144MOL0     O19313   0.627   9.932   2.416 -0.1287 -0.1209 -0.7759
  144MOL0     C19314   0.656  10.072   2.417  1.0998 -0.7103  0.8315
  144MOL0     C19315   0.536  10.126   2.342  0.1047  0.3031 -0.9830
  144MOL0     C19316   0.530  10.277   2.331  0.4349 -0.0661  0.1840
  144MOL0     C19317   0.414  10.312   2.237  0.2419 -0.7174  0.1461
  144MOL0     C19318   0.384  10.458   2.247  0.1221  0.7528 -0.4156
  144MOL0     C19319   0.483  10.548   2.173  0.3262 -0.3886 -0.7974
  144MOL0     C19320   0.532  10.520   2.028  0.7459  0.3877 -0.0647
  144MOL0     C19321   0.621  10.631   1.955  0.6086 -0.6764  0.4593
  144MOL0     N19322   0.757  10.634   1.997 -0.2593  0.2541  0.4153
  144MOL0     C19323   0.815  10.725   2.081 -0.6148 -0.3030  0.3319
  144MOL0     C19324   0.944  10.692   2.083 -0.0241 -0.2639  0.2784
  144MOL0     C19325   1.050  10.744   2.181  0.5762  0.1750  0.6816
  144MOL0     C19326   1.029  10.659   2.303  0.4605  0.4707 -0.1595
  144MOL0     C19327   1.041  10.732   2.442 -0.9180  0.1185  0.3510
  144MOL0     C19328   1.175  10.812   2.467  0.3311  0.4699 -0.1542
  144MOL0     O19329   1.280  10.735   2.407  0.6446  0.7950 -0.0681
  144MOL0     C19330   1.378  10.710   2.502  0.6662 -0.2595 -0.5061
  144MOL0     C19331   1.501  10.749   2.471  0.4423  0.2908  0.4959
  144MOL0     C19332   1.604  10.736   2.559  0.5392 -0.6044 -0.3001
  144MOL0     C19333   1.583  10.667   2.681  0.0871 -0.9454  0.0625
  144MOL0     C19334   1.688  10.650   2.784 -1.2749  0.1577 -0.4130
  144MOL0     O19335   1.679  10.537   2.868  0.2411  0.4177 -0.0555
  144MOL0     C19336   1.753  10.491   2.975 -0.2589  0.5436  0.2220
  144MOL0     C19337   1.883  10.532   3.009  0.9548 -0.3937 -0.2170
  144MOL0     C19338   1.951  10.469   3.118 -0.4513  0.0883 -0.7080
  144MOL0     C19339   1.898  10.355   3.176  0.0262 -0.7394  0.1232
  144MOL0     O19340   1.963  10.275   3.265 -0.3955 -0.2223  0.3727
  144MOL0     C19341   2.073  10.197   3.216 -1.0526 -0.1193  0.3013
  144MOL0     C19342   2.059  10.064   3.292  0.0836 -0.0234  0.0876
  144MOL0     C19343   1.922   9.997   3.270 -0.9682 -0.2554 -0.4963
  144MOL0     C19344   1.898   9.933   3.130 -0.3735  0.0135  1.1579
  144MOL0     C19345   1.782   9.829   3.123  0.3650 -0.5551  0.4873
  144MOL0     C19346   1.779   9.749   2.991 -1.0881 -0.4140 -0.6947
  144MOL0     C19347   1.652   9.727   2.926  0.2431  0.9089 -0.4453
  144MOL0     C19348   1.674   9.703   2.775  0.5296 -0.3282 -0.1660
  144MOL0    Cl19349   1.700   9.851   2.680  0.0160 -0.2200 -0.0143
  144MOL0     C19350   1.768  10.313   3.150  0.3740 -0.0167 -0.3343
  144MOL0     C19351   1.693  10.387   3.061  0.4980  0.0673  0.0899
  144MOL0     O19352   1.766  10.745   2.806 -0.2543  0.3774  1.2396
  144MOL0     C19353   1.465  10.600   2.702  1.4498  0.5892 -0.2969
  144MOL0     C19354   1.363  10.633   2.615  0.0562 -0.4782  0.7729
  144MOL0     N19355   0.963  10.584   1.995 -0.5559  0.2888  0.2540
  144MOL0     N19356   0.852  10.563   1.940 -0.0406  0.7360  0.1823
  144MOL0     C19357   0.656   9.714   2.499 -0.2803  0.7430  0.2761
  144MOL0     C19358   0.694   9.619   2.597 -0.6753 -0.6250 -0.3727
  144MOL0     C19359   0.851   9.543   3.043  0.0677  0.2926 -1.2486
  144MOL0     C19360   0.930   9.430   3.004 -0.0961  0.2063 -0.5807
  144MOL0     C19361   1.007   9.357   3.092  0.6532  0.3679 -0.3051
  144MOL0     C19362   1.005   9.388   3.229 -0.5058 -0.1816 -0.6382
  144MOL0     O19363   1.071   9.314   3.328  0.9072 -0.3927 -0.4847
  144MOL0     C19364   1.138   9.193   3.285 -0.6659  0.0605  0.7171
  144MOL0     C19365   1.169   9.100   3.400  0.4327  0.2220 -0.5329
  144MOL0     C19366   1.288   9.147   3.479 -0.0603 -0.2381  0.1042
  144MOL0     C19367   1.304   9.067   3.602  0.3791  1.0551 -0.1145
  144MOL0     C19368   1.446   9.081   3.653  0.8133  0.5133  0.4837
  144MOL0     C19369   1.559   9.091   3.701  0.0509  0.8777 -0.1282
  144MOL0     C19370   0.943   9.503   3.271  1.0296 -0.9240 -0.2776
  144MOL0     C19371   0.874   9.590   3.183  0.1992 -0.0464  0.3115
  144MOL0     C19372   0.812   9.723   3.240  0.7490  0.9081  1.3568
  144MOL0     H19373   0.872   9.845   2.782  0.1917 -0.4172 -0.0168
  144MOL0     H19374   0.783   9.997   2.637 -0.7124  0.2625 -1.6602
  144MOL0     H19375   0.655  10.115   2.518 -2.9957  0.6700  0.3710
  144MOL0     H19376   0.748  10.084   2.358 -0.2156  1.9907 -0.8805
  144MOL0     H19377   0.441  10.094   2.385 -0.2274  1.6916 -0.6425
  144MOL0     H19378   0.540  10.085   2.241 -0.2606  1.8632 -1.6558
  144MOL0     H19379   0.615  10.324   2.281  0.4673  0.3027  0.5891
  144MOL0     H19380   0.514  10.327   2.427 -1.5599  0.3293 -0.2995
  144MOL0     H19381   0.436  10.280   2.135 -1.7510  3.4501 -1.8323
  144MOL0     H19382   0.331  10.256   2.281 -1.6010  1.1499 -0.8491
  144MOL0     H19383   0.283  10.471   2.206 -0.4988  0.3031  0.9086
  144MOL0     H19384   0.380  10.470   2.355  4.6429 -4.6738  0.8368
  144MOL0     H19385   0.448  10.652   2.176 -1.1768 -0.8666 -1.0945
  144MOL0     H19386   0.574  10.543   2.233 -0.1997 -3.0211 -0.0668
  144MOL0     H19387   0.438  10.511   1.972 -0.7028 -0.4667  2.3092
  144MOL0     H19388   0.585  10.424   2.020 -2.3690 -1.3268 -2.5252
  144MOL0     H19389   0.618  10.627   1.846  4.5101  1.3487  0.1076
  144MOL0     H19390   0.579  10.730   1.973  0.3957 -0.8763  1.0718
  144MOL0     H19391   0.772  10.805   2.141  1.6712 -0.6522  2.6021
  144MOL0     H19392   1.152  10.749   2.142  0.0014 -2.6823 -1.5614
  144MOL0     H19393   1.025  10.849   2.202  0.2844  0.0409  1.0168
  144MOL0     H19394   0.925  10.626   2.309  1.5478 -3.2427  4.6515
  144MOL0     H19395   1.095  10.572   2.294  4.4907  3.1343  1.0474
  144MOL0     H19396   1.029  10.660   2.523 -3.1571  0.2776  0.2296
  144MOL0     H19397   0.967  10.813   2.445 -0.9133  0.0827  2.2792
  144MOL0     H19398   1.192  10.833   2.573  0.1092 -0.1607  0.0120
  144MOL0     H19399   1.172  10.913   2.426  0.3542  0.5807  0.1151
  144MOL0     H19400   1.511  10.790   2.371 -1.2138 -0.2237  0.0902
  144MOL0     H19401   1.706  10.767   2.537  1.6639 -2.9941  1.1149
  144MOL0     H19402   1.936  10.612   2.957  4.2704 -1.9754  0.4241
  144MOL0     H19403   2.049  10.499   3.153 -1.0493 -2.0407  3.3817
  144MOL0     H19404   2.086  10.172   3.111  2.7811 -0.9698  0.8098
  144MOL0     H19405   2.162  10.249   3.255 -0.7048 -0.5897  0.1470
  144MOL0     H19406   2.144  10.003   3.260  2.1116  1.4289  2.3792
  144MOL0     H19407   2.078  10.096   3.395  3.8999  0.9110 -0.7345
  144MOL0     H19408   1.907   9.912   3.337 -1.2614 -1.0522 -1.5369
  144MOL0     H19409   1.851  10.071   3.306  2.3886  2.7092  0.6038
  144MOL0     H19410   1.984   9.870   3.104 -2.0255 -1.5964 -0.8119
  144MOL0     H19411   1.890  10.005   3.049 -2.0112 -1.1688  0.2010
  144MOL0     H19412   1.687   9.879   3.145  0.5619 -0.3639  0.8930
  144MOL0     H19413   1.788   9.768   3.214 -0.0014 -1.5389 -0.1222
  144MOL0     H19414   1.858   9.791   2.927  2.4462 -2.6068  1.8656
  144MOL0     H19415   1.815   9.652   3.025  0.1793  0.4081  0.4265
  144MOL0     H19416   1.579   9.808   2.932 -2.0809 -1.1716  1.7064
  144MOL0     H19417   1.607   9.638   2.971 -1.9386  0.4932 -3.1989
  144MOL0     H19418   1.775   9.666   2.754  1.5197  0.8102  2.2040
  144MOL0     H19419   1.589   9.652   2.730  0.1164  0.9263 -0.8499
  144MOL0     H19420   1.718  10.232   3.202  1.1880 -0.8085 -0.7469
  144MOL0     H19421   1.592  10.354   3.038  0.8544 -0.7685 -0.2975
  144MOL0     H19422   1.444  10.538   2.789 -3.7523  2.1538 -0.0463
  144MOL0     H19423   1.269  10.582   2.633  0.1874 -0.5360  1.3060
  144MOL0     H19424   0.593   9.675   2.420 -0.5182  0.7901  0.4401
  144MOL0     H19425   0.673   9.512   2.590  0.3884 -0.8337 -0.5377
  144MOL0     H19426   0.942   9.398   2.901 -3.2541 -1.5428 -0.5442
  144MOL0     H19427   1.053   9.270   3.047 -1.4575  0.6043 -3.1700
  144MOL0     H19428   1.229   9.218   3.229 -0.6742  3.2648  1.9140
  144MOL0     H19429   1.059   9.137   3.233 -1.0019 -0.5398  1.8514
  144MOL0     H19430   1.186   8.997   3.365  2.3239  0.3514 -0.1427
  144MOL0     H19431   1.077   9.092   3.458 -2.0195 -0.2390 -4.1385
  144MOL0     H19432   1.269   9.253   3.503  0.8302 -0.3427  1.4072
  144MOL0     H19433   1.380   9.146   3.420 -0.0587  0.8134  0.0616
  144MOL0     H19434   1.231   9.104   3.675 -3.0290  0.0785 -2.7180
  144MOL0     H19435   1.280   8.962   3.582  0.5729  0.1843  3.5771
  144MOL0     H19436   1.652   9.088   3.754  1.0945 -2.8223 -1.8079
  144MOL0     H19437   0.944   9.523   3.377 -4.3936 -5.0744  1.0006
  144MOL0     H19438   0.843   9.733   3.344  0.5343 -0.0802  1.5298
  144MOL0     H19439   0.854   9.800   3.175  2.3054 -0.1179  1.0862
  144MOL0     H19440   0.703   9.720   3.233  0.7709  1.1244  0.8460
  145MOL0     O19441   5.144   7.277   8.864  0.0821  0.1854 -0.5683
  145MOL0     C19442   5.268   7.296   8.843 -0.2433  0.1906  1.0301
  145MOL0     O19443   5.337   7.416   8.866  0.1697 -0.5030  0.3269
  145MOL0     C19444   5.263   7.533   8.872 -0.3539  0.2131 -1.1563
  145MOL0     C19445   5.316   7.634   8.957 -0.0104 -0.1172  0.2287
  145MOL0     C19446   5.236   7.752   8.982 -0.4538 -0.0636  1.3237
  145MOL0     C19447   5.119   7.776   8.909  0.0662  0.2731  1.4292
  145MOL0     O19448   5.035   7.886   8.923  0.7289  0.2941 -0.5090
  145MOL0     C19449   5.048   7.976   9.031  0.4577 -0.4874 -0.4033
  145MOL0     C19450   4.920   8.070   9.042 -0.4260  0.0999  0.7235
  145MOL0     C19451   4.818   8.031   9.147 -0.6001 -1.2845 -0.3536
  145MOL0     C19452   4.738   7.900   9.123 -0.2211 -0.0594 -0.4951
  145MOL0     C19453   4.686   7.886   8.984  0.3788 -0.6960 -0.3442
  145MOL0     C19454   4.592   8.008   8.953  0.4799  0.1400  0.5752
  145MOL0     C19455   4.513   7.968   8.819 -0.1842  0.0610  0.0992
  145MOL0     C19456   4.397   8.055   8.790 -0.2254 -0.2102  0.3381
  145MOL0     N19457   4.336   7.984   8.674  0.5015  0.1430 -0.1665
  145MOL0     C19458   4.241   7.879   8.674 -0.8717  0.2975 -0.9491
  145MOL0     C19459   4.186   7.879   8.553  0.3163  0.0245 -0.1940
  145MOL0     C19460   4.064   7.799   8.508  0.5828  0.1992  0.1364
  145MOL0     C19461   4.087   7.647   8.486  0.7404 -0.4584  0.8238
  145MOL0     C19462   3.963   7.558   8.470 -0.3505 -0.8458 -0.4140
  145MOL0     C19463   4.019   7.419   8.454  0.3109 -0.6335  0.5870
  145MOL0     O19464   3.923   7.327   8.416  0.1189  0.7710 -0.2092
  145MOL0     C19465   3.854   7.256   8.515  0.5312 -0.0584  0.4011
  145MOL0     C19466   3.789   7.145   8.475  0.8368 -0.6744 -0.7988
  145MOL0     C19467   3.739   7.049   8.556  0.7857  0.3591  0.0620
  145MOL0     C19468   3.740   7.068   8.697  0.1892 -0.1895  0.5860
  145MOL0     C19469   3.693   6.960   8.788  0.0052 -0.6154 -0.6711
  145MOL0     O19470   3.683   6.835   8.729 -0.2018  0.4124 -0.0258
  145MOL0     C19471   3.628   6.741   8.812 -0.9097 -0.3797 -0.5198
  145MOL0     C19472   3.713   6.652   8.870  0.2956 -0.2452  0.9072
  145MOL0     C19473   3.673   6.542   8.937 -0.0311 -0.2370  0.8380
  145MOL0     C19474   3.537   6.533   8.981 -0.6179  0.3647  0.3872
  145MOL0     O19475   3.498   6.429   9.056  0.0639 -0.0992  0.0232
  145MOL0     C19476   3.406   6.456   9.164 -1.5023  0.0944  0.4698
  145MOL0     C19477   3.332   6.315   9.186 -0.0765 -1.0496  0.7151
  145MOL0     C19478   3.209   6.325   9.277 -0.9089  0.8234  0.3624
  145MOL0     C19479   3.094   6.387   9.203  0.9177  1.1066 -0.0893
  145MOL0     C19480   2.963   6.357   9.295 -0.3202  0.5541 -0.4544
  145MOL0     C19481   2.832   6.411   9.236 -0.4666 -0.8601  0.0313
  145MOL0     C19482   2.709   6.395   9.330 -0.9638 -0.5787 -0.4686
  145MOL0     C19483   2.654   6.251   9.348  0.3381 -0.6503 -0.2398
  145MOL0    Cl19484   2.701   6.193   9.507  0.2913  0.2347 -0.2301
  145MOL0     C19485   3.452   6.626   8.924  0.7887  0.3568 -0.3604
  145MOL0     C19486   3.494   6.731   8.837  0.4315 -0.1951 -0.6334
  145MOL0     O19487   3.662   6.999   8.903 -0.5784 -0.2494 -0.4171
  145MOL0     C19488   3.791   7.195   8.751 -0.7236  0.6987 -0.0468
  145MOL0     C19489   3.847   7.285   8.659  0.4391 -0.4982 -0.4462
  145MOL0     N19490   4.246   7.979   8.469  0.7301 -0.3625 -0.2558
  145MOL0     N19491   4.329   8.039   8.546 -0.9063 -0.9284 -0.5286
  145MOL0     C19492   5.079   7.683   8.811 -0.2595  0.2936  0.5572
  145MOL0     C19493   5.147   7.557   8.796  0.7220  0.5179  0.7308
  145MOL0     C19494   5.357   7.178   8.821 -0.7912  1.0177  0.4013
  145MOL0     C19495   5.481   7.174   8.872 -0.4860  0.4268  0.2036
  145MOL0     C19496   5.552   7.056   8.868  0.1026  0.4670  0.2420
  145MOL0     C19497   5.516   6.946   8.785 -1.2896  1.1023 -1.0201
  145MOL0     O19498   5.615   6.850   8.779 -0.4223 -0.0098 -0.1919
  145MOL0     C19499   5.638   6.789   8.651 -0.2107  0.3637 -0.5645
  145MOL0     C19500   5.700   6.654   8.678 -0.6347 -0.1648  0.5426
  145MOL0     C19501   5.751   6.602   8.532 -1.1375 -0.1773  0.2861
  145MOL0     C19502   5.864   6.679   8.475  0.1930 -0.1879 -0.3281
  145MOL0     C19503   5.911   6.603   8.353  0.4835  0.1191  0.1915
  145MOL0     C19504   5.941   6.546   8.256  0.8636  0.2924  1.1556
  145MOL0     C19505   5.391   6.943   8.725 -0.5950  0.0573 -0.0604
  145MOL0     C19506   5.308   7.059   8.753 -0.0136  0.1667  0.2690
  145MOL0     C19507   5.174   7.059   8.679  0.2382 -0.1565  0.5230
  145MOL0     H19508   5.408   7.606   9.008  0.5884  1.6702  0.2032
  145MOL0     H19509   5.263   7.841   9.039  0.0983  1.9586 -1.8222
  145MOL0     H19510   5.056   7.924   9.127  2.9150  0.2111 -0.1454
  145MOL0     H19511   5.136   8.038   9.012  1.5278 -2.1087 -0.9924
  145MOL0     H19512   4.886   8.090   8.940  3.3837  0.4717 -0.6094
  145MOL0     H19513   4.966   8.166   9.065 -1.4973  0.6499  0.6552
  145MOL0     H19514   4.753   8.119   9.144  3.1549  1.8187  0.7347
  145MOL0     H19515   4.871   8.022   9.242 -0.9236 -1.9145 -0.2268
  145MOL0     H19516   4.807   7.816   9.138 -0.5915 -0.4740 -1.0751
  145MOL0     H19517   4.655   7.903   9.195  0.9638  0.1155  0.9182
  145MOL0     H19518   4.760   7.889   8.904  0.4184  0.2369 -0.2879
  145MOL0     H19519   4.628   7.794   8.970 -0.9278  0.4518 -3.4088
  145MOL0     H19520   4.537   8.013   9.047  2.3528  1.5666  1.6358
  145MOL0     H19521   4.634   8.108   8.941 -1.9520  1.1522 -0.2563
  145MOL0     H19522   4.478   7.864   8.825  1.0491 -0.3366  0.8405
  145MOL0     H19523   4.581   7.984   8.734 -0.8131 -0.3182 -0.4904
  145MOL0     H19524   4.339   8.052   8.883  1.0744 -2.1567  1.1563
  145MOL0     H19525   4.423   8.159   8.771  4.2757 -1.1423  0.2979
  145MOL0     H19526   4.214   7.816   8.758  0.0426  1.7064  0.4460
  145MOL0     H19527   3.991   7.800   8.589 -0.9809 -1.9218 -1.1503
  145MOL0     H19528   4.019   7.850   8.422 -0.6529 -0.8252  0.1519
  145MOL0     H19529   4.147   7.631   8.396  0.4695 -2.0421  0.8968
  145MOL0     H19530   4.130   7.597   8.574  2.3592 -1.8431 -0.6656
  145MOL0     H19531   3.911   7.580   8.376  0.0303  2.2096 -0.0213
  145MOL0     H19532   3.899   7.550   8.559 -1.7692  1.7691 -1.0784
  145MOL0     H19533   4.075   7.392   8.544 -1.9930 -2.8490  1.4792
  145MOL0     H19534   4.083   7.422   8.366 -1.3351  0.2001 -0.6362
  145MOL0     H19535   3.792   7.128   8.367 -1.1722 -1.3022 -0.8067
  145MOL0     H19536   3.688   6.959   8.523 -1.7218  0.6507  2.7519
  145MOL0     H19537   3.821   6.659   8.862  0.3407 -2.3307 -1.0196
  145MOL0     H19538   3.750   6.475   8.972  1.2761  1.0038  0.4103
  145MOL0     H19539   3.459   6.490   9.253 -3.5380  2.2245  0.9807
  145MOL0     H19540   3.331   6.535   9.154  0.3132  1.9175  0.6395
  145MOL0     H19541   3.308   6.266   9.091  0.2450  2.9653 -1.7282
  145MOL0     H19542   3.409   6.255   9.233  2.4090  1.0914 -0.3409
  145MOL0     H19543   3.187   6.227   9.320  2.4588  0.9763  2.8642
  145MOL0     H19544   3.241   6.379   9.367  0.9917 -1.0592  0.8909
  145MOL0     H19545   3.072   6.352   9.101 -1.1517 -0.7206  0.9104
  145MOL0     H19546   3.102   6.496   9.203 -1.9690  1.5628 -4.1642
  145MOL0     H19547   2.973   6.401   9.395  0.0815 -3.6651  1.6134
  145MOL0     H19548   2.977   6.249   9.308  3.6052  0.9285 -0.2414
  145MOL0     H19549   2.842   6.517   9.211 -1.8253  0.2528  3.5742
  145MOL0     H19550   2.806   6.361   9.142 -2.2529 -1.0665  0.5811
  145MOL0     H19551   2.640   6.458   9.271  0.5145  4.9090  2.8742
  145MOL0     H19552   2.743   6.444   9.421  4.4263 -0.7611 -2.0602
  145MOL0     H19553   2.545   6.257   9.338  0.4665  0.4363 -1.1861
  145MOL0     H19554   2.693   6.181   9.274 -2.5649 -0.5628 -1.9908
  145MOL0     H19555   3.346   6.639   8.942  0.4025  0.1448 -2.2966
  145MOL0     H19556   3.433   6.804   8.786  2.5080  1.0431 -1.4906
  145MOL0     H19557   3.789   7.213   8.857 -0.5036 -0.1006  0.1057
  145MOL0     H19558   3.914   7.354   8.709  1.8179 -2.7015  0.8707
  145MOL0     H19559   4.996   7.700   8.745  1.0842 -1.6364 -1.7789
  145MOL0     H19560   5.107   7.487   8.724 -3.7121  3.3157  0.1040
  145MOL0     H19561   5.523   7.258   8.927  3.1982 -1.1139  0.0385
  145MOL0     H19562   5.649   7.040   8.916  1.1659  0.9753 -1.6454
  145MOL0     H19563   5.715   6.856   8.613 -0.8133  1.1161 -0.4823
  145MOL0     H19564   5.553   6.776   8.584 -0.4441 -0.2112 -0.1698
  145MOL0     H19565   5.632   6.580   8.720  1.5045 -2.7830 -0.2651
  145MOL0     H19566   5.782   6.670   8.749 -3.1239  0.8804  3.3565
  145MOL0     H19567   5.656   6.600   8.478 -2.3781 -0.5819  2.3707
  145MOL0     H19568   5.774   6.495   8.538  0.3199  0.1212  0.3798
  145MOL0     H19569   5.844   6.784   8.450 -1.0328 -0.6066 -1.2207
  145MOL0     H19570   5.952   6.682   8.540 -0.0889 -0.1651  0.0535
  145MOL0     H19571   5.972   6.500   8.164  3.1999  0.8823  1.5861
  145MOL0     H19572   5.349   6.853   8.680 -3.3014  0.4090  1.5359
  145MOL0     H19573   5.172   7.005   8.585 -0.9977  1.5305 -0.4600
  145MOL0     H19574   5.110   6.997   8.742  0.4258 -1.6852 -0.7394
  145MOL0     H19575   5.135   7.159   8.658 -2.7389 -1.3736 -0.2263
  146MOL0     O19576   3.113   1.094   5.525  0.3277 -0.2134 -0.4051
  146MOL0     C19577   3.162   1.207   5.540 -0.4272  0.5683 -0.5048
  146MOL0     O19578   3.098   1.303   5.616 -0.0192 -0.0303  0.7265
  146MOL0     C19579   2.962   1.283   5.646  0.3142  0.2816 -0.2867
  146MOL0     C19580   2.872   1.281   5.540 -0.0246  0.6524  0.3478
  146MOL0     C19581   2.737   1.283   5.576 -0.2279  0.7665 -0.6920
  146MOL0     C19582   2.690   1.282   5.710 -0.0427  0.2186 -0.0907
  146MOL0     O19583   2.549   1.275   5.743  0.5919 -0.8291  1.0427
  146MOL0     C19584   2.497   1.167   5.807  0.6631  0.4173 -0.5154
  146MOL0     C19585   2.455   1.200   5.959 -0.2977 -0.0034  0.1203
  146MOL0     C19586   2.304   1.241   5.974  0.2197 -1.2462  0.5271
  146MOL0     C19587   2.282   1.311   6.106  1.1269 -0.0905 -0.1167
  146MOL0     C19588   2.144   1.390   6.117  0.9249 -0.1168 -0.2183
  146MOL0     C19589   2.139   1.492   6.233 -0.6151  0.3544 -0.8818
  146MOL0     C19590   2.020   1.578   6.214 -1.0140 -0.2029  0.5490
  146MOL0     C19591   1.997   1.669   6.343  0.3985 -0.6991 -0.5430
  146MOL0     N19592   2.106   1.781   6.351  0.9978  0.3055 -0.2353
  146MOL0     C19593   2.132   1.876   6.262 -0.4062 -0.1310 -0.6032
  146MOL0     C19594   2.247   1.937   6.308 -0.3299 -0.1757 -0.8136
  146MOL0     C19595   2.316   2.045   6.248 -0.7655 -0.3643  0.3469
  146MOL0     C19596   2.466   2.028   6.236  0.5486  0.7514  0.2982
  146MOL0     C19597   2.510   1.910   6.131  0.6262 -1.1616  0.1961
  146MOL0     C19598   2.660   1.898   6.125 -0.0628 -0.6875 -0.7578
  146MOL0     O19599   2.723   2.025   6.119  0.2433 -0.1768 -0.0706
  146MOL0     C19600   2.859   2.036   6.119  0.1810  0.4721  0.1585
  146MOL0     C19601   2.952   1.927   6.124 -0.2115  0.2248  0.7455
  146MOL0     C19602   3.085   1.947   6.129 -0.4894 -0.5302  0.4456
  146MOL0     C19603   3.131   2.074   6.135  0.0264 -0.4592 -0.0240
  146MOL0     C19604   3.282   2.084   6.122  0.4197  0.2139  0.3216
  146MOL0     O19605   3.329   2.210   6.090 -0.0950  0.5154 -0.7008
  146MOL0     C19606   3.464   2.238   6.095  0.1511  0.1069  0.0860
  146MOL0     C19607   3.574   2.185   6.028  0.0728 -0.3303  0.5836
  146MOL0     C19608   3.702   2.231   6.038 -0.7934 -0.0650  0.2665
  146MOL0     C19609   3.733   2.322   6.144  0.3725  0.4273 -0.0440
  146MOL0     O19610   3.865   2.356   6.179 -0.5713  0.8262 -0.5014
  146MOL0     C19611   3.896   2.444   6.286 -0.4433  0.0677  0.5195
  146MOL0     C19612   4.048   2.471   6.282  0.7183 -1.1334  0.6985
  146MOL0     C19613   4.094   2.550   6.401  0.2864 -0.4982 -0.0490
  146MOL0     C19614   4.056   2.698   6.381 -1.3640  0.2428 -0.0194
  146MOL0     C19615   4.038   2.790   6.498 -0.8194  1.0480 -0.0686
  146MOL0     C19616   3.904   2.797   6.560 -0.6775 -0.1735 -0.5349
  146MOL0     C19617   3.836   2.919   6.489  0.5965  0.0618  0.2815
  146MOL0     C19618   3.682   2.926   6.540  0.7674  0.0546 -0.4326
  146MOL0    Cl19619   3.708   2.971   6.716  0.0756  0.1807 -0.4784
  146MOL0     C19620   3.628   2.367   6.227  0.1002 -0.5134  0.0924
  146MOL0     C19621   3.494   2.330   6.199  0.7845  0.5426 -1.4853
  146MOL0     O19622   3.357   1.986   6.134 -0.2166  0.5926  0.2326
  146MOL0     C19623   3.050   2.183   6.125  0.6750 -0.5388  0.2609
  146MOL0     C19624   2.913   2.163   6.121 -0.1859 -0.6477  1.0120
  146MOL0     N19625   2.290   1.862   6.424 -0.2683 -0.1845  0.1062
  146MOL0     N19626   2.203   1.774   6.450 -0.5532 -0.7096 -0.7113
  146MOL0     C19627   2.780   1.285   5.817  0.1526  0.5982  0.0496
  146MOL0     C19628   2.913   1.288   5.784 -0.1899  0.6714  0.0028
  146MOL0     C19629   3.284   1.253   5.461 -0.6957  0.0214  0.4724
  146MOL0     C19630   3.332   1.387   5.483 -0.3504  0.3369 -0.4085
  146MOL0     C19631   3.451   1.427   5.427  0.0554  0.2966 -0.6388
  146MOL0     C19632   3.521   1.338   5.348  0.5576 -0.0459 -0.2117
  146MOL0     O19633   3.637   1.380   5.280 -0.3903  0.2838 -0.5002
  146MOL0     C19634   3.705   1.494   5.322 -0.2491 -0.2111 -0.2818
  146MOL0     C19635   3.848   1.473   5.270  0.2638  0.9715 -0.2248
  146MOL0     C19636   3.942   1.563   5.336 -0.2514 -0.2793  0.3886
  146MOL0     C19637   4.067   1.578   5.249  0.5175  0.4915  0.1111
  146MOL0     C19638   4.187   1.627   5.325 -0.1159  0.0375 -0.4772
  146MOL0     C19639   4.283   1.682   5.374  0.3353 -1.1503  0.2812
  146MOL0     C19640   3.486   1.203   5.328 -0.4929  0.5000  0.3654
  146MOL0     C19641   3.364   1.158   5.380  0.0061  0.3607 -0.0997
  146MOL0     C19642   3.330   1.010   5.360 -1.1950 -0.4615  1.0167
  146MOL0     H19643   2.896   1.280   5.434  0.4464  0.5583  0.4510
  146MOL0     H19644   2.653   1.307   5.511  0.2892  0.4768 -1.4848
  146MOL0     H19645   2.404   1.139   5.758  1.8365  0.3276 -2.8278
  146MOL0     H19646   2.571   1.088   5.825  3.0420  2.7795  0.9988
  146MOL0     H19647   2.509   1.289   5.993 -0.0888 -0.8873  2.2383
  146MOL0     H19648   2.472   1.119   6.030  0.0637 -0.6457 -0.6754
  146MOL0     H19649   2.240   1.153   5.960  3.3155 -3.2495 -2.7960
  146MOL0     H19650   2.280   1.314   5.897  0.2547 -0.6009  1.1187
  146MOL0     H19651   2.285   1.238   6.188  0.7225 -1.1373 -1.0155
  146MOL0     H19652   2.360   1.384   6.130 -0.2039  1.6097 -0.8508
  146MOL0     H19653   2.119   1.440   6.022 -0.7389 -1.9357 -0.8084
  146MOL0     H19654   2.068   1.313   6.132 -0.9547  0.4317 -4.9485
  146MOL0     H19655   2.126   1.426   6.319  3.0787 -0.3313 -0.6657
  146MOL0     H19656   2.237   1.540   6.243  0.0826 -0.7324 -2.1476
  146MOL0     H19657   1.933   1.514   6.193 -0.6927 -0.8390  1.1196
  146MOL0     H19658   2.038   1.650   6.133 -0.3162  3.0379  3.3333
  146MOL0     H19659   1.897   1.713   6.345  0.0750 -1.2547 -2.4326
  146MOL0     H19660   2.017   1.607   6.430  0.8412 -1.3200 -1.0779
  146MOL0     H19661   2.078   1.918   6.178  2.2011 -0.1525 -2.3851
  146MOL0     H19662   2.273   2.063   6.148 -0.0011 -2.6967 -0.4604
  146MOL0     H19663   2.283   2.138   6.295 -1.6968 -0.0421 -0.8776
  146MOL0     H19664   2.513   2.121   6.201 -0.6959  0.6284 -1.8992
  146MOL0     H19665   2.501   2.001   6.336 -0.1706 -0.6570  0.1890
  146MOL0     H19666   2.472   1.915   6.028  1.6271  0.7782 -0.1530
  146MOL0     H19667   2.462   1.824   6.177 -2.5654  2.3606  4.2156
  146MOL0     H19668   2.703   1.834   6.047  1.2809 -0.0239 -0.5896
  146MOL0     H19669   2.685   1.850   6.220 -0.4675  0.1079 -0.2415
  146MOL0     H19670   2.926   1.822   6.114 -0.1400  0.4483 -3.9005
  146MOL0     H19671   3.151   1.861   6.117  1.0471  0.9641 -2.9569
  146MOL0     H19672   3.542   2.120   5.948  2.4591  1.3169 -1.8555
  146MOL0     H19673   3.773   2.185   5.969  0.8462  1.1564  1.0847
  146MOL0     H19674   3.856   2.546   6.286  2.0941  1.1554  2.2776
  146MOL0     H19675   3.864   2.410   6.385 -0.2044 -1.8648 -0.0201
  146MOL0     H19676   4.105   2.379   6.300  0.3381 -1.2802  1.1621
  146MOL0     H19677   4.079   2.523   6.191  2.7593  1.2809  2.6320
  146MOL0     H19678   4.050   2.504   6.490 -0.9732  2.0438  0.7123
  146MOL0     H19679   4.203   2.558   6.409  0.1315  1.8955  0.4008
  146MOL0     H19680   3.973   2.713   6.311  0.7841 -0.9640 -3.0389
  146MOL0     H19681   4.138   2.745   6.327 -0.1837  0.9563  2.2417
  146MOL0     H19682   4.072   2.891   6.474  1.5639 -0.4673 -4.0250
  146MOL0     H19683   4.110   2.752   6.572 -0.5433  0.7238 -0.4957
  146MOL0     H19684   3.845   2.706   6.546  0.3175 -1.0858  0.8674
  146MOL0     H19685   3.917   2.811   6.668  1.2648 -2.5583 -0.3703
  146MOL0     H19686   3.839   2.919   6.379 -0.7842  2.0443  0.1839
  146MOL0     H19687   3.875   3.017   6.518  1.4166  1.3695 -4.4000
  146MOL0     H19688   3.624   3.001   6.485  1.0626  0.4011 -0.2801
  146MOL0     H19689   3.618   2.838   6.525 -3.4782  2.6624  0.4386
  146MOL0     H19690   3.656   2.440   6.302  2.2150 -0.9127 -0.2525
  146MOL0     H19691   3.411   2.368   6.259  1.6571 -2.9728  2.4098
  146MOL0     H19692   3.100   2.278   6.109 -0.2838 -0.4273 -2.7541
  146MOL0     H19693   2.846   2.247   6.102  1.1238  0.6139  1.7035
  146MOL0     H19694   2.750   1.285   5.921 -0.3617  3.0647 -0.0362
  146MOL0     H19695   2.995   1.301   5.853  1.1300  0.6703 -1.5145
  146MOL0     H19696   3.278   1.465   5.535  2.5030  2.2780 -0.1882
  146MOL0     H19697   3.477   1.532   5.434 -0.0253  0.2598  0.5225
  146MOL0     H19698   3.707   1.500   5.431  2.3599 -1.1246 -0.2288
  146MOL0     H19699   3.663   1.587   5.281  0.8739  0.7391  0.6547
  146MOL0     H19700   3.860   1.491   5.162  1.1202  1.3023 -0.0872
  146MOL0     H19701   3.883   1.372   5.292 -1.4421  0.4057  0.0394
  146MOL0     H19702   3.960   1.519   5.435  1.1851  0.2005  0.3608
  146MOL0     H19703   3.916   1.669   5.342  2.4875  0.6474 -1.8500
  146MOL0     H19704   4.087   1.482   5.202 -1.4573  1.2739 -2.5709
  146MOL0     H19705   4.048   1.657   5.176  0.6482  2.5987  2.2247
  146MOL0     H19706   4.365   1.740   5.414 -1.2291 -0.2692  2.3890
  146MOL0     H19707   3.549   1.132   5.276 -1.0423  1.3924 -1.5938
  146MOL0     H19708   3.370   0.975   5.264  0.7808  2.0093  0.8252
  146MOL0     H19709   3.366   0.947   5.442 -1.8910 -1.6461  0.4394
  146MOL0     H19710   3.223   1.006   5.341 -1.2714 -0.1082  1.3740
  147MOL0     O19711   1.567   8.677   6.948  0.1855 -0.6443 -0.2119
  147MOL0     C19712   1.506   8.597   6.876 -0.5943  0.8102  0.8928
  147MOL0     O19713   1.440   8.488   6.917  0.2355  0.3874 -0.0323
  147MOL0     C19714   1.429   8.472   7.050 -0.3172  0.0022 -1.5674
  147MOL0     C19715   1.523   8.420   7.145 -0.1216 -0.5715 -0.1451
  147MOL0     C19716   1.521   8.432   7.276  0.2919 -0.4082  0.3723
  147MOL0     C19717   1.404   8.481   7.331 -0.6809  0.8732  0.3232
  147MOL0     O19718   1.403   8.497   7.467 -0.3661  0.3134  0.2112
  147MOL0     C19719   1.277   8.489   7.531  0.1388  0.9578 -0.5778
  147MOL0     C19720   1.328   8.492   7.680 -0.2767  0.2195  0.4686
  147MOL0     C19721   1.203   8.482   7.772  0.7908 -0.6558  0.0460
  147MOL0     C19722   1.096   8.585   7.753 -0.0394 -0.9818 -0.8204
  147MOL0     C19723   0.964   8.538   7.825  0.5355  0.1007  0.3159
  147MOL0     C19724   0.883   8.669   7.856 -0.3366  0.8255  0.1405
  147MOL0     C19725   0.767   8.628   7.951  0.3001  1.5047  0.2585
  147MOL0     C19726   0.685   8.744   7.990  0.4902 -0.8728  0.6355
  147MOL0     N19727   0.611   8.794   7.878  0.4394  0.7482  1.1423
  147MOL0     C19728   0.633   8.920   7.819  0.3244  0.3545 -0.3069
  147MOL0     C19729   0.554   8.921   7.715  1.4522  0.4749 -0.8005
  147MOL0     C19730   0.520   9.021   7.611 -0.8793 -0.9626  0.6188
  147MOL0     C19731   0.639   9.067   7.535  0.0657 -0.3217 -0.3100
  147MOL0     C19732   0.582   9.145   7.411  0.2187 -0.3833 -0.3949
  147MOL0     C19733   0.679   9.168   7.299 -1.4877  0.2420 -0.1111
  147MOL0     O19734   0.628   9.223   7.176  1.0587  0.4609  0.4332
  147MOL0     C19735   0.714   9.265   7.074  0.5184  0.0778  1.2824
  147MOL0     C19736   0.649   9.330   6.971  0.7946 -0.0471 -0.5819
  147MOL0     C19737   0.723   9.383   6.867  0.6666  0.1240 -0.2838
  147MOL0     C19738   0.857   9.364   6.855 -0.3625  0.4369 -0.7655
  147MOL0     C19739   0.928   9.414   6.741  0.5593 -1.0757 -0.4447
  147MOL0     O19740   0.847   9.514   6.672 -0.3003  0.2948  0.4295
  147MOL0     C19741   0.876   9.566   6.550  0.5592 -1.1412 -0.1611
  147MOL0     C19742   0.818   9.694   6.526  0.0298  0.5842  0.3783
  147MOL0     C19743   0.842   9.761   6.402 -0.5586 -0.1112  0.2607
  147MOL0     C19744   0.919   9.697   6.300 -0.1376  0.0277  0.8518
  147MOL0     O19745   0.933   9.784   6.191 -0.7154  0.0581 -0.2884
  147MOL0     C19746   1.031   9.734   6.096  0.7530 -0.1385 -0.4546
  147MOL0     C19747   1.115   9.838   6.028 -0.0283 -0.1608  0.1133
  147MOL0     C19748   1.163   9.779   5.889 -0.2710 -0.1272 -1.1194
  147MOL0     C19749   1.271   9.873   5.843 -0.4074 -0.1399  0.8496
  147MOL0     C19750   1.340   9.836   5.707  0.4271  0.0213  0.7241
  147MOL0     C19751   1.262   9.821   5.574  0.3305  0.5759 -0.0544
  147MOL0     C19752   1.346   9.748   5.472 -0.1503 -0.0976 -0.2883
  147MOL0     C19753   1.282   9.677   5.356 -0.1966 -0.4679 -0.2244
  147MOL0    Cl19754   1.254   9.508   5.398  0.5422  0.1672  0.5777
  147MOL0     C19755   0.978   9.572   6.319  0.2730 -0.2456 -0.3424
  147MOL0     C19756   0.957   9.509   6.449  0.1607  0.3655 -0.3798
  147MOL0     O19757   1.045   9.379   6.716  0.4391 -0.5163 -0.9132
  147MOL0     C19758   0.928   9.298   6.959 -0.5150 -0.1662 -0.3904
  147MOL0     C19759   0.858   9.241   7.072  0.8670 -0.5923  0.2629
  147MOL0     N19760   0.501   8.789   7.706  0.2993 -0.0363 -0.1122
  147MOL0     N19761   0.534   8.714   7.803  0.3181  0.7638  1.0329
  147MOL0     C19762   1.290   8.512   7.249  0.6279  0.5735 -0.3668
  147MOL0     C19763   1.312   8.514   7.109 -0.5001  0.2134 -0.8762
  147MOL0     C19764   1.511   8.610   6.724 -0.0377 -0.9418  0.1313
  147MOL0     C19765   1.452   8.506   6.652 -0.6071 -0.2126 -0.1885
  147MOL0     C19766   1.441   8.496   6.516 -1.4736 -1.0023  0.9340
  147MOL0     C19767   1.496   8.607   6.438 -1.0479  0.3535 -0.0339
  147MOL0     O19768   1.508   8.622   6.300  0.1851 -0.2507  0.0441
  147MOL0     C19769   1.392   8.671   6.232  0.0948 -0.6694  0.2672
  147MOL0     C19770   1.432   8.746   6.108 -0.7546 -0.5451 -0.1985
  147MOL0     C19771   1.503   8.664   6.004 -1.1446  0.4564  1.3049
  147MOL0     C19772   1.567   8.764   5.902  0.3737 -0.3784 -0.2377
  147MOL0     C19773   1.659   8.696   5.807 -0.7651  0.5923 -1.2269
  147MOL0     C19774   1.742   8.647   5.722  1.0712  0.1696 -0.1277
  147MOL0     C19775   1.560   8.713   6.504 -0.3049  1.0448 -0.4339
  147MOL0     C19776   1.568   8.720   6.647  0.8516 -0.7318 -0.9487
  147MOL0     C19777   1.634   8.851   6.705  0.0481  0.8382  0.2740
  147MOL0     H19778   1.609   8.374   7.098  1.7284  0.3976  2.1203
  147MOL0     H19779   1.608   8.417   7.338 -0.0547 -1.0473  0.7150
  147MOL0     H19780   1.214   8.572   7.497 -2.0782 -1.3540 -2.5141
  147MOL0     H19781   1.217   8.400   7.514 -0.1524  0.9617  0.4058
  147MOL0     H19782   1.384   8.582   7.705  1.1894 -0.5347 -0.0023
  147MOL0     H19783   1.404   8.417   7.700  0.1050  0.9176  1.7518
  147MOL0     H19784   1.230   8.467   7.877 -3.8261 -0.4046  1.4949
  147MOL0     H19785   1.146   8.390   7.758 -3.4192  1.2560  2.5847
  147MOL0     H19786   1.145   8.676   7.788  1.0448 -2.2909  1.2607
  147MOL0     H19787   1.072   8.613   7.650  3.4361  1.9266 -1.0323
  147MOL0     H19788   0.918   8.471   7.751  1.0879  2.5890 -2.4310
  147MOL0     H19789   0.982   8.493   7.923 -2.6004 -2.4169 -0.0840
  147MOL0     H19790   0.947   8.739   7.910  0.1505 -0.6859  1.6173
  147MOL0     H19791   0.846   8.718   7.766  2.0196 -1.1902 -2.0659
  147MOL0     H19792   0.800   8.580   8.044 -1.1535 -1.0810 -0.4570
  147MOL0     H19793   0.701   8.556   7.902  1.4621 -0.6235  1.6450
  147MOL0     H19794   0.607   8.733   8.065 -0.2622  1.9167  0.3619
  147MOL0     H19795   0.747   8.828   8.022  1.4029 -2.1275  2.3295
  147MOL0     H19796   0.692   8.999   7.865 -0.2189  1.6561 -1.7337
  147MOL0     H19797   0.464   8.960   7.539 -0.2231 -0.5540 -0.2490
  147MOL0     H19798   0.474   9.107   7.659  0.1049 -0.9134  1.5109
  147MOL0     H19799   0.699   9.139   7.592 -0.5755  1.9074 -2.3126
  147MOL0     H19800   0.694   8.983   7.491  0.6748  0.8185 -1.8437
  147MOL0     H19801   0.533   9.234   7.451 -0.9756  1.0072 -4.4920
  147MOL0     H19802   0.499   9.088   7.368  0.1588  0.1446 -0.9888
  147MOL0     H19803   0.729   9.074   7.273 -0.8420  0.7407 -0.6954
  147MOL0     H19804   0.746   9.233   7.355  0.4953 -3.0722  1.6557
  147MOL0     H19805   0.540   9.339   6.969  0.8996  1.3165 -0.9653
  147MOL0     H19806   0.654   9.436   6.802 -2.6006 -3.5245 -0.2132
  147MOL0     H19807   0.756   9.735   6.605  1.2093  2.0319  0.5908
  147MOL0     H19808   0.822   9.866   6.385  2.4000  0.8842  2.2525
  147MOL0     H19809   1.105   9.663   6.135  0.3914 -0.5170 -0.4573
  147MOL0     H19810   0.974   9.682   6.019 -1.8691  1.2707  0.4293
  147MOL0     H19811   1.059   9.931   6.015 -0.5608 -0.4496  0.3181
  147MOL0     H19812   1.206   9.856   6.086  1.7098 -0.3656 -2.3947
  147MOL0     H19813   1.202   9.678   5.903 -0.8082 -0.1149  0.6815
  147MOL0     H19814   1.085   9.769   5.813 -0.4098  0.1166 -1.0109
  147MOL0     H19815   1.352   9.879   5.916  1.1915 -4.1376 -0.2812
  147MOL0     H19816   1.226   9.971   5.826 -0.5087 -0.1675  0.9526
  147MOL0     H19817   1.407   9.750   5.713 -0.6063 -1.2053 -2.8524
  147MOL0     H19818   1.399   9.927   5.690 -0.7652  0.7749  0.5261
  147MOL0     H19819   1.172   9.760   5.591  0.6323 -0.6781 -2.5059
  147MOL0     H19820   1.235   9.923   5.546 -2.8817  0.2616  1.4321
  147MOL0     H19821   1.401   9.673   5.529 -0.3679 -0.1667 -0.1675
  147MOL0     H19822   1.407   9.822   5.420  0.4190 -0.9377 -0.8538
  147MOL0     H19823   1.193   9.735   5.334  1.1742  0.9969 -2.2822
  147MOL0     H19824   1.353   9.685   5.274 -1.4613  3.7377 -1.1495
  147MOL0     H19825   1.008   9.500   6.242 -0.3298  0.0414 -0.8542
  147MOL0     H19826   1.000   9.410   6.455 -1.3095 -0.3522 -1.1311
  147MOL0     H19827   1.036   9.293   6.951 -0.2449  0.2763  2.0897
  147MOL0     H19828   0.916   9.204   7.156  2.8705  0.8027 -0.4077
  147MOL0     H19829   1.200   8.546   7.299 -0.1358  0.0120 -1.3268
  147MOL0     H19830   1.239   8.552   7.038 -0.8382 -0.2877 -0.7984
  147MOL0     H19831   1.411   8.415   6.694  0.8284  0.1910  2.3048
  147MOL0     H19832   1.393   8.409   6.472 -1.2152 -0.6654 -0.0474
  147MOL0     H19833   1.339   8.743   6.294 -1.5539 -2.8416  1.5412
  147MOL0     H19834   1.320   8.593   6.205 -0.7236  0.5855 -1.3345
  147MOL0     H19835   1.503   8.820   6.147 -0.8447 -0.7025  0.2668
  147MOL0     H19836   1.351   8.789   6.048 -1.0554 -1.3501 -0.3828
  147MOL0     H19837   1.444   8.587   5.954  2.2195 -0.4475 -1.7385
  147MOL0     H19838   1.588   8.612   6.049  0.6131  1.9024 -0.2071
  147MOL0     H19839   1.503   8.841   5.858  1.1231  0.9813  0.9682
  147MOL0     H19840   1.636   8.816   5.969 -1.9963  2.0513  0.4823
  147MOL0     H19841   1.812   8.597   5.658  1.6769  1.7189 -0.7004
  147MOL0     H19842   1.614   8.791   6.452  1.4312 -0.4331 -0.9430
  147MOL0     H19843   1.627   8.929   6.628 -1.5564  1.7701  1.3281
  147MOL0     H19844   1.585   8.881   6.798 -0.7877 -1.8659  0.7762
  147MOL0     H19845   1.742   8.843   6.723  0.0001  0.0615  0.2291
  148MOL0     O19846   7.216   8.194  11.227 -0.3563  0.1391  0.6479
  148MOL0     C19847   7.151   8.171  11.119 -0.3262  0.2644 -0.1810
  148MOL0     O19848   7.199   8.090  11.014 -0.4171 -0.3226  0.0882
  148MOL0     C19849   7.329   8.081  10.978 -0.7123  0.0517 -0.5302
  148MOL0     C19850   7.433   8.155  11.024 -0.9627  1.0765  0.0112
  148MOL0     C19851   7.566   8.109  11.012 -0.5167 -0.1135 -0.1563
  148MOL0     C19852   7.592   7.983  10.943  0.3575 -0.5429 -0.0686
  148MOL0     O19853   7.724   7.944  10.919 -0.0330 -0.0668 -0.2391
  148MOL0     C19854   7.754   7.924  10.775 -0.2002  0.0566  0.0944
  148MOL0     C19855   7.894   7.894  10.768 -0.1696 -0.3136 -0.1128
  148MOL0     C19856   7.928   7.852  10.617 -0.1176  0.2694  0.0614
  148MOL0     C19857   8.067   7.785  10.600  0.7005  0.5206  0.0268
  148MOL0     C19858   8.154   7.836  10.480 -0.3666  0.1713 -0.0046
  148MOL0     C19859   8.101   7.802  10.341  0.5725 -0.5587  0.5490
  148MOL0     C19860   8.216   7.822  10.238 -0.1854  0.5576  0.8621
  148MOL0     C19861   8.227   7.965  10.169 -0.1320 -0.0572  0.1250
  148MOL0     N19862   8.284   8.063  10.269  0.4161  0.7035 -0.6951
  148MOL0     C19863   8.202   8.148  10.351 -1.0294 -0.7616  0.0027
  148MOL0     C19864   8.294   8.213  10.427  1.0666 -0.8692  0.3846
  148MOL0     C19865   8.251   8.312  10.532  0.2271 -0.0364  0.5484
  148MOL0     C19866   8.200   8.435  10.452  0.3502  0.1184 -0.6170
  148MOL0     C19867   8.318   8.526  10.418 -0.7270 -0.5502  0.2473
  148MOL0     C19868   8.403   8.592  10.526 -0.0020 -0.1500 -0.5468
  148MOL0     O19869   8.511   8.655  10.458 -0.8931 -0.0498  0.1646
  148MOL0     C19870   8.632   8.662  10.518 -0.9364  0.3192 -0.4829
  148MOL0     C19871   8.644   8.692  10.657  0.5615 -0.1892 -0.1326
  148MOL0     C19872   8.772   8.707  10.717 -1.0182 -0.4189  0.7267
  148MOL0     C19873   8.892   8.686  10.648  0.2733  0.6763 -0.4433
  148MOL0     C19874   9.023   8.706  10.709  1.2644  0.2556  0.2242
  148MOL0     O19875   9.130   8.696  10.634 -0.9833  1.2228 -0.2778
  148MOL0     C19876   9.260   8.722  10.676 -0.6401 -0.1065 -1.2989
  148MOL0     C19877   9.325   8.669  10.784  0.8190  0.5019 -0.0988
  148MOL0     C19878   9.450   8.706  10.830 -0.4689 -0.6911 -0.0888
  148MOL0     C19879   9.530   8.796  10.759  0.6729  0.1891 -0.1735
  148MOL0     O19880   9.651   8.845  10.785  0.1075  0.1563  0.5296
  148MOL0     C19881   9.709   8.818  10.911  0.3568 -0.3628 -0.7831
  148MOL0     C19882   9.852   8.882  10.903 -1.3040 -1.3232 -0.2950
  148MOL0     C19883   9.947   8.796  10.827 -0.3145  0.7539  0.1126
  148MOL0     C19884  10.072   8.870  10.780  0.0893 -1.0833  0.7181
  148MOL0     C19885  10.159   8.774  10.706 -0.2512 -0.6918  0.0115
  148MOL0     C19886  10.234   8.708  10.821  0.1259  0.6076  0.7334
  148MOL0     C19887  10.338   8.629  10.750  0.7938 -0.2963  0.0376
  148MOL0     C19888  10.411   8.512  10.831  0.4454 -0.1849 -0.0441
  148MOL0    Cl19889  10.489   8.570  10.977  0.4045  0.2337  0.1043
  148MOL0     C19890   9.470   8.854  10.640 -0.0831  0.1602 -0.9700
  148MOL0     C19891   9.335   8.816  10.606 -0.3460 -0.0179  0.3147
  148MOL0     O19892   9.024   8.739  10.829 -0.3379  0.5646  0.8016
  148MOL0     C19893   8.880   8.658  10.510 -0.5444  0.3937  0.1274
  148MOL0     C19894   8.752   8.653  10.444  0.2997 -0.1230  1.1477
  148MOL0     N19895   8.425   8.179  10.380  0.1198 -0.1529  0.4231
  148MOL0     N19896   8.407   8.094  10.286  0.2719  0.2112  0.0836
  148MOL0     C19897   7.480   7.917  10.887 -1.0168 -0.7586  0.1343
  148MOL0     C19898   7.354   7.968  10.908 -0.6211  0.6160 -0.8405
  148MOL0     C19899   7.025   8.240  11.115  1.1745  0.5158 -0.5277
  148MOL0     C19900   6.922   8.174  11.193 -0.1687  0.1866 -0.4100
  148MOL0     C19901   6.796   8.243  11.214  0.3267 -0.7425  0.0452
  148MOL0     C19902   6.769   8.373  11.154 -0.7796 -0.0343 -0.0329
  148MOL0     O19903   6.663   8.456  11.186 -0.5978  0.0593 -0.1677
  148MOL0     C19904   6.543   8.388  11.200  0.2942  0.8653  0.1552
  148MOL0     C19905   6.488   8.361  11.053  0.2699  0.5981  1.1314
  148MOL0     C19906   6.354   8.285  11.060  0.1743 -0.0335  0.3175
  148MOL0     C19907   6.230   8.364  11.098  0.5017 -0.4035  0.1832
  148MOL0     C19908   6.110   8.282  11.071  0.5284 -0.5088 -0.0932
  148MOL0     C19909   5.999   8.222  11.055 -0.5479  0.7059 -0.7733
  148MOL0     C19910   6.872   8.417  11.073 -0.0597 -0.5939 -0.3795
  148MOL0     C19911   7.000   8.360  11.056 -0.0262  0.4163 -0.4025
  148MOL0     C19912   7.080   8.418  10.947  0.1731  0.2570  0.5436
  148MOL0     H19913   7.428   8.241  11.090 -1.7767  1.2697 -0.2880
  148MOL0     H19914   7.642   8.171  11.058 -0.2269 -0.8425  0.3605
  148MOL0     H19915   7.706   7.834  10.735  4.1524 -1.5743 -2.2561
  148MOL0     H19916   7.732   8.010  10.711  1.6730  0.2561 -0.3383
  148MOL0     H19917   7.915   7.806  10.830 -2.6451 -0.5763  0.4827
  148MOL0     H19918   7.954   7.980  10.798  0.6433 -0.7952 -0.3272
  148MOL0     H19919   7.918   7.938  10.551 -0.0608 -1.1088 -1.7977
  148MOL0     H19920   7.857   7.787  10.566 -1.9276  1.1457  1.3437
  148MOL0     H19921   8.129   7.808  10.687 -0.4193  0.0214  0.9964
  148MOL0     H19922   8.046   7.679  10.583  0.4107  0.9506 -2.6321
  148MOL0     H19923   8.165   7.941  10.508  0.2748 -0.3623  1.9643
  148MOL0     H19924   8.249   7.780  10.473 -1.1104 -0.9021 -3.4506
  148MOL0     H19925   8.058   7.701  10.349 -0.3349 -0.1270  1.3114
  148MOL0     H19926   8.016   7.866  10.316 -1.2602 -3.5158 -1.4381
  148MOL0     H19927   8.185   7.749  10.163  2.1010  0.5573 -0.1720
  148MOL0     H19928   8.314   7.782  10.267  0.6260  0.3477 -1.9562
  148MOL0     H19929   8.283   7.956  10.076 -0.4799 -1.5997  0.0355
  148MOL0     H19930   8.126   7.997  10.144 -0.6781 -1.8750 -0.1438
  148MOL0     H19931   8.096   8.151  10.377 -1.1495  0.8201 -0.5813
  148MOL0     H19932   8.182   8.273  10.607  2.9970 -1.7763  2.3637
  148MOL0     H19933   8.345   8.331  10.585 -0.0752  1.3984  0.6329
  148MOL0     H19934   8.154   8.408  10.356 -0.4282  0.3731 -0.3231
  148MOL0     H19935   8.137   8.494  10.519  1.8139  0.6876  0.3051
  148MOL0     H19936   8.265   8.606  10.365 -1.6564 -0.8977  0.6373
  148MOL0     H19937   8.375   8.473  10.342 -1.3413  0.3311 -0.8601
  148MOL0     H19938   8.424   8.525  10.610 -0.2209  2.2944  1.5838
  148MOL0     H19939   8.344   8.667  10.579  0.6792  0.1201 -0.1572
  148MOL0     H19940   8.557   8.696  10.722  1.9032  2.6528  1.6688
  148MOL0     H19941   8.772   8.740  10.820 -1.5732  1.5845  0.1293
  148MOL0     H19942   9.255   8.615  10.848  1.1191  0.2277 -0.0022
  148MOL0     H19943   9.483   8.666  10.925 -0.2843 -1.8508 -0.6186
  148MOL0     H19944   9.639   8.868  10.980  0.7931  2.8284 -2.4498
  148MOL0     H19945   9.716   8.713  10.939  1.3593 -0.4560 -1.3466
  148MOL0     H19946   9.839   8.982  10.860  5.9663 -0.4468 -1.8143
  148MOL0     H19947   9.890   8.888  11.006 -3.1785 -0.8736  0.4165
  148MOL0     H19948   9.976   8.728  10.907 -2.0005  2.9479  2.7631
  148MOL0     H19949   9.903   8.741  10.743  1.4003  2.7960 -2.2797
  148MOL0     H19950  10.114   8.942  10.850 -2.8922  4.1214 -2.2044
  148MOL0     H19951  10.034   8.945  10.710  2.1028  0.3390  1.0529
  148MOL0     H19952  10.228   8.837  10.650 -1.6835  1.2801  0.3324
  148MOL0     H19953  10.103   8.720  10.629 -1.0628  2.2307 -1.6145
  148MOL0     H19954  10.269   8.785  10.891  0.5963  2.4362 -1.4115
  148MOL0     H19955  10.179   8.637  10.882  1.7394 -1.0878  0.3007
  148MOL0     H19956  10.418   8.679  10.695 -0.0222  1.2778  0.2227
  148MOL0     H19957  10.287   8.583  10.665  2.5879 -0.9989 -0.7138
  148MOL0     H19958  10.334   8.442  10.863 -1.0585  1.5661  0.3112
  148MOL0     H19959  10.480   8.467  10.759 -0.4336  0.3576 -1.2453
  148MOL0     H19960   9.524   8.927  10.580  0.5529  1.4296  1.0634
  148MOL0     H19961   9.303   8.844  10.506 -1.0821 -2.1906 -0.1094
  148MOL0     H19962   8.964   8.649  10.442 -1.0157 -1.0688 -0.3062
  148MOL0     H19963   8.736   8.632  10.339  0.7985  0.1013  1.0225
  148MOL0     H19964   7.502   7.819  10.847 -1.6309 -1.1631  0.7436
  148MOL0     H19965   7.268   7.918  10.863 -1.7724  1.2933  0.5427
  148MOL0     H19966   6.949   8.082  11.242 -1.6729 -0.6275 -1.0357
  148MOL0     H19967   6.727   8.194  11.283  0.0421 -2.8541 -1.6235
  148MOL0     H19968   6.478   8.449  11.263  0.5981  1.4808 -0.1184
  148MOL0     H19969   6.549   8.296  11.259  2.1974  0.1562 -1.0429
  148MOL0     H19970   6.564   8.302  11.001 -0.2681 -2.2925  3.4392
  148MOL0     H19971   6.476   8.443  10.981 -0.1518 -2.8566 -3.1577
  148MOL0     H19972   6.353   8.213  11.142  0.8967 -1.1670 -0.6355
  148MOL0     H19973   6.332   8.230  10.968  1.9562  0.1267 -0.2471
  148MOL0     H19974   6.235   8.392  11.204  2.8925 -1.0924  0.3193
  148MOL0     H19975   6.234   8.455  11.037 -0.2591 -0.5478 -0.0834
  148MOL0     H19976   5.919   8.153  11.037 -1.5585 -0.0628  5.0217
  148MOL0     H19977   6.845   8.509  11.023 -1.9080 -1.0071 -0.2108
  148MOL0     H19978   7.073   8.527  10.941  5.0626  0.9500  3.0127
  148MOL0     H19979   7.186   8.401  10.967 -0.6169 -0.5332  5.5900
  148MOL0     H19980   7.035   8.376  10.856 -0.7106  2.3902 -0.0662
  149MOL0     O19981   9.807   6.143   1.587  0.0171 -0.1315 -0.2705
  149MOL0     C19982   9.741   6.163   1.493  0.4043 -0.5793  1.1418
  149MOL0     O19983   9.728   6.085   1.379  0.0036  0.4024 -0.9519
  149MOL0     C19984   9.812   5.980   1.378  0.3572  0.2645  0.9711
  149MOL0     C19985   9.764   5.847   1.369 -0.4707 -0.1897 -0.4639
  149MOL0     C19986   9.854   5.745   1.325  0.5906  0.0925 -0.4781
  149MOL0     C19987   9.985   5.770   1.289 -0.0648  0.2353 -0.7306
  149MOL0     O19988  10.064   5.682   1.221 -0.0974  0.0364 -0.3041
  149MOL0     C19989  10.021   5.543   1.181  0.4569  0.0477  0.3770
  149MOL0     C19990  10.081   5.513   1.042 -0.5976 -0.6598 -0.3260
  149MOL0     C19991  10.034   5.378   0.981 -0.0756  0.1258 -0.3446
  149MOL0     C19992  10.098   5.390   0.836 -0.7250  0.6578 -0.0349
  149MOL0     C19993  10.074   5.268   0.753  0.8449 -0.0738  0.3658
  149MOL0     C19994  10.135   5.139   0.808 -0.0638 -0.2730  0.2871
  149MOL0     C19995  10.149   5.031   0.702 -0.0404  0.0299 -0.1630
  149MOL0     C19996  10.262   4.937   0.742  0.6770 -0.5252  0.7968
  149MOL0     N19997  10.252   4.815   0.657 -0.2854 -0.1232 -0.0315
  149MOL0     C19998  10.303   4.694   0.694 -0.2235  0.0487  0.3576
  149MOL0     C19999  10.321   4.620   0.580 -0.7622  0.8739 -0.8288
  149MOL0     C20000  10.377   4.477   0.592 -0.2512  0.9540 -0.1470
  149MOL0     C20001  10.511   4.474   0.666  0.2748 -0.3536 -0.5711
  149MOL0     C20002  10.568   4.330   0.672  0.0935 -0.8504  0.6455
  149MOL0     C20003  10.727   4.324   0.659 -0.1227 -0.1293 -0.7970
  149MOL0     O20004  10.777   4.199   0.702 -0.2842  0.5089 -0.3877
  149MOL0     C20005  10.905   4.172   0.742  0.0450 -0.8205 -0.0703
  149MOL0     C20006  11.016   4.263   0.732  0.4566 -0.1026  0.7243
  149MOL0     C20007  11.141   4.239   0.785  0.0275 -0.1863 -0.6774
  149MOL0     C20008  11.164   4.120   0.856  0.1769 -0.9542 -0.2870
  149MOL0     C20009  11.299   4.083   0.926  1.3273 -0.3173 -0.6642
  149MOL0     O20010  11.312   3.956   0.955  0.1935  0.5554 -0.5857
  149MOL0     C20011  11.436   3.919   1.009 -0.7526 -0.1507 -0.6417
  149MOL0     C20012  11.431   3.837   1.117 -1.4375 -0.3404 -0.9268
  149MOL0     C20013  11.544   3.794   1.194 -0.3776  0.5907  0.1388
  149MOL0     C20014  11.670   3.842   1.157 -0.0357 -0.4962 -0.0543
  149MOL0     O20015  11.783   3.799   1.230  0.6041  0.3771 -0.6640
  149MOL0     C20016  11.752   3.759   1.372 -0.2554 -0.2286  0.1911
  149MOL0     C20017  11.887   3.775   1.446 -0.5410  0.3705 -0.1326
  149MOL0     C20018  11.912   3.906   1.514  0.8119  0.0879 -1.0367
  149MOL0     C20019  12.038   3.920   1.601  0.9660  0.5591 -0.2266
  149MOL0     C20020  12.171   3.888   1.526  0.0186  0.7560 -0.2833
  149MOL0     C20021  12.294   3.921   1.626  0.3853  0.6907  1.0887
  149MOL0     C20022  12.322   3.805   1.722 -0.8129 -0.6606  0.1350
  149MOL0     C20023  12.345   3.846   1.869  1.2777 -1.4924 -0.0362
  149MOL0    Cl20024  12.350   3.700   1.974 -0.2810 -0.0959  0.2286
  149MOL0     C20025  11.679   3.930   1.045 -1.2575 -0.2628  1.0999
  149MOL0     C20026  11.570   3.975   0.983 -0.1395 -0.5922  0.3624
  149MOL0     O20027  11.377   4.178   0.949  0.1683  0.2861 -0.2626
  149MOL0     C20028  11.057   4.036   0.885 -0.7791  0.3821 -0.0892
  149MOL0     C20029  10.932   4.059   0.823  0.7511  0.7821 -0.1597
  149MOL0     N20030  10.281   4.704   0.480 -0.8586 -0.0904 -0.2278
  149MOL0     N20031  10.242   4.818   0.524  1.0718 -0.0320  0.4984
  149MOL0     C20032  10.034   5.897   1.318 -0.2608  0.4687 -0.8309
  149MOL0     C20033   9.945   5.999   1.350 -0.3204 -0.6414  0.1465
  149MOL0     C20034   9.652   6.285   1.486  0.2072 -1.0143 -0.0898
  149MOL0     C20035   9.632   6.360   1.360 -0.5412 -0.0452 -0.7850
  149MOL0     C20036   9.570   6.480   1.356  0.5723 -0.2716 -0.3405
  149MOL0     C20037   9.507   6.530   1.469  0.2400 -1.0133 -0.1695
  149MOL0     O20038   9.412   6.631   1.477 -0.0120  0.3130  0.7708
  149MOL0     C20039   9.408   6.731   1.368  0.0751 -0.3836  0.5418
  149MOL0     C20040   9.349   6.863   1.418 -0.3256  0.2188  0.0517
  149MOL0     C20041   9.223   6.853   1.488  0.3781 -0.7560 -0.4463
  149MOL0     C20042   9.206   6.977   1.567  0.9992 -0.3421 -0.4579
  149MOL0     C20043   9.161   7.092   1.474 -0.2054  0.2222  0.3257
  149MOL0     C20044   9.132   7.181   1.405 -0.6049  0.6708  0.3899
  149MOL0     C20045   9.527   6.466   1.594  0.8551  0.1883 -0.0728
  149MOL0     C20046   9.594   6.341   1.598 -0.1785  0.2488 -0.0694
  149MOL0     C20047   9.606   6.288   1.743  0.4756 -0.5569  0.2640
  149MOL0     H20048   9.662   5.820   1.395 -1.4673  2.2565 -1.5514
  149MOL0     H20049   9.810   5.648   1.305 -1.0060  0.9752 -1.4772
  149MOL0     H20050  10.052   5.468   1.254  1.2531  0.2316  0.2321
  149MOL0     H20051   9.913   5.527   1.169  0.5970  1.0636 -4.3212
  149MOL0     H20052  10.188   5.505   1.066 -0.6143  2.4729  1.5040
  149MOL0     H20053  10.064   5.591   0.967 -0.1976 -2.0791 -1.9286
  149MOL0     H20054   9.925   5.372   0.970  0.0856  0.0837 -2.1543
  149MOL0     H20055  10.073   5.293   1.038 -0.9883  0.0906  0.2547
  149MOL0     H20056  10.050   5.477   0.790 -1.0653  1.3787  1.6275
  149MOL0     H20057  10.205   5.411   0.839 -0.2051 -1.4136 -1.5906
  149MOL0     H20058   9.966   5.249   0.757  1.3049 -5.0502 -2.2132
  149MOL0     H20059  10.102   5.274   0.647 -1.6025 -0.1368 -0.3682
  149MOL0     H20060  10.238   5.153   0.843  0.3124 -1.9480 -0.0622
  149MOL0     H20061  10.082   5.112   0.900 -2.4015  2.2378 -0.1983
  149MOL0     H20062  10.179   5.075   0.607  1.6003 -1.1749 -0.2383
  149MOL0     H20063  10.059   4.973   0.680  0.1056  0.8862 -3.4436
  149MOL0     H20064  10.357   4.987   0.722 -0.5618  1.6875  0.0863
  149MOL0     H20065  10.256   4.924   0.850 -0.0129 -0.9825  0.7050
  149MOL0     H20066  10.321   4.655   0.794  4.7244 -3.4013 -1.4700
  149MOL0     H20067  10.306   4.408   0.638  1.4909 -0.4349  0.5809
  149MOL0     H20068  10.388   4.427   0.495 -0.1181  0.4984  0.0975
  149MOL0     H20069  10.587   4.532   0.614 -1.0970 -0.2798 -2.5950
  149MOL0     H20070  10.501   4.518   0.766 -1.2870 -2.7131  0.3968
  149MOL0     H20071  10.520   4.265   0.598 -3.1370  3.3284 -1.3603
  149MOL0     H20072  10.538   4.296   0.771  0.2870 -1.0696  0.6291
  149MOL0     H20073  10.768   4.390   0.736  2.3347 -2.4817  0.0888
  149MOL0     H20074  10.760   4.349   0.558 -2.5346  0.4617 -1.4938
  149MOL0     H20075  11.005   4.354   0.674  3.1360  1.4062  2.4000
  149MOL0     H20076  11.219   4.315   0.783 -0.3725  0.2415 -3.3818
  149MOL0     H20077  11.333   3.798   1.142 -1.2853 -1.5108 -2.0493
  149MOL0     H20078  11.531   3.727   1.279  1.5290  0.3463  0.2752
  149MOL0     H20079  11.681   3.824   1.425  2.9204  3.1421  0.7199
  149MOL0     H20080  11.721   3.655   1.379 -0.2225 -0.2977 -0.6019
  149MOL0     H20081  11.891   3.703   1.528  0.4952  3.7452  3.1069
  149MOL0     H20082  11.968   3.765   1.373  0.5392  2.1873  0.7389
  149MOL0     H20083  11.914   3.981   1.435  0.8733 -0.5791 -1.6805
  149MOL0     H20084  11.819   3.920   1.570  0.9843  1.7164 -1.1337
  149MOL0     H20085  12.030   3.855   1.688 -0.6214  0.8026 -0.1655
  149MOL0     H20086  12.047   4.022   1.639  1.2934  1.8187 -3.3427
  149MOL0     H20087  12.169   3.955   1.440 -0.5393  0.6768 -0.3327
  149MOL0     H20088  12.174   3.786   1.487  1.1530  0.4653  0.4868
  149MOL0     H20089  12.385   3.929   1.566  0.5572 -0.7848  1.1010
  149MOL0     H20090  12.265   4.014   1.674 -0.4015  0.9599  0.1421
  149MOL0     H20091  12.414   3.758   1.684  1.3107  2.9897  0.2783
  149MOL0     H20092  12.234   3.740   1.727 -0.8061 -0.6598  0.2774
  149MOL0     H20093  12.435   3.907   1.878  0.2949  0.3241 -1.7366
  149MOL0     H20094  12.257   3.902   1.901  2.5879  0.2657  0.6555
  149MOL0     H20095  11.778   3.964   1.016 -0.3254 -0.3816  3.8470
  149MOL0     H20096  11.566   4.043   0.898 -3.1928 -0.0669  0.8255
  149MOL0     H20097  11.076   3.968   0.967 -0.4360  2.6649  1.8482
  149MOL0     H20098  10.845   3.997   0.841 -0.2060  1.8541 -0.9704
  149MOL0     H20099  10.135   5.920   1.286  0.4423 -2.9264 -1.4152
  149MOL0     H20100   9.973   6.101   1.325  0.6881 -1.2424 -1.3220
  149MOL0     H20101   9.676   6.324   1.267  0.8196  4.3323 -2.0655
  149MOL0     H20102   9.557   6.529   1.260  2.8506 -1.3103 -1.2721
  149MOL0     H20103   9.340   6.679   1.299 -0.0911 -0.5847  0.8555
  149MOL0     H20104   9.503   6.760   1.322 -1.3951  0.6740 -2.0660
  149MOL0     H20105   9.344   6.925   1.327  1.4642 -0.4875 -0.5603
  149MOL0     H20106   9.423   6.897   1.490  0.5200  2.0056 -1.5530
  149MOL0     H20107   9.225   6.763   1.551  1.4597 -1.5387 -1.5556
  149MOL0     H20108   9.149   6.845   1.408 -2.4252  3.0209  1.4779
  149MOL0     H20109   9.113   6.958   1.621  0.0548 -1.2826 -2.3151
  149MOL0     H20110   9.286   7.006   1.636  1.6775  0.2639 -1.4567
  149MOL0     H20111   9.112   7.257   1.333 -1.3081  0.2543  0.1343
  149MOL0     H20112   9.479   6.493   1.687  0.8282 -0.3866  0.0812
  149MOL0     H20113   9.509   6.291   1.793  0.5775 -1.5073  0.5463
  149MOL0     H20114   9.621   6.179   1.746  0.3308 -0.6172 -0.8571
  149MOL0     H20115   9.677   6.354   1.794 -1.4640  3.8653 -2.2042
  150MOL0     O20116   6.180   1.646   7.742  0.6211 -0.1022 -0.2588
  150MOL0     C20117   6.193   1.742   7.813 -0.5626 -0.3426 -0.0697
  150MOL0     O20118   6.317   1.794   7.858  1.1126  0.3492  0.2556
  150MOL0     C20119   6.429   1.709   7.877  0.3094 -0.7785  0.0683
  150MOL0     C20120   6.520   1.693   7.770  0.0101  0.5981  0.2228
  150MOL0     C20121   6.634   1.611   7.794  0.4455  0.0471 -0.4007
  150MOL0     C20122   6.660   1.565   7.923 -0.1910  0.1574  0.3205
  150MOL0     O20123   6.768   1.485   7.942 -0.1166 -0.2544 -0.3180
  150MOL0     C20124   6.741   1.341   7.951  0.5050  0.1378 -0.7989
  150MOL0     C20125   6.713   1.306   8.100 -0.1946 -0.2402  0.0451
  150MOL0     C20126   6.832   1.349   8.189 -0.5572  0.4597 -0.4858
  150MOL0     C20127   6.794   1.336   8.341 -0.0772 -0.2011  1.0176
  150MOL0     C20128   6.817   1.195   8.392  0.0471  0.1716  0.6759
  150MOL0     C20129   6.741   1.176   8.522 -0.0172 -0.0843 -0.3901
  150MOL0     C20130   6.778   1.030   8.591  0.6483 -0.3275 -0.0085
  150MOL0     C20131   6.921   1.033   8.648 -0.7342 -0.0117  0.9636
  150MOL0     N20132   6.938   1.155   8.728 -0.3957  0.1594  0.2537
  150MOL0     C20133   6.899   1.166   8.861  0.5753 -0.5042  0.5182
  150MOL0     C20134   6.950   1.292   8.892  0.2487  0.1674 -0.0441
  150MOL0     C20135   6.934   1.365   9.020  1.1801  0.3473 -0.4751
  150MOL0     C20136   6.859   1.495   9.009 -0.3759  0.5465  0.2621
  150MOL0     C20137   6.824   1.552   9.141 -0.1565 -0.0216 -0.7727
  150MOL0     C20138   6.737   1.680   9.136  0.4772 -0.9926 -0.7181
  150MOL0     O20139   6.738   1.730   9.272  0.0074 -0.2309 -0.3395
  150MOL0     C20140   6.643   1.825   9.311 -0.1958  0.7511 -0.1235
  150MOL0     C20141   6.635   1.851   9.446  0.3920  0.0881  0.7339
  150MOL0     C20142   6.553   1.954   9.491  0.1979 -0.4663  0.1719
  150MOL0     C20143   6.473   2.026   9.407  0.4286  0.4438 -0.0791
  150MOL0     C20144   6.399   2.151   9.450 -0.9460  1.2171  1.3502
  150MOL0     O20145   6.466   2.223   9.540  1.0428  0.3486 -0.3773
  150MOL0     C20146   6.404   2.340   9.553 -0.6097 -0.5633  0.2387
  150MOL0     C20147   6.313   2.361   9.662  0.4623 -0.6158  0.3792
  150MOL0     C20148   6.259   2.496   9.686 -0.5646 -0.5701  0.2045
  150MOL0     C20149   6.311   2.599   9.602 -0.1950  0.2458  0.0378
  150MOL0     O20150   6.274   2.732   9.624  0.2212  0.7482 -0.9137
  150MOL0     C20151   6.353   2.794   9.724  0.7437 -0.1819  0.2390
  150MOL0     C20152   6.410   2.938   9.709 -0.7555 -1.0182 -0.2300
  150MOL0     C20153   6.533   2.930   9.614 -0.1772  0.1345 -0.5248
  150MOL0     C20154   6.488   2.931   9.474  0.1269  0.8839  0.8492
  150MOL0     C20155   6.474   3.062   9.399  0.1916 -0.9387  0.3853
  150MOL0     C20156   6.481   3.042   9.251 -0.3544  0.1754 -0.2980
  150MOL0     C20157   6.344   2.981   9.188 -1.1785  0.5998 -0.2748
  150MOL0     C20158   6.365   2.952   9.042 -1.3703 -0.4137 -0.0005
  150MOL0    Cl20159   6.406   3.087   8.940 -0.4232  0.4589  0.0412
  150MOL0     C20160   6.391   2.575   9.487 -1.1285  0.0065  0.0609
  150MOL0     C20161   6.444   2.440   9.474 -0.0520  0.0353 -0.0699
  150MOL0     O20162   6.289   2.173   9.396 -0.2465 -0.0483 -0.3202
  150MOL0     C20163   6.480   2.010   9.266  0.2717  0.1704  0.1287
  150MOL0     C20164   6.571   1.910   9.223 -0.6955  0.0291  0.0845
  150MOL0     N20165   7.023   1.341   8.788 -0.2877 -0.1552  0.0072
  150MOL0     N20166   7.023   1.257   8.693 -0.5336  0.3960 -0.1001
  150MOL0     C20167   6.565   1.584   8.028 -0.3153 -0.9905 -0.3713
  150MOL0     C20168   6.449   1.662   8.006  0.4672  1.0335 -0.4412
  150MOL0     C20169   6.071   1.817   7.860 -0.0205 -0.9275  1.1515
  150MOL0     C20170   6.096   1.939   7.931 -0.5527 -0.4175  0.6786
  150MOL0     C20171   5.997   2.014   7.988  0.2992 -0.3726  0.1014
  150MOL0     C20172   5.868   1.971   7.971  0.2846  0.0647 -0.5264
  150MOL0     O20173   5.751   2.026   8.029  0.4019  0.2867  0.0530
  150MOL0     C20174   5.763   2.096   8.152 -0.0124  0.5731  1.1160
  150MOL0     C20175   5.640   2.177   8.199  0.9520 -0.1610 -0.2327
  150MOL0     C20176   5.515   2.072   8.201  0.6155 -0.1939 -0.3641
  150MOL0     C20177   5.388   2.155   8.228  0.0408  0.1495  0.6120
  150MOL0     C20178   5.367   2.245   8.109  0.0514 -0.0683  0.8975
  150MOL0     C20179   5.349   2.331   8.030  0.2209  0.0238  1.3019
  150MOL0     C20180   5.833   1.867   7.888  0.0846  0.4613 -0.7785
  150MOL0     C20181   5.932   1.786   7.832 -0.0857 -0.1228 -0.0833
  150MOL0     C20182   5.892   1.664   7.749  0.3910  0.1878 -0.8169
  150MOL0     H20183   6.488   1.732   7.674  0.1756  1.3426  0.4639
  150MOL0     H20184   6.705   1.581   7.718  0.9512  0.0510  0.0579
  150MOL0     H20185   6.652   1.319   7.892  0.8745 -0.0965 -1.2797
  150MOL0     H20186   6.817   1.274   7.909 -1.7490 -1.3158 -2.8215
  150MOL0     H20187   6.685   1.201   8.109 -0.0578 -0.2193  0.7398
  150MOL0     H20188   6.626   1.366   8.127  1.9379  2.3923  1.5290
  150MOL0     H20189   6.853   1.455   8.170 -0.2709  0.5375  0.2487
  150MOL0     H20190   6.923   1.293   8.166  0.7542  0.3977  3.9526
  150MOL0     H20191   6.861   1.412   8.384  0.3216 -0.4621  0.8587
  150MOL0     H20192   6.690   1.366   8.354 -0.6578 -2.2400  1.4436
  150MOL0     H20193   6.785   1.132   8.309  3.8803 -2.0995  0.6769
  150MOL0     H20194   6.923   1.179   8.415 -0.2231 -0.6226  1.4269
  150MOL0     H20195   6.761   1.254   8.597  2.1747 -0.3708 -0.6025
  150MOL0     H20196   6.635   1.173   8.495 -0.3762 -2.8608  0.9183
  150MOL0     H20197   6.771   0.948   8.519  1.2768 -1.0075  0.6844
  150MOL0     H20198   6.710   0.992   8.669  2.4641 -1.2596  1.1993
  150MOL0     H20199   6.950   0.939   8.697 -3.7744 -1.0122  1.0180
  150MOL0     H20200   6.991   1.048   8.564 -1.5931 -1.4603 -0.0628
  150MOL0     H20201   6.834   1.100   8.917 -1.9993  1.5958  0.1905
  150MOL0     H20202   6.875   1.292   9.076  0.7455 -1.3436 -2.9736
  150MOL0     H20203   7.035   1.368   9.062  2.5557 -3.0436 -3.0136
  150MOL0     H20204   6.926   1.568   8.963 -1.7354  0.8114 -1.4280
  150MOL0     H20205   6.777   1.480   8.938 -1.6876 -2.8114  2.2516
  150MOL0     H20206   6.921   1.562   9.190 -0.4814 -1.0802  0.1170
  150MOL0     H20207   6.755   1.481   9.187 -1.3756  1.2307 -0.5771
  150MOL0     H20208   6.641   1.651   9.092  0.5879  1.9519 -3.1846
  150MOL0     H20209   6.782   1.758   9.074 -1.7203 -0.6217 -1.9443
  150MOL0     H20210   6.699   1.809   9.523  3.0188  0.5871 -1.0528
  150MOL0     H20211   6.532   1.990   9.592 -2.8076  0.8238 -0.7966
  150MOL0     H20212   6.294   2.270   9.718  2.7953 -0.9079  0.8058
  150MOL0     H20213   6.189   2.514   9.766 -2.6058  1.3425 -1.8653
  150MOL0     H20214   6.295   2.777   9.815 -2.8104 -2.5360 -2.2122
  150MOL0     H20215   6.441   2.730   9.737  0.3426 -1.3398 -2.2901
  150MOL0     H20216   6.328   2.989   9.658 -2.9782 -0.4461  3.5451
  150MOL0     H20217   6.438   2.996   9.797 -0.3026  0.6299 -1.4206
  150MOL0     H20218   6.594   3.018   9.637  3.0462 -1.5614 -1.9774
  150MOL0     H20219   6.595   2.841   9.624 -2.2552 -1.3188  0.2376
  150MOL0     H20220   6.388   2.890   9.457 -0.2952  2.9404 -2.3930
  150MOL0     H20221   6.561   2.859   9.435 -0.4036  2.7919 -4.4559
  150MOL0     H20222   6.554   3.131   9.427 -1.2995  0.5725  1.0754
  150MOL0     H20223   6.379   3.108   9.428 -0.3617 -2.1955  0.6441
  150MOL0     H20224   6.490   3.135   9.194 -0.2432 -1.4847 -3.2223
  150MOL0     H20225   6.570   2.984   9.222  1.7009  2.5842  0.8836
  150MOL0     H20226   6.266   3.057   9.198  1.6038  3.9196 -1.8155
  150MOL0     H20227   6.318   2.886   9.237 -0.7743  0.7091  0.1620
  150MOL0     H20228   6.442   2.874   9.034  0.1062  0.8509  1.1738
  150MOL0     H20229   6.268   2.923   9.000 -0.7590  0.9998 -2.5770
  150MOL0     H20230   6.424   2.653   9.420 -0.5881 -0.1667  0.1153
  150MOL0     H20231   6.517   2.413   9.398 -0.2585 -0.8988  0.0524
  150MOL0     H20232   6.427   2.060   9.186  0.1323 -0.8517 -0.4287
  150MOL0     H20233   6.574   1.903   9.114  2.5752 -0.2461  0.0757
  150MOL0     H20234   6.593   1.555   8.129  1.3528 -1.3722 -0.9163
  150MOL0     H20235   6.386   1.678   8.094 -0.5465  1.8054 -1.2827
  150MOL0     H20236   6.196   1.973   7.958 -1.0631  0.9378  0.8957
  150MOL0     H20237   6.024   2.105   8.041 -1.4103  0.9733 -1.2021
  150MOL0     H20238   5.833   2.177   8.129 -0.2188  0.5853  0.4990
  150MOL0     H20239   5.801   2.037   8.236  1.2814 -0.7239 -0.3282
  150MOL0     H20240   5.610   2.268   8.148 -2.8947 -0.6723  0.7915
  150MOL0     H20241   5.653   2.211   8.302  0.4616 -0.4907 -0.0582
  150MOL0     H20242   5.530   1.990   8.271 -2.9749 -0.9292 -0.2583
  150MOL0     H20243   5.499   2.036   8.099 -1.9724  1.7645 -0.7360
  150MOL0     H20244   5.304   2.085   8.230  0.6960 -0.6529  2.0594
  150MOL0     H20245   5.403   2.219   8.316 -1.7181  0.6814  0.5629
  150MOL0     H20246   5.348   2.413   7.960 -0.8441  0.4103  1.7527
  150MOL0     H20247   5.730   1.835   7.875 -0.3647  1.8194 -0.7610
  150MOL0     H20248   5.944   1.572   7.777 -0.5002  0.6413  2.9364
  150MOL0     H20249   5.786   1.644   7.763 -0.7805  4.7638 -1.3315
  150MOL0     H20250   5.915   1.686   7.645  0.1838  1.9214 -0.5315
  151MOL0     O20251   1.330   7.989   2.474 -0.0560 -0.4820 -0.4019
  151MOL0     C20252   1.335   8.003   2.348 -0.7810  0.5987  0.4400
  151MOL0     O20253   1.453   8.008   2.270 -0.0722 -0.8215 -0.4496
  151MOL0     C20254   1.577   7.992   2.338 -1.0074  1.4968  0.0199
  151MOL0     C20255   1.666   7.885   2.325  0.3142  0.5932 -0.1944
  151MOL0     C20256   1.784   7.889   2.395 -0.2322 -0.5000 -0.6712
  151MOL0     C20257   1.827   8.005   2.470  0.0401 -0.7730  0.1669
  151MOL0     O20258   1.948   8.015   2.530  0.1088  0.3372 -0.6556
  151MOL0     C20259   1.964   8.002   2.665  0.1360  0.2243 -0.2014
  151MOL0     C20260   2.033   7.857   2.701  0.3515 -0.6843 -0.4612
  151MOL0     C20261   1.941   7.747   2.739 -0.2963 -0.3886 -0.3852
  151MOL0     C20262   1.870   7.764   2.881 -0.7978 -0.4833  0.2126
  151MOL0     C20263   1.761   7.658   2.902 -0.2061  0.0572  0.5575
  151MOL0     C20264   1.833   7.532   2.959  1.1446  0.2585  0.1484
  151MOL0     C20265   1.717   7.440   3.008  0.0258  0.5833 -0.1662
  151MOL0     C20266   1.671   7.473   3.156  0.4945  0.2626 -0.0068
  151MOL0     N20267   1.554   7.384   3.193 -0.0448  0.2173  1.0947
  151MOL0     C20268   1.558   7.255   3.232  0.2348 -0.1563  0.5935
  151MOL0     C20269   1.435   7.234   3.277  0.5036  0.4675  0.2219
  151MOL0     C20270   1.388   7.096   3.329 -1.4942  1.0636  0.8150
  151MOL0     C20271   1.434   7.050   3.469 -0.5381  0.3492  0.0267
  151MOL0     C20272   1.333   7.107   3.572  0.2314  0.2326 -0.8663
  151MOL0     C20273   1.340   7.254   3.627 -0.3786 -0.0885  0.5349
  151MOL0     O20274   1.431   7.262   3.729 -0.3155  0.1853  0.1416
  151MOL0     C20275   1.535   7.349   3.745 -0.2467  0.1404 -0.1445
  151MOL0     C20276   1.567   7.409   3.867  0.6392  0.5039 -0.0781
  151MOL0     C20277   1.671   7.506   3.875  0.3551 -0.7244 -0.3680
  151MOL0     C20278   1.755   7.531   3.770  0.2162  0.3468  0.7063
  151MOL0     C20279   1.873   7.621   3.773 -0.3206  0.2776 -0.2197
  151MOL0     O20280   1.872   7.703   3.882  0.2136  0.0458  0.2526
  151MOL0     C20281   1.961   7.809   3.881  0.0928 -0.8224 -0.5173
  151MOL0     C20282   1.911   7.937   3.847 -0.1229 -0.2750 -0.2699
  151MOL0     C20283   2.013   8.038   3.821 -0.4785  0.1785  0.8152
  151MOL0     C20284   2.148   8.011   3.848  0.1239 -0.2439 -0.9697
  151MOL0     O20285   2.253   8.103   3.829 -0.0752  0.4444  0.8473
  151MOL0     C20286   2.234   8.232   3.763  0.1810 -0.3908 -0.4964
  151MOL0     C20287   2.181   8.358   3.852  0.5812  0.3420 -0.4514
  151MOL0     C20288   2.188   8.491   3.772 -0.3575  0.4183 -0.6252
  151MOL0     C20289   2.123   8.604   3.864  0.5364  0.3116  0.1121
  151MOL0     C20290   2.070   8.727   3.781  0.0798  0.5351  0.5787
  151MOL0     C20291   1.945   8.687   3.700 -0.6143  0.1201  0.3503
  151MOL0     C20292   1.949   8.736   3.548  0.4521  1.1957  1.2105
  151MOL0     C20293   1.827   8.701   3.477 -0.5841 -0.5967  0.1398
  151MOL0    Cl20294   1.717   8.824   3.540 -0.6039  0.1590 -0.2477
  151MOL0     C20295   2.186   7.887   3.910 -0.5830 -0.3756 -0.5412
  151MOL0     C20296   2.094   7.790   3.918 -1.1110  0.3032 -0.9019
  151MOL0     O20297   1.958   7.630   3.682  0.3641 -0.4852 -0.4341
  151MOL0     C20298   1.735   7.450   3.657 -0.1617 -0.1841 -0.5747
  151MOL0     C20299   1.620   7.374   3.638 -0.5255  0.5024 -0.5063
  151MOL0     N20300   1.351   7.341   3.234  0.5927  0.2442 -0.4256
  151MOL0     N20301   1.423   7.429   3.190 -0.6056 -0.2837 -0.9290
  151MOL0     C20302   1.739   8.115   2.472  0.2263  0.4412  0.2104
  151MOL0     C20303   1.620   8.114   2.406  0.5146  0.5579  0.7914
  151MOL0     C20304   1.213   8.051   2.269  0.9406 -0.5656  0.3146
  151MOL0     C20305   1.227   8.096   2.143 -0.3594  0.0644  0.4837
  151MOL0     C20306   1.119   8.151   2.072 -1.7728 -0.4986  0.2942
  151MOL0     C20307   0.995   8.146   2.116  1.0612  0.6631 -0.2359
  151MOL0     O20308   0.903   8.184   2.029  0.3682 -1.1193  0.1147
  151MOL0     C20309   0.758   8.194   2.063 -0.3307 -0.2932  0.0619
  151MOL0     C20310   0.693   8.064   2.063 -0.2281  0.8497  0.8010
  151MOL0     C20311   0.703   7.984   1.931 -0.0116 -0.0893  0.4282
  151MOL0     C20312   0.605   7.855   1.942 -0.4307 -0.4774 -0.7055
  151MOL0     C20313   0.603   7.794   1.813 -0.5431 -0.2623 -1.1497
  151MOL0     C20314   0.613   7.747   1.702  0.3535  0.4006 -0.2138
  151MOL0     C20315   0.972   8.124   2.253  0.0583 -0.8744  0.0627
  151MOL0     C20316   1.081   8.077   2.326  0.0068  0.0056  0.0866
  151MOL0     C20317   1.056   8.037   2.468  0.3679  0.2300 -0.7542
  151MOL0     H20318   1.644   7.794   2.270  2.7336 -1.3597  1.7828
  151MOL0     H20319   1.853   7.806   2.389 -0.4496 -0.7119 -0.2696
  151MOL0     H20320   2.027   8.086   2.693  2.6109 -1.1326 -1.3476
  151MOL0     H20321   1.867   8.008   2.716  0.4505 -3.1442  1.0559
  151MOL0     H20322   2.094   7.874   2.790 -0.9441 -0.1745  0.3607
  151MOL0     H20323   2.096   7.831   2.616  0.0926  1.8151 -1.5039
  151MOL0     H20324   2.007   7.662   2.753 -0.9804 -0.7310  0.8493
  151MOL0     H20325   1.868   7.737   2.658 -0.3048 -0.8898 -0.3172
  151MOL0     H20326   1.938   7.767   2.967 -0.5399 -0.9762  0.0255
  151MOL0     H20327   1.831   7.866   2.891  0.9828  0.1749  0.9506
  151MOL0     H20328   1.674   7.695   2.956  0.2604 -0.1585  1.4845
  151MOL0     H20329   1.734   7.620   2.803 -0.3003  0.9967  0.2096
  151MOL0     H20330   1.878   7.477   2.876 -0.1892 -0.1492 -0.3279
  151MOL0     H20331   1.910   7.549   3.035  3.2697  0.8819 -2.0087
  151MOL0     H20332   1.745   7.334   3.014 -1.2184  0.0590 -2.3226
  151MOL0     H20333   1.633   7.451   2.938  1.0930 -0.2063 -1.6332
  151MOL0     H20334   1.745   7.447   3.232 -1.1134 -2.1483  0.8348
  151MOL0     H20335   1.654   7.581   3.162 -1.0775 -0.0135  0.8468
  151MOL0     H20336   1.636   7.180   3.228  2.1112  1.7517 -1.5891
  151MOL0     H20337   1.282   7.100   3.303 -0.9868 -1.0680 -2.1545
  151MOL0     H20338   1.444   7.025   3.266  1.7864  2.2025  2.2629
  151MOL0     H20339   1.418   6.943   3.482 -1.8925  0.3862 -1.0653
  151MOL0     H20340   1.532   7.078   3.509  0.2788 -4.0010  1.5642
  151MOL0     H20341   1.335   7.041   3.659 -0.9838  4.1612  2.4676
  151MOL0     H20342   1.236   7.102   3.522 -0.9632  1.0406  1.2623
  151MOL0     H20343   1.242   7.285   3.666  0.2154 -0.3230  2.2599
  151MOL0     H20344   1.356   7.331   3.551  0.6627  2.3661  3.1145
  151MOL0     H20345   1.502   7.385   3.951  1.7548 -1.1321  0.3576
  151MOL0     H20346   1.690   7.540   3.976  0.2742  2.0459 -1.1944
  151MOL0     H20347   1.807   7.959   3.824 -0.7304 -2.6181 -0.0278
  151MOL0     H20348   1.976   8.133   3.783  1.7190  0.3570 -1.1032
  151MOL0     H20349   2.335   8.247   3.723  0.0441  1.5076 -0.2271
  151MOL0     H20350   2.169   8.230   3.675 -0.6297 -0.4516  0.0920
  151MOL0     H20351   2.078   8.340   3.884  1.2340 -0.6856  1.2077
  151MOL0     H20352   2.231   8.360   3.949 -1.6751 -1.6418  0.8553
  151MOL0     H20353   2.287   8.509   3.728 -1.5276  0.6835 -3.3930
  151MOL0     H20354   2.130   8.487   3.679 -1.5743  1.5164  0.0625
  151MOL0     H20355   2.203   8.633   3.933  0.6476  1.0574 -0.3176
  151MOL0     H20356   2.034   8.568   3.916  1.3048 -1.4314  0.2765
  151MOL0     H20357   2.146   8.750   3.705 -0.3153 -0.1204 -0.0235
  151MOL0     H20358   2.059   8.817   3.843  1.9082  0.0734  1.6622
  151MOL0     H20359   1.935   8.578   3.698  0.1539  0.0538 -0.1158
  151MOL0     H20360   1.856   8.721   3.754 -0.3533  4.3462 -1.4603
  151MOL0     H20361   2.034   8.688   3.499  0.1224  0.0562  1.7309
  151MOL0     H20362   1.964   8.844   3.550 -1.3029  1.6911 -2.7866
  151MOL0     H20363   1.841   8.716   3.369 -2.0119 -1.5602 -0.2131
  151MOL0     H20364   1.789   8.602   3.503 -1.5873 -0.8420 -1.9948
  151MOL0     H20365   2.289   7.881   3.943 -0.6912  0.3451 -0.0501
  151MOL0     H20366   2.128   7.688   3.935  1.5412  1.0195 -1.4556
  151MOL0     H20367   1.805   7.453   3.573  1.2583  0.9779  0.5831
  151MOL0     H20368   1.605   7.322   3.544 -3.0888  2.1296 -1.0998
  151MOL0     H20369   1.765   8.207   2.524 -1.3482  1.0610 -0.0412
  151MOL0     H20370   1.558   8.203   2.403 -0.1483  0.1115  0.9944
  151MOL0     H20371   1.330   8.112   2.112 -0.2310 -2.1578 -0.4105
  151MOL0     H20372   1.122   8.178   1.967 -0.7227 -1.8012 -0.0559
  151MOL0     H20373   0.706   8.260   1.992  1.5015  0.6985 -0.4091
  151MOL0     H20374   0.744   8.245   2.159  3.8874 -1.3973  1.4609
  151MOL0     H20375   0.587   8.081   2.085 -0.3248 -1.3247  2.2667
  151MOL0     H20376   0.737   8.009   2.147 -0.3753 -1.1430 -0.3684
  151MOL0     H20377   0.808   7.958   1.914  0.2100  1.7459 -1.3344
  151MOL0     H20378   0.681   8.054   1.850  4.9369  0.7903 -0.4762
  151MOL0     H20379   0.644   7.788   2.019 -1.4379 -1.2488 -0.8382
  151MOL0     H20380   0.508   7.898   1.968 -0.4963 -2.2071  2.3929
  151MOL0     H20381   0.625   7.706   1.603  0.6525  3.2510 -1.4518
  151MOL0     H20382   0.872   8.133   2.295 -1.1233 -0.2910 -2.6777
  151MOL0     H20383   0.950   8.035   2.496  1.3577 -0.4129  3.7931
  151MOL0     H20384   1.095   7.939   2.497  1.7482  1.1887  0.8483
  151MOL0     H20385   1.115   8.103   2.532 -1.5319  0.9767  0.3225
  152MOL0     O20386   6.125   1.898   2.423  0.6995 -0.1426  0.8765
  152MOL0     C20387   6.164   1.923   2.537 -0.4445 -0.6879  0.5616
  152MOL0     O20388   6.150   1.840   2.644  0.7994 -0.1141 -0.0455
  152MOL0     C20389   6.115   1.709   2.619 -0.1858 -0.1411  0.8945
  152MOL0     C20390   5.983   1.674   2.597 -0.0441 -1.1546 -0.9867
  152MOL0     C20391   5.946   1.536   2.574 -0.7427 -0.7676  0.1555
  152MOL0     C20392   6.043   1.438   2.555  1.0233 -0.3627 -0.6815
  152MOL0     O20393   6.000   1.313   2.511 -0.1759 -0.0065  0.0705
  152MOL0     C20394   6.094   1.206   2.542 -0.6592 -0.3148  0.4126
  152MOL0     C20395   6.032   1.068   2.540  0.6166  0.4214  0.6437
  152MOL0     C20396   5.995   1.020   2.397 -0.3869  0.2301 -0.3986
  152MOL0     C20397   6.034   0.871   2.369 -0.4309  0.0471 -0.1733
  152MOL0     C20398   5.970   0.827   2.239  0.1443  0.5615  0.2732
  152MOL0     C20399   5.983   0.922   2.117 -0.6144 -0.2984 -0.7945
  152MOL0     C20400   5.940   0.860   1.983 -0.7015  1.1726 -0.2995
  152MOL0     C20401   6.043   0.751   1.929  0.4358 -0.2171 -0.0483
  152MOL0     N20402   6.135   0.786   1.820 -0.1626  0.5007 -0.2228
  152MOL0     C20403   6.231   0.703   1.780  0.4563 -0.0559  0.2155
  152MOL0     C20404   6.289   0.771   1.676  0.3719  0.2232 -0.3743
  152MOL0     C20405   6.404   0.723   1.587 -0.5903 -0.8851 -0.4767
  152MOL0     C20406   6.521   0.810   1.614  0.0418  0.3389  0.4494
  152MOL0     C20407   6.644   0.766   1.551 -0.4273 -0.4503 -1.0678
  152MOL0     C20408   6.724   0.661   1.645  0.2738  0.5428 -0.4326
  152MOL0     O20409   6.862   0.649   1.600  1.2127 -0.9237  0.4751
  152MOL0     C20410   6.916   0.532   1.634 -0.1317 -0.6526  0.1384
  152MOL0     C20411   7.005   0.482   1.542 -0.7322  0.2423 -0.6441
  152MOL0     C20412   7.059   0.354   1.546 -0.0482  0.1070  0.2821
  152MOL0     C20413   7.038   0.285   1.660  0.1187 -0.8030  0.3915
  152MOL0     C20414   7.098   0.148   1.693  0.2527  0.1905  0.4436
  152MOL0     O20415   7.038   0.067   1.780  0.3316 -0.2208  0.4279
  152MOL0     C20416   7.080  -0.055   1.826  0.4208 -0.4527  0.4199
  152MOL0     C20417   7.217  -0.107   1.818  0.4807 -0.6926  0.1729
  152MOL0     C20418   7.250  -0.236   1.862 -0.4009  0.1515  0.0368
  152MOL0     C20419   7.142  -0.318   1.910 -0.3746 -0.7324 -0.4745
  152MOL0     O20420   7.160  -0.454   1.927  0.0859 -0.0432  0.5539
  152MOL0     C20421   7.254  -0.529   1.840  0.5484  0.1235  0.8306
  152MOL0     C20422   7.252  -0.676   1.894  1.0461 -0.1950 -0.2915
  152MOL0     C20423   7.142  -0.766   1.838  0.8741  0.9209  0.6665
  152MOL0     C20424   7.134  -0.912   1.899  0.2802 -0.8008 -1.1342
  152MOL0     C20425   7.043  -1.005   1.815 -0.8022  0.9416  0.1063
  152MOL0     C20426   7.091  -1.009   1.661 -1.3897 -0.0120  0.9818
  152MOL0     C20427   7.061  -1.147   1.607 -0.0915  0.2355  0.3042
  152MOL0     C20428   7.046  -1.142   1.452  0.4417  0.1044  0.0123
  152MOL0    Cl20429   7.183  -1.070   1.370 -0.0893 -0.5261 -0.5785
  152MOL0     C20430   7.009  -0.265   1.922  0.1390 -0.7173  1.0639
  152MOL0     C20431   6.982  -0.137   1.871  0.0318  0.5972 -0.6244
  152MOL0     O20432   7.183   0.110   1.613 -1.1776  0.3206  0.3940
  152MOL0     C20433   6.957   0.335   1.757  0.6131 -0.6663  0.8462
  152MOL0     C20434   6.888   0.455   1.744  1.2541 -0.0786 -0.0522
  152MOL0     N20435   6.217   0.877   1.643  0.0698 -0.0624  0.7809
  152MOL0     N20436   6.125   0.891   1.733 -0.4750  0.7357 -1.1610
  152MOL0     C20437   6.178   1.477   2.579  0.2582  0.1011  0.4987
  152MOL0     C20438   6.213   1.602   2.610 -1.3595 -0.7563  0.5691
  152MOL0     C20439   6.234   2.056   2.548  0.2046 -1.0252 -0.8529
  152MOL0     C20440   6.297   2.076   2.667  0.2942 -1.6609 -0.6662
  152MOL0     C20441   6.363   2.195   2.705  0.3809  0.5440 -0.7448
  152MOL0     C20442   6.391   2.289   2.599  1.2983  0.5139  0.2736
  152MOL0     O20443   6.477   2.396   2.628  0.8767 -0.4244  0.6825
  152MOL0     C20444   6.537   2.467   2.524  0.1172  0.3566 -0.0579
  152MOL0     C20445   6.657   2.385   2.461 -0.2111  0.3463  1.0214
  152MOL0     C20446   6.708   2.459   2.333 -1.1749 -0.2565  0.4795
  152MOL0     C20447   6.618   2.468   2.213 -0.1731 -0.8054  0.5648
  152MOL0     C20448   6.560   2.342   2.174 -0.8821 -0.3977 -0.3015
  152MOL0     C20449   6.537   2.239   2.123  0.0494  0.2399  1.2510
  152MOL0     C20450   6.326   2.267   2.473 -0.1509  0.2689 -0.1789
  152MOL0     C20451   6.242   2.154   2.447  0.4957 -1.0853  0.0153
  152MOL0     C20452   6.159   2.148   2.325  0.4656  0.1243  0.2972
  152MOL0     H20453   5.909   1.752   2.613 -2.1547 -3.4404  1.4485
  152MOL0     H20454   5.839   1.513   2.574 -1.1773  1.0176  1.5456
  152MOL0     H20455   6.171   1.217   2.464  0.1642 -1.8133  0.9679
  152MOL0     H20456   6.139   1.215   2.641  0.0721  0.7121  0.0116
  152MOL0     H20457   5.944   1.073   2.605 -1.5447 -0.9424 -1.9687
  152MOL0     H20458   6.106   0.997   2.578 -1.0025 -0.5561  2.1486
  152MOL0     H20459   6.050   1.082   2.325  0.0117  0.5504  0.1747
  152MOL0     H20460   5.889   1.046   2.387 -0.5902 -0.2427  0.4434
  152MOL0     H20461   6.144   0.866   2.368 -0.0585  3.6932  2.7008
  152MOL0     H20462   6.001   0.812   2.455  1.2488  1.4898  1.5228
  152MOL0     H20463   6.023   0.738   2.207  3.6850  2.8819 -0.9239
  152MOL0     H20464   5.864   0.809   2.260  0.0996  0.7553  0.2230
  152MOL0     H20465   5.912   1.004   2.134 -2.5084 -2.0487  0.2116
  152MOL0     H20466   6.079   0.973   2.119 -0.1685 -1.0887  1.5358
  152MOL0     H20467   5.937   0.946   1.915 -0.1666  1.1941 -0.2997
  152MOL0     H20468   5.833   0.836   1.987 -0.0615 -2.2588 -1.0080
  152MOL0     H20469   6.107   0.729   2.014 -0.5537  2.6214  1.5691
  152MOL0     H20470   5.983   0.670   1.887 -0.4754 -0.3293  1.3741
  152MOL0     H20471   6.256   0.606   1.821 -0.9557 -0.5703 -0.0824
  152MOL0     H20472   6.430   0.618   1.604  2.0733 -0.9050 -3.6075
  152MOL0     H20473   6.362   0.733   1.487  0.0248 -0.0921 -0.6711
  152MOL0     H20474   6.491   0.909   1.577  1.9706  0.3943 -1.1363
  152MOL0     H20475   6.537   0.824   1.721 -0.6229 -0.2704  0.6320
  152MOL0     H20476   6.704   0.857   1.548 -1.7636  0.4569 -1.6344
  152MOL0     H20477   6.637   0.728   1.449 -0.3008  1.8993 -2.0115
  152MOL0     H20478   6.679   0.561   1.641  1.1857  0.0476  0.9340
  152MOL0     H20479   6.726   0.693   1.749 -0.5805  1.6657 -0.7515
  152MOL0     H20480   7.034   0.552   1.464 -0.6139 -0.8099 -1.5613
  152MOL0     H20481   7.123   0.318   1.466 -2.3260  1.3399 -2.2622
  152MOL0     H20482   7.300  -0.046   1.785  0.2529 -1.2600 -1.5181
  152MOL0     H20483   7.349  -0.271   1.833  0.0689  2.3963 -1.2703
  152MOL0     H20484   7.224  -0.523   1.734 -2.6605  1.3302  1.6909
  152MOL0     H20485   7.351  -0.484   1.859 -0.8022  2.3229  2.9478
  152MOL0     H20486   7.351  -0.722   1.887  1.8114  1.4394 -0.8299
  152MOL0     H20487   7.225  -0.657   1.998 -2.9709  0.2693 -1.2439
  152MOL0     H20488   7.046  -0.716   1.855 -1.0298 -1.0326 -3.0212
  152MOL0     H20489   7.159  -0.766   1.730  2.1153  1.8052  0.8408
  152MOL0     H20490   7.088  -0.894   1.996  4.9132  1.6432  0.9002
  152MOL0     H20491   7.235  -0.952   1.914 -0.6483 -2.6939  0.4960
  152MOL0     H20492   6.940  -0.967   1.821 -1.1040 -0.0123  1.1783
  152MOL0     H20493   7.046  -1.110   1.845  2.7804  0.7523 -0.4118
  152MOL0     H20494   7.038  -0.936   1.598  1.7251 -0.1275 -2.1379
  152MOL0     H20495   7.197  -0.981   1.652 -1.3491 -0.4734 -0.0813
  152MOL0     H20496   6.979  -1.206   1.649 -0.8364  0.3566 -0.9239
  152MOL0     H20497   7.139  -1.220   1.632 -1.4542 -1.7628 -0.9391
  152MOL0     H20498   7.046  -1.242   1.407  0.8099  1.5190 -3.4065
  152MOL0     H20499   6.953  -1.089   1.432  0.4017  0.5758  1.3560
  152MOL0     H20500   6.916  -0.317   1.943 -0.6171  0.4983  0.7862
  152MOL0     H20501   6.885  -0.088   1.866  0.6424  1.7037 -2.7226
  152MOL0     H20502   6.945   0.275   1.847 -1.0837 -1.6656  0.0022
  152MOL0     H20503   6.823   0.494   1.822  1.1862 -3.1430  1.5521
  152MOL0     H20504   6.252   1.401   2.559  0.1742 -0.0607  0.7835
  152MOL0     H20505   6.316   1.634   2.619 -1.2643 -0.6092 -0.9201
  152MOL0     H20506   6.297   2.000   2.745  3.7786 -0.3499  0.8092
  152MOL0     H20507   6.410   2.203   2.803 -1.0224 -0.7868  0.0914
  152MOL0     H20508   6.562   2.566   2.564 -0.6241  1.0231 -1.1749
  152MOL0     H20509   6.481   2.507   2.438  0.3003 -0.2031 -0.4435
  152MOL0     H20510   6.626   2.285   2.431  1.6893  0.2902 -0.9890
  152MOL0     H20511   6.735   2.374   2.537  0.8363 -3.2201 -0.3834
  152MOL0     H20512   6.801   2.423   2.290 -1.9272 -1.5233 -0.1548
  152MOL0     H20513   6.723   2.561   2.368 -0.8401  0.4539 -1.5887
  152MOL0     H20514   6.544   2.547   2.228  0.8972  0.9779 -2.6100
  152MOL0     H20515   6.686   2.511   2.140  0.8649  0.1631  2.0483
  152MOL0     H20516   6.540   2.137   2.090  0.3784  0.7372 -0.3721
  152MOL0     H20517   6.334   2.338   2.392  2.1206 -1.1280 -1.2889
  152MOL0     H20518   6.061   2.108   2.353 -0.0339  0.6026 -0.7222
  152MOL0     H20519   6.134   2.249   2.291 -4.4092 -1.2446 -0.9547
  152MOL0     H20520   6.210   2.085   2.251  0.2537 -2.6592  2.3816
  153MOL0     O20521   1.048   1.250   7.283 -0.2973  0.4385 -0.4059
  153MOL0     C20522   1.119   1.314   7.205  0.0677  0.2279  0.1729
  153MOL0     O20523   1.083   1.334   7.075 -0.0680 -0.2472  0.1598
  153MOL0     C20524   0.941   1.350   7.062 -0.0074 -0.2495 -0.0851
  153MOL0     C20525   0.873   1.448   7.147 -0.1495  0.9663 -0.0653
  153MOL0     C20526   0.745   1.486   7.112 -0.4797  0.1824 -0.5314
  153MOL0     C20527   0.679   1.418   7.004  1.3525 -0.4374  0.3537
  153MOL0     O20528   0.549   1.468   6.977 -0.0568 -0.4447 -0.0783
  153MOL0     C20529   0.498   1.486   6.844  0.2173 -0.8449  0.3780
  153MOL0     C20530   0.415   1.609   6.849 -0.3743 -0.4769  0.6168
  153MOL0     C20531   0.492   1.739   6.834  0.0327 -0.3094  0.1205
  153MOL0     C20532   0.388   1.861   6.833 -0.4284 -0.1359 -0.1216
  153MOL0     C20533   0.431   1.967   6.736  0.2329  0.7079  0.0318
  153MOL0     C20534   0.324   2.068   6.723 -0.3143 -0.2827  0.5461
  153MOL0     C20535   0.234   2.046   6.602  0.1472  0.0787  0.3125
  153MOL0     C20536   0.136   2.168   6.583  0.5305  0.8010 -0.4681
  153MOL0     N20537   0.201   2.296   6.557 -0.4336  0.0167  0.3803
  153MOL0     C20538   0.235   2.335   6.429  0.2572  0.3311 -0.8540
  153MOL0     C20539   0.253   2.470   6.427  0.1846  0.0650 -0.2631
  153MOL0     C20540   0.297   2.556   6.312  0.2791 -0.7212  0.6285
  153MOL0     C20541   0.173   2.654   6.278 -0.5121  1.0336  0.0541
  153MOL0     C20542   0.234   2.761   6.193  0.2695 -0.3146 -0.2509
  153MOL0     C20543   0.123   2.854   6.150  0.5263  0.4018  0.4363
  153MOL0     O20544   0.094   2.832   6.014 -0.4519  0.5942 -0.7161
  153MOL0     C20545   0.004   2.919   5.947  0.2502 -0.5060 -0.8470
  153MOL0     C20546  -0.063   2.849   5.854  0.8839  0.3387  0.1451
  153MOL0     C20547  -0.141   2.909   5.766  1.3580  1.1896  0.3743
  153MOL0     C20548  -0.184   3.048   5.772 -0.0972 -0.2874 -0.6587
  153MOL0     C20549  -0.279   3.122   5.683 -0.1558 -0.0932 -1.0424
  153MOL0     O20550  -0.397   3.177   5.731  0.4037 -0.0882 -0.8121
  153MOL0     C20551  -0.448   3.142   5.853 -0.4825  0.2687 -0.5403
  153MOL0     C20552  -0.497   3.248   5.929  0.3859  0.1291 -0.1676
  153MOL0     C20553  -0.584   3.222   6.045  0.9785 -0.2945  0.5949
  153MOL0     C20554  -0.611   3.091   6.092 -0.1626 -0.6734 -0.5941
  153MOL0     O20555  -0.678   3.054   6.202  0.4379  0.4574 -0.4206
  153MOL0     C20556  -0.697   3.153   6.302 -0.7351 -0.1535 -0.2422
  153MOL0     C20557  -0.556   3.172   6.369  0.1786  0.0758 -0.1580
  153MOL0     C20558  -0.468   3.054   6.383  0.0039  0.0438  0.2270
  153MOL0     C20559  -0.352   3.091   6.482  0.2685 -0.7670  0.7930
  153MOL0     C20560  -0.221   3.136   6.413  0.0822 -0.0271 -0.2645
  153MOL0     C20561  -0.221   3.272   6.352  0.6165 -0.8555 -0.8377
  153MOL0     C20562  -0.076   3.320   6.334 -0.1499  0.2948 -0.5879
  153MOL0     C20563  -0.079   3.458   6.263  0.2529  0.0872  0.4821
  153MOL0    Cl20564  -0.162   3.423   6.105 -0.0573 -0.0240 -0.0571
  153MOL0     C20565  -0.547   2.990   6.023  0.2920  0.2267  0.2007
  153MOL0     C20566  -0.473   3.010   5.897  1.0184 -1.3436 -0.7253
  153MOL0     O20567  -0.243   3.123   5.565 -0.4624  0.2067  0.8404
  153MOL0     C20568  -0.117   3.117   5.885  1.0055 -0.3619  0.1151
  153MOL0     C20569  -0.017   3.055   5.962 -0.0379  0.5039 -0.3114
  153MOL0     N20570   0.237   2.517   6.556 -0.7915  0.1833  0.4281
  153MOL0     N20571   0.210   2.408   6.627  1.4031 -0.7064  0.1700
  153MOL0     C20572   0.745   1.319   6.928  0.0365  0.6476  0.5096
  153MOL0     C20573   0.873   1.272   6.959 -0.1959 -0.0129 -0.1120
  153MOL0     C20574   1.253   1.362   7.246  0.0645  0.2465  0.8522
  153MOL0     C20575   1.317   1.451   7.154  0.7990 -0.0298 -0.4408
  153MOL0     C20576   1.430   1.525   7.186  0.2230 -0.2407 -0.3186
  153MOL0     C20577   1.491   1.514   7.315 -0.1840 -0.3391  1.3755
  153MOL0     O20578   1.607   1.579   7.357  0.1696 -0.9621 -0.2675
  153MOL0     C20579   1.660   1.689   7.275 -0.3115 -0.4605 -0.6766
  153MOL0     C20580   1.581   1.813   7.303 -0.4454 -0.1018  0.1729
  153MOL0     C20581   1.560   1.850   7.447 -0.5508 -0.2579  0.0357
  153MOL0     C20582   1.469   1.973   7.449 -0.1533  0.0778  0.7981
  153MOL0     C20583   1.435   2.015   7.586  0.0380  0.2657 -0.5731
  153MOL0     C20584   1.415   2.039   7.698  0.6480  0.5491 -0.6921
  153MOL0     C20585   1.440   1.419   7.400  0.3499  0.6653  0.1882
  153MOL0     C20586   1.317   1.344   7.370 -0.3225  0.1331  0.0103
  153MOL0     C20587   1.258   1.264   7.482 -0.6101 -0.2467  0.2427
  153MOL0     H20588   0.922   1.491   7.234 -1.7557 -0.9648  1.8990
  153MOL0     H20589   0.691   1.563   7.166 -3.3495 -0.9534 -1.6297
  153MOL0     H20590   0.570   1.509   6.765  3.5190  3.1380  4.0369
  153MOL0     H20591   0.439   1.397   6.818 -1.6312  1.0520 -2.4553
  153MOL0     H20592   0.368   1.610   6.947  2.7838  4.5782  2.4324
  153MOL0     H20593   0.343   1.583   6.770  2.0370  0.4969 -2.0941
  153MOL0     H20594   0.556   1.741   6.746  2.5634 -1.5312  1.8169
  153MOL0     H20595   0.551   1.756   6.924  1.2218 -1.9630 -0.3108
  153MOL0     H20596   0.288   1.824   6.809 -1.0012  1.0567  0.3957
  153MOL0     H20597   0.396   1.893   6.937  1.7444 -1.1499  0.0729
  153MOL0     H20598   0.520   2.003   6.789  1.1472 -0.4279 -0.6554
  153MOL0     H20599   0.446   1.927   6.635 -1.8371  2.6820 -1.1296
  153MOL0     H20600   0.254   2.066   6.807 -0.8029 -0.5180  0.1383
  153MOL0     H20601   0.359   2.171   6.712 -2.5421  0.4979  0.2392
  153MOL0     H20602   0.173   1.961   6.633  0.7431 -1.0041 -1.3686
  153MOL0     H20603   0.300   2.023   6.518 -1.6294  0.0010 -1.1404
  153MOL0     H20604   0.075   2.139   6.498  0.7063 -0.9345 -0.0552
  153MOL0     H20605   0.077   2.173   6.675  0.7570  1.5208 -0.3581
  153MOL0     H20606   0.255   2.264   6.350  1.5590 -1.4150  0.9219
  153MOL0     H20607   0.380   2.620   6.344 -0.8346  1.4122 -0.4694
  153MOL0     H20608   0.313   2.498   6.220  0.1912  0.5309 -0.2147
  153MOL0     H20609   0.101   2.582   6.239  1.5017 -0.7395 -0.6371
  153MOL0     H20610   0.140   2.700   6.371  2.2065  0.2012  1.5578
  153MOL0     H20611   0.287   2.743   6.099 -1.0582 -0.0249 -1.0654
  153MOL0     H20612   0.303   2.817   6.257 -0.3040 -2.9141  2.8992
  153MOL0     H20613   0.165   2.952   6.173  3.3523 -1.1681  2.5586
  153MOL0     H20614   0.028   2.841   6.202 -0.0654 -1.4860 -1.0094
  153MOL0     H20615  -0.028   2.749   5.832  2.2242  0.6586  0.7267
  153MOL0     H20616  -0.178   2.867   5.673 -2.0473  2.3274  1.0935
  153MOL0     H20617  -0.484   3.348   5.888  1.1789 -0.7408 -2.1643
  153MOL0     H20618  -0.637   3.301   6.097  0.6436  0.8656 -1.4182
  153MOL0     H20619  -0.742   3.241   6.255 -0.4130  1.0141  1.5152
  153MOL0     H20620  -0.764   3.118   6.382 -0.0030  0.1140  0.4979
  153MOL0     H20621  -0.496   3.246   6.315  0.3348  0.4530  0.5239
  153MOL0     H20622  -0.580   3.200   6.472  0.1616 -2.8006  0.7083
  153MOL0     H20623  -0.529   2.974   6.425 -1.2052  0.4364 -0.7100
  153MOL0     H20624  -0.422   3.033   6.286 -2.6172  2.0199 -1.5932
  153MOL0     H20625  -0.346   3.008   6.552  0.0981 -0.6797  0.9143
  153MOL0     H20626  -0.383   3.182   6.536  2.1848  1.2605 -1.2869
  153MOL0     H20627  -0.182   3.058   6.345  0.3248 -0.2722  0.1540
  153MOL0     H20628  -0.151   3.149   6.496 -1.7115 -0.8464  1.4556
  153MOL0     H20629  -0.289   3.264   6.266 -1.2150 -0.6760  0.5423
  153MOL0     H20630  -0.270   3.343   6.418  1.6953  0.2278 -1.1770
  153MOL0     H20631  -0.018   3.256   6.267  2.5249  1.4520  0.4997
  153MOL0     H20632  -0.015   3.321   6.424 -1.4056  1.1133  0.2875
  153MOL0     H20633  -0.148   3.534   6.302 -0.3590  0.5374 -1.3915
  153MOL0     H20634   0.009   3.523   6.261 -0.8114  1.6804  1.7543
  153MOL0     H20635  -0.573   2.889   6.054  1.8163 -0.1607  0.2776
  153MOL0     H20636  -0.447   2.921   5.841  0.3301 -2.6415  0.9416
  153MOL0     H20637  -0.130   3.221   5.910  1.2385 -0.8102  2.2734
  153MOL0     H20638   0.037   3.124   6.026 -0.9112  1.9495 -1.0794
  153MOL0     H20639   0.689   1.277   6.844 -3.6515  2.0548  2.0756
  153MOL0     H20640   0.937   1.205   6.902 -1.6733 -1.2503 -0.3714
  153MOL0     H20641   1.260   1.466   7.063 -4.8257 -0.8549  2.5011
  153MOL0     H20642   1.456   1.608   7.121  3.7902 -1.1714 -0.3042
  153MOL0     H20643   1.661   1.666   7.168  0.6420  0.0688 -0.7966
  153MOL0     H20644   1.767   1.685   7.298 -0.8064 -1.3432  1.8050
  153MOL0     H20645   1.484   1.789   7.258 -0.9950  0.4184  1.0640
  153MOL0     H20646   1.630   1.890   7.242  1.0385 -0.8745  0.3227
  153MOL0     H20647   1.656   1.889   7.482 -1.3003 -0.9900  3.2405
  153MOL0     H20648   1.540   1.760   7.505  2.9183 -0.4580  1.1455
  153MOL0     H20649   1.502   2.055   7.384 -1.2493  1.6891  2.1678
  153MOL0     H20650   1.378   1.933   7.404  1.2014 -0.6436 -1.4632
  153MOL0     H20651   1.375   2.070   7.792 -3.7082 -1.5346 -1.6172
  153MOL0     H20652   1.485   1.412   7.499  1.3335 -1.9515 -0.3699
  153MOL0     H20653   1.159   1.301   7.510 -0.5896 -0.6501  0.8766
  153MOL0     H20654   1.227   1.164   7.449  1.1245 -1.2454  1.4507
  153MOL0     H20655   1.318   1.253   7.573 -0.7182  0.7430  0.4474
  154MOL0     O20656   1.253   1.276   1.908  0.1009  0.2453  0.7812
  154MOL0     C20657   1.290   1.164   1.866  0.2542  0.4013 -0.5113
  154MOL0     O20658   1.255   1.104   1.755 -0.1852  0.1576 -0.5903
  154MOL0     C20659   1.141   1.142   1.684 -0.6167 -0.5139  0.0911
  154MOL0     C20660   1.058   1.041   1.640  1.0372  0.2629  0.2471
  154MOL0     C20661   0.939   1.078   1.562 -0.3691 -0.5989 -0.6813
  154MOL0     C20662   0.916   1.216   1.521 -0.0285 -0.0041 -1.0890
  154MOL0     O20663   0.819   1.257   1.430  0.1608  0.5950 -0.7859
  154MOL0     C20664   0.693   1.189   1.474 -0.3043  0.1953 -0.6465
  154MOL0     C20665   0.590   1.279   1.414  0.2194  0.2132 -0.8910
  154MOL0     C20666   0.582   1.421   1.474  0.1023 -1.1596  0.2807
  154MOL0     C20667   0.435   1.450   1.501  0.1384 -0.8968  0.2911
  154MOL0     C20668   0.397   1.591   1.534  0.6837  0.1966 -0.1318
  154MOL0     C20669   0.246   1.610   1.558  0.7960  0.5303 -0.7449
  154MOL0     C20670   0.192   1.754   1.565 -0.1086 -0.1243 -0.4004
  154MOL0     C20671   0.126   1.806   1.433 -1.3334 -0.2874 -0.1471
  154MOL0     N20672   0.051   1.932   1.459  1.0229  0.3616  0.9058
  154MOL0     C20673  -0.057   1.961   1.389  0.4276 -0.6225 -1.7847
  154MOL0     C20674  -0.100   2.087   1.430 -0.4862  0.7522 -0.5465
  154MOL0     C20675  -0.213   2.161   1.355 -0.4825 -0.4295 -0.0958
  154MOL0     C20676  -0.254   2.142   1.214 -0.2474  0.8173  0.2257
  154MOL0     C20677  -0.392   2.192   1.186 -0.1144 -0.6605  0.4868
  154MOL0     C20678  -0.445   2.153   1.051  0.0464  0.9426  0.6646
  154MOL0     O20679  -0.554   2.232   1.006 -0.0959  1.0167 -0.5625
  154MOL0     C20680  -0.619   2.221   0.890  0.9874  0.8434 -0.7949
  154MOL0     C20681  -0.587   2.120   0.798 -0.3702  0.1041  0.0559
  154MOL0     C20682  -0.655   2.130   0.673  0.1226  0.0214 -0.2146
  154MOL0     C20683  -0.750   2.228   0.639 -0.4626 -0.0546 -0.1909
  154MOL0     C20684  -0.794   2.245   0.502 -0.6822 -0.6655 -0.5456
  154MOL0     O20685  -0.900   2.320   0.483 -0.4740 -1.0111 -0.1401
  154MOL0     C20686  -0.924   2.340   0.349 -0.3310 -0.8960 -0.3511
  154MOL0     C20687  -1.002   2.249   0.276  1.1479 -0.8346 -1.4879
  154MOL0     C20688  -1.040   2.273   0.148  0.2597 -0.0509  0.5291
  154MOL0     C20689  -0.992   2.383   0.077 -1.0041  0.0222 -0.3934
  154MOL0     O20690  -1.035   2.415  -0.048 -0.2366 -0.0718 -0.9086
  154MOL0     C20691  -0.921   2.434  -0.146 -0.5608  0.6399 -0.3722
  154MOL0     C20692  -0.993   2.416  -0.278 -0.4785 -0.9007  0.7278
  154MOL0     C20693  -0.899   2.404  -0.396 -0.1669 -0.0243  0.3728
  154MOL0     C20694  -0.810   2.519  -0.407 -0.0300 -0.3870  0.1453
  154MOL0     C20695  -0.699   2.508  -0.520  0.0996  0.2495  0.8206
  154MOL0     C20696  -0.744   2.447  -0.656  0.4290 -0.6026 -0.4162
  154MOL0     C20697  -0.634   2.424  -0.755  0.9586 -0.6677 -0.2423
  154MOL0     C20698  -0.679   2.393  -0.897 -0.5520  0.2282  0.7258
  154MOL0    Cl20699  -0.818   2.499  -0.971 -0.2084  0.4501  0.3870
  154MOL0     C20700  -0.902   2.470   0.146  0.0370 -0.1553 -0.4825
  154MOL0     C20701  -0.874   2.449   0.284 -0.3434  0.5999 -1.0799
  154MOL0     O20702  -0.718   2.186   0.411  1.1252  0.6929  0.3290
  154MOL0     C20703  -0.790   2.310   0.741  0.2002 -1.4475 -0.5782
  154MOL0     C20704  -0.711   2.319   0.861  0.2519 -0.7886  0.2048
  154MOL0     N20705  -0.018   2.127   1.539 -0.1021  0.5866 -1.0106
  154MOL0     N20706   0.075   2.035   1.546  0.5983  0.2806 -0.2038
  154MOL0     C20707   1.010   1.312   1.567  1.4045 -0.3465  0.9848
  154MOL0     C20708   1.121   1.277   1.644  0.1368  1.0142  0.0652
  154MOL0     C20709   1.376   1.086   1.951 -1.6590  0.3025 -0.4038
  154MOL0     C20710   1.332   1.078   2.082  0.0480  0.0468  0.4458
  154MOL0     C20711   1.418   1.017   2.175 -0.4023  0.3970  0.4836
  154MOL0     C20712   1.546   0.974   2.142  0.1927 -0.9788 -0.6625
  154MOL0     O20713   1.629   0.925   2.236 -0.0295  0.5145  0.3263
  154MOL0     C20714   1.767   0.909   2.224  0.0290 -0.5032  0.1800
  154MOL0     C20715   1.850   1.044   2.209  0.2628 -0.0477  0.1643
  154MOL0     C20716   2.002   1.005   2.194  0.5523  0.6449 -0.2462
  154MOL0     C20717   2.084   1.119   2.208  0.2833  0.1917  0.7175
  154MOL0     C20718   2.218   1.085   2.239  1.2769  0.7440  0.5134
  154MOL0     C20719   2.335   1.057   2.248 -0.6368  1.3980 -1.0941
  154MOL0     C20720   1.573   0.985   2.006 -0.7046  0.0934  1.0489
  154MOL0     C20721   1.503   1.047   1.905 -0.4007 -0.6325  0.9399
  154MOL0     C20722   1.564   1.034   1.766  0.9839  0.9124 -0.1774
  154MOL0     H20723   1.080   0.935   1.648  1.7722  0.5396  2.8924
  154MOL0     H20724   0.877   0.997   1.526  0.4839 -1.3825 -0.4311
  154MOL0     H20725   0.679   1.093   1.424 -3.4140  0.8921 -1.3408
  154MOL0     H20726   0.678   1.184   1.582 -1.8386  1.6570 -0.7390
  154MOL0     H20727   0.496   1.228   1.433 -0.2956  1.0412 -1.1543
  154MOL0     H20728   0.618   1.293   1.310  3.1046  0.7164 -0.1471
  154MOL0     H20729   0.615   1.489   1.395  0.7384  0.4569  1.8615
  154MOL0     H20730   0.638   1.448   1.564  2.0840  2.8520 -1.8995
  154MOL0     H20731   0.378   1.414   1.415 -1.0292 -2.6510  1.7313
  154MOL0     H20732   0.408   1.387   1.586 -3.8154  1.3380  0.9687
  154MOL0     H20733   0.461   1.616   1.619  2.4041 -0.5920 -1.1351
  154MOL0     H20734   0.422   1.668   1.460  1.9272 -1.0540 -1.0726
  154MOL0     H20735   0.202   1.555   1.474  0.3273 -0.3511  0.0478
  154MOL0     H20736   0.220   1.561   1.652  2.8551  0.3175 -0.2475
  154MOL0     H20737   0.272   1.824   1.588  0.2776  0.0571 -2.1830
  154MOL0     H20738   0.116   1.756   1.644  0.5143 -1.8797  0.3009
  154MOL0     H20739   0.203   1.816   1.357 -1.8220  0.5585 -0.5426
  154MOL0     H20740   0.056   1.733   1.391 -0.0457 -0.9479 -1.1985
  154MOL0     H20741  -0.104   1.897   1.315  0.1367 -1.0542 -1.2360
  154MOL0     H20742  -0.297   2.132   1.419  0.3191 -5.1418 -0.7959
  154MOL0     H20743  -0.192   2.268   1.359 -0.1549 -0.5173  2.3495
  154MOL0     H20744  -0.179   2.191   1.150 -1.2345  0.1688 -1.4975
  154MOL0     H20745  -0.256   2.036   1.189  0.3710  0.6143  0.9888
  154MOL0     H20746  -0.383   2.301   1.184 -2.1785 -0.4616 -0.2934
  154MOL0     H20747  -0.461   2.161   1.264 -1.0604  2.2759  0.9529
  154MOL0     H20748  -0.472   2.047   1.053  0.8203  0.7591  1.7030
  154MOL0     H20749  -0.356   2.161   0.988 -0.4685 -1.6821 -0.5532
  154MOL0     H20750  -0.528   2.030   0.810  0.4052  0.5969  0.0272
  154MOL0     H20751  -0.628   2.052   0.603 -0.3997 -1.1591  0.8587
  154MOL0     H20752  -1.032   2.163   0.335  0.0203  0.6052  0.1529
  154MOL0     H20753  -1.125   2.211   0.124  1.2183 -0.6155 -1.6401
  154MOL0     H20754  -0.873   2.532  -0.139  1.7911 -0.3690 -1.2200
  154MOL0     H20755  -0.847   2.355  -0.131 -1.1894  0.3033  1.0672
  154MOL0     H20756  -1.069   2.338  -0.267 -1.6754  0.3000  1.1971
  154MOL0     H20757  -1.047   2.505  -0.313  0.6368 -1.0879 -1.6874
  154MOL0     H20758  -0.841   2.316  -0.369 -0.7625 -0.1683  1.2058
  154MOL0     H20759  -0.942   2.386  -0.496 -1.3716  0.0787  0.8509
  154MOL0     H20760  -0.764   2.538  -0.310  0.4926 -0.7331 -0.0278
  154MOL0     H20761  -0.873   2.606  -0.426 -1.5784 -1.4629  0.2348
  154MOL0     H20762  -0.614   2.451  -0.482  1.5261  3.7945  3.6170
  154MOL0     H20763  -0.677   2.614  -0.536 -2.1858  0.5845 -0.4669
  154MOL0     H20764  -0.785   2.354  -0.616 -0.9098  0.3507  0.5499
  154MOL0     H20765  -0.825   2.505  -0.701  0.8548 -1.0708 -1.8191
  154MOL0     H20766  -0.568   2.343  -0.723  0.1852 -1.4285 -0.5313
  154MOL0     H20767  -0.579   2.519  -0.755 -2.4818  1.5278  0.0015
  154MOL0     H20768  -0.597   2.398  -0.970 -1.9701 -0.0786 -0.9669
  154MOL0     H20769  -0.728   2.295  -0.901 -2.8978  1.3567 -0.0467
  154MOL0     H20770  -0.887   2.562   0.089  2.6595 -1.3900 -2.0067
  154MOL0     H20771  -0.835   2.527   0.348  3.2268 -0.8925 -1.2216
  154MOL0     H20772  -0.853   2.394   0.714  0.9576 -1.1535 -1.4888
  154MOL0     H20773  -0.739   2.389   0.940  3.6929 -0.4469  1.2612
  154MOL0     H20774   1.001   1.414   1.533  1.4172 -0.1802  1.4770
  154MOL0     H20775   1.205   1.342   1.664  1.2468 -0.6592  1.0561
  154MOL0     H20776   1.234   1.114   2.111  0.4589  0.3166  1.5454
  154MOL0     H20777   1.389   1.007   2.279 -1.2391  2.1849  0.4529
  154MOL0     H20778   1.776   0.857   2.128 -3.8516  1.1132 -1.2483
  154MOL0     H20779   1.804   0.846   2.306  1.8840  0.8218  0.4064
  154MOL0     H20780   1.827   1.100   2.300 -1.8001 -3.5165  1.9595
  154MOL0     H20781   1.811   1.107   2.127 -0.1833  0.9891  1.1467
  154MOL0     H20782   2.020   0.959   2.096 -3.7668 -0.2973 -0.8226
  154MOL0     H20783   2.023   0.931   2.272  1.7061  0.7332 -0.4514
  154MOL0     H20784   2.079   1.176   2.114 -0.8150  1.2583  1.3920
  154MOL0     H20785   2.040   1.201   2.266  0.6693  2.4638 -1.9225
  154MOL0     H20786   2.439   1.030   2.255 -1.2043 -0.9290 -0.6253
  154MOL0     H20787   1.667   0.943   1.973 -1.4145 -0.3070 -0.5669
  154MOL0     H20788   1.656   1.092   1.755  3.6644 -2.8620  0.3425
  154MOL0     H20789   1.588   0.930   1.741 -0.3816  0.5388  0.0033
  154MOL0     H20790   1.486   1.060   1.694  0.0819  0.1727  0.5074
  155MOL0     O20791   9.781   4.804   7.503  0.2509  0.8964  0.0350
  155MOL0     C20792   9.901   4.839   7.478  0.1089  0.3747 -1.0108
  155MOL0     O20793   9.937   4.959   7.420  0.2031 -0.2373 -0.3912
  155MOL0     C20794   9.841   5.058   7.418  0.2113  0.4879 -0.2248
  155MOL0     C20795   9.846   5.149   7.521  0.0308 -0.4910 -0.9961
  155MOL0     C20796   9.746   5.248   7.536 -0.0332  0.4411 -0.0652
  155MOL0     C20797   9.648   5.260   7.447  0.7081  0.3832  0.5896
  155MOL0     O20798   9.552   5.356   7.468  0.0221  0.5330 -0.4982
  155MOL0     C20799   9.452   5.386   7.376  0.0694  0.6744 -0.2360
  155MOL0     C20800   9.394   5.520   7.401  0.2284 -0.0906 -0.2343
  155MOL0     C20801   9.329   5.530   7.540 -1.1278  0.9932  0.7935
  155MOL0     C20802   9.254   5.655   7.578  0.1856 -0.7029 -0.3279
  155MOL0     C20803   9.310   5.795   7.546 -0.4157  0.0446  0.1299
  155MOL0     C20804   9.440   5.822   7.630  0.3871 -0.1878  0.1301
  155MOL0     C20805   9.509   5.948   7.579 -0.8571 -0.5247 -0.0179
  155MOL0     C20806   9.450   6.071   7.647 -0.0198 -0.8495  0.2482
  155MOL0     N20807   9.326   6.121   7.601  0.8987  0.8664 -0.0664
  155MOL0     C20808   9.206   6.113   7.658 -0.7486 -0.5061 -0.4602
  155MOL0     C20809   9.135   6.199   7.592 -0.4412 -0.1976  0.1658
  155MOL0     C20810   8.997   6.245   7.624  0.3463  0.1588  0.4347
  155MOL0     C20811   8.895   6.258   7.502 -0.2685 -0.0314 -0.7194
  155MOL0     C20812   8.838   6.127   7.457 -0.3721 -0.2282  0.4379
  155MOL0     C20813   8.947   6.051   7.374  0.2650  0.6870 -1.0105
  155MOL0     O20814   8.890   5.926   7.321 -0.2050 -0.6545  0.6182
  155MOL0     C20815   8.975   5.869   7.223 -0.2144  0.3257 -0.1460
  155MOL0     C20816   8.912   5.774   7.138 -0.7692  0.1944 -0.0011
  155MOL0     C20817   8.994   5.716   7.042 -1.0956 -0.5565 -0.1257
  155MOL0     C20818   9.134   5.733   7.045  0.1786 -0.1476 -0.4568
  155MOL0     C20819   9.210   5.672   6.931 -1.6588 -0.2692  0.3382
  155MOL0     O20820   9.348   5.675   6.951 -0.1121 -0.3608 -0.1407
  155MOL0     C20821   9.437   5.634   6.850 -0.7194  0.1297 -0.4309
  155MOL0     C20822   9.416   5.580   6.724  1.3272  0.4667 -0.0641
  155MOL0     C20823   9.516   5.514   6.654 -0.7786  0.2890  0.1616
  155MOL0     C20824   9.646   5.510   6.700 -0.1664  0.8992 -0.0743
  155MOL0     O20825   9.737   5.461   6.613  0.4837  0.6640  0.1647
  155MOL0     C20826   9.864   5.503   6.618  0.5900 -0.2573  0.5530
  155MOL0     C20827   9.878   5.644   6.567 -0.2478 -0.2050 -0.1151
  155MOL0     C20828  10.001   5.701   6.647 -0.5117  0.4095 -0.3391
  155MOL0     C20829  10.020   5.837   6.614  0.1799 -0.6230  0.1694
  155MOL0     C20830  10.151   5.897   6.688  0.3453 -1.5821  0.3509
  155MOL0     C20831  10.276   5.813   6.675 -0.1567 -0.2338 -0.6257
  155MOL0     C20832  10.405   5.890   6.694  0.6049 -0.8719  0.5090
  155MOL0     C20833  10.451   5.947   6.558 -0.2693  0.0897 -0.4048
  155MOL0    Cl20834  10.598   6.054   6.579  0.2361 -0.1128 -0.2917
  155MOL0     C20835   9.681   5.579   6.818 -0.1617  0.4007  0.5352
  155MOL0     C20836   9.582   5.642   6.888 -0.0676 -0.7691 -0.3897
  155MOL0     O20837   9.156   5.623   6.835  0.1298  0.0013 -0.0024
  155MOL0     C20838   9.196   5.816   7.140  0.3686 -0.4693 -0.6815
  155MOL0     C20839   9.119   5.878   7.234 -0.4774 -0.7317 -0.3392
  155MOL0     N20840   9.207   6.255   7.491 -0.3572  0.2768 -0.0350
  155MOL0     N20841   9.327   6.208   7.499 -0.1215  1.1325 -0.1452
  155MOL0     C20842   9.654   5.176   7.334  0.6953 -0.4898 -0.4601
  155MOL0     C20843   9.742   5.068   7.325  0.2777 -0.6392  1.0526
  155MOL0     C20844  10.005   4.728   7.509 -0.7080 -0.3226  0.5885
  155MOL0     C20845   9.970   4.619   7.592  0.0827 -0.1912  0.8530
  155MOL0     C20846  10.070   4.529   7.633 -0.0354  0.4737 -0.3485
  155MOL0     C20847  10.208   4.546   7.599  0.2261  1.0905  0.2156
  155MOL0     O20848  10.297   4.453   7.639  0.2983  0.4285 -0.2103
  155MOL0     C20849  10.422   4.497   7.695  0.1282  1.0243  0.2298
  155MOL0     C20850  10.485   4.377   7.777 -0.6612 -0.5996 -0.0979
  155MOL0     C20851  10.591   4.407   7.883 -0.0104  0.7954 -0.1714
  155MOL0     C20852  10.716   4.474   7.809  0.1291 -0.5141  0.0528
  155MOL0     C20853  10.774   4.376   7.709  0.9022  0.0038 -0.7361
  155MOL0     C20854  10.808   4.283   7.645  0.1827  0.1461 -0.4872
  155MOL0     C20855  10.233   4.646   7.511 -0.0934 -0.1080  0.5232
  155MOL0     C20856  10.139   4.736   7.459  0.0812 -0.8516  0.4137
  155MOL0     C20857  10.182   4.830   7.348 -0.2419  0.2537  0.7435
  155MOL0     H20858   9.927   5.154   7.593  0.0033  0.3815 -1.0202
  155MOL0     H20859   9.749   5.316   7.620 -1.7436  0.4010  0.0557
  155MOL0     H20860   9.475   5.388   7.269  1.0121  0.3457 -0.0518
  155MOL0     H20861   9.369   5.316   7.385 -0.5358  0.7266 -3.9560
  155MOL0     H20862   9.315   5.528   7.326 -1.3787 -3.0524  0.9700
  155MOL0     H20863   9.477   5.588   7.381  1.4940 -1.3766  0.4319
  155MOL0     H20864   9.413   5.522   7.609 -0.5335  0.8888  0.0614
  155MOL0     H20865   9.262   5.445   7.558 -1.1036  1.5674  4.2154
  155MOL0     H20866   9.154   5.640   7.537 -1.3021 -0.3788  2.8261
  155MOL0     H20867   9.251   5.665   7.687  3.5138 -2.6612  0.0779
  155MOL0     H20868   9.335   5.806   7.440 -3.8436  0.9117 -0.7079
  155MOL0     H20869   9.233   5.869   7.569  0.7704  2.1823 -2.1998
  155MOL0     H20870   9.418   5.833   7.737 -1.0946 -0.8189 -0.0906
  155MOL0     H20871   9.511   5.739   7.626 -0.0449 -0.5553  0.0313
  155MOL0     H20872   9.508   5.971   7.472  0.5068  1.2274  0.2997
  155MOL0     H20873   9.614   5.932   7.606  0.1087  1.7446 -2.1026
  155MOL0     H20874   9.440   6.052   7.755  0.6247 -0.0905  0.4547
  155MOL0     H20875   9.526   6.150   7.642  0.1515 -1.1172 -2.7970
  155MOL0     H20876   9.183   6.057   7.749 -0.8338  0.5124  0.1613
  155MOL0     H20877   8.943   6.174   7.687 -0.6684  0.0380 -0.5591
  155MOL0     H20878   9.001   6.339   7.679 -0.6708  1.8059 -2.1475
  155MOL0     H20879   8.806   6.310   7.539  0.4224  2.5905 -2.4440
  155MOL0     H20880   8.940   6.317   7.421 -0.6427  1.0667 -0.1442
  155MOL0     H20881   8.767   6.156   7.379  1.4957 -0.3513 -1.3887
  155MOL0     H20882   8.797   6.063   7.536 -4.6882  0.4089 -1.0412
  155MOL0     H20883   9.029   6.030   7.442 -1.7245 -1.1330  1.0149
  155MOL0     H20884   8.986   6.128   7.307 -0.4380  1.9345 -0.0284
  155MOL0     H20885   8.804   5.771   7.142 -0.7171 -1.7894  1.2728
  155MOL0     H20886   8.943   5.665   6.961  0.0257 -3.3527  0.7897
  155MOL0     H20887   9.314   5.572   6.688  2.3192  0.2640 -3.1372
  155MOL0     H20888   9.495   5.453   6.567  1.3097  2.3640 -1.9374
  155MOL0     H20889   9.906   5.506   6.719 -0.3842  4.1239  1.0525
  155MOL0     H20890   9.934   5.442   6.560  1.8029  1.1804  0.4356
  155MOL0     H20891   9.885   5.642   6.458 -6.2303  4.4549 -1.1404
  155MOL0     H20892   9.790   5.706   6.587 -1.7053 -2.4262  0.7426
  155MOL0     H20893   9.998   5.682   6.754  1.6633 -2.2518 -0.6185
  155MOL0     H20894  10.087   5.650   6.601  1.5630  3.2410  0.1176
  155MOL0     H20895   9.927   5.891   6.638 -0.3996 -1.5621  0.1125
  155MOL0     H20896  10.037   5.851   6.507 -2.2116  0.5329 -0.1363
  155MOL0     H20897  10.126   5.936   6.787 -0.6604  0.5971 -0.6907
  155MOL0     H20898  10.173   5.987   6.629  1.4763 -2.8216 -1.2108
  155MOL0     H20899  10.286   5.749   6.763  1.4973  1.8162  0.7815
  155MOL0     H20900  10.284   5.746   6.589  3.5757  0.7606 -1.2287
  155MOL0     H20901  10.480   5.815   6.723  1.1789 -0.0304  1.2735
  155MOL0     H20902  10.409   5.965   6.774 -1.3112 -0.6608  0.4507
  155MOL0     H20903  10.468   5.862   6.491 -2.3844 -0.6769 -0.0589
  155MOL0     H20904  10.373   6.009   6.512 -1.3698 -0.3515  0.8070
  155MOL0     H20905   9.779   5.561   6.861 -0.0824  1.1828  0.7024
  155MOL0     H20906   9.601   5.677   6.989  2.0324  0.2433 -1.0828
  155MOL0     H20907   9.303   5.835   7.140  0.0498  1.7946  1.8245
  155MOL0     H20908   9.172   5.944   7.303  0.2571 -2.3168  0.6743
  155MOL0     H20909   9.586   5.174   7.250 -0.2879 -0.3428  0.3170
  155MOL0     H20910   9.742   4.993   7.247  0.2221 -0.1490  0.5694
  155MOL0     H20911   9.870   4.607   7.632 -1.3173  1.5504 -1.8384
  155MOL0     H20912  10.042   4.463   7.715  2.7786 -1.0937 -0.5282
  155MOL0     H20913  10.410   4.585   7.759  1.5752  0.3408  1.4920
  155MOL0     H20914  10.499   4.515   7.620 -0.2427 -2.0194 -1.0282
  155MOL0     H20915  10.504   4.300   7.702 -3.9760  1.8184 -3.9079
  155MOL0     H20916  10.400   4.337   7.834 -0.8929  1.4834  1.1708
  155MOL0     H20917  10.617   4.316   7.938 -1.0515  0.1239 -0.7669
  155MOL0     H20918  10.551   4.469   7.964 -3.4627  1.2198 -1.9951
  155MOL0     H20919  10.687   4.571   7.768  1.1674  0.0019  0.4831
  155MOL0     H20920  10.792   4.493   7.886  1.0948  2.5697 -1.4762
  155MOL0     H20921  10.863   4.218   7.579  2.6113 -0.1160  1.6456
  155MOL0     H20922  10.333   4.659   7.470 -0.6057  1.4030 -0.3436
  155MOL0     H20923  10.287   4.810   7.325  0.0666  2.2664  0.2106
  155MOL0     H20924  10.115   4.807   7.265  0.0174 -0.4525  0.7276
  155MOL0     H20925  10.172   4.935   7.378  0.8190 -0.2233  2.9848
  156MOL0     O20926   2.284   6.082   0.900  0.5183 -0.7122 -0.1926
  156MOL0     C20927   2.206   6.095   0.807  0.2981  0.5993 -0.9615
  156MOL0     O20928   2.186   5.992   0.722 -0.9647 -0.3202 -0.0498
  156MOL0     C20929   2.253   5.870   0.742  0.0150 -0.3952  0.6060
  156MOL0     C20930   2.339   5.833   0.637 -1.1258  0.3558 -0.9114
  156MOL0     C20931   2.409   5.703   0.643 -0.2173 -0.5310 -0.9885
  156MOL0     C20932   2.387   5.612   0.747 -0.0593 -0.6422  0.2009
  156MOL0     O20933   2.445   5.491   0.761  0.0440  0.3499 -0.1153
  156MOL0     C20934   2.537   5.437   0.661 -0.0099 -0.0868 -0.1084
  156MOL0     C20935   2.618   5.322   0.720 -0.1938 -1.1668 -0.4058
  156MOL0     C20936   2.537   5.200   0.755 -0.0502 -0.4808  0.3624
  156MOL0     C20937   2.629   5.085   0.786 -1.0901  0.1745 -0.6778
  156MOL0     C20938   2.652   5.062   0.942  1.0858 -0.9287 -0.0856
  156MOL0     C20939   2.777   5.134   0.997 -0.2745 -0.5157 -0.2344
  156MOL0     C20940   2.771   5.139   1.152 -0.4637 -0.4966  0.5603
  156MOL0     C20941   2.698   5.265   1.207  0.3355  0.5875  0.5580
  156MOL0     N20942   2.729   5.393   1.138  0.7965  0.0031  0.7692
  156MOL0     C20943   2.632   5.482   1.091 -1.1499  0.8471  0.1824
  156MOL0     C20944   2.699   5.584   1.028  0.9545  0.8701 -0.2449
  156MOL0     C20945   2.626   5.694   0.957  0.4444  0.7137  0.6359
  156MOL0     C20946   2.650   5.823   1.038  0.3042  0.3728  0.0895
  156MOL0     C20947   2.574   5.943   0.974 -0.8377 -0.5051 -0.0958
  156MOL0     C20948   2.676   6.053   0.939  0.1552 -1.6403 -0.4123
  156MOL0     O20949   2.697   6.121   1.058  0.1540 -0.2117  0.0913
  156MOL0     C20950   2.634   6.235   1.084  0.1382  0.2472  0.1719
  156MOL0     C20951   2.533   6.247   1.181  0.3933  0.4834 -0.0673
  156MOL0     C20952   2.478   6.376   1.205 -0.2781 -0.7937 -0.2947
  156MOL0     C20953   2.527   6.492   1.140 -0.4469 -1.2510  0.0481
  156MOL0     C20954   2.474   6.635   1.166 -0.2420 -0.8772 -1.3236
  156MOL0     O20955   2.570   6.729   1.146 -0.3458  0.3200 -0.5489
  156MOL0     C20956   2.553   6.861   1.156 -0.0382  0.1499  0.1626
  156MOL0     C20957   2.526   6.934   1.029 -0.1543  0.3035 -0.5000
  156MOL0     C20958   2.512   7.070   1.028 -0.1994  0.5316 -0.5590
  156MOL0     C20959   2.539   7.152   1.133  0.8189 -0.0648  0.1747
  156MOL0     O20960   2.528   7.289   1.097 -0.2185  0.1671 -0.0543
  156MOL0     C20961   2.622   7.371   1.160 -0.6017 -0.2602  0.1001
  156MOL0     C20962   2.772   7.323   1.143  0.7383  0.1538 -0.2405
  156MOL0     C20963   2.853   7.449   1.181  0.3095  0.2581  0.4622
  156MOL0     C20964   2.998   7.432   1.139 -0.2746  0.0769 -0.2341
  156MOL0     C20965   3.061   7.572   1.103 -0.5431 -0.1766 -1.3163
  156MOL0     C20966   3.031   7.621   0.959  0.4225  0.4852  1.5361
  156MOL0     C20967   3.111   7.747   0.922 -0.1135  0.5403  0.8215
  156MOL0     C20968   3.039   7.872   0.979 -0.1950  0.1627 -0.0955
  156MOL0    Cl20969   3.130   8.035   0.969 -0.1472  0.5359  0.3879
  156MOL0     C20970   2.547   7.080   1.252  0.2930 -0.0583  0.0055
  156MOL0     C20971   2.551   6.940   1.268 -0.2503 -0.0916 -0.4019
  156MOL0     O20972   2.361   6.650   1.206 -1.1894  0.0792 -0.2346
  156MOL0     C20973   2.624   6.465   1.041 -0.2968 -0.2177 -0.0152
  156MOL0     C20974   2.682   6.349   1.006  0.1240  0.5784 -0.8012
  156MOL0     N20975   2.827   5.568   1.063 -0.4205 -0.3475  0.1758
  156MOL0     N20976   2.848   5.447   1.107  0.3381 -0.2794  0.1781
  156MOL0     C20977   2.287   5.647   0.840  1.2083 -0.4587 -0.8172
  156MOL0     C20978   2.235   5.784   0.848 -0.4122 -0.6471  0.3741
  156MOL0     C20979   2.156   6.231   0.787 -0.1943  0.2312  0.3105
  156MOL0     C20980   2.027   6.247   0.748  0.5991  0.7575 -0.0784
  156MOL0     C20981   1.975   6.377   0.721  0.2850  0.6397  1.1721
  156MOL0     C20982   2.063   6.483   0.690  0.1388 -0.3879 -0.2992
  156MOL0     O20983   2.023   6.607   0.641 -0.4858 -0.0917 -0.1208
  156MOL0     C20984   1.886   6.624   0.630  0.0599 -0.5877 -0.1862
  156MOL0     C20985   1.843   6.745   0.546 -0.7164 -0.6743 -0.3793
  156MOL0     C20986   1.909   6.873   0.601 -0.5914 -0.3822  0.1500
  156MOL0     C20987   1.878   6.999   0.520  0.2275 -0.4647  0.1029
  156MOL0     C20988   1.857   6.966   0.372  0.5553 -0.4559 -0.3232
  156MOL0     C20989   1.844   6.945   0.254 -0.0079 -0.2982  0.2485
  156MOL0     C20990   2.197   6.451   0.714  0.3937  0.6322 -0.5595
  156MOL0     C20991   2.245   6.331   0.771 -0.0841 -0.8903 -0.2279
  156MOL0     C20992   2.383   6.320   0.800 -1.1162  0.0277  0.3266
  156MOL0     H20993   2.360   5.896   0.552  2.3992  1.3571  0.5289
  156MOL0     H20994   2.465   5.689   0.550 -0.0992  0.3414 -1.0607
  156MOL0     H20995   2.480   5.391   0.580  1.7776  0.6085 -1.8373
  156MOL0     H20996   2.595   5.524   0.628 -2.0967  2.5280  2.5667
  156MOL0     H20997   2.683   5.351   0.803 -0.7566 -2.4580  0.5244
  156MOL0     H20998   2.688   5.285   0.644 -0.2134 -2.9237  0.3782
  156MOL0     H20999   2.485   5.165   0.665  0.1713  0.6724 -0.2180
  156MOL0     H21000   2.469   5.211   0.840  0.7823  0.0016  0.9817
  156MOL0     H21001   2.578   4.996   0.749 -1.2102  0.0565 -0.2318
  156MOL0     H21002   2.730   5.089   0.744 -0.2834  0.5098  1.1632
  156MOL0     H21003   2.562   5.088   0.997 -1.6849 -3.0988 -3.1657
  156MOL0     H21004   2.663   4.955   0.962  2.2653 -0.7882  0.1052
  156MOL0     H21005   2.869   5.081   0.969  3.6697  5.7167 -0.8502
  156MOL0     H21006   2.799   5.232   0.953 -2.1694  0.2350  0.4161
  156MOL0     H21007   2.877   5.144   1.175  1.2273  3.8103 -5.4780
  156MOL0     H21008   2.734   5.046   1.195  1.0205 -2.1372 -1.4868
  156MOL0     H21009   2.593   5.257   1.179  1.0729  0.2346 -2.3943
  156MOL0     H21010   2.725   5.276   1.313  1.0270 -1.8713  0.6971
  156MOL0     H21011   2.528   5.451   1.092 -0.7109 -0.7221 -0.0696
  156MOL0     H21012   2.642   5.691   0.849  1.3372 -0.2888  0.7806
  156MOL0     H21013   2.521   5.664   0.962  0.9098 -1.1653 -0.1474
  156MOL0     H21014   2.609   5.803   1.137  2.5735 -1.9731  0.6841
  156MOL0     H21015   2.756   5.841   1.060  0.1655  0.0702  1.0481
  156MOL0     H21016   2.484   5.968   1.031 -1.2648 -1.3692 -0.3783
  156MOL0     H21017   2.536   5.912   0.876 -3.3267 -0.5491  0.8209
  156MOL0     H21018   2.629   6.128   0.874 -1.1599 -1.7521  0.3591
  156MOL0     H21019   2.774   6.021   0.904  2.3952  0.6310  3.0600
  156MOL0     H21020   2.505   6.152   1.226 -2.5795  1.0841 -0.4202
  156MOL0     H21021   2.390   6.402   1.263 -0.6712  2.5548 -2.1510
  156MOL0     H21022   2.523   6.884   0.933  0.2514  3.0234 -2.0071
  156MOL0     H21023   2.483   7.117   0.934  0.1590 -3.1904 -2.6980
  156MOL0     H21024   2.623   7.459   1.095  1.3976 -1.8996 -2.2657
  156MOL0     H21025   2.605   7.382   1.268 -4.5335 -1.2751 -0.2413
  156MOL0     H21026   2.788   7.238   1.209  1.4569 -1.2454 -2.1508
  156MOL0     H21027   2.783   7.287   1.041  0.4832 -5.5540  1.3964
  156MOL0     H21028   2.810   7.539   1.136 -0.1467 -0.1060  0.1595
  156MOL0     H21029   2.849   7.456   1.290 -1.8108  0.9477  0.3809
  156MOL0     H21030   3.011   7.355   1.063  6.1376  0.8613 -0.5275
  156MOL0     H21031   3.057   7.392   1.223 -2.8107  2.3135  2.8837
  156MOL0     H21032   3.166   7.563   1.129 -0.9399  1.5199  1.1898
  156MOL0     H21033   3.014   7.649   1.165 -1.2752 -0.7037 -1.1975
  156MOL0     H21034   3.071   7.540   0.897 -2.7675 -0.0036 -0.0861
  156MOL0     H21035   2.931   7.623   0.916  1.7357 -0.4757 -1.9163
  156MOL0     H21036   3.126   7.770   0.816  2.0317  1.3104  1.2380
  156MOL0     H21037   3.209   7.746   0.970 -1.6587  1.2743  4.2438
  156MOL0     H21038   2.948   7.897   0.923 -0.4169 -2.9893 -1.3472
  156MOL0     H21039   3.009   7.862   1.084  2.1106 -1.2611  0.5034
  156MOL0     H21040   2.545   7.118   1.353  1.1898 -0.6137  0.2380
  156MOL0     H21041   2.549   6.900   1.369  0.5270 -5.2045 -2.1115
  156MOL0     H21042   2.665   6.555   0.994 -0.5569  1.4482  2.7492
  156MOL0     H21043   2.757   6.346   0.928  1.0843 -2.1341  0.1126
  156MOL0     H21044   2.258   5.580   0.921  1.2972  0.8348  0.3096
  156MOL0     H21045   2.175   5.810   0.934  0.7805  2.1668  0.4416
  156MOL0     H21046   1.959   6.163   0.757  2.3355 -0.8637 -1.3676
  156MOL0     H21047   1.868   6.387   0.708  0.3054  3.0107  2.2731
  156MOL0     H21048   1.842   6.629   0.730  0.2910 -3.1897  0.1251
  156MOL0     H21049   1.843   6.541   0.573 -1.3210  0.6873 -1.0530
  156MOL0     H21050   1.738   6.768   0.523  0.2257  3.6583 -1.2741
  156MOL0     H21051   1.883   6.722   0.447 -1.2720  0.1802 -0.8154
  156MOL0     H21052   2.018   6.862   0.600 -0.5396 -0.4433  2.1129
  156MOL0     H21053   1.871   6.881   0.703  1.0633 -0.1050  0.7919
  156MOL0     H21054   1.794   7.054   0.563  1.3389  0.2442  1.4757
  156MOL0     H21055   1.963   7.066   0.536 -1.3967  1.1995  2.5542
  156MOL0     H21056   1.835   6.925   0.149  2.0872 -1.2234  0.1844
  156MOL0     H21057   2.267   6.532   0.691 -0.4965  1.4312 -0.5189
  156MOL0     H21058   2.436   6.412   0.770  0.2439 -0.9974 -0.5636
  156MOL0     H21059   2.408   6.307   0.906  0.4194  0.5630  0.0647
  156MOL0     H21060   2.440   6.241   0.751  0.9643  2.6285 -1.7997
  157MOL0     O21061   1.333   2.848   7.122  0.1219 -0.0170 -0.0135
  157MOL0     C21062   1.376   2.886   7.232  0.3799 -0.2791 -0.6460
  157MOL0     O21063   1.503   2.917   7.264 -1.4022  0.4562 -0.5058
  157MOL0     C21064   1.610   2.869   7.191  0.7017 -0.5823 -0.7230
  157MOL0     C21065   1.623   2.741   7.130  0.9032 -0.0859  0.3554
  157MOL0     C21066   1.750   2.706   7.067  0.4560  1.1209 -0.1280
  157MOL0     C21067   1.852   2.798   7.057 -0.0031  0.3713 -0.3642
  157MOL0     O21068   1.972   2.786   6.997  0.8120  0.4139  0.6529
  157MOL0     C21069   2.005   2.656   6.947  0.1114  0.0208 -0.1890
  157MOL0     C21070   2.147   2.661   6.897  0.3420 -0.9102 -0.8507
  157MOL0     C21071   2.252   2.680   7.016 -0.0004 -0.1610  0.9706
  157MOL0     C21072   2.302   2.551   7.085 -0.1482  0.1777 -0.0617
  157MOL0     C21073   2.231   2.503   7.218 -0.5092 -0.8743  0.3386
  157MOL0     C21074   2.224   2.615   7.320 -0.3538 -0.4357 -1.3624
  157MOL0     C21075   2.158   2.568   7.453 -0.0774  0.8182  0.4271
  157MOL0     C21076   2.065   2.674   7.520  0.4127 -0.5861  0.1673
  157MOL0     N21077   2.041   2.643   7.662  0.0790 -0.9539 -0.1541
  157MOL0     C21078   1.987   2.519   7.714 -0.4304  0.2304  0.0569
  157MOL0     C21079   2.002   2.525   7.848 -0.3512 -0.1521 -0.0279
  157MOL0     C21080   1.966   2.425   7.953 -0.0293  0.4787  0.2424
  157MOL0     C21081   1.826   2.442   8.015  0.7792 -0.1987 -0.4598
  157MOL0     C21082   1.843   2.582   8.088 -0.8463 -0.3724 -0.1507
  157MOL0     C21083   1.700   2.616   8.138 -0.0635 -0.5086  0.2118
  157MOL0     O21084   1.710   2.734   8.217  0.8377  0.0068 -0.6176
  157MOL0     C21085   1.599   2.815   8.225 -0.1126  0.0302 -0.3090
  157MOL0     C21086   1.465   2.786   8.182  0.3287  0.4960  0.7598
  157MOL0     C21087   1.363   2.882   8.205  0.1414  0.4051 -0.3938
  157MOL0     C21088   1.388   3.009   8.260  0.1500 -0.0079 -1.3715
  157MOL0     C21089   1.280   3.109   8.286 -0.1861  0.4316 -0.5739
  157MOL0     O21090   1.306   3.218   8.372  0.2665 -1.1111 -0.3309
  157MOL0     C21091   1.210   3.291   8.428 -0.6387 -0.2219 -0.1572
  157MOL0     C21092   1.079   3.317   8.377  0.0161 -0.3273 -0.6220
  157MOL0     C21093   0.992   3.401   8.453  0.5699  0.0151  0.0984
  157MOL0     C21094   1.042   3.473   8.564 -0.7623  0.1350  0.2655
  157MOL0     O21095   0.958   3.571   8.620  0.1357  0.3480  0.1727
  157MOL0     C21096   1.010   3.637   8.735  0.8192  0.9956  0.9636
  157MOL0     C21097   0.906   3.727   8.789  0.2079 -0.9769 -0.3089
  157MOL0     C21098   0.772   3.663   8.817 -0.3072  0.7957 -0.4150
  157MOL0     C21099   0.643   3.750   8.778  0.2502 -0.2995  1.0507
  157MOL0     C21100   0.511   3.667   8.787 -0.4417 -0.1835  1.3930
  157MOL0     C21101   0.389   3.763   8.786  0.0647 -0.2690  0.6422
  157MOL0     C21102   0.254   3.694   8.774 -0.8245 -0.2111 -0.4664
  157MOL0     C21103   0.136   3.790   8.811  0.1776  0.1546  0.7165
  157MOL0    Cl21104   0.110   3.808   8.981  0.6851 -0.1527  0.4018
  157MOL0     C21105   1.172   3.456   8.601  0.5454  0.2723 -1.0329
  157MOL0     C21106   1.257   3.367   8.536  0.3312 -0.7193  0.0612
  157MOL0     O21107   1.188   3.094   8.208  0.3937  1.0035 -0.6375
  157MOL0     C21108   1.518   3.031   8.304 -0.5102  0.0700 -0.1831
  157MOL0     C21109   1.617   2.939   8.290 -0.2591  0.2391  0.2711
  157MOL0     N21110   2.058   2.648   7.870  0.3133 -0.4768 -0.2175
  157MOL0     N21111   2.085   2.717   7.765  1.0938 -0.8935 -1.2030
  157MOL0     C21112   1.835   2.927   7.105  0.8031 -0.9807 -0.0712
  157MOL0     C21113   1.715   2.958   7.178 -0.9881  0.2093 -0.4053
  157MOL0     C21114   1.281   2.901   7.344 -0.4017 -0.5082 -0.6279
  157MOL0     C21115   1.315   2.861   7.470 -0.2861  0.7253  1.1091
  157MOL0     C21116   1.236   2.874   7.581  0.2344 -0.2502 -0.6056
  157MOL0     C21117   1.100   2.908   7.560  0.2353 -0.0672  0.4636
  157MOL0     O21118   1.004   2.917   7.662 -0.3771  0.1375 -0.0495
  157MOL0     C21119   1.033   2.866   7.798 -0.3113  0.9739 -0.3132
  157MOL0     C21120   1.117   2.945   7.898 -0.4111 -0.7688 -0.3776
  157MOL0     C21121   1.117   3.103   7.875  0.7840  0.0477 -0.0127
  157MOL0     C21122   0.982   3.173   7.876 -0.5588  0.3992 -0.5008
  157MOL0     C21123   0.918   3.156   8.007  0.1950  0.1505  0.6755
  157MOL0     C21124   0.865   3.134   8.111 -0.1631  1.2880 -0.8195
  157MOL0     C21125   1.055   2.943   7.431  0.2727  0.3932 -0.2035
  157MOL0     C21126   1.150   2.954   7.331 -0.7455  0.2113  0.5319
  157MOL0     C21127   1.103   3.016   7.206  0.4631 -0.5537 -0.0794
  157MOL0     H21128   1.541   2.671   7.136 -0.9606  1.8809 -0.7094
  157MOL0     H21129   1.758   2.604   7.031  0.1071  1.0264  0.0462
  157MOL0     H21130   2.004   2.593   7.036 -1.2942  1.0049  0.5247
  157MOL0     H21131   1.931   2.620   6.875 -0.7511 -3.4447  2.2175
  157MOL0     H21132   2.146   2.740   6.821 -4.0335 -0.2871 -0.4248
  157MOL0     H21133   2.158   2.569   6.837  0.4859 -0.6977 -1.1546
  157MOL0     H21134   2.204   2.758   7.076 -0.3533  2.7986 -2.7537
  157MOL0     H21135   2.330   2.735   6.963 -0.4674 -1.0389 -0.7172
  157MOL0     H21136   2.319   2.464   7.020  2.7514  0.7845 -0.2643
  157MOL0     H21137   2.403   2.571   7.120  0.1876 -2.4852  0.7261
  157MOL0     H21138   2.141   2.447   7.193  0.8531 -2.6073 -0.9349
  157MOL0     H21139   2.295   2.428   7.265 -1.1827 -0.0914  2.6050
  157MOL0     H21140   2.328   2.642   7.341 -1.0166 -0.6335  3.1303
  157MOL0     H21141   2.170   2.703   7.283 -2.6147 -0.5262  1.4121
  157MOL0     H21142   2.243   2.554   7.520  1.2550  0.7139 -1.2446
  157MOL0     H21143   2.112   2.470   7.441 -0.5712  0.9441  1.1315
  157MOL0     H21144   2.122   2.764   7.498  1.9093 -2.0291 -2.3983
  157MOL0     H21145   1.974   2.687   7.460  0.0453 -1.4710  0.5023
  157MOL0     H21146   1.952   2.436   7.653  2.9703 -0.4927 -1.1236
  157MOL0     H21147   1.963   2.332   7.895  0.9962  1.9647 -2.3835
  157MOL0     H21148   2.033   2.433   8.039  0.2619  3.0273 -0.1413
  157MOL0     H21149   1.755   2.440   7.932 -1.5443 -0.4441  1.4114
  157MOL0     H21150   1.812   2.359   8.085  0.6492 -1.2804 -1.7369
  157MOL0     H21151   1.855   2.670   8.024  1.1569 -0.5376 -0.0538
  157MOL0     H21152   1.907   2.589   8.177 -0.4448 -1.4622 -0.3347
  157MOL0     H21153   1.644   2.536   8.188  0.0193 -1.2565 -0.8525
  157MOL0     H21154   1.642   2.638   8.047 -0.7405 -2.2405  0.1725
  157MOL0     H21155   1.441   2.694   8.128 -0.6410  1.5982 -0.7792
  157MOL0     H21156   1.262   2.860   8.174 -0.6618  0.5487  1.8917
  157MOL0     H21157   1.048   3.288   8.277 -1.5680  5.3351 -2.1188
  157MOL0     H21158   0.888   3.418   8.429  0.6332 -1.0579 -1.0200
  157MOL0     H21159   1.018   3.560   8.813 -3.1042  1.2614  1.8288
  157MOL0     H21160   1.110   3.679   8.718  0.3045  2.0940  0.5851
  157MOL0     H21161   0.937   3.778   8.881 -1.4705 -0.0695 -0.2003
  157MOL0     H21162   0.888   3.806   8.715 -0.5479  1.8145  2.6237
  157MOL0     H21163   0.763   3.566   8.769 -3.5530  0.7188  0.1215
  157MOL0     H21164   0.774   3.646   8.925 -0.1095 -1.7364 -0.7673
  157MOL0     H21165   0.656   3.782   8.674  2.7280 -0.9832  1.1017
  157MOL0     H21166   0.651   3.843   8.834  1.7286 -0.0147  0.4132
  157MOL0     H21167   0.501   3.600   8.873  0.5981 -1.0606  0.8501
  157MOL0     H21168   0.509   3.602   8.699  0.8962  1.4571  0.0667
  157MOL0     H21169   0.393   3.807   8.886 -1.0380 -3.1019  2.0284
  157MOL0     H21170   0.405   3.842   8.712  1.1864 -0.6854  0.4178
  157MOL0     H21171   0.253   3.612   8.846 -4.1978  0.6358  0.6747
  157MOL0     H21172   0.248   3.646   8.676 -1.5764  0.9144 -0.9973
  157MOL0     H21173   0.148   3.889   8.766 -0.8074 -1.3297 -3.1593
  157MOL0     H21174   0.050   3.739   8.768  0.6685  0.7725 -1.0718
  157MOL0     H21175   1.225   3.512   8.677 -2.0706  1.3975  0.1068
  157MOL0     H21176   1.358   3.357   8.573  0.2426 -0.6171  0.3320
  157MOL0     H21177   1.547   3.131   8.335  1.2427 -0.4079 -0.1577
  157MOL0     H21178   1.718   2.964   8.322 -1.0910  0.3737  3.0780
  157MOL0     H21179   1.916   2.999   7.093 -2.9097  3.5765 -0.6178
  157MOL0     H21180   1.702   3.058   7.220  0.8739 -0.1517  1.1952
  157MOL0     H21181   1.413   2.817   7.481 -0.4817 -0.0129  0.0329
  157MOL0     H21182   1.275   2.838   7.675 -1.0275  0.0597  0.0606
  157MOL0     H21183   1.095   2.776   7.799  2.2124  2.5275  2.8416
  157MOL0     H21184   0.938   2.853   7.849  0.7299 -3.0515  0.9611
  157MOL0     H21185   1.214   2.895   7.892 -1.4318 -3.0987  0.9389
  157MOL0     H21186   1.079   2.935   8.000  0.1851  2.3133  0.2456
  157MOL0     H21187   1.163   3.123   7.778 -0.9528 -2.0845 -1.3454
  157MOL0     H21188   1.181   3.141   7.956  0.5287  0.7831 -0.1523
  157MOL0     H21189   1.003   3.278   7.857  3.4707 -0.3315 -0.9979
  157MOL0     H21190   0.934   3.126   7.789  1.2532 -2.1609 -0.2243
  157MOL0     H21191   0.802   3.120   8.196  2.4918  1.4242  1.2757
  157MOL0     H21192   0.953   2.975   7.409 -1.5383 -3.2527  1.9260
  157MOL0     H21193   1.073   2.940   7.133 -0.0087 -1.3600  0.9384
  157MOL0     H21194   1.021   3.083   7.232 -0.3280 -0.7754 -1.8610
  157MOL0     H21195   1.179   3.078   7.157 -1.8809  0.5904 -2.5462
  158MOL0     O21196  10.883   6.021   5.573 -0.1703  0.1753 -1.0779
  158MOL0     C21197  10.905   6.120   5.498  0.5702 -0.3951  0.8414
  158MOL0     O21198  10.804   6.173   5.416 -0.4222 -0.1452 -0.7950
  158MOL0     C21199  10.673   6.150   5.457  0.6528 -0.5937 -0.4635
  158MOL0     C21200  10.628   6.216   5.572  0.2814 -0.1884 -0.3812
  158MOL0     C21201  10.495   6.199   5.608 -0.2873  0.0600  0.5468
  158MOL0     C21202  10.413   6.129   5.523  0.5603  0.1943 -1.3362
  158MOL0     O21203  10.288   6.120   5.575 -0.1310 -0.1997  0.3283
  158MOL0     C21204  10.179   6.170   5.502 -0.0075  0.6100  0.0650
  158MOL0     C21205  10.060   6.093   5.564  0.4637  1.0607 -1.5610
  158MOL0     C21206  10.056   5.934   5.533 -0.3428  0.8780  0.1655
  158MOL0     C21207   9.980   5.890   5.407  0.2789 -0.3997 -0.8379
  158MOL0     C21208   9.901   5.761   5.433 -0.7942 -0.2783  0.3540
  158MOL0     C21209   9.771   5.799   5.512  0.1882 -0.2950 -0.1734
  158MOL0     C21210   9.677   5.682   5.549  0.4653  0.6314 -0.5561
  158MOL0     C21211   9.648   5.586   5.426 -1.2164 -0.7371  0.2346
  158MOL0     N21212   9.552   5.483   5.452 -0.3573  0.1709 -0.5849
  158MOL0     C21213   9.567   5.362   5.502  0.2248  0.0926 -0.0403
  158MOL0     C21214   9.444   5.307   5.521  0.1021 -0.5708 -0.0883
  158MOL0     C21215   9.412   5.171   5.584 -0.5697 -0.5366  0.1101
  158MOL0     C21216   9.379   5.069   5.471 -0.1016 -0.3206 -0.0717
  158MOL0     C21217   9.338   4.939   5.538 -0.4874  0.1496 -0.8262
  158MOL0     C21218   9.311   4.811   5.444  0.0220  0.3178 -0.6943
  158MOL0     O21219   9.192   4.847   5.362 -0.1781  0.4865 -0.0171
  158MOL0     C21220   9.121   4.754   5.293  0.1737 -0.5320 -0.2366
  158MOL0     C21221   9.174   4.629   5.251  0.5450 -0.3457  0.0207
  158MOL0     C21222   9.101   4.533   5.185  0.9337  0.1398  0.1975
  158MOL0     C21223   8.954   4.558   5.167 -0.3104 -0.8512 -0.2832
  158MOL0     C21224   8.870   4.461   5.105 -0.4338  0.6962  0.1115
  158MOL0     O21225   8.757   4.500   5.048 -0.0785  0.5644  0.8121
  158MOL0     C21226   8.676   4.422   4.977  0.1748  0.2800 -0.4152
  158MOL0     C21227   8.602   4.466   4.859 -0.2034  0.1869 -0.3876
  158MOL0     C21228   8.522   4.379   4.790 -0.5206  0.5829  0.3852
  158MOL0     C21229   8.485   4.247   4.840 -0.2887  0.3089  0.4473
  158MOL0     O21230   8.389   4.166   4.777 -0.2164 -0.4521 -1.0592
  158MOL0     C21231   8.369   4.019   4.786  0.9333  0.0807  0.1610
  158MOL0     C21232   8.305   3.963   4.663 -0.3274 -0.0605 -0.6004
  158MOL0     C21233   8.163   4.006   4.650  0.6677 -0.4440 -0.0441
  158MOL0     C21234   8.072   3.920   4.561 -0.2900 -0.1160  0.1910
  158MOL0     C21235   7.942   3.993   4.523  0.0244  0.3761  0.3939
  158MOL0     C21236   7.832   3.901   4.455 -0.4264 -0.8061 -0.2031
  158MOL0     C21237   7.692   3.958   4.457  1.0332 -0.0274  0.2185
  158MOL0     C21238   7.615   3.911   4.336  1.1326 -0.4066  0.2388
  158MOL0    Cl21239   7.697   4.021   4.203 -0.0017 -0.2321 -0.1322
  158MOL0     C21240   8.554   4.210   4.958  0.8153  0.7511  0.0725
  158MOL0     C21241   8.644   4.294   5.020 -0.3256 -0.3768 -0.3034
  158MOL0     O21242   8.909   4.344   5.117 -0.4271  0.4282 -0.4081
  158MOL0     C21243   8.905   4.687   5.196  0.3311 -0.1824 -0.1568
  158MOL0     C21244   8.984   4.779   5.262  0.4611 -0.2841  0.8375
  158MOL0     N21245   9.347   5.399   5.479 -0.5468  0.4659 -0.6598
  158MOL0     N21246   9.416   5.501   5.437  0.2214  0.2498  0.5253
  158MOL0     C21247  10.458   6.064   5.403  0.5245 -0.0434  0.3073
  158MOL0     C21248  10.591   6.081   5.374  0.8020 -0.1334  0.9909
  158MOL0     C21249  11.036   6.192   5.470 -0.4708  0.0502 -0.3722
  158MOL0     C21250  11.043   6.293   5.371  0.1248  0.1280 -0.1799
  158MOL0     C21251  11.164   6.354   5.332  0.0415 -1.4550  0.2238
  158MOL0     C21252  11.278   6.329   5.405 -0.1381 -0.1656  1.0334
  158MOL0     O21253  11.399   6.374   5.353 -0.5138 -0.3704 -0.4527
  158MOL0     C21254  11.476   6.290   5.266 -0.0012 -0.2415  0.6597
  158MOL0     C21255  11.593   6.358   5.202  0.2681  0.2943 -0.1091
  158MOL0     C21256  11.549   6.489   5.137  0.5453  0.2547  0.2079
  158MOL0     C21257  11.584   6.614   5.230 -0.1698 -0.3050 -0.2697
  158MOL0     C21258  11.528   6.743   5.183  0.1092  0.5898 -0.4869
  158MOL0     C21259  11.479   6.848   5.137  0.2047  0.0971 -0.4751
  158MOL0     C21260  11.278   6.240   5.508  0.4461 -1.0427 -1.2324
  158MOL0     C21261  11.160   6.164   5.543  0.6524  0.6136  0.7275
  158MOL0     C21262  11.169   6.081   5.679 -0.8503 -0.3959 -0.0602
  158MOL0     H21263  10.695   6.258   5.646  2.0709 -0.3313 -1.8573
  158MOL0     H21264  10.453   6.239   5.700  0.0591 -1.3621  1.3630
  158MOL0     H21265  10.156   6.275   5.521 -2.0323  0.1712  0.2727
  158MOL0     H21266  10.189   6.143   5.397  1.9466 -0.7609  0.5461
  158MOL0     H21267   9.965   6.133   5.527 -0.7040 -1.2305 -1.2181
  158MOL0     H21268  10.058   6.110   5.672  1.4270  2.1576 -1.6978
  158MOL0     H21269  10.020   5.884   5.623 -1.5569 -0.9293 -1.2662
  158MOL0     H21270  10.159   5.897   5.530  0.2068  2.2702  1.0251
  158MOL0     H21271   9.909   5.969   5.378 -1.5600 -2.5652 -2.6253
  158MOL0     H21272  10.038   5.895   5.315 -1.2359 -0.7538 -1.8455
  158MOL0     H21273   9.867   5.721   5.336 -0.0564 -2.8839  1.0771
  158MOL0     H21274   9.965   5.687   5.482 -0.5975  1.1526  2.3753
  158MOL0     H21275   9.805   5.834   5.610 -1.2084 -0.9149  0.5678
  158MOL0     H21276   9.717   5.876   5.456  2.9920  2.9906  1.3067
  158MOL0     H21277   9.581   5.718   5.588 -2.6797 -1.1858 -5.5887
  158MOL0     H21278   9.717   5.625   5.633 -0.2440  1.6815  0.5301
  158MOL0     H21279   9.619   5.652   5.344 -2.0669 -0.3234  0.8525
  158MOL0     H21280   9.747   5.543   5.406  1.9743  5.1558  1.1523
  158MOL0     H21281   9.663   5.313   5.512  0.2399 -0.0065 -0.6106
  158MOL0     H21282   9.494   5.131   5.645  0.0594 -2.9517 -2.1379
  158MOL0     H21283   9.328   5.173   5.655 -0.6306 -1.4546  0.0776
  158MOL0     H21284   9.301   5.097   5.399 -0.2487  0.1828  0.2734
  158MOL0     H21285   9.470   5.053   5.413 -0.6490  1.5826 -1.5767
  158MOL0     H21286   9.252   4.957   5.604  1.1677  2.1138  0.9100
  158MOL0     H21287   9.420   4.902   5.599 -1.5169 -1.1958 -0.1932
  158MOL0     H21288   9.276   4.726   5.504 -3.6127  1.2096 -1.2845
  158MOL0     H21289   9.402   4.790   5.387  1.0761 -0.3001  1.1251
  158MOL0     H21290   9.280   4.610   5.267 -0.0832 -0.8487  5.3175
  158MOL0     H21291   9.153   4.443   5.155  0.2030 -0.2567  0.1138
  158MOL0     H21292   8.596   4.565   4.815 -3.1689 -0.3940 -1.5500
  158MOL0     H21293   8.461   4.416   4.708 -1.1802  1.5740  1.2882
  158MOL0     H21294   8.461   3.961   4.803  1.6944  0.8908 -0.9819
  158MOL0     H21295   8.303   3.995   4.869 -0.5422 -0.3691 -1.1064
  158MOL0     H21296   8.365   4.001   4.580 -0.1859 -0.1025 -0.5176
  158MOL0     H21297   8.310   3.854   4.663  3.7607 -0.0539  1.4772
  158MOL0     H21298   8.118   4.030   4.747  1.1288 -3.7440  1.1042
  158MOL0     H21299   8.165   4.111   4.619  0.1382  0.8950  3.8085
  158MOL0     H21300   8.052   3.830   4.620  2.6919  0.1000  1.7514
  158MOL0     H21301   8.133   3.896   4.474  0.7349  0.7675  0.6336
  158MOL0     H21302   7.966   4.076   4.456  2.2209  0.0088  0.6357
  158MOL0     H21303   7.893   4.044   4.606  0.2260 -1.7793  1.9453
  158MOL0     H21304   7.858   3.899   4.348 -1.4512  0.9509 -0.5356
  158MOL0     H21305   7.827   3.798   4.490 -3.6192 -1.1941 -1.3934
  158MOL0     H21306   7.697   4.067   4.456 -0.3025  0.0536 -0.8347
  158MOL0     H21307   7.651   3.920   4.551  2.1098  2.2451  1.7114
  158MOL0     H21308   7.614   3.804   4.314  1.9209 -0.0063 -2.0146
  158MOL0     H21309   7.513   3.941   4.360  0.9498 -1.3010  0.6258
  158MOL0     H21310   8.541   4.107   4.991 -0.9694  0.8803 -0.0874
  158MOL0     H21311   8.678   4.252   5.114  0.6744 -2.9817 -1.7492
  158MOL0     H21312   8.798   4.705   5.196  0.7838  3.8371 -2.5994
  158MOL0     H21313   8.938   4.875   5.285 -0.6460 -0.0590 -1.9026
  158MOL0     H21314  10.396   6.007   5.334  1.6212  1.3264 -1.9229
  158MOL0     H21315  10.628   6.038   5.281 -1.6782 -3.2668  1.2410
  158MOL0     H21316  10.951   6.327   5.324 -1.3878 -0.8853  1.8731
  158MOL0     H21317  11.186   6.426   5.254  1.6574 -0.3627  1.6093
  158MOL0     H21318  11.410   6.245   5.191 -1.3425 -1.3124  2.3687
  158MOL0     H21319  11.509   6.211   5.334  0.6316  0.8999  1.7114
  158MOL0     H21320  11.639   6.292   5.128 -0.9595 -0.4451 -0.2359
  158MOL0     H21321  11.666   6.376   5.281  0.5828  1.3897 -0.6274
  158MOL0     H21322  11.452   6.486   5.087  1.0231  1.7822 -0.8869
  158MOL0     H21323  11.612   6.497   5.047 -1.5509 -0.4537 -1.3936
  158MOL0     H21324  11.544   6.599   5.331  4.0446 -0.4162  1.5627
  158MOL0     H21325  11.692   6.629   5.238 -0.4162  1.9177 -0.5710
  158MOL0     H21326  11.436   6.942   5.109  1.7101  0.6624 -0.9911
  158MOL0     H21327  11.366   6.232   5.571 -0.5521  1.2445  0.5813
  158MOL0     H21328  11.270   6.081   5.722  0.2225 -0.4959 -2.4133
  158MOL0     H21329  11.115   6.130   5.761  1.7669  1.4000  0.7258
  158MOL0     H21330  11.141   5.976   5.668 -0.3581 -0.6763  1.2048
  159MOL0     O21331   3.126   2.716  10.310 -0.7830  0.8049 -0.2028
  159MOL0     C21332   3.008   2.704  10.301 -0.1473  0.1756 -0.0781
  159MOL0     O21333   2.932   2.717  10.414  0.1646  0.0723 -0.3956
  159MOL0     C21334   2.966   2.671  10.540 -0.1903 -0.5322  0.2123
  159MOL0     C21335   2.887   2.733  10.643  0.2844 -0.2124  0.0853
  159MOL0     C21336   2.903   2.706  10.780  1.1242 -0.4745  0.7193
  159MOL0     C21337   3.000   2.613  10.809  0.1535  0.1604 -0.7944
  159MOL0     O21338   3.037   2.565  10.927 -0.6971 -0.3412  0.1039
  159MOL0     C21339   2.964   2.620  11.036 -0.0936 -0.1663  0.2335
  159MOL0     C21340   2.989   2.528  11.149  0.6225 -0.2128  0.6914
  159MOL0     C21341   3.137   2.547  11.199  0.8582  0.6792 -1.2415
  159MOL0     C21342   3.230   2.433  11.148 -0.1569 -0.6278 -0.5442
  159MOL0     C21343   3.350   2.431  11.239  0.2624 -0.5045  0.9607
  159MOL0     C21344   3.470   2.368  11.178  0.1893 -0.3390 -0.3412
  159MOL0     C21345   3.591   2.359  11.267  0.2964  0.5858  0.1952
  159MOL0     C21346   3.563   2.267  11.389  0.6104 -0.2124 -0.1029
  159MOL0     N21347   3.671   2.288  11.491 -0.0678 -0.1355  0.2545
  159MOL0     C21348   3.698   2.413  11.563 -0.4635 -0.4514 -0.1675
  159MOL0     C21349   3.795   2.379  11.651 -0.5198  0.2170 -1.2859
  159MOL0     C21350   3.856   2.470  11.758  0.3895  0.0671 -0.8014
  159MOL0     C21351   3.973   2.555  11.712 -0.6650 -0.4642  0.4092
  159MOL0     C21352   4.099   2.476  11.669 -1.0042  0.8853  0.2935
  159MOL0     C21353   4.198   2.405  11.772 -0.1513 -0.2809 -0.1650
  159MOL0     O21354   4.135   2.301  11.847 -0.5216 -0.2626  0.1727
  159MOL0     C21355   4.182   2.246  11.967 -0.2905  0.8166 -0.2959
  159MOL0     C21356   4.103   2.160  12.043  0.4434  0.8259 -0.7116
  159MOL0     C21357   4.121   2.133  12.181  0.0860 -0.2657 -1.1961
  159MOL0     C21358   4.247   2.169  12.240  0.5170  0.7773  0.7012
  159MOL0     C21359   4.295   2.140  12.381  0.1449  0.8861  1.1550
  159MOL0     O21360   4.426   2.167  12.408 -0.6290 -0.7450  0.4429
  159MOL0     C21361   4.484   2.139  12.532 -0.0743  0.5764  0.1317
  159MOL0     C21362   4.413   2.137  12.659  0.2232  0.8969 -0.2423
  159MOL0     C21363   4.488   2.132  12.777 -0.2190 -0.1659  0.1351
  159MOL0     C21364   4.627   2.099  12.783  0.1957 -0.1771 -0.1253
  159MOL0     O21365   4.697   2.080  12.892 -0.3693  0.4713 -0.1602
  159MOL0     C21366   4.642   2.028  13.006  0.4862  0.4235 -0.1502
  159MOL0     C21367   4.724   1.973  13.122  0.2358 -0.8244 -0.0615
  159MOL0     C21368   4.840   1.875  13.073  0.2596  0.0909  0.0273
  159MOL0     C21369   4.961   1.875  13.166 -0.3944  0.4950  0.0822
  159MOL0     C21370   5.057   1.761  13.169 -0.2850  0.5857 -0.1055
  159MOL0     C21371   5.154   1.775  13.278 -0.1902 -0.1378  0.6321
  159MOL0     C21372   5.252   1.663  13.256 -0.1812 -0.1124 -0.4097
  159MOL0     C21373   5.362   1.657  13.368  0.7597 -0.5279  0.6484
  159MOL0    Cl21374   5.486   1.786  13.340 -0.0871  0.0729  0.1080
  159MOL0     C21375   4.687   2.097  12.656 -1.0213 -0.5393  0.2681
  159MOL0     C21376   4.616   2.108  12.536  0.3332  0.6178 -0.5415
  159MOL0     O21377   4.215   2.085  12.449  0.4475 -0.6565 -0.9896
  159MOL0     C21378   4.329   2.248  12.148  0.3180  0.4026 -1.0650
  159MOL0     C21379   4.297   2.295  12.027  0.3471 -0.2475  0.2169
  159MOL0     N21380   3.841   2.252  11.625 -0.0780  0.8094  0.1759
  159MOL0     N21381   3.753   2.199  11.544 -0.8215  0.3717  0.8665
  159MOL0     C21382   3.086   2.564  10.709  0.0093  0.2536 -0.1388
  159MOL0     C21383   3.075   2.593  10.568 -0.7090 -1.4457  0.2426
  159MOL0     C21384   2.943   2.687  10.171 -0.0922 -0.4777 -0.0819
  159MOL0     C21385   2.807   2.692  10.167 -0.1878 -0.4726 -0.7187
  159MOL0     C21386   2.738   2.688  10.057  0.1140 -0.2257  0.1827
  159MOL0     C21387   2.799   2.671   9.936  0.3080  0.0211  0.1723
  159MOL0     O21388   2.730   2.673   9.818 -0.3465  0.1902  0.2516
  159MOL0     C21389   2.590   2.651   9.838  0.6406  0.2568  0.5033
  159MOL0     C21390   2.536   2.598   9.696 -0.1676  0.5728 -0.1117
  159MOL0     C21391   2.386   2.575   9.695 -0.0812  0.6470  0.1524
  159MOL0     C21392   2.346   2.528   9.554  0.3767  0.4365 -0.9084
  159MOL0     C21393   2.200   2.509   9.542  0.4298 -0.0039  0.5870
  159MOL0     C21394   2.079   2.516   9.524 -0.1207 -0.7515 -0.7876
  159MOL0     C21395   2.936   2.656   9.939  0.3019  0.2024  0.6366
  159MOL0     C21396   3.012   2.667  10.049 -0.1402 -0.0444 -0.5932
  159MOL0     C21397   3.155   2.670  10.038  0.2255 -0.1963 -0.6007
  159MOL0     H21398   2.805   2.797  10.611  0.4773 -0.3167 -0.6454
  159MOL0     H21399   2.842   2.743  10.861  1.3433 -1.4941  1.3655
  159MOL0     H21400   3.003   2.720  11.057  1.2750 -0.1047 -2.1818
  159MOL0     H21401   2.856   2.625  11.023  0.0828 -0.4113 -1.5281
  159MOL0     H21402   2.967   2.423  11.128  0.3340 -0.1691  0.7662
  159MOL0     H21403   2.922   2.545  11.233  1.6264  2.6378  1.0012
  159MOL0     H21404   3.126   2.576  11.304 -2.2490  0.8002 -1.4991
  159MOL0     H21405   3.178   2.630  11.140  0.6952  1.9207  0.3290
  159MOL0     H21406   3.189   2.333  11.133  2.8956 -1.8672 -1.4671
  159MOL0     H21407   3.266   2.459  11.048 -0.3438  2.5259  0.1017
  159MOL0     H21408   3.373   2.531  11.278  4.3061 -1.5868  1.8461
  159MOL0     H21409   3.322   2.377  11.330 -2.7216 -1.3825 -0.3550
  159MOL0     H21410   3.448   2.270  11.135 -0.8537  0.1494 -0.9690
  159MOL0     H21411   3.500   2.434  11.096 -0.6255  2.8872  1.7793
  159MOL0     H21412   3.614   2.463  11.294  1.2860  0.9328 -1.8112
  159MOL0     H21413   3.674   2.324  11.205 -0.1274  0.7488 -0.4741
  159MOL0     H21414   3.473   2.294  11.445  2.1602  1.0893  1.8920
  159MOL0     H21415   3.560   2.161  11.364  2.8336 -0.0365 -1.4154
  159MOL0     H21416   3.652   2.510  11.547 -0.7253 -0.5445  0.0108
  159MOL0     H21417   3.782   2.541  11.797  2.3837  1.1797  1.2328
  159MOL0     H21418   3.895   2.410  11.841  0.5525  1.4411  0.1393
  159MOL0     H21419   3.956   2.610  11.619  1.2535  0.4213  0.5380
  159MOL0     H21420   4.008   2.632  11.782 -0.7294 -1.1872  1.2673
  159MOL0     H21421   4.163   2.546  11.614 -0.3995 -0.7559 -1.1909
  159MOL0     H21422   4.072   2.396  11.600 -2.0007  0.1567  1.4778
  159MOL0     H21423   4.235   2.479  11.844 -1.5494 -1.2854  1.6831
  159MOL0     H21424   4.281   2.353  11.723  0.3018  2.3208 -2.3916
  159MOL0     H21425   4.014   2.120  11.995 -0.4470  1.5994  0.2646
  159MOL0     H21426   4.044   2.083  12.239 -0.8507 -1.6548 -3.5063
  159MOL0     H21427   4.314   2.180  12.663 -0.5579 -0.8338 -0.4594
  159MOL0     H21428   4.438   2.152  12.871  1.9600  2.8404  0.8227
  159MOL0     H21429   4.568   2.101  13.041 -2.6924 -1.4629 -2.3416
  159MOL0     H21430   4.568   1.950  12.980 -0.1874  1.8383 -2.8153
  159MOL0     H21431   4.755   2.064  13.174 -0.0990 -0.3222 -0.7285
  159MOL0     H21432   4.660   1.912  13.186 -0.6468 -1.6678 -1.6791
  159MOL0     H21433   4.790   1.778  13.067 -0.2732  0.3998 -0.6893
  159MOL0     H21434   4.870   1.902  12.972  0.0979  0.6622  0.1232
  159MOL0     H21435   4.915   1.885  13.265 -1.0072  1.2222 -0.2642
  159MOL0     H21436   5.014   1.970  13.157  0.5905 -0.1327 -0.9526
  159MOL0     H21437   5.103   1.779  13.071  1.9676 -1.7260  0.4037
  159MOL0     H21438   4.998   1.669  13.177 -1.6833  1.4222 -0.5022
  159MOL0     H21439   5.191   1.877  13.262 -2.7920  0.5125 -2.1435
  159MOL0     H21440   5.110   1.764  13.378  4.3474 -1.9590  2.7018
  159MOL0     H21441   5.311   1.684  13.166  0.8984  3.3744  0.9422
  159MOL0     H21442   5.203   1.566  13.247  1.1876 -0.9793  1.0998
  159MOL0     H21443   5.302   1.675  13.457 -1.7844  1.8756 -1.3808
  159MOL0     H21444   5.406   1.556  13.368 -0.0828 -0.9213 -0.8367
  159MOL0     H21445   4.795   2.098  12.665 -1.0475 -0.8862  0.6627
  159MOL0     H21446   4.665   2.128  12.441  1.2391 -1.6842 -0.6294
  159MOL0     H21447   4.413   2.295  12.198  2.6738 -3.3568 -1.1079
  159MOL0     H21448   4.365   2.365  11.981  0.7785  0.5092  1.9549
  159MOL0     H21449   3.172   2.502  10.734 -0.2279 -0.5228 -1.1902
  159MOL0     H21450   3.159   2.566  10.505  1.3671 -0.3898  2.3929
  159MOL0     H21451   2.751   2.701  10.260  0.6351 -2.0986 -0.0241
  159MOL0     H21452   2.631   2.698  10.075  0.6736  0.0274  4.2159
  159MOL0     H21453   2.557   2.749   9.874 -0.3716 -0.3794  1.3500
  159MOL0     H21454   2.559   2.574   9.909 -1.4230  1.4987  1.0242
  159MOL0     H21455   2.591   2.509   9.663  0.5269  1.3772 -1.2242
  159MOL0     H21456   2.560   2.675   9.622 -0.4275  1.2297  0.4808
  159MOL0     H21457   2.325   2.658   9.731 -0.4647 -0.0678  1.1938
  159MOL0     H21458   2.354   2.497   9.765  1.6592 -1.9216 -1.7254
  159MOL0     H21459   2.380   2.604   9.483  1.1199 -0.3090 -1.3625
  159MOL0     H21460   2.392   2.429   9.554  1.4454  0.8944 -2.4215
  159MOL0     H21461   1.973   2.519   9.534  0.0158 -1.1671  1.3308
  159MOL0     H21462   2.978   2.638   9.841 -1.1482  0.7072 -0.1161
  159MOL0     H21463   3.192   2.772  10.052  1.7306 -0.6087 -1.3504
  159MOL0     H21464   3.201   2.605  10.113  1.2224 -2.8840 -3.3421
  159MOL0     H21465   3.184   2.635   9.939 -1.5939  2.4545 -2.2202
  160MOL0     O21466   5.720   3.772   2.456  0.4696 -0.4286  0.7674
  160MOL0     C21467   5.720   3.724   2.566 -0.0008  0.0942  1.2660
  160MOL0     O21468   5.770   3.604   2.589  0.2323  0.5502 -0.7074
  160MOL0     C21469   5.795   3.518   2.491 -0.0985 -0.5312 -0.2206
  160MOL0     C21470   5.930   3.474   2.477 -0.2475 -0.3726  0.2608
  160MOL0     C21471   5.963   3.377   2.383  0.9702  0.0092 -0.5424
  160MOL0     C21472   5.861   3.309   2.312 -0.7837  0.2477  0.7811
  160MOL0     O21473   5.902   3.216   2.223  0.6000 -0.1392  0.3752
  160MOL0     C21474   5.837   3.227   2.099 -0.3339  0.3067 -0.2842
  160MOL0     C21475   5.930   3.149   2.005 -0.6195  0.6409  0.0494
  160MOL0     C21476   6.075   3.214   1.992  0.0091 -0.4191 -0.9154
  160MOL0     C21477   6.169   3.113   1.932 -0.5985  0.3516  0.3673
  160MOL0     C21478   6.320   3.134   1.945  0.3571  0.0891 -0.2083
  160MOL0     C21479   6.407   3.014   1.940 -0.5189 -0.3400 -0.6801
  160MOL0     C21480   6.556   3.050   1.941 -0.7561  0.3064  0.6852
  160MOL0     C21481   6.600   3.118   2.066 -0.5259  0.4239 -0.7139
  160MOL0     N21482   6.596   3.031   2.179  0.3888  0.2010  0.3239
  160MOL0     C21483   6.487   3.014   2.262  0.0612 -0.2783 -0.0593
  160MOL0     C21484   6.500   2.893   2.322  0.2342 -0.5854 -0.8982
  160MOL0     C21485   6.400   2.834   2.425  0.3777  0.8550  0.8668
  160MOL0     C21486   6.263   2.794   2.364 -0.6677 -0.6694 -0.5732
  160MOL0     C21487   6.272   2.672   2.272  0.4356 -0.4951 -0.9290
  160MOL0     C21488   6.129   2.652   2.204  0.0469  0.0137 -0.7862
  160MOL0     O21489   6.024   2.646   2.303  0.1961  0.4724 -0.3072
  160MOL0     C21490   5.925   2.550   2.292 -0.7448 -0.2780 -0.7239
  160MOL0     C21491   5.821   2.561   2.385 -0.0548 -0.4313 -0.3942
  160MOL0     C21492   5.711   2.473   2.380  0.0535  0.5403 -0.3619
  160MOL0     C21493   5.706   2.372   2.280  1.5855 -0.8624  0.2710
  160MOL0     C21494   5.590   2.292   2.262 -0.5992 -0.0370  0.4121
  160MOL0     O21495   5.578   2.212   2.150 -0.0685  0.3007  0.7375
  160MOL0     C21496   5.457   2.169   2.101 -0.0841 -0.9826 -0.1092
  160MOL0     C21497   5.454   2.055   2.021 -0.6671 -0.3594 -0.0071
  160MOL0     C21498   5.330   2.007   1.975 -0.8748 -0.4615  0.2660
  160MOL0     C21499   5.212   2.089   1.989 -0.1405  0.0421  1.0332
  160MOL0     O21500   5.105   2.030   1.932  0.9815  0.9713  0.7796
  160MOL0     C21501   4.976   2.091   1.946 -0.2972 -0.0289 -0.4495
  160MOL0     C21502   4.955   2.200   1.845  0.5034 -0.5199 -0.5194
  160MOL0     C21503   4.816   2.271   1.869 -0.7015  0.6046 -0.8426
  160MOL0     C21504   4.801   2.361   1.755 -0.3103  0.1683  0.0046
  160MOL0     C21505   4.678   2.462   1.766  0.1161 -0.1139  0.0021
  160MOL0     C21506   4.639   2.497   1.621 -0.5841 -0.1825 -1.0256
  160MOL0     C21507   4.541   2.612   1.620 -0.1447  0.6570  0.6864
  160MOL0     C21508   4.582   2.735   1.696 -0.3588 -0.4197  0.8093
  160MOL0    Cl21509   4.481   2.739   1.855 -0.4928  0.2941 -0.3443
  160MOL0     C21510   5.223   2.212   2.052 -0.2739  1.1364 -0.6715
  160MOL0     C21511   5.342   2.253   2.111  0.2002  0.4850 -0.0451
  160MOL0     O21512   5.501   2.310   2.344  0.1207  0.3728 -0.0617
  160MOL0     C21513   5.810   2.355   2.201  0.8573 -1.0349  0.5483
  160MOL0     C21514   5.920   2.439   2.200 -0.1468  0.6490 -0.4159
  160MOL0     N21515   6.605   2.830   2.277  0.4966  0.5053 -1.1573
  160MOL0     N21516   6.655   2.909   2.189  0.6672 -0.3597 -0.2904
  160MOL0     C21517   5.729   3.352   2.329 -0.0116  0.0318  0.4208
  160MOL0     C21518   5.700   3.453   2.423 -0.5912  0.0156 -0.3247
  160MOL0     C21519   5.662   3.801   2.676  0.3576 -1.2104  0.6489
  160MOL0     C21520   5.686   3.775   2.811 -0.6313  0.3301 -0.7257
  160MOL0     C21521   5.624   3.839   2.920 -0.1980  0.7245 -0.1354
  160MOL0     C21522   5.524   3.930   2.901  0.0020  0.4071 -0.6700
  160MOL0     O21523   5.471   3.966   3.015  0.2597  0.2215 -0.1845
  160MOL0     C21524   5.521   4.089   3.075  0.8821  0.5204 -0.5573
  160MOL0     C21525   5.439   4.134   3.204 -1.7302 -0.3487  0.6135
  160MOL0     C21526   5.436   4.289   3.222  0.1174  0.3273  0.0979
  160MOL0     C21527   5.430   4.338   3.364 -0.2633  0.5672 -0.9059
  160MOL0     C21528   5.289   4.329   3.408  0.7060 -0.7647 -0.2423
  160MOL0     C21529   5.171   4.321   3.434  0.4856 -0.4396 -0.1954
  160MOL0     C21530   5.479   3.963   2.777  0.3406  0.3237  0.5018
  160MOL0     C21531   5.548   3.899   2.660 -0.9678  0.1671  0.5062
  160MOL0     C21532   5.489   3.926   2.514  0.3351 -0.5004  0.8287
  160MOL0     H21533   6.014   3.516   2.532  0.8079 -1.7259 -0.2581
  160MOL0     H21534   6.065   3.341   2.367  1.1809  1.3403 -2.5616
  160MOL0     H21535   5.740   3.175   2.103 -0.1279  0.0142  2.8751
  160MOL0     H21536   5.827   3.333   2.075  1.2123  0.5755  0.1806
  160MOL0     H21537   5.875   3.138   1.911  0.5888 -0.4422 -0.5707
  160MOL0     H21538   5.939   3.050   2.051  1.8789  0.7525 -0.0869
  160MOL0     H21539   6.111   3.247   2.089 -3.2787  3.1490 -0.6641
  160MOL0     H21540   6.065   3.300   1.925 -2.3077  1.0180  1.0881
  160MOL0     H21541   6.156   3.024   1.994 -0.8625 -0.0074 -0.1911
  160MOL0     H21542   6.134   3.083   1.833 -0.8332 -1.2939  0.9146
  160MOL0     H21543   6.343   3.197   1.859 -0.3371  0.1996 -0.3247
  160MOL0     H21544   6.337   3.184   2.041 -0.7714 -0.0247  0.0732
  160MOL0     H21545   6.387   2.961   2.033 -2.3651  1.2230 -0.1073
  160MOL0     H21546   6.380   2.949   1.856  0.3284 -0.1780 -1.0885
  160MOL0     H21547   6.564   3.137   1.875 -0.6847 -0.4734 -0.3543
  160MOL0     H21548   6.620   2.968   1.908  1.3536  0.0488  4.7532
  160MOL0     H21549   6.701   3.154   2.046 -0.9951  1.5189 -1.1341
  160MOL0     H21550   6.531   3.200   2.083 -1.8107 -0.5654 -1.0064
  160MOL0     H21551   6.410   3.090   2.273  0.1180  0.1505 -2.1586
  160MOL0     H21552   6.450   2.755   2.482  0.3363  0.3659  0.2373
  160MOL0     H21553   6.387   2.919   2.492 -0.8824  1.2643  0.1368
  160MOL0     H21554   6.201   2.771   2.451  1.1376  2.1235  1.6612
  160MOL0     H21555   6.206   2.872   2.313 -1.7443 -1.1220 -0.0880
  160MOL0     H21556   6.301   2.588   2.336 -1.7826 -0.9604 -0.4431
  160MOL0     H21557   6.349   2.680   2.196  2.7181  0.2625  1.3281
  160MOL0     H21558   6.132   2.565   2.137 -0.5190  0.8896 -1.9719
  160MOL0     H21559   6.103   2.739   2.143 -0.7205 -0.0044 -0.4978
  160MOL0     H21560   5.818   2.637   2.463 -2.5222  1.4386 -2.1623
  160MOL0     H21561   5.625   2.492   2.443  0.3647 -2.7216  1.2733
  160MOL0     H21562   5.550   2.005   2.007  0.3734  1.2488  1.0143
  160MOL0     H21563   5.316   1.911   1.927 -0.1950 -1.6601  2.3053
  160MOL0     H21564   4.913   2.003   1.931 -0.7134  0.3419 -0.9191
  160MOL0     H21565   4.964   2.128   2.048 -2.6518 -0.4956 -0.5073
  160MOL0     H21566   5.026   2.283   1.853 -1.1225  0.7871  1.7834
  160MOL0     H21567   4.976   2.174   1.741  1.6602  2.9440 -1.2886
  160MOL0     H21568   4.728   2.208   1.861 -0.4454 -0.0292  0.9005
  160MOL0     H21569   4.812   2.329   1.962  1.3315  0.4545 -0.6111
  160MOL0     H21570   4.788   2.311   1.658 -3.1041 -2.0141  1.3557
  160MOL0     H21571   4.886   2.429   1.748 -0.3384  0.0253 -3.3660
  160MOL0     H21572   4.689   2.545   1.837  2.3599 -0.2193 -0.1556
  160MOL0     H21573   4.590   2.411   1.806  0.8580 -1.0926  0.4117
  160MOL0     H21574   4.729   2.535   1.571  1.3740 -1.2884  1.4254
  160MOL0     H21575   4.599   2.413   1.565 -1.8777  0.9726 -1.9064
  160MOL0     H21576   4.443   2.578   1.653 -1.5366  3.0907 -0.6441
  160MOL0     H21577   4.522   2.636   1.515 -1.1838 -1.2708  0.3860
  160MOL0     H21578   4.688   2.726   1.718 -0.2259  1.2875  1.0400
  160MOL0     H21579   4.565   2.827   1.639  1.0351 -1.5494 -1.5790
  160MOL0     H21580   5.141   2.283   2.049 -0.8351  0.6677  1.6643
  160MOL0     H21581   5.352   2.353   2.150  1.8643  0.9740 -1.5708
  160MOL0     H21582   5.798   2.298   2.110  0.0703  1.1590 -0.7853
  160MOL0     H21583   6.007   2.418   2.138 -0.7730 -3.3469 -0.1758
  160MOL0     H21584   5.645   3.307   2.276  0.3504 -0.9607  0.6701
  160MOL0     H21585   5.604   3.502   2.434  0.1183  2.1787 -2.7137
  160MOL0     H21586   5.759   3.697   2.830 -0.0501  0.2961 -2.8488
  160MOL0     H21587   5.651   3.810   3.022 -2.4034 -1.6302 -0.1221
  160MOL0     H21588   5.509   4.161   2.994 -2.0596 -0.5201 -1.1736
  160MOL0     H21589   5.627   4.075   3.100  1.5537  0.4438 -3.2107
  160MOL0     H21590   5.480   4.083   3.292 -1.4108  1.9360  1.8766
  160MOL0     H21591   5.341   4.089   3.191 -2.2690  0.9080  0.2092
  160MOL0     H21592   5.348   4.329   3.171 -0.4698 -1.6560 -0.5538
  160MOL0     H21593   5.526   4.334   3.180  0.9858 -1.4449 -0.0465
  160MOL0     H21594   5.498   4.285   3.432 -0.7502  1.9345  0.7347
  160MOL0     H21595   5.479   4.435   3.350  1.5060  0.2573  2.0806
  160MOL0     H21596   5.068   4.307   3.463  1.3211 -2.3723  2.1589
  160MOL0     H21597   5.404   4.042   2.769  0.6632  0.6504  0.6631
  160MOL0     H21598   5.407   3.997   2.503  3.5912  3.3298 -1.2180
  160MOL0     H21599   5.566   3.955   2.442 -1.3181  1.8937 -0.0781
  160MOL0     H21600   5.451   3.830   2.478  0.4064  0.8776 -3.6058
  161MOL0     O21601   7.842   5.294   9.098 -0.8132  0.1947  0.2768
  161MOL0     C21602   7.891   5.405   9.123  0.1485 -0.1283 -0.5219
  161MOL0     O21603   7.850   5.521   9.065 -0.7721  0.5436 -0.2337
  161MOL0     C21604   7.734   5.511   8.996 -0.1950  0.4039  0.2315
  161MOL0     C21605   7.610   5.492   9.054 -0.2637  0.5930 -0.7322
  161MOL0     C21606   7.493   5.510   8.976 -0.1693  0.4717 -0.3897
  161MOL0     C21607   7.508   5.553   8.843 -0.0036  0.2010  0.5790
  161MOL0     O21608   7.401   5.558   8.761 -1.0246  0.8478 -0.2080
  161MOL0     C21609   7.281   5.473   8.790 -0.0055 -0.4026  0.5058
  161MOL0     C21610   7.204   5.455   8.659 -0.9309 -0.5718 -0.4630
  161MOL0     C21611   7.278   5.374   8.560  0.6360  0.9646  0.4762
  161MOL0     C21612   7.180   5.358   8.447 -0.6786 -0.0094 -0.4730
  161MOL0     C21613   7.245   5.266   8.341 -1.5700 -0.0828  0.3749
  161MOL0     C21614   7.156   5.232   8.223 -0.1337  0.5965  0.1735
  161MOL0     C21615   7.206   5.288   8.087  0.5217 -0.1276 -0.3053
  161MOL0     C21616   7.345   5.230   8.051  0.6565  0.8964 -0.1945
  161MOL0     N21617   7.338   5.177   7.924 -0.0117  0.0543  0.4544
  161MOL0     C21618   7.406   5.221   7.812  0.1060  0.3071  0.8082
  161MOL0     C21619   7.429   5.111   7.731  0.9946 -0.3833  0.1792
  161MOL0     C21620   7.497   5.120   7.598 -0.1753  0.3712 -0.8244
  161MOL0     C21621   7.633   5.050   7.606  0.4038  0.1067  0.2527
  161MOL0     C21622   7.708   5.033   7.476  0.8190 -0.1892 -0.0298
  161MOL0     C21623   7.660   4.895   7.409  0.3341 -1.1264  0.1812
  161MOL0     O21624   7.517   4.870   7.394  0.5663 -0.1845  0.4434
  161MOL0     C21625   7.462   4.785   7.300  0.0950 -0.7936  0.0971
  161MOL0     C21626   7.511   4.757   7.177  0.6743 -0.8118  0.2753
  161MOL0     C21627   7.454   4.655   7.090  0.0207 -0.1371 -0.0261
  161MOL0     C21628   7.343   4.578   7.132 -0.0035  0.6826  0.0406
  161MOL0     C21629   7.281   4.461   7.059  0.2016 -0.0634 -0.1154
  161MOL0     O21630   7.161   4.404   7.114  0.4493  0.1202 -0.1742
  161MOL0     C21631   7.103   4.301   7.037 -0.5533 -0.2335 -0.8964
  161MOL0     C21632   6.989   4.317   6.965  0.2726 -0.4280 -0.5117
  161MOL0     C21633   6.926   4.215   6.899 -0.7065  1.0627 -0.1119
  161MOL0     C21634   6.992   4.088   6.885 -0.2578  0.6887 -0.5853
  161MOL0     O21635   6.949   3.976   6.814 -0.3822  0.2766  0.0994
  161MOL0     C21636   6.894   3.998   6.689  0.5464  0.1332 -0.1579
  161MOL0     C21637   6.898   3.876   6.608  1.4864 -0.4463  0.8136
  161MOL0     C21638   6.808   3.904   6.483 -1.6139 -0.5253 -0.0522
  161MOL0     C21639   6.826   3.794   6.379 -0.0236  1.0560 -1.0503
  161MOL0     C21640   6.774   3.657   6.434 -0.2711 -0.4425 -1.0566
  161MOL0     C21641   6.631   3.662   6.493 -0.4440  0.6248  0.2554
  161MOL0     C21642   6.604   3.510   6.520 -0.4605  0.8424 -0.7299
  161MOL0     C21643   6.474   3.490   6.601  0.5586 -0.4519 -0.1615
  161MOL0    Cl21644   6.454   3.322   6.656  0.1856  0.1997  0.0788
  161MOL0     C21645   7.114   4.062   6.961  0.4981 -0.2961  0.2241
  161MOL0     C21646   7.166   4.169   7.032  0.1414  0.1305 -0.0728
  161MOL0     O21647   7.332   4.430   6.953 -0.0362  0.2250  0.4144
  161MOL0     C21648   7.280   4.619   7.255 -0.3092 -0.6207  0.2976
  161MOL0     C21649   7.342   4.726   7.328  0.7258  0.2741 -1.2659
  161MOL0     N21650   7.356   5.007   7.787 -0.1114 -0.4095 -0.2865
  161MOL0     N21651   7.306   5.044   7.902  0.0718  0.4849  0.0751
  161MOL0     C21652   7.632   5.564   8.791 -0.5350  0.2741  0.4098
  161MOL0     C21653   7.743   5.555   8.869 -0.7392  1.1138  0.0870
  161MOL0     C21654   8.015   5.399   9.214 -0.1616  0.0994 -0.0455
  161MOL0     C21655   8.098   5.505   9.225  0.3536 -1.0235  0.4860
  161MOL0     C21656   8.207   5.510   9.309 -0.2115  0.6290  0.2569
  161MOL0     C21657   8.245   5.403   9.394 -0.4453  0.7518  0.7216
  161MOL0     O21658   8.360   5.419   9.473  0.2810  0.0806 -0.0366
  161MOL0     C21659   8.400   5.314   9.557 -0.1717 -0.4252 -0.1814
  161MOL0     C21660   8.326   5.312   9.691  0.4011  0.3195 -0.7661
  161MOL0     C21661   8.375   5.195   9.784  0.5632 -0.7109 -0.4949
  161MOL0     C21662   8.297   5.182   9.919  1.0004  0.5283  0.7138
  161MOL0     C21663   8.242   5.300   9.978  0.7550 -0.2883 -1.4355
  161MOL0     C21664   8.176   5.387  10.026 -0.1092 -0.4359  0.3208
  161MOL0     C21665   8.159   5.295   9.385 -0.2843  0.4768 -0.2447
  161MOL0     C21666   8.048   5.294   9.300  0.2129  0.1837 -0.1612
  161MOL0     C21667   7.964   5.168   9.316  0.8981  0.1714  0.2558
  161MOL0     H21668   7.593   5.471   9.159  0.0531  1.8940 -0.4011
  161MOL0     H21669   7.391   5.500   9.011 -0.7298  1.7634 -1.5568
  161MOL0     H21670   7.287   5.374   8.836  0.9372  0.0830  1.4771
  161MOL0     H21671   7.228   5.525   8.871 -0.2497 -0.5680  0.4512
  161MOL0     H21672   7.193   5.560   8.631 -0.6765 -0.8058 -1.4902
  161MOL0     H21673   7.103   5.416   8.678 -0.5177 -0.3751  2.8065
  161MOL0     H21674   7.312   5.275   8.593  0.4960  0.4644 -0.8282
  161MOL0     H21675   7.366   5.428   8.523  1.6366 -1.4692 -0.9531
  161MOL0     H21676   7.082   5.329   8.486 -1.1981  0.8321 -1.1108
  161MOL0     H21677   7.161   5.447   8.386 -3.9784 -0.8906 -0.9280
  161MOL0     H21678   7.334   5.312   8.296 -0.3608 -0.8775  1.8757
  161MOL0     H21679   7.277   5.173   8.388  1.7304  1.4465  1.4506
  161MOL0     H21680   7.143   5.123   8.218  0.1680  0.5577  0.2134
  161MOL0     H21681   7.059   5.272   8.252 -2.1138 -4.0529  0.8153
  161MOL0     H21682   7.218   5.396   8.099  0.0781 -0.2041  0.9551
  161MOL0     H21683   7.133   5.279   8.006 -0.1956  2.0004  0.0582
  161MOL0     H21684   7.428   5.302   8.051  0.3313  1.2772  0.2112
  161MOL0     H21685   7.382   5.150   8.116  1.0066  0.9320 -0.3459
  161MOL0     H21686   7.451   5.318   7.796  1.5362 -0.0760  2.1790
  161MOL0     H21687   7.432   5.078   7.520  2.9423 -0.6916 -3.0403
  161MOL0     H21688   7.511   5.226   7.572  1.6943  1.3500  3.3436
  161MOL0     H21689   7.698   5.110   7.670  1.4533 -2.2526  1.5534
  161MOL0     H21690   7.621   4.953   7.655  0.5844  0.4352  0.9633
  161MOL0     H21691   7.816   5.036   7.494  0.7080 -1.1279  0.9036
  161MOL0     H21692   7.664   5.104   7.406 -3.4661 -1.7261  0.8146
  161MOL0     H21693   7.707   4.816   7.469 -0.2593  0.7137  3.2235
  161MOL0     H21694   7.714   4.884   7.314  1.2531 -1.3687  0.7127
  161MOL0     H21695   7.598   4.814   7.146 -0.1091  0.8133  0.9509
  161MOL0     H21696   7.505   4.630   6.997 -0.2535  0.1153 -0.2479
  161MOL0     H21697   6.943   4.411   6.994  0.3651 -1.3380  2.9110
  161MOL0     H21698   6.827   4.237   6.861 -2.4269 -1.1897  2.6382
  161MOL0     H21699   6.790   4.025   6.705  0.7626  0.0447  1.5130
  161MOL0     H21700   6.947   4.080   6.639  0.9197  0.5466  0.8996
  161MOL0     H21701   7.000   3.850   6.579  2.0616  1.0972  1.3505
  161MOL0     H21702   6.852   3.799   6.672  1.7155 -0.0169  1.4991
  161MOL0     H21703   6.702   3.911   6.510 -1.5624 -0.1332  0.0567
  161MOL0     H21704   6.845   3.999   6.444  0.7039 -0.2697  2.4423
  161MOL0     H21705   6.928   3.774   6.347 -0.2129  1.6914 -2.1281
  161MOL0     H21706   6.775   3.823   6.286 -0.3748 -4.6883 -3.0553
  161MOL0     H21707   6.858   3.629   6.499  0.2913  1.3804 -0.9442
  161MOL0     H21708   6.770   3.590   6.348 -0.8855 -2.6381  0.5979
  161MOL0     H21709   6.622   3.717   6.587 -1.2936  1.9854 -0.5926
  161MOL0     H21710   6.557   3.696   6.420 -0.4712  1.0312  0.4717
  161MOL0     H21711   6.676   3.480   6.596 -1.1122 -2.6919 -1.3275
  161MOL0     H21712   6.621   3.440   6.437 -2.8204 -1.0047  0.2471
  161MOL0     H21713   6.482   3.551   6.691 -1.6008  0.0685 -0.2649
  161MOL0     H21714   6.380   3.526   6.557 -1.7616 -0.8861  3.9334
  161MOL0     H21715   7.156   3.962   6.960  0.0286 -0.5663  2.0537
  161MOL0     H21716   7.248   4.151   7.100  0.3671  0.6291 -0.2098
  161MOL0     H21717   7.192   4.563   7.286 -0.5648  0.1112  0.9326
  161MOL0     H21718   7.298   4.759   7.421 -3.1884 -1.6923 -2.2056
  161MOL0     H21719   7.622   5.602   8.689  1.0212 -2.2553 -0.7839
  161MOL0     H21720   7.845   5.567   8.833 -0.5334 -0.7549 -0.0526
  161MOL0     H21721   8.085   5.584   9.152  1.9614 -1.4661 -0.3221
  161MOL0     H21722   8.277   5.592   9.297  1.8668 -0.8505  1.5019
  161MOL0     H21723   8.507   5.336   9.562 -0.4397  0.6271  2.9327
  161MOL0     H21724   8.384   5.216   9.511  2.8483 -2.9149  3.4508
  161MOL0     H21725   8.219   5.292   9.679  0.2007  1.1972 -0.5045
  161MOL0     H21726   8.348   5.404   9.745  0.2458  1.1837 -2.1254
  161MOL0     H21727   8.479   5.215   9.812  0.1741 -2.0441  2.2475
  161MOL0     H21728   8.390   5.099   9.733  0.5761 -0.6083 -0.6851
  161MOL0     H21729   8.211   5.115   9.905 -0.3079  1.9550  1.5877
  161MOL0     H21730   8.357   5.141  10.002  0.8842 -0.0914  0.5006
  161MOL0     H21731   8.113   5.459  10.075 -2.7571 -1.7689 -0.9337
  161MOL0     H21732   8.173   5.212   9.454 -0.3031 -0.5883 -1.4883
  161MOL0     H21733   7.969   5.117   9.219  3.1958  1.5070 -0.4028
  161MOL0     H21734   7.988   5.100   9.399  1.0377 -1.7415 -1.2637
  161MOL0     H21735   7.864   5.201   9.346  0.3065 -0.5561 -0.8566
  162MOL0     O21736   5.150  10.784   0.818 -0.3843  0.5584  0.7424
  162MOL0     C21737   5.047  10.843   0.792 -0.0508 -0.3985 -0.0978
  162MOL0     O21738   4.975  10.837   0.672  0.2991  0.8557  0.1121
  162MOL0     C21739   5.000  10.732   0.594  0.1548 -0.2704  0.6401
  162MOL0     C21740   5.069  10.753   0.480 -0.8441 -0.7040  0.4139
  162MOL0     C21741   5.114  10.645   0.403 -0.4623  0.8118  0.0741
  162MOL0     C21742   5.092  10.506   0.437 -0.2312 -0.5402 -0.5370
  162MOL0     O21743   5.148  10.408   0.363  0.0990  0.4737 -0.3056
  162MOL0     C21744   5.061  10.298   0.320 -1.3122 -0.2763 -0.5727
  162MOL0     C21745   5.043  10.181   0.430  0.4863  0.3327 -0.4980
  162MOL0     C21746   5.178  10.136   0.509 -0.1208  0.3528  0.0977
  162MOL0     C21747   5.209  10.209   0.636 -0.3108 -0.7669 -1.2173
  162MOL0     C21748   5.314  10.129   0.717 -0.1930 -0.6142 -0.2971
  162MOL0     C21749   5.459  10.189   0.697  0.2999  1.1879 -0.4953
  162MOL0     C21750   5.553  10.072   0.751  0.8831 -0.0472  0.0832
  162MOL0     C21751   5.693  10.115   0.786  0.0453  0.4799  0.5393
  162MOL0     N21752   5.800  10.073   0.697 -0.2628 -1.2640  0.1272
  162MOL0     C21753   5.849  10.141   0.589 -0.1990 -0.2107  0.6853
  162MOL0     C21754   5.903  10.044   0.509 -0.4252  0.1101 -0.0189
  162MOL0     C21755   5.965  10.071   0.373 -0.3615  0.1693  0.5024
  162MOL0     C21756   5.885  10.181   0.295 -0.5758 -0.1869 -0.7511
  162MOL0     C21757   5.945  10.221   0.145  0.2733  0.4187  0.3109
  162MOL0     C21758   6.070  10.304   0.160 -0.3983  0.2187 -0.4141
  162MOL0     O21759   6.187  10.216   0.165  0.1185 -0.5897 -0.1328
  162MOL0     C21760   6.311  10.278   0.158  0.0292  0.2441 -0.2421
  162MOL0     C21761   6.352  10.402   0.107  0.5160  0.5263  0.6285
  162MOL0     C21762   6.488  10.448   0.121 -0.1955  0.3397 -0.0591
  162MOL0     C21763   6.589  10.371   0.176  1.2384 -0.0410  0.3858
  162MOL0     C21764   6.724  10.421   0.178 -0.6019 -0.4388 -0.2850
  162MOL0     O21765   6.751  10.520   0.094  0.2980 -0.8861  0.4167
  162MOL0     C21766   6.882  10.564   0.069  0.7977 -0.9360 -0.1258
  162MOL0     C21767   6.909  10.699   0.033  0.0723  0.1949 -0.2215
  162MOL0     C21768   7.043  10.729  -0.009  0.3345 -0.4717  0.8161
  162MOL0     C21769   7.148  10.634  -0.011 -0.8361 -0.2747  1.6378
  162MOL0     O21770   7.275  10.669  -0.045  0.9135 -0.4183 -0.9651
  162MOL0     C21771   7.364  10.653   0.056  0.5190  0.2066  0.0501
  162MOL0     C21772   7.496  10.704  -0.012 -0.2276  0.2704 -0.2675
  162MOL0     C21773   7.516  10.857   0.016 -0.6128 -1.1253  0.3263
  162MOL0     C21774   7.626  10.924  -0.064 -0.1056  0.1834 -0.0906
  162MOL0     C21775   7.605  11.074  -0.086  0.1846 -0.5000 -0.4951
  162MOL0     C21776   7.726  11.146  -0.139  0.3343 -0.3893 -0.1111
  162MOL0     C21777   7.715  11.297  -0.107 -0.8420 -0.5027  0.0704
  162MOL0     C21778   7.610  11.369  -0.199  0.3722  0.6150  0.2428
  162MOL0    Cl21779   7.672  11.367  -0.360 -0.4699  0.3309  0.4795
  162MOL0     C21780   7.114  10.513   0.024  0.2930 -0.5255  0.3070
  162MOL0     C21781   6.987  10.470   0.051  1.3006 -0.5679  1.0254
  162MOL0     O21782   6.807  10.353   0.243  0.0523 -0.1162  0.4559
  162MOL0     C21783   6.544  10.251   0.236 -0.1807  0.2871  0.3478
  162MOL0     C21784   6.412  10.198   0.224 -0.3546  0.0175  0.0101
  162MOL0     N21785   5.887   9.920   0.571  0.5629  0.3047 -0.6390
  162MOL0     N21786   5.832   9.947   0.692 -0.9946 -0.2314  0.4114
  162MOL0     C21787   5.019  10.492   0.555 -0.4252  0.8881  1.4149
  162MOL0     C21788   4.982  10.603   0.637 -1.1773  0.0440 -0.4634
  162MOL0     C21789   4.976  10.920   0.906 -0.1201 -1.4690  1.1058
  162MOL0     C21790   4.950  11.050   0.874  0.6908 -0.0510 -0.0531
  162MOL0     C21791   4.907  11.145   0.967  0.3994  0.4351  0.5342
  162MOL0     C21792   4.911  11.110   1.101 -0.2339  0.0691 -0.3082
  162MOL0     O21793   4.869  11.214   1.184 -0.5706 -0.2173 -0.8189
  162MOL0     C21794   4.851  11.185   1.320 -0.4957  0.0078 -0.1788
  162MOL0     C21795   4.768  11.301   1.396  0.7067 -0.0736 -0.6161
  162MOL0     C21796   4.857  11.427   1.399  0.8666  0.1670  0.9919
  162MOL0     C21797   4.777  11.562   1.395 -0.4495  0.8632 -0.4959
  162MOL0     C21798   4.874  11.672   1.400  0.2962  0.6191 -0.4283
  162MOL0     C21799   4.961  11.756   1.401 -0.2004  0.7487  0.7093
  162MOL0     C21800   4.940  10.984   1.143 -0.1187  0.3620 -0.2181
  162MOL0     C21801   4.976  10.887   1.047 -0.8528 -0.3944  0.6905
  162MOL0     C21802   5.028  10.746   1.095 -0.3281  0.1806  0.5505
  162MOL0     H21803   5.077  10.856   0.445  0.0838 -0.1771  2.0521
  162MOL0     H21804   5.162  10.671   0.309 -0.5204 -0.8133 -0.4391
  162MOL0     H21805   4.963  10.335   0.288 -0.7520  1.4202 -0.4109
  162MOL0     H21806   5.098  10.252   0.227 -1.5246 -0.4003 -0.5961
  162MOL0     H21807   5.002  10.097   0.373 -2.4017  1.6595 -0.5795
  162MOL0     H21808   4.972  10.211   0.508  2.9225  2.9311  0.8813
  162MOL0     H21809   5.260  10.132   0.437 -1.5076  0.1574 -1.5272
  162MOL0     H21810   5.162  10.032   0.538 -1.0031 -0.0752 -1.7636
  162MOL0     H21811   5.248  10.307   0.609 -1.8789 -0.1674 -1.4104
  162MOL0     H21812   5.122  10.215   0.701  1.5527 -0.4655  1.3718
  162MOL0     H21813   5.293  10.117   0.824  0.2195 -3.4495 -0.4642
  162MOL0     H21814   5.302  10.025   0.685  2.7392 -1.2592  0.3658
  162MOL0     H21815   5.466  10.201   0.588 -4.4531  3.2828 -0.8204
  162MOL0     H21816   5.475  10.277   0.759  1.0675 -0.6022  2.0195
  162MOL0     H21817   5.554   9.989   0.679 -2.9736  0.1307 -0.4397
  162MOL0     H21818   5.513  10.031   0.844  0.9832  1.0180  0.6008
  162MOL0     H21819   5.702  10.224   0.784 -0.5287  0.5222 -0.4869
  162MOL0     H21820   5.718  10.079   0.887  1.1958 -0.1226  0.0475
  162MOL0     H21821   5.840  10.244   0.558  2.0950 -0.5397 -1.3077
  162MOL0     H21822   6.071  10.096   0.386 -0.5587  0.4064  1.7879
  162MOL0     H21823   5.960   9.975   0.322  1.5267 -0.8359  2.0732
  162MOL0     H21824   5.786  10.133   0.296 -0.2262 -1.0370 -2.6422
  162MOL0     H21825   5.878  10.273   0.353 -2.0966 -0.5522 -0.3035
  162MOL0     H21826   5.861  10.269   0.094 -2.0559 -4.2334 -0.8042
  162MOL0     H21827   5.965  10.126   0.094  0.7981 -0.0644  1.3907
  162MOL0     H21828   6.072  10.369   0.248  2.9191 -1.1115  0.6494
  162MOL0     H21829   6.086  10.369   0.073  1.8277 -2.7712 -2.4310
  162MOL0     H21830   6.284  10.457   0.043  2.7916  1.8431 -0.7829
  162MOL0     H21831   6.505  10.549   0.085  0.3227 -0.5762 -2.6046
  162MOL0     H21832   6.826  10.769   0.028 -0.2870 -0.1134  0.9901
  162MOL0     H21833   7.058  10.830  -0.045  2.2048 -0.6142  1.1209
  162MOL0     H21834   7.349  10.705   0.151 -3.5486 -0.2561 -0.1623
  162MOL0     H21835   7.379  10.546   0.077 -2.5103 -0.1234  1.0450
  162MOL0     H21836   7.584  10.654   0.030 -0.0416 -0.5809 -1.6179
  162MOL0     H21837   7.495  10.673  -0.117 -0.9100 -1.8727  0.3146
  162MOL0     H21838   7.417  10.898  -0.005 -0.7950 -2.4587 -1.6641
  162MOL0     H21839   7.541  10.867   0.123 -0.4687  1.8684  0.0963
  162MOL0     H21840   7.627  10.880  -0.164 -1.3769 -0.0002 -0.0426
  162MOL0     H21841   7.718  10.910  -0.007 -0.8070 -1.4140  0.7001
  162MOL0     H21842   7.581  11.130   0.005  1.0138 -0.0275 -0.5551
  162MOL0     H21843   7.536  11.087  -0.170  1.6981  0.0781 -1.6982
  162MOL0     H21844   7.815  11.124  -0.080 -0.6204  2.0020  2.4026
  162MOL0     H21845   7.743  11.120  -0.244  4.0164 -0.7676  0.4579
  162MOL0     H21846   7.810  11.347  -0.131 -0.7790 -0.6374  0.0406
  162MOL0     H21847   7.698  11.318  -0.001  1.2827 -0.6710  0.5082
  162MOL0     H21848   7.515  11.317  -0.207  1.0744 -0.4532 -1.8873
  162MOL0     H21849   7.582  11.463  -0.150  0.0794 -0.6914  2.7417
  162MOL0     H21850   7.187  10.433   0.016  0.1705 -0.6673  0.5682
  162MOL0     H21851   6.968  10.365   0.068 -1.4824 -0.8599 -2.8236
  162MOL0     H21852   6.616  10.188   0.287 -0.1631 -0.9535 -1.1588
  162MOL0     H21853   6.383  10.104   0.270 -3.5938  0.7310 -0.3242
  162MOL0     H21854   4.986  10.395   0.592 -1.8656  1.4818  1.7366
  162MOL0     H21855   4.946  10.586   0.738  0.0945  1.1599  0.1911
  162MOL0     H21856   4.966  11.088   0.774 -1.0007 -0.0587 -0.3692
  162MOL0     H21857   4.886  11.240   0.919  0.4996 -1.2061 -3.1056
  162MOL0     H21858   4.950  11.179   1.367  0.9534 -1.0036 -3.0915
  162MOL0     H21859   4.793  11.093   1.335 -1.0243  0.2491 -0.7301
  162MOL0     H21860   4.742  11.259   1.494  0.0739  2.3209  0.3318
  162MOL0     H21861   4.680  11.312   1.333  0.8753 -0.0308 -0.8428
  162MOL0     H21862   4.924  11.440   1.314 -0.8414  3.3555 -0.0168
  162MOL0     H21863   4.921  11.423   1.488 -0.1247  1.9373  1.8442
  162MOL0     H21864   4.709  11.569   1.310 -0.9279  1.8963 -0.0406
  162MOL0     H21865   4.714  11.567   1.485  0.5223 -0.9605  0.3642
  162MOL0     H21866   5.043  11.825   1.405  1.9900 -1.6252 -0.4797
  162MOL0     H21867   4.932  10.960   1.249  1.3418  2.4062  0.4342
  162MOL0     H21868   5.138  10.739   1.095 -0.0548  2.8422 -1.8233
  162MOL0     H21869   4.986  10.722   1.193 -1.4513 -2.6963 -0.5314
  162MOL0     H21870   4.989  10.670   1.027  0.4021 -0.1639  0.5018
  163MOL0     O21871   7.694   1.402   4.311  0.0011  0.0976  0.2312
  163MOL0     C21872   7.621   1.496   4.278 -0.6596 -0.0649 -0.3354
  163MOL0     O21873   7.651   1.582   4.179 -0.5398  0.1508  0.1042
  163MOL0     C21874   7.782   1.600   4.130  0.1794 -0.1772  0.7561
  163MOL0     C21875   7.875   1.651   4.225 -0.8291  0.3466  0.4505
  163MOL0     C21876   8.006   1.683   4.180 -0.8500  0.3184  1.1805
  163MOL0     C21877   8.045   1.674   4.038 -0.7489  0.0915 -0.5307
  163MOL0     O21878   8.186   1.690   4.011  0.1850  0.0399  0.3723
  163MOL0     C21879   8.231   1.748   3.885  0.4386  0.0496  0.1845
  163MOL0     C21880   8.379   1.717   3.862  0.0850  0.4065  0.7366
  163MOL0     C21881   8.474   1.785   3.963 -0.0974 -0.1052  0.4094
  163MOL0     C21882   8.617   1.776   3.909 -0.9542 -0.0811  0.8621
  163MOL0     C21883   8.714   1.845   4.005  0.3507  0.2677  0.1170
  163MOL0     C21884   8.869   1.830   3.980  0.2808 -0.0013 -1.0889
  163MOL0     C21885   8.951   1.918   4.070  0.7386  0.5248 -0.9560
  163MOL0     C21886   9.095   1.900   4.033 -0.7564 -0.4884 -0.8550
  163MOL0     N21887   9.153   1.762   4.045 -0.2054 -0.1435  0.4261
  163MOL0     C21888   9.194   1.704   4.171  0.5183 -0.3301  0.1100
  163MOL0     C21889   9.268   1.596   4.130  0.5579 -1.7834 -0.7888
  163MOL0     C21890   9.339   1.514   4.229 -1.0885  1.4312  0.1269
  163MOL0     C21891   9.261   1.398   4.305 -0.7564 -0.8276 -0.2134
  163MOL0     C21892   9.210   1.289   4.214 -0.0215  0.8295  0.3398
  163MOL0     C21893   9.322   1.211   4.138 -0.2673 -0.2734  0.3672
  163MOL0     O21894   9.433   1.191   4.221  0.4534  0.2712  0.0522
  163MOL0     C21895   9.546   1.143   4.160 -0.4013  0.0236  1.3865
  163MOL0     C21896   9.562   1.004   4.129 -0.0279  0.2405  0.8988
  163MOL0     C21897   9.663   0.943   4.071 -0.3113  0.1569 -0.0771
  163MOL0     C21898   9.775   1.027   4.060 -0.1259  0.2149  0.7872
  163MOL0     C21899   9.906   0.967   4.001  0.9226  0.2458  0.8381
  163MOL0     O21900  10.012   1.056   4.008 -0.1081  0.8099  0.0801
  163MOL0     C21901  10.146   1.034   3.977  1.2305 -0.1375 -0.5090
  163MOL0     C21902  10.203   0.912   3.977 -0.7555 -0.1812 -0.1307
  163MOL0     C21903  10.341   0.902   3.941 -0.2616  0.0508  0.2944
  163MOL0     C21904  10.422   1.004   3.897  0.0104  0.7557  0.6151
  163MOL0     O21905  10.553   0.981   3.862  0.2866 -0.7354 -0.2993
  163MOL0     C21906  10.597   0.862   3.812 -0.0776 -0.7375 -0.2803
  163MOL0     C21907  10.728   0.897   3.736 -0.2629 -0.2361  0.3618
  163MOL0     C21908  10.798   0.771   3.697  0.1258  0.3888 -0.3137
  163MOL0     C21909  10.869   0.782   3.568 -0.0763 -0.4426  1.2167
  163MOL0     C21910  11.024   0.765   3.579 -0.6052 -0.4932 -0.0795
  163MOL0     C21911  11.065   0.619   3.599 -1.1710 -0.4409  1.4919
  163MOL0     C21912  11.214   0.614   3.627  0.1883 -0.5873 -0.2509
  163MOL0     C21913  11.252   0.476   3.674 -0.7148 -0.2082  0.7885
  163MOL0    Cl21914  11.402   0.496   3.773 -0.7790 -0.1919  0.1485
  163MOL0     C21915  10.357   1.129   3.900  0.1575 -0.5311 -0.6590
  163MOL0     C21916  10.224   1.145   3.936  0.4153 -0.1373 -0.0758
  163MOL0     O21917   9.913   0.854   3.948 -0.2569 -0.1278 -0.5015
  163MOL0     C21918   9.774   1.160   4.104 -0.6840  0.2023 -1.0691
  163MOL0     C21919   9.654   1.224   4.141 -0.6867  0.5055 -0.1820
  163MOL0     N21920   9.268   1.580   3.991  0.4923 -1.0975  0.2686
  163MOL0     N21921   9.201   1.689   3.942 -0.0789  0.3502  0.7897
  163MOL0     C21922   7.949   1.629   3.951  0.4866 -0.1688  0.2669
  163MOL0     C21923   7.816   1.594   3.992  0.2729 -0.0115  0.2525
  163MOL0     C21924   7.484   1.479   4.314 -0.7949  0.1540 -0.1253
  163MOL0     C21925   7.397   1.532   4.220  0.7406 -0.1068  0.2464
  163MOL0     C21926   7.254   1.509   4.231 -1.2714 -1.1015 -0.3329
  163MOL0     C21927   7.203   1.460   4.351 -0.0004  0.9757 -0.4742
  163MOL0     O21928   7.064   1.460   4.372 -0.6459  1.0508 -0.0629
  163MOL0     C21929   7.003   1.590   4.378  0.1121  0.6572  0.1239
  163MOL0     C21930   6.858   1.588   4.339  0.6155  0.8848  0.2684
  163MOL0     C21931   6.787   1.481   4.430 -0.5265  0.8791 -0.3972
  163MOL0     C21932   6.634   1.491   4.404  0.2955  0.0345 -0.7640
  163MOL0     C21933   6.600   1.376   4.330 -0.0621  0.6237  0.3120
  163MOL0     C21934   6.566   1.272   4.276 -0.2304 -0.3521 -0.1444
  163MOL0     C21935   7.294   1.422   4.455 -0.0492  0.8346 -0.6171
  163MOL0     C21936   7.432   1.428   4.443 -0.3575 -0.0519  0.1321
  163MOL0     C21937   7.519   1.412   4.565 -0.5836  0.5542  0.0392
  163MOL0     H21938   7.858   1.668   4.331  1.0482  1.2217  0.6520
  163MOL0     H21939   8.077   1.742   4.236 -0.1931  0.3465  0.3427
  163MOL0     H21940   8.185   1.696   3.799  3.1329 -0.7737 -0.8502
  163MOL0     H21941   8.211   1.855   3.886 -1.7485 -0.3146  1.3365
  163MOL0     H21942   8.405   1.755   3.763  1.3504 -2.2351 -0.0407
  163MOL0     H21943   8.399   1.610   3.867 -4.6430 -0.6301  2.4674
  163MOL0     H21944   8.455   1.735   4.059 -2.6322 -0.3441 -0.1534
  163MOL0     H21945   8.442   1.889   3.972 -0.0777 -0.0329 -0.3388
  163MOL0     H21946   8.643   1.671   3.892 -2.5151 -0.0874 -2.1464
  163MOL0     H21947   8.634   1.829   3.815 -0.6351 -0.8832  0.4635
  163MOL0     H21948   8.697   1.954   4.001  3.5422  0.8129 -1.4898
  163MOL0     H21949   8.691   1.809   4.106 -0.0888  2.7770  0.9934
  163MOL0     H21950   8.894   1.728   4.010 -0.6450  0.2530  0.6977
  163MOL0     H21951   8.894   1.848   3.875  0.0005  0.6535 -1.0435
  163MOL0     H21952   8.934   1.886   4.173 -0.6200  0.3970 -1.1953
  163MOL0     H21953   8.924   2.024   4.065  0.8093  0.6212  0.3032
  163MOL0     H21954   9.122   1.940   3.935 -0.3897  2.3264  0.2958
  163MOL0     H21955   9.153   1.955   4.108  1.8654 -5.1799  0.9591
  163MOL0     H21956   9.167   1.740   4.269 -0.7021  1.8090 -0.9502
  163MOL0     H21957   9.421   1.459   4.182 -2.8631 -1.4041  0.1472
  163MOL0     H21958   9.368   1.579   4.312 -2.8282 -1.5561  3.3250
  163MOL0     H21959   9.326   1.349   4.377 -1.9487  0.5945  1.9479
  163MOL0     H21960   9.183   1.454   4.358 -1.0218 -1.1996 -0.2104
  163MOL0     H21961   9.141   1.329   4.138  0.0746  1.4726  0.5826
  163MOL0     H21962   9.151   1.222   4.276 -0.2664 -0.6260 -1.3788
  163MOL0     H21963   9.350   1.276   4.055  0.5851  1.9225  2.2559
  163MOL0     H21964   9.278   1.122   4.093 -1.1441  0.1776  0.3058
  163MOL0     H21965   9.485   0.929   4.145  0.1572 -0.8624 -2.6219
  163MOL0     H21966   9.651   0.840   4.042  1.5528 -0.1881  0.2528
  163MOL0     H21967  10.148   0.825   4.012 -1.3581  1.0478  2.1972
  163MOL0     H21968  10.380   0.801   3.929 -0.5347  0.2028 -2.4509
  163MOL0     H21969  10.631   0.800   3.895  2.5140  2.5935  1.3869
  163MOL0     H21970  10.525   0.809   3.749  1.7797 -0.1458 -3.0768
  163MOL0     H21971  10.691   0.965   3.658  1.1472  1.8559  1.4263
  163MOL0     H21972  10.796   0.945   3.806 -0.0013  1.1487 -0.8109
  163MOL0     H21973  10.868   0.752   3.778 -1.5405 -1.1717  0.8441
  163MOL0     H21974  10.742   0.677   3.692  3.4552 -1.7084 -2.8963
  163MOL0     H21975  10.850   0.882   3.530 -1.4751 -1.1075  0.0757
  163MOL0     H21976  10.840   0.706   3.494  1.9728  1.9315 -2.2694
  163MOL0     H21977  11.055   0.822   3.666 -2.1235 -0.5462  0.5242
  163MOL0     H21978  11.070   0.811   3.491 -1.4108  1.6070  0.5272
  163MOL0     H21979  11.012   0.570   3.680  0.0501  0.8658  3.1449
  163MOL0     H21980  11.033   0.570   3.506  2.0622  1.9641 -1.1302
  163MOL0     H21981  11.244   0.676   3.712  2.5567 -1.1011 -0.6375
  163MOL0     H21982  11.257   0.640   3.530 -2.8258 -1.7487 -2.0341
  163MOL0     H21983  11.169   0.430   3.728 -1.2085  1.1415  1.2241
  163MOL0     H21984  11.264   0.419   3.581 -1.7461  2.9455 -1.4627
  163MOL0     H21985  10.423   1.206   3.861 -0.0896 -0.8275 -1.7050
  163MOL0     H21986  10.172   1.240   3.932  0.5655  0.0192  1.3257
  163MOL0     H21987   9.849   1.238   4.093 -2.9112  2.4434 -1.3903
  163MOL0     H21988   9.664   1.327   4.174 -1.6059  0.4746  0.2379
  163MOL0     H21989   7.982   1.611   3.849 -1.2023  0.4104 -0.4254
  163MOL0     H21990   7.741   1.565   3.919  0.8482  1.2577 -0.8933
  163MOL0     H21991   7.435   1.582   4.131 -1.2761  1.0653 -0.0123
  163MOL0     H21992   7.183   1.537   4.153 -2.4710 -1.7078  0.5133
  163MOL0     H21993   7.056   1.667   4.321 -0.7212  1.5881  0.5844
  163MOL0     H21994   7.013   1.619   4.483 -1.9551 -0.0650  0.5659
  163MOL0     H21995   6.837   1.556   4.236 -0.2457  3.4385 -0.4304
  163MOL0     H21996   6.804   1.681   4.360 -2.4023 -0.5942 -0.3915
  163MOL0     H21997   6.811   1.513   4.532 -0.9935 -0.2052  0.0754
  163MOL0     H21998   6.810   1.375   4.416 -1.3846  0.7171 -0.6577
  163MOL0     H21999   6.580   1.486   4.499  2.3795  2.8501  0.7350
  163MOL0     H22000   6.598   1.585   4.360 -0.1024 -0.2586 -1.0757
  163MOL0     H22001   6.528   1.187   4.223 -1.8126 -0.2832  0.7953
  163MOL0     H22002   7.250   1.396   4.550  1.5815  3.0607  0.8356
  163MOL0     H22003   7.587   1.497   4.575 -0.0423 -0.0889  2.8749
  163MOL0     H22004   7.460   1.413   4.658  1.5538  2.4266  1.4646
  163MOL0     H22005   7.579   1.320   4.564 -3.3019 -1.4606  2.2990
  164MOL0     O22006   1.967   2.748   9.259 -0.5213 -0.0526  0.7857
  164MOL0     C22007   2.087   2.761   9.217 -1.1535  0.2902  0.4219
  164MOL0     O22008   2.138   2.694   9.105 -0.0722 -0.1688  0.1392
  164MOL0     C22009   2.037   2.652   9.018  0.9131 -0.4551 -1.6153
  164MOL0     C22010   2.030   2.513   8.984 -1.1526 -0.5436 -0.2494
  164MOL0     C22011   1.934   2.462   8.892 -1.1198 -0.0180 -0.4535
  164MOL0     C22012   1.845   2.549   8.830 -0.1478  0.1071  0.1123
  164MOL0     O22013   1.757   2.491   8.742 -0.5835 -0.7656 -0.4534
  164MOL0     C22014   1.649   2.572   8.698  0.4825 -0.6296 -0.1138
  164MOL0     C22015   1.544   2.496   8.605 -0.7928 -0.7606  0.0310
  164MOL0     C22016   1.417   2.578   8.592  0.8771 -0.4143 -0.3532
  164MOL0     C22017   1.303   2.514   8.516  0.6809  1.0317 -0.0246
  164MOL0     C22018   1.170   2.577   8.524  0.8871  0.2550 -0.1123
  164MOL0     C22019   1.156   2.715   8.445 -0.9696  0.4923  0.0302
  164MOL0     C22020   1.030   2.790   8.495 -0.0956  0.6125 -0.2295
  164MOL0     C22021   1.020   2.931   8.429  0.0010  1.3692 -0.8435
  164MOL0     N22022   0.905   2.986   8.499 -0.0709  0.8090  0.7237
  164MOL0     C22023   0.772   2.975   8.464 -0.6868 -0.1842 -0.4734
  164MOL0     C22024   0.701   3.071   8.536 -0.3615  0.5130 -0.8530
  164MOL0     C22025   0.558   3.099   8.546  0.2068 -0.4307 -0.3169
  164MOL0     C22026   0.498   3.190   8.445 -0.3604 -0.1780  0.4629
  164MOL0     C22027   0.528   3.340   8.448 -0.3605  0.7085  0.0276
  164MOL0     C22028   0.515   3.411   8.306  0.7568 -0.3080  0.7174
  164MOL0     O22029   0.381   3.451   8.279  0.4268 -0.6020  0.3432
  164MOL0     C22030   0.343   3.574   8.323  0.0041 -0.8323 -0.1103
  164MOL0     C22031   0.215   3.614   8.283  0.1370 -0.3867 -0.5141
  164MOL0     C22032   0.168   3.739   8.325  0.6744  0.2102  0.1811
  164MOL0     C22033   0.250   3.829   8.395 -0.6593  0.0871  0.0613
  164MOL0     C22034   0.190   3.953   8.444  1.0917 -0.2125 -0.6205
  164MOL0     O22035   0.261   4.017   8.550  0.0590 -0.0392  0.1663
  164MOL0     C22036   0.193   4.121   8.622 -0.5082  0.9422 -0.7567
  164MOL0     C22037   0.110   4.218   8.565 -0.5088 -0.0712 -0.2911
  164MOL0     C22038   0.059   4.324   8.636  0.4030  0.2521 -0.9560
  164MOL0     C22039   0.075   4.327   8.776  0.3632 -0.4438 -0.5474
  164MOL0     O22040   0.019   4.431   8.848  0.4181  0.4137  0.0892
  164MOL0     C22041  -0.117   4.410   8.882  0.8727  0.6041  0.2117
  164MOL0     C22042  -0.143   4.354   9.024 -0.0037  0.2634  0.5099
  164MOL0     C22043  -0.121   4.468   9.119  0.5714 -0.7627 -0.2497
  164MOL0     C22044  -0.137   4.424   9.263 -0.5493 -0.3443 -0.5224
  164MOL0     C22045  -0.088   4.531   9.364  0.0691 -0.2355 -0.1572
  164MOL0     C22046  -0.167   4.661   9.360 -0.4636  0.7959 -0.4847
  164MOL0     C22047  -0.314   4.644   9.389 -0.0815 -1.1701  0.3863
  164MOL0     C22048  -0.342   4.563   9.527  0.5698 -0.1467  0.5554
  164MOL0    Cl22049  -0.513   4.574   9.565  0.2936 -0.1054  0.0667
  164MOL0     C22050   0.166   4.238   8.840 -0.1825 -0.6202 -0.1290
  164MOL0     C22051   0.227   4.131   8.759  0.9176 -0.9236  0.0844
  164MOL0     O22052   0.072   3.984   8.402  0.3236  0.0331 -0.9824
  164MOL0     C22053   0.385   3.792   8.418 -0.9563  0.1515  0.1053
  164MOL0     C22054   0.431   3.664   8.386 -0.1503  0.8706 -0.4125
  164MOL0     N22055   0.795   3.142   8.603 -0.1767 -0.2682  0.1088
  164MOL0     N22056   0.914   3.091   8.584 -0.6365  0.2194  0.0335
  164MOL0     C22057   1.850   2.694   8.860  0.7863 -0.5157  0.3939
  164MOL0     C22058   1.948   2.741   8.951  1.3461  0.3503  0.4034
  164MOL0     C22059   2.196   2.831   9.289  0.4951  0.0825  0.2937
  164MOL0     C22060   2.159   2.895   9.409  0.1116  0.4460  0.2737
  164MOL0     C22061   2.255   2.950   9.493  0.5296 -0.4643 -0.2338
  164MOL0     C22062   2.387   2.937   9.476 -0.1048 -1.3343  0.7424
  164MOL0     O22063   2.493   2.974   9.566 -0.1993  0.3607  0.7208
  164MOL0     C22064   2.452   3.058   9.680  0.4187  0.8488  0.1939
  164MOL0     C22065   2.581   3.111   9.748  0.0415 -1.0953  0.1394
  164MOL0     C22066   2.651   3.013   9.843  0.5445 -1.2098  0.2442
  164MOL0     C22067   2.784   3.068   9.896 -0.4130 -0.2373  0.8467
  164MOL0     C22068   2.896   3.095   9.802  1.0095 -0.2336  1.2064
  164MOL0     C22069   2.997   3.126   9.738  0.3721  0.3611 -0.0234
  164MOL0     C22070   2.432   2.886   9.350  0.8978  0.4030  0.5035
  164MOL0     C22071   2.341   2.839   9.257  1.0294  0.3255  0.8458
  164MOL0     C22072   2.395   2.760   9.143  0.3324 -0.6825  0.6141
  164MOL0     H22073   2.097   2.439   9.026 -1.1364 -0.9602 -0.9915
  164MOL0     H22074   1.924   2.356   8.870  1.2835 -0.0040 -2.0558
  164MOL0     H22075   1.598   2.600   8.791  1.0484 -2.7709  0.9240
  164MOL0     H22076   1.687   2.662   8.649  0.9671  0.6908  2.4626
  164MOL0     H22077   1.519   2.400   8.651 -1.6967 -0.4785  0.1521
  164MOL0     H22078   1.592   2.484   8.508  0.5037 -0.0665  0.5617
  164MOL0     H22079   1.444   2.676   8.551 -0.2739  0.3165  0.5264
  164MOL0     H22080   1.373   2.613   8.687  0.4517  0.1228 -0.7400
  164MOL0     H22081   1.334   2.505   8.411 -0.9973 -2.5266 -0.3858
  164MOL0     H22082   1.282   2.414   8.555 -1.2179  1.2609 -0.3770
  164MOL0     H22083   1.095   2.507   8.488 -0.5504  2.0885 -0.8113
  164MOL0     H22084   1.149   2.594   8.630  1.7438 -0.7327  0.2370
  164MOL0     H22085   1.231   2.791   8.470 -2.9375  1.5848  3.1180
  164MOL0     H22086   1.152   2.707   8.336 -3.8398  0.5881  0.0631
  164MOL0     H22087   1.041   2.795   8.604 -4.4720  0.1944  0.4250
  164MOL0     H22088   0.940   2.732   8.474  0.3521 -0.9476  1.8445
  164MOL0     H22089   1.110   2.994   8.440  0.5464  0.4477  0.2549
  164MOL0     H22090   0.990   2.915   8.325 -1.5160 -0.2172 -0.2048
  164MOL0     H22091   0.720   2.915   8.390  1.3882  1.8654 -3.8290
  164MOL0     H22092   0.503   3.005   8.535 -1.3550  0.6363 -2.3056
  164MOL0     H22093   0.530   3.158   8.635 -2.6859  0.3594 -1.6374
  164MOL0     H22094   0.535   3.158   8.347  0.7885  1.8779  0.1668
  164MOL0     H22095   0.389   3.182   8.447 -0.4486  0.8608  0.2731
  164MOL0     H22096   0.634   3.340   8.473 -0.5634 -1.6466  1.1796
  164MOL0     H22097   0.469   3.385   8.529 -3.8367  0.5174 -2.2094
  164MOL0     H22098   0.528   3.337   8.227 -2.9215  0.9707 -1.3557
  164MOL0     H22099   0.586   3.493   8.295  0.8694 -0.5203 -0.2113
  164MOL0     H22100   0.163   3.538   8.225  1.4131 -1.9713  0.3707
  164MOL0     H22101   0.064   3.764   8.306  0.2145 -2.7946 -1.8153
  164MOL0     H22102   0.087   4.214   8.459  0.2005 -2.4072 -0.4030
  164MOL0     H22103  -0.003   4.394   8.581  0.3047 -1.2332 -2.8717
  164MOL0     H22104  -0.147   4.515   8.890  1.6601  0.7292  1.9470
  164MOL0     H22105  -0.181   4.361   8.808 -0.6699  0.2496  1.7358
  164MOL0     H22106  -0.243   4.311   9.034  2.0561 -5.3866  0.4056
  164MOL0     H22107  -0.080   4.267   9.047 -5.1292 -3.8921  0.7541
  164MOL0     H22108  -0.022   4.508   9.097  0.3848 -1.5172 -2.6748
  164MOL0     H22109  -0.198   4.542   9.096 -0.9948 -2.8943 -2.2617
  164MOL0     H22110  -0.083   4.329   9.267 -1.6509 -0.9507  0.9195
  164MOL0     H22111  -0.245   4.408   9.273 -0.6704  1.3480  1.7524
  164MOL0     H22112   0.018   4.558   9.350  1.0014 -1.3107  3.6475
  164MOL0     H22113  -0.092   4.505   9.471  1.8504  1.6874  0.4550
  164MOL0     H22114  -0.125   4.727   9.437  3.0434  0.5955 -2.0130
  164MOL0     H22115  -0.162   4.718   9.266  0.0843  0.0186 -0.9360
  164MOL0     H22116  -0.369   4.596   9.308  0.2363 -1.0895  0.1236
  164MOL0     H22117  -0.360   4.744   9.384  1.9955 -0.2154 -2.7593
  164MOL0     H22118  -0.318   4.456   9.525  1.5751  0.0165  2.5433
  164MOL0     H22119  -0.276   4.608   9.601  0.6145 -1.3234  1.2560
  164MOL0     H22120   0.203   4.244   8.942 -1.0019  1.1048  0.0859
  164MOL0     H22121   0.296   4.060   8.802 -0.2470 -1.4716  1.0972
  164MOL0     H22122   0.456   3.855   8.470  0.7236  0.4345 -2.3742
  164MOL0     H22123   0.525   3.627   8.424 -1.2394 -1.1964  0.4584
  164MOL0     H22124   1.777   2.753   8.805  0.3480 -2.5893 -1.3867
  164MOL0     H22125   1.958   2.849   8.956 -1.6596  0.7809 -1.0216
  164MOL0     H22126   2.054   2.900   9.437  0.1641 -1.2073  0.8646
  164MOL0     H22127   2.225   3.000   9.585  1.5039  0.9531 -0.6573
  164MOL0     H22128   2.388   3.006   9.752 -0.1454 -0.1200 -0.9635
  164MOL0     H22129   2.392   3.140   9.637 -1.4460  0.2619  1.5238
  164MOL0     H22130   2.553   3.199   9.807  0.0865  0.1102 -1.5801
  164MOL0     H22131   2.647   3.143   9.667  0.4463 -0.4944  0.6967
  164MOL0     H22132   2.661   2.924   9.780 -0.3990 -0.2591 -1.3188
  164MOL0     H22133   2.583   3.003   9.928 -0.2766  2.9131  0.2818
  164MOL0     H22134   2.768   3.158   9.958  0.3812 -0.6229  1.6334
  164MOL0     H22135   2.818   2.983   9.956 -0.8621 -1.2921 -0.3679
  164MOL0     H22136   3.082   3.155   9.679  0.9755  0.2079  0.7510
  164MOL0     H22137   2.537   2.876   9.326  0.9133 -2.0436  1.2977
  164MOL0     H22138   2.392   2.652   9.162 -0.2537 -0.7286  0.3009
  164MOL0     H22139   2.346   2.775   9.046  0.3118 -1.5805  0.4722
  164MOL0     H22140   2.501   2.785   9.132 -0.2362  1.1089 -1.4993
  165MOL0     O22141   4.789   7.905   1.777  0.0752 -0.6142  0.0800
  165MOL0     C22142   4.902   7.947   1.770 -0.0467  0.1751  0.5788
  165MOL0     O22143   4.997   7.913   1.675  0.1444  0.4564  0.4886
  165MOL0     C22144   4.960   7.839   1.561  0.0663 -0.4611 -0.5472
  165MOL0     C22145   4.986   7.704   1.529 -0.9411  0.1466  0.7716
  165MOL0     C22146   4.940   7.636   1.412 -0.7360 -0.0147  0.2509
  165MOL0     C22147   4.858   7.703   1.323  0.8034 -0.5176  0.4670
  165MOL0     O22148   4.785   7.635   1.225 -0.0267  0.2212  0.7756
  165MOL0     C22149   4.666   7.688   1.160  0.1998  0.4553 -0.0560
  165MOL0     C22150   4.718   7.757   1.030  0.0426  0.6286 -1.0875
  165MOL0     C22151   4.603   7.816   0.953 -0.0839 -0.4788  1.1441
  165MOL0     C22152   4.629   7.849   0.806  0.1351  0.5056  0.3074
  165MOL0     C22153   4.511   7.932   0.742 -0.4700 -0.9641 -0.2660
  165MOL0     C22154   4.548   8.085   0.747 -0.1228  0.1920 -0.0910
  165MOL0     C22155   4.424   8.170   0.720 -0.5692 -0.7616 -0.3165
  165MOL0     C22156   4.466   8.319   0.715 -0.2222 -1.4954  1.4795
  165MOL0     N22157   4.360   8.414   0.708 -0.4580 -1.0113 -0.4309
  165MOL0     C22158   4.263   8.439   0.801 -0.0711 -0.0928  0.0215
  165MOL0     C22159   4.172   8.520   0.733 -0.4675  0.0691  0.0344
  165MOL0     C22160   4.045   8.556   0.791 -0.2862 -1.1304  0.0223
  165MOL0     C22161   4.034   8.701   0.814 -0.3969  0.6824  0.4281
  165MOL0     C22162   3.886   8.737   0.863 -0.1693 -0.4869 -0.9497
  165MOL0     C22163   3.871   8.883   0.918 -0.0512 -0.5187  0.6656
  165MOL0     O22164   3.966   8.873   1.030 -0.5125 -0.2158 -0.0789
  165MOL0     C22165   3.974   8.965   1.134  0.1625 -0.2679 -0.1036
  165MOL0     C22166   3.885   9.071   1.156 -0.3408  0.4830  0.5067
  165MOL0     C22167   3.902   9.160   1.260 -0.3155  0.2090 -0.2912
  165MOL0     C22168   4.024   9.146   1.340 -0.0207 -0.0106  0.3624
  165MOL0     C22169   4.067   9.263   1.421  0.0562  0.0533  0.9831
  165MOL0     O22170   4.203   9.279   1.453  1.1751 -0.3588  0.3071
  165MOL0     C22171   4.269   9.393   1.496 -0.0940  1.5627  0.0711
  165MOL0     C22172   4.403   9.362   1.524 -0.7020 -0.1014 -0.0497
  165MOL0     C22173   4.489   9.471   1.577 -0.0296  0.1518  0.9233
  165MOL0     C22174   4.442   9.602   1.610  0.2878  0.6057 -0.2175
  165MOL0     O22175   4.530   9.688   1.670 -0.6856  0.4156  0.0166
  165MOL0     C22176   4.459   9.792   1.744 -0.7807 -0.6722  1.1198
  165MOL0     C22177   4.579   9.882   1.793  0.5154 -0.8154 -0.3293
  165MOL0     C22178   4.512  10.010   1.869 -0.8423 -0.6464 -0.6718
  165MOL0     C22179   4.627  10.094   1.931  0.2973 -0.1051  0.0353
  165MOL0     C22180   4.592  10.242   1.966 -1.0538  0.0412  0.4003
  165MOL0     C22181   4.685  10.286   2.077  0.9121  0.6189  0.0964
  165MOL0     C22182   4.635  10.423   2.136 -0.1733  1.0283 -0.2155
  165MOL0     C22183   4.578  10.416   2.275  0.7608 -0.2887  0.0176
  165MOL0    Cl22184   4.434  10.321   2.252  0.3759 -0.0869  0.4449
  165MOL0     C22185   4.296   9.618   1.588 -0.2963 -0.8800 -0.1848
  165MOL0     C22186   4.215   9.521   1.529 -0.7816  0.0467 -0.1576
  165MOL0     O22187   3.980   9.347   1.442  0.7870 -0.2400  0.2771
  165MOL0     C22188   4.108   9.041   1.321  0.1575  1.0463  0.1431
  165MOL0     C22189   4.079   8.945   1.226 -0.9045 -0.5599  0.0966
  165MOL0     N22190   4.229   8.553   0.607 -0.8832  0.1086  0.2388
  165MOL0     N22191   4.339   8.480   0.592 -0.4665  0.1249 -0.1689
  165MOL0     C22192   4.826   7.835   1.356  0.4097  0.1077 -0.1696
  165MOL0     C22193   4.870   7.903   1.469  1.0120  0.0535  0.2861
  165MOL0     C22194   4.949   8.039   1.875  0.6869  0.6286  0.9326
  165MOL0     C22195   4.965   7.989   2.007 -0.0320 -0.1150  0.3605
  165MOL0     C22196   5.006   8.076   2.109 -0.4176  0.4067 -0.3791
  165MOL0     C22197   5.038   8.206   2.080  0.8697  0.2026 -1.0715
  165MOL0     O22198   5.074   8.305   2.170  0.0552  1.2236  0.6078
  165MOL0     C22199   5.111   8.256   2.303  0.0076  0.4876  0.4209
  165MOL0     C22200   5.184   8.367   2.370  0.3486 -0.2397 -0.0903
  165MOL0     C22201   5.099   8.494   2.395 -0.4729 -0.0095 -0.0042
  165MOL0     C22202   5.188   8.614   2.391  0.4042 -0.7597  0.6880
  165MOL0     C22203   5.251   8.635   2.531  1.2950 -0.7223  0.2888
  165MOL0     C22204   5.276   8.701   2.636 -0.0504  0.4774 -0.2952
  165MOL0     C22205   5.026   8.259   1.950  0.1154 -0.1432 -0.6344
  165MOL0     C22206   4.984   8.174   1.841 -0.3607  0.1094 -0.2710
  165MOL0     C22207   4.958   8.225   1.699  0.0814  0.1300  0.5312
  165MOL0     H22208   5.048   7.648   1.598  0.7987  0.6288 -0.3266
  165MOL0     H22209   4.951   7.528   1.405 -1.1954 -0.0053 -0.7124
  165MOL0     H22210   4.590   7.610   1.142 -1.3582  1.9736 -0.3280
  165MOL0     H22211   4.615   7.771   1.210  2.5047  2.2965 -0.5950
  165MOL0     H22212   4.764   7.672   0.979  0.3286 -1.2758  2.0475
  165MOL0     H22213   4.793   7.834   1.051  0.1727  0.7274 -1.8954
  165MOL0     H22214   4.575   7.915   0.990  1.0948  1.6393 -2.9746
  165MOL0     H22215   4.520   7.745   0.963  0.2630 -1.0870 -0.0244
  165MOL0     H22216   4.718   7.911   0.792 -0.6437  1.2598 -1.7800
  165MOL0     H22217   4.649   7.755   0.753  2.9533  0.9914  0.3473
  165MOL0     H22218   4.496   7.905   0.637 -2.0247  2.9717 -1.2175
  165MOL0     H22219   4.420   7.920   0.801 -0.1824  0.6182  0.5508
  165MOL0     H22220   4.580   8.110   0.849  0.0586  0.4758 -0.2146
  165MOL0     H22221   4.637   8.120   0.693 -1.8869 -0.2294 -3.5869
  165MOL0     H22222   4.352   8.160   0.801  0.7197 -0.0362  0.9593
  165MOL0     H22223   4.372   8.144   0.627 -0.8858  1.5796 -0.8522
  165MOL0     H22224   4.522   8.338   0.807  0.8444  1.2918  0.3471
  165MOL0     H22225   4.541   8.331   0.636 -0.1287 -0.6571  1.6891
  165MOL0     H22226   4.253   8.387   0.895 -4.2639 -1.6915 -1.0851
  165MOL0     H22227   3.977   8.533   0.708  1.1202 -1.0774 -1.1709
  165MOL0     H22228   4.026   8.507   0.887 -1.9597  0.9834  0.8709
  165MOL0     H22229   4.110   8.737   0.884  0.5754  2.2447 -1.3401
  165MOL0     H22230   4.056   8.746   0.717  0.0660 -2.3112 -0.9634
  165MOL0     H22231   3.859   8.674   0.948 -1.5437 -0.2284 -1.1749
  165MOL0     H22232   3.828   8.717   0.772  3.2741  0.7212 -3.6652
  165MOL0     H22233   3.768   8.909   0.946 -0.5577  0.8597 -2.1321
  165MOL0     H22234   3.894   8.954   0.838 -2.5745  0.5083  0.7542
  165MOL0     H22235   3.804   9.076   1.084  1.0651 -1.0461 -1.3180
  165MOL0     H22236   3.831   9.240   1.276 -0.5866 -0.7023  4.8132
  165MOL0     H22237   4.434   9.263   1.493 -1.2373  0.3693 -2.3314
  165MOL0     H22238   4.592   9.439   1.585  0.4551  1.2849 -0.4552
  165MOL0     H22239   4.405   9.856   1.673  2.9736 -0.8247 -2.2405
  165MOL0     H22240   4.405   9.754   1.830  3.7369 -2.7023  3.4286
  165MOL0     H22241   4.641   9.827   1.865 -0.1597 -1.8162 -0.4946
  165MOL0     H22242   4.638   9.920   1.709 -0.1135 -1.2310 -0.9700
  165MOL0     H22243   4.460  10.075   1.797 -1.0424  1.8561  1.5645
  165MOL0     H22244   4.445   9.981   1.950  1.3538  0.2876  1.5973
  165MOL0     H22245   4.713  10.089   1.864 -1.6897 -0.2612 -2.6389
  165MOL0     H22246   4.663  10.036   2.017 -0.7221 -4.5779 -2.2753
  165MOL0     H22247   4.487  10.231   1.995 -1.8480  1.1235 -1.8538
  165MOL0     H22248   4.606  10.309   1.881  2.2205  2.2279  2.4580
  165MOL0     H22249   4.690  10.216   2.161 -1.1263  0.8084  0.4393
  165MOL0     H22250   4.784  10.290   2.033  1.0945 -0.7727  0.3267
  165MOL0     H22251   4.558  10.467   2.072 -1.4132 -3.0492 -1.8207
  165MOL0     H22252   4.725  10.486   2.140 -1.0801  2.4062 -0.8735
  165MOL0     H22253   4.658  10.377   2.339  2.9637  3.6046  0.0026
  165MOL0     H22254   4.547  10.513   2.315 -3.6270 -1.7521  0.6308
  165MOL0     H22255   4.246   9.710   1.614 -1.0604 -1.8392  1.9823
  165MOL0     H22256   4.113   9.548   1.504  0.2201  3.6254 -0.9306
  165MOL0     H22257   4.191   9.030   1.390  0.0235  0.7854  0.2616
  165MOL0     H22258   4.142   8.859   1.203  0.8265  1.3580 -3.1330
  165MOL0     H22259   4.759   7.904   1.305 -2.2112 -1.8485  0.4690
  165MOL0     H22260   4.841   8.008   1.470 -0.4955 -0.3270 -0.2751
  165MOL0     H22261   4.924   7.889   2.019  0.4372 -0.4931 -0.9430
  165MOL0     H22262   5.015   8.037   2.209  4.6868  0.0125 -0.7447
  165MOL0     H22263   5.184   8.176   2.288 -0.9298 -0.3215  0.0290
  165MOL0     H22264   5.023   8.216   2.354 -1.6107  1.6213 -1.3276
  165MOL0     H22265   5.275   8.386   2.312  0.8264 -2.5833 -0.2164
  165MOL0     H22266   5.199   8.338   2.474 -1.7527 -1.9455 -0.1969
  165MOL0     H22267   5.039   8.491   2.486  0.4344  1.0045  0.6650
  165MOL0     H22268   5.025   8.507   2.316 -1.6735 -0.4020  1.0253
  165MOL0     H22269   5.276   8.605   2.327  0.9880 -2.6320  1.6700
  165MOL0     H22270   5.136   8.709   2.376 -2.1595 -1.0412  5.7211
  165MOL0     H22271   5.305   8.755   2.724  3.9033 -1.1407 -0.4134
  165MOL0     H22272   5.068   8.359   1.937 -0.1631  0.0229 -0.2659
  165MOL0     H22273   4.852   8.238   1.676 -0.1176  0.1629  1.4286
  165MOL0     H22274   5.008   8.319   1.676  1.7951 -0.9514 -0.3800
  165MOL0     H22275   4.995   8.157   1.621  0.6660  0.4009  0.5634
  166MOL0     O22276   7.348   7.577   1.014  0.0398  0.6078  0.1178
  166MOL0     C22277   7.256   7.549   0.931  0.2990  0.0706  0.1647
  166MOL0     O22278   7.226   7.415   0.900  0.5473 -0.7226  0.4213
  166MOL0     C22279   7.293   7.318   0.970 -0.5121 -1.2733  0.2816
  166MOL0     C22280   7.200   7.230   1.035 -0.6499 -0.4875 -0.5298
  166MOL0     C22281   7.258   7.130   1.118 -1.4704 -0.6514  0.1753
  166MOL0     C22282   7.402   7.111   1.115 -0.0120 -0.6506 -0.8740
  166MOL0     O22283   7.453   7.002   1.183  0.9666 -0.2536  0.1562
  166MOL0     C22284   7.586   7.000   1.230 -0.5235  0.1408  0.3610
  166MOL0     C22285   7.630   7.082   1.352 -0.3785  0.5983 -0.2906
  166MOL0     C22286   7.781   7.057   1.359  0.6453  0.2778  0.6594
  166MOL0     C22287   7.856   7.127   1.465 -0.2816 -0.0887 -0.8344
  166MOL0     C22288   7.791   7.106   1.605 -0.1436  0.5654 -0.3400
  166MOL0     C22289   7.891   7.138   1.725  0.4498  0.2161  0.2966
  166MOL0     C22290   7.814   7.143   1.865  0.2435 -0.7631 -0.9617
  166MOL0     C22291   7.898   7.182   1.987  0.6428  0.1854  0.2152
  166MOL0     N22292   8.032   7.121   1.997 -0.1277  0.7409 -0.8565
  166MOL0     C22293   8.059   6.985   1.978 -0.2973 -0.2851 -0.1969
  166MOL0     C22294   8.198   6.982   1.968  0.3114 -0.4468  0.8649
  166MOL0     C22295   8.291   6.859   1.957 -0.0548  0.4922  0.1259
  166MOL0     C22296   8.435   6.897   1.992 -1.1029  0.2923 -0.9232
  166MOL0     C22297   8.528   6.769   1.945  0.3729 -0.5171 -0.3416
  166MOL0     C22298   8.668   6.793   1.978  0.2275 -0.1335  0.1186
  166MOL0     O22299   8.681   6.775   2.119 -0.6425 -0.6456  0.0475
  166MOL0     C22300   8.790   6.817   2.183 -0.0604  0.5331  1.0977
  166MOL0     C22301   8.806   6.772   2.314 -0.7792  0.2403  0.2031
  166MOL0     C22302   8.912   6.821   2.391 -0.2131  0.2524  0.0086
  166MOL0     C22303   9.005   6.903   2.331  0.4562 -0.2469 -0.6404
  166MOL0     C22304   9.115   6.958   2.418  0.1011  0.6040 -0.8535
  166MOL0     O22305   9.157   6.880   2.522 -0.3921 -0.2740  0.4535
  166MOL0     C22306   9.291   6.891   2.546  0.8698 -0.4314 -0.0565
  166MOL0     C22307   9.371   6.994   2.586 -0.3740  0.3318  0.3960
  166MOL0     C22308   9.505   6.993   2.589 -0.2580  0.9164  0.0646
  166MOL0     C22309   9.567   6.868   2.573 -0.0102 -0.5347 -0.3352
  166MOL0     O22310   9.700   6.868   2.611 -0.3531 -0.3499  0.4861
  166MOL0     C22311   9.768   6.751   2.646 -1.0487 -0.0940  1.2011
  166MOL0     C22312   9.713   6.690   2.771 -0.3587  0.4489 -0.4480
  166MOL0     C22313   9.769   6.549   2.815 -0.3599 -0.3667  0.1145
  166MOL0     C22314   9.749   6.530   2.967  0.6892 -0.4573  0.0232
  166MOL0     C22315   9.778   6.384   3.010  0.4089 -0.3366 -0.4186
  166MOL0     C22316   9.767   6.376   3.162 -0.0311 -0.5053 -0.0176
  166MOL0     C22317   9.876   6.455   3.235 -0.5823  0.7973  0.0835
  166MOL0     C22318   9.869   6.437   3.390  0.7264  0.5746  0.8668
  166MOL0    Cl22319   9.747   6.541   3.473 -0.0986 -0.1068 -0.0667
  166MOL0     C22320   9.490   6.755   2.549  0.1594  1.3774 -0.9905
  166MOL0     C22321   9.357   6.767   2.530  0.4610  0.4917 -0.1589
  166MOL0     O22322   9.177   7.050   2.365 -0.1718 -1.0900  0.4420
  166MOL0     C22323   8.987   6.954   2.209  0.0360  0.7769  0.4309
  166MOL0     C22324   8.888   6.906   2.127  0.8916  0.4452  1.1475
  166MOL0     N22325   8.245   7.109   1.978  0.6151  0.3132 -0.3533
  166MOL0     N22326   8.146   7.191   1.999  0.2606  0.2704  0.2617
  166MOL0     C22327   7.492   7.189   1.042  0.2584  0.2205  0.4369
  166MOL0     C22328   7.432   7.298   0.967 -0.4769  1.1036 -0.3431
  166MOL0     C22329   7.186   7.653   0.853  0.9601 -0.0605 -0.4251
  166MOL0     C22330   7.087   7.617   0.761 -0.2617  0.7387 -0.1439
  166MOL0     C22331   7.040   7.707   0.668 -0.4763  0.1198  0.0097
  166MOL0     C22332   7.086   7.837   0.662  0.0497 -0.3012  0.0953
  166MOL0     O22333   7.049   7.937   0.581  0.3299 -0.1949  0.6465
  166MOL0     C22334   7.000   7.905   0.448 -0.0966 -0.6581  0.5347
  166MOL0     C22335   6.930   8.027   0.390 -0.3470 -0.5114 -0.0171
  166MOL0     C22336   7.007   8.067   0.264  0.1525  0.2528 -0.1644
  166MOL0     C22337   6.955   8.201   0.216  1.3028  1.1495  0.2857
  166MOL0     C22338   7.027   8.231   0.098 -0.6060  0.3623  0.4492
  166MOL0     C22339   7.063   8.256  -0.013  0.0145 -0.2903 -0.0898
  166MOL0     C22340   7.177   7.879   0.764  0.0319 -0.0502  0.5143
  166MOL0     C22341   7.222   7.790   0.861 -0.4591  1.2089 -0.9044
  166MOL0     C22342   7.327   7.851   0.955  1.0101 -0.7326 -0.2910
  166MOL0     H22343   7.093   7.246   1.029 -0.2628  2.3424 -1.4744
  166MOL0     H22344   7.205   7.049   1.167 -1.7624 -0.2813  0.4818
  166MOL0     H22345   7.601   6.893   1.245  0.8162  0.2989  0.2351
  166MOL0     H22346   7.663   7.016   1.154  0.7663 -0.8984  1.4077
  166MOL0     H22347   7.589   7.041   1.444  1.3758  0.0717  0.2920
  166MOL0     H22348   7.601   7.188   1.350  0.8632  0.9720  0.4056
  166MOL0     H22349   7.822   7.095   1.265 -0.3347 -1.8229 -0.6823
  166MOL0     H22350   7.791   6.949   1.369 -1.1970  0.0242  0.0467
  166MOL0     H22351   7.960   7.092   1.470 -0.7176 -1.2857  1.0232
  166MOL0     H22352   7.866   7.233   1.438  1.3685  1.2137  3.9623
  166MOL0     H22353   7.706   7.175   1.612 -1.5442 -0.8382 -2.3931
  166MOL0     H22354   7.738   7.014   1.630 -3.9707  3.0382  1.8313
  166MOL0     H22355   7.971   7.063   1.726 -0.2141 -0.5343 -0.7080
  166MOL0     H22356   7.939   7.232   1.697  1.8199  0.0290  1.8917
  166MOL0     H22357   7.779   7.039   1.867  0.7101 -0.9773 -2.4337
  166MOL0     H22358   7.731   7.214   1.857  1.2414  0.5022 -0.2681
  166MOL0     H22359   7.926   7.286   1.969  1.3625 -0.2861 -1.6272
  166MOL0     H22360   7.840   7.163   2.078 -0.4054 -2.4073 -0.8670
  166MOL0     H22361   7.996   6.897   1.973 -0.5572 -0.0497 -2.5991
  166MOL0     H22362   8.252   6.786   2.029 -2.6972 -2.5931 -3.9961
  166MOL0     H22363   8.287   6.806   1.862  3.8072  1.0253 -0.5137
  166MOL0     H22364   8.475   6.984   1.940  1.8754 -1.0630 -1.1485
  166MOL0     H22365   8.439   6.913   2.100 -0.2522 -1.9560 -0.5633
  166MOL0     H22366   8.522   6.756   1.837 -1.2664 -2.0074 -0.1113
  166MOL0     H22367   8.494   6.679   1.997 -0.8777 -1.0584 -2.0106
  166MOL0     H22368   8.684   6.895   1.940  1.2310 -0.6853 -0.9992
  166MOL0     H22369   8.724   6.721   1.918  0.5680  1.1952 -1.2352
  166MOL0     H22370   8.734   6.714   2.370 -0.2384  0.1853  0.8494
  166MOL0     H22371   8.921   6.798   2.496  0.7066  0.3336 -0.0435
  166MOL0     H22372   9.329   7.092   2.607 -1.6728 -0.1376  0.1160
  166MOL0     H22373   9.561   7.080   2.621 -1.7599  1.6206  0.8717
  166MOL0     H22374   9.763   6.668   2.576 -2.5223  0.3942  0.6892
  166MOL0     H22375   9.872   6.782   2.641 -1.6387  1.7761 -0.7603
  166MOL0     H22376   9.726   6.757   2.857 -3.4139  0.4787  0.0978
  166MOL0     H22377   9.604   6.687   2.769 -0.4892  2.9470 -0.1438
  166MOL0     H22378   9.714   6.471   2.760 -0.2485 -2.0623  2.3013
  166MOL0     H22379   9.872   6.541   2.781 -0.6233  0.7193 -1.0662
  166MOL0     H22380   9.643   6.549   2.986  1.1527 -0.7834  3.6836
  166MOL0     H22381   9.812   6.605   3.016 -0.4752 -1.3386  3.0775
  166MOL0     H22382   9.870   6.340   2.970  1.5995  0.7391  1.0300
  166MOL0     H22383   9.706   6.312   2.971 -1.1425 -0.7660  2.8477
  166MOL0     H22384   9.674   6.422   3.196  0.1118 -0.8293  0.8385
  166MOL0     H22385   9.769   6.272   3.197 -2.4361 -0.2192  1.1351
  166MOL0     H22386   9.860   6.562   3.216 -0.5018  0.6461 -0.9218
  166MOL0     H22387   9.979   6.432   3.206 -0.2389 -1.3188  2.6584
  166MOL0     H22388   9.863   6.332   3.420 -0.8857  0.1292 -0.8136
  166MOL0     H22389   9.963   6.480   3.429 -1.0181  3.1361  2.5910
  166MOL0     H22390   9.529   6.655   2.565 -3.4768  0.2396  2.2368
  166MOL0     H22391   9.312   6.676   2.493  4.0897 -1.3628 -0.4583
  166MOL0     H22392   9.067   7.014   2.165 -2.0823  2.4174 -1.4290
  166MOL0     H22393   8.867   6.951   2.031  1.1855 -0.8638  0.4428
  166MOL0     H22394   7.599   7.177   1.043  0.0482 -1.8697  0.9577
  166MOL0     H22395   7.488   7.371   0.909  0.8365  1.8238  1.7408
  166MOL0     H22396   7.056   7.514   0.742 -1.5450  0.9092  0.8581
  166MOL0     H22397   6.977   7.657   0.595  3.4411 -6.1646  0.2393
  166MOL0     H22398   6.930   7.821   0.455 -0.2762 -0.5492  0.0804
  166MOL0     H22399   7.087   7.876   0.388  1.3243  3.7691  0.0948
  166MOL0     H22400   6.927   8.117   0.453  1.3873  1.8291 -2.9883
  166MOL0     H22401   6.828   8.002   0.360  0.2092  1.2988 -4.0156
  166MOL0     H22402   7.026   7.988   0.192 -3.3639  1.4155 -2.6113
  166MOL0     H22403   7.115   8.085   0.277  0.9852 -1.8862 -3.1370
  166MOL0     H22404   6.849   8.194   0.191  1.4863 -0.1982 -0.1727
  166MOL0     H22405   6.962   8.282   0.289 -1.4793  1.2752  0.5294
  166MOL0     H22406   7.096   8.300  -0.106 -0.5488 -0.5253 -0.4026
  166MOL0     H22407   7.200   7.984   0.745 -1.5719  0.2060 -0.2244
  166MOL0     H22408   7.342   7.954   0.922  4.1036 -1.3872 -1.2582
  166MOL0     H22409   7.306   7.842   1.062 -0.8067  3.9568 -0.0616
  166MOL0     H22410   7.417   7.789   0.940  0.9818 -0.4462 -1.7636
  167MOL0     O22411   4.577  11.234   2.615 -0.7083 -0.1466 -0.3727
  167MOL0     C22412   4.660  11.318   2.592  0.0592 -0.3267 -0.1882
  167MOL0     O22413   4.668  11.389   2.480 -0.3867 -0.2029  0.1637
  167MOL0     C22414   4.561  11.432   2.416  0.2546  0.6137 -0.2756
  167MOL0     C22415   4.442  11.455   2.490 -1.2241 -0.1887 -0.7197
  167MOL0     C22416   4.330  11.504   2.435 -0.1859 -0.0211  0.5771
  167MOL0     C22417   4.343  11.550   2.301 -0.2529 -1.2019  0.0377
  167MOL0     O22418   4.231  11.621   2.250 -0.3457  0.8308 -0.0850
  167MOL0     C22419   4.261  11.701   2.129  0.6003 -1.4614 -0.7254
  167MOL0     C22420   4.134  11.759   2.089  0.4990  0.8960  0.4393
  167MOL0     C22421   4.063  11.857   2.185  0.8000 -0.7559  0.7804
  167MOL0     C22422   3.933  11.922   2.127  0.3173  0.8401  0.4545
  167MOL0     C22423   3.884  12.036   2.223 -0.4543  1.0457 -0.1521
  167MOL0     C22424   3.838  11.987   2.363  0.1263 -1.0816  0.3522
  167MOL0     C22425   3.747  12.088   2.429  0.0772  0.1708  1.2394
  167MOL0     C22426   3.817  12.225   2.453  0.2641 -0.5935  0.6521
  167MOL0     N22427   3.954  12.225   2.495 -0.1744 -1.0751 -0.2506
  167MOL0     C22428   3.990  12.221   2.633 -0.0258 -0.9513 -0.6324
  167MOL0     C22429   4.119  12.262   2.632  0.6459 -0.7756  0.2923
  167MOL0     C22430   4.205  12.280   2.755  0.0566 -0.7710  1.0325
  167MOL0     C22431   4.212  12.435   2.791  0.2337 -0.5212 -0.5893
  167MOL0     C22432   4.075  12.496   2.858 -0.2724  0.2286 -0.8141
  167MOL0     C22433   4.028  12.410   2.974 -0.7842  0.3419 -0.1798
  167MOL0     O22434   3.937  12.483   3.049 -0.4598  0.1629 -0.2053
  167MOL0     C22435   3.882  12.419   3.164 -0.2579 -0.0094 -0.4415
  167MOL0     C22436   3.895  12.284   3.192 -0.6450 -0.6536  1.4316
  167MOL0     C22437   3.828  12.222   3.302 -0.0200 -0.3595 -0.1022
  167MOL0     C22438   3.741  12.300   3.389 -1.7459 -0.0274  0.8382
  167MOL0     C22439   3.661  12.228   3.497  0.1602 -0.0715  0.3831
  167MOL0     O22440   3.565  12.312   3.553 -0.1425 -0.5275  0.2862
  167MOL0     C22441   3.465  12.256   3.628  0.0495 -0.9378  0.1989
  167MOL0     C22442   3.351  12.192   3.580 -0.2666 -0.5603 -0.2292
  167MOL0     C22443   3.253  12.143   3.669  0.1219 -0.0229  0.7187
  167MOL0     C22444   3.256  12.163   3.806  0.0627  0.7234 -0.1032
  167MOL0     O22445   3.145  12.127   3.873 -0.0267 -0.6673  0.1010
  167MOL0     C22446   3.137  12.174   4.010  0.2558  0.1368  0.1180
  167MOL0     C22447   3.002  12.116   4.070 -0.9944 -0.2367 -0.7102
  167MOL0     C22448   2.984  11.959   4.060  0.6098 -0.3338  0.6419
  167MOL0     C22449   3.065  11.887   4.165  0.3893  0.5890 -0.0474
  167MOL0     C22450   3.026  11.747   4.172  0.0326  0.5281  0.4782
  167MOL0     C22451   3.038  11.678   4.032 -0.1400  0.1441 -0.0052
  167MOL0     C22452   3.039  11.520   4.027  0.7815 -0.0612  0.0159
  167MOL0     C22453   3.079  11.457   3.888  0.4421  0.4201 -0.3041
  167MOL0    Cl22454   3.038  11.269   3.901  0.6258  0.4031  0.7506
  167MOL0     C22455   3.366  12.230   3.859  0.2492  0.2463  0.4106
  167MOL0     C22456   3.473  12.264   3.773  0.2199 -0.8601 -0.5600
  167MOL0     O22457   3.676  12.110   3.516  0.0072  1.0174  0.0612
  167MOL0     C22458   3.741  12.440   3.359 -0.2281  0.3135 -0.4384
  167MOL0     C22459   3.804  12.497   3.251  0.1371 -0.3472 -0.6358
  167MOL0     N22460   4.153  12.282   2.501  0.2481 -0.0170  0.1037
  167MOL0     N22461   4.055  12.269   2.421  0.2041  0.2803 -0.4495
  167MOL0     C22462   4.466  11.548   2.225 -0.2347 -0.4248 -0.3356
  167MOL0     C22463   4.577  11.484   2.287  0.2196 -1.0375 -0.6388
  167MOL0     C22464   4.756  11.337   2.709  0.5730 -0.4749  0.1868
  167MOL0     C22465   4.778  11.232   2.798 -0.1766  0.9488  0.6495
  167MOL0     C22466   4.848  11.248   2.915  0.0384  0.8818  0.3983
  167MOL0     C22467   4.912  11.365   2.944  0.3340 -0.2243 -1.2829
  167MOL0     O22468   4.984  11.385   3.057 -0.1578  0.1235 -0.2265
  167MOL0     C22469   5.038  11.282   3.139 -0.2081  0.4083 -0.3021
  167MOL0     C22470   5.112  11.344   3.258  0.0206  0.4857  0.0302
  167MOL0     C22471   5.225  11.445   3.217 -0.8098  0.1870  0.8621
  167MOL0     C22472   5.307  11.496   3.337 -0.0920  0.2428 -1.2859
  167MOL0     C22473   5.222  11.580   3.420 -0.3275  0.3595 -0.3274
  167MOL0     C22474   5.148  11.652   3.483  0.3009 -0.3992 -0.1584
  167MOL0     C22475   4.903  11.465   2.849 -0.5867  0.6588  0.3788
  167MOL0     C22476   4.822  11.460   2.738 -0.7483  0.4841 -0.2766
  167MOL0     C22477   4.820  11.585   2.648  0.3298  0.0998  0.8723
  167MOL0     H22478   4.434  11.430   2.596  0.4636  0.6204 -0.3647
  167MOL0     H22479   4.238  11.525   2.490 -0.7457  0.5702 -0.5335
  167MOL0     H22480   4.347  11.768   2.136  0.4765 -1.2123 -1.5038
  167MOL0     H22481   4.288  11.632   2.048  1.1016 -1.7637 -0.3061
  167MOL0     H22482   4.055  11.683   2.083 -1.2176  2.5045  1.6430
  167MOL0     H22483   4.137  11.802   1.988 -3.7751  0.6278 -0.0217
  167MOL0     H22484   4.141  11.933   2.196  2.2366 -1.7859 -1.4130
  167MOL0     H22485   4.044  11.807   2.280 -0.3718 -1.6258  0.1163
  167MOL0     H22486   3.967  11.968   2.034  1.4490  2.9899  1.8598
  167MOL0     H22487   3.847  11.854   2.122 -0.5118  1.9427 -1.4562
  167MOL0     H22488   3.954  12.120   2.225 -1.8667  2.2625  0.6912
  167MOL0     H22489   3.794  12.072   2.173 -0.4981 -1.6283 -2.1934
  167MOL0     H22490   3.784  11.895   2.340 -3.0604  0.8888 -0.7153
  167MOL0     H22491   3.923  11.965   2.428  1.0311  1.2628  0.0604
  167MOL0     H22492   3.728  12.048   2.529  0.9016  1.0169  1.7497
  167MOL0     H22493   3.653  12.085   2.372  1.5076 -1.5701 -1.2108
  167MOL0     H22494   3.820  12.280   2.358  1.9920  0.8122  1.4725
  167MOL0     H22495   3.751  12.297   2.503 -0.3457  2.1218 -3.5457
  167MOL0     H22496   3.922  12.191   2.712  0.3879 -3.5338 -1.1530
  167MOL0     H22497   4.182  12.213   2.839  2.4257  2.6194  4.7241
  167MOL0     H22498   4.305  12.257   2.715  0.0019  0.7882 -0.0879
  167MOL0     H22499   4.293  12.455   2.862 -1.0314  3.4288 -0.0349
  167MOL0     H22500   4.245  12.488   2.702  1.4851  0.0799  0.1969
  167MOL0     H22501   3.996  12.514   2.784  1.5664  0.2237 -2.8604
  167MOL0     H22502   4.092  12.587   2.917 -3.9620  0.3902  0.2484
  167MOL0     H22503   4.115  12.377   3.032 -2.6888 -0.6242  2.2922
  167MOL0     H22504   3.981  12.320   2.934  0.6415 -0.3837 -0.2996
  167MOL0     H22505   3.942  12.223   3.116 -2.7823  1.1044 -1.5386
  167MOL0     H22506   3.833  12.114   3.314  3.9015 -0.3373 -0.2527
  167MOL0     H22507   3.332  12.180   3.473 -4.3464 -0.8587  0.3586
  167MOL0     H22508   3.166  12.082   3.644 -1.1746  0.8481  2.8088
  167MOL0     H22509   3.216  12.134   4.074  2.1792  0.9685 -1.6312
  167MOL0     H22510   3.143  12.283   4.017  5.5583  0.3058 -2.3634
  167MOL0     H22511   3.000  12.150   4.174  1.2947  2.8872 -1.5488
  167MOL0     H22512   2.915  12.159   4.018  0.1090 -1.7054 -3.9883
  167MOL0     H22513   2.876  11.941   4.067  0.4542  0.1917 -0.3087
  167MOL0     H22514   3.016  11.926   3.961 -4.0892  1.7550 -1.9050
  167MOL0     H22515   3.050  11.931   4.264 -1.8387  0.4299 -0.2745
  167MOL0     H22516   3.172  11.895   4.146  0.5345  0.7194  0.7625
  167MOL0     H22517   2.924  11.743   4.212 -0.4499 -1.8544 -0.7774
  167MOL0     H22518   3.097  11.693   4.235 -0.2162 -2.7429 -1.7918
  167MOL0     H22519   2.954  11.703   3.966  0.1434 -0.9680 -0.8002
  167MOL0     H22520   3.128  11.706   3.977 -0.2537  0.9263  0.1897
  167MOL0     H22521   2.932  11.505   4.047  0.3634  3.2182  0.7864
  167MOL0     H22522   3.103  11.476   4.104 -0.6856 -0.9118  0.7965
  167MOL0     H22523   3.030  11.500   3.800  1.9682 -0.2900 -1.5418
  167MOL0     H22524   3.187  11.464   3.872  0.5488 -1.9250 -0.9908
  167MOL0     H22525   3.364  12.255   3.965 -2.7590  0.3148  0.4099
  167MOL0     H22526   3.555  12.305   3.831 -2.2714  0.5130  2.2562
  167MOL0     H22527   3.690  12.492   3.439 -0.8682 -0.5276 -0.2795
  167MOL0     H22528   3.803  12.605   3.241  2.1107  0.2117  3.2428
  167MOL0     H22529   4.473  11.583   2.122  2.0947  0.2782 -0.0061
  167MOL0     H22530   4.673  11.474   2.237 -0.2550 -0.8052 -1.6210
  167MOL0     H22531   4.740  11.132   2.780 -0.9857  0.8093  2.8607
  167MOL0     H22532   4.849  11.173   2.994 -1.5127  2.1480  1.6919
  167MOL0     H22533   5.102  11.211   3.085  1.7166 -0.3256  2.7067
  167MOL0     H22534   4.955  11.224   3.180 -1.6039  0.7275 -2.4998
  167MOL0     H22535   5.155  11.262   3.316 -2.0560  0.1199  1.1542
  167MOL0     H22536   5.033  11.393   3.315 -0.0221 -1.4558  1.7477
  167MOL0     H22537   5.178  11.528   3.164 -0.5995 -2.5969 -4.2659
  167MOL0     H22538   5.297  11.394   3.153  0.1456 -0.9085  2.7246
  167MOL0     H22539   5.350  11.425   3.409  4.7474  1.5897 -2.4275
  167MOL0     H22540   5.384  11.567   3.303 -0.6791  1.5402 -0.0465
  167MOL0     H22541   5.078  11.688   3.556  1.4752 -2.5561  2.1798
  167MOL0     H22542   4.951  11.560   2.871 -2.3511  1.8560 -0.7372
  167MOL0     H22543   4.721  11.623   2.623  1.8864  3.0837 -1.5549
  167MOL0     H22544   4.889  11.663   2.683  0.7438 -0.1307  0.5893
  167MOL0     H22545   4.870  11.561   2.554 -0.6933  4.4903 -1.0231
  168MOL0     O22546   4.182   6.586  10.910  0.4817  1.3824 -0.3415
  168MOL0     C22547   4.217   6.533  10.802  1.8332  0.1235  0.2170
  168MOL0     O22548   4.176   6.409  10.748 -0.3885  0.4512 -0.2661
  168MOL0     C22549   4.055   6.361  10.791  0.5028 -0.9093  0.1039
  168MOL0     C22550   4.041   6.217  10.765  0.5508 -0.2281 -1.0851
  168MOL0     C22551   3.919   6.154  10.785 -0.3383 -0.8261 -0.0334
  168MOL0     C22552   3.804   6.233  10.822  0.4946 -0.6456  0.1824
  168MOL0     O22553   3.674   6.189  10.816 -0.1081 -0.2569 -0.4132
  168MOL0     C22554   3.648   6.131  10.683 -0.4334 -0.2559 -0.2521
  168MOL0     C22555   3.493   6.132  10.664  0.1339  0.0345 -0.4952
  168MOL0     C22556   3.441   6.027  10.569 -0.1412 -1.5622  0.2922
  168MOL0     C22557   3.307   5.961  10.608 -0.3411  0.1313  0.0350
  168MOL0     C22558   3.183   6.053  10.630  0.2912 -0.3579 -0.7522
  168MOL0     C22559   3.082   5.975  10.726  0.0706 -0.9606  0.4755
  168MOL0     C22560   2.967   6.070  10.766  0.5554  1.6067  1.2290
  168MOL0     C22561   2.876   6.101  10.642  0.1263 -0.7233  0.7342
  168MOL0     N22562   2.870   6.012  10.519 -0.1271 -0.2433  0.2760
  168MOL0     C22563   2.843   5.879  10.508  0.0372 -0.2992 -0.3701
  168MOL0     C22564   2.827   5.870  10.372 -0.3576  0.9945  0.2503
  168MOL0     C22565   2.757   5.756  10.301  0.9213  0.8847 -0.2517
  168MOL0     C22566   2.606   5.745  10.355  0.1942 -0.9865 -0.7122
  168MOL0     C22567   2.517   5.662  10.267  0.4054 -0.1926 -0.0675
  168MOL0     C22568   2.370   5.679  10.319 -0.5519 -0.3395 -0.1132
  168MOL0     O22569   2.274   5.603  10.238  0.4678 -0.4593  1.2026
  168MOL0     C22570   2.153   5.560  10.281 -0.9875  0.1644 -0.6442
  168MOL0     C22571   2.089   5.600  10.406 -0.0785 -0.0832  0.4439
  168MOL0     C22572   1.972   5.529  10.449  0.2047  0.9151  0.0536
  168MOL0     C22573   1.907   5.430  10.366  0.4592 -0.1015 -0.9642
  168MOL0     C22574   1.773   5.364  10.415 -0.0498 -0.3550 -1.0565
  168MOL0     O22575   1.753   5.397  10.548 -0.1204 -0.1676 -0.1630
  168MOL0     C22576   1.637   5.377  10.613 -0.1024 -0.1987 -0.7888
  168MOL0     C22577   1.642   5.371  10.753  0.1727  0.2272 -0.2212
  168MOL0     C22578   1.520   5.347  10.823 -0.2364 -0.0180 -0.1426
  168MOL0     C22579   1.400   5.316  10.762  0.1338 -0.4672 -0.0862
  168MOL0     O22580   1.300   5.272  10.847  0.2324 -0.6863 -0.0209
  168MOL0     C22581   1.158   5.299  10.804 -0.4040  0.9010  0.0847
  168MOL0     C22582   1.107   5.164  10.736  0.1603  0.5753  0.0116
  168MOL0     C22583   1.089   5.066  10.849 -0.5035 -0.8301  0.1148
  168MOL0     C22584   0.976   4.973  10.809  0.2949  0.6970  0.7633
  168MOL0     C22585   0.839   5.041  10.796 -0.5076 -0.8371 -0.3233
  168MOL0     C22586   0.734   4.924  10.812  0.6922  0.3189  0.7542
  168MOL0     C22587   0.761   4.806  10.720 -1.2242 -0.3048  0.8551
  168MOL0     C22588   0.650   4.711  10.711 -0.2138 -0.0471  0.1847
  168MOL0    Cl22589   0.688   4.566  10.603  0.2451 -0.3441  0.1950
  168MOL0     C22590   1.392   5.320  10.614  0.6054  0.6737 -0.1643
  168MOL0     C22591   1.510   5.353  10.551 -0.4386  0.3868  0.2031
  168MOL0     O22592   1.700   5.298  10.345  0.7943 -0.2168 -0.6457
  168MOL0     C22593   1.958   5.410  10.240 -0.0560 -0.2784 -0.2161
  168MOL0     C22594   2.082   5.462  10.212  0.3071 -0.0358 -0.1358
  168MOL0     N22595   2.871   5.983  10.305 -0.2324 -0.5420 -0.6772
  168MOL0     N22596   2.879   6.067  10.398 -0.2259  0.4349  0.3502
  168MOL0     C22597   3.827   6.370  10.839  1.1933  0.1347  0.1488
  168MOL0     C22598   3.950   6.441  10.822  0.0150  0.2638 -0.2802
  168MOL0     C22599   4.319   6.600  10.733  0.0512 -0.6849 -0.3149
  168MOL0     C22600   4.425   6.660  10.808 -0.9234 -0.3011 -1.2531
  168MOL0     C22601   4.535   6.721  10.752  0.4420 -0.7659  0.3442
  168MOL0     C22602   4.559   6.711  10.618 -0.4806 -0.2197 -0.2392
  168MOL0     O22603   4.679   6.736  10.553 -0.7226  0.5699 -0.6841
  168MOL0     C22604   4.764   6.844  10.595  0.8415  0.0738 -0.4904
  168MOL0     C22605   4.855   6.884  10.477 -0.2865  0.2544  0.2188
  168MOL0     C22606   4.791   6.938  10.348 -0.4206  0.1015 -0.8580
  168MOL0     C22607   4.899   6.974  10.250  0.5874 -0.5448  0.0097
  168MOL0     C22608   4.943   6.852  10.186  0.6360  0.2342 -1.0124
  168MOL0     C22609   4.966   6.745  10.134 -0.4190  1.0911 -0.6828
  168MOL0     C22610   4.466   6.638  10.546  0.1155 -0.0380 -0.0078
  168MOL0     C22611   4.346   6.592  10.598  0.1940  0.6981 -0.1374
  168MOL0     C22612   4.263   6.511  10.498 -0.1259 -0.0572  0.2097
  168MOL0     H22613   4.130   6.164  10.734  0.4972 -1.0630  0.1484
  168MOL0     H22614   3.908   6.047  10.768  3.3064 -1.3658  0.3041
  168MOL0     H22615   3.695   6.176  10.595 -1.9377  0.0746 -0.9184
  168MOL0     H22616   3.701   6.036  10.677  2.2624  1.0699  0.5480
  168MOL0     H22617   3.456   6.230  10.631  1.5690  0.3607 -1.2120
  168MOL0     H22618   3.451   6.107  10.762  3.1111 -0.1402  0.8291
  168MOL0     H22619   3.514   5.952  10.539 -1.3177 -1.9499 -1.8238
  168MOL0     H22620   3.416   6.081  10.477 -2.3680 -1.2826  0.9945
  168MOL0     H22621   3.286   5.895  10.523 -1.6484  0.2076  0.2782
  168MOL0     H22622   3.317   5.889  10.690 -2.1069  0.5731  0.6697
  168MOL0     H22623   3.206   6.146  10.682 -1.6393 -1.1103  1.5964
  168MOL0     H22624   3.144   6.083  10.532  0.9883  1.6308 -0.4691
  168MOL0     H22625   3.048   5.883  10.678 -2.6480  0.2320 -0.0628
  168MOL0     H22626   3.139   5.946  10.815  1.3475  1.9354  0.7243
  168MOL0     H22627   3.010   6.165  10.800  0.9836  2.4477 -1.4323
  168MOL0     H22628   2.919   6.015  10.847 -0.1862 -0.1876 -0.3784
  168MOL0     H22629   2.773   6.125  10.669 -0.7457 -1.2842 -1.7732
  168MOL0     H22630   2.914   6.196  10.601 -3.9420  1.1567  0.7440
  168MOL0     H22631   2.823   5.810  10.589 -1.1712  1.5989  1.0281
  168MOL0     H22632   2.759   5.787  10.196  0.8778 -0.7577 -0.7673
  168MOL0     H22633   2.813   5.663  10.287 -0.5385  0.1181 -1.2629
  168MOL0     H22634   2.609   5.690  10.450 -2.1938 -3.4525 -1.9399
  168MOL0     H22635   2.573   5.849  10.360  2.1884 -0.3687  3.0508
  168MOL0     H22636   2.560   5.562  10.259 -0.2517 -0.6016  1.2281
  168MOL0     H22637   2.512   5.704  10.167  5.5538 -1.2429 -1.0482
  168MOL0     H22638   2.354   5.788  10.318 -0.2039 -0.1579 -4.7229
  168MOL0     H22639   2.358   5.656  10.426 -3.4685  4.2211  0.8303
  168MOL0     H22640   2.137   5.686  10.450  0.1055 -0.0982  0.2713
  168MOL0     H22641   1.931   5.569  10.540  2.8891  0.6375  1.4948
  168MOL0     H22642   1.722   5.415  10.811 -1.2073  2.4100  0.1432
  168MOL0     H22643   1.508   5.351  10.931 -1.4466 -0.3166 -0.2562
  168MOL0     H22644   1.108   5.323  10.898  1.2776 -1.5317  1.7392
  168MOL0     H22645   1.147   5.378  10.730  2.1778 -0.3912 -1.8606
  168MOL0     H22646   1.008   5.197  10.701  0.7822  1.1791 -1.2347
  168MOL0     H22647   1.174   5.128  10.657 -2.3947 -0.4930 -1.8297
  168MOL0     H22648   1.182   5.009  10.859  1.0728  1.4606 -0.6078
  168MOL0     H22649   1.065   5.116  10.943 -0.5410 -1.4293  0.4260
  168MOL0     H22650   0.963   4.891  10.880 -0.6150  2.1378  2.3302
  168MOL0     H22651   1.003   4.932  10.711 -0.4038 -1.5213  1.4374
  168MOL0     H22652   0.815   5.088  10.700  0.9331 -1.9427 -1.2686
  168MOL0     H22653   0.846   5.115  10.876  1.2116  1.3410 -2.3401
  168MOL0     H22654   0.744   4.889  10.915 -0.6816 -1.3992  0.3417
  168MOL0     H22655   0.635   4.965  10.791  0.8553 -0.3655 -1.5720
  168MOL0     H22656   0.846   4.742  10.748 -0.6732 -0.7092 -1.5598
  168MOL0     H22657   0.783   4.836  10.617  1.2102 -3.0578  0.4276
  168MOL0     H22658   0.618   4.683  10.812 -1.4790  1.0162  0.0996
  168MOL0     H22659   0.569   4.768  10.664 -1.3888 -0.3320  1.7878
  168MOL0     H22660   1.301   5.296  10.559  1.1964 -1.4713 -0.2965
  168MOL0     H22661   1.506   5.368  10.443 -0.6008  3.3061  0.5537
  168MOL0     H22662   1.929   5.324  10.179  1.5372  0.1431 -1.6649
  168MOL0     H22663   2.133   5.429  10.122  2.7171  0.9972  0.7853
  168MOL0     H22664   3.736   6.427  10.850  0.4719 -0.8987 -0.2622
  168MOL0     H22665   3.946   6.550  10.825 -0.4799  0.2271  0.4640
  168MOL0     H22666   4.405   6.673  10.914  2.1624 -0.2430 -0.5861
  168MOL0     H22667   4.617   6.754  10.815  1.9523  0.3697 -2.0383
  168MOL0     H22668   4.817   6.806  10.682 -0.8461  2.5528  1.7699
  168MOL0     H22669   4.705   6.930  10.626 -2.3714 -1.6548 -1.4328
  168MOL0     H22670   4.916   6.796  10.452  1.6033  2.1180 -2.1685
  168MOL0     H22671   4.920   6.963  10.516  0.0897 -0.1203  0.3717
  168MOL0     H22672   4.733   7.026  10.378 -0.2425 -1.1064  3.8410
  168MOL0     H22673   4.730   6.869  10.289 -1.3544  0.7371 -0.6574
  168MOL0     H22674   4.858   7.049  10.182 -0.3012 -1.4088 -0.4297
  168MOL0     H22675   4.990   7.006  10.302  1.2781 -1.0001 -0.8801
  168MOL0     H22676   4.975   6.647  10.091 -0.3571  0.1796  1.2934
  168MOL0     H22677   4.477   6.631  10.438 -0.2622 -2.1227  0.0554
  168MOL0     H22678   4.158   6.542  10.497  0.5552  2.3943 -0.8052
  168MOL0     H22679   4.305   6.509  10.398  0.3736  3.1896  0.2467
  168MOL0     H22680   4.268   6.407  10.531  0.7540  0.1347  0.7211
  169MOL0     O22681   3.035   1.981   7.000 -0.3776 -0.6541 -0.2848
  169MOL0     C22682   3.155   1.955   6.999 -0.1636  1.3092 -1.7826
  169MOL0     O22683   3.249   2.039   7.015 -1.1416  0.0282  0.2614
  169MOL0     C22684   3.234   2.162   7.080 -1.0978  0.0018  0.1212
  169MOL0     C22685   3.289   2.275   7.030 -0.4796 -0.1590 -0.4319
  169MOL0     C22686   3.280   2.403   7.085 -0.3385 -0.1954  0.4903
  169MOL0     C22687   3.203   2.421   7.199  0.6036  0.7170  0.0296
  169MOL0     O22688   3.165   2.547   7.257 -0.6544  0.1586 -0.7187
  169MOL0     C22689   3.151   2.653   7.162 -0.5027  0.1156 -0.5166
  169MOL0     C22690   3.074   2.777   7.219 -0.5245  0.2278 -0.7011
  169MOL0     C22691   2.921   2.769   7.227 -0.7942  0.0830  0.4817
  169MOL0     C22692   2.864   2.903   7.266  0.3330 -0.2226  0.2887
  169MOL0     C22693   2.722   2.924   7.209  0.0017 -0.0431  0.3699
  169MOL0     C22694   2.695   3.074   7.192 -0.0327  0.5842 -0.7789
  169MOL0     C22695   2.564   3.117   7.132  0.1865  0.1270 -0.3807
  169MOL0     C22696   2.551   3.092   6.978  0.1117 -0.1117 -1.1094
  169MOL0     N22697   2.428   3.162   6.932 -0.3809  0.5046  1.1492
  169MOL0     C22698   2.428   3.253   6.828 -0.1426 -0.4549  0.3080
  169MOL0     C22699   2.301   3.305   6.825 -0.1220 -0.2254 -0.2687
  169MOL0     C22700   2.238   3.410   6.743  0.2195 -0.7238 -0.1668
  169MOL0     C22701   2.347   3.479   6.662  0.4605  0.4182  0.2027
  169MOL0     C22702   2.298   3.579   6.549  0.0865 -0.6092 -0.9195
  169MOL0     C22703   2.215   3.693   6.605 -0.4386 -0.0043 -0.2072
  169MOL0     O22704   2.210   3.794   6.500  0.3936  0.4409 -0.4114
  169MOL0     C22705   2.111   3.892   6.489  0.0433 -0.4938 -0.4877
  169MOL0     C22706   2.006   3.910   6.583  0.4183  0.0427  0.4964
  169MOL0     C22707   1.918   4.017   6.561  0.4388  0.2766 -0.5439
  169MOL0     C22708   1.924   4.092   6.448  0.5186 -0.7478  0.3206
  169MOL0     C22709   1.840   4.213   6.429  0.9396  0.8879 -0.0125
  169MOL0     O22710   1.721   4.199   6.492 -0.0094  0.5463 -1.0206
  169MOL0     C22711   1.627   4.292   6.467  0.0056 -0.7657 -0.6004
  169MOL0     C22712   1.586   4.346   6.338 -0.5531  0.0918 -0.3192
  169MOL0     C22713   1.486   4.443   6.325 -0.3493  1.0676  0.0738
  169MOL0     C22714   1.428   4.490   6.438 -0.2555 -0.5200 -0.5433
  169MOL0     O22715   1.332   4.594   6.419  0.5086  0.1847 -0.0045
  169MOL0     C22716   1.194   4.587   6.444 -0.7550  0.0611  0.4769
  169MOL0     C22717   1.112   4.663   6.346  1.1257  0.3979  0.3549
  169MOL0     C22718   1.127   4.813   6.378 -0.7370 -0.6341 -1.4837
  169MOL0     C22719   1.052   4.900   6.272  0.4633  0.1675  0.9728
  169MOL0     C22720   1.029   5.038   6.323  0.0054 -0.1007  0.0698
  169MOL0     C22721   0.955   5.135   6.229 -0.4302  0.7360  0.0558
  169MOL0     C22722   1.057   5.216   6.147  0.2368 -0.2050  0.1851
  169MOL0     C22723   0.988   5.299   6.042  0.5605 -0.7746  0.2620
  169MOL0    Cl22724   0.899   5.447   6.099 -0.2629  0.1367 -0.1667
  169MOL0     C22725   1.462   4.436   6.561  0.4617  0.4330  0.9629
  169MOL0     C22726   1.567   4.350   6.575 -0.1239  0.1772  0.5464
  169MOL0     O22727   1.865   4.299   6.349  0.1571 -0.5101  0.8390
  169MOL0     C22728   2.018   4.065   6.345  0.1069  0.2701  0.0745
  169MOL0     C22729   2.113   3.971   6.366 -0.0398  0.1849  0.3107
  169MOL0     N22730   2.226   3.239   6.925 -0.3942 -0.1825  0.7875
  169MOL0     N22731   2.297   3.161   6.993 -0.1180 -0.2229  0.0394
  169MOL0     C22732   3.154   2.309   7.259  0.2518  0.0102 -0.8939
  169MOL0     C22733   3.175   2.178   7.209 -1.0908 -0.0900  0.7190
  169MOL0     C22734   3.184   1.809   6.953 -0.3752 -1.0071 -0.8415
  169MOL0     C22735   3.079   1.720   6.956  0.3519  0.9151  0.3563
  169MOL0     C22736   3.098   1.590   6.914  0.1962 -0.5508  0.1139
  169MOL0     C22737   3.218   1.536   6.876 -0.2557  0.0774  0.7353
  169MOL0     O22738   3.226   1.409   6.819 -0.1994  0.2931 -0.0765
  169MOL0     C22739   3.113   1.342   6.774 -0.3037 -0.0575 -0.4996
  169MOL0     C22740   3.045   1.269   6.891 -0.0445 -0.0047  0.0078
  169MOL0     C22741   3.153   1.180   6.966 -0.0898 -0.8104  0.1387
  169MOL0     C22742   3.104   1.122   7.092  0.0648  1.2227 -0.4961
  169MOL0     C22743   3.110   1.201   7.211  0.5056  0.1693  0.1044
  169MOL0     C22744   3.114   1.261   7.314  0.2725 -0.6370  0.5475
  169MOL0     C22745   3.322   1.616   6.877 -0.4913 -1.0204 -0.3444
  169MOL0     C22746   3.311   1.760   6.908  0.7797  0.7017  1.0032
  169MOL0     C22747   3.433   1.851   6.898  0.8082 -0.4567 -0.1325
  169MOL0     H22748   3.347   2.269   6.939  3.4556  0.5233  1.7919
  169MOL0     H22749   3.334   2.487   7.042  0.2038  0.6106  2.5964
  169MOL0     H22750   3.248   2.691   7.128  0.0934 -0.9659 -0.0688
  169MOL0     H22751   3.099   2.613   7.074  0.2903 -2.6484  0.1749
  169MOL0     H22752   3.113   2.855   7.154  0.6436 -1.8763 -2.6378
  169MOL0     H22753   3.108   2.811   7.318  0.9708  2.1362 -1.7997
  169MOL0     H22754   2.902   2.693   7.303  1.8042  0.4478  1.5918
  169MOL0     H22755   2.888   2.740   7.127  1.1917 -1.8837  0.3291
  169MOL0     H22756   2.878   2.916   7.374  1.0573  0.7947  0.0846
  169MOL0     H22757   2.918   2.988   7.224 -0.4632  1.6626  2.8235
  169MOL0     H22758   2.721   2.882   7.108 -0.0857  1.3518 -0.2294
  169MOL0     H22759   2.642   2.889   7.274  0.9019  0.7780  1.9701
  169MOL0     H22760   2.693   3.125   7.289 -0.1802 -1.4282  0.3247
  169MOL0     H22761   2.757   3.113   7.110 -0.8303  2.0218 -0.7287
  169MOL0     H22762   2.568   3.224   7.151  3.4052  0.1658 -0.8146
  169MOL0     H22763   2.473   3.080   7.182  1.4343 -3.1153 -0.2715
  169MOL0     H22764   2.637   3.145   6.936 -0.9641  2.5197 -0.2573
  169MOL0     H22765   2.559   2.985   6.960  4.1124 -0.5686  1.9708
  169MOL0     H22766   2.512   3.302   6.779  0.1265 -0.0350  1.1642
  169MOL0     H22767   2.154   3.370   6.686 -0.7984 -1.9121  2.0220
  169MOL0     H22768   2.204   3.484   6.816 -1.4635 -0.3025 -1.3243
  169MOL0     H22769   2.421   3.523   6.729  0.0919 -3.2015  3.2778
  169MOL0     H22770   2.396   3.392   6.619 -2.1685 -3.2565  3.8944
  169MOL0     H22771   2.234   3.535   6.472 -0.7650  1.6340 -1.5727
  169MOL0     H22772   2.387   3.616   6.498 -0.3132  1.3217 -0.2890
  169MOL0     H22773   2.267   3.737   6.690  1.8231 -2.6229 -0.0812
  169MOL0     H22774   2.116   3.658   6.636 -0.2866 -1.0204 -0.8124
  169MOL0     H22775   2.003   3.854   6.676  1.6845  0.4282  0.7876
  169MOL0     H22776   1.856   4.047   6.644  2.6611 -0.5093  1.5186
  169MOL0     H22777   1.649   4.317   6.255  0.1738 -0.5238  0.4345
  169MOL0     H22778   1.471   4.488   6.228  0.1387  0.9678 -0.0488
  169MOL0     H22779   1.169   4.480   6.442 -3.3713  0.6095 -1.0281
  169MOL0     H22780   1.163   4.632   6.539 -4.1370 -2.6648  0.8872
  169MOL0     H22781   1.147   4.655   6.243 -0.7770  0.0721 -0.3047
  169MOL0     H22782   1.012   4.626   6.367  1.2921 -0.6141 -0.5760
  169MOL0     H22783   1.079   4.834   6.474  0.0346  0.9437 -1.4158
  169MOL0     H22784   1.232   4.842   6.378 -1.4081  2.8183  2.8755
  169MOL0     H22785   0.959   4.849   6.246 -0.0701  0.5191  2.1481
  169MOL0     H22786   1.108   4.909   6.178  0.3225 -2.1279  0.6155
  169MOL0     H22787   1.121   5.093   6.343  1.1554 -2.2364  0.9450
  169MOL0     H22788   0.976   5.028   6.418 -3.3680 -2.7517 -1.8546
  169MOL0     H22789   0.874   5.081   6.179  1.0449 -0.9993 -0.5734
  169MOL0     H22790   0.899   5.214   6.279 -0.0597 -0.3825  2.3722
  169MOL0     H22791   1.125   5.155   6.087  2.1867  1.9165  0.0814
  169MOL0     H22792   1.109   5.280   6.219 -0.3223 -1.0016  1.3362
  169MOL0     H22793   1.057   5.328   5.963 -3.7863 -0.0723 -3.7362
  169MOL0     H22794   0.918   5.227   6.000 -1.8427  0.8216  1.2814
  169MOL0     H22795   1.403   4.460   6.648  0.6211 -0.4537  1.3298
  169MOL0     H22796   1.583   4.300   6.670 -3.1191  0.5364  1.3625
  169MOL0     H22797   2.009   4.120   6.252 -1.0087  2.1224  1.2303
  169MOL0     H22798   2.185   3.953   6.286  2.0196  3.5769  1.1690
  169MOL0     H22799   3.096   2.320   7.350 -0.0929  1.3462 -1.2638
  169MOL0     H22800   3.154   2.090   7.268  0.4049 -0.7506  0.3081
  169MOL0     H22801   2.988   1.751   7.006  0.5939  0.7500  0.9047
  169MOL0     H22802   3.012   1.524   6.919  1.4201 -2.1688  0.3510
  169MOL0     H22803   3.135   1.259   6.706 -0.4328  1.1801 -2.1128
  169MOL0     H22804   3.054   1.421   6.727 -0.5057  1.0966  1.5450
  169MOL0     H22805   2.960   1.209   6.858  1.4228 -2.5542  0.5745
  169MOL0     H22806   2.997   1.336   6.962 -2.3306 -3.1262  1.6379
  169MOL0     H22807   3.233   1.248   6.998 -1.3465 -0.4503  2.8171
  169MOL0     H22808   3.190   1.104   6.897  0.1587  1.4475 -2.3800
  169MOL0     H22809   3.000   1.088   7.082 -0.3657  1.6218  1.9797
  169MOL0     H22810   3.158   1.028   7.105 -1.5512  0.4577  1.3247
  169MOL0     H22811   3.108   1.324   7.401 -0.3479 -2.4846  1.9108
  169MOL0     H22812   3.424   1.584   6.858 -0.7836 -1.4066 -1.3289
  169MOL0     H22813   3.491   1.847   6.991  0.9139 -0.9031 -0.2173
  169MOL0     H22814   3.499   1.809   6.822  0.5620 -1.0961  0.0030
  169MOL0     H22815   3.415   1.955   6.868 -1.3371 -0.0883  2.0486
  170MOL0     O22816   4.760   3.157   7.880 -0.2612  0.0750 -0.2506
  170MOL0     C22817   4.642   3.188   7.885  0.4391  0.5768  0.7534
  170MOL0     O22818   4.549   3.129   7.975 -0.2463  0.4858  0.2702
  170MOL0     C22819   4.588   3.011   8.035  0.5079 -0.0538  0.0067
  170MOL0     C22820   4.518   2.889   8.013 -0.3778  0.1128  0.9938
  170MOL0     C22821   4.563   2.777   8.079 -0.0879 -0.0645  0.4449
  170MOL0     C22822   4.682   2.773   8.161  0.0176  0.6270 -0.0510
  170MOL0     O22823   4.741   2.668   8.232 -0.5463 -0.2630 -0.0269
  170MOL0     C22824   4.648   2.544   8.239 -0.0252 -1.3277  0.1938
  170MOL0     C22825   4.692   2.435   8.337  0.2561  0.8672  0.5094
  170MOL0     C22826   4.732   2.500   8.474 -0.0336  0.3330 -0.5998
  170MOL0     C22827   4.740   2.398   8.582 -0.0430 -0.3262  0.2858
  170MOL0     C22828   4.737   2.459   8.724  0.0459  0.1131  0.1141
  170MOL0     C22829   4.722   2.352   8.824  0.2941  0.3414  0.9363
  170MOL0     C22830   4.722   2.406   8.968 -0.6271 -0.3564 -0.2445
  170MOL0     C22831   4.862   2.433   9.013  0.3744 -0.3283  0.5534
  170MOL0     N22832   4.932   2.307   9.041  0.2654  0.0238 -0.0756
  170MOL0     C22833   4.950   2.257   9.167 -0.2476 -0.0503 -0.5057
  170MOL0     C22834   5.045   2.160   9.161 -0.1684  0.4641 -0.6314
  170MOL0     C22835   5.107   2.087   9.275  0.1637  0.2507 -0.6011
  170MOL0     C22836   5.250   2.115   9.271  1.0160 -0.4876  0.3008
  170MOL0     C22837   5.274   2.254   9.320 -0.4810 -0.3855  0.2495
  170MOL0     C22838   5.426   2.290   9.306  0.8898  0.4725  0.5461
  170MOL0     O22839   5.481   2.276   9.180 -0.3868  0.5813  0.5198
  170MOL0     C22840   5.432   2.358   9.084  0.2384  0.3628 -0.2341
  170MOL0     C22841   5.475   2.325   8.953 -0.2090  0.2854 -0.4826
  170MOL0     C22842   5.451   2.398   8.839  0.3677  0.0763  0.7120
  170MOL0     C22843   5.358   2.495   8.846 -0.8007  0.0051 -0.3966
  170MOL0     C22844   5.315   2.562   8.717  0.1650 -0.2399  0.1907
  170MOL0     O22845   5.381   2.532   8.600  0.3973 -0.1479 -0.1054
  170MOL0     C22846   5.320   2.589   8.485 -0.8232  0.0885 -0.8549
  170MOL0     C22847   5.186   2.582   8.448 -0.7551 -0.4978 -1.2088
  170MOL0     C22848   5.139   2.648   8.334  0.4726  0.7258 -0.6090
  170MOL0     C22849   5.219   2.705   8.239  0.0995  0.8671  0.7580
  170MOL0     O22850   5.194   2.755   8.116  0.1529  0.0450 -0.1104
  170MOL0     C22851   5.075   2.839   8.116  0.7784  0.7684 -0.9989
  170MOL0     C22852   5.047   2.896   7.976  0.1034  0.3399 -0.5936
  170MOL0     C22853   5.033   2.778   7.872 -0.0450  0.2651 -0.1862
  170MOL0     C22854   4.922   2.667   7.899  0.0252 -0.6558 -0.0920
  170MOL0     C22855   4.935   2.545   7.804  0.6512  0.8908 -0.5645
  170MOL0     C22856   4.832   2.442   7.856  0.4154 -0.0669 -0.4162
  170MOL0     C22857   4.863   2.371   7.991  0.7099 -0.1636 -0.5941
  170MOL0     C22858   4.978   2.280   7.978 -1.0047  0.1140  0.2019
  170MOL0    Cl22859   4.957   2.146   7.843 -0.5224 -0.5535  0.5242
  170MOL0     C22860   5.357   2.688   8.263  0.5835  0.0402  0.9537
  170MOL0     C22861   5.406   2.633   8.381 -0.0926  0.1907 -0.6837
  170MOL0     O22862   5.213   2.635   8.728  0.3532 -0.2358 -0.2429
  170MOL0     C22863   5.306   2.533   8.971 -0.8266  0.2533 -0.1587
  170MOL0     C22864   5.348   2.473   9.093  0.0626 -0.0184 -0.0640
  170MOL0     N22865   5.086   2.150   9.027  0.8019  0.1767 -0.2027
  170MOL0     N22866   5.014   2.232   8.951  0.5606 -0.2483 -0.6757
  170MOL0     C22867   4.737   2.891   8.194  0.0674 -0.1243  0.4494
  170MOL0     C22868   4.693   3.008   8.128  0.2384 -0.7145  0.1256
  170MOL0     C22869   4.592   3.315   7.819 -0.2338 -0.8758  0.6758
  170MOL0     C22870   4.486   3.379   7.874  0.4330  0.3684 -0.9891
  170MOL0     C22871   4.432   3.502   7.820  0.2672 -0.0426  0.2061
  170MOL0     C22872   4.490   3.557   7.705 -0.0981 -0.0299 -0.3805
  170MOL0     O22873   4.448   3.676   7.657 -0.2911 -0.6859  0.4731
  170MOL0     C22874   4.539   3.766   7.580 -0.2623  0.7858  0.7410
  170MOL0     C22875   4.590   3.875   7.679  0.7218  0.5246 -0.6904
  170MOL0     C22876   4.689   3.969   7.601 -0.0684 -0.2492  0.7116
  170MOL0     C22877   4.823   3.913   7.539  1.2772 -1.1080 -0.8527
  170MOL0     C22878   4.811   3.838   7.411 -0.2803 -0.2604  0.5286
  170MOL0     C22879   4.792   3.762   7.315 -0.1510  0.4773 -0.8051
  170MOL0     C22880   4.585   3.480   7.639  1.4453 -0.2818  0.3938
  170MOL0     C22881   4.646   3.369   7.697 -0.1578 -0.6977 -0.2774
  170MOL0     C22882   4.739   3.300   7.606  0.3797 -0.4360  0.2061
  170MOL0     H22883   4.434   2.882   7.945  2.2476 -0.5887 -2.4798
  170MOL0     H22884   4.504   2.690   8.053 -2.8100  0.6912  3.4185
  170MOL0     H22885   4.553   2.582   8.277  1.3353  2.2084  0.3769
  170MOL0     H22886   4.630   2.494   8.143 -0.4904 -0.5638 -0.1218
  170MOL0     H22887   4.773   2.381   8.289  1.4254  3.1806 -0.2937
  170MOL0     H22888   4.610   2.365   8.353 -0.9724  1.9006 -0.9920
  170MOL0     H22889   4.646   2.559   8.507 -1.0477 -1.3144 -0.1893
  170MOL0     H22890   4.826   2.556   8.474 -0.0645  0.4018  0.5675
  170MOL0     H22891   4.653   2.336   8.560 -1.9972  2.7437 -1.4439
  170MOL0     H22892   4.834   2.347   8.557  0.3190  1.6261 -2.9826
  170MOL0     H22893   4.825   2.521   8.742 -0.1874 -0.0489  2.0034
  170MOL0     H22894   4.644   2.516   8.720 -2.4130 -3.6320 -1.3917
  170MOL0     H22895   4.625   2.308   8.800  1.7138 -1.1494 -2.8274
  170MOL0     H22896   4.800   2.275   8.811 -3.6949 -3.7742 -1.8219
  170MOL0     H22897   4.674   2.322   9.019 -4.3369  1.2560 -0.7431
  170MOL0     H22898   4.664   2.499   8.960  0.4745  0.6638  2.3612
  170MOL0     H22899   4.911   2.487   8.932 -0.2293 -1.5880 -0.7026
  170MOL0     H22900   4.870   2.500   9.099  0.8897  2.0470 -1.2637
  170MOL0     H22901   4.898   2.281   9.259 -1.4363  1.6941 -1.5689
  170MOL0     H22902   5.060   2.119   9.368 -0.5671  1.2961 -1.3074
  170MOL0     H22903   5.099   1.979   9.265  1.0604 -0.0335  1.2556
  170MOL0     H22904   5.299   2.043   9.336 -1.0512 -1.9884  0.2911
  170MOL0     H22905   5.303   2.106   9.175  2.0845 -4.2872  1.0995
  170MOL0     H22906   5.255   2.247   9.427 -0.3305  0.3967  0.3354
  170MOL0     H22907   5.211   2.334   9.280  0.2647  0.7547  1.2701
  170MOL0     H22908   5.489   2.247   9.385  0.4262  3.7874  2.9611
  170MOL0     H22909   5.437   2.393   9.342 -3.7556  1.2770  0.2639
  170MOL0     H22910   5.536   2.236   8.940  0.5154  0.5486  0.9992
  170MOL0     H22911   5.490   2.363   8.744 -1.1419  0.1807  0.0225
  170MOL0     H22912   5.121   2.547   8.528  1.4911  0.6484  1.2712
  170MOL0     H22913   5.032   2.636   8.320  0.1566  0.2475  1.7802
  170MOL0     H22914   4.989   2.781   8.149  0.8526  1.1484 -0.1056
  170MOL0     H22915   5.079   2.921   8.189  0.7983  0.8533 -1.0958
  170MOL0     H22916   4.958   2.957   7.964  0.7905  1.4911 -0.0038
  170MOL0     H22917   5.141   2.950   7.959 -0.2980  1.8031  1.5010
  170MOL0     H22918   5.008   2.824   7.776 -1.7311  1.8997  0.9547
  170MOL0     H22919   5.129   2.725   7.871 -0.9445 -1.5370  1.2578
  170MOL0     H22920   4.820   2.705   7.883  0.0338 -1.4309 -2.3502
  170MOL0     H22921   4.933   2.626   8.000 -1.1158 -3.7474 -1.0999
  170MOL0     H22922   5.038   2.511   7.818  0.3535  0.7649  1.7141
  170MOL0     H22923   4.923   2.565   7.697 -0.3889  0.2532 -0.5799
  170MOL0     H22924   4.741   2.499   7.876 -0.0207 -1.3272  1.4521
  170MOL0     H22925   4.817   2.372   7.773 -1.5846 -1.1703  0.7945
  170MOL0     H22926   4.778   2.310   8.024 -0.1386  0.5107 -1.4984
  170MOL0     H22927   4.879   2.436   8.078  2.0822 -2.8939  1.3831
  170MOL0     H22928   5.074   2.330   7.961 -1.5104  1.1104  0.1711
  170MOL0     H22929   4.971   2.223   8.071 -3.8277 -1.4898 -0.8663
  170MOL0     H22930   5.427   2.727   8.190 -0.7498 -0.0430 -0.4216
  170MOL0     H22931   5.512   2.628   8.402 -0.3254  1.9419  1.1968
  170MOL0     H22932   5.231   2.611   8.959  2.1494  3.1666 -1.4683
  170MOL0     H22933   5.310   2.501   9.191 -0.0073 -0.1427 -0.0551
  170MOL0     H22934   4.831   2.901   8.248  1.4212  2.5927 -2.1055
  170MOL0     H22935   4.743   3.104   8.137 -2.6565  0.8789  0.3952
  170MOL0     H22936   4.445   3.331   7.963  0.7536  0.3939 -0.8231
  170MOL0     H22937   4.356   3.565   7.865  1.6244 -0.2076  2.9900
  170MOL0     H22938   4.483   3.821   7.504 -3.2655  2.7577  4.0862
  170MOL0     H22939   4.622   3.709   7.536 -1.0257  0.7880 -0.8013
  170MOL0     H22940   4.640   3.829   7.765 -0.5899  0.4545  0.0614
  170MOL0     H22941   4.505   3.931   7.719  2.5531  4.1827 -1.4915
  170MOL0     H22942   4.715   4.054   7.665  0.4421  2.7515 -3.1654
  170MOL0     H22943   4.628   4.019   7.526  0.9422 -2.8648 -2.0733
  170MOL0     H22944   4.893   3.990   7.506 -0.4332  0.9851  0.1232
  170MOL0     H22945   4.877   3.854   7.614  0.8559  1.4915  1.6706
  170MOL0     H22946   4.765   3.697   7.234 -0.1902 -0.0520 -0.3744
  170MOL0     H22947   4.617   3.512   7.541  0.6298 -0.7362 -0.0257
  170MOL0     H22948   4.707   3.199   7.580  2.1536 -0.3040 -3.1159
  170MOL0     H22949   4.742   3.353   7.510 -0.7446 -2.5099 -1.0625
  170MOL0     H22950   4.836   3.308   7.657 -0.1599  0.7066  1.0826
  171MOL0     O22951   5.545   3.138   3.224  0.0821  0.1286 -0.0931
  171MOL0     C22952   5.452   3.130   3.301 -0.9129  0.9780  0.3615
  171MOL0     O22953   5.404   3.231   3.368  0.0920  0.0001 -0.0065
  171MOL0     C22954   5.452   3.366   3.342  1.2393  0.5076 -0.3215
  171MOL0     C22955   5.344   3.467   3.350 -0.3535  0.1135  0.5074
  171MOL0     C22956   5.377   3.599   3.328  0.4087 -0.1825  0.5579
  171MOL0     C22957   5.514   3.636   3.306  0.2054 -0.8895  0.2168
  171MOL0     O22958   5.539   3.769   3.318 -0.5547  0.2493 -0.3569
  171MOL0     C22959   5.654   3.800   3.406 -0.9303  0.7696 -0.1160
  171MOL0     C22960   5.673   3.949   3.403  0.1289 -0.9448 -0.3373
  171MOL0     C22961   5.791   3.988   3.486  0.1965  0.6570 -0.0145
  171MOL0     C22962   5.813   4.144   3.486 -0.0530  0.7055 -0.4495
  171MOL0     C22963   5.898   4.182   3.610 -0.6106 -0.6273 -0.0233
  171MOL0     C22964   6.052   4.148   3.620 -0.0655 -0.0343 -0.2865
  171MOL0     C22965   6.127   4.186   3.753  0.5437 -0.5210 -0.4993
  171MOL0     C22966   6.074   4.102   3.879 -0.0115  0.3366  0.2413
  171MOL0     N22967   6.075   3.963   3.856 -0.3577  0.7801  0.1559
  171MOL0     C22968   6.124   3.875   3.943 -0.2316  0.1261 -0.1055
  171MOL0     C22969   6.059   3.765   3.932  1.3073  0.0711 -0.2607
  171MOL0     C22970   6.082   3.641   4.007 -0.6756  0.2839 -0.5085
  171MOL0     C22971   6.225   3.588   3.998  0.0501  0.2088  0.2468
  171MOL0     C22972   6.254   3.513   3.864  0.1829 -0.3471  0.0794
  171MOL0     C22973   6.180   3.381   3.836  0.1222  0.7709 -0.8886
  171MOL0     O22974   6.219   3.294   3.946 -0.5636 -0.7947  0.6666
  171MOL0     C22975   6.140   3.186   3.972 -1.6245  0.1932 -0.6356
  171MOL0     C22976   5.999   3.190   3.998  0.2931 -0.0351  0.5395
  171MOL0     C22977   5.928   3.076   4.023  0.4439 -0.0991 -1.9083
  171MOL0     C22978   5.999   2.953   4.038  0.1623 -0.4962 -0.2405
  171MOL0     C22979   5.929   2.826   4.063  1.0369  0.3203 -0.5271
  171MOL0     O22980   5.979   2.712   4.006  0.3524 -0.6136  0.4006
  171MOL0     C22981   5.931   2.589   4.040  0.1244  0.1823  0.4067
  171MOL0     C22982   6.019   2.480   4.041 -0.1223  0.2035  1.9375
  171MOL0     C22983   5.971   2.354   4.049 -0.2731 -0.7369 -0.2911
  171MOL0     C22984   5.840   2.324   4.066  0.2508 -0.1647 -0.8460
  171MOL0     O22985   5.807   2.187   4.077  0.9741 -0.7467  0.0340
  171MOL0     C22986   5.684   2.138   4.008  0.7992 -0.3152 -0.6176
  171MOL0     C22987   5.651   1.994   4.035 -0.2287  0.0134 -0.1484
  171MOL0     C22988   5.502   1.950   4.003  0.0094 -0.7659 -0.0637
  171MOL0     C22989   5.482   1.983   3.857  0.3825 -0.5063 -0.4425
  171MOL0     C22990   5.351   1.927   3.808  0.2010 -0.2084 -0.2174
  171MOL0     C22991   5.219   1.979   3.865  0.1183 -0.5649  0.8153
  171MOL0     C22992   5.090   1.901   3.815 -0.2951 -1.2778  0.7404
  171MOL0     C22993   4.957   1.925   3.891 -0.0014  0.4554 -0.9617
  171MOL0    Cl22994   4.872   2.072   3.850  0.1767 -0.2560  0.1909
  171MOL0     C22995   5.744   2.435   4.071 -0.8904  0.4946 -0.7275
  171MOL0     C22996   5.797   2.567   4.055  0.1654 -0.4940  0.3834
  171MOL0     O22997   5.812   2.846   4.112  0.0713  0.1046 -0.2615
  171MOL0     C22998   6.134   2.956   4.009  0.8803  0.2533  0.4083
  171MOL0     C22999   6.208   3.066   3.980 -0.1375 -1.0082  0.2401
  171MOL0     N23000   5.964   3.787   3.825 -0.0244  0.3174 -0.1244
  171MOL0     N23001   5.971   3.907   3.786 -0.2275  0.3000 -0.4824
  171MOL0     C23002   5.613   3.540   3.303 -0.1071 -0.4206 -0.6216
  171MOL0     C23003   5.580   3.410   3.325  0.6392 -0.2762 -0.6729
  171MOL0     C23004   5.394   2.997   3.329 -0.5197 -0.0714  0.3022
  171MOL0     C23005   5.476   2.895   3.380  0.2644  0.8981  0.2287
  171MOL0     C23006   5.424   2.779   3.432 -0.1394  1.1008  0.5260
  171MOL0     C23007   5.283   2.761   3.440 -0.2798  0.2145  0.0213
  171MOL0     O23008   5.240   2.644   3.500 -0.2237  0.4509  0.1002
  171MOL0     C23009   5.160   2.564   3.424  0.7078 -0.0199 -0.8983
  171MOL0     C23010   5.242   2.436   3.394  0.9566 -0.1732 -0.7925
  171MOL0     C23011   5.158   2.322   3.331  0.2839  0.1144  0.1402
  171MOL0     C23012   5.034   2.281   3.422 -0.6596 -0.8426  0.1809
  171MOL0     C23013   4.976   2.156   3.372 -0.0807 -0.3485  0.2834
  171MOL0     C23014   4.915   2.057   3.340 -0.3405  0.5983  0.5533
  171MOL0     C23015   5.197   2.858   3.391 -0.1940  0.0592  0.5094
  171MOL0     C23016   5.257   2.976   3.341  0.8993  0.2861  0.4758
  171MOL0     C23017   5.146   3.074   3.301  0.1673  0.5337  0.6865
  171MOL0     H23018   5.238   3.447   3.358 -0.2878 -1.5809 -1.8764
  171MOL0     H23019   5.309   3.683   3.335  1.0327  0.4224 -0.3583
  171MOL0     H23020   5.639   3.777   3.512 -0.8096 -1.5766 -0.5563
  171MOL0     H23021   5.743   3.769   3.351 -1.5568  1.4977 -1.6078
  171MOL0     H23022   5.602   4.017   3.449  2.6679  0.4220  1.8505
  171MOL0     H23023   5.681   3.977   3.297  3.7565  1.9750  0.4760
  171MOL0     H23024   5.884   3.941   3.451  3.3638  5.1997  1.4098
  171MOL0     H23025   5.776   3.964   3.591 -0.8092 -0.8701 -0.4739
  171MOL0     H23026   5.855   4.181   3.393 -2.9342  4.6541 -0.4425
  171MOL0     H23027   5.718   4.199   3.495 -1.0475 -0.7038 -1.7727
  171MOL0     H23028   5.899   4.289   3.630  2.7124  0.2825 -3.6695
  171MOL0     H23029   5.851   4.140   3.699 -0.0433 -1.1787  0.0267
  171MOL0     H23030   6.074   4.041   3.608  0.3741 -0.5170  3.5367
  171MOL0     H23031   6.091   4.205   3.535  0.8306  1.5600  1.1314
  171MOL0     H23032   6.110   4.291   3.778  1.3251 -0.0238 -1.9163
  171MOL0     H23033   6.235   4.168   3.756  0.3654 -1.6010 -0.0994
  171MOL0     H23034   6.144   4.125   3.960 -0.2109  0.8011  0.2850
  171MOL0     H23035   5.970   4.131   3.898 -0.8525 -0.6679 -2.4041
  171MOL0     H23036   6.203   3.895   4.015  0.7903  1.9446 -1.6419
  171MOL0     H23037   6.061   3.639   4.115  2.2088 -2.6823  0.1650
  171MOL0     H23038   6.011   3.566   3.971 -2.5222  0.0405  3.1502
  171MOL0     H23039   6.297   3.667   4.021  0.3390  0.3637 -1.0772
  171MOL0     H23040   6.256   3.509   4.068  1.1707 -3.2280 -3.6767
  171MOL0     H23041   6.360   3.493   3.848  0.6854 -0.0458  2.6433
  171MOL0     H23042   6.227   3.575   3.778  1.5235 -2.1237 -1.7245
  171MOL0     H23043   6.213   3.349   3.737 -1.2929 -0.5961 -0.9443
  171MOL0     H23044   6.074   3.402   3.852 -0.0623 -0.9365  0.3635
  171MOL0     H23045   5.944   3.284   4.001 -3.1165 -1.8812  1.7652
  171MOL0     H23046   5.822   3.079   4.047  1.2425 -0.6028  2.4294
  171MOL0     H23047   6.125   2.491   4.019  0.0156 -2.1141  1.2530
  171MOL0     H23048   6.041   2.271   4.049  1.6518  0.6828 -3.4151
  171MOL0     H23049   5.601   2.203   4.036  3.7039  3.3947  0.1616
  171MOL0     H23050   5.704   2.150   3.901 -1.1073  2.4561 -0.7705
  171MOL0     H23051   5.728   1.935   3.984  1.0447 -0.5499  2.2815
  171MOL0     H23052   5.652   1.989   4.144 -2.0464  0.7990 -0.0619
  171MOL0     H23053   5.489   1.842   4.016  0.7296 -0.7428  1.0393
  171MOL0     H23054   5.436   2.008   4.068  0.9429 -1.2348  1.3463
  171MOL0     H23055   5.568   1.961   3.794  2.0817 -0.2289  1.6835
  171MOL0     H23056   5.479   2.092   3.842  2.1207 -0.5599 -1.4624
  171MOL0     H23057   5.359   1.819   3.826  0.2708  0.2041  2.8237
  171MOL0     H23058   5.349   1.939   3.700  1.6773  0.0018 -0.2395
  171MOL0     H23059   5.218   1.978   3.975 -2.1198  0.0318  0.8469
  171MOL0     H23060   5.201   2.086   3.850 -0.6469 -0.6741  0.8966
  171MOL0     H23061   5.102   1.792   3.812 -0.8442 -1.3221 -1.1174
  171MOL0     H23062   5.070   1.935   3.713 -1.4659  3.5125  2.2848
  171MOL0     H23063   4.892   1.840   3.867 -1.3268  1.2945 -0.4705
  171MOL0     H23064   4.971   1.916   3.999 -1.7120 -0.0979 -0.7515
  171MOL0     H23065   5.640   2.408   4.073 -0.7994  0.0963 -1.1938
  171MOL0     H23066   5.728   2.649   4.039  0.5400 -0.0870  0.8208
  171MOL0     H23067   6.192   2.864   4.016  2.0549  0.7402 -1.8000
  171MOL0     H23068   6.315   3.061   3.962  0.1412  0.5485  1.3324
  171MOL0     H23069   5.717   3.571   3.299 -0.5438  1.0933 -1.0035
  171MOL0     H23070   5.653   3.330   3.322 -0.3159 -1.2509  0.7697
  171MOL0     H23071   5.584   2.902   3.384  0.3316 -0.0360  0.5079
  171MOL0     H23072   5.489   2.702   3.474 -1.2945 -1.7520 -2.5013
  171MOL0     H23073   5.142   2.599   3.321  0.1628  0.6497 -0.5866
  171MOL0     H23074   5.062   2.550   3.471  1.0247 -0.8194 -0.4671
  171MOL0     H23075   5.283   2.396   3.487 -1.7369  0.9631  1.0081
  171MOL0     H23076   5.329   2.453   3.329  1.3600 -0.4437 -0.3381
  171MOL0     H23077   5.215   2.230   3.316 -1.4211 -0.8686 -0.4669
  171MOL0     H23078   5.121   2.355   3.233  0.8647  2.3136  0.5996
  171MOL0     H23079   5.083   2.264   3.518 -1.2128 -0.0209  0.6096
  171MOL0     H23080   4.961   2.362   3.418  0.6680  0.3500 -2.1626
  171MOL0     H23081   4.896   1.966   3.288 -2.1442  0.6689  1.0030
  171MOL0     H23082   5.089   2.848   3.405  0.1634 -0.3794  3.7441
  171MOL0     H23083   5.184   3.147   3.229  2.5760  1.2404  2.5301
  171MOL0     H23084   5.064   3.026   3.248  1.5169 -1.1742  0.0377
  171MOL0     H23085   5.110   3.125   3.391  0.1566  2.5075 -0.3809
  172MOL0     O23086   1.945   4.851   2.027 -0.2486 -0.6985  0.2218
  172MOL0     C23087   1.967   4.965   2.069 -0.2264  1.0180 -0.1261
  172MOL0     O23088   2.087   5.006   2.124 -0.1605  0.1134 -0.2596
  172MOL0     C23089   2.188   4.920   2.171  0.1853 -0.3479 -0.6863
  172MOL0     C23090   2.275   4.852   2.086  0.3761  0.5586 -0.3837
  172MOL0     C23091   2.359   4.759   2.142 -0.6537 -0.5073  0.0772
  172MOL0     C23092   2.374   4.742   2.290  0.3246  0.6268  1.1304
  172MOL0     O23093   2.450   4.631   2.342  0.8810 -0.6870 -0.0051
  172MOL0     C23094   2.476   4.515   2.268 -0.3919  0.3683  1.0992
  172MOL0     C23095   2.538   4.418   2.362  0.4629 -0.4967 -0.3977
  172MOL0     C23096   2.584   4.288   2.291  0.0545 -0.0490 -0.4483
  172MOL0     C23097   2.621   4.192   2.404  0.0230  1.4401 -1.1539
  172MOL0     C23098   2.762   4.203   2.474 -0.4249  0.4544 -0.1549
  172MOL0     C23099   2.886   4.158   2.381  0.3413 -0.9995 -0.0965
  172MOL0     C23100   2.901   4.004   2.396  0.7042 -0.4663  0.2961
  172MOL0     C23101   2.992   3.966   2.281 -0.4563  1.9222 -0.5451
  172MOL0     N23102   3.013   3.823   2.271 -0.5304 -0.2331 -0.2039
  172MOL0     C23103   3.112   3.747   2.317  1.2334 -0.0861  0.0636
  172MOL0     C23104   3.098   3.622   2.262  0.3228  0.4019 -0.5454
  172MOL0     C23105   3.168   3.501   2.313 -0.4681  0.1059 -0.2647
  172MOL0     C23106   3.071   3.406   2.393  0.0661 -0.5956 -1.6395
  172MOL0     C23107   2.969   3.332   2.310 -0.9888  0.1422 -0.2971
  172MOL0     C23108   2.886   3.231   2.372  0.8110  0.5459 -0.4813
  172MOL0     O23109   2.952   3.106   2.388 -0.7386  0.7647  0.0017
  172MOL0     C23110   2.887   3.003   2.450 -0.2091  0.4381 -0.1210
  172MOL0     C23111   2.753   3.000   2.503 -1.0861  0.1698  0.9850
  172MOL0     C23112   2.703   2.880   2.561 -0.9389 -0.5485 -0.6346
  172MOL0     C23113   2.774   2.763   2.572 -0.4864  1.2147 -0.2804
  172MOL0     C23114   2.712   2.637   2.631 -0.4430  1.3551  0.3668
  172MOL0     O23115   2.770   2.514   2.616  0.6745 -0.0112 -0.0444
  172MOL0     C23116   2.713   2.404   2.673  0.6906 -0.1020  0.0783
  172MOL0     C23117   2.617   2.331   2.596  0.2466  0.2557 -0.6729
  172MOL0     C23118   2.547   2.223   2.658  0.7972 -0.3811 -0.9983
  172MOL0     C23119   2.555   2.194   2.797  0.0963  0.4447 -0.5011
  172MOL0     O23120   2.471   2.100   2.844  0.4339  0.0305 -0.0864
  172MOL0     C23121   2.440   2.112   2.988 -0.5830  0.1685  0.6417
  172MOL0     C23122   2.371   2.233   3.033 -1.0441  0.1072 -0.9860
  172MOL0     C23123   2.353   2.214   3.182 -0.8368  0.7227 -0.2045
  172MOL0     C23124   2.242   2.297   3.240  0.2147 -0.7941  0.1770
  172MOL0     C23125   2.280   2.452   3.227  1.2224  0.8451 -0.1541
  172MOL0     C23126   2.212   2.541   3.329 -0.1124  0.1658  0.8672
  172MOL0     C23127   2.281   2.684   3.321 -0.0831  0.5765 -0.2021
  172MOL0     C23128   2.274   2.750   3.187  0.3193 -0.2234  0.3615
  172MOL0    Cl23129   2.393   2.890   3.170 -0.7921  0.4785 -0.0460
  172MOL0     C23130   2.658   2.265   2.869 -0.5295 -0.9990 -0.3452
  172MOL0     C23131   2.735   2.369   2.810  0.3347 -0.0554 -0.2133
  172MOL0     O23132   2.609   2.655   2.693 -0.2776 -0.8723  0.6377
  172MOL0     C23133   2.904   2.761   2.518  0.0424  1.1852 -0.2680
  172MOL0     C23134   2.960   2.880   2.466 -0.4807  0.0616 -0.1556
  172MOL0     N23135   2.991   3.632   2.181 -0.0294  0.1579 -0.6533
  172MOL0     N23136   2.945   3.748   2.181  0.0453 -0.9236 -0.1262
  172MOL0     C23137   2.296   4.818   2.369 -0.0483 -0.0545 -0.1913
  172MOL0     C23138   2.202   4.906   2.314  0.7713  0.7644  0.1116
  172MOL0     C23139   1.864   5.064   2.043 -0.4343  1.2517 -0.0265
  172MOL0     C23140   1.910   5.201   2.050 -0.2765 -0.3294  0.6372
  172MOL0     C23141   1.820   5.308   2.031  0.8229  0.2077  0.2723
  172MOL0     C23142   1.686   5.278   2.002  0.0355 -0.9306  0.3527
  172MOL0     O23143   1.594   5.388   2.004 -0.0341 -0.3843 -1.2990
  172MOL0     C23144   1.444   5.372   1.996 -0.3188  0.1261 -0.6377
  172MOL0     C23145   1.381   5.498   2.048 -0.1921 -1.0794 -0.1712
  172MOL0     C23146   1.382   5.609   1.943 -0.4115 -0.7206  0.3402
  172MOL0     C23147   1.281   5.736   1.982  0.5964  0.0536  0.1273
  172MOL0     C23148   1.338   5.822   2.087  0.5102  0.6832 -0.0130
  172MOL0     C23149   1.381   5.886   2.176 -0.0206  0.4658  0.6559
  172MOL0     C23150   1.648   5.143   1.985 -1.4722 -0.2237  0.4901
  172MOL0     C23151   1.733   5.039   2.011  0.9730 -0.4343  0.9532
  172MOL0     C23152   1.657   4.908   2.021 -0.3379  0.9319  0.4843
  172MOL0     H23153   2.262   4.862   1.979  3.1042 -0.7373 -0.9171
  172MOL0     H23154   2.402   4.699   2.062  0.7709  2.3729 -1.4905
  172MOL0     H23155   2.388   4.467   2.225 -1.5884  2.4023  1.2052
  172MOL0     H23156   2.540   4.543   2.184 -3.3742  1.8133 -0.8545
  172MOL0     H23157   2.452   4.384   2.421  0.8620  0.7865  0.9791
  172MOL0     H23158   2.615   4.468   2.421 -0.5690 -1.2172  1.6492
  172MOL0     H23159   2.669   4.313   2.227 -1.2538  1.6875 -1.5766
  172MOL0     H23160   2.497   4.258   2.232 -0.5582 -0.7749  0.7726
  172MOL0     H23161   2.539   4.185   2.477 -0.4580 -0.0305 -1.8021
  172MOL0     H23162   2.616   4.091   2.361 -0.6975  1.4579 -1.1246
  172MOL0     H23163   2.767   4.311   2.489  2.1347  0.2710  0.9506
  172MOL0     H23164   2.759   4.138   2.563 -0.6218 -2.0023 -1.8502
  172MOL0     H23165   2.876   4.182   2.275  0.6760  2.2615  0.5105
  172MOL0     H23166   2.978   4.206   2.415  0.4960 -2.2115  1.3141
  172MOL0     H23167   2.805   3.960   2.369  0.0101 -0.1797  2.1299
  172MOL0     H23168   2.933   3.975   2.497  1.3683  0.9578  0.5265
  172MOL0     H23169   2.942   4.000   2.190 -1.2082  0.3029 -0.7778
  172MOL0     H23170   3.087   4.017   2.298 -0.3508  2.6239 -2.9199
  172MOL0     H23171   3.181   3.773   2.397 -0.1041  0.5158  1.0700
  172MOL0     H23172   3.203   3.465   2.216 -0.9639  1.4288 -0.9524
  172MOL0     H23173   3.253   3.522   2.379 -0.6150  0.8434 -0.3002
  172MOL0     H23174   3.132   3.331   2.444 -0.3451  0.8253  1.1341
  172MOL0     H23175   3.021   3.476   2.461  1.0121 -1.5116  0.0575
  172MOL0     H23176   3.023   3.283   2.228 -0.7931 -0.3028  0.0974
  172MOL0     H23177   2.904   3.406   2.262 -0.1719 -0.2092 -2.0263
  172MOL0     H23178   2.795   3.233   2.311  0.3617  4.9907  0.0110
  172MOL0     H23179   2.857   3.272   2.469 -1.7579  2.6565 -2.0135
  172MOL0     H23180   2.700   3.091   2.478  1.5726  0.5578 -4.6199
  172MOL0     H23181   2.600   2.887   2.595 -1.3248 -0.8124 -1.6969
  172MOL0     H23182   2.579   2.348   2.496 -2.2318 -1.5090 -0.1335
  172MOL0     H23183   2.455   2.184   2.615 -2.5187  2.8372  2.4009
  172MOL0     H23184   2.370   2.030   3.007 -1.3465  0.5279 -0.4681
  172MOL0     H23185   2.530   2.100   3.049 -1.2687 -0.0226  1.6339
  172MOL0     H23186   2.442   2.316   3.024 -0.5474 -0.1981 -0.0581
  172MOL0     H23187   2.279   2.251   2.976  0.4649  3.5954 -2.6014
  172MOL0     H23188   2.328   2.109   3.197 -0.3520  0.7986  1.3936
  172MOL0     H23189   2.436   2.242   3.248 -0.9551 -0.6602  0.5701
  172MOL0     H23190   2.226   2.268   3.344 -0.2162 -1.2049 -0.0006
  172MOL0     H23191   2.149   2.269   3.189  0.9244 -0.0030 -1.6378
  172MOL0     H23192   2.248   2.485   3.128 -0.3842  1.1141  0.4221
  172MOL0     H23193   2.386   2.466   3.250  0.8402  2.4251  0.8191
  172MOL0     H23194   2.107   2.547   3.299  0.5727  3.2229 -1.3506
  172MOL0     H23195   2.216   2.501   3.431  1.1264  1.0348  1.1893
  172MOL0     H23196   2.382   2.683   3.363  0.7558 -2.2846 -1.9784
  172MOL0     H23197   2.223   2.742   3.393 -0.3317  1.2586 -0.9310
  172MOL0     H23198   2.304   2.680   3.108  0.0788 -2.9722  2.5661
  172MOL0     H23199   2.172   2.786   3.173  0.4651 -1.1132 -5.4700
  172MOL0     H23200   2.673   2.244   2.975  0.2543  1.3444  0.0715
  172MOL0     H23201   2.804   2.431   2.867  0.1630 -0.3848  0.3557
  172MOL0     H23202   2.962   2.669   2.508 -2.8713 -0.9370  1.0593
  172MOL0     H23203   3.059   2.875   2.423  0.3308  2.0796  1.3213
  172MOL0     H23204   2.296   4.804   2.477  0.7811 -1.1352 -0.3018
  172MOL0     H23205   2.134   4.959   2.380 -0.3160 -1.2554  0.7167
  172MOL0     H23206   2.012   5.226   2.080  0.1177 -0.2016 -0.7375
  172MOL0     H23207   1.846   5.409   2.059 -1.8794 -0.1189  5.0130
  172MOL0     H23208   1.413   5.290   2.061  3.9028 -1.1361  0.0316
  172MOL0     H23209   1.410   5.346   1.895  0.6515 -0.0802 -0.9198
  172MOL0     H23210   1.417   5.545   2.141 -1.4967  0.0806 -0.2177
  172MOL0     H23211   1.279   5.462   2.061 -0.4696 -0.6202 -0.9950
  172MOL0     H23212   1.361   5.566   1.845  1.2340 -2.4515  0.6905
  172MOL0     H23213   1.486   5.645   1.941 -0.7990  0.4418 -0.3710
  172MOL0     H23214   1.246   5.792   1.895  3.2105 -0.0028 -1.0730
  172MOL0     H23215   1.186   5.704   2.024 -1.5050  3.1205 -1.8874
  172MOL0     H23216   1.428   5.951   2.248  0.7228  0.1867  0.4305
  172MOL0     H23217   1.546   5.125   1.953 -1.6803  0.4789  0.7328
  172MOL0     H23218   1.665   4.867   2.122  0.9731 -1.5131 -0.5067
  172MOL0     H23219   1.553   4.902   1.986 -0.2683 -0.4304  0.4481
  172MOL0     H23220   1.706   4.838   1.953 -1.9548  1.5212 -1.3922
  173MOL0     O23221   1.339   3.911   0.528  0.6209 -0.7800 -0.3402
  173MOL0     C23222   1.261   3.840   0.590  0.1925 -0.1333 -0.3669
  173MOL0     O23223   1.124   3.864   0.602 -0.6714 -0.8655 -0.0191
  173MOL0     C23224   1.073   3.973   0.533  0.1817  0.3323 -0.5586
  173MOL0     C23225   1.090   4.110   0.582 -0.0308 -0.1659  0.5330
  173MOL0     C23226   1.024   4.217   0.519 -0.2374 -0.4934  1.1506
  173MOL0     C23227   0.971   4.200   0.387 -0.0520  0.6075 -0.0724
  173MOL0     O23228   0.946   4.317   0.319  0.3266 -0.4660 -0.2860
  173MOL0     C23229   0.868   4.301   0.198  1.2945  0.5367 -0.4491
  173MOL0     C23230   0.844   4.439   0.143 -0.0889  0.4970  0.6141
  173MOL0     C23231   0.973   4.494   0.084 -0.0505 -0.5288 -0.1606
  173MOL0     C23232   0.945   4.609  -0.009 -0.5158 -0.2102 -0.0986
  173MOL0     C23233   1.066   4.652  -0.098 -0.1386 -0.4219 -0.2966
  173MOL0     C23234   1.040   4.741  -0.225 -0.4146  0.5731 -0.1756
  173MOL0     C23235   1.081   4.888  -0.214  0.1128 -1.0085 -0.3332
  173MOL0     C23236   1.032   4.955  -0.344 -0.3519  0.2447  1.4573
  173MOL0     N23237   1.034   5.102  -0.357  0.7244  0.6652  0.7439
  173MOL0     C23238   1.129   5.177  -0.301 -0.9676  0.7311 -0.2322
  173MOL0     C23239   1.078   5.298  -0.296 -0.0035 -0.2608 -0.1442
  173MOL0     C23240   1.149   5.426  -0.257 -1.0330  0.8080 -0.4299
  173MOL0     C23241   1.089   5.550  -0.311  0.1292  0.1248 -0.6003
  173MOL0     C23242   1.181   5.634  -0.387  0.3265 -0.2493  0.3843
  173MOL0     C23243   1.102   5.746  -0.446  0.1081  0.4596  0.5503
  173MOL0     O23244   1.085   5.855  -0.356 -0.0212  1.0108  0.0339
  173MOL0     C23245   1.154   5.973  -0.366  0.2634 -0.2149 -1.1025
  173MOL0     C23246   1.275   5.985  -0.441  0.5289  0.6045  1.0003
  173MOL0     C23247   1.345   6.109  -0.441  0.3113 -0.7872 -0.4601
  173MOL0     C23248   1.281   6.223  -0.375  0.2223 -0.2270  0.7108
  173MOL0     C23249   1.359   6.349  -0.367  0.6224 -0.2305  0.9252
  173MOL0     O23250   1.292   6.461  -0.320 -0.0518 -0.5595 -0.3291
  173MOL0     C23251   1.355   6.583  -0.306  0.7869 -0.3472  0.2055
  173MOL0     C23252   1.305   6.682  -0.388 -0.0688 -0.7665  0.2313
  173MOL0     C23253   1.365   6.811  -0.386  0.0258 -0.6022  0.4973
  173MOL0     C23254   1.468   6.835  -0.297 -0.7209 -0.1600 -1.0357
  173MOL0     O23255   1.528   6.952  -0.270 -0.0706 -0.6184  0.1643
  173MOL0     C23256   1.527   7.037  -0.390  0.4578  0.7185  0.0945
  173MOL0     C23257   1.635   7.153  -0.387 -0.1893 -0.6344  0.3480
  173MOL0     C23258   1.618   7.236  -0.501  0.2518 -0.8455  0.4421
  173MOL0     C23259   1.689   7.367  -0.491 -0.4666 -0.0116 -0.6277
  173MOL0     C23260   1.646   7.459  -0.603  0.2156  0.4123 -0.4635
  173MOL0     C23261   1.668   7.612  -0.578  0.2951  0.5267 -0.1108
  173MOL0     C23262   1.786   7.673  -0.509  0.1126  0.2989  0.3345
  173MOL0     C23263   1.903   7.679  -0.605  0.5385  0.3983 -0.3231
  173MOL0    Cl23264   2.049   7.737  -0.509  0.0919  0.2073  0.3919
  173MOL0     C23265   1.512   6.735  -0.214 -0.3328  0.2638  0.3294
  173MOL0     C23266   1.463   6.603  -0.223  0.0452 -0.7037  0.1504
  173MOL0     O23267   1.476   6.355  -0.404  0.5441  0.1667  0.0297
  173MOL0     C23268   1.148   6.208  -0.309  0.1946  0.9284 -0.4368
  173MOL0     C23269   1.096   6.079  -0.305 -0.4713  0.6239 -0.0793
  173MOL0     N23270   0.945   5.289  -0.353 -0.3644 -0.3129  0.5362
  173MOL0     N23271   0.929   5.169  -0.403  0.6463  0.0129  0.5347
  173MOL0     C23272   0.951   4.065   0.346  0.3197 -0.0651  0.2821
  173MOL0     C23273   0.998   3.948   0.421  0.2698  0.1480  0.0359
  173MOL0     C23274   1.315   3.718   0.650  0.2058 -0.1335 -0.1942
  173MOL0     C23275   1.441   3.676   0.605 -0.5848 -0.2459 -0.7874
  173MOL0     C23276   1.504   3.565   0.648 -0.3768 -0.3413 -0.3281
  173MOL0     C23277   1.437   3.483   0.743 -0.0550  0.5025 -0.4822
  173MOL0     O23278   1.490   3.355   0.776 -0.2986 -0.0810 -0.3694
  173MOL0     C23279   1.535   3.268   0.663  0.2882  0.8197  0.5768
  173MOL0     C23280   1.429   3.163   0.664  0.3084 -0.0649 -0.3485
  173MOL0     C23281   1.419   3.085   0.796  0.6413  0.7300  0.1273
  173MOL0     C23282   1.276   3.032   0.811  0.2687  1.1773  0.4792
  173MOL0     C23283   1.267   2.952   0.929 -0.3842 -0.3914  0.1700
  173MOL0     C23284   1.244   2.885   1.029 -0.2300  0.7077 -0.1940
  173MOL0     C23285   1.317   3.522   0.797  0.6229 -0.7637  0.4609
  173MOL0     C23286   1.250   3.646   0.753 -0.4296  0.9699  0.8831
  173MOL0     C23287   1.117   3.678   0.833 -1.3772  0.5267  0.5911
  173MOL0     H23288   1.158   4.131   0.664  1.0280  1.6050 -0.7148
  173MOL0     H23289   1.026   4.319   0.555  0.0595  0.9401 -2.5113
  173MOL0     H23290   0.905   4.240   0.115  0.3539 -2.0552  0.9072
  173MOL0     H23291   0.771   4.258   0.225  1.0464  1.3211 -0.0633
  173MOL0     H23292   0.806   4.507   0.219 -1.0423 -1.4726  1.9607
  173MOL0     H23293   0.765   4.442   0.068 -0.5843  0.1298  1.1158
  173MOL0     H23294   1.018   4.414   0.025  1.8027  0.9581 -0.9015
  173MOL0     H23295   1.041   4.528   0.163  0.5340  4.2156 -2.3116
  173MOL0     H23296   0.867   4.572  -0.077  0.9045 -1.0014 -1.3843
  173MOL0     H23297   0.901   4.689   0.050  1.6617  1.2013 -0.2695
  173MOL0     H23298   1.147   4.695  -0.037  3.2836 -4.1822 -1.7560
  173MOL0     H23299   1.115   4.561  -0.133  2.6238 -0.3023  2.7313
  173MOL0     H23300   1.113   4.696  -0.293  0.0655 -1.1596  1.4039
  173MOL0     H23301   0.935   4.721  -0.246 -1.1522  3.0672  0.7869
  173MOL0     H23302   1.187   4.906  -0.191  0.0535 -0.4733 -0.4681
  173MOL0     H23303   1.038   4.943  -0.130 -0.7475  0.2178 -1.5374
  173MOL0     H23304   1.102   4.927  -0.423 -2.3829  1.9368 -1.1275
  173MOL0     H23305   0.932   4.921  -0.375  0.2834  0.6510 -1.3855
  173MOL0     H23306   1.227   5.137  -0.276 -1.2558  0.5669  0.6544
  173MOL0     H23307   1.145   5.428  -0.147  1.2226 -1.4435 -0.1964
  173MOL0     H23308   1.255   5.424  -0.286 -0.8556  4.4275 -0.4485
  173MOL0     H23309   1.004   5.529  -0.377  0.6258 -0.3405 -1.1065
  173MOL0     H23310   1.056   5.615  -0.230 -0.5357  0.2720 -0.9821
  173MOL0     H23311   1.232   5.576  -0.464 -3.5502  1.2525 -3.7175
  173MOL0     H23312   1.255   5.680  -0.321 -0.2743  2.2295 -0.5621
  173MOL0     H23313   1.004   5.722  -0.488  0.2913  2.2061 -1.0501
  173MOL0     H23314   1.164   5.778  -0.531 -0.4569  0.4618  0.1331
  173MOL0     H23315   1.323   5.896  -0.479  0.3962  0.9293  0.0629
  173MOL0     H23316   1.442   6.116  -0.489  0.7524 -1.3246  0.3337
  173MOL0     H23317   1.233   6.654  -0.464  0.6233 -0.7205 -0.4604
  173MOL0     H23318   1.330   6.882  -0.460  1.4622 -1.5221 -1.1433
  173MOL0     H23319   1.538   6.977  -0.481 -0.5708  1.1604 -0.3350
  173MOL0     H23320   1.432   7.092  -0.390 -0.0611 -0.0927  1.8160
  173MOL0     H23321   1.633   7.216  -0.298  3.4642  0.1586  0.0396
  173MOL0     H23322   1.729   7.098  -0.398 -1.5477 -3.1421  0.4835
  173MOL0     H23323   1.648   7.175  -0.587 -0.6906 -3.9970  2.1997
  173MOL0     H23324   1.509   7.241  -0.511  0.3135  0.1029  0.1564
  173MOL0     H23325   1.798   7.377  -0.488 -0.7191  4.2337  0.2196
  173MOL0     H23326   1.662   7.413  -0.395 -0.9615 -0.9997 -0.2826
  173MOL0     H23327   1.538   7.455  -0.624  0.3563  1.4570 -1.5256
  173MOL0     H23328   1.703   7.423  -0.689  0.3670 -1.3055  0.3161
  173MOL0     H23329   1.653   7.661  -0.674 -0.2496 -4.1878 -2.7457
  173MOL0     H23330   1.583   7.641  -0.515  0.7863  1.7946 -0.0008
  173MOL0     H23331   1.800   7.615  -0.417  2.2857  0.0558 -0.0771
  173MOL0     H23332   1.777   7.778  -0.480 -1.8509  0.2360  0.0566
  173MOL0     H23333   1.915   7.584  -0.658 -0.6762 -0.3007  0.5923
  173MOL0     H23334   1.880   7.754  -0.681 -0.6286  0.4638  0.0592
  173MOL0     H23335   1.600   6.750  -0.153  0.1521  1.3139 -0.6017
  173MOL0     H23336   1.506   6.534  -0.150  0.4486 -1.1335 -0.4834
  173MOL0     H23337   1.098   6.289  -0.258 -1.0948  0.6699 -1.2565
  173MOL0     H23338   1.008   6.059  -0.244  0.8014  0.5485  1.8153
  173MOL0     H23339   0.886   4.053   0.260 -0.4520  0.0908  0.8391
  173MOL0     H23340   0.977   3.844   0.396 -3.1999  0.3512  1.4431
  173MOL0     H23341   1.496   3.719   0.523  2.7077  0.2378  1.4697
  173MOL0     H23342   1.604   3.550   0.609 -0.9913  2.0374 -3.3019
  173MOL0     H23343   1.634   3.222   0.673  0.5077  0.8857 -1.0542
  173MOL0     H23344   1.543   3.326   0.571  1.4561  1.3956  1.0102
  173MOL0     H23345   1.448   3.091   0.584  1.5538  0.6478 -0.7119
  173MOL0     H23346   1.330   3.205   0.644 -0.6545 -2.2477 -0.5035
  173MOL0     H23347   1.443   3.154   0.878 -0.8571  1.9450 -0.4054
  173MOL0     H23348   1.480   2.995   0.802 -2.4796 -1.6370 -0.6823
  173MOL0     H23349   1.202   3.112   0.795  0.1873  0.6653 -2.3847
  173MOL0     H23350   1.244   2.961   0.734 -0.1358  0.0318  1.6718
  173MOL0     H23351   1.237   2.831   1.121  2.3898 -0.8198 -0.8027
  173MOL0     H23352   1.269   3.450   0.863 -2.4727  0.8192  0.1350
  173MOL0     H23353   1.140   3.740   0.920  0.0398 -0.8094  1.2286
  173MOL0     H23354   1.035   3.712   0.769 -1.8753 -1.0852  0.3222
  173MOL0     H23355   1.079   3.580   0.865  0.0210 -0.2488 -0.0147
  174MOL0     O23356   1.385  10.145   0.819 -0.5030 -0.2492 -0.1858
  174MOL0     C23357   1.417  10.026   0.826 -0.6011  0.0430 -0.4508
  174MOL0     O23358   1.542   9.978   0.810  0.0949 -0.3395 -0.7563
  174MOL0     C23359   1.608  10.029   0.703  0.1460 -0.1317 -0.3347
  174MOL0     C23360   1.751  10.018   0.708  0.4545  0.0335  0.6356
  174MOL0     C23361   1.835  10.073   0.609  0.2953  0.8663 -0.6122
  174MOL0     C23362   1.769  10.131   0.493  0.3382 -0.1659 -0.4871
  174MOL0     O23363   1.853  10.180   0.402  0.2818  0.1715 -0.2566
  174MOL0     C23364   1.794  10.189   0.273 -0.7282 -0.1058  0.2415
  174MOL0     C23365   1.895  10.213   0.167 -0.1424  0.6071 -0.2803
  174MOL0     C23366   1.969  10.077   0.115  0.0339 -0.1642  0.4253
  174MOL0     C23367   2.112  10.107   0.087  0.8322  0.4595 -0.7809
  174MOL0     C23368   2.176  10.013  -0.012 -0.5163 -0.6582 -0.0877
  174MOL0     C23369   2.323  10.034  -0.037 -0.1883 -0.8194  0.3970
  174MOL0     C23370   2.395   9.950  -0.154 -0.3315 -0.8913 -0.6433
  174MOL0     C23371   2.387   9.810  -0.101 -0.3619 -0.1398 -0.5328
  174MOL0     N23372   2.516   9.747  -0.092  0.0845  0.6529  0.2131
  174MOL0     C23373   2.606   9.761  -0.190  1.1518  0.5605  0.9117
  174MOL0     C23374   2.696   9.671  -0.154 -0.3471  1.1907  0.3291
  174MOL0     C23375   2.819   9.640  -0.243 -0.3701  0.0441 -0.1181
  174MOL0     C23376   2.818   9.494  -0.287  0.2328  0.1317 -0.9111
  174MOL0     C23377   2.906   9.409  -0.193  0.0706  0.1605 -0.5012
  174MOL0     C23378   2.905   9.258  -0.236  1.1514 -0.0540 -0.6130
  174MOL0     O23379   2.990   9.236  -0.350  0.5532  0.1270 -0.4838
  174MOL0     C23380   2.959   9.137  -0.447  0.6372 -0.7209 -0.6456
  174MOL0     C23381   2.833   9.117  -0.505  1.4244  0.9219  0.5695
  174MOL0     C23382   2.807   9.031  -0.611  0.9089 -0.6857 -0.2958
  174MOL0     C23383   2.906   8.951  -0.663 -0.4990  0.3756 -0.5733
  174MOL0     C23384   2.873   8.849  -0.772  0.5663  0.3377 -0.6923
  174MOL0     O23385   2.751   8.863  -0.824  0.1437 -0.3556  0.9767
  174MOL0     C23386   2.710   8.786  -0.934 -0.4008  0.0775 -0.3000
  174MOL0     C23387   2.785   8.767  -1.042  0.3688  0.5189 -0.3759
  174MOL0     C23388   2.722   8.715  -1.158 -0.1279 -0.1295 -0.9402
  174MOL0     C23389   2.588   8.672  -1.161 -0.3863 -0.1016 -0.5790
  174MOL0     O23390   2.545   8.619  -1.280  0.2676  0.6856 -0.6605
  174MOL0     C23391   2.500   8.484  -1.287 -0.1976 -0.1639 -1.0562
  174MOL0     C23392   2.539   8.400  -1.404 -0.3240  0.5703  1.1384
  174MOL0     C23393   2.471   8.266  -1.406  0.3869  0.7247  0.8987
  174MOL0     C23394   2.518   8.178  -1.522 -0.5681  0.3984 -0.4055
  174MOL0     C23395   2.396   8.126  -1.614 -0.1603 -0.1949 -1.0335
  174MOL0     C23396   2.446   8.036  -1.718 -0.4344  0.6621  1.1400
  174MOL0     C23397   2.328   8.014  -1.803  0.8070  0.3827  0.2135
  174MOL0     C23398   2.355   7.930  -1.923 -0.7906  0.5484  0.7542
  174MOL0    Cl23399   2.231   7.944  -2.055  0.0372  0.0471  0.0431
  174MOL0     C23400   2.510   8.684  -1.040 -0.5202  0.0529 -0.5126
  174MOL0     C23401   2.572   8.740  -0.926  0.0636  1.1555  0.2203
  174MOL0     O23402   2.954   8.763  -0.801  0.7041  0.2665 -0.9289
  174MOL0     C23403   3.031   8.961  -0.599 -0.3568  0.6477 -0.3387
  174MOL0     C23404   3.057   9.050  -0.497  0.1102  0.2545 -0.0080
  174MOL0     N23405   2.665   9.606  -0.033 -0.2692  0.3046 -0.9077
  174MOL0     N23406   2.557   9.660   0.007 -0.1082 -0.1227  0.4769
  174MOL0     C23407   1.626  10.130   0.487 -0.8718 -1.1314 -0.6185
  174MOL0     C23408   1.547  10.093   0.593  0.3095 -0.1399  0.8162
  174MOL0     C23409   1.311   9.929   0.869 -0.1422 -0.1896 -0.1653
  174MOL0     C23410   1.345   9.796   0.846  0.3881 -0.8900 -1.1088
  174MOL0     C23411   1.255   9.694   0.872 -1.0308  0.1693  0.5449
  174MOL0     C23412   1.132   9.723   0.936  0.6966 -0.2514 -0.0354
  174MOL0     O23413   1.056   9.623   0.987 -0.3791  0.3033 -0.2392
  174MOL0     C23414   1.063   9.500   0.909 -0.4888  0.0134 -0.4373
  174MOL0     C23415   0.989   9.497   0.779  0.0735  0.7613 -0.9272
  174MOL0     C23416   0.990   9.368   0.698  0.3248 -0.0146  0.7481
  174MOL0     C23417   1.131   9.324   0.644  0.5175  0.8811 -0.5142
  174MOL0     C23418   1.188   9.433   0.563 -1.0372 -0.7213 -0.6728
  174MOL0     C23419   1.246   9.505   0.487  1.0450 -0.3293  0.1895
  174MOL0     C23420   1.099   9.854   0.951  0.0538  1.1335 -0.3405
  174MOL0     C23421   1.179   9.959   0.909 -1.0275 -0.9487  0.0067
  174MOL0     C23422   1.114  10.092   0.900 -0.2965  0.1901 -1.2900
  174MOL0     H23423   1.789   9.981   0.802  3.6373  0.0570 -0.5227
  174MOL0     H23424   1.943  10.070   0.606  0.3832  0.3296  1.4136
  174MOL0     H23425   1.739  10.105   0.229 -1.3193  0.0612  0.6407
  174MOL0     H23426   1.728  10.277   0.276  2.6204  2.7374 -1.9179
  174MOL0     H23427   1.972  10.275   0.214 -0.8047  1.0982  0.1812
  174MOL0     H23428   1.849  10.275   0.089  0.2710  0.8326 -0.3479
  174MOL0     H23429   1.915  10.050   0.024  0.2723  1.8034 -0.3400
  174MOL0     H23430   1.964  10.001   0.194 -1.8705 -0.2878  0.2220
  174MOL0     H23431   2.121  10.211   0.056 -1.3809  2.1527  3.4067
  174MOL0     H23432   2.157  10.112   0.187  0.0213  0.1987 -0.3863
  174MOL0     H23433   2.159   9.921   0.044 -2.0829  0.6997  1.8139
  174MOL0     H23434   2.119  10.009  -0.106 -0.9052 -0.4220  0.1362
  174MOL0     H23435   2.338  10.140  -0.057 -1.1970 -0.7093  0.1766
  174MOL0     H23436   2.368  10.014   0.061 -1.1304  0.8892  1.2305
  174MOL0     H23437   2.495   9.994  -0.153 -0.3888 -0.7673 -0.1665
  174MOL0     H23438   2.342   9.958  -0.249  1.2104  1.2925 -1.3947
  174MOL0     H23439   2.318   9.785  -0.020  1.0708  0.5793  0.9985
  174MOL0     H23440   2.338   9.749  -0.177  1.7436  0.9087 -2.8667
  174MOL0     H23441   2.602   9.823  -0.279  1.8874 -1.4897 -0.6196
  174MOL0     H23442   2.823   9.718  -0.319 -0.6179  1.3650  1.1707
  174MOL0     H23443   2.913   9.654  -0.188 -0.5694 -0.8700  0.4705
  174MOL0     H23444   2.720   9.449  -0.306  0.9750 -1.8967 -0.2099
  174MOL0     H23445   2.858   9.481  -0.388 -2.4194 -1.9335 -1.8077
  174MOL0     H23446   2.866   9.414  -0.092 -1.2321  0.8409 -1.0243
  174MOL0     H23447   3.011   9.438  -0.201  0.1745 -0.3211 -0.9818
  174MOL0     H23448   2.801   9.231  -0.254  0.2321  1.6397  1.7556
  174MOL0     H23449   2.932   9.195  -0.151  1.4560  0.4067 -0.3651
  174MOL0     H23450   2.747   9.175  -0.472 -1.5134 -3.6758  2.0087
  174MOL0     H23451   2.707   9.036  -0.654  0.2603  0.6673  1.2253
  174MOL0     H23452   2.890   8.797  -1.042  0.9999 -1.5241 -0.8176
  174MOL0     H23453   2.782   8.699  -1.247  0.6845 -4.3286  0.1357
  174MOL0     H23454   2.530   8.424  -1.201 -2.9841 -1.7929 -1.0976
  174MOL0     H23455   2.391   8.482  -1.284 -0.2329  0.7392 -1.4903
  174MOL0     H23456   2.518   8.458  -1.495  2.3304 -0.6076 -0.3263
  174MOL0     H23457   2.647   8.392  -1.395 -0.4375 -0.5843  1.6236
  174MOL0     H23458   2.488   8.206  -1.317 -1.5776 -1.4762 -0.0980
  174MOL0     H23459   2.362   8.270  -1.406  0.1588 -2.5088  1.8342
  174MOL0     H23460   2.576   8.098  -1.475 -0.7174  2.2013  3.2160
  174MOL0     H23461   2.601   8.227  -1.574  0.6655 -1.3704 -0.1985
  174MOL0     H23462   2.352   8.209  -1.669  1.9770 -0.6424 -3.6332
  174MOL0     H23463   2.330   8.071  -1.547  1.1238 -2.6768 -1.6949
  174MOL0     H23464   2.535   8.073  -1.770  1.7506 -1.4098  3.1494
  174MOL0     H23465   2.481   7.942  -1.675 -1.3107  0.7477  2.0765
  174MOL0     H23466   2.297   8.105  -1.855  0.8361  0.7379  0.8089
  174MOL0     H23467   2.248   7.970  -1.744 -1.4032  0.3939 -2.5465
  174MOL0     H23468   2.449   7.966  -1.966 -1.0259  0.5029  0.1915
  174MOL0     H23469   2.379   7.825  -1.903  0.8176  0.3870 -1.6379
  174MOL0     H23470   2.404   8.666  -1.050 -0.8346  1.6339 -0.2214
  174MOL0     H23471   2.507   8.753  -0.841  1.6029  0.7398  1.5195
  174MOL0     H23472   3.108   8.893  -0.633 -0.7648  1.1306 -2.3298
  174MOL0     H23473   3.156   9.045  -0.453  0.7054  0.4597 -1.2884
  174MOL0     H23474   1.594  10.184   0.398  0.4288  1.0116  0.1402
  174MOL0     H23475   1.445  10.128   0.579  0.2543 -0.6757 -0.2887
  174MOL0     H23476   1.444   9.773   0.809  0.1155 -2.1362 -1.1122
  174MOL0     H23477   1.288   9.592   0.859 -0.9897  0.4796 -2.5817
  174MOL0     H23478   1.010   9.425   0.969  0.5013  1.5918  2.5879
  174MOL0     H23479   1.164   9.459   0.907 -1.4832 -2.8775  1.3282
  174MOL0     H23480   1.032   9.582   0.724  2.8706  0.2506  0.2868
  174MOL0     H23481   0.888   9.523   0.812  0.4677 -1.8041  2.9216
  174MOL0     H23482   0.930   9.386   0.608  0.8209  2.3779  0.8539
  174MOL0     H23483   0.929   9.291   0.747 -1.2863  0.4192 -0.4778
  174MOL0     H23484   1.200   9.287   0.721 -0.4514 -4.1726 -1.7056
  174MOL0     H23485   1.130   9.235   0.580  3.0823 -0.7637  1.4992
  174MOL0     H23486   1.280   9.576   0.414  1.4756  0.6697  1.3248
  174MOL0     H23487   1.005   9.869   1.002 -1.3079 -3.2325 -1.1843
  174MOL0     H23488   1.006  10.080   0.895 -0.0543 -1.9954 -3.6396
  174MOL0     H23489   1.146  10.160   0.979 -0.1210 -1.0018 -0.3083
  174MOL0     H23490   1.146  10.142   0.808  3.6724 -1.2555 -0.8788
  175MOL0     O23491   2.852  10.592   1.070  0.1674  0.2097  0.2846
  175MOL0     C23492   2.805  10.673   0.991 -0.2113 -0.3346 -0.7859
  175MOL0     O23493   2.867  10.785   0.946  0.6680  0.5071  0.4842
  175MOL0     C23494   2.985  10.838   0.990 -0.0021  0.1424  0.0453
  175MOL0     C23495   3.082  10.778   1.071 -0.2180 -0.7342 -0.0685
  175MOL0     C23496   3.190  10.860   1.112  0.2494  0.1666  0.6147
  175MOL0     C23497   3.213  10.987   1.060 -0.3315 -0.5263  0.2616
  175MOL0     O23498   3.323  11.047   1.109  0.0796 -0.5484 -0.0764
  175MOL0     C23499   3.313  11.193   1.127 -0.0189  0.3009 -0.3075
  175MOL0     C23500   3.414  11.246   1.234 -0.1474  1.0641  1.0451
  175MOL0     C23501   3.560  11.253   1.191 -0.0258  0.0476 -0.8206
  175MOL0     C23502   3.625  11.112   1.168  0.2952 -0.9932  0.1926
  175MOL0     C23503   3.778  11.120   1.133  0.2340  0.0992 -0.7968
  175MOL0     C23504   3.875  11.048   1.231  0.0879  0.2634 -0.3121
  175MOL0     C23505   4.019  11.070   1.194 -0.3333  0.1795  0.2900
  175MOL0     C23506   4.099  11.003   1.306  0.7237 -0.1526  0.4494
  175MOL0     N23507   4.238  10.991   1.261  0.4332  0.4977 -0.8407
  175MOL0     C23508   4.296  10.896   1.183 -0.4572  0.0794  0.5016
  175MOL0     C23509   4.431  10.916   1.201  0.6085  0.2821  0.1720
  175MOL0     C23510   4.538  10.838   1.119 -0.1168 -0.3817  0.0347
  175MOL0     C23511   4.538  10.689   1.150 -0.5130  0.5710  0.6211
  175MOL0     C23512   4.656  10.630   1.082 -0.4973  0.0193 -0.0022
  175MOL0     C23513   4.658  10.617   0.930  0.3081 -0.1536 -0.2989
  175MOL0     O23514   4.756  10.507   0.909  0.1279  0.5449 -0.3658
  175MOL0     C23515   4.715  10.377   0.888 -0.3728  0.3284 -0.3475
  175MOL0     C23516   4.604  10.317   0.940  0.5647 -0.1815 -0.8139
  175MOL0     C23517   4.569  10.182   0.911 -0.5760 -0.1867  0.7494
  175MOL0     C23518   4.658  10.112   0.828 -0.2607 -0.8706 -0.4271
  175MOL0     C23519   4.623   9.981   0.786  1.3760  0.2571  0.2081
  175MOL0     O23520   4.497   9.953   0.775  0.3084 -0.5375  0.2080
  175MOL0     C23521   4.452   9.832   0.730  0.0901  0.3893  0.6378
  175MOL0     C23522   4.434   9.810   0.593  0.0397 -0.0524  0.2111
  175MOL0     C23523   4.364   9.698   0.554  0.2913  0.6062 -0.6847
  175MOL0     C23524   4.331   9.599   0.645  0.2768 -0.1939  1.3035
  175MOL0     O23525   4.286   9.484   0.593  0.5423  0.3571  0.8767
  175MOL0     C23526   4.335   9.365   0.655 -0.2103 -0.5214  0.2049
  175MOL0     C23527   4.359   9.261   0.545  0.8219 -0.6667 -0.4285
  175MOL0     C23528   4.327   9.120   0.586 -0.8482 -0.5682  0.8750
  175MOL0     C23529   4.314   9.044   0.451  0.6817 -0.2304  0.9050
  175MOL0     C23530   4.353   8.895   0.464  1.0729  1.1612 -0.5589
  175MOL0     C23531   4.493   8.863   0.426  1.2763 -1.1685 -0.1969
  175MOL0     C23532   4.532   8.716   0.397  0.1008  0.0240  0.2407
  175MOL0     C23533   4.462   8.644   0.285 -0.6465 -0.1476 -0.2420
  175MOL0    Cl23534   4.541   8.479   0.268  0.5770  0.1843 -0.0306
  175MOL0     C23535   4.343   9.623   0.784  0.3862 -0.3090 -0.7192
  175MOL0     C23536   4.405   9.742   0.827  0.5285 -0.1751 -0.6068
  175MOL0     O23537   4.716   9.908   0.758  0.5264 -0.4111  0.5060
  175MOL0     C23538   4.772  10.175   0.786  1.0255 -0.4680 -0.0662
  175MOL0     C23539   4.806  10.301   0.818  0.3346 -0.7838  0.3911
  175MOL0     N23540   4.448  11.019   1.300 -0.2976  0.1902 -0.1507
  175MOL0     N23541   4.331  11.057   1.334  0.3266 -0.1048 -0.2525
  175MOL0     C23542   3.125  11.036   0.963 -0.4359 -0.5274  0.0137
  175MOL0     C23543   3.008  10.969   0.929 -0.5688  0.2775 -1.2291
  175MOL0     C23544   2.665  10.646   0.948 -0.2494  0.0151 -0.5102
  175MOL0     C23545   2.581  10.579   1.043 -0.5326  1.1215 -0.1117
  175MOL0     C23546   2.461  10.518   1.002 -0.5512 -0.5860 -0.0615
  175MOL0     C23547   2.414  10.547   0.875  0.1205  0.2513 -1.2395
  175MOL0     O23548   2.293  10.489   0.852  0.5463  0.6769 -0.5834
  175MOL0     C23549   2.258  10.470   0.713 -0.5548 -0.4661  0.2147
  175MOL0     C23550   2.130  10.382   0.701  0.6068 -0.0758  0.2607
  175MOL0     C23551   2.104  10.332   0.554  0.0464 -0.1746 -0.9576
  175MOL0     C23552   2.178  10.210   0.512 -0.6065  0.3857 -0.2012
  175MOL0     C23553   2.189  10.104   0.609 -1.4931  0.2476 -0.7934
  175MOL0     C23554   2.193  10.016   0.696  0.6990 -1.2837  0.4940
  175MOL0     C23555   2.493  10.626   0.784  0.3952  0.7731 -0.4744
  175MOL0     C23556   2.618  10.681   0.821  0.8874  0.0216  0.1093
  175MOL0     C23557   2.690  10.773   0.724 -0.0285 -0.5763 -0.3113
  175MOL0     H23558   3.057  10.684   1.118  0.5463 -1.4205 -1.0025
  175MOL0     H23559   3.248  10.817   1.193  0.9009  0.4776  0.3215
  175MOL0     H23560   3.331  11.233   1.027  2.1248 -3.0987 -1.4669
  175MOL0     H23561   3.214  11.228   1.158  0.1528  0.1476  0.4394
  175MOL0     H23562   3.405  11.199   1.333  2.1903 -1.8599  0.0020
  175MOL0     H23563   3.386  11.352   1.240 -0.6319  1.0001  0.1335
  175MOL0     H23564   3.618  11.282   1.279 -0.5128 -0.6508 -0.2515
  175MOL0     H23565   3.586  11.320   1.109 -1.0983  2.9916  1.0838
  175MOL0     H23566   3.615  11.050   1.258  7.0597  0.3566  2.4807
  175MOL0     H23567   3.568  11.066   1.087 -3.1600 -1.2117  2.5081
  175MOL0     H23568   3.789  11.088   1.029 -3.7092 -0.4130 -1.2368
  175MOL0     H23569   3.797  11.226   1.149 -1.1424  0.3563 -0.7208
  175MOL0     H23570   3.870  11.102   1.326 -2.1555  1.7506 -1.1881
  175MOL0     H23571   3.852  10.942   1.244 -1.4599  0.5542 -0.5031
  175MOL0     H23572   4.040  11.177   1.187 -1.6137  0.5473  1.6267
  175MOL0     H23573   4.041  11.029   1.095 -0.3860 -0.2143  0.4412
  175MOL0     H23574   4.092  11.047   1.406  0.3931  2.0623 -0.4879
  175MOL0     H23575   4.062  10.901   1.313 -0.5742 -0.0923 -3.3984
  175MOL0     H23576   4.259  10.820   1.115  4.4289 -0.2460 -2.2942
  175MOL0     H23577   4.499  10.848   1.017  0.5035 -1.3036 -0.3030
  175MOL0     H23578   4.638  10.880   1.129 -0.3174 -0.4549  3.2164
  175MOL0     H23579   4.535  10.670   1.257  1.0671  2.2213  1.0036
  175MOL0     H23580   4.450  10.641   1.106 -0.2321  1.6402 -1.2068
  175MOL0     H23581   4.678  10.534   1.130  1.8116  0.9943  0.9924
  175MOL0     H23582   4.737  10.700   1.103 -1.3693  1.9632 -2.4877
  175MOL0     H23583   4.683  10.712   0.883  2.4986 -2.1297 -3.5960
  175MOL0     H23584   4.558  10.584   0.897  1.0873 -2.1944 -0.7981
  175MOL0     H23585   4.544  10.367   1.016  1.9350  0.0552  0.1556
  175MOL0     H23586   4.481  10.140   0.959 -0.2073  0.2397  1.8249
  175MOL0     H23587   4.473   9.876   0.516  2.2353  1.0672  2.1649
  175MOL0     H23588   4.344   9.684   0.448 -0.3407  0.5950 -0.5703
  175MOL0     H23589   4.423   9.393   0.715  0.3623  2.8907 -1.9298
  175MOL0     H23590   4.259   9.333   0.726 -0.6897 -1.9646 -0.9120
  175MOL0     H23591   4.288   9.286   0.466  0.4449  0.9360  0.3671
  175MOL0     H23592   4.461   9.259   0.506  0.0972  3.4016 -3.1407
  175MOL0     H23593   4.413   9.082   0.643  2.4028  0.6825 -2.7734
  175MOL0     H23594   4.241   9.112   0.653  0.5713 -0.4172  2.8039
  175MOL0     H23595   4.373   9.081   0.367 -1.1601  0.2588 -0.2127
  175MOL0     H23596   4.208   9.059   0.431  0.6771 -0.0167  1.0815
  175MOL0     H23597   4.283   8.845   0.397 -1.0799  2.3214  0.7269
  175MOL0     H23598   4.329   8.854   0.562  0.6524 -0.3421 -1.2617
  175MOL0     H23599   4.521   8.919   0.335 -1.0674  1.0489  0.3224
  175MOL0     H23600   4.550   8.895   0.513 -0.2108  0.5911  0.1911
  175MOL0     H23601   4.494   8.662   0.484 -1.2906  2.5974  1.3359
  175MOL0     H23602   4.640   8.708   0.384  0.3026 -2.8642  2.6136
  175MOL0     H23603   4.355   8.641   0.306 -0.7208 -0.1396 -0.6111
  175MOL0     H23604   4.473   8.688   0.186 -1.1065 -0.1540 -0.2959
  175MOL0     H23605   4.296   9.562   0.859 -1.7883  3.0430  0.8721
  175MOL0     H23606   4.439   9.765   0.928  2.9868  2.6944 -1.9439
  175MOL0     H23607   4.832  10.120   0.715  0.0732 -1.3473 -0.2061
  175MOL0     H23608   4.898  10.340   0.776 -0.1746  0.9361  0.7543
  175MOL0     H23609   3.166  11.122   0.912  0.2430  2.0242  4.3038
  175MOL0     H23610   2.952  11.011   0.846  1.2008  1.9773 -1.6476
  175MOL0     H23611   2.614  10.556   1.143 -0.1572 -2.7024 -0.9624
  175MOL0     H23612   2.398  10.456   1.065 -3.3746 -1.2265 -3.2513
  175MOL0     H23613   2.346  10.423   0.668 -0.6363  0.0377 -0.4873
  175MOL0     H23614   2.241  10.569   0.669 -1.1689 -0.8549 -0.4235
  175MOL0     H23615   2.047  10.445   0.734 -0.4932 -1.4169  0.1352
  175MOL0     H23616   2.123  10.298   0.771  1.9812 -0.4718 -0.0495
  175MOL0     H23617   2.134  10.400   0.473 -0.5954  1.0899 -0.1627
  175MOL0     H23618   1.996  10.314   0.556 -0.2382  1.3299 -1.2696
  175MOL0     H23619   2.139  10.186   0.412  0.2406 -0.1121 -0.4276
  175MOL0     H23620   2.282  10.230   0.483 -1.1919  2.0373 -1.2612
  175MOL0     H23621   2.189   9.950   0.781  0.0972  0.9152  2.2642
  175MOL0     H23622   2.455  10.655   0.686 -0.0760  0.4750 -0.3833
  175MOL0     H23623   2.637  10.777   0.628  0.2846 -3.2523 -0.6656
  175MOL0     H23624   2.709  10.876   0.757  1.2968 -1.0905  0.6037
  175MOL0     H23625   2.788  10.728   0.709  0.6607  0.4958  0.7981
  176MOL0     O23626   1.790   0.431   7.842 -0.0941  0.0261 -0.0247
  176MOL0     C23627   1.752   0.471   7.952 -0.4305  0.1767  0.6593
  176MOL0     O23628   1.753   0.600   7.997 -0.0935  0.3757  1.0073
  176MOL0     C23629   1.780   0.709   7.920 -0.2700  0.6041  0.4492
  176MOL0     C23630   1.698   0.823   7.931 -0.2357 -0.9128 -0.0391
  176MOL0     C23631   1.731   0.938   7.865 -0.1188  1.1407  0.4456
  176MOL0     C23632   1.839   0.938   7.774  0.8826 -0.0986  0.2046
  176MOL0     O23633   1.859   1.060   7.706  0.6035  0.3515 -1.2281
  176MOL0     C23634   1.925   1.036   7.581 -0.3844 -0.6810 -0.6665
  176MOL0     C23635   1.895   1.172   7.504 -0.2637  0.5211 -0.8727
  176MOL0     C23636   1.954   1.293   7.567 -0.0078 -0.3632 -0.1834
  176MOL0     C23637   1.894   1.415   7.488  0.4962  0.8068  0.1580
  176MOL0     C23638   1.973   1.540   7.521  0.2301  0.3763 -0.1470
  176MOL0     C23639   1.944   1.583   7.657 -0.1104  0.0942 -0.0654
  176MOL0     C23640   2.036   1.692   7.678  0.1544  0.5299  0.0870
  176MOL0     C23641   2.001   1.814   7.596  0.1833 -0.1247 -0.3265
  176MOL0     N23642   2.058   1.943   7.627  0.9854 -0.1915 -0.7312
  176MOL0     C23643   2.187   1.971   7.651  0.1608 -0.8521 -0.0149
  176MOL0     C23644   2.184   2.109   7.655 -0.8247  0.0469 -0.3228
  176MOL0     C23645   2.318   2.193   7.648  0.1595 -0.1405  0.0685
  176MOL0     C23646   2.330   2.288   7.768  0.2415 -0.1497 -0.6404
  176MOL0     C23647   2.442   2.387   7.772 -0.9191 -0.6344 -0.7292
  176MOL0     C23648   2.421   2.502   7.869  0.8761  0.8078 -0.5931
  176MOL0     O23649   2.396   2.444   8.004  0.9203 -0.0027  0.4595
  176MOL0     C23650   2.386   2.524   8.108 -0.5129 -1.7104 -0.6299
  176MOL0     C23651   2.451   2.486   8.226  0.4102 -0.1386 -0.2391
  176MOL0     C23652   2.466   2.584   8.330 -0.2905  0.8263  0.1932
  176MOL0     C23653   2.415   2.710   8.311 -0.3352  0.9558  0.0688
  176MOL0     C23654   2.455   2.818   8.404  0.0906  0.2498 -0.6086
  176MOL0     O23655   2.540   2.783   8.509 -0.7677 -0.7667  0.0453
  176MOL0     C23656   2.552   2.868   8.612 -0.7708  1.1224  0.3957
  176MOL0     C23657   2.456   2.903   8.700  0.1382 -0.1494  0.1983
  176MOL0     C23658   2.478   2.978   8.815  0.4849  0.2529 -0.1926
  176MOL0     C23659   2.609   3.019   8.846  0.5965  0.0031 -0.7467
  176MOL0     O23660   2.650   3.077   8.959 -0.2351 -0.5771 -1.0732
  176MOL0     C23661   2.568   3.095   9.077 -0.3877 -0.8662  0.3214
  176MOL0     C23662   2.634   3.175   9.185 -0.6868 -0.2074  0.1193
  176MOL0     C23663   2.768   3.110   9.218 -0.5325  0.4586 -0.1172
  176MOL0     C23664   2.805   3.112   9.363 -0.4817  0.3125 -0.5967
  176MOL0     C23665   2.796   3.246   9.436 -0.1814 -0.7346  0.2481
  176MOL0     C23666   2.873   3.372   9.382 -0.1736  0.6039  1.3869
  176MOL0     C23667   3.028   3.357   9.406  0.7583  0.6276 -0.3152
  176MOL0     C23668   3.099   3.422   9.287  0.2881 -0.3566 -0.6215
  176MOL0    Cl23669   3.100   3.318   9.149 -0.2985 -0.1332  0.5593
  176MOL0     C23670   2.704   2.986   8.758 -0.1832 -0.7358 -0.1781
  176MOL0     C23671   2.681   2.905   8.644 -0.8439  0.6112  0.7341
  176MOL0     O23672   2.401   2.919   8.387 -0.0142 -0.0200 -0.0393
  176MOL0     C23673   2.325   2.735   8.201  0.8942 -0.2071 -0.3223
  176MOL0     C23674   2.312   2.643   8.108  0.6457  0.9303  0.9158
  176MOL0     N23675   2.055   2.160   7.653  0.7594 -0.1006  0.1193
  176MOL0     N23676   1.980   2.054   7.631 -0.5017 -0.2535  0.3207
  176MOL0     C23677   1.922   0.819   7.765 -0.0691  0.2504  0.6921
  176MOL0     C23678   1.889   0.703   7.832  0.2529 -0.1562 -0.3844
  176MOL0     C23679   1.712   0.367   8.053 -0.4934 -0.8932  0.1149
  176MOL0     C23680   1.781   0.383   8.181 -0.1273  0.2817  0.0537
  176MOL0     C23681   1.753   0.307   8.297  0.5334 -0.0380 -0.5179
  176MOL0     C23682   1.670   0.194   8.276  0.0105 -0.3314 -0.3556
  176MOL0     O23683   1.626   0.102   8.371  0.1392 -0.0577 -0.2296
  176MOL0     C23684   1.713   0.041   8.451 -1.1372  0.6271 -0.3437
  176MOL0     C23685   1.644  -0.079   8.518 -0.2330  0.5787  1.8506
  176MOL0     C23686   1.571  -0.037   8.641  0.3714  0.3924  0.1649
  176MOL0     C23687   1.537  -0.157   8.737  0.0912  0.1353  0.0964
  176MOL0     C23688   1.655  -0.236   8.771  1.0169  0.0263  0.2836
  176MOL0     C23689   1.768  -0.294   8.789 -0.1521 -0.6187 -0.8016
  176MOL0     C23690   1.605   0.175   8.147 -0.6241  0.6330  0.2835
  176MOL0     C23691   1.620   0.263   8.037 -0.5245  0.4476 -0.0799
  176MOL0     C23692   1.543   0.231   7.911 -0.1482  0.1734 -0.2065
  176MOL0     H23693   1.608   0.820   7.991  0.5251 -0.6618  1.1436
  176MOL0     H23694   1.655   1.016   7.862 -0.3655  0.8856 -0.0519
  176MOL0     H23695   2.030   1.016   7.603 -1.5994 -3.4858  4.1862
  176MOL0     H23696   1.877   0.952   7.529 -4.0382 -0.4037  1.8142
  176MOL0     H23697   1.786   1.181   7.508 -0.4635 -1.0397 -1.8009
  176MOL0     H23698   1.927   1.156   7.401 -0.6254 -2.1332 -0.6395
  176MOL0     H23699   2.061   1.278   7.556  0.4290 -1.0609  3.6600
  176MOL0     H23700   1.933   1.292   7.674 -0.8353 -0.0265 -0.3357
  176MOL0     H23701   1.915   1.400   7.382 -0.7272  4.2792 -0.6958
  176MOL0     H23702   1.786   1.422   7.506  0.3008 -0.4114 -0.4751
  176MOL0     H23703   2.080   1.524   7.507  1.3606  3.8972  2.9833
  176MOL0     H23704   1.946   1.614   7.446 -2.3502  3.1414  3.1431
  176MOL0     H23705   1.842   1.623   7.664  0.5606  1.6831  1.0729
  176MOL0     H23706   1.971   1.506   7.729  3.0580  0.7301 -0.4249
  176MOL0     H23707   2.140   1.660   7.667 -0.5004 -1.6588 -0.4353
  176MOL0     H23708   2.025   1.727   7.781 -0.1060  3.3962 -0.8311
  176MOL0     H23709   2.031   1.789   7.494 -1.6538 -2.3062 -0.4129
  176MOL0     H23710   1.895   1.838   7.580  0.8946  2.2760 -2.0927
  176MOL0     H23711   2.276   1.909   7.649  2.5151  2.2336  0.8404
  176MOL0     H23712   2.403   2.124   7.641  0.1214 -0.1207 -0.7275
  176MOL0     H23713   2.314   2.242   7.550 -1.7356  1.1852  0.7482
  176MOL0     H23714   2.233   2.330   7.795 -0.3905 -1.5906 -0.5500
  176MOL0     H23715   2.348   2.233   7.861  1.2438  1.0253 -0.1037
  176MOL0     H23716   2.466   2.432   7.675  1.2072 -0.5428 -0.2136
  176MOL0     H23717   2.534   2.334   7.797 -0.0326  0.5463 -1.4136
  176MOL0     H23718   2.332   2.560   7.844  0.7484  1.7018  1.7365
  176MOL0     H23719   2.505   2.573   7.874  1.4257  0.1531 -0.3051
  176MOL0     H23720   2.509   2.394   8.225  0.4424 -0.1905  1.7990
  176MOL0     H23721   2.532   2.561   8.414  0.3214  3.3644  0.4757
  176MOL0     H23722   2.356   2.878   8.666  1.1248 -1.2530 -2.0972
  176MOL0     H23723   2.400   3.003   8.886  1.3629 -1.4211  1.4521
  176MOL0     H23724   2.476   3.143   9.041  0.0414 -0.7587 -0.6519
  176MOL0     H23725   2.550   2.999   9.127 -0.2797 -0.7349  0.6150
  176MOL0     H23726   2.643   3.277   9.147 -1.4303 -0.0229  0.4082
  176MOL0     H23727   2.570   3.171   9.274 -1.2418 -1.1494 -0.3144
  176MOL0     H23728   2.773   3.006   9.184  1.0170  0.4330  0.1082
  176MOL0     H23729   2.844   3.174   9.172 -2.4631  1.7005 -1.7336
  176MOL0     H23730   2.890   3.044   9.375 -1.3238 -0.4201  1.7890
  176MOL0     H23731   2.731   3.052   9.416  1.0331 -0.1055  1.1824
  176MOL0     H23732   2.818   3.244   9.543  2.2896  0.4076 -0.1737
  176MOL0     H23733   2.692   3.282   9.436  0.0042 -0.1851  0.0383
  176MOL0     H23734   2.847   3.377   9.276  1.0106 -1.0042  0.9808
  176MOL0     H23735   2.830   3.457   9.436  2.4899  1.0592  2.9881
  176MOL0     H23736   3.049   3.250   9.419 -1.1918 -0.1474 -2.6856
  176MOL0     H23737   3.076   3.408   9.489  0.6656  0.5297 -0.2006
  176MOL0     H23738   3.030   3.504   9.265 -2.6017 -2.2582  0.7250
  176MOL0     H23739   3.198   3.452   9.323 -0.4008 -1.8678  2.9475
  176MOL0     H23740   2.808   3.007   8.782  0.3958  0.7716 -3.4431
  176MOL0     H23741   2.760   2.873   8.576 -4.0020 -1.5856 -2.2471
  176MOL0     H23742   2.279   2.831   8.179 -0.5797 -0.6059  0.8326
  176MOL0     H23743   2.248   2.666   8.023  1.9885  1.5523  0.0329
  176MOL0     H23744   2.009   0.812   7.701  1.5501  5.2474  1.8734
  176MOL0     H23745   1.944   0.610   7.840  0.1017 -0.1154  1.5561
  176MOL0     H23746   1.843   0.472   8.187 -0.2383  0.4579 -1.1483
  176MOL0     H23747   1.798   0.341   8.389  0.4593  1.5459 -1.0289
  176MOL0     H23748   1.740   0.110   8.532 -0.7529  0.8309 -0.6420
  176MOL0     H23749   1.800   0.026   8.387  0.6256  2.9288  1.3190
  176MOL0     H23750   1.726  -0.147   8.540  2.2568  3.2087  1.3212
  176MOL0     H23751   1.577  -0.135   8.452  1.8533  0.0690  0.0324
  176MOL0     H23752   1.498   0.040   8.615  2.5364  1.7046 -2.5562
  176MOL0     H23753   1.646   0.019   8.698  0.8936 -0.2124  0.0846
  176MOL0     H23754   1.502  -0.116   8.833 -0.3396 -1.1891  0.5194
  176MOL0     H23755   1.465  -0.228   8.696  0.2377 -1.9764  3.1456
  176MOL0     H23756   1.862  -0.341   8.810 -0.3599 -1.1380 -1.0351
  176MOL0     H23757   1.523   0.103   8.140  0.5236 -0.8970  1.8099
  176MOL0     H23758   1.573   0.315   7.849  3.3095 -0.5476  0.3020
  176MOL0     H23759   1.580   0.140   7.863  0.7330 -0.0716  0.8778
  176MOL0     H23760   1.436   0.234   7.933  0.4845 -0.4103  3.7436
  177MOL0     O23761   7.800   9.685   5.324  0.0431 -0.7824  0.0109
  177MOL0     C23762   7.921   9.674   5.350 -0.2866 -0.2555  0.0863
  177MOL0     O23763   7.977   9.681   5.472  0.0809  0.0317  0.2414
  177MOL0     C23764   7.898   9.646   5.575  1.1827 -0.4451  0.0335
  177MOL0     C23765   7.898   9.731   5.687  0.2205 -0.4761 -0.5699
  177MOL0     C23766   7.815   9.702   5.800 -0.2565 -0.6143 -0.0572
  177MOL0     C23767   7.731   9.586   5.796  0.0654  0.8722  0.2737
  177MOL0     O23768   7.637   9.544   5.892  0.4442 -0.8392  0.6006
  177MOL0     C23769   7.596   9.632   6.000 -0.3546 -0.4502  0.5110
  177MOL0     C23770   7.626   9.551   6.127 -0.2643  0.7152  0.0822
  177MOL0     C23771   7.525   9.444   6.157 -0.5332 -0.3022  0.4737
  177MOL0     C23772   7.537   9.328   6.057  0.3673 -0.0135 -0.7486
  177MOL0     C23773   7.485   9.196   6.113 -0.5713 -0.0530 -0.4926
  177MOL0     C23774   7.471   9.072   6.013  0.2415  0.6235  0.5791
  177MOL0     C23775   7.372   9.093   5.895  1.1491  1.1421  0.0745
  177MOL0     C23776   7.353   8.978   5.781  0.4465 -0.4509 -0.2202
  177MOL0     N23777   7.228   9.006   5.701 -0.4533  0.6839 -0.1311
  177MOL0     C23778   7.191   9.116   5.634  0.0525  0.0296 -0.3133
  177MOL0     C23779   7.071   9.085   5.577 -0.6407  0.8064  0.0113
  177MOL0     C23780   6.985   9.181   5.492 -0.5344 -0.1916  0.8806
  177MOL0     C23781   7.062   9.262   5.383  1.5581  0.2746 -0.6063
  177MOL0     C23782   7.028   9.411   5.380 -0.0350 -0.6127  0.6487
  177MOL0     C23783   7.083   9.467   5.249 -1.1374  0.1455  1.1420
  177MOL0     O23784   7.073   9.602   5.241  0.4348  0.0965 -0.1076
  177MOL0     C23785   7.123   9.671   5.130 -0.5208  0.4694 -1.4411
  177MOL0     C23786   7.078   9.802   5.124 -0.3126  0.4219  0.2181
  177MOL0     C23787   7.102   9.869   4.998  0.1236 -0.7254  0.7452
  177MOL0     C23788   7.185   9.806   4.898  0.9850 -0.0662 -0.3441
  177MOL0     C23789   7.221   9.877   4.771  0.4629  0.6680  0.4624
  177MOL0     O23790   7.323   9.834   4.698  0.2229  0.9830 -0.2035
  177MOL0     C23791   7.384   9.919   4.610 -0.3157  0.1519 -0.2118
  177MOL0     C23792   7.408  10.053   4.636 -0.7608  0.1703  0.5575
  177MOL0     C23793   7.490  10.131   4.562 -0.7315  0.1858  0.1236
  177MOL0     C23794   7.553  10.074   4.448 -0.3328 -0.0701  0.5073
  177MOL0     O23795   7.636  10.141   4.366  0.8882  0.1392  0.6991
  177MOL0     C23796   7.667  10.278   4.391 -1.4845 -0.1423  0.3012
  177MOL0     C23797   7.563  10.376   4.345  0.0986 -0.6252  0.4581
  177MOL0     C23798   7.600  10.418   4.202  0.9870  0.3574 -0.2805
  177MOL0     C23799   7.515  10.547   4.172  0.7462  0.3131 -0.2795
  177MOL0     C23800   7.524  10.579   4.029  0.4703 -0.2665  0.1956
  177MOL0     C23801   7.450  10.701   3.987  0.3544 -0.6041 -0.5831
  177MOL0     C23802   7.300  10.707   4.018  0.2448 -0.4863 -0.0286
  177MOL0     C23803   7.227  10.840   4.020 -0.2837  0.4840 -0.1657
  177MOL0    Cl23804   7.250  10.926   3.849  0.0993  0.3225 -0.2761
  177MOL0     C23805   7.528   9.943   4.418 -0.3027 -0.1359  0.7256
  177MOL0     C23806   7.450   9.859   4.502  0.6000  0.5295  0.1487
  177MOL0     O23807   7.148   9.971   4.738  0.0670 -0.1593 -0.1462
  177MOL0     C23808   7.227   9.675   4.916 -0.3311  1.0926 -0.8685
  177MOL0     C23809   7.194   9.609   5.034 -0.6544  0.4358 -1.2070
  177MOL0     N23810   7.037   8.955   5.606  0.5514  0.0407 -0.0651
  177MOL0     N23811   7.131   8.911   5.683  0.3494  0.0654  0.4771
  177MOL0     C23812   7.732   9.498   5.684  0.1972  0.0975 -0.1482
  177MOL0     C23813   7.813   9.532   5.577  0.5020 -0.9361  0.3372
  177MOL0     C23814   8.004   9.680   5.230  0.7693 -0.9489  0.1166
  177MOL0     C23815   8.085   9.791   5.211 -0.5410  0.0831  0.3108
  177MOL0     C23816   8.157   9.817   5.086  0.1075  0.0468  0.2277
  177MOL0     C23817   8.156   9.712   4.992 -0.4969 -0.4157 -0.1803
  177MOL0     O23818   8.234   9.729   4.878  0.2320  0.0412 -0.1230
  177MOL0     C23819   8.163   9.776   4.760  0.5197 -0.2851 -1.1659
  177MOL0     C23820   8.185   9.925   4.729 -0.5707 -0.4388  0.6739
  177MOL0     C23821   8.315   9.965   4.643  0.6304  0.0116 -0.3092
  177MOL0     C23822   8.315  10.123   4.633  0.2825  0.2833 -0.1537
  177MOL0     C23823   8.206  10.176   4.549 -0.0379 -0.1916 -0.2125
  177MOL0     C23824   8.102  10.201   4.480 -1.2889  0.5583  0.9114
  177MOL0     C23825   8.080   9.597   5.016  0.5693 -0.3879 -0.0425
  177MOL0     C23826   8.001   9.585   5.131  0.1901  0.1502  0.6112
  177MOL0     C23827   7.932   9.449   5.148  0.6250 -0.1190 -0.0391
  177MOL0     H23828   7.945   9.829   5.695 -1.4995  0.3781 -0.5387
  177MOL0     H23829   7.787   9.783   5.867 -2.4398  0.2439 -1.8732
  177MOL0     H23830   7.654   9.725   6.001 -1.7404  0.4400  1.0069
  177MOL0     H23831   7.492   9.666   5.987 -0.6444  0.1060  3.5334
  177MOL0     H23832   7.622   9.616   6.215 -0.4600 -2.0772  2.2845
  177MOL0     H23833   7.721   9.497   6.121 -1.1996 -0.9223 -0.6650
  177MOL0     H23834   7.421   9.479   6.164 -0.3582  0.0659  1.2889
  177MOL0     H23835   7.550   9.392   6.250  0.8862 -1.2066 -0.3819
  177MOL0     H23836   7.501   9.355   5.958 -3.2594 -3.0434 -0.4774
  177MOL0     H23837   7.645   9.309   6.048 -0.0044 -2.2070 -1.1910
  177MOL0     H23838   7.553   9.159   6.191 -2.7474 -1.7904  0.6783
  177MOL0     H23839   7.391   9.228   6.159 -0.1223  0.6928 -0.0633
  177MOL0     H23840   7.567   9.054   5.965 -0.9144 -0.6482 -1.3935
  177MOL0     H23841   7.450   8.976   6.062  0.6455 -0.5817 -1.5013
  177MOL0     H23842   7.387   9.192   5.851  1.6793  0.0857 -2.2772
  177MOL0     H23843   7.273   9.103   5.940 -0.0364 -1.2277 -1.7347
  177MOL0     H23844   7.442   8.977   5.716  0.5535  0.9108 -0.1287
  177MOL0     H23845   7.352   8.879   5.827 -1.6534 -0.8781 -1.0422
  177MOL0     H23846   7.249   9.206   5.616 -0.9583  0.6369 -0.6337
  177MOL0     H23847   6.906   9.113   5.461  1.7825 -2.8520  0.4104
  177MOL0     H23848   6.940   9.243   5.570  1.7686 -1.6500  3.5622
  177MOL0     H23849   7.170   9.249   5.394  1.7606  3.0514  2.3166
  177MOL0     H23850   7.024   9.227   5.287  1.8305  0.7984 -0.9051
  177MOL0     H23851   7.073   9.475   5.457  3.6601  1.3851 -2.7881
  177MOL0     H23852   6.919   9.420   5.391  0.1587 -1.4548  4.9610
  177MOL0     H23853   7.036   9.430   5.157 -1.2570 -0.8875  1.6003
  177MOL0     H23854   7.189   9.441   5.243 -1.3914 -0.5295 -1.2624
  177MOL0     H23855   7.009   9.853   5.191 -1.0925 -1.1660  0.6607
  177MOL0     H23856   7.058   9.968   4.996 -3.1735 -1.9034 -4.5157
  177MOL0     H23857   7.380  10.113   4.723 -0.1708  2.0015 -0.4617
  177MOL0     H23858   7.499  10.236   4.589 -4.2155  0.7190 -0.3080
  177MOL0     H23859   7.683  10.289   4.499  0.6775  1.2018 -0.0853
  177MOL0     H23860   7.763  10.302   4.344 -0.4583 -1.1133  1.7718
  177MOL0     H23861   7.463  10.332   4.351 -1.0860  1.7924  0.0357
  177MOL0     H23862   7.556  10.459   4.416  0.8265 -2.1474  2.3830
  177MOL0     H23863   7.706  10.446   4.191  0.4342  1.8915 -2.4033
  177MOL0     H23864   7.587  10.334   4.133  0.3859 -0.1408  0.4224
  177MOL0     H23865   7.541  10.638   4.226 -2.5580 -0.5035  3.1543
  177MOL0     H23866   7.414  10.528   4.211  0.8055  1.7252  0.6162
  177MOL0     H23867   7.483  10.493   3.975  0.7676  0.0112 -0.4881
  177MOL0     H23868   7.626  10.598   3.996 -0.0486  0.2095 -1.2307
  177MOL0     H23869   7.500  10.781   4.043  0.8210  0.0948 -1.9556
  177MOL0     H23870   7.473  10.710   3.880 -2.2621 -0.9695 -1.2576
  177MOL0     H23871   7.289  10.666   4.119  3.4720  0.7682  0.9420
  177MOL0     H23872   7.246  10.641   3.949 -1.1656  0.7760 -0.2002
  177MOL0     H23873   7.118  10.835   4.029 -0.6194  3.1327 -1.7242
  177MOL0     H23874   7.268  10.908   4.095 -0.9420  1.1545 -0.4076
  177MOL0     H23875   7.586   9.904   4.335  0.5716  1.4231  0.5730
  177MOL0     H23876   7.450   9.755   4.473 -5.1514  0.2765 -0.0472
  177MOL0     H23877   7.292   9.617   4.851 -0.5471 -1.1891  0.8254
  177MOL0     H23878   7.253   9.519   5.046  0.7369  1.4451 -0.0244
  177MOL0     H23879   7.679   9.403   5.679  0.2711  0.0223  0.4198
  177MOL0     H23880   7.831   9.451   5.507  0.5546 -0.0600 -0.6836
  177MOL0     H23881   8.087   9.864   5.292  1.3414 -0.3075  0.6780
  177MOL0     H23882   8.216   9.906   5.065 -1.9566  0.7739 -3.3029
  177MOL0     H23883   8.057   9.756   4.780  0.6306 -3.2409 -2.9906
  177MOL0     H23884   8.191   9.717   4.672  0.2266 -1.8616 -0.2373
  177MOL0     H23885   8.191   9.991   4.816  2.6371 -0.6288  0.7269
  177MOL0     H23886   8.095   9.946   4.671  0.1314  1.1929  0.1132
  177MOL0     H23887   8.320   9.933   4.539  0.5635  1.9645 -0.9547
  177MOL0     H23888   8.408   9.934   4.691  0.4313 -0.8134 -0.4385
  177MOL0     H23889   8.305  10.177   4.727 -1.5772  0.8166 -0.6022
  177MOL0     H23890   8.409  10.163   4.594  1.4330 -2.8853 -0.9367
  177MOL0     H23891   8.017  10.214   4.416 -0.6942 -0.8438 -0.2144
  177MOL0     H23892   8.076   9.522   4.937  0.5364 -1.7709  1.2136
  177MOL0     H23893   7.827   9.455   5.179  1.1262  0.6826  1.6427
  177MOL0     H23894   7.912   9.399   5.052 -2.4101  1.2312 -0.2334
  177MOL0     H23895   7.988   9.385   5.217 -2.4340  0.3162  3.1477
  178MOL0     O23896  10.712   5.688   8.762  0.1229 -0.3974 -0.5393
  178MOL0     C23897  10.667   5.574   8.766  0.7380 -0.3022 -0.5877
  178MOL0     O23898  10.724   5.473   8.707  0.1914  0.0755  0.5942
  178MOL0     C23899  10.858   5.470   8.656  0.9195  0.5049 -0.7503
  178MOL0     C23900  10.967   5.530   8.726  0.5790 -1.3928 -0.1184
  178MOL0     C23901  11.101   5.513   8.684 -0.2525  0.3671 -1.0607
  178MOL0     C23902  11.131   5.427   8.578  0.9618  1.2365  0.5872
  178MOL0     O23903  11.253   5.397   8.533 -0.4050 -0.2312  0.8261
  178MOL0     C23904  11.362   5.489   8.563  0.3455 -0.2968  0.0768
  178MOL0     C23905  11.489   5.446   8.504 -0.0590 -0.7474  0.4721
  178MOL0     C23906  11.478   5.395   8.349 -0.1442  0.7708  0.8635
  178MOL0     C23907  11.611   5.352   8.283 -0.0204  0.3015 -0.1390
  178MOL0     C23908  11.728   5.455   8.264  0.2356  0.2740 -0.6962
  178MOL0     C23909  11.696   5.590   8.210  0.1156  0.2800 -0.1082
  178MOL0     C23910  11.681   5.576   8.060 -0.6839  1.0777  0.2733
  178MOL0     C23911  11.597   5.696   8.008 -0.1468  0.4982 -0.3304
  178MOL0     N23912  11.619   5.709   7.865 -1.1137 -0.5240  0.0340
  178MOL0     C23913  11.712   5.793   7.817 -1.0050 -0.0120  0.1318
  178MOL0     C23914  11.701   5.771   7.679 -0.0198  0.4391 -0.5080
  178MOL0     C23915  11.785   5.846   7.570  0.8736  0.0127 -0.6157
  178MOL0     C23916  11.812   5.998   7.596 -0.4785 -0.2864 -0.2124
  178MOL0     C23917  11.942   6.018   7.670  0.3215 -0.2953 -0.3135
  178MOL0     C23918  11.963   6.160   7.709 -0.6586 -0.4583 -0.8251
  178MOL0     O23919  11.857   6.220   7.779  0.1645  0.3319  0.4698
  178MOL0     C23920  11.889   6.295   7.891 -0.0165 -0.4184  1.4207
  178MOL0     C23921  11.980   6.396   7.866  1.0215  0.1002  0.4117
  178MOL0     C23922  12.043   6.458   7.979  0.1249  0.1501  0.2485
  178MOL0     C23923  12.010   6.421   8.116 -0.7113 -0.5205  0.0838
  178MOL0     C23924  12.063   6.500   8.227  1.0704 -1.2526  0.1841
  178MOL0     O23925  12.043   6.462   8.349 -0.5957 -0.2423 -1.2995
  178MOL0     C23926  12.095   6.530   8.461  0.1321  0.1128 -0.1522
  178MOL0     C23927  12.015   6.596   8.557 -0.2479 -0.4951  0.5818
  178MOL0     C23928  12.076   6.647   8.662 -0.2755 -0.4738  1.3384
  178MOL0     C23929  12.205   6.638   8.693  0.1955  0.3815 -0.3442
  178MOL0     O23930  12.243   6.681   8.816 -0.3701 -0.0923  0.4189
  178MOL0     C23931  12.360   6.627   8.875  0.1372  0.0636 -0.5645
  178MOL0     C23932  12.396   6.695   9.000 -0.4857  0.4605 -0.5384
  178MOL0     C23933  12.282   6.712   9.089 -0.2112  0.0546 -0.8093
  178MOL0     C23934  12.340   6.785   9.216  0.1397 -0.4696  0.1885
  178MOL0     C23935  12.239   6.784   9.333  0.4112  0.0084  0.0427
  178MOL0     C23936  12.119   6.876   9.307  0.5600 -0.4032  0.2434
  178MOL0     C23937  12.169   7.021   9.298 -0.8562  0.6895 -0.4625
  178MOL0     C23938  12.061   7.119   9.343  0.0924  1.4577  0.4169
  178MOL0    Cl23939  11.906   7.098   9.246  0.5281  0.4560 -0.0240
  178MOL0     C23940  12.285   6.564   8.604 -0.2553 -0.8862  1.1068
  178MOL0     C23941  12.230   6.504   8.493  0.3541 -0.2506  0.5211
  178MOL0     O23942  12.121   6.606   8.196 -0.1614  0.1484  0.1717
  178MOL0     C23943  11.901   6.331   8.134 -0.0958  0.2477 -1.2295
  178MOL0     C23944  11.853   6.259   8.028  0.7029 -0.6407  0.9679
  178MOL0     N23945  11.591   5.695   7.659  0.1280 -0.5897 -0.1353
  178MOL0     N23946  11.547   5.646   7.767  0.2646  0.7456 -0.3061
  178MOL0     C23947  11.024   5.368   8.511 -0.2987 -0.3516  0.4691
  178MOL0     C23948  10.890   5.393   8.551 -0.2336 -0.2603  0.1283
  178MOL0     C23949  10.541   5.547   8.828  1.0922  0.8676 -0.4305
  178MOL0     C23950  10.445   5.640   8.839 -0.1112 -0.1917 -0.2460
  178MOL0     C23951  10.307   5.613   8.885  0.5681  0.3819  0.0283
  178MOL0     C23952  10.273   5.475   8.915  0.3874  0.1111  0.0927
  178MOL0     O23953  10.146   5.422   8.945 -0.4389 -0.4891 -0.0199
  178MOL0     C23954  10.030   5.496   8.912  0.0956  0.1631  0.5816
  178MOL0     C23955   9.909   5.414   8.938  0.6352  0.5532  0.3321
  178MOL0     C23956   9.913   5.302   8.837  1.6181  1.1845 -0.2508
  178MOL0     C23957   9.820   5.180   8.883 -0.2309  0.2124  0.6288
  178MOL0     C23958   9.684   5.225   8.886  0.6484 -0.0000  0.0721
  178MOL0     C23959   9.565   5.261   8.898 -1.2409 -0.1245 -1.0736
  178MOL0     C23960  10.381   5.383   8.918  0.5660 -1.2660 -0.8472
  178MOL0     C23961  10.512   5.417   8.883 -0.0417  0.2999  1.4023
  178MOL0     C23962  10.607   5.308   8.904 -0.2525  0.1894 -0.2550
  178MOL0     H23963  10.948   5.593   8.812  1.4453 -1.7858  0.3737
  178MOL0     H23964  11.174   5.563   8.747 -0.9338 -0.4799  0.4737
  178MOL0     H23965  11.340   5.591   8.529 -3.3984 -1.4224 -1.4074
  178MOL0     H23966  11.361   5.479   8.671 -1.1736 -4.2222 -0.1618
  178MOL0     H23967  11.532   5.365   8.565  0.9791 -1.5868 -1.2973
  178MOL0     H23968  11.556   5.533   8.505 -1.1166  0.0731  1.1317
  178MOL0     H23969  11.423   5.465   8.286 -0.9379  0.7743  1.5353
  178MOL0     H23970  11.411   5.308   8.360  0.0285  0.6047  0.5978
  178MOL0     H23971  11.649   5.262   8.334 -0.1188 -0.0472 -0.6726
  178MOL0     H23972  11.585   5.313   8.184 -0.5353  0.0133  0.1064
  178MOL0     H23973  11.766   5.465   8.367 -0.5636 -0.4306 -0.3196
  178MOL0     H23974  11.804   5.414   8.196 -0.8140  1.5860 -2.7470
  178MOL0     H23975  11.598   5.620   8.247  0.3699  2.8099 -1.2735
  178MOL0     H23976  11.767   5.670   8.233 -0.0631 -0.3528  3.2216
  178MOL0     H23977  11.625   5.488   8.030  0.8366  0.9285 -2.4990
  178MOL0     H23978  11.779   5.584   8.012 -1.3616 -1.3316 -1.6856
  178MOL0     H23979  11.489   5.682   8.021  0.3594 -2.2053  1.8927
  178MOL0     H23980  11.631   5.788   8.057 -1.4469  0.6953  0.2326
  178MOL0     H23981  11.782   5.862   7.864 -1.8325  1.0271 -0.1183
  178MOL0     H23982  11.882   5.794   7.569  0.5797 -0.5629 -1.9571
  178MOL0     H23983  11.744   5.824   7.471  1.5884 -2.7291 -0.3828
  178MOL0     H23984  11.846   6.041   7.501  1.4072 -1.7261 -0.2517
  178MOL0     H23985  11.730   6.053   7.642  0.2649  2.3209 -1.7623
  178MOL0     H23986  12.024   5.994   7.602 -0.4829  0.5446 -1.6078
  178MOL0     H23987  11.961   5.957   7.759 -0.2086  2.7717  2.1067
  178MOL0     H23988  11.968   6.227   7.623  2.7672  0.6418  0.0341
  178MOL0     H23989  12.063   6.168   7.755 -0.7287  0.3372 -0.7826
  178MOL0     H23990  11.988   6.418   7.760 -5.1843  2.6274  0.0319
  178MOL0     H23991  12.125   6.526   7.959  0.5586 -1.0963 -2.7896
  178MOL0     H23992  11.908   6.611   8.550 -0.6974 -3.2215  0.3146
  178MOL0     H23993  12.003   6.686   8.732 -2.9533  1.2590 -2.1351
  178MOL0     H23994  12.348   6.519   8.893  1.4764 -0.2453 -1.3852
  178MOL0     H23995  12.442   6.627   8.802  2.8928 -2.1915  2.2502
  178MOL0     H23996  12.470   6.629   9.046 -1.3096 -0.5063 -0.5725
  178MOL0     H23997  12.432   6.798   8.988  0.4888  0.1905 -0.0850
  178MOL0     H23998  12.210   6.786   9.052 -0.2931 -0.3327 -1.4391
  178MOL0     H23999  12.229   6.621   9.119  1.3181 -0.3892  0.7378
  178MOL0     H24000  12.367   6.891   9.204 -1.0589  0.0729  1.8943
  178MOL0     H24001  12.432   6.742   9.255  0.2723  0.9156  1.5080
  178MOL0     H24002  12.296   6.813   9.422  0.4943  3.0527 -0.8853
  178MOL0     H24003  12.195   6.684   9.329  1.6995 -0.5527 -2.2504
  178MOL0     H24004  12.085   6.858   9.204 -0.2313 -0.1575  0.4564
  178MOL0     H24005  12.042   6.858   9.382 -0.1798 -0.6958 -0.5715
  178MOL0     H24006  12.206   7.041   9.197  2.1931  2.9306  0.9692
  178MOL0     H24007  12.258   7.038   9.359  0.4688  2.0196 -2.6361
  178MOL0     H24008  12.058   7.079   9.445  0.4724  1.4626  0.4330
  178MOL0     H24009  12.081   7.227   9.340 -3.4019  2.2084 -2.9719
  178MOL0     H24010  12.391   6.547   8.620 -0.0518 -1.4776 -0.6264
  178MOL0     H24011  12.294   6.449   8.425  0.3429 -2.2229  2.0175
  178MOL0     H24012  11.881   6.310   8.239  4.5939 -2.1804 -0.5432
  178MOL0     H24013  11.782   6.177   8.036 -0.5413  0.1426 -1.2055
  178MOL0     H24014  11.031   5.315   8.417  1.0127  3.1329 -1.6032
  178MOL0     H24015  10.816   5.343   8.488  3.0267 -2.3803 -2.3884
  178MOL0     H24016  10.472   5.739   8.805 -0.5912  0.2238  0.5407
  178MOL0     H24017  10.234   5.693   8.885 -1.7234 -1.5395 -1.6244
  178MOL0     H24018  10.035   5.529   8.808 -0.7407 -1.5382 -0.0243
  178MOL0     H24019  10.015   5.583   8.978  0.9956 -0.7679  2.0880
  178MOL0     H24020   9.823   5.481   8.921  2.4962  3.3515  1.1425
  178MOL0     H24021   9.907   5.365   9.036  4.6283 -0.3332  0.1308
  178MOL0     H24022  10.013   5.260   8.820 -0.0652 -4.0425  0.6879
  178MOL0     H24023   9.882   5.345   8.742  0.8050 -1.1149 -1.1038
  178MOL0     H24024   9.818   5.088   8.823 -0.7242 -0.1651  1.2109
  178MOL0     H24025   9.851   5.161   8.986  0.7036 -1.7078  0.0408
  178MOL0     H24026   9.470   5.306   8.921 -2.0362 -2.8233  1.4903
  178MOL0     H24027  10.357   5.281   8.945  0.0509 -1.2783 -1.3322
  178MOL0     H24028  10.571   5.235   8.976  2.4280  0.5386  1.5666
  178MOL0     H24029  10.611   5.255   8.808  0.8876 -0.6126  0.2101
  178MOL0     H24030  10.710   5.328   8.936 -0.0168 -2.1797  0.6091
  179MOL0     O24031   1.097   7.767   5.988 -0.0652 -0.0835  0.1281
  179MOL0     C24032   1.021   7.725   5.902  0.8427 -0.0368  1.1342
  179MOL0     O24033   1.051   7.652   5.785  0.1694 -0.3701 -1.0063
  179MOL0     C24034   1.178   7.679   5.730 -0.8417 -0.2759  0.1018
  179MOL0     C24035   1.266   7.790   5.756  0.4072  0.6460 -0.3720
  179MOL0     C24036   1.392   7.788   5.694 -0.6917  0.7201  0.6523
  179MOL0     C24037   1.432   7.676   5.612 -0.1895  0.8979  1.2811
  179MOL0     O24038   1.567   7.661   5.575 -0.4349 -0.1499 -0.0485
  179MOL0     C24039   1.630   7.779   5.528 -0.8262 -1.1903 -0.0025
  179MOL0     C24040   1.755   7.723   5.454  0.1847  0.1046 -0.3414
  179MOL0     C24041   1.835   7.606   5.520 -0.1650 -0.6718 -0.2834
  179MOL0     C24042   1.938   7.549   5.422  0.5466 -0.2466 -0.3796
  179MOL0     C24043   2.020   7.437   5.479 -0.4335 -0.1958  0.3135
  179MOL0     C24044   2.096   7.464   5.613  0.6170  0.9875 -0.4746
  179MOL0     C24045   2.178   7.592   5.632  1.4379 -0.9152 -0.6135
  179MOL0     C24046   2.311   7.609   5.555  0.4501  0.3708 -1.3224
  179MOL0     N24047   2.401   7.500   5.602 -0.4005 -0.2173 -0.5563
  179MOL0     C24048   2.486   7.514   5.713  0.6349 -0.6312  0.3651
  179MOL0     C24049   2.549   7.399   5.725  0.8337  0.6418  0.7175
  179MOL0     C24050   2.656   7.362   5.820 -0.7653 -0.3036  0.0596
  179MOL0     C24051   2.618   7.228   5.886  0.0653  0.0688 -0.5350
  179MOL0     C24052   2.739   7.175   5.973 -0.6922 -0.3960 -0.0214
  179MOL0     C24053   2.686   7.136   6.114 -0.0608  0.2311 -0.5821
  179MOL0     O24054   2.667   6.992   6.133 -0.3345  0.5367 -0.2903
  179MOL0     C24055   2.771   6.910   6.131 -1.3679 -0.5347 -0.5953
  179MOL0     C24056   2.737   6.783   6.175  1.2792 -0.5199  1.3028
  179MOL0     C24057   2.831   6.684   6.175 -0.0298 -0.0964 -0.1552
  179MOL0     C24058   2.968   6.718   6.141 -0.9999  0.5579 -0.2428
  179MOL0     C24059   3.075   6.618   6.113 -0.0684 -0.1156 -0.6029
  179MOL0     O24060   3.202   6.656   6.082 -0.0171 -0.0796 -0.3627
  179MOL0     C24061   3.269   6.593   5.983  0.3735  0.7990  0.4022
  179MOL0     C24062   3.409   6.613   5.992  0.5203 -0.0934 -0.2779
  179MOL0     C24063   3.493   6.547   5.907 -0.8910 -0.3352  0.7599
  179MOL0     C24064   3.455   6.464   5.806  0.4141  0.4474 -0.3403
  179MOL0     O24065   3.554   6.429   5.728 -0.5536 -0.4707 -0.2505
  179MOL0     C24066   3.513   6.359   5.613 -0.9865  0.5372 -0.7917
  179MOL0     C24067   3.431   6.433   5.507  1.2166  0.4143 -0.8529
  179MOL0     C24068   3.336   6.338   5.430 -0.6068  0.5356  0.5844
  179MOL0     C24069   3.213   6.411   5.385  0.4029 -0.2945 -0.2984
  179MOL0     C24070   3.123   6.316   5.297  0.8735 -1.0790 -0.4728
  179MOL0     C24071   2.998   6.400   5.269 -0.2445 -0.0704  0.0734
  179MOL0     C24072   3.023   6.509   5.169 -0.2968 -0.2272 -0.3351
  179MOL0     C24073   2.883   6.551   5.110 -0.9745  0.2494  0.1245
  179MOL0    Cl24074   2.894   6.706   5.011  0.3314  0.6417  0.5130
  179MOL0     C24075   3.313   6.430   5.803 -0.8096 -0.1890  0.5183
  179MOL0     C24076   3.228   6.490   5.891 -0.2053  0.0821 -0.2746
  179MOL0     O24077   3.037   6.509   6.139 -0.2068  1.5307  0.7446
  179MOL0     C24078   2.999   6.853   6.115 -0.3591  0.0450  0.4774
  179MOL0     C24079   2.905   6.956   6.101 -0.5824 -0.4235  0.7853
  179MOL0     N24080   2.493   7.317   5.626  0.6808 -0.5317 -0.1709
  179MOL0     N24081   2.415   7.377   5.553 -0.3618  0.0148  0.3355
  179MOL0     C24082   1.342   7.569   5.585  0.2815  0.0436  0.0705
  179MOL0     C24083   1.220   7.578   5.642  0.2065  0.4805  0.2386
  179MOL0     C24084   0.879   7.727   5.917  0.2811 -0.3888  0.6319
  179MOL0     C24085   0.787   7.655   5.831  0.0196  0.0449  0.9114
  179MOL0     C24086   0.650   7.672   5.846  0.0357  1.1581  0.5164
  179MOL0     C24087   0.595   7.756   5.936  0.1208 -1.1484  1.1127
  179MOL0     O24088   0.458   7.761   5.932  0.6932  0.2096 -0.2040
  179MOL0     C24089   0.396   7.849   6.026  0.0852  0.2113  1.1774
  179MOL0     C24090   0.247   7.816   6.024  0.0060  0.3293  0.5287
  179MOL0     C24091   0.165   7.896   6.118  1.0840 -0.1777 -0.3277
  179MOL0     C24092   0.015   7.917   6.082 -0.0366 -0.0623  0.4149
  179MOL0     C24093  -0.018   7.963   5.950 -0.4332 -0.1315 -0.6542
  179MOL0     C24094  -0.022   7.990   5.832  0.5904 -0.3552 -0.4766
  179MOL0     C24095   0.679   7.843   6.008  1.0093  0.2816  0.1477
  179MOL0     C24096   0.816   7.837   5.985  0.4916 -0.1745  0.0348
  179MOL0     C24097   0.894   7.949   6.048  0.3429  0.3609 -0.5588
  179MOL0     H24098   1.245   7.875   5.819  1.0576  1.8232 -1.7027
  179MOL0     H24099   1.447   7.880   5.708 -3.7611  2.8428 -0.0608
  179MOL0     H24100   1.571   7.847   5.466  0.9413 -1.2045 -1.8220
  179MOL0     H24101   1.680   7.833   5.609 -0.2261  0.4137 -1.3888
  179MOL0     H24102   1.822   7.809   5.445  3.4171 -1.6802  3.3331
  179MOL0     H24103   1.722   7.688   5.356  0.6306 -2.0409  0.2120
  179MOL0     H24104   1.768   7.521   5.541  0.0746 -0.8792 -0.3509
  179MOL0     H24105   1.887   7.646   5.607 -1.1844 -0.0056  0.0377
  179MOL0     H24106   1.884   7.519   5.332 -1.6797  5.5197 -1.3683
  179MOL0     H24107   1.995   7.637   5.391  2.1689 -1.5308 -1.1841
  179MOL0     H24108   1.948   7.356   5.491 -0.4981 -0.4653 -1.6205
  179MOL0     H24109   2.097   7.410   5.406 -0.6415  0.0555 -0.0015
  179MOL0     H24110   2.014   7.457   5.685  1.7694 -2.6616  0.7226
  179MOL0     H24111   2.146   7.371   5.641 -4.1054 -2.0117 -0.8302
  179MOL0     H24112   2.195   7.602   5.739  3.2148 -0.0534 -0.9307
  179MOL0     H24113   2.118   7.678   5.599  1.4259 -0.4189  0.6578
  179MOL0     H24114   2.294   7.612   5.447  1.6383  1.3716 -1.5002
  179MOL0     H24115   2.360   7.704   5.577 -0.3845  0.4642  0.2961
  179MOL0     H24116   2.497   7.604   5.773  1.3849  0.3368 -1.1504
  179MOL0     H24117   2.750   7.359   5.764 -1.2894  1.1726 -0.9788
  179MOL0     H24118   2.661   7.445   5.890 -0.1050 -1.1743  1.0696
  179MOL0     H24119   2.522   7.250   5.934  0.2645  3.2389 -1.3025
  179MOL0     H24120   2.592   7.155   5.809 -0.5633 -2.8454  2.2339
  179MOL0     H24121   2.820   7.246   5.991 -1.7346 -0.0854  4.9497
  179MOL0     H24122   2.767   7.081   5.924 -1.6432 -0.5449 -0.3025
  179MOL0     H24123   2.588   7.181   6.130  0.8996  3.2028 -2.1489
  179MOL0     H24124   2.748   7.178   6.193 -2.8765  1.8600  0.9113
  179MOL0     H24125   2.637   6.772   6.214  1.0615 -0.4542  0.7637
  179MOL0     H24126   2.802   6.584   6.204 -1.1318  0.2086 -0.1405
  179MOL0     H24127   3.460   6.688   6.052  2.1787 -0.8950 -0.6450
  179MOL0     H24128   3.600   6.556   5.920 -0.8326  2.4033 -0.8990
  179MOL0     H24129   3.603   6.331   5.558 -1.0280 -0.4135 -0.3979
  179MOL0     H24130   3.463   6.271   5.655  1.5924 -1.4999 -1.7477
  179MOL0     H24131   3.381   6.510   5.565  0.2489 -0.4033 -0.5696
  179MOL0     H24132   3.497   6.489   5.440  1.9792  1.0449  0.3873
  179MOL0     H24133   3.399   6.293   5.353  0.5104  1.4834  0.9007
  179MOL0     H24134   3.315   6.249   5.489  1.1165  0.5708  1.3347
  179MOL0     H24135   3.250   6.499   5.331  2.0816 -0.4824  0.4823
  179MOL0     H24136   3.157   6.438   5.475 -1.4397  0.6787 -1.6660
  179MOL0     H24137   3.083   6.229   5.350  1.7788  0.7485  3.5157
  179MOL0     H24138   3.174   6.294   5.202  1.7362  2.8620 -1.1056
  179MOL0     H24139   2.933   6.323   5.228  1.9132 -2.0891  0.2854
  179MOL0     H24140   2.959   6.442   5.362  1.5129  2.6919 -0.3022
  179MOL0     H24141   3.099   6.504   5.091  0.1191  1.7469 -0.1076
  179MOL0     H24142   3.057   6.597   5.224  3.0163 -0.9787 -0.9744
  179MOL0     H24143   2.842   6.485   5.033  2.0393 -0.5142 -0.9704
  179MOL0     H24144   2.813   6.573   5.191  0.9153 -1.7277  2.4291
  179MOL0     H24145   3.292   6.356   5.726  0.9400  2.1822 -2.4570
  179MOL0     H24146   3.123   6.463   5.893 -0.7525  2.0547  1.7365
  179MOL0     H24147   3.095   6.887   6.078 -1.6233  2.4856 -0.7791
  179MOL0     H24148   2.940   7.055   6.077  3.2984 -1.5610  1.0514
  179MOL0     H24149   1.361   7.481   5.524  0.2307  0.7718 -1.0248
  179MOL0     H24150   1.142   7.504   5.629  2.3979 -2.1703  1.2305
  179MOL0     H24151   0.816   7.573   5.766 -0.3092 -0.7591  1.7618
  179MOL0     H24152   0.582   7.608   5.790 -1.5072  0.6903  2.7758
  179MOL0     H24153   0.410   7.950   5.985 -1.3028 -0.5076 -1.2598
  179MOL0     H24154   0.428   7.832   6.129 -0.1607  1.2405  1.4347
  179MOL0     H24155   0.234   7.708   6.042  0.3279 -0.4787 -3.2466
  179MOL0     H24156   0.224   7.840   5.920  4.2165  1.7968 -0.2563
  179MOL0     H24157   0.217   7.992   6.128 -0.1384  0.4938 -0.2396
  179MOL0     H24158   0.163   7.847   6.216  1.2249  1.2923  0.4418
  179MOL0     H24159  -0.028   7.824   6.120  2.2581 -1.3129  0.1141
  179MOL0     H24160  -0.008   7.998   6.152  3.9120 -1.1365  3.3077
  179MOL0     H24161  -0.017   8.008   5.727  2.1649  3.1603  0.0532
  179MOL0     H24162   0.641   7.912   6.082 -1.6464 -0.7659 -0.1503
  179MOL0     H24163   0.954   7.995   5.968  1.7849  1.0909  0.8850
  179MOL0     H24164   0.826   8.028   6.080  0.6743  0.2069  0.5519
  179MOL0     H24165   0.952   7.908   6.131  1.4472  0.6648 -1.1449
  180MOL0     O24166   3.207   6.025   5.649 -0.1946 -0.3081  0.2673
  180MOL0     C24167   3.125   5.945   5.700 -1.0544 -0.2033  0.0135
  180MOL0     O24168   3.004   5.977   5.754  0.0540  0.8050 -0.0973
  180MOL0     C24169   2.959   6.107   5.753 -0.2734 -0.7003 -0.2366
  180MOL0     C24170   2.912   6.155   5.874  0.1184 -0.3882 -0.0192
  180MOL0     C24171   2.875   6.291   5.887 -0.2400 -0.6707  0.2371
  180MOL0     C24172   2.870   6.380   5.779  0.7829 -0.1287 -0.4124
  180MOL0     O24173   2.815   6.508   5.793  0.3794  0.1433 -0.3004
  180MOL0     C24174   2.678   6.518   5.841 -0.3628  0.6551 -1.1974
  180MOL0     C24175   2.645   6.660   5.806  0.5260 -0.2528 -1.0579
  180MOL0     C24176   2.504   6.687   5.848 -0.8824 -0.0032  0.5800
  180MOL0     C24177   2.461   6.821   5.792  0.0172  0.9250  0.9517
  180MOL0     C24178   2.323   6.847   5.836 -0.0148  0.1181  0.8389
  180MOL0     C24179   2.270   6.987   5.813 -1.1796  0.3519  0.4161
  180MOL0     C24180   2.297   7.039   5.672  0.5311  0.1024 -0.2928
  180MOL0     C24181   2.213   6.970   5.564 -0.0395  0.4484 -0.2889
  180MOL0     N24182   2.219   7.051   5.439  0.4736 -0.7300  0.7255
  180MOL0     C24183   2.333   7.104   5.387  0.1954 -0.1467 -0.3850
  180MOL0     C24184   2.295   7.145   5.260 -0.1996 -0.6904  0.0197
  180MOL0     C24185   2.399   7.208   5.171 -0.5426 -0.5602 -0.0379
  180MOL0     C24186   2.364   7.353   5.154 -0.7511  0.9041  0.4157
  180MOL0     C24187   2.454   7.429   5.051  0.0626  0.4930  0.0946
  180MOL0     C24188   2.422   7.578   5.063  0.2871  0.4453  0.0481
  180MOL0     O24189   2.298   7.593   5.002  0.0326 -0.0667 -0.0526
  180MOL0     C24190   2.214   7.687   5.062  0.7650  0.2886  0.0791
  180MOL0     C24191   2.074   7.651   5.070 -1.1186 -0.4103  0.6336
  180MOL0     C24192   1.983   7.738   5.138  0.0518 -0.2428  0.2658
  180MOL0     C24193   2.021   7.868   5.175  0.1148 -0.2334  0.1962
  180MOL0     C24194   1.922   7.963   5.224 -0.4860  0.1693  0.2727
  180MOL0     O24195   1.970   8.085   5.235  0.1052 -0.5938 -0.0579
  180MOL0     C24196   1.882   8.190   5.269 -0.4108 -0.0996 -0.2942
  180MOL0     C24197   1.840   8.206   5.398 -0.5058 -0.4694  0.2513
  180MOL0     C24198   1.758   8.310   5.437  0.2851 -0.1512 -0.7347
  180MOL0     C24199   1.736   8.418   5.352  0.6760 -0.0079  0.0233
  180MOL0     O24200   1.668   8.537   5.393 -0.6505  0.6027 -0.1738
  180MOL0     C24201   1.538   8.559   5.333 -1.0140 -0.8814 -0.4754
  180MOL0     C24202   1.468   8.676   5.409 -0.4916 -0.2330  0.4429
  180MOL0     C24203   1.543   8.805   5.388  0.3332  0.3498  0.0894
  180MOL0     C24204   1.481   8.921   5.466  0.1219  1.3931 -0.0035
  180MOL0     C24205   1.525   9.061   5.424 -0.8433  0.4270  0.7805
  180MOL0     C24206   1.461   9.164   5.515  0.3902 -0.0629  0.9660
  180MOL0     C24207   1.551   9.288   5.523 -0.7088 -0.2205 -0.6506
  180MOL0     C24208   1.616   9.332   5.390  0.0654 -0.6037  0.1318
  180MOL0    Cl24209   1.673   9.503   5.412  0.3845  0.0163 -0.0036
  180MOL0     C24210   1.774   8.404   5.217  0.3139  0.3594 -0.7036
  180MOL0     C24211   1.852   8.292   5.175  0.4094 -0.7557  0.0925
  180MOL0     O24212   1.802   7.938   5.246 -0.0758  0.9331  1.0045
  180MOL0     C24213   2.161   7.904   5.158 -0.2114  0.5368 -0.1047
  180MOL0     C24214   2.247   7.816   5.097  0.4427  0.4298 -0.9165
  180MOL0     N24215   2.160   7.121   5.243  0.0028  0.4957  0.1166
  180MOL0     N24216   2.115   7.077   5.356  0.0607  0.7127 -0.2964
  180MOL0     C24217   2.906   6.331   5.652 -0.5724  1.0912 -0.2136
  180MOL0     C24218   2.964   6.200   5.651  0.6318  0.8910  0.6736
  180MOL0     C24219   3.169   5.805   5.724 -0.5440  1.0477 -0.0437
  180MOL0     C24220   3.075   5.710   5.778 -0.8583 -0.8474 -0.0172
  180MOL0     C24221   3.113   5.579   5.819  0.0053  0.4909  1.0558
  180MOL0     C24222   3.233   5.526   5.763 -1.8478  0.7037  0.5678
  180MOL0     O24223   3.278   5.391   5.782  0.3937 -0.2498  0.2482
  180MOL0     C24224   3.206   5.303   5.874 -0.0542 -0.3164  0.4459
  180MOL0     C24225   3.240   5.344   6.008 -0.0862  0.5369  0.3939
  180MOL0     C24226   3.381   5.281   6.053  0.4108  0.1987  0.4744
  180MOL0     C24227   3.437   5.326   6.183  0.3682  0.5115 -0.4496
  180MOL0     C24228   3.349   5.278   6.300  0.0875  0.3154 -0.1283
  180MOL0     C24229   3.275   5.228   6.386  0.0774 -0.7310 -0.6958
  180MOL0     C24230   3.324   5.610   5.702  0.5053 -0.6216 -0.5328
  180MOL0     C24231   3.295   5.751   5.684  0.3402 -0.0766  0.6932
  180MOL0     C24232   3.408   5.836   5.632 -1.0876  0.3318 -0.2404
  180MOL0     H24233   2.906   6.090   5.960  0.3458  0.7121  0.8644
  180MOL0     H24234   2.846   6.336   5.981 -0.1066  3.7744 -1.6383
  180MOL0     H24235   2.611   6.456   5.780 -1.8471  2.0907 -1.0978
  180MOL0     H24236   2.664   6.496   5.947 -0.6667  1.0448 -1.1558
  180MOL0     H24237   2.647   6.675   5.698 -0.8739 -0.8284 -1.1803
  180MOL0     H24238   2.718   6.726   5.855  0.6804  1.6618 -3.6833
  180MOL0     H24239   2.508   6.701   5.956 -0.4199 -0.0442  0.5723
  180MOL0     H24240   2.439   6.607   5.811  2.3043 -2.1594 -0.8588
  180MOL0     H24241   2.546   6.886   5.816  0.8792 -0.5780  2.1063
  180MOL0     H24242   2.465   6.824   5.683 -1.4082  1.5186  0.8917
  180MOL0     H24243   2.244   6.790   5.785 -0.7146  0.0405  1.9825
  180MOL0     H24244   2.310   6.823   5.942 -2.7494  1.7843  0.9568
  180MOL0     H24245   2.162   6.995   5.831 -1.3740  3.3387 -1.4423
  180MOL0     H24246   2.317   7.050   5.889 -0.7652  2.2790 -1.3545
  180MOL0     H24247   2.402   7.066   5.657  0.0584  4.0186  1.9116
  180MOL0     H24248   2.259   7.142   5.677  0.0723 -0.1048  0.9743
  180MOL0     H24249   2.254   6.870   5.551  0.3387  0.0696  2.9964
  180MOL0     H24250   2.110   6.953   5.598  0.9139 -1.1676  1.9933
  180MOL0     H24251   2.430   7.114   5.434  0.4629 -1.4011 -0.6360
  180MOL0     H24252   2.503   7.185   5.196  0.0083 -1.1116 -2.5272
  180MOL0     H24253   2.383   7.154   5.077 -2.8109 -1.4523  0.7876
  180MOL0     H24254   2.267   7.353   5.103 -0.4590 -2.5157 -0.3919
  180MOL0     H24255   2.368   7.401   5.253  1.7481 -1.4668  1.5930
  180MOL0     H24256   2.425   7.382   4.957 -0.4958  2.5160 -0.8008
  180MOL0     H24257   2.561   7.413   5.063 -0.0486  0.0848  0.5853
  180MOL0     H24258   2.502   7.626   5.006 -0.0485  1.6379  0.5569
  180MOL0     H24259   2.420   7.611   5.167 -2.3360  0.3118  0.0924
  180MOL0     H24260   2.051   7.550   5.036 -1.3593 -1.0339  2.5451
  180MOL0     H24261   1.880   7.711   5.160 -2.2681  5.4702 -1.7732
  180MOL0     H24262   1.874   8.133   5.471  1.3503 -1.9715 -1.9590
  180MOL0     H24263   1.709   8.313   5.534  2.3888 -0.4033  0.4133
  180MOL0     H24264   1.553   8.588   5.228  0.3698  1.4520  0.2771
  180MOL0     H24265   1.480   8.466   5.334 -3.8715  0.7536 -1.9833
  180MOL0     H24266   1.374   8.692   5.357  1.1943 -0.2097 -2.8325
  180MOL0     H24267   1.439   8.658   5.513  0.0849 -1.5475  0.4038
  180MOL0     H24268   1.650   8.787   5.402 -0.1697 -3.9559 -0.2775
  180MOL0     H24269   1.536   8.826   5.281  1.9533  0.9583  0.0727
  180MOL0     H24270   1.509   8.901   5.569 -2.3394 -4.3416 -0.0956
  180MOL0     H24271   1.372   8.916   5.469  0.2199 -1.5730  0.8080
  180MOL0     H24272   1.488   9.064   5.321  0.8977 -2.7271 -0.0338
  180MOL0     H24273   1.633   9.049   5.422 -1.0678 -2.3770 -1.4215
  180MOL0     H24274   1.359   9.176   5.477 -0.5413 -3.4543  1.9806
  180MOL0     H24275   1.464   9.118   5.614  2.7714 -1.2813  0.4142
  180MOL0     H24276   1.623   9.276   5.605 -0.8765 -0.0895 -0.4822
  180MOL0     H24277   1.486   9.373   5.544  1.7532  1.4342  0.9687
  180MOL0     H24278   1.694   9.279   5.334 -0.9860 -1.4803 -0.5470
  180MOL0     H24279   1.534   9.326   5.318 -0.4732 -1.4113  0.7984
  180MOL0     H24280   1.748   8.472   5.137 -0.6921 -0.4536 -1.0752
  180MOL0     H24281   1.886   8.272   5.074  0.3875  1.8530 -0.5015
  180MOL0     H24282   2.222   7.992   5.177 -0.4486  0.8110 -0.5942
  180MOL0     H24283   2.349   7.850   5.082  1.4282 -1.6400  0.6348
  180MOL0     H24284   2.912   6.397   5.566  0.9883  0.1130 -0.9079
  180MOL0     H24285   2.996   6.175   5.550 -0.6590 -1.3956  0.7626
  180MOL0     H24286   2.974   5.745   5.798  0.2193  2.1232  0.7663
  180MOL0     H24287   3.037   5.515   5.864 -4.1750  0.7950 -4.4268
  180MOL0     H24288   3.232   5.197   5.857 -1.2673 -0.2135 -2.9827
  180MOL0     H24289   3.100   5.294   5.848  0.6278 -1.9094 -2.2886
  180MOL0     H24290   3.163   5.305   6.075 -0.6758  1.6890  0.4063
  180MOL0     H24291   3.238   5.453   6.022 -0.5650  0.7608 -1.2650
  180MOL0     H24292   3.455   5.320   5.982  1.7195  0.1350  1.7674
  180MOL0     H24293   3.384   5.172   6.057  3.6216  0.1493 -0.4751
  180MOL0     H24294   3.529   5.272   6.205 -0.1020  0.2961  1.1708
  180MOL0     H24295   3.458   5.433   6.183  1.6257  0.2808  0.1321
  180MOL0     H24296   3.223   5.178   6.465  1.2383 -1.1753 -0.1898
  180MOL0     H24297   3.420   5.574   5.667  1.6395  2.5347 -0.9761
  180MOL0     H24298   3.495   5.772   5.617 -3.2641 -2.2603 -3.0651
  180MOL0     H24299   3.396   5.877   5.531  1.7935  0.2667 -0.6818
  180MOL0     H24300   3.438   5.918   5.698 -1.1370 -0.5757  0.9333
  181MOL0     O24301   1.142  11.379   0.051  0.1974 -0.1230 -0.2432
  181MOL0     C24302   1.062  11.459   0.091  0.0670 -0.9944 -0.1916
  181MOL0     O24303   0.924  11.453   0.083 -0.2350  0.5417  0.2616
  181MOL0     C24304   0.884  11.362  -0.004 -0.4192  0.5778  0.6429
  181MOL0     C24305   0.799  11.414  -0.097  0.7091  0.0362 -0.6809
  181MOL0     C24306   0.727  11.321  -0.186  0.3655 -0.6252 -0.1346
  181MOL0     C24307   0.753  11.190  -0.185 -0.5979  0.0134 -0.5223
  181MOL0     O24308   0.687  11.116  -0.278  0.2435 -0.1251  0.4932
  181MOL0     C24309   0.767  11.066  -0.391 -0.1448 -0.1775 -0.1458
  181MOL0     C24310   0.724  10.923  -0.430 -0.1966  0.1384 -0.0683
  181MOL0     C24311   0.755  10.807  -0.339  0.3291 -0.1999 -0.6388
  181MOL0     C24312   0.665  10.798  -0.216  0.3182  0.0289  0.0887
  181MOL0     C24313   0.690  10.661  -0.135 -0.3564  0.1389  0.5583
  181MOL0     C24314   0.828  10.608  -0.114 -0.0538 -0.3144  1.3273
  181MOL0     C24315   0.829  10.470  -0.055  1.2881  0.1194 -0.0885
  181MOL0     C24316   0.967  10.423  -0.004 -0.3806 -0.8603 -0.4777
  181MOL0     N24317   0.940  10.308   0.082 -0.7086  0.0516 -0.4051
  181MOL0     C24318   0.877  10.198   0.043 -0.6746  0.8650  0.1581
  181MOL0     C24319   0.823  10.148   0.156  0.4240 -0.5145  0.3882
  181MOL0     C24320   0.731  10.023   0.158 -0.5052 -0.6265  0.5867
  181MOL0     C24321   0.610  10.028   0.066 -0.1077 -0.1118  1.5104
  181MOL0     C24322   0.498   9.938   0.121 -0.1205  0.4683  0.2918
  181MOL0     C24323   0.377   9.915   0.024  0.5434  0.6187  0.1268
  181MOL0     O24324   0.305  10.033  -0.005  0.7094  0.5870 -0.4308
  181MOL0     C24325   0.199  10.036  -0.092  0.5009  1.3655  0.2680
  181MOL0     C24326   0.130  10.157  -0.109 -0.4171 -0.1871 -0.0757
  181MOL0     C24327   0.047  10.173  -0.221 -0.3257  0.7209  0.1555
  181MOL0     C24328   0.004  10.056  -0.290  0.5853 -0.4053  0.0681
  181MOL0     C24329  -0.103  10.065  -0.400 -0.8690  0.4815 -0.0134
  181MOL0     O24330  -0.132   9.950  -0.478 -0.5203  0.1483  0.2492
  181MOL0     C24331  -0.219   9.951  -0.584 -0.3276 -0.6928 -0.4914
  181MOL0     C24332  -0.187  10.038  -0.694  0.7139 -0.2707  1.1422
  181MOL0     C24333  -0.269  10.026  -0.812 -0.6804 -0.6281  1.3155
  181MOL0     C24334  -0.380   9.944  -0.810 -0.1800 -0.0924  1.3962
  181MOL0     O24335  -0.456   9.936  -0.926  0.4401  0.8445  0.3444
  181MOL0     C24336  -0.426   9.833  -1.026  0.3245 -0.5434  0.5233
  181MOL0     C24337  -0.433   9.872  -1.172  0.9895 -0.0069 -0.0815
  181MOL0     C24338  -0.574   9.847  -1.221  0.1952  0.4641 -0.3247
  181MOL0     C24339  -0.598   9.921  -1.355  0.7113 -0.1093 -0.4311
  181MOL0     C24340  -0.664   9.839  -1.458 -0.2663  0.2560 -0.1158
  181MOL0     C24341  -0.725   9.913  -1.579  0.2333 -0.9654  0.5086
  181MOL0     C24342  -0.808   9.832  -1.679 -0.4288  0.5168 -0.7427
  181MOL0     C24343  -0.750   9.718  -1.759  1.3083  0.4063 -0.2305
  181MOL0    Cl24344  -0.882   9.656  -1.868 -0.2396 -0.5286  0.4434
  181MOL0     C24345  -0.408   9.866  -0.703 -0.3541  0.9314 -0.0808
  181MOL0     C24346  -0.330   9.873  -0.585 -0.9073 -0.1496  0.0684
  181MOL0     O24347  -0.165  10.171  -0.418  0.2511 -0.5131 -0.4114
  181MOL0     C24348   0.058   9.925  -0.261  0.8872  0.3205  0.4544
  181MOL0     C24349   0.160   9.922  -0.168  0.4342  1.0180 -0.2381
  181MOL0     N24350   0.865  10.237   0.256 -0.1103 -0.2823  0.1067
  181MOL0     N24351   0.934  10.331   0.213 -0.8420 -0.4215 -0.2308
  181MOL0     C24352   0.845  11.139  -0.098 -0.2269 -0.1430  0.9803
  181MOL0     C24353   0.912  11.219  -0.003  0.6442 -0.9022  0.4814
  181MOL0     C24354   1.124  11.577   0.154  0.8783 -0.6927  0.6433
  181MOL0     C24355   1.033  11.668   0.224 -0.0976  0.8002 -0.4753
  181MOL0     C24356   1.078  11.774   0.283  0.1519  0.4888  0.1657
  181MOL0     C24357   1.210  11.804   0.299 -0.4568 -0.0201 -0.2315
  181MOL0     O24358   1.271  11.895   0.373  1.0602  0.1907  0.3387
  181MOL0     C24359   1.193  11.942   0.483  0.0399 -0.9885 -1.0258
  181MOL0     C24360   1.267  12.050   0.552  0.2455  0.6011  0.4165
  181MOL0     C24361   1.270  12.181   0.470 -0.8697  0.0333 -0.5197
  181MOL0     C24362   1.328  12.295   0.552  0.4882  0.7017 -0.9917
  181MOL0     C24363   1.475  12.290   0.548 -0.1440  0.1584  0.2645
  181MOL0     C24364   1.589  12.274   0.565 -0.2387  0.5330  0.0861
  181MOL0     C24365   1.304  11.718   0.232 -0.3295  0.2794 -0.2114
  181MOL0     C24366   1.264  11.606   0.161 -0.7572 -0.2302 -0.6397
  181MOL0     C24367   1.366  11.516   0.095  0.1745 -0.5746 -1.3245
  181MOL0     H24368   0.781  11.521  -0.095  1.3581  0.1651  1.4584
  181MOL0     H24369   0.649  11.357  -0.251 -1.6473  0.5490  2.7010
  181MOL0     H24370   0.752  11.146  -0.464 -2.2879  0.3268  0.7627
  181MOL0     H24371   0.872  11.066  -0.358 -0.0232  3.2250 -0.1743
  181MOL0     H24372   0.779  10.902  -0.522  4.6378  2.9880  1.8110
  181MOL0     H24373   0.615  10.924  -0.443 -0.3400  2.7471  0.7468
  181MOL0     H24374   0.861  10.802  -0.313 -0.4331 -2.1352  2.6244
  181MOL0     H24375   0.726  10.713  -0.386 -1.4672  1.9562 -4.3482
  181MOL0     H24376   0.672  10.874  -0.138  0.1879  1.2038 -1.0052
  181MOL0     H24377   0.559  10.801  -0.241  0.3145  2.0941  0.1447
  181MOL0     H24378   0.627  10.681  -0.048 -0.2369  0.2707  0.6156
  181MOL0     H24379   0.637  10.575  -0.178  0.4195  0.4102 -1.0385
  181MOL0     H24380   0.883  10.590  -0.208  0.5284 -0.7663  1.7478
  181MOL0     H24381   0.884  10.678  -0.051  1.5083  2.3751 -2.5723
  181MOL0     H24382   0.794  10.415  -0.144  0.3592  2.3612 -1.1936
  181MOL0     H24383   0.748  10.463   0.018  0.1294 -0.9707 -1.4116
  181MOL0     H24384   1.042  10.394  -0.078  1.1176 -2.6655  1.6242
  181MOL0     H24385   1.004  10.509   0.052 -2.5045 -0.2515  0.0644
  181MOL0     H24386   0.850  10.164  -0.057  0.4651 -0.7256  0.3512
  181MOL0     H24387   0.803   9.947   0.125  0.9859  1.6807 -1.9791
  181MOL0     H24388   0.694  10.025   0.261  0.8219  5.3727  1.3369
  181MOL0     H24389   0.573  10.131   0.055 -1.6096 -0.8079 -0.6106
  181MOL0     H24390   0.651  10.000  -0.031  1.1319  2.8550  1.0600
  181MOL0     H24391   0.448   9.987   0.205 -2.6870 -0.4007 -0.6440
  181MOL0     H24392   0.528   9.839   0.157  0.8412  0.9747  0.9215
  181MOL0     H24393   0.309   9.848   0.078  1.6818 -1.5958 -1.0620
  181MOL0     H24394   0.406   9.867  -0.070 -0.9869 -2.8232  1.2248
  181MOL0     H24395   0.164  10.241  -0.050  1.6531  0.2448 -1.7355
  181MOL0     H24396   0.015  10.272  -0.251  0.4776  0.3795 -2.0244
  181MOL0     H24397  -0.094  10.091  -0.679  0.6042  0.3098 -0.1062
  181MOL0     H24398  -0.235  10.071  -0.905  2.1102 -0.7051  2.2242
  181MOL0     H24399  -0.325   9.797  -1.005  1.4575  1.4871 -1.0997
  181MOL0     H24400  -0.496   9.750  -1.020 -0.8646  0.3522 -0.3985
  181MOL0     H24401  -0.416   9.979  -1.186  0.2173  0.3456  1.4913
  181MOL0     H24402  -0.379   9.804  -1.238 -0.9081 -1.2808 -0.4175
  181MOL0     H24403  -0.598   9.741  -1.233  1.5076  0.0135  0.7964
  181MOL0     H24404  -0.653   9.883  -1.154  0.0531 -0.7293  0.1798
  181MOL0     H24405  -0.513   9.971  -1.402  1.4526 -0.0637  0.8982
  181MOL0     H24406  -0.671   9.998  -1.329  1.0150 -0.2719  1.0045
  181MOL0     H24407  -0.734   9.767  -1.415  0.3106  0.6029  1.4715
  181MOL0     H24408  -0.584   9.776  -1.498 -1.8549 -0.7053 -1.9739
  181MOL0     H24409  -0.789   9.993  -1.541  2.5371  1.6440 -0.7452
  181MOL0     H24410  -0.654   9.975  -1.635 -3.8493  1.8755 -2.1136
  181MOL0     H24411  -0.859   9.897  -1.750 -3.4213 -2.0138 -1.1496
  181MOL0     H24412  -0.892   9.790  -1.622  1.0661 -2.1858 -0.3410
  181MOL0     H24413  -0.664   9.749  -1.820  0.8310 -2.3300 -2.5033
  181MOL0     H24414  -0.710   9.642  -1.691  0.5135  0.1859 -0.0007
  181MOL0     H24415  -0.481   9.786  -0.697 -1.1508  1.6597  0.3584
  181MOL0     H24416  -0.344   9.810  -0.498  1.2783 -0.9003 -0.0559
  181MOL0     H24417   0.017   9.842  -0.317  0.8950  0.0563  0.8342
  181MOL0     H24418   0.220   9.831  -0.168  0.6879  1.1826  0.0145
  181MOL0     H24419   0.857  11.031  -0.107  1.0330  0.0415  0.2524
  181MOL0     H24420   0.959  11.162   0.076 -2.9735  0.4116  3.9540
  181MOL0     H24421   0.929  11.639   0.216 -0.4219  1.9756 -0.7369
  181MOL0     H24422   1.005  11.842   0.327  0.6017  0.1533  1.4719
  181MOL0     H24423   1.176  11.858   0.551  0.0397  0.3963  0.7883
  181MOL0     H24424   1.092  11.974   0.457 -0.3376 -1.9920 -0.8197
  181MOL0     H24425   1.369  12.013   0.567 -0.8732 -2.2781  1.5584
  181MOL0     H24426   1.214  12.061   0.647 -0.9756  1.0815 -0.2860
  181MOL0     H24427   1.166  12.194   0.441 -1.0911 -0.5717 -0.0167
  181MOL0     H24428   1.332  12.165   0.382 -1.1231 -2.6936 -0.2928
  181MOL0     H24429   1.291  12.388   0.509 -1.8574 -0.8693 -2.5965
  181MOL0     H24430   1.288  12.275   0.652  0.4552  1.9140 -0.7479
  181MOL0     H24431   1.695  12.261   0.565 -0.0616  0.2883 -4.4315
  181MOL0     H24432   1.411  11.726   0.250 -0.2209 -0.5108 -0.4812
  181MOL0     H24433   1.353  11.516  -0.013  1.7892 -0.9588 -1.5535
  181MOL0     H24434   1.473  11.537   0.109 -0.3080  2.3163 -1.3201
  181MOL0     H24435   1.363  11.416   0.140  0.7100  0.2814  0.7671
  182MOL0     O24436   2.883   4.744   1.373  0.1639 -0.1356 -0.0962
  182MOL0     C24437   2.971   4.797   1.304 -0.4997  0.4161 -0.0809
  182MOL0     O24438   3.086   4.852   1.357  0.4375  0.2166 -0.6714
  182MOL0     C24439   3.106   4.835   1.490  0.8686 -0.1916 -0.1658
  182MOL0     C24440   3.047   4.910   1.597  0.7380 -0.2297 -0.3133
  182MOL0     C24441   3.083   4.875   1.726  0.0488  0.6771 -0.0175
  182MOL0     C24442   3.185   4.779   1.736  0.1886 -0.6556 -0.6652
  182MOL0     O24443   3.221   4.748   1.863 -0.6117  0.9189  0.1877
  182MOL0     C24444   3.220   4.843   1.974 -0.0271 -0.3217  0.2122
  182MOL0     C24445   3.340   4.824   2.058  0.1928 -0.6857  0.5519
  182MOL0     C24446   3.468   4.830   1.969 -0.3195  0.2283 -0.9609
  182MOL0     C24447   3.596   4.857   2.050 -0.3513  0.3835 -0.5861
  182MOL0     C24448   3.712   4.892   1.972 -0.4486  0.2421 -0.2483
  182MOL0     C24449   3.835   4.886   2.064  0.9759 -0.0461 -0.1565
  182MOL0     C24450   3.953   4.927   1.992 -1.1168  0.4527  0.9623
  182MOL0     C24451   4.070   4.924   2.094  0.2679  0.0506 -0.3655
  182MOL0     N24452   4.129   4.788   2.110  1.1907 -0.9621  0.5138
  182MOL0     C24453   4.153   4.698   2.004 -0.2351 -0.1536 -1.0927
  182MOL0     C24454   4.197   4.593   2.074 -0.5174  0.1503 -0.7992
  182MOL0     C24455   4.217   4.459   2.019 -0.3295 -0.2339  0.3120
  182MOL0     C24456   4.099   4.403   1.938 -0.4363 -0.4416 -0.3395
  182MOL0     C24457   4.034   4.273   1.994  0.5878  0.2129  0.3673
  182MOL0     C24458   4.119   4.144   2.001 -0.7411  0.3625  0.7468
  182MOL0     O24459   4.188   4.131   1.873  0.1846  0.5141 -0.0887
  182MOL0     C24460   4.207   4.003   1.814 -0.2279 -0.8093  0.7930
  182MOL0     C24461   4.343   3.964   1.796 -0.8590  1.3160  0.2765
  182MOL0     C24462   4.374   3.844   1.723  1.1018 -0.1806 -0.5792
  182MOL0     C24463   4.267   3.780   1.660  0.7580  0.5178 -0.9553
  182MOL0     C24464   4.291   3.670   1.559  0.1007  0.2237  0.2819
  182MOL0     O24465   4.404   3.602   1.580 -0.5397 -0.0157  0.7757
  182MOL0     C24466   4.441   3.485   1.504  0.6100  0.3403 -0.1233
  182MOL0     C24467   4.384   3.437   1.376 -0.0436  0.6407 -0.5621
  182MOL0     C24468   4.430   3.325   1.307  0.2055 -0.5192 -0.0772
  182MOL0     C24469   4.546   3.268   1.362  0.2005 -0.6570 -0.7699
  182MOL0     O24470   4.600   3.171   1.277  0.2143  0.2216 -0.6109
  182MOL0     C24471   4.726   3.115   1.317 -0.3393 -0.3420 -1.0699
  182MOL0     C24472   4.777   3.015   1.209 -0.1262 -0.1059 -0.1262
  182MOL0     C24473   4.664   2.914   1.188  1.0835  0.0807 -0.2806
  182MOL0     C24474   4.702   2.801   1.099 -0.4537 -0.3044  0.4090
  182MOL0     C24475   4.569   2.722   1.086  0.1277  0.2050  0.2893
  182MOL0     C24476   4.594   2.609   0.983  0.8146  0.5689  0.0505
  182MOL0     C24477   4.461   2.549   0.929 -1.0947 -0.0432  1.0983
  182MOL0     C24478   4.368   2.482   1.030  0.0567 -0.4312  0.3722
  182MOL0    Cl24479   4.302   2.592   1.141 -0.1730 -0.0012 -0.0960
  182MOL0     C24480   4.601   3.302   1.489 -0.3632 -0.2088  0.5163
  182MOL0     C24481   4.547   3.411   1.552 -1.0646 -0.6778  0.4287
  182MOL0     O24482   4.203   3.648   1.473 -0.1933 -0.1552 -0.3610
  182MOL0     C24483   4.136   3.818   1.687  0.0213  0.5801 -1.2246
  182MOL0     C24484   4.109   3.929   1.762  0.0695 -0.1376  0.3702
  182MOL0     N24485   4.186   4.623   2.212 -0.0088 -0.7427  0.8620
  182MOL0     N24486   4.152   4.741   2.230  0.5659  0.7326  0.5855
  182MOL0     C24487   3.246   4.712   1.632 -1.2887 -0.2257  0.8376
  182MOL0     C24488   3.202   4.734   1.505  0.5688 -1.5296 -0.1875
  182MOL0     C24489   2.954   4.787   1.156 -0.3375  0.0131 -0.2323
  182MOL0     C24490   2.863   4.689   1.103 -0.0887  0.1878  0.0262
  182MOL0     C24491   2.834   4.682   0.971 -1.6875  1.5327  1.0307
  182MOL0     C24492   2.904   4.757   0.871 -0.1656  0.8993 -0.4462
  182MOL0     O24493   2.884   4.712   0.744  0.5472  0.2307 -0.1776
  182MOL0     C24494   2.976   4.750   0.639 -1.4273  0.1658  0.1440
  182MOL0     C24495   2.927   4.711   0.496  0.6609  0.5207 -0.4124
  182MOL0     C24496   3.003   4.589   0.434  0.4325 -0.5271 -1.2282
  182MOL0     C24497   2.968   4.566   0.285 -0.1424 -0.8021  0.3277
  182MOL0     C24498   2.820   4.551   0.258 -0.9441  0.3756 -1.0844
  182MOL0     C24499   2.706   4.538   0.241  0.0763  0.1142 -0.8395
  182MOL0     C24500   2.997   4.843   0.916  1.0634 -0.9298  0.2943
  182MOL0     C24501   3.024   4.864   1.054  0.1768 -0.0622 -0.2142
  182MOL0     C24502   3.128   4.971   1.096 -0.4344 -0.3877 -0.0258
  182MOL0     H24503   2.962   4.973   1.576 -1.4288 -2.3763  1.4142
  182MOL0     H24504   3.045   4.935   1.808  0.2002 -2.4690  2.5360
  182MOL0     H24505   3.233   4.943   1.933  0.5239  0.3448  1.9033
  182MOL0     H24506   3.136   4.822   2.043  0.5074  0.8392  1.2508
  182MOL0     H24507   3.328   4.728   2.110  2.7631 -1.2769  0.1882
  182MOL0     H24508   3.333   4.912   2.122  0.3323  1.1918 -1.8645
  182MOL0     H24509   3.464   4.901   1.886  2.8585  3.6039  1.3940
  182MOL0     H24510   3.479   4.737   1.913  1.2274  0.4138 -1.0241
  182MOL0     H24511   3.580   4.923   2.137  0.1567 -1.0154  0.6118
  182MOL0     H24512   3.622   4.761   2.096 -0.3747  1.1619  1.1526
  182MOL0     H24513   3.734   4.826   1.887  1.2056  2.6444 -1.8298
  182MOL0     H24514   3.697   4.991   1.928 -0.2701  0.4044  0.0442
  182MOL0     H24515   3.818   4.962   2.141 -1.4584 -0.4792 -0.1639
  182MOL0     H24516   3.847   4.783   2.100 -3.3947 -0.3211  1.1504
  182MOL0     H24517   3.962   5.031   1.959 -0.3088  0.1695  0.2676
  182MOL0     H24518   3.967   4.861   1.906 -1.6508  0.7556  0.6349
  182MOL0     H24519   4.151   4.994   2.074  0.3660 -0.0328 -0.2640
  182MOL0     H24520   4.040   4.960   2.193 -1.7254 -1.3997 -0.3857
  182MOL0     H24521   4.139   4.713   1.897  0.6308 -1.5937 -1.4403
  182MOL0     H24522   4.314   4.458   1.969  0.6060  1.2420  1.9965
  182MOL0     H24523   4.238   4.398   2.107  1.1229 -0.1073  0.0757
  182MOL0     H24524   4.023   4.478   1.918  1.8518  1.3620 -3.0580
  182MOL0     H24525   4.143   4.391   1.839  0.1339  3.0496 -0.6528
  182MOL0     H24526   3.951   4.250   1.927  0.9638  0.8234 -0.3233
  182MOL0     H24527   3.994   4.299   2.093 -1.5659 -0.5739 -0.2573
  182MOL0     H24528   4.056   4.059   2.027  1.5819 -1.8346 -0.4329
  182MOL0     H24529   4.192   4.156   2.082 -1.8168  0.6826  1.7050
  182MOL0     H24530   4.421   4.026   1.838  0.8928 -0.6863  0.1273
  182MOL0     H24531   4.475   3.819   1.691  1.8744  3.9097 -1.9627
  182MOL0     H24532   4.303   3.492   1.328 -1.3625 -1.1762 -0.5442
  182MOL0     H24533   4.390   3.306   1.208 -0.9983 -1.1421  0.4973
  182MOL0     H24534   4.804   3.183   1.350 -0.2927 -1.7356  2.0707
  182MOL0     H24535   4.711   3.060   1.411  0.6369  1.9487  0.4978
  182MOL0     H24536   4.793   3.071   1.117  0.3284  2.3659  1.3393
  182MOL0     H24537   4.871   2.967   1.239 -0.9129 -1.3974  0.3356
  182MOL0     H24538   4.635   2.883   1.289 -0.6814  2.2361 -0.0495
  182MOL0     H24539   4.587   2.967   1.132  0.5891 -0.4869 -0.1469
  182MOL0     H24540   4.782   2.737   1.136 -0.9618 -2.4205 -1.9225
  182MOL0     H24541   4.730   2.829   0.997  2.1464 -0.5134  1.0040
  182MOL0     H24542   4.493   2.794   1.056 -0.1259 -0.7327 -1.4187
  182MOL0     H24543   4.547   2.686   1.187 -0.2142  2.2280  0.9895
  182MOL0     H24544   4.658   2.635   0.898  0.3470 -2.4487 -1.3368
  182MOL0     H24545   4.650   2.530   1.033 -2.0342 -0.4508  1.8708
  182MOL0     H24546   4.490   2.473   0.856 -0.3417  1.3209 -0.0833
  182MOL0     H24547   4.404   2.624   0.873 -0.1103  3.1963  4.0596
  182MOL0     H24548   4.291   2.433   0.969  0.4248 -1.1178  0.4473
  182MOL0     H24549   4.418   2.403   1.086  1.0287 -0.4486 -0.5031
  182MOL0     H24550   4.687   3.259   1.539  1.1186  2.3255  0.2940
  182MOL0     H24551   4.579   3.454   1.646  0.4731 -0.6948 -0.0593
  182MOL0     H24552   4.055   3.758   1.645  1.1601 -1.1332 -1.0955
  182MOL0     H24553   4.006   3.959   1.776 -0.4587 -0.3093 -2.6640
  182MOL0     H24554   3.337   4.655   1.643 -1.9666 -1.4218  0.3353
  182MOL0     H24555   3.243   4.682   1.419 -1.9326 -1.7932 -1.3149
  182MOL0     H24556   2.802   4.635   1.175 -1.7319  2.8008  0.7456
  182MOL0     H24557   2.778   4.599   0.929 -0.1019  2.0507 -2.4763
  182MOL0     H24558   3.082   4.728   0.654 -1.3098  0.7085  0.1648
  182MOL0     H24559   2.964   4.859   0.649 -1.3887  0.0622  1.4983
  182MOL0     H24560   2.935   4.796   0.429  1.1457 -0.1109 -1.1801
  182MOL0     H24561   2.823   4.681   0.509  1.7934 -3.1085  1.8685
  182MOL0     H24562   2.989   4.497   0.491  1.1821  0.4927  0.6812
  182MOL0     H24563   3.104   4.633   0.435 -0.0094  0.7250  2.1845
  182MOL0     H24564   3.016   4.647   0.230  1.2033 -2.9053 -1.7778
  182MOL0     H24565   3.021   4.472   0.267  1.4488  0.3182 -1.1819
  182MOL0     H24566   2.601   4.531   0.220 -0.6282  0.7483  2.0239
  182MOL0     H24567   3.044   4.897   0.835  0.2572 -0.3203  0.2156
  182MOL0     H24568   3.221   4.927   1.133  0.0979  3.0872  3.4725
  182MOL0     H24569   3.164   5.031   1.012  2.5375  1.1288  2.1333
  182MOL0     H24570   3.089   5.036   1.175 -0.4631 -1.3799  0.7917
  183MOL0     O24571   5.275   7.740   5.017  0.1295 -0.3462  0.0998
  183MOL0     C24572   5.264   7.719   4.900 -0.3970 -1.1029 -0.2775
  183MOL0     O24573   5.140   7.710   4.839 -0.4263  0.8000  0.5584
  183MOL0     C24574   5.013   7.716   4.887  0.3112  0.4427  1.3610
  183MOL0     C24575   4.911   7.727   4.790 -0.0093  0.0668  0.3044
  183MOL0     C24576   4.773   7.744   4.822 -0.4747 -0.7057  0.2600
  183MOL0     C24577   4.736   7.741   4.950  0.7460 -0.6352  0.4930
  183MOL0     O24578   4.599   7.766   4.991 -0.3477  0.3346  0.2721
  183MOL0     C24579   4.559   7.732   5.130  1.0961 -0.8460  0.4409
  183MOL0     C24580   4.405   7.726   5.140  0.5627  0.3129  0.0656
  183MOL0     C24581   4.346   7.598   5.079 -1.0742  0.4114  0.3452
  183MOL0     C24582   4.202   7.588   5.119 -0.9548 -0.6395 -0.1049
  183MOL0     C24583   4.110   7.500   5.046  0.5015 -0.2414  1.5739
  183MOL0     C24584   3.979   7.463   5.123 -0.7937 -0.2223 -0.9559
  183MOL0     C24585   3.896   7.590   5.163  0.0566 -0.0417 -0.7119
  183MOL0     C24586   3.835   7.651   5.038  0.0941 -0.1082 -0.2048
  183MOL0     N24587   3.807   7.791   5.055  0.3267 -0.5571 -0.3277
  183MOL0     C24588   3.862   7.892   4.981 -0.9406 -0.9396  0.4787
  183MOL0     C24589   3.805   8.014   5.017  0.1457  0.2709  0.3033
  183MOL0     C24590   3.808   8.154   4.952 -0.4452  0.5266 -0.1188
  183MOL0     C24591   3.768   8.271   5.039 -0.1700 -0.0196 -0.5764
  183MOL0     C24592   3.620   8.287   5.065 -0.5280 -0.3368 -0.0744
  183MOL0     C24593   3.589   8.394   5.164 -1.3222 -0.3632  0.2721
  183MOL0     O24594   3.626   8.529   5.114 -0.3190  0.1390 -0.1734
  183MOL0     C24595   3.732   8.576   5.188  0.7945 -0.5586  0.2326
  183MOL0     C24596   3.842   8.621   5.111  0.0304 -0.1936  1.0993
  183MOL0     C24597   3.957   8.683   5.170  0.5804  0.8404 -0.7068
  183MOL0     C24598   3.965   8.703   5.307  0.2062 -0.1647 -0.6834
  183MOL0     C24599   4.086   8.769   5.368  1.2510  0.2986 -0.2089
  183MOL0     O24600   4.182   8.820   5.282  0.2884  0.5017 -0.6731
  183MOL0     C24601   4.290   8.882   5.342 -0.9574  0.6708 -0.6226
  183MOL0     C24602   4.296   8.949   5.469 -0.3217  0.6365  0.5819
  183MOL0     C24603   4.421   8.992   5.524 -0.8236 -0.1510  0.4931
  183MOL0     C24604   4.534   9.002   5.439 -0.2829 -0.0045  0.1732
  183MOL0     O24605   4.644   9.062   5.487 -0.1005  0.0663 -0.5683
  183MOL0     C24606   4.767   9.015   5.435 -0.7149 -0.3495  0.2254
  183MOL0     C24607   4.868   9.023   5.546 -0.4928 -0.0346 -0.4612
  183MOL0     C24608   4.816   8.945   5.670 -1.1561  0.0038  0.2792
  183MOL0     C24609   4.800   9.022   5.794 -0.4553  0.2218 -0.0463
  183MOL0     C24610   4.756   8.945   5.909 -0.1444  0.2463  0.1677
  183MOL0     C24611   4.750   9.025   6.029 -0.0783 -0.5577  0.6691
  183MOL0     C24612   4.723   8.939   6.147  0.0989  0.7345  0.2020
  183MOL0     C24613   4.575   8.946   6.198  0.0742 -0.9166 -0.3436
  183MOL0    Cl24614   4.445   8.981   6.082  0.1476 -0.3845 -0.0887
  183MOL0     C24615   4.535   8.943   5.319 -0.0683  0.6833  0.2916
  183MOL0     C24616   4.414   8.885   5.269 -0.7632  0.1579 -0.9040
  183MOL0     O24617   4.084   8.760   5.490  0.4908 -0.4673  0.1941
  183MOL0     C24618   3.856   8.649   5.384  1.2244  0.3936 -0.5200
  183MOL0     C24619   3.746   8.595   5.326  0.3143 -0.4581  0.1889
  183MOL0     N24620   3.710   7.971   5.119  0.2833 -0.4859 -0.2450
  183MOL0     N24621   3.700   7.838   5.121  0.3246 -0.0024 -0.2483
  183MOL0     C24622   4.834   7.735   5.050  0.5103  0.3234 -0.3451
  183MOL0     C24623   4.970   7.735   5.022  0.6142 -0.3189  0.6841
  183MOL0     C24624   5.379   7.705   4.815  0.6214  0.2513  0.2010
  183MOL0     C24625   5.495   7.638   4.860  0.8303  0.0074 -0.0166
  183MOL0     C24626   5.596   7.597   4.778 -0.0014  0.1934  0.2891
  183MOL0     C24627   5.572   7.623   4.646  0.3699  0.0721  0.3846
  183MOL0     O24628   5.651   7.560   4.544  0.4635  1.0374 -0.3513
  183MOL0     C24629   5.622   7.566   4.404  0.3361  0.0215 -0.0594
  183MOL0     C24630   5.698   7.467   4.318  0.7642  0.0214 -0.2286
  183MOL0     C24631   5.661   7.473   4.170 -1.2072  0.1586 -0.8284
  183MOL0     C24632   5.571   7.365   4.126 -0.3041 -0.6431  0.3318
  183MOL0     C24633   5.560   7.385   3.979 -0.7987  0.1350  0.0585
  183MOL0     C24634   5.526   7.383   3.864  0.4367  0.1384 -0.7942
  183MOL0     C24635   5.485   7.724   4.605  0.4243 -0.6911 -0.5811
  183MOL0     C24636   5.373   7.751   4.684  0.4961  0.4882 -0.1185
  183MOL0     C24637   5.272   7.838   4.628  0.8511 -1.0658  0.4982
  183MOL0     H24638   4.938   7.732   4.685 -0.6295 -0.9111  0.0844
  183MOL0     H24639   4.702   7.767   4.743  0.2368  2.5192  0.4084
  183MOL0     H24640   4.601   7.635   5.156  1.5273  0.0387  3.3966
  183MOL0     H24641   4.581   7.809   5.204 -0.5715  1.6522 -1.4851
  183MOL0     H24642   4.373   7.813   5.081 -0.4160 -0.1861 -0.1574
  183MOL0     H24643   4.378   7.736   5.246  2.1252  1.3528  0.4083
  183MOL0     H24644   4.407   7.514   5.115  0.1468  1.3367  0.5307
  183MOL0     H24645   4.346   7.602   4.970  1.3318  1.1145  0.3068
  183MOL0     H24646   4.200   7.569   5.227 -0.9144  2.3764  0.5125
  183MOL0     H24647   4.158   7.688   5.109  1.4447  0.5564  0.5847
  183MOL0     H24648   4.087   7.543   4.949 -0.1278  0.5647  2.0704
  183MOL0     H24649   4.151   7.401   5.021  2.0172  0.4358  1.2591
  183MOL0     H24650   3.927   7.393   5.057 -0.6078 -1.2126 -0.0978
  183MOL0     H24651   3.999   7.403   5.213 -0.9470 -1.9989 -2.0614
  183MOL0     H24652   3.964   7.666   5.203  1.0217 -1.7269  0.9758
  183MOL0     H24653   3.811   7.569   5.229 -1.4043  1.1779 -2.1137
  183MOL0     H24654   3.911   7.636   4.961  1.9042  1.2641  1.2160
  183MOL0     H24655   3.747   7.596   5.003  1.4322 -2.4532 -0.0654
  183MOL0     H24656   3.945   7.874   4.914  0.6364  1.8971  1.5104
  183MOL0     H24657   3.909   8.160   4.911  1.4023 -2.2012  3.5023
  183MOL0     H24658   3.727   8.157   4.879 -2.8570 -0.5546  2.3456
  183MOL0     H24659   3.830   8.262   5.129  0.7806  1.3685 -1.0697
  183MOL0     H24660   3.807   8.366   5.001  0.4212  1.9968  4.3584
  183MOL0     H24661   3.577   8.195   5.106 -2.5264  0.5887  0.0162
  183MOL0     H24662   3.577   8.326   4.973  1.8020  4.4078  0.5302
  183MOL0     H24663   3.652   8.378   5.252 -4.0649 -1.0581  2.2217
  183MOL0     H24664   3.484   8.394   5.192 -0.8808  1.1025  2.0903
  183MOL0     H24665   3.840   8.619   5.003  3.9533 -0.2938  0.8559
  183MOL0     H24666   4.038   8.724   5.110  1.9846 -0.0341  0.5127
  183MOL0     H24667   4.215   8.948   5.541  1.3464  2.2232  2.6337
  183MOL0     H24668   4.425   9.019   5.629 -2.9925  0.5143  0.4535
  183MOL0     H24669   4.768   8.912   5.398 -0.5687  0.5176 -2.3948
  183MOL0     H24670   4.806   9.087   5.363  2.3087  1.6581  3.5488
  183MOL0     H24671   4.964   8.978   5.518  1.3736  1.9664  2.2404
  183MOL0     H24672   4.891   9.127   5.572 -1.8294 -0.5449  3.5286
  183MOL0     H24673   4.719   8.898   5.647 -0.7845  0.4518 -2.6815
  183MOL0     H24674   4.890   8.868   5.692  0.0518  1.4011  1.2353
  183MOL0     H24675   4.737   9.111   5.785  4.8024  4.7021  1.5999
  183MOL0     H24676   4.897   9.070   5.811 -2.1971  4.0461  0.2322
  183MOL0     H24677   4.828   8.863   5.922  0.2980  0.6066  0.0070
  183MOL0     H24678   4.660   8.897   5.887 -0.7632  2.0712 -1.4006
  183MOL0     H24679   4.844   9.079   6.045  1.5944 -2.0744 -2.8580
  183MOL0     H24680   4.669   9.094   6.006 -1.8213 -1.7415  2.8373
  183MOL0     H24681   4.792   8.962   6.229  1.6951 -4.9682  0.8901
  183MOL0     H24682   4.736   8.833   6.121 -2.4443 -0.0292  1.6306
  183MOL0     H24683   4.542   8.848   6.234  1.8830 -0.5448  2.6619
  183MOL0     H24684   4.558   9.022   6.275  0.2749 -0.2217 -0.9800
  183MOL0     H24685   4.609   8.939   5.240 -3.4505  1.7639 -3.1864
  183MOL0     H24686   4.407   8.837   5.172  0.7392  0.9540 -1.4325
  183MOL0     H24687   3.852   8.662   5.492 -1.2139 -2.1326 -0.1838
  183MOL0     H24688   3.654   8.585   5.383  0.1562 -1.4484 -0.2172
  183MOL0     H24689   4.819   7.737   5.158  0.2710  0.3454 -0.3786
  183MOL0     H24690   5.043   7.759   5.099 -1.2455  6.4040  1.0238
  183MOL0     H24691   5.513   7.600   4.960  3.3337 -0.6552 -0.6533
  183MOL0     H24692   5.680   7.537   4.812  0.3579  1.4447  1.7293
  183MOL0     H24693   5.638   7.667   4.365 -2.2416  0.4752 -0.1215
  183MOL0     H24694   5.514   7.553   4.395  0.1278  2.4320 -2.3009
  183MOL0     H24695   5.683   7.365   4.355  1.5732 -0.0341 -0.0398
  183MOL0     H24696   5.804   7.493   4.323  1.3708 -0.8885 -4.4594
  183MOL0     H24697   5.750   7.472   4.107  1.0216  1.1186  2.0962
  183MOL0     H24698   5.614   7.573   4.167 -4.9673 -1.2105  2.7499
  183MOL0     H24699   5.606   7.264   4.147  2.1271  0.4340  1.9505
  183MOL0     H24700   5.473   7.376   4.173  0.4830 -2.1760  2.4943
  183MOL0     H24701   5.493   7.357   3.766  1.1391  1.2553 -1.3601
  183MOL0     H24702   5.473   7.762   4.504 -0.8454  2.4822  0.6354
  183MOL0     H24703   5.198   7.775   4.577  0.9179  0.0738 -1.0894
  183MOL0     H24704   5.224   7.909   4.696  0.0711 -0.1315 -0.9744
  183MOL0     H24705   5.322   7.894   4.549  3.5682 -3.7846  0.0977
  184MOL0     O24706   4.434   4.218   4.180 -0.4163  0.2564  0.7138
  184MOL0     C24707   4.330   4.171   4.137 -0.0645 -0.1640 -0.7505
  184MOL0     O24708   4.227   4.141   4.219  0.8069 -0.0097  0.6942
  184MOL0     C24709   4.218   4.189   4.346  0.1912  0.8671  0.2426
  184MOL0     C24710   4.150   4.310   4.371 -0.4496  0.0885 -0.5460
  184MOL0     C24711   4.135   4.358   4.500  0.1603 -0.2324 -0.1813
  184MOL0     C24712   4.183   4.283   4.611  0.5856 -0.1322 -0.1857
  184MOL0     O24713   4.173   4.336   4.737  0.6206 -0.5159  0.4507
  184MOL0     C24714   4.062   4.411   4.788 -0.1610 -0.3137  0.9087
  184MOL0     C24715   4.091   4.414   4.937  0.6697 -0.3668 -0.3564
  184MOL0     C24716   4.035   4.537   5.011 -0.7432 -0.1409  0.9411
  184MOL0     C24717   3.883   4.540   5.015 -0.2075  0.0520 -0.5574
  184MOL0     C24718   3.832   4.585   5.154 -0.3060  0.5571 -0.6562
  184MOL0     C24719   3.888   4.727   5.193 -0.9357  0.7663 -1.0495
  184MOL0     C24720   3.778   4.793   5.269 -0.1113  0.4143 -0.2499
  184MOL0     C24721   3.826   4.907   5.350 -0.1263 -0.2153  0.4878
  184MOL0     N24722   3.710   4.993   5.385 -0.2762  0.6231 -0.2200
  184MOL0     C24723   3.586   4.945   5.414  0.3572  0.4118  0.0471
  184MOL0     C24724   3.505   5.060   5.427 -0.7023  0.8462  0.4231
  184MOL0     C24725   3.358   5.044   5.457 -0.7681  0.4192  0.3315
  184MOL0     C24726   3.291   5.182   5.478 -0.5635 -0.6666 -1.0096
  184MOL0     C24727   3.276   5.261   5.357 -0.0826  0.1084 -0.7227
  184MOL0     C24728   3.213   5.396   5.381 -0.9922 -0.7110 -0.2655
  184MOL0     O24729   3.068   5.383   5.405 -0.3182  0.1367 -1.0665
  184MOL0     C24730   2.985   5.487   5.390  0.9053  0.0327 -0.5555
  184MOL0     C24731   2.851   5.463   5.399 -1.1614  0.0397 -0.5304
  184MOL0     C24732   2.754   5.563   5.393 -0.4439 -0.0638 -1.4744
  184MOL0     C24733   2.791   5.695   5.372 -0.7118  0.4101 -0.8962
  184MOL0     C24734   2.693   5.797   5.360  0.1665 -0.3496  0.0599
  184MOL0     O24735   2.731   5.918   5.319 -0.3389  0.4333 -0.1057
  184MOL0     C24736   2.655   6.029   5.342  0.2136 -1.0187  0.7678
  184MOL0     C24737   2.655   6.124   5.235  0.0261 -0.6735 -0.0415
  184MOL0     C24738   2.608   6.255   5.266 -0.0593 -0.2924  0.6485
  184MOL0     C24739   2.548   6.286   5.389 -0.2957 -0.8746  0.3353
  184MOL0     O24740   2.520   6.418   5.421  0.3358 -0.2447 -0.3936
  184MOL0     C24741   2.377   6.445   5.432  0.0732 -0.0522  0.2437
  184MOL0     C24742   2.378   6.598   5.460  0.4436 -0.2703 -0.0531
  184MOL0     C24743   2.455   6.681   5.362 -0.0263 -0.2645 -0.6301
  184MOL0     C24744   2.418   6.668   5.218 -0.9100  1.4462 -0.5260
  184MOL0     C24745   2.508   6.752   5.125 -0.6670 -0.7119  0.2539
  184MOL0     C24746   2.467   6.743   4.983 -0.1641  0.1487  1.1070
  184MOL0     C24747   2.519   6.848   4.886 -0.2517  0.0086 -1.0855
  184MOL0     C24748   2.408   6.950   4.834  0.6520  0.5758  0.6169
  184MOL0    Cl24749   2.320   6.874   4.699  0.1586  0.2769 -0.5453
  184MOL0     C24750   2.550   6.186   5.480  0.4836  0.7425 -0.0017
  184MOL0     C24751   2.609   6.064   5.466  1.2538 -0.2851  0.1576
  184MOL0     O24752   2.580   5.771   5.402 -0.2669  0.3628  0.2695
  184MOL0     C24753   2.930   5.726   5.360  0.4466  0.0573 -0.8713
  184MOL0     C24754   3.023   5.621   5.373  0.1533 -0.2438 -1.0567
  184MOL0     N24755   3.595   5.168   5.419  0.3928  0.0272 -0.3398
  184MOL0     N24756   3.713   5.126   5.391  0.1108 -0.1101  0.2254
  184MOL0     C24757   4.262   4.171   4.582 -0.9979 -0.0728  0.0460
  184MOL0     C24758   4.273   4.114   4.457 -0.3473  0.3070 -0.8362
  184MOL0     C24759   4.330   4.117   4.003 -0.7193 -1.1840 -0.6080
  184MOL0     C24760   4.235   4.010   3.974 -0.0445 -0.3534  0.0519
  184MOL0     C24761   4.229   3.949   3.846  0.6357 -0.0624  0.8820
  184MOL0     C24762   4.321   3.992   3.748 -0.1258 -0.1228 -0.5147
  184MOL0     O24763   4.312   3.939   3.627  0.2466  0.5402 -0.6966
  184MOL0     C24764   4.281   4.042   3.529 -0.2322  0.2943  0.7462
  184MOL0     C24765   4.383   4.059   3.415 -1.2524 -0.0607 -0.6734
  184MOL0     C24766   4.398   3.926   3.345 -0.1148  0.4079  0.4316
  184MOL0     C24767   4.519   3.918   3.262  0.3774 -0.5804  0.2580
  184MOL0     C24768   4.530   4.023   3.165 -0.2207 -1.0026 -0.1297
  184MOL0     C24769   4.529   4.106   3.066 -0.3138  0.0748 -0.8171
  184MOL0     C24770   4.415   4.096   3.788 -0.5631  0.5414 -0.5357
  184MOL0     C24771   4.421   4.163   3.905  0.3129 -0.0708  0.0084
  184MOL0     C24772   4.521   4.278   3.933  0.0672 -0.4165 -0.9952
  184MOL0     H24773   4.112   4.365   4.286  3.4367  2.0100 -1.2781
  184MOL0     H24774   4.065   4.437   4.525  1.2672  0.2379  1.6432
  184MOL0     H24775   4.049   4.512   4.748 -1.0697 -1.2468 -1.3036
  184MOL0     H24776   3.971   4.361   4.754 -0.3577 -0.1834  1.2363
  184MOL0     H24777   4.199   4.412   4.950  1.0495 -5.5792 -2.1135
  184MOL0     H24778   4.048   4.323   4.979 -1.0916  0.8149  0.5298
  184MOL0     H24779   4.072   4.629   4.964  3.8294 -2.3214 -0.3960
  184MOL0     H24780   4.083   4.524   5.108  1.0571  0.3414  0.1756
  184MOL0     H24781   3.844   4.601   4.933 -1.6803  0.5156  0.4535
  184MOL0     H24782   3.846   4.440   4.995  0.9915 -0.1808 -1.8155
  184MOL0     H24783   3.723   4.579   5.158 -0.2432 -2.0421 -1.3082
  184MOL0     H24784   3.871   4.520   5.233 -2.2797  2.0145  1.6430
  184MOL0     H24785   3.974   4.708   5.258 -2.2522 -3.1249 -0.1950
  184MOL0     H24786   3.923   4.773   5.101  1.1102  1.6982  0.1286
  184MOL0     H24787   3.741   4.722   5.344 -2.3724  1.2195 -0.5418
  184MOL0     H24788   3.701   4.827   5.199 -2.0054 -1.4697  0.8028
  184MOL0     H24789   3.875   4.859   5.436  1.8435 -0.6243 -0.7977
  184MOL0     H24790   3.895   4.974   5.297  1.2069 -2.3455 -0.6268
  184MOL0     H24791   3.558   4.840   5.420  1.5748  0.1243  1.1263
  184MOL0     H24792   3.309   4.993   5.373  1.5638  0.9622 -1.4591
  184MOL0     H24793   3.358   4.977   5.543 -1.2135  1.3922  1.1196
  184MOL0     H24794   3.189   5.171   5.514 -0.6028  1.2438 -0.4122
  184MOL0     H24795   3.352   5.235   5.552 -1.9057 -1.8903  1.0868
  184MOL0     H24796   3.207   5.206   5.293 -2.1048 -0.0597  1.4583
  184MOL0     H24797   3.368   5.258   5.298  0.3260 -4.3432 -0.1848
  184MOL0     H24798   3.232   5.460   5.295 -0.4248 -0.6339 -0.0910
  184MOL0     H24799   3.257   5.451   5.465 -2.3393 -2.2686  1.5431
  184MOL0     H24800   2.833   5.356   5.412  1.9078 -0.3918  1.0854
  184MOL0     H24801   2.652   5.526   5.388 -0.7567 -0.0144  2.1579
  184MOL0     H24802   2.704   6.097   5.142 -1.2686  0.1598 -0.9924
  184MOL0     H24803   2.638   6.339   5.204  0.0024 -0.1304  0.8991
  184MOL0     H24804   2.326   6.433   5.336  2.0438  2.3012 -1.2206
  184MOL0     H24805   2.321   6.386   5.505  0.7714  0.6543  1.3761
  184MOL0     H24806   2.275   6.634   5.475  1.5059  3.7963 -1.3824
  184MOL0     H24807   2.423   6.604   5.559  1.2923  3.0645 -0.5190
  184MOL0     H24808   2.431   6.785   5.387  1.5480 -0.4000  1.7840
  184MOL0     H24809   2.561   6.665   5.383 -0.2627 -2.0173 -0.6350
  184MOL0     H24810   2.310   6.678   5.205 -0.7228  2.8738 -1.1721
  184MOL0     H24811   2.434   6.566   5.181 -1.4155  1.0881  0.2153
  184MOL0     H24812   2.613   6.722   5.130 -0.8395 -1.6548 -1.1649
  184MOL0     H24813   2.503   6.856   5.159  1.6532  0.4760 -2.5405
  184MOL0     H24814   2.490   6.644   4.942  0.8746  0.7307  0.2111
  184MOL0     H24815   2.358   6.753   4.987 -0.0259  2.5048  0.4636
  184MOL0     H24816   2.562   6.810   4.792  3.3389  0.5968  0.1478
  184MOL0     H24817   2.600   6.905   4.933 -0.4986 -0.6440  0.1909
  184MOL0     H24818   2.334   6.967   4.913 -1.6900  0.4180 -1.4294
  184MOL0     H24819   2.451   7.046   4.803 -1.7042  1.9797  1.4180
  184MOL0     H24820   2.500   6.207   5.574  0.7361 -1.7919  0.7822
  184MOL0     H24821   2.600   5.997   5.551  2.2600  0.5936  0.9862
  184MOL0     H24822   2.956   5.828   5.337 -0.4634  0.0204 -2.1897
  184MOL0     H24823   3.128   5.648   5.377 -0.4324  2.1820  0.0081
  184MOL0     H24824   4.308   4.125   4.669 -0.4607 -0.4611 -0.4339
  184MOL0     H24825   4.330   4.023   4.447 -3.9620 -2.0418 -1.9377
  184MOL0     H24826   4.165   3.991   4.055  1.0501 -3.7151  0.3703
  184MOL0     H24827   4.151   3.875   3.832 -0.8973  1.0860  2.7195
  184MOL0     H24828   4.274   4.145   3.566  2.3430  1.9389 -2.7843
  184MOL0     H24829   4.188   4.012   3.479 -2.2997  4.0743  1.9490
  184MOL0     H24830   4.474   4.094   3.464  1.6032 -4.1656 -2.4923
  184MOL0     H24831   4.360   4.137   3.342  1.0327  0.9782 -0.3446
  184MOL0     H24832   4.305   3.900   3.295 -0.6226  1.3441  0.8611
  184MOL0     H24833   4.411   3.845   3.417 -2.3089  0.3899  0.8745
  184MOL0     H24834   4.601   3.925   3.334 -0.9523 -0.8617  1.8735
  184MOL0     H24835   4.526   3.818   3.220  1.1024  0.0219 -1.1280
  184MOL0     H24836   4.521   4.191   3.003  0.4640 -1.1572 -2.6581
  184MOL0     H24837   4.480   4.125   3.706  1.1045  2.5921  1.4020
  184MOL0     H24838   4.561   4.317   3.839  1.9309  1.9138  0.6703
  184MOL0     H24839   4.481   4.362   3.991 -0.9398 -3.5141  3.3083
  184MOL0     H24840   4.605   4.230   3.983 -0.5114  0.2660  0.6769
  185MOL0     O24841   8.472   2.081   9.194 -0.3939  0.2709 -0.3929
  185MOL0     C24842   8.434   1.964   9.234 -0.0406  0.2536 -0.5295
  185MOL0     O24843   8.477   1.843   9.178 -0.0875  0.3058 -1.1212
  185MOL0     C24844   8.545   1.846   9.060 -0.1732  0.6638  0.0079
  185MOL0     C24845   8.484   1.843   8.939 -0.5526  0.1533  0.9737
  185MOL0     C24846   8.557   1.867   8.822 -0.7904  0.1670  0.3875
  185MOL0     C24847   8.694   1.897   8.822 -0.7794  0.3399 -0.1990
  185MOL0     O24848   8.752   1.939   8.703  0.4104  0.2587 -0.6840
  185MOL0     C24849   8.891   1.941   8.682 -0.7845 -0.5485  0.0697
  185MOL0     C24850   8.940   1.985   8.541 -1.2830 -1.0750  0.0649
  185MOL0     C24851   8.868   1.921   8.423 -0.2364 -0.5650  0.7850
  185MOL0     C24852   8.869   1.767   8.429 -0.5482 -1.0481  0.4197
  185MOL0     C24853   8.814   1.711   8.292 -0.0693 -0.3286 -0.0228
  185MOL0     C24854   8.686   1.775   8.258  0.0791 -0.1135  0.9109
  185MOL0     C24855   8.576   1.759   8.363  0.3894 -0.2176 -0.2371
  185MOL0     C24856   8.444   1.808   8.292 -0.5628 -1.1434 -0.6827
  185MOL0     N24857   8.459   1.952   8.256  0.0983  0.4619  0.3332
  185MOL0     C24858   8.508   2.000   8.136 -0.2592 -0.0769  0.7853
  185MOL0     C24859   8.491   2.139   8.131  0.1680 -0.6714 -0.9378
  185MOL0     C24860   8.533   2.216   8.012  0.4016  0.2836  0.3165
  185MOL0     C24861   8.524   2.378   8.019  0.5369 -0.3171 -0.1574
  185MOL0     C24862   8.381   2.436   8.009  0.3595  0.2336  0.5660
  185MOL0     C24863   8.316   2.446   8.150  0.4537  0.0146  0.6166
  185MOL0     O24864   8.207   2.544   8.140 -0.5020 -0.1006  1.1783
  185MOL0     C24865   8.080   2.526   8.085 -0.4325 -0.4827  0.5812
  185MOL0     C24866   8.003   2.636   8.074 -0.4810 -0.1761 -0.1792
  185MOL0     C24867   7.884   2.618   8.005  0.1303 -0.7418  0.0534
  185MOL0     C24868   7.840   2.497   7.945  0.4807 -0.4366  0.5051
  185MOL0     C24869   7.703   2.493   7.882  0.2210 -0.9450  0.0411
  185MOL0     O24870   7.673   2.398   7.791 -0.5148 -0.5050 -0.4442
  185MOL0     C24871   7.564   2.413   7.712  0.4091  0.0348  0.9476
  185MOL0     C24872   7.429   2.392   7.753 -0.1057  0.6742 -0.4357
  185MOL0     C24873   7.322   2.390   7.662 -0.0852  0.5735 -0.9945
  185MOL0     C24874   7.337   2.430   7.538  0.3285 -0.5325  0.5572
  185MOL0     O24875   7.233   2.437   7.447 -0.4416 -0.4643 -0.2797
  185MOL0     C24876   7.140   2.328   7.447 -0.0858 -0.0630  0.1658
  185MOL0     C24877   7.040   2.353   7.338  0.0564 -0.9827 -0.5002
  185MOL0     C24878   7.106   2.331   7.201 -0.8551  1.0088  0.7632
  185MOL0     C24879   7.024   2.376   7.084  0.3432 -0.4006 -0.1195
  185MOL0     C24880   7.116   2.390   6.960  0.5743 -0.5400  0.2427
  185MOL0     C24881   7.130   2.261   6.875 -0.3917  0.0615 -0.1674
  185MOL0     C24882   7.253   2.278   6.777 -1.1859 -0.0266 -0.2062
  185MOL0     C24883   7.307   2.147   6.752 -0.4061  0.2355  0.5619
  185MOL0    Cl24884   7.410   2.090   6.881 -0.3767  0.5046  0.4112
  185MOL0     C24885   7.465   2.472   7.493 -0.2091  0.5554 -0.4107
  185MOL0     C24886   7.576   2.460   7.581 -0.3566 -0.2761  0.1219
  185MOL0     O24887   7.639   2.599   7.882  0.0957  0.1672  0.5835
  185MOL0     C24888   7.932   2.391   7.952  1.0272 -0.3917 -0.1697
  185MOL0     C24889   8.048   2.402   8.028  0.8263  0.0010 -0.7253
  185MOL0     N24890   8.420   2.161   8.249 -0.3764 -0.5387  0.4028
  185MOL0     N24891   8.400   2.053   8.318 -1.1192 -0.1716 -0.2315
  185MOL0     C24892   8.762   1.889   8.948 -0.3354  0.7284  0.5805
  185MOL0     C24893   8.691   1.856   9.066  0.7357 -0.1609 -0.3535
  185MOL0     C24894   8.330   1.954   9.337  0.2423  0.4550 -0.2721
  185MOL0     C24895   8.278   2.072   9.386 -0.1707 -0.1537  0.0879
  185MOL0     C24896   8.184   2.087   9.488  0.3592  0.7089  0.6093
  185MOL0     C24897   8.146   1.980   9.553  0.4948 -0.0667  0.9329
  185MOL0     O24898   8.050   2.000   9.657  0.2152  0.4155  0.1924
  185MOL0     C24899   7.979   1.883   9.704  0.2279  0.6496 -0.3438
  185MOL0     C24900   8.062   1.839   9.828  0.6343  0.0861  0.4311
  185MOL0     C24901   8.045   1.948   9.941  0.5175  0.8570 -0.0080
  185MOL0     C24902   8.110   1.913  10.068 -1.0922 -0.3412  0.3411
  185MOL0     C24903   8.033   1.814  10.144 -0.5437  0.1724 -0.7174
  185MOL0     C24904   7.989   1.729  10.222  0.6030 -0.1653 -0.5647
  185MOL0     C24905   8.198   1.854   9.513 -0.5462  0.2145  0.2685
  185MOL0     C24906   8.283   1.837   9.408 -0.3500  0.5818  0.0303
  185MOL0     C24907   8.324   1.697   9.377  0.7125 -0.1744 -0.0641
  185MOL0     H24908   8.377   1.827   8.928 -0.8608  1.7039  1.4909
  185MOL0     H24909   8.495   1.853   8.735 -3.1554 -0.3184  2.0634
  185MOL0     H24910   8.928   2.013   8.757  1.7213  0.5920 -2.1208
  185MOL0     H24911   8.941   1.845   8.700  0.6306  0.1458  0.0211
  185MOL0     H24912   9.048   1.973   8.535 -1.0343  1.1223 -1.0259
  185MOL0     H24913   8.921   2.093   8.539  1.3500 -0.4965  1.6979
  185MOL0     H24914   8.916   1.952   8.330  3.3873 -0.0510  2.6559
  185MOL0     H24915   8.767   1.963   8.428 -0.4942 -1.0062 -0.4301
  185MOL0     H24916   8.976   1.745   8.441 -0.0123  0.1259 -1.5808
  185MOL0     H24917   8.805   1.727   8.508  0.5248 -0.1720  1.7881
  185MOL0     H24918   8.882   1.737   8.210  1.4125  0.5942  1.4195
  185MOL0     H24919   8.828   1.603   8.293  2.1556 -0.1147  1.7866
  185MOL0     H24920   8.714   1.877   8.229  0.6888 -1.0773 -2.2473
  185MOL0     H24921   8.659   1.731   8.162  3.2674  3.6935 -2.0715
  185MOL0     H24922   8.594   1.809   8.458  0.4769  1.8715 -1.2871
  185MOL0     H24923   8.569   1.651   8.381  0.3665 -0.7628 -3.0044
  185MOL0     H24924   8.439   1.736   8.210  0.2318 -1.2338 -0.6597
  185MOL0     H24925   8.368   1.787   8.367 -0.8433  1.0698 -0.2713
  185MOL0     H24926   8.564   1.940   8.065  2.0053  1.5237  1.1164
  185MOL0     H24927   8.637   2.192   7.986  0.0199  1.5560 -2.9694
  185MOL0     H24928   8.478   2.190   7.921  1.7463 -0.5134 -0.3110
  185MOL0     H24929   8.575   2.417   8.107 -0.1590 -2.8107  1.4695
  185MOL0     H24930   8.583   2.422   7.939  1.0097  1.2903  1.0354
  185MOL0     H24931   8.327   2.386   7.928 -0.5936  2.6441 -0.3815
  185MOL0     H24932   8.390   2.537   7.968 -2.3610 -0.0872 -1.0520
  185MOL0     H24933   8.385   2.481   8.228 -2.4527 -0.7864  3.8037
  185MOL0     H24934   8.288   2.346   8.184  1.3647  0.2158  2.0616
  185MOL0     H24935   8.036   2.729   8.121 -1.3290  0.1667 -0.2476
  185MOL0     H24936   7.824   2.708   7.998  0.4793 -0.5446 -0.5038
  185MOL0     H24937   7.422   2.365   7.858 -2.2377  0.2392 -0.6530
  185MOL0     H24938   7.227   2.361   7.705 -0.4686  3.3633  0.2284
  185MOL0     H24939   7.193   2.232   7.444 -0.4059 -0.2939  1.5474
  185MOL0     H24940   7.098   2.342   7.547  3.9690  3.7468  1.7067
  185MOL0     H24941   6.963   2.277   7.355  1.3090 -2.3596 -0.7376
  185MOL0     H24942   6.995   2.452   7.346 -1.1480 -1.6678  2.5851
  185MOL0     H24943   7.201   2.385   7.192  1.1415 -2.5468 -4.2399
  185MOL0     H24944   7.134   2.226   7.189 -0.4024  0.9346  2.2508
  185MOL0     H24945   6.988   2.469   7.129  1.4124 -0.0620  0.0541
  185MOL0     H24946   6.937   2.315   7.057 -0.0001 -0.3420  0.8292
  185MOL0     H24947   7.217   2.420   6.990  0.2768 -0.8409  1.6423
  185MOL0     H24948   7.061   2.461   6.897 -4.6505 -0.0885  4.5465
  185MOL0     H24949   7.135   2.177   6.945  1.0565  1.7135  1.8185
  185MOL0     H24950   7.049   2.250   6.802  0.4570  0.0220 -1.1283
  185MOL0     H24951   7.333   2.344   6.813  0.4446 -2.4496  0.8880
  185MOL0     H24952   7.227   2.323   6.680 -0.7244 -0.8944 -0.7469
  185MOL0     H24953   7.229   2.075   6.725  0.4644 -0.1452 -1.0543
  185MOL0     H24954   7.368   2.149   6.661 -5.6085  0.4121 -3.3353
  185MOL0     H24955   7.490   2.499   7.391  3.0295  1.3060  0.4703
  185MOL0     H24956   7.675   2.480   7.542 -1.2847  2.5704 -1.0564
  185MOL0     H24957   7.911   2.296   7.905  2.8675 -0.5612 -0.7087
  185MOL0     H24958   8.109   2.312   8.023  0.7946 -0.1469  0.9844
  185MOL0     H24959   8.865   1.921   8.953  0.0422 -0.1257 -1.0711
  185MOL0     H24960   8.725   1.871   9.168 -1.7733  1.1750  0.3852
  185MOL0     H24961   8.306   2.168   9.345  3.4396  0.2699  3.0282
  185MOL0     H24962   8.132   2.180   9.508  0.4033  0.7206  0.6668
  185MOL0     H24963   7.979   1.798   9.636  4.0254 -1.9858  2.5253
  185MOL0     H24964   7.875   1.907   9.727  0.4823  2.1431 -0.6220
  185MOL0     H24965   8.162   1.800   9.809  0.0021 -2.0379  1.2341
  185MOL0     H24966   8.024   1.742   9.861  1.5589 -2.0061 -3.9419
  185MOL0     H24967   7.940   1.974   9.952  0.4460  1.5528 -1.9538
  185MOL0     H24968   8.098   2.040   9.913  0.0310  1.8054  2.0175
  185MOL0     H24969   8.205   1.860  10.057 -1.5664 -0.9214 -1.2427
  185MOL0     H24970   8.136   1.998  10.132  0.7948  1.9822 -3.1896
  185MOL0     H24971   7.952   1.650  10.286 -0.0743  0.3965 -0.2510
  185MOL0     H24972   8.156   1.763   9.556 -2.9715  2.6571  3.6290
  185MOL0     H24973   8.420   1.671   9.421 -1.0327 -1.7003  3.2008
  185MOL0     H24974   8.251   1.626   9.418 -1.8832  1.5489 -1.4019
  185MOL0     H24975   8.325   1.680   9.269 -3.2471 -2.1320  0.0359
  186MOL0     O24976   0.178   8.954   0.700 -0.2092  0.2422 -0.1380
  186MOL0     C24977   0.263   8.945   0.615 -0.2155  0.4731 -0.7238
  186MOL0     O24978   0.262   9.014   0.496 -0.5110  0.5360 -0.1491
  186MOL0     C24979   0.144   9.074   0.455 -0.3881  0.7145  0.4146
  186MOL0     C24980   0.130   9.214   0.446 -1.3504  1.0096  0.3317
  186MOL0     C24981   0.016   9.273   0.398 -0.7167 -0.1032  0.1850
  186MOL0     C24982  -0.092   9.189   0.377 -0.0438 -0.2829  0.9863
  186MOL0     O24983  -0.204   9.236   0.319 -0.4754  0.5585 -0.0222
  186MOL0     C24984  -0.181   9.285   0.194  0.8969  0.9255  0.9016
  186MOL0     C24985  -0.253   9.197   0.090  0.2111  0.6071 -0.0010
  186MOL0     C24986  -0.407   9.172   0.124  0.0839 -0.0239 -0.1340
  186MOL0     C24987  -0.490   9.300   0.146  0.7942 -0.2460  0.4991
  186MOL0     C24988  -0.642   9.264   0.162 -0.0850  0.0764 -0.5353
  186MOL0     C24989  -0.725   9.386   0.135  0.3898 -0.5819  0.4288
  186MOL0     C24990  -0.873   9.377   0.178 -0.0364  1.1388  0.4263
  186MOL0     C24991  -0.959   9.312   0.077 -0.4973 -0.3418  0.3086
  186MOL0     N24992  -1.100   9.302   0.116 -0.1876 -0.5728 -0.8895
  186MOL0     C24993  -1.216   9.329   0.040 -0.4852  0.8899  0.2239
  186MOL0     C24994  -1.320   9.276   0.121  0.1135 -0.0413  0.3280
  186MOL0     C24995  -1.471   9.285   0.101  0.1123  0.0380 -0.0703
  186MOL0     C24996  -1.535   9.400   0.178  1.3111  0.5269 -0.8134
  186MOL0     C24997  -1.501   9.545   0.138  0.4763 -0.4625  0.9208
  186MOL0     C24998  -1.558   9.586  -0.002 -0.1597  0.4079 -0.7917
  186MOL0     O24999  -1.506   9.486  -0.094 -0.7599  0.2692  0.2108
  186MOL0     C25000  -1.532   9.498  -0.227 -0.9189 -0.4684  0.0525
  186MOL0     C25001  -1.471   9.407  -0.316  0.5202  0.2915  0.4677
  186MOL0     C25002  -1.508   9.412  -0.458  0.1504  0.5461 -1.2488
  186MOL0     C25003  -1.603   9.491  -0.508 -0.0420 -0.2632  0.6850
  186MOL0     C25004  -1.643   9.497  -0.654 -0.5810  0.3273 -0.5343
  186MOL0     O25005  -1.596   9.390  -0.721 -0.2574 -0.1132 -0.4922
  186MOL0     C25006  -1.654   9.355  -0.843 -0.7212 -0.4757 -0.1082
  186MOL0     C25007  -1.690   9.233  -0.869  0.1605 -1.0109  0.4601
  186MOL0     C25008  -1.748   9.200  -0.993 -0.8550  1.1525 -1.1142
  186MOL0     C25009  -1.741   9.288  -1.099  0.0996  0.1178 -0.6542
  186MOL0     O25010  -1.792   9.260  -1.224 -0.7192  0.6292  0.6061
  186MOL0     C25011  -1.750   9.127  -1.276  0.4061  0.7082  0.2588
  186MOL0     C25012  -1.862   9.057  -1.350  0.1916  0.7505 -0.7685
  186MOL0     C25013  -1.813   8.942  -1.437  0.7341  0.4226  0.6363
  186MOL0     C25014  -1.742   8.833  -1.346  0.0898 -0.8078 -0.7937
  186MOL0     C25015  -1.685   8.711  -1.410 -0.1198 -0.5168  0.1182
  186MOL0     C25016  -1.779   8.628  -1.499 -0.7699  0.0525 -0.1931
  186MOL0     C25017  -1.762   8.474  -1.517  0.7652 -0.0306  0.8539
  186MOL0     C25018  -1.625   8.458  -1.578 -0.9080 -0.2230 -0.3770
  186MOL0    Cl25019  -1.596   8.274  -1.564 -0.6316 -0.0601 -0.4356
  186MOL0     C25020  -1.705   9.414  -1.075 -0.7983  0.1675  0.2455
  186MOL0     C25021  -1.661   9.446  -0.947  0.3316 -0.5511 -0.0533
  186MOL0     O25022  -1.728   9.575  -0.694  0.7228 -1.0458  0.3042
  186MOL0     C25023  -1.664   9.580  -0.415  0.2960  0.2890  0.0310
  186MOL0     C25024  -1.636   9.578  -0.277 -0.6734  0.2438 -0.3618
  186MOL0     N25025  -1.255   9.206   0.230 -0.0132 -0.9880 -0.0986
  186MOL0     N25026  -1.126   9.219   0.222  1.4358  0.7734 -0.3981
  186MOL0     C25027  -0.089   9.054   0.392 -0.0092  0.1445  0.5734
  186MOL0     C25028   0.028   9.000   0.439 -0.7243  0.5607  0.3188
  186MOL0     C25029   0.393   8.867   0.635 -0.5074 -0.3722  0.1703
  186MOL0     C25030   0.495   8.882   0.536 -0.9773  0.7085  0.1942
  186MOL0     C25031   0.616   8.799   0.546 -0.0762 -0.6521  0.5248
  186MOL0     C25032   0.649   8.722   0.659  0.4514 -0.9578  0.4193
  186MOL0     O25033   0.774   8.664   0.644  0.1375  0.5614 -0.2815
  186MOL0     C25034   0.850   8.655   0.769  0.0644 -0.2950 -0.2032
  186MOL0     C25035   0.996   8.694   0.764 -0.5009  0.4733 -0.3085
  186MOL0     C25036   1.023   8.814   0.672 -0.8098 -0.2516 -0.9459
  186MOL0     C25037   0.966   8.951   0.685  0.3812 -0.2003 -0.2553
  186MOL0     C25038   0.998   9.035   0.807  0.4695  0.3045 -0.1811
  186MOL0     C25039   1.024   9.079   0.911 -0.5612  0.1710 -0.4264
  186MOL0     C25040   0.551   8.709   0.757  0.5260 -0.5743 -0.6146
  186MOL0     C25041   0.432   8.782   0.746 -1.8682 -1.0304  0.3173
  186MOL0     C25042   0.334   8.759   0.851 -0.1279 -0.2631 -0.1683
  186MOL0     H25043   0.219   9.267   0.477  2.4710 -3.3758 -1.8607
  186MOL0     H25044   0.014   9.379   0.376 -1.5493 -0.4693 -1.6585
  186MOL0     H25045  -0.236   9.378   0.178  1.5596  0.9738 -1.3536
  186MOL0     H25046  -0.077   9.304   0.166  1.2754  0.6593  2.0389
  186MOL0     H25047  -0.200   9.102   0.079  0.5855  0.7698  0.3471
  186MOL0     H25048  -0.255   9.245  -0.008 -1.3724  2.5669  0.9196
  186MOL0     H25049  -0.418   9.102   0.208 -6.4765  0.9545  0.2727
  186MOL0     H25050  -0.454   9.115   0.043 -1.0982 -0.6457  0.9567
  186MOL0     H25051  -0.449   9.350   0.234  1.2090  0.2231  0.0454
  186MOL0     H25052  -0.472   9.369   0.063 -0.5074 -1.6529 -1.0350
  186MOL0     H25053  -0.660   9.174   0.103 -0.0532 -1.0591  1.1256
  186MOL0     H25054  -0.668   9.240   0.265  0.0157 -2.2898 -1.0115
  186MOL0     H25055  -0.679   9.472   0.186  0.8209 -2.1938  2.9431
  186MOL0     H25056  -0.725   9.396   0.026 -1.2544 -2.0036  0.2565
  186MOL0     H25057  -0.918   9.476   0.193  0.4125  1.4610 -0.3330
  186MOL0     H25058  -0.892   9.324   0.272 -3.5434  2.4988  0.6470
  186MOL0     H25059  -0.954   9.376  -0.012 -3.5747  1.8099  1.4936
  186MOL0     H25060  -0.911   9.218   0.049 -0.5467 -0.9504  2.1993
  186MOL0     H25061  -1.218   9.387  -0.052  2.6934 -0.3206 -0.7300
  186MOL0     H25062  -1.506   9.272  -0.001 -0.2396 -3.4121  0.3776
  186MOL0     H25063  -1.516   9.201   0.154 -3.0005  1.3576 -0.4085
  186MOL0     H25064  -1.645   9.406   0.177  1.4028  3.6361 -1.6360
  186MOL0     H25065  -1.530   9.381   0.285 -0.3254 -2.1275 -1.1066
  186MOL0     H25066  -1.392   9.548   0.132  0.4252 -0.9357 -2.7969
  186MOL0     H25067  -1.533   9.614   0.217 -0.8232  1.5482 -1.2365
  186MOL0     H25068  -1.529   9.689  -0.027 -1.5579  0.5800 -1.8302
  186MOL0     H25069  -1.666   9.571   0.005  0.0680 -0.5794  3.2923
  186MOL0     H25070  -1.393   9.337  -0.287  0.6293  0.1679 -0.1191
  186MOL0     H25071  -1.457   9.353  -0.534 -3.5732 -2.5413 -1.6214
  186MOL0     H25072  -1.687   9.160  -0.789  0.0531 -0.1427  1.2686
  186MOL0     H25073  -1.781   9.097  -0.994 -0.3578  0.8964  1.5391
  186MOL0     H25074  -1.658   9.140  -1.334 -0.2701  2.5483 -0.4894
  186MOL0     H25075  -1.734   9.067  -1.186 -1.5837  1.3179  1.0656
  186MOL0     H25076  -1.924   9.010  -1.273  0.1696 -0.0941 -1.2900
  186MOL0     H25077  -1.918   9.124  -1.416 -3.7115 -1.3522  0.1159
  186MOL0     H25078  -1.909   8.908  -1.478  1.5180 -0.9161 -0.1536
  186MOL0     H25079  -1.760   8.971  -1.527 -0.2143 -2.3256 -0.9281
  186MOL0     H25080  -1.790   8.809  -1.251  3.1610  1.3359  1.4922
  186MOL0     H25081  -1.655   8.887  -1.308 -0.5846  0.2174 -0.6574
  186MOL0     H25082  -1.647   8.644  -1.333 -0.4686 -0.3237  0.4604
  186MOL0     H25083  -1.590   8.742  -1.455  2.1811 -1.7195  3.7538
  186MOL0     H25084  -1.881   8.639  -1.460 -0.6086 -0.4199  0.3808
  186MOL0     H25085  -1.793   8.684  -1.592  0.7784 -0.5510 -0.8351
  186MOL0     H25086  -1.847   8.441  -1.578 -0.4647 -0.3885  2.7047
  186MOL0     H25087  -1.764   8.428  -1.418 -0.9074  0.3844  1.0357
  186MOL0     H25088  -1.619   8.488  -1.683  2.8175  0.1140 -0.2005
  186MOL0     H25089  -1.545   8.509  -1.523  2.3146 -0.4446 -4.3807
  186MOL0     H25090  -1.722   9.485  -1.155  0.3821 -0.5539 -0.6758
  186MOL0     H25091  -1.617   9.543  -0.928  1.5873 -0.3580 -3.3557
  186MOL0     H25092  -1.743   9.648  -0.447 -0.2891  1.5268  3.6658
  186MOL0     H25093  -1.698   9.644  -0.216 -1.9490 -1.0179 -0.2565
  186MOL0     H25094  -0.173   8.992   0.363 -0.3424  1.0877 -0.5573
  186MOL0     H25095   0.024   8.894   0.462  2.2808  0.1994 -0.4649
  186MOL0     H25096   0.474   8.935   0.444 -2.0323  0.3420  0.2163
  186MOL0     H25097   0.693   8.822   0.474 -0.6291  0.6660  0.3163
  186MOL0     H25098   0.842   8.555   0.811 -2.5947 -0.8813 -1.9092
  186MOL0     H25099   0.816   8.727   0.845  0.5423  2.2948 -2.2866
  186MOL0     H25100   1.039   8.602   0.722 -0.7102  0.8222 -1.3210
  186MOL0     H25101   1.032   8.704   0.867 -1.0968 -1.0998  0.0820
  186MOL0     H25102   0.979   8.779   0.578 -1.3035 -1.0137 -0.4443
  186MOL0     H25103   1.131   8.827   0.660 -0.7638  3.0665  1.7846
  186MOL0     H25104   0.985   9.006   0.592  1.2353  1.3163  0.7693
  186MOL0     H25105   0.858   8.936   0.694  0.1314  1.8972  0.9109
  186MOL0     H25106   1.059   9.105   1.009  0.3976 -0.5639 -0.5617
  186MOL0     H25107   0.567   8.637   0.837 -1.5826 -2.2702 -1.6218
  186MOL0     H25108   0.388   8.713   0.934  3.3125  1.0447 -1.5108
  186MOL0     H25109   0.281   8.849   0.885  0.2140 -0.3284  0.5591
  186MOL0     H25110   0.282   8.669   0.818  1.9195 -1.5284 -0.0612
  187MOL0     O25111   4.290   3.133   0.373  0.5069  0.4315  0.3470
  187MOL0     C25112   4.316   3.246   0.354  0.1317  0.4170  0.2372
  187MOL0     O25113   4.292   3.350   0.446  0.6816  0.7391  0.0485
  187MOL0     C25114   4.232   3.327   0.563  0.5202  0.2408  0.4784
  187MOL0     C25115   4.181   3.436   0.621  0.5662 -0.2361 -0.0639
  187MOL0     C25116   4.124   3.437   0.748 -0.1720  0.3245  0.3560
  187MOL0     C25117   4.106   3.316   0.824  0.4492 -0.0611  0.1417
  187MOL0     O25118   4.056   3.315   0.953 -0.2010 -0.0392 -0.0691
  187MOL0     C25119   4.043   3.419   1.041  0.3583  0.4098  0.5264
  187MOL0     C25120   3.986   3.369   1.176 -0.4842 -0.2890  0.8836
  187MOL0     C25121   3.849   3.299   1.163  0.8695 -0.7695  0.3433
  187MOL0     C25122   3.727   3.394   1.160 -0.0741  0.5912 -0.7351
  187MOL0     C25123   3.599   3.313   1.138 -0.4478  0.0938  0.0273
  187MOL0     C25124   3.477   3.386   1.180  0.5144 -1.1790 -1.8755
  187MOL0     C25125   3.351   3.301   1.152 -0.7069 -1.0395 -0.6355
  187MOL0     C25126   3.276   3.357   1.027  0.9799  0.2554  0.8213
  187MOL0     N25127   3.189   3.239   0.987  0.0193 -0.0140  1.3443
  187MOL0     C25128   3.097   3.172   1.067 -0.5744 -0.3108 -0.6821
  187MOL0     C25129   3.049   3.079   0.983 -0.7283  0.2763 -0.2877
  187MOL0     C25130   2.956   2.967   1.023 -1.9042  0.4916  1.0945
  187MOL0     C25131   2.845   2.962   0.917 -0.4049 -1.6068 -0.5707
  187MOL0     C25132   2.736   3.066   0.929 -0.0773  0.6211  0.2470
  187MOL0     C25133   2.625   3.054   1.035  0.3131  0.5081  0.0093
  187MOL0     O25134   2.661   3.008   1.167  0.5223  0.2391  0.1575
  187MOL0     C25135   2.583   2.900   1.209  0.5600 -0.4917  1.1936
  187MOL0     C25136   2.440   2.902   1.213 -0.5487  0.6971  0.6473
  187MOL0     C25137   2.367   2.777   1.238  0.0758 -0.5997 -0.3891
  187MOL0     C25138   2.434   2.654   1.244  1.3785  0.2634  0.5428
  187MOL0     C25139   2.355   2.532   1.246 -0.7092  0.1670  0.3507
  187MOL0     O25140   2.220   2.547   1.260 -0.4582  0.1283  0.4577
  187MOL0     C25141   2.137   2.435   1.268 -0.2744  0.4977 -0.4980
  187MOL0     C25142   2.027   2.426   1.185 -0.3884  0.1371 -0.3258
  187MOL0     C25143   1.928   2.328   1.196  0.0186  0.4977  0.3498
  187MOL0     C25144   1.942   2.242   1.306 -0.1465 -0.0904  0.1526
  187MOL0     O25145   1.838   2.154   1.331 -0.1235 -0.3329 -0.2088
  187MOL0     C25146   1.864   2.015   1.331  0.1902  0.3801 -0.1895
  187MOL0     C25147   1.973   1.964   1.237 -0.3721  0.3157  1.1453
  187MOL0     C25148   1.959   1.983   1.085 -0.3553 -0.3349 -0.2702
  187MOL0     C25149   1.830   1.939   1.017 -1.2707 -0.0361  0.8746
  187MOL0     C25150   1.721   2.049   1.022 -0.5312  0.2102 -0.4081
  187MOL0     C25151   1.600   2.008   0.939  0.7959 -0.1451  0.0275
  187MOL0     C25152   1.515   2.111   0.875  0.2222  0.0203  0.1149
  187MOL0     C25153   1.383   2.046   0.825 -0.3842  0.2075 -0.0637
  187MOL0    Cl25154   1.374   2.079   0.649  0.4929  0.0514  0.0229
  187MOL0     C25155   2.057   2.245   1.379 -0.3566  0.1816  0.2644
  187MOL0     C25156   2.157   2.331   1.359  0.4179  0.0015  0.2164
  187MOL0     O25157   2.415   2.423   1.233 -1.0361  0.2923  0.5271
  187MOL0     C25158   2.570   2.655   1.232  0.9587 -0.2572 -0.2035
  187MOL0     C25159   2.646   2.774   1.221  1.6689 -0.5039 -0.5063
  187MOL0     N25160   3.106   3.090   0.858  0.2941 -0.4479 -0.3189
  187MOL0     N25161   3.178   3.194   0.855 -0.2181  0.0662 -0.6333
  187MOL0     C25162   4.156   3.204   0.762 -0.8001 -0.8870 -0.6106
  187MOL0     C25163   4.216   3.207   0.632  0.0956 -0.2244  0.3212
  187MOL0     C25164   4.388   3.294   0.234 -0.3739  0.8324 -0.0239
  187MOL0     C25165   4.433   3.426   0.239  0.6165 -0.6178  0.1616
  187MOL0     C25166   4.523   3.486   0.146 -0.5409 -0.3540  0.1014
  187MOL0     C25167   4.567   3.404   0.040  0.6279  0.5532  0.5152
  187MOL0     O25168   4.651   3.466  -0.054 -0.1001 -0.3532 -0.1895
  187MOL0     C25169   4.738   3.393  -0.148 -0.4199 -0.4558  0.2037
  187MOL0     C25170   4.696   3.419  -0.289 -0.3840 -0.2985 -0.3815
  187MOL0     C25171   4.771   3.340  -0.390  0.1848  0.7330 -0.6194
  187MOL0     C25172   4.708   3.355  -0.523 -0.1423  0.9168  0.4398
  187MOL0     C25173   4.734   3.487  -0.569  0.8076 -0.2127 -0.0653
  187MOL0     C25174   4.748   3.597  -0.621  0.6392  0.1216 -0.5668
  187MOL0     C25175   4.507   3.280   0.015  0.4494  0.4761 -0.4548
  187MOL0     C25176   4.414   3.222   0.110  0.2623 -0.7997 -0.6556
  187MOL0     C25177   4.347   3.095   0.074  0.5463 -0.0824 -0.5501
  187MOL0     H25178   4.190   3.534   0.575  1.2840 -0.7261 -0.9853
  187MOL0     H25179   4.090   3.534   0.784 -1.5284  0.3407 -0.8671
  187MOL0     H25180   4.130   3.479   1.068  2.7071 -2.0415 -1.1896
  187MOL0     H25181   3.973   3.495   1.005  0.6374  0.7475  0.6851
  187MOL0     H25182   3.964   3.453   1.244 -2.9477 -0.7330  0.7276
  187MOL0     H25183   4.070   3.310   1.213  0.8916 -0.1873 -1.8665
  187MOL0     H25184   3.834   3.240   1.254 -0.9685 -0.7280  0.1088
  187MOL0     H25185   3.839   3.237   1.073  0.2275  1.0519 -0.9085
  187MOL0     H25186   3.714   3.435   1.260  0.3861  0.6786 -0.7109
  187MOL0     H25187   3.756   3.476   1.093  1.0915 -0.8765 -2.1184
  187MOL0     H25188   3.597   3.278   1.035  2.0279 -2.5234  0.7215
  187MOL0     H25189   3.611   3.228   1.206  1.1857 -1.2525 -1.8394
  187MOL0     H25190   3.474   3.385   1.290 -0.3618  0.4674 -1.8593
  187MOL0     H25191   3.465   3.486   1.137 -0.9597 -1.0955 -1.3147
  187MOL0     H25192   3.273   3.306   1.228  0.2475 -0.8299  0.3628
  187MOL0     H25193   3.380   3.196   1.150  4.6767  0.0053  2.0231
  187MOL0     H25194   3.223   3.451   1.044  0.7215  0.2141  0.2583
  187MOL0     H25195   3.342   3.376   0.942 -0.3755  0.9762 -0.1158
  187MOL0     H25196   3.082   3.189   1.173 -0.6880 -2.6496 -0.2636
  187MOL0     H25197   3.009   2.871   1.020 -3.7196 -0.5923 -2.3971
  187MOL0     H25198   2.925   2.977   1.128 -0.3151 -0.4796  1.6938
  187MOL0     H25199   2.886   2.973   0.816 -2.4952 -0.6985 -1.3775
  187MOL0     H25200   2.806   2.860   0.923  0.6113 -1.9620  0.5208
  187MOL0     H25201   2.682   3.071   0.834 -0.2000  1.0570  0.3386
  187MOL0     H25202   2.784   3.163   0.945 -1.4263  1.6577 -1.5300
  187MOL0     H25203   2.555   2.987   0.984  0.2399  1.2501 -0.8885
  187MOL0     H25204   2.571   3.149   1.042 -0.6086 -0.1353  2.7455
  187MOL0     H25205   2.390   2.998   1.211 -0.2253  0.8782  1.0404
  187MOL0     H25206   2.260   2.796   1.245  0.5125  2.0226  0.3737
  187MOL0     H25207   2.027   2.484   1.093  4.3106  2.3600  0.8003
  187MOL0     H25208   1.855   2.317   1.116  1.6453 -0.9562 -1.0200
  187MOL0     H25209   1.893   2.007   1.437  1.4625  2.0123 -0.3859
  187MOL0     H25210   1.771   1.958   1.316 -0.6548  1.8775 -0.8499
  187MOL0     H25211   2.073   2.006   1.253  0.1764  0.4354 -1.9146
  187MOL0     H25212   1.980   1.858   1.262 -0.0178  0.7770  3.1893
  187MOL0     H25213   1.983   2.085   1.054  1.4443 -0.3724  0.8499
  187MOL0     H25214   2.038   1.917   1.049  0.2639  0.8709 -1.2171
  187MOL0     H25215   1.797   1.847   1.065 -0.2246 -0.6903  0.3565
  187MOL0     H25216   1.856   1.903   0.918 -2.2085  0.2271  0.5219
  187MOL0     H25217   1.778   2.133   0.981 -1.7173  0.8083 -0.8801
  187MOL0     H25218   1.682   2.065   1.123 -1.3203  1.2884 -0.8562
  187MOL0     H25219   1.631   1.941   0.857  1.0800  1.7080 -1.4449
  187MOL0     H25220   1.544   1.944   1.008 -2.6363  0.6497 -1.7754
  187MOL0     H25221   1.575   2.162   0.799  2.9249 -2.6394  0.2714
  187MOL0     H25222   1.499   2.186   0.953  0.6378  0.6880 -0.4174
  187MOL0     H25223   1.373   1.939   0.847 -1.0360  0.0697 -0.9492
  187MOL0     H25224   1.294   2.087   0.872 -0.4986 -1.5082  1.3144
  187MOL0     H25225   2.078   2.178   1.462  1.1865  0.1130 -0.1604
  187MOL0     H25226   2.241   2.339   1.428 -0.6146  0.6870  1.4521
  187MOL0     H25227   2.620   2.559   1.243 -0.5349 -1.0333  0.1664
  187MOL0     H25228   2.754   2.771   1.215  1.6891  1.5828 -2.3048
  187MOL0     H25229   4.169   3.129   0.839  1.4180  1.7765  1.8197
  187MOL0     H25230   4.268   3.124   0.585 -0.7534  0.0090 -1.0858
  187MOL0     H25231   4.411   3.492   0.323 -1.4327 -3.3137  1.9203
  187MOL0     H25232   4.554   3.590   0.144  2.8165 -1.2245 -2.6569
  187MOL0     H25233   4.735   3.286  -0.128 -0.4554 -0.8000 -1.5472
  187MOL0     H25234   4.839   3.433  -0.129  0.3160 -1.1137 -2.0712
  187MOL0     H25235   4.717   3.526  -0.301  5.3333 -1.2352 -1.7716
  187MOL0     H25236   4.588   3.403  -0.292 -0.3824 -0.1683 -2.2844
  187MOL0     H25237   4.762   3.235  -0.361 -0.3982  1.1720  0.8751
  187MOL0     H25238   4.875   3.374  -0.392  0.4286  0.0726  0.3436
  187MOL0     H25239   4.747   3.277  -0.590 -1.2395 -0.1320  1.0100
  187MOL0     H25240   4.600   3.339  -0.519 -0.1941  1.2863  0.5173
  187MOL0     H25241   4.753   3.698  -0.656 -3.7583  1.3562  1.6639
  187MOL0     H25242   4.526   3.221  -0.074  0.5944  2.1609 -1.5749
  187MOL0     H25243   4.336   3.025   0.157  2.1705 -0.0032 -0.2342
  187MOL0     H25244   4.243   3.106   0.044  0.6363  1.5999 -0.3908
  187MOL0     H25245   4.410   3.047  -0.001  3.6167  2.7040 -0.0388
  188MOL0     O25246   1.895   3.175   0.024  0.1284  0.6815  0.1341
  188MOL0     C25247   1.800   3.116  -0.016  0.3761  0.2408  0.2872
  188MOL0     O25248   1.677   3.178  -0.035 -0.5019 -0.7225 -0.2437
  188MOL0     C25249   1.661   3.287   0.038 -1.0114 -0.3454  0.4890
  188MOL0     C25250   1.651   3.268   0.177  0.0639  0.4484 -0.0968
  188MOL0     C25251   1.620   3.381   0.260 -0.5782  0.8446 -0.5487
  188MOL0     C25252   1.608   3.505   0.200  0.5914 -0.3209  0.1246
  188MOL0     O25253   1.594   3.622   0.275  0.6943  1.2743 -0.9552
  188MOL0     C25254   1.676   3.729   0.229 -0.2750  0.5270 -0.0857
  188MOL0     C25255   1.700   3.826   0.347  0.1136 -0.0724 -0.7666
  188MOL0     C25256   1.766   3.960   0.307 -0.1254  0.1097 -1.0809
  188MOL0     C25257   1.859   4.038   0.413  0.3255  0.7959 -0.8144
  188MOL0     C25258   1.960   3.941   0.479  0.2338 -0.0478 -0.0184
  188MOL0     C25259   2.086   3.998   0.537  0.4682 -0.2562  0.7526
  188MOL0     C25260   2.042   4.076   0.665  0.0298 -0.5477 -0.7308
  188MOL0     C25261   2.156   4.175   0.709  0.3725 -0.4375  0.1536
  188MOL0     N25262   2.151   4.299   0.636  0.1683  0.0316  0.0081
  188MOL0     C25263   2.243   4.333   0.540  0.5181 -0.5182 -0.7437
  188MOL0     C25264   2.192   4.456   0.499  0.4924 -0.3507 -0.6604
  188MOL0     C25265   2.260   4.543   0.395  0.2880  0.2971  0.1810
  188MOL0     C25266   2.366   4.624   0.457 -0.0388 -0.5840  1.0165
  188MOL0     C25267   2.307   4.732   0.543 -0.1015 -0.8749 -0.7746
  188MOL0     C25268   2.274   4.855   0.464 -0.3699  0.3016  0.1077
  188MOL0     O25269   2.405   4.929   0.458  0.0954  1.1132 -0.2168
  188MOL0     C25270   2.411   5.058   0.400 -0.6564  0.1527 -0.2738
  188MOL0     C25271   2.530   5.131   0.410  0.4577  0.3464 -0.8325
  188MOL0     C25272   2.542   5.259   0.352 -0.4885  0.1041 -0.4706
  188MOL0     C25273   2.421   5.313   0.292 -0.6007  0.6171  0.3604
  188MOL0     C25274   2.424   5.454   0.250  0.7760  0.2664 -0.1757
  188MOL0     O25275   2.319   5.495   0.178 -0.3453  0.0952 -0.0594
  188MOL0     C25276   2.329   5.607   0.100 -1.2070 -0.3273  0.2914
  188MOL0     C25277   2.444   5.619   0.014 -0.2634  0.5667  0.3524
  188MOL0     C25278   2.454   5.732  -0.068 -0.2020  0.4106 -0.0730
  188MOL0     C25279   2.352   5.825  -0.069 -0.3982 -0.0857  0.1736
  188MOL0     O25280   2.362   5.940  -0.141  0.2316 -0.1682  1.3556
  188MOL0     C25281   2.256   6.030  -0.154  0.3752  0.3109  0.2942
  188MOL0     C25282   2.181   5.970  -0.274  0.3812  1.0300  0.5074
  188MOL0     C25283   2.059   6.055  -0.324 -0.2529  0.9261  0.2013
  188MOL0     C25284   1.947   6.047  -0.223  0.6406  0.4048  0.4023
  188MOL0     C25285   1.837   6.130  -0.284  0.5619 -0.3562  0.1208
  188MOL0     C25286   1.731   6.160  -0.178 -0.1159  0.4559 -0.4201
  188MOL0     C25287   1.647   6.037  -0.161 -0.5817 -0.3863 -1.0553
  188MOL0     C25288   1.517   6.073  -0.088 -0.1919  0.1313  0.3953
  188MOL0    Cl25289   1.405   5.920  -0.099 -0.3613 -0.0884  0.3931
  188MOL0     C25290   2.240   5.807   0.011  0.3503 -0.4008 -0.1269
  188MOL0     C25291   2.232   5.702   0.102  0.3928 -0.2628  0.3202
  188MOL0     O25292   2.520   5.523   0.291  0.4809  0.3847 -0.1843
  188MOL0     C25293   2.305   5.235   0.279 -0.4293 -1.3305 -0.3744
  188MOL0     C25294   2.306   5.109   0.334  0.1339  0.5388 -0.0437
  188MOL0     N25295   2.081   4.487   0.571  0.2324  1.1677  0.0882
  188MOL0     N25296   2.049   4.387   0.640 -0.5701  0.4245  0.4016
  188MOL0     C25297   1.607   3.516   0.061 -0.6287  0.0293  0.4063
  188MOL0     C25298   1.640   3.406  -0.023  0.0284 -0.3534 -0.7211
  188MOL0     C25299   1.816   2.973  -0.017 -0.8100 -0.0070  1.5888
  188MOL0     C25300   1.707   2.889  -0.013 -0.2955  0.2368 -0.7069
  188MOL0     C25301   1.722   2.748  -0.001  0.3231  0.7161 -0.5893
  188MOL0     C25302   1.852   2.692   0.009 -0.0329  0.1536 -0.0075
  188MOL0     O25303   1.882   2.565   0.048  0.2393  0.4176  0.0824
  188MOL0     C25304   1.786   2.496   0.123  0.1523  0.9404  0.1283
  188MOL0     C25305   1.858   2.414   0.231 -0.8281 -0.3939 -0.9808
  188MOL0     C25306   1.891   2.503   0.355  0.3321 -0.1738 -0.6301
  188MOL0     C25307   2.038   2.498   0.398  0.9264  0.4349  0.9489
  188MOL0     C25308   2.095   2.634   0.379  0.5396 -0.2212 -0.4173
  188MOL0     C25309   2.143   2.748   0.370 -0.2311  0.1772  0.0648
  188MOL0     C25310   1.954   2.774  -0.006  0.5276 -0.6277  0.0658
  188MOL0     C25311   1.937   2.902  -0.041 -0.0791  0.3367  0.2327
  188MOL0     C25312   2.057   2.966  -0.111  0.5549 -0.2051  0.7208
  188MOL0     H25313   1.638   3.165   0.210  1.4287  0.5121  0.6905
  188MOL0     H25314   1.611   3.370   0.368  0.7347  1.3411 -0.3727
  188MOL0     H25315   1.769   3.689   0.188 -1.1742 -1.8685  0.0577
  188MOL0     H25316   1.617   3.790   0.160 -1.6166  0.1182  0.6615
  188MOL0     H25317   1.770   3.777   0.415  0.3789  1.5515  0.1763
  188MOL0     H25318   1.602   3.858   0.386  0.9089 -0.2527  1.5551
  188MOL0     H25319   1.683   4.021   0.269 -3.4246 -4.3819 -1.8334
  188MOL0     H25320   1.833   3.944   0.222  1.2105 -0.4858  0.0340
  188MOL0     H25321   1.930   4.103   0.362  1.3559  1.2377  1.0690
  188MOL0     H25322   1.797   4.087   0.489 -1.3547  0.5543 -1.9976
  188MOL0     H25323   1.911   3.870   0.547  0.6152 -0.4987 -0.2119
  188MOL0     H25324   1.996   3.882   0.395 -0.8271 -0.4564 -0.1993
  188MOL0     H25325   2.146   3.914   0.573  0.4795 -0.1820  0.9098
  188MOL0     H25326   2.133   4.062   0.463 -0.3288 -1.1894 -0.5991
  188MOL0     H25327   2.038   3.998   0.742 -1.3752 -0.5068 -0.7509
  188MOL0     H25328   1.944   4.123   0.671 -0.1352 -0.7569 -1.6040
  188MOL0     H25329   2.149   4.190   0.817 -2.7764  3.5179 -0.3693
  188MOL0     H25330   2.247   4.117   0.691  0.4691 -0.5729  1.0770
  188MOL0     H25331   2.325   4.273   0.501  1.1460  0.1008 -0.3847
  188MOL0     H25332   2.291   4.482   0.310  0.3369 -0.6142  0.8322
  188MOL0     H25333   2.174   4.607   0.373 -1.6098 -2.1111  0.0879
  188MOL0     H25334   2.430   4.556   0.514 -2.1686 -1.1936  2.8372
  188MOL0     H25335   2.432   4.681   0.391 -1.9713  1.0570  0.3868
  188MOL0     H25336   2.377   4.747   0.625  0.1629 -0.4905 -1.0664
  188MOL0     H25337   2.212   4.707   0.591  0.3050 -2.9084 -0.9322
  188MOL0     H25338   2.208   4.921   0.520  0.9720  2.4882 -0.7463
  188MOL0     H25339   2.221   4.838   0.371 -1.5190 -1.5774  1.0409
  188MOL0     H25340   2.615   5.066   0.428 -0.2290 -2.3299 -5.5428
  188MOL0     H25341   2.638   5.310   0.347 -0.3981  0.0653  0.5806
  188MOL0     H25342   2.504   5.533  -0.013  0.9065  1.6851 -0.7384
  188MOL0     H25343   2.548   5.740  -0.123  0.2941 -0.5891  0.5989
  188MOL0     H25344   2.197   6.059  -0.066  0.9266 -1.2460  1.2199
  188MOL0     H25345   2.292   6.125  -0.195  1.0462 -0.3759 -0.7494
  188MOL0     H25346   2.254   5.958  -0.354  0.0758 -3.7202  0.6707
  188MOL0     H25347   2.142   5.873  -0.241  0.3848  0.9992  0.4199
  188MOL0     H25348   2.085   6.160  -0.341 -0.3713  0.8091 -0.7688
  188MOL0     H25349   2.043   6.000  -0.417  3.5119  0.5475 -0.4040
  188MOL0     H25350   1.983   6.087  -0.128  1.0523 -1.1776  0.9539
  188MOL0     H25351   1.917   5.943  -0.202  3.8408 -1.5152 -3.1618
  188MOL0     H25352   1.795   6.086  -0.374 -1.3153 -1.2735  1.3787
  188MOL0     H25353   1.867   6.235  -0.295 -2.7728  0.7131  0.0058
  188MOL0     H25354   1.772   6.199  -0.084  1.1789  0.6686 -1.0416
  188MOL0     H25355   1.673   6.241  -0.222 -0.9138  0.5167  0.7084
  188MOL0     H25356   1.703   5.957  -0.112 -2.6311 -1.3733 -0.1839
  188MOL0     H25357   1.627   5.986  -0.255 -0.1818 -1.7602 -0.4120
  188MOL0     H25358   1.550   6.085   0.016  0.7631 -3.5581  0.6658
  188MOL0     H25359   1.474   6.164  -0.129 -0.7824  0.4382  1.6492
  188MOL0     H25360   2.158   5.877   0.020  0.5459 -0.2941  0.9253
  188MOL0     H25361   2.152   5.696   0.175  0.7110  0.5280  0.7468
  188MOL0     H25362   2.224   5.290   0.234  1.0028  1.5179  0.2580
  188MOL0     H25363   2.217   5.048   0.323  1.4405 -1.3657 -0.4115
  188MOL0     H25364   1.583   3.614   0.019 -0.0517 -0.2207 -0.5391
  188MOL0     H25365   1.647   3.419  -0.131 -2.2517  1.6986 -0.6865
  188MOL0     H25366   1.611   2.939  -0.007 -0.7296 -0.4782 -1.5544
  188MOL0     H25367   1.633   2.688  -0.016 -0.6944  1.9492  0.3019
  188MOL0     H25368   1.729   2.423   0.064 -0.8165  2.5434 -0.9846
  188MOL0     H25369   1.719   2.564   0.175 -1.3081  0.6828 -1.3319
  188MOL0     H25370   1.940   2.363   0.179  0.1435  2.9600 -3.0365
  188MOL0     H25371   1.788   2.335   0.259 -0.6268 -1.2030 -2.6036
  188MOL0     H25372   1.830   2.467   0.438  4.7706 -3.5979  1.5523
  188MOL0     H25373   1.858   2.606   0.341  2.0161  0.5187  0.2717
  188MOL0     H25374   2.035   2.462   0.501  1.3894 -1.1214  0.4602
  188MOL0     H25375   2.104   2.427   0.347 -1.3682 -1.8898  0.9793
  188MOL0     H25376   2.193   2.842   0.378  0.7584 -0.3394  0.0875
  188MOL0     H25377   2.046   2.719  -0.021  0.6898 -0.3448  0.0345
  188MOL0     H25378   2.129   3.001  -0.036 -0.3094  2.3256  0.4471
  188MOL0     H25379   2.107   2.895  -0.178 -0.1542 -0.5409  0.5426
  188MOL0     H25380   2.025   3.048  -0.175  2.7331  0.5752  0.5279
  189MOL0     O25381   3.640   3.714   5.001  0.3241  0.1387 -1.3960
  189MOL0     C25382   3.718   3.666   5.072 -0.3818 -0.9420 -0.8844
  189MOL0     O25383   3.705   3.662   5.216  0.6727 -0.0929 -0.0517
  189MOL0     C25384   3.597   3.724   5.271 -0.9643  0.2771 -0.5729
  189MOL0     C25385   3.476   3.664   5.261  1.1449  0.1487 -0.8632
  189MOL0     C25386   3.356   3.729   5.298 -0.4775  1.1372  1.0639
  189MOL0     C25387   3.362   3.862   5.337 -0.2161  0.2967  0.6602
  189MOL0     O25388   3.238   3.923   5.357  0.4213  0.1257 -0.1577
  189MOL0     C25389   3.223   4.062   5.378 -0.3650  0.5119  0.4383
  189MOL0     C25390   3.082   4.098   5.359  1.1022  0.2831  0.4091
  189MOL0     C25391   3.019   4.106   5.504  1.0612 -0.1543  0.5057
  189MOL0     C25392   3.029   4.242   5.558 -0.2503 -0.2096  1.0125
  189MOL0     C25393   3.006   4.229   5.704 -0.4252  0.3651 -0.4624
  189MOL0     C25394   3.011   4.371   5.760  0.6497  0.3610  0.2108
  189MOL0     C25395   2.998   4.370   5.913 -0.8173 -0.5144  0.1777
  189MOL0     C25396   2.853   4.327   5.965 -0.7443  0.2294  0.6735
  189MOL0     N25397   2.853   4.290   6.105  0.1970  0.2095  0.0480
  189MOL0     C25398   2.937   4.196   6.162 -0.1936 -0.1973  0.6767
  189MOL0     C25399   2.929   4.227   6.297  0.4688 -0.5140  0.3747
  189MOL0     C25400   3.004   4.168   6.405 -0.5438  0.5405  0.5283
  189MOL0     C25401   3.115   4.255   6.468  0.5548 -0.6208  0.0153
  189MOL0     C25402   3.060   4.354   6.581  0.0049 -0.1239 -0.2417
  189MOL0     C25403   3.062   4.500   6.528 -0.9436  0.0809  1.0947
  189MOL0     O25404   2.996   4.591   6.612  0.1473 -0.2980 -0.3010
  189MOL0     C25405   3.002   4.722   6.574  0.3962 -0.3071 -0.2455
  189MOL0     C25406   3.051   4.786   6.462  0.0412  0.9560 -0.7932
  189MOL0     C25407   3.026   4.917   6.431 -0.2291 -0.1964  0.9209
  189MOL0     C25408   2.947   4.998   6.521 -0.2536  0.3404 -0.2690
  189MOL0     C25409   2.927   5.137   6.502  0.2648  0.2418 -0.1286
  189MOL0     O25410   2.940   5.175   6.368  0.1696 -0.0089 -0.1524
  189MOL0     C25411   2.893   5.295   6.317 -0.3411 -0.3757 -0.5944
  189MOL0     C25412   2.851   5.301   6.187  0.5580 -1.1021 -2.1759
  189MOL0     C25413   2.805   5.423   6.135  0.4020  0.0649 -0.0937
  189MOL0     C25414   2.820   5.547   6.205 -0.5822 -0.9053 -0.8483
  189MOL0     O25415   2.794   5.667   6.142  0.7839  0.7096  0.7040
  189MOL0     C25416   2.880   5.771   6.183  0.1814  0.0017  0.3928
  189MOL0     C25417   3.024   5.766   6.131  0.2918  0.3125  0.8244
  189MOL0     C25418   3.106   5.887   6.168  0.9005  0.4557 -0.1128
  189MOL0     C25419   3.258   5.891   6.131  0.2482  0.5500  0.1073
  189MOL0     C25420   3.321   6.017   6.189 -0.0441 -0.3137  0.1246
  189MOL0     C25421   3.476   6.010   6.182 -0.0154 -0.0912  0.0029
  189MOL0     C25422   3.560   6.131   6.210 -0.5086 -2.2395  0.8966
  189MOL0     C25423   3.555   6.229   6.083  0.1363 -0.3867 -0.0528
  189MOL0    Cl25424   3.610   6.139   5.929  0.5525  0.4464  0.2369
  189MOL0     C25425   2.868   5.535   6.340  0.2940 -0.2945 -0.7032
  189MOL0     C25426   2.910   5.416   6.389 -0.4904  0.0901 -0.5349
  189MOL0     O25427   2.856   5.198   6.584 -0.7831 -0.0395  0.6419
  189MOL0     C25428   2.917   4.937   6.644 -0.7626  0.0132  0.4041
  189MOL0     C25429   2.938   4.798   6.670 -0.6786  0.2937 -0.2760
  189MOL0     N25430   2.833   4.330   6.316  0.1772  0.0681 -0.2619
  189MOL0     N25431   2.802   4.367   6.205  0.2031 -0.1130  0.6908
  189MOL0     C25432   3.483   3.924   5.348 -0.7814  0.4340 -0.5776
  189MOL0     C25433   3.605   3.853   5.329 -0.2665  0.3496 -0.7484
  189MOL0     C25434   3.853   3.632   5.027  0.0713 -0.1467  0.2598
  189MOL0     C25435   3.868   3.564   4.904 -0.0100 -0.5505 -0.7425
  189MOL0     C25436   3.983   3.522   4.842 -0.4041  0.5785 -0.7571
  189MOL0     C25437   4.095   3.559   4.906  0.4213  1.1581 -0.8339
  189MOL0     O25438   4.207   3.515   4.840 -0.0362 -0.3391 -0.3931
  189MOL0     C25439   4.342   3.523   4.897 -0.5179 -0.3971 -0.4608
  189MOL0     C25440   4.462   3.459   4.813  0.7978  0.3267  0.3235
  189MOL0     C25441   4.408   3.321   4.764 -0.1083  0.8691  0.0624
  189MOL0     C25442   4.500   3.200   4.790  1.2301 -0.1559 -0.6583
  189MOL0     C25443   4.626   3.214   4.719 -0.0727  0.6158 -1.4284
  189MOL0     C25444   4.733   3.229   4.664  0.6357 -0.1405 -0.3310
  189MOL0     C25445   4.093   3.618   5.033  0.3842  0.1619  0.2552
  189MOL0     C25446   3.973   3.669   5.092 -0.2863  1.3895  0.9890
  189MOL0     C25447   3.991   3.760   5.214  1.3505  0.1582 -0.6066
  189MOL0     H25448   3.473   3.559   5.235 -2.5074 -0.0374 -0.2299
  189MOL0     H25449   3.266   3.668   5.284  0.6168 -0.1207 -1.1685
  189MOL0     H25450   3.259   4.097   5.475 -2.5625 -2.0288  2.3376
  189MOL0     H25451   3.280   4.104   5.294  1.3072 -2.4478 -0.0878
  189MOL0     H25452   3.028   4.031   5.293 -0.2643 -0.8292  2.5583
  189MOL0     H25453   3.077   4.200   5.319 -1.2852 -0.8367 -2.4308
  189MOL0     H25454   3.069   4.031   5.566 -1.0051 -1.2775  0.9093
  189MOL0     H25455   2.914   4.076   5.502  0.5116  1.6733 -0.6972
  189MOL0     H25456   3.131   4.277   5.541 -0.8858  2.5545  2.2748
  189MOL0     H25457   2.946   4.293   5.508  1.3517  0.7901 -0.7537
  189MOL0     H25458   2.905   4.188   5.717 -0.0789 -0.1558  0.6546
  189MOL0     H25459   3.070   4.157   5.755  0.1570  0.2432 -1.3434
  189MOL0     H25460   3.107   4.418   5.735  0.8833  1.1022  2.2873
  189MOL0     H25461   2.928   4.428   5.718  3.2402  3.6723 -0.8762
  189MOL0     H25462   3.025   4.458   5.970 -0.4410 -1.2488  1.1601
  189MOL0     H25463   3.073   4.298   5.949  0.4196 -0.7678 -2.5837
  189MOL0     H25464   2.788   4.413   5.943  0.5496  1.2247  0.5774
  189MOL0     H25465   2.811   4.242   5.910  0.5668 -2.1957  3.2036
  189MOL0     H25466   3.010   4.128   6.119  1.5826  1.2375  1.2521
  189MOL0     H25467   2.919   4.159   6.474 -3.8215  0.4700 -3.1795
  189MOL0     H25468   3.048   4.069   6.387 -0.9502  0.8019 -2.3847
  189MOL0     H25469   3.182   4.190   6.524 -1.2089 -1.6785  0.9807
  189MOL0     H25470   3.163   4.310   6.387 -0.9780 -2.5690 -2.3451
  189MOL0     H25471   3.118   4.346   6.673 -2.1318  0.0255  1.1720
  189MOL0     H25472   2.955   4.331   6.602 -0.0084 -0.4799 -0.6663
  189MOL0     H25473   3.011   4.496   6.431 -0.7703 -3.1819  1.0178
  189MOL0     H25474   3.160   4.545   6.508 -2.0544  2.2884  0.2679
  189MOL0     H25475   3.112   4.737   6.387  0.7742 -1.0834  1.0277
  189MOL0     H25476   3.060   4.954   6.335 -2.9458  1.4409  0.4697
  189MOL0     H25477   2.847   5.209   6.130 -0.2405 -1.3482 -1.7425
  189MOL0     H25478   2.766   5.417   6.034  0.1050 -1.2382  0.0833
  189MOL0     H25479   2.823   5.857   6.146  1.2381 -1.1948 -4.7584
  189MOL0     H25480   2.890   5.781   6.292 -1.5456 -0.3801  0.6069
  189MOL0     H25481   3.061   5.671   6.170 -2.1156  0.2413  3.1731
  189MOL0     H25482   3.033   5.751   6.023 -2.8859  1.4913  0.2818
  189MOL0     H25483   3.050   5.976   6.138 -0.7075 -1.0839 -1.9282
  189MOL0     H25484   3.096   5.886   6.277  1.1361 -4.7437  0.1038
  189MOL0     H25485   3.277   5.893   6.023 -2.7337  1.9164 -0.5014
  189MOL0     H25486   3.297   5.802   6.182 -3.0571 -1.0743  0.0878
  189MOL0     H25487   3.295   6.036   6.293  1.9628  0.9150  0.4628
  189MOL0     H25488   3.286   6.098   6.123  0.9604 -0.4831 -0.6405
  189MOL0     H25489   3.509   5.938   6.258  2.4770 -0.4015 -1.2829
  189MOL0     H25490   3.509   5.969   6.086  3.2734 -2.4097  1.8888
  189MOL0     H25491   3.667   6.109   6.215  0.9633  2.3934 -2.4518
  189MOL0     H25492   3.545   6.187   6.302  2.5981 -0.5228  0.5126
  189MOL0     H25493   3.460   6.277   6.060  1.8427  3.6046  0.4347
  189MOL0     H25494   3.617   6.315   6.109  1.3305 -1.0976 -0.4797
  189MOL0     H25495   2.870   5.618   6.410 -1.0122 -2.5680  2.2828
  189MOL0     H25496   2.964   5.419   6.483 -1.2868  0.2645 -0.0786
  189MOL0     H25497   2.891   5.013   6.717  0.7526  2.5224 -1.4811
  189MOL0     H25498   2.889   4.760   6.759 -0.6583  1.8676  0.4424
  189MOL0     H25499   3.501   4.027   5.377 -0.9365  0.0705  0.8988
  189MOL0     H25500   3.700   3.902   5.349  0.4925 -1.9320  1.8838
  189MOL0     H25501   3.785   3.575   4.835  0.0162 -0.6631 -0.7931
  189MOL0     H25502   3.987   3.466   4.750  2.3756  2.9344 -2.2289
  189MOL0     H25503   4.355   3.486   4.999  0.0695  2.2102  0.4976
  189MOL0     H25504   4.356   3.630   4.912  0.4191 -0.5822  0.0448
  189MOL0     H25505   4.553   3.438   4.870  0.2238  0.2511  1.2330
  189MOL0     H25506   4.484   3.518   4.724  0.3554 -1.8831 -1.3513
  189MOL0     H25507   4.403   3.314   4.655  0.4964 -2.9307  0.1292
  189MOL0     H25508   4.312   3.301   4.813 -0.3453  1.6498 -0.0770
  189MOL0     H25509   4.510   3.163   4.893 -0.9019 -1.3992 -0.8284
  189MOL0     H25510   4.463   3.113   4.736  1.6747  1.2563 -3.4152
  189MOL0     H25511   4.829   3.247   4.620  2.7631  2.2565  4.5495
  189MOL0     H25512   4.194   3.645   5.064  0.7905 -0.9868 -0.0401
  189MOL0     H25513   3.928   3.848   5.202  3.7642  2.1522  0.3988
  189MOL0     H25514   3.951   3.705   5.300 -1.5408  1.5264 -0.9705
  189MOL0     H25515   4.097   3.783   5.228  1.3472  0.3381 -0.8791
  190MOL0     O25516   5.818  10.486  10.053  0.3144 -0.5759  0.4376
  190MOL0     C25517   5.735  10.424   9.996  0.3258  0.0068  0.3629
  190MOL0     O25518   5.746  10.302   9.946 -0.1156 -0.7924 -0.5285
  190MOL0     C25519   5.875  10.235   9.953  0.6494  0.1980 -0.0935
  190MOL0     C25520   5.991  10.266  10.036  0.3854  0.2801 -0.4824
  190MOL0     C25521   6.120  10.221  10.008 -0.0043  0.9781 -1.6129
  190MOL0     C25522   6.145  10.133   9.909 -1.1290  0.4029 -0.1587
  190MOL0     O25523   6.272  10.101   9.869 -1.0326  0.1248  0.7136
  190MOL0     C25524   6.299   9.979   9.797 -0.0232  0.1950  0.4484
  190MOL0     C25525   6.441   9.991   9.737  0.0162  0.4633  1.2670
  190MOL0     C25526   6.460  10.082   9.619  0.0851  0.2076 -0.1737
  190MOL0     C25527   6.587  10.066   9.533  0.3022 -0.1909  0.5669
  190MOL0     C25528   6.672  10.199   9.523  0.6749 -0.6126  0.5481
  190MOL0     C25529   6.595  10.319   9.469 -0.7745  0.1363  0.5006
  190MOL0     C25530   6.688  10.440   9.469  0.1561 -0.1822  0.5007
  190MOL0     C25531   6.611  10.576   9.420 -1.0897  0.3326 -0.0600
  190MOL0     N25532   6.685  10.687   9.484 -0.3628  0.6361  1.6033
  190MOL0     C25533   6.672  10.728   9.616 -0.2855 -0.2784 -0.5997
  190MOL0     C25534   6.752  10.837   9.631 -0.4449 -0.5713 -0.6344
  190MOL0     C25535   6.767  10.915   9.759  0.4124 -0.4983 -0.5621
  190MOL0     C25536   6.898  10.868   9.836  0.3555  0.1948 -0.1012
  190MOL0     C25537   7.035  10.885   9.765 -0.0650 -0.0740  0.0588
  190MOL0     C25538   7.081  11.021   9.730 -0.3706 -0.0724 -0.2970
  190MOL0     O25539   7.183  11.074   9.824  0.2211  0.1783 -0.2640
  190MOL0     C25540   7.233  11.198   9.810  0.5811 -0.3799  0.5237
  190MOL0     C25541   7.320  11.239   9.908  0.2260 -0.1535 -0.3135
  190MOL0     C25542   7.373  11.371   9.896 -0.0347  0.5022 -0.1410
  190MOL0     C25543   7.352  11.456   9.783  0.7171  0.9808  0.5202
  190MOL0     C25544   7.394  11.596   9.786 -0.2982 -0.7565  0.1028
  190MOL0     O25545   7.337  11.664   9.684 -0.5837  0.4436 -0.3119
  190MOL0     C25546   7.409  11.773   9.653 -0.4141 -0.1723 -0.0071
  190MOL0     C25547   7.491  11.787   9.538  0.1806  0.5419  0.4912
  190MOL0     C25548   7.576  11.900   9.507  0.3426 -0.2973  0.3023
  190MOL0     C25549   7.561  12.011   9.585  0.3200 -0.8839  0.5025
  190MOL0     O25550   7.640  12.119   9.552 -0.4039 -0.3801  0.4516
  190MOL0     C25551   7.618  12.245   9.615 -0.0352 -0.2206 -0.5739
  190MOL0     C25552   7.711  12.355   9.570  0.1154 -0.3604  0.2395
  190MOL0     C25553   7.630  12.484   9.563 -0.3136 -0.2721 -0.2821
  190MOL0     C25554   7.716  12.595   9.505 -0.0058  0.3110 -0.4331
  190MOL0     C25555   7.839  12.635   9.591  0.2666 -0.3590  0.2922
  190MOL0     C25556   7.889  12.773   9.541  1.1613  0.6763  0.0062
  190MOL0     C25557   8.021  12.817   9.591 -0.2342 -0.9431 -0.4151
  190MOL0     C25558   8.063  12.949   9.519  0.6406 -0.1728 -0.5174
  190MOL0    Cl25559   7.945  13.090   9.535  0.0897 -0.4759  0.1598
  190MOL0     C25560   7.480  12.002   9.701  0.0437  0.7989  0.3370
  190MOL0     C25561   7.410  11.887   9.732  0.0073 -0.4582 -0.5704
  190MOL0     O25562   7.478  11.636   9.869 -0.5199  0.2211  0.0864
  190MOL0     C25563   7.270  11.400   9.684  0.9416  0.2114  0.5538
  190MOL0     C25564   7.212  11.280   9.698 -0.0918  0.5241 -0.6263
  190MOL0     N25565   6.829  10.851   9.514 -0.2208 -0.2628 -0.6649
  190MOL0     N25566   6.784  10.765   9.441 -0.8685 -0.3825  0.2412
  190MOL0     C25567   6.030  10.086   9.844  0.5289 -0.7721  0.3969
  190MOL0     C25568   5.899  10.133   9.865 -0.8163 -0.1106 -1.0596
  190MOL0     C25569   5.594  10.465   9.990 -0.5938  0.0978 -0.3901
  190MOL0     C25570   5.525  10.452   9.870 -0.3415 -0.5959 -0.9344
  190MOL0     C25571   5.393  10.487   9.850 -0.2979  0.1147  0.8434
  190MOL0     C25572   5.329  10.534   9.960 -0.1104  0.0042  0.8793
  190MOL0     O25573   5.196  10.565   9.938 -0.4626 -0.2916  0.2772
  190MOL0     C25574   5.100  10.490  10.015 -0.4763  0.1936 -0.2227
  190MOL0     C25575   4.985  10.456   9.927 -0.7785 -0.0850 -0.8389
  190MOL0     C25576   5.015  10.310   9.893  0.1596  0.2159 -0.2045
  190MOL0     C25577   4.925  10.267   9.784  0.5880 -0.5550 -0.1901
  190MOL0     C25578   4.930  10.344   9.654  0.1181  0.7169  0.5789
  190MOL0     C25579   4.962  10.433   9.571 -0.8555  0.2967 -0.4234
  190MOL0     C25580   5.388  10.548  10.090  0.9201  0.0434  0.6528
  190MOL0     C25581   5.525  10.521  10.100  0.4311  0.3503  0.2360
  190MOL0     C25582   5.578  10.519  10.246  0.6051  1.0383  0.1226
  190MOL0     H25583   5.973  10.327  10.124 -2.4138 -0.9099 -0.1026
  190MOL0     H25584   6.207  10.249  10.067 -3.8472  1.6680  4.5826
  190MOL0     H25585   6.278   9.890   9.857 -1.7631  0.5603  0.4527
  190MOL0     H25586   6.230   9.974   9.712 -0.8913 -2.4150  1.2187
  190MOL0     H25587   6.469   9.891   9.705  1.4438  1.6615 -1.5234
  190MOL0     H25588   6.521  10.024   9.805  0.0609 -0.5585  1.7253
  190MOL0     H25589   6.465  10.185   9.656  3.1478 -0.5649  2.0341
  190MOL0     H25590   6.379  10.075   9.546  1.5234  2.0507 -2.0502
  190MOL0     H25591   6.649   9.984   9.571 -0.5181 -0.4616  1.3686
  190MOL0     H25592   6.555  10.050   9.430 -1.6254  2.6130  0.6222
  190MOL0     H25593   6.726  10.220   9.615  0.8579 -0.5115  0.4193
  190MOL0     H25594   6.755  10.180   9.454 -1.6134 -2.7787 -1.8660
  190MOL0     H25595   6.572  10.300   9.364  3.1768  0.0193 -0.4818
  190MOL0     H25596   6.507  10.350   9.527  1.9455  4.9747  2.7078
  190MOL0     H25597   6.786  10.432   9.421  0.9956  1.4475  1.8302
  190MOL0     H25598   6.703  10.446   9.577 -0.8363  0.9068  0.6062
  190MOL0     H25599   6.616  10.581   9.310  2.3108 -0.3032 -0.0378
  190MOL0     H25600   6.509  10.578   9.459 -1.2904 -1.2193 -0.4377
  190MOL0     H25601   6.602  10.692   9.691  3.1029 -1.2832  2.4108
  190MOL0     H25602   6.757  11.023   9.747  0.8663 -0.4421 -0.4451
  190MOL0     H25603   6.687  10.888   9.828  1.0637  0.7196  0.7175
  190MOL0     H25604   6.896  10.919   9.933 -1.1395 -0.5361  0.2846
  190MOL0     H25605   6.901  10.761   9.859  0.6382  0.7445  2.8229
  190MOL0     H25606   7.037  10.823   9.675 -4.6513  1.2466 -1.2054
  190MOL0     H25607   7.118  10.845   9.823  0.8442 -1.1155 -1.8439
  190MOL0     H25608   6.989  11.079   9.723 -1.6872 -1.9474  0.8940
  190MOL0     H25609   7.126  11.018   9.630  1.2657 -0.3288  0.4105
  190MOL0     H25610   7.361  11.172   9.983  3.5513  0.2648 -1.5873
  190MOL0     H25611   7.447  11.392   9.974  0.8424 -1.5801 -0.3356
  190MOL0     H25612   7.495  11.703   9.470  2.6942  0.6764  0.3694
  190MOL0     H25613   7.642  11.898   9.421  1.2599  0.2908  0.9580
  190MOL0     H25614   7.517  12.279   9.588 -0.2867 -1.1787 -0.8996
  190MOL0     H25615   7.624  12.234   9.723  0.4668 -5.1337 -0.8827
  190MOL0     H25616   7.797  12.362   9.638 -0.2201 -1.2687  0.7806
  190MOL0     H25617   7.749  12.341   9.469  1.2896  1.7748  0.3139
  190MOL0     H25618   7.545  12.457   9.499 -0.9022  0.1402  0.3134
  190MOL0     H25619   7.603  12.502   9.667  2.2449  0.6088  0.3034
  190MOL0     H25620   7.654  12.685   9.506  2.5903  2.2068  1.5849
  190MOL0     H25621   7.745  12.584   9.400  2.5034 -0.9233  0.3145
  190MOL0     H25622   7.921  12.564   9.578  0.7933  0.5333 -1.8528
  190MOL0     H25623   7.810  12.643   9.696 -1.3165  3.5513 -0.2465
  190MOL0     H25624   7.904  12.778   9.433 -0.7291  1.2138 -0.2790
  190MOL0     H25625   7.808  12.846   9.551 -0.0321 -0.8345  2.0571
  190MOL0     H25626   8.093  12.737   9.572 -0.6073 -0.7252 -3.0123
  190MOL0     H25627   8.013  12.850   9.695  2.8454 -2.4679  0.4184
  190MOL0     H25628   8.156  12.971   9.572 -0.7926  1.3809  1.5008
  190MOL0     H25629   8.083  12.925   9.414  2.0636 -2.1672  0.1339
  190MOL0     H25630   7.478  12.086   9.769 -2.0781  0.0277  1.3026
  190MOL0     H25631   7.358  11.889   9.827  1.1691  1.8473  0.1139
  190MOL0     H25632   7.241  11.460   9.599  0.2918  1.3655  1.5547
  190MOL0     H25633   7.148  11.251   9.615  0.8003  0.1617 -1.2053
  190MOL0     H25634   6.028  10.027   9.753 -2.2152  1.4532 -1.1434
  190MOL0     H25635   5.816  10.095   9.807 -1.0898 -1.8067  0.3221
  190MOL0     H25636   5.583  10.409   9.789 -1.5682  1.5596 -3.0817
  190MOL0     H25637   5.341  10.466   9.757  1.1210 -1.0625  0.2810
  190MOL0     H25638   5.067  10.565  10.088  0.0901  1.2987 -1.0747
  190MOL0     H25639   5.152  10.410  10.068  1.5101 -0.6918 -3.2666
  190MOL0     H25640   4.981  10.525   9.842 -0.3055 -1.0178 -1.6254
  190MOL0     H25641   4.891  10.458   9.984 -1.1024 -0.1205 -1.3571
  190MOL0     H25642   5.002  10.248   9.983  2.8640 -2.9285 -1.7834
  190MOL0     H25643   5.119  10.312   9.860  0.6979  0.8724  1.4304
  190MOL0     H25644   4.943  10.162   9.759  2.3565 -0.7736  1.6754
  190MOL0     H25645   4.822  10.284   9.818  1.5302  1.0019  2.1557
  190MOL0     H25646   4.988  10.526   9.524  1.8912 -0.4937 -0.6646
  190MOL0     H25647   5.340  10.604  10.169 -1.1227  1.3138 -1.3723
  190MOL0     H25648   5.671  10.574  10.262  2.8958 -2.7426  1.1192
  190MOL0     H25649   5.495  10.551  10.308 -3.2489 -0.6287 -3.6349
  190MOL0     H25650   5.613  10.416  10.261  3.2744  1.5246 -1.9207
  191MOL0     O25651   1.089  10.016   2.068  0.7735  0.4660  0.3085
  191MOL0     C25652   1.066  10.131   2.029  0.4166 -0.8263  0.0617
  191MOL0     O25653   1.019  10.231   2.101 -0.4382  0.3359  0.3192
  191MOL0     C25654   0.997  10.223   2.242  0.7859  0.2006 -0.4184
  191MOL0     C25655   1.065  10.152   2.334 -0.7181 -0.0184 -0.2306
  191MOL0     C25656   1.030  10.157   2.469 -0.0551 -0.1633 -0.2972
  191MOL0     C25657   0.933  10.234   2.529 -0.3465  0.4610  0.2909
  191MOL0     O25658   0.881  10.233   2.656 -0.1060 -0.3161 -0.3439
  191MOL0     C25659   0.963  10.210   2.762 -0.6367  0.0119  0.0453
  191MOL0     C25660   0.881  10.243   2.887  0.4056 -0.4182  1.0691
  191MOL0     C25661   0.910  10.146   2.994 -0.0567 -0.0773 -0.0009
  191MOL0     C25662   0.827  10.198   3.115 -0.4365 -0.4136 -0.8167
  191MOL0     C25663   0.902  10.155   3.244 -0.2690  0.5974 -0.3556
  191MOL0     C25664   0.835  10.225   3.357 -0.1610  0.4006 -0.3590
  191MOL0     C25665   0.887  10.181   3.496 -0.0151  0.2439 -0.3880
  191MOL0     C25666   1.035  10.208   3.535  0.8899 -0.3573  0.2267
  191MOL0     N25667   1.083  10.181   3.679  0.5051  0.4426  0.4257
  191MOL0     C25668   1.105  10.057   3.726  0.5291  0.1405 -0.3440
  191MOL0     C25669   1.150  10.077   3.849 -0.0427  0.9340  0.2183
  191MOL0     C25670   1.211   9.953   3.923 -0.4249 -1.3317 -0.4617
  191MOL0     C25671   1.334   9.911   3.850 -0.8006  0.1844  0.2934
  191MOL0     C25672   1.384   9.772   3.905  1.1217 -0.3840 -0.2542
  191MOL0     C25673   1.483   9.753   4.013 -0.7239  0.0979  0.2643
  191MOL0     O25674   1.594   9.838   3.986 -0.2509  0.1678  0.6393
  191MOL0     C25675   1.714   9.814   4.047  0.0687 -0.7191 -0.5237
  191MOL0     C25676   1.838   9.881   4.006  0.0762 -0.0958 -0.1718
  191MOL0     C25677   1.963   9.850   4.061  0.0696  0.1491 -0.3552
  191MOL0     C25678   1.966   9.758   4.169  0.3336  0.3639  0.0683
  191MOL0     C25679   2.085   9.728   4.247 -0.5184  0.1282 -0.7270
  191MOL0     O25680   2.174   9.834   4.281  0.2369  0.1956 -0.6530
  191MOL0     C25681   2.287   9.803   4.355  1.0061 -0.7407  0.2073
  191MOL0     C25682   2.392   9.725   4.299  0.2113  0.1400  0.1977
  191MOL0     C25683   2.502   9.691   4.378  0.1623 -0.0810 -0.5014
  191MOL0     C25684   2.514   9.765   4.496 -0.6426 -0.2473  0.2947
  191MOL0     O25685   2.630   9.782   4.569 -0.5260  0.3492 -0.0394
  191MOL0     C25686   2.702   9.655   4.605 -0.0556 -0.3674  0.2211
  191MOL0     C25687   2.763   9.663   4.743 -0.1000 -0.0180  0.5561
  191MOL0     C25688   2.899   9.747   4.739  0.1930  0.3799 -0.0979
  191MOL0     C25689   2.871   9.890   4.686  0.1296  0.8293 -0.8913
  191MOL0     C25690   2.993   9.986   4.707  1.0595 -0.1375 -0.7538
  191MOL0     C25691   3.034  10.026   4.847 -0.8031 -0.2125  0.4884
  191MOL0     C25692   3.172  10.096   4.866 -0.7469  0.3196  0.0227
  191MOL0     C25693   3.200  10.209   4.776 -0.5852 -0.4393  1.7260
  191MOL0    Cl25694   3.344  10.297   4.833 -0.1587 -0.1568  0.0359
  191MOL0     C25695   2.419   9.853   4.538 -0.2927 -0.5794  0.2916
  191MOL0     C25696   2.298   9.867   4.477  0.9395 -0.1535  0.3345
  191MOL0     O25697   2.108   9.608   4.265 -0.2606 -0.0696 -0.1311
  191MOL0     C25698   1.846   9.690   4.204 -0.2452  0.3296 -0.0628
  191MOL0     C25699   1.721   9.717   4.150 -0.8182 -0.8089 -0.0185
  191MOL0     N25700   1.152  10.211   3.881 -0.3040  0.4243  0.2496
  191MOL0     N25701   1.119  10.270   3.773 -0.6071  0.1046  0.0167
  191MOL0     C25702   0.869  10.317   2.436  0.5021 -0.3013  0.2802
  191MOL0     C25703   0.904  10.319   2.301  0.1999 -0.0848 -0.0197
  191MOL0     C25704   1.106  10.166   1.889 -0.2320  0.0007  1.1880
  191MOL0     C25705   1.084  10.297   1.843 -0.5089 -0.1189  0.3542
  191MOL0     C25706   1.127  10.344   1.721  0.0632  0.5409 -0.3087
  191MOL0     C25707   1.176  10.253   1.626  0.4008 -0.9089  0.2825
  191MOL0     O25708   1.224  10.304   1.504 -0.2117  0.3290 -0.1404
  191MOL0     C25709   1.145  10.398   1.428  0.6108 -0.5076  0.4709
  191MOL0     C25710   1.196  10.405   1.275 -0.5049 -0.1094 -0.5545
  191MOL0     C25711   1.092  10.483   1.196 -1.1810  0.0017 -0.1445
  191MOL0     C25712   1.158  10.513   1.055 -0.3643  0.0486 -0.4211
  191MOL0     C25713   1.270  10.603   1.048  0.2180  0.5761  0.3458
  191MOL0     C25714   1.372  10.673   1.047  0.0899 -0.0636 -0.3416
  191MOL0     C25715   1.210  10.127   1.670 -0.5448 -0.1017 -0.6298
  191MOL0     C25716   1.186  10.089   1.801 -0.9150  0.8925  0.5866
  191MOL0     C25717   1.252   9.965   1.850 -0.4013 -0.0993  0.6184
  191MOL0     H25718   1.144  10.089   2.294 -1.4282 -0.2494 -1.2982
  191MOL0     H25719   1.095  10.096   2.531 -0.7996  0.0119  0.6835
  191MOL0     H25720   0.999  10.107   2.757  1.5575  0.6660  1.1829
  191MOL0     H25721   1.056  10.268   2.757 -0.8827  0.7970  3.0016
  191MOL0     H25722   0.775  10.234   2.863 -0.3954 -0.6627  4.3271
  191MOL0     H25723   0.915  10.341   2.921  0.2474  1.0439 -2.5258
  191MOL0     H25724   1.018  10.153   3.008  0.6016  1.2036 -4.2863
  191MOL0     H25725   0.872  10.045   2.976 -0.6921 -0.5841  3.4682
  191MOL0     H25726   0.800  10.304   3.112 -2.6567 -0.7987  1.5702
  191MOL0     H25727   0.733  10.141   3.122 -0.9370 -0.0746 -3.5933
  191MOL0     H25728   0.891  10.047   3.258 -4.5171  0.5156 -2.6481
  191MOL0     H25729   1.009  10.177   3.237 -0.8372  4.6117  0.9839
  191MOL0     H25730   0.835  10.334   3.350  2.1126  0.3505 -3.9064
  191MOL0     H25731   0.731  10.199   3.377  0.3866  1.2949  5.5269
  191MOL0     H25732   0.869  10.074   3.511  1.1944 -0.0929 -1.1492
  191MOL0     H25733   0.815  10.244   3.550 -1.6997 -1.8012 -0.1095
  191MOL0     H25734   1.092  10.149   3.462 -0.0346 -0.8730 -0.0948
  191MOL0     H25735   1.059  10.312   3.510  0.5451 -0.2767  0.2184
  191MOL0     H25736   1.116   9.967   3.667  3.0073  0.5880 -0.6907
  191MOL0     H25737   1.248   9.984   4.021  1.0933 -2.0348 -0.7701
  191MOL0     H25738   1.134   9.878   3.943 -1.3381 -0.1800  0.4189
  191MOL0     H25739   1.309   9.882   3.747  0.4927  0.9479 -0.2659
  191MOL0     H25740   1.424   9.973   3.847  1.0482 -2.3384 -0.6144
  191MOL0     H25741   1.438   9.723   3.823  1.4914 -1.7145  0.7534
  191MOL0     H25742   1.290   9.719   3.920  0.0720  1.1287 -1.1350
  191MOL0     H25743   1.509   9.648   4.000  0.3640 -0.0410  2.9297
  191MOL0     H25744   1.444   9.771   4.114  0.2317 -0.6627  0.7868
  191MOL0     H25745   1.834   9.949   3.921  1.3305  0.1470 -0.0603
  191MOL0     H25746   2.054   9.901   4.032 -0.5136  0.6533 -1.3372
  191MOL0     H25747   2.370   9.672   4.207  0.0571  2.0328 -0.9121
  191MOL0     H25748   2.583   9.620   4.363  1.0155  1.1424 -2.0412
  191MOL0     H25749   2.636   9.568   4.604  1.1498 -1.3924  2.5885
  191MOL0     H25750   2.785   9.648   4.534 -1.5911 -2.7106 -1.5077
  191MOL0     H25751   2.689   9.702   4.814  1.6521 -2.1861  3.8137
  191MOL0     H25752   2.791   9.567   4.787  0.4307 -0.2184 -0.1934
  191MOL0     H25753   2.929   9.748   4.845  2.6684 -1.1182 -0.6914
  191MOL0     H25754   2.976   9.698   4.678 -0.1289  0.3148 -0.4530
  191MOL0     H25755   2.785   9.924   4.744 -1.6137 -0.1898 -2.7659
  191MOL0     H25756   2.828   9.891   4.586 -1.0715  0.3007 -0.3979
  191MOL0     H25757   2.979  10.086   4.664 -0.0262  1.3744  2.7328
  191MOL0     H25758   3.073   9.940   4.649  1.9976 -0.1501  0.4899
  191MOL0     H25759   2.954  10.092   4.883  0.7643  2.1768 -0.1422
  191MOL0     H25760   3.033   9.936   4.910 -2.9205  0.1004  0.9725
  191MOL0     H25761   3.245  10.017   4.846 -1.3652  0.3353 -2.6686
  191MOL0     H25762   3.179  10.133   4.969 -3.1152  2.6513 -0.5428
  191MOL0     H25763   3.217  10.162   4.678  0.4501  0.9649  1.2040
  191MOL0     H25764   3.120  10.283   4.765 -0.2735 -0.3026  0.1164
  191MOL0     H25765   2.438   9.923   4.619  0.5629  1.5174 -1.5868
  191MOL0     H25766   2.236   9.946   4.518  0.1929 -0.7928  0.4546
  191MOL0     H25767   1.845   9.623   4.289 -3.4141 -0.6731 -0.7799
  191MOL0     H25768   1.638   9.662   4.192  1.5739 -2.2167  3.4019
  191MOL0     H25769   0.775  10.367   2.458 -0.8334 -1.7752 -1.6912
  191MOL0     H25770   0.835  10.368   2.234 -0.1778 -0.0881  0.3668
  191MOL0     H25771   1.027  10.361   1.910 -1.4295 -2.7913  2.2670
  191MOL0     H25772   1.106  10.446   1.691  0.4349 -0.2081 -3.4265
  191MOL0     H25773   1.174  10.489   1.481  2.8436 -2.5511  3.0853
  191MOL0     H25774   1.040  10.373   1.445  0.6732  0.2407  2.1007
  191MOL0     H25775   1.206  10.301   1.242  0.7841  0.2079 -1.2566
  191MOL0     H25776   1.297  10.447   1.268 -0.7376  0.7945  1.1262
  191MOL0     H25777   1.071  10.577   1.248  0.0979  0.3938 -0.2990
  191MOL0     H25778   1.004  10.418   1.195 -0.1913 -1.3667  0.1778
  191MOL0     H25779   1.198  10.416   1.021  1.6722  0.7644 -0.2291
  191MOL0     H25780   1.082  10.553   0.988 -1.2216  2.5465  1.8730
  191MOL0     H25781   1.457  10.737   1.034  0.3330 -0.6557 -1.7974
  191MOL0     H25782   1.269  10.068   1.601 -0.2000  0.5174 -0.8720
  191MOL0     H25783   1.180   9.883   1.847 -2.5752  1.7198  0.5199
  191MOL0     H25784   1.336   9.958   1.780 -1.8098  3.2947 -1.6717
  191MOL0     H25785   1.302   9.983   1.945 -1.0554 -2.5269  1.5147
  192MOL0     O25786   6.823   7.308   6.500  0.3411  0.6369  0.9228
  192MOL0     C25787   6.737   7.329   6.584  0.3589  0.3187  0.8493
  192MOL0     O25788   6.675   7.452   6.619 -0.0828 -0.1847  0.9638
  192MOL0     C25789   6.719   7.575   6.572 -0.6705  0.4671  0.4613
  192MOL0     C25790   6.817   7.593   6.467  1.0467 -0.7615  0.4389
  192MOL0     C25791   6.834   7.724   6.418  0.4503  0.5066 -1.0647
  192MOL0     C25792   6.780   7.837   6.478  0.2581 -0.6851  0.3149
  192MOL0     O25793   6.813   7.974   6.457  0.4033  0.9042  0.5733
  192MOL0     C25794   6.862   8.027   6.334  0.0455 -0.6216  0.7793
  192MOL0     C25795   6.761   8.033   6.223  0.1852 -0.1144  0.0600
  192MOL0     C25796   6.820   8.005   6.077 -0.4067  0.3297 -0.6693
  192MOL0     C25797   6.720   8.059   5.981 -0.1020 -0.8026  0.4904
  192MOL0     C25798   6.776   8.043   5.835 -0.9016 -0.4868 -0.1848
  192MOL0     C25799   6.673   8.066   5.724 -0.1126  0.1475  0.5693
  192MOL0     C25800   6.579   8.182   5.737 -0.1928 -0.2831  1.1550
  192MOL0     C25801   6.658   8.300   5.669  0.5945 -0.3518 -0.1481
  192MOL0     N25802   6.570   8.417   5.649 -0.4755 -0.0614  0.0827
  192MOL0     C25803   6.531   8.507   5.739 -0.1634  0.1155  0.3221
  192MOL0     C25804   6.470   8.606   5.674 -1.2245 -0.2413 -0.4290
  192MOL0     C25805   6.396   8.728   5.728  1.0898  0.5672 -0.3205
  192MOL0     C25806   6.253   8.679   5.765  0.1684  1.0742  0.1709
  192MOL0     C25807   6.255   8.547   5.845 -0.1933  0.0378  0.4418
  192MOL0     C25808   6.105   8.504   5.874  0.1960 -0.2428 -0.4626
  192MOL0     O25809   6.069   8.563   5.997  0.3953  0.1008 -0.8284
  192MOL0     C25810   6.046   8.484   6.110 -0.2571 -1.1572  0.9773
  192MOL0     C25811   5.957   8.531   6.201 -0.2828  0.2184  0.1598
  192MOL0     C25812   5.934   8.469   6.316 -0.2689  0.5371 -0.2634
  192MOL0     C25813   6.000   8.347   6.349  0.0507  0.5893  1.0724
  192MOL0     C25814   5.971   8.275   6.475  1.2734 -0.6451 -0.4921
  192MOL0     O25815   5.869   8.332   6.554  0.6464  0.2659 -0.1497
  192MOL0     C25816   5.835   8.259   6.667 -0.4221  0.5104  1.4944
  192MOL0     C25817   5.706   8.224   6.687  0.0787  0.3692 -0.1487
  192MOL0     C25818   5.661   8.166   6.809 -1.2537 -0.6643  0.1889
  192MOL0     C25819   5.755   8.146   6.912  0.7923 -0.0363 -0.3511
  192MOL0     O25820   5.723   8.072   7.026 -0.6598 -0.6612 -0.7442
  192MOL0     C25821   5.595   8.026   7.059 -0.6373  0.1827  1.4981
  192MOL0     C25822   5.487   8.127   7.103 -0.1928  0.3299  0.3639
  192MOL0     C25823   5.540   8.239   7.203  0.3839 -0.2474  0.3295
  192MOL0     C25824   5.612   8.184   7.324  0.2172 -0.0921  0.8860
  192MOL0     C25825   5.686   8.293   7.391 -0.0306  0.5864 -0.6870
  192MOL0     C25826   5.769   8.235   7.502 -0.3592 -0.1299 -0.4776
  192MOL0     C25827   5.829   8.348   7.594  0.3127  0.1614 -0.2314
  192MOL0     C25828   5.888   8.301   7.727  1.1008 -0.1226  0.2467
  192MOL0    Cl25829   5.938   8.439   7.836  0.3390 -0.0064 -0.1064
  192MOL0     C25830   5.886   8.175   6.890  0.1499  0.2605  0.0437
  192MOL0     C25831   5.925   8.231   6.774 -0.3540  0.0509 -0.0089
  192MOL0     O25832   6.032   8.172   6.496 -0.4378  0.2912 -0.2846
  192MOL0     C25833   6.083   8.290   6.251  0.8925 -0.5383 -0.3791
  192MOL0     C25834   6.112   8.356   6.132  0.9539  0.0914 -0.1272
  192MOL0     N25835   6.489   8.573   5.542  0.2097 -0.0910 -1.0607
  192MOL0     N25836   6.530   8.454   5.526 -0.4702  0.4392  0.2745
  192MOL0     C25837   6.691   7.820   6.578  0.5894 -0.0895 -0.1478
  192MOL0     C25838   6.650   7.690   6.616 -0.1838 -0.6381 -0.7821
  192MOL0     C25839   6.671   7.207   6.624  0.0150 -0.2334 -0.5759
  192MOL0     C25840   6.529   7.218   6.656  0.0894 -0.9209  0.1189
  192MOL0     C25841   6.458   7.103   6.689  0.1943  0.0332  0.4238
  192MOL0     C25842   6.516   6.975   6.698  0.4057 -0.3516  0.0454
  192MOL0     O25843   6.450   6.851   6.693  0.3694  0.9718  0.6848
  192MOL0     C25844   6.339   6.842   6.775 -0.1076  0.8885  1.1393
  192MOL0     C25845   6.373   6.750   6.893  0.3370  0.2881  1.0062
  192MOL0     C25846   6.444   6.820   7.010 -0.4497 -0.4149  0.5244
  192MOL0     C25847   6.486   6.731   7.124  0.2949 -0.7177  0.3456
  192MOL0     C25848   6.372   6.695   7.207 -0.3662  0.0042 -0.6143
  192MOL0     C25849   6.271   6.658   7.259  0.2231  0.2859  0.0903
  192MOL0     C25850   6.653   6.970   6.678 -0.1375 -0.3465  0.4261
  192MOL0     C25851   6.729   7.080   6.643  0.4291 -0.2119  0.2989
  192MOL0     C25852   6.877   7.050   6.629 -0.0316  0.2993 -0.1588
  192MOL0     H25853   6.870   7.523   6.404  1.2985  1.4031 -1.9617
  192MOL0     H25854   6.912   7.728   6.342  1.6738 -0.9675  0.0519
  192MOL0     H25855   6.897   8.131   6.335 -0.6989 -0.3581  0.4877
  192MOL0     H25856   6.934   7.954   6.296 -1.3286 -1.7964  0.3417
  192MOL0     H25857   6.700   8.124   6.228 -3.2936 -1.8488 -4.3955
  192MOL0     H25858   6.695   7.946   6.231  0.3515 -1.1850 -5.7833
  192MOL0     H25859   6.844   7.899   6.064  0.5187  0.1217  2.1228
  192MOL0     H25860   6.922   8.046   6.074 -0.4244  0.9357  2.8835
  192MOL0     H25861   6.636   7.989   5.987 -0.3638 -0.5222  0.1827
  192MOL0     H25862   6.692   8.162   6.003 -1.6300 -1.3139  1.0741
  192MOL0     H25863   6.859   8.108   5.808 -1.8800  0.6420 -0.5551
  192MOL0     H25864   6.816   7.941   5.836  3.3550  1.0009  0.9521
  192MOL0     H25865   6.720   8.056   5.626 -0.8107 -0.7930  0.3184
  192MOL0     H25866   6.612   7.975   5.720  4.3126 -3.0991 -2.4327
  192MOL0     H25867   6.564   8.206   5.842 -1.5065  1.7230  0.5606
  192MOL0     H25868   6.483   8.177   5.685  0.2046 -3.9053  0.5094
  192MOL0     H25869   6.745   8.328   5.729  2.5505 -0.0364 -2.9758
  192MOL0     H25870   6.695   8.264   5.573 -2.4396  1.6498 -2.2469
  192MOL0     H25871   6.556   8.499   5.845  1.6696 -2.2713 -0.1932
  192MOL0     H25872   6.450   8.777   5.809  1.9313 -1.5886  0.5093
  192MOL0     H25873   6.393   8.801   5.647  0.9569  1.0897  0.1492
  192MOL0     H25874   6.202   8.754   5.826 -1.9499 -0.9982  1.0935
  192MOL0     H25875   6.196   8.656   5.674  0.5201  1.9718 -0.2862
  192MOL0     H25876   6.318   8.547   5.935  0.3602 -0.9378  0.0713
  192MOL0     H25877   6.297   8.464   5.788  0.3741  0.7803 -0.2372
  192MOL0     H25878   6.091   8.396   5.868 -0.1974 -0.1463 -1.5233
  192MOL0     H25879   6.031   8.551   5.807 -2.1331  1.1090  2.8049
  192MOL0     H25880   5.933   8.636   6.188 -1.8258 -0.3567 -2.2913
  192MOL0     H25881   5.878   8.527   6.389 -3.2671  0.6048 -2.4338
  192MOL0     H25882   5.633   8.252   6.612 -0.8667 -2.0061 -0.2159
  192MOL0     H25883   5.557   8.136   6.819 -0.9549 -1.9864 -0.5342
  192MOL0     H25884   5.568   7.962   6.975  0.1791  2.0390 -0.2459
  192MOL0     H25885   5.614   7.956   7.141  0.6970  1.1476  2.0509
  192MOL0     H25886   5.435   8.165   7.015 -2.2810  0.0299  1.4082
  192MOL0     H25887   5.399   8.079   7.146 -2.9632  1.8829 -3.0568
  192MOL0     H25888   5.591   8.316   7.144 -0.0467 -0.4697 -0.3463
  192MOL0     H25889   5.450   8.292   7.233 -1.9531 -1.3634 -3.9789
  192MOL0     H25890   5.679   8.102   7.297 -0.6993 -0.7652  0.6036
  192MOL0     H25891   5.530   8.139   7.380  0.9912  1.0072  3.0000
  192MOL0     H25892   5.618   8.359   7.446  0.8335 -0.3908  1.6893
  192MOL0     H25893   5.757   8.332   7.317  1.9226 -0.0499  0.7583
  192MOL0     H25894   5.697   8.173   7.555 -2.4383 -2.0325 -4.9939
  192MOL0     H25895   5.849   8.164   7.477  1.8988  2.5459 -1.3630
  192MOL0     H25896   5.742   8.412   7.613 -1.0645 -1.0621 -2.0675
  192MOL0     H25897   5.899   8.392   7.523 -0.8400 -0.6804 -1.9803
  192MOL0     H25898   5.809   8.247   7.780 -2.3433  1.7757 -2.4298
  192MOL0     H25899   5.970   8.232   7.707 -1.3548 -2.7338 -1.6257
  192MOL0     H25900   5.953   8.152   6.973  2.4042  1.1848 -1.4258
  192MOL0     H25901   6.029   8.264   6.772 -0.1709 -0.5527 -1.5214
  192MOL0     H25902   6.130   8.194   6.270 -1.5029 -1.5068  1.0178
  192MOL0     H25903   6.175   8.300   6.064  1.7050  1.5977 -0.7252
  192MOL0     H25904   6.624   7.897   6.617 -2.8913 -1.8057 -2.2270
  192MOL0     H25905   6.584   7.680   6.701  3.0467 -3.4547  1.6873
  192MOL0     H25906   6.480   7.315   6.650  1.4380 -0.0628  2.0806
  192MOL0     H25907   6.349   7.103   6.691  0.1082 -1.8469 -1.0615
  192MOL0     H25908   6.261   6.789   6.719  0.4542  0.0621  1.1211
  192MOL0     H25909   6.307   6.939   6.815  1.0074  2.0226 -0.5952
  192MOL0     H25910   6.444   6.678   6.853 -1.7427 -3.6820  3.7878
  192MOL0     H25911   6.277   6.707   6.924  1.1284 -1.2743  1.3908
  192MOL0     H25912   6.383   6.908   7.036 -1.7369 -0.1757 -2.8476
  192MOL0     H25913   6.533   6.869   6.967 -1.5872  1.7892  0.5118
  192MOL0     H25914   6.528   6.639   7.081 -1.0104 -1.7576  1.2131
  192MOL0     H25915   6.561   6.785   7.182 -2.0279  0.3073  2.5501
  192MOL0     H25916   6.169   6.640   7.285 -0.7813 -2.2549 -4.5275
  192MOL0     H25917   6.700   6.873   6.679  1.2151  0.2274  3.0593
  192MOL0     H25918   6.928   7.114   6.701 -1.1045  0.2523  0.6795
  192MOL0     H25919   6.911   6.947   6.644  2.9944  1.2880  0.4580
  192MOL0     H25920   6.899   7.072   6.524 -2.2815 -0.4679 -0.8647
  193MOL0     O25921   5.044   9.408   7.466  0.1874  0.6232  0.6002
  193MOL0     C25922   5.146   9.345   7.462  0.0819  0.0008 -0.2653
  193MOL0     O25923   5.266   9.376   7.517  0.5282  0.6757  0.4507
  193MOL0     C25924   5.285   9.507   7.565 -0.3332  0.6161 -0.3997
  193MOL0     C25925   5.209   9.551   7.672  1.3801 -0.5492 -0.4644
  193MOL0     C25926   5.223   9.680   7.722 -0.6350 -0.5248  0.0611
  193MOL0     C25927   5.324   9.771   7.669  0.7198  0.6104 -0.8826
  193MOL0     O25928   5.348   9.895   7.735 -0.0231 -0.0528  0.3658
  193MOL0     C25929   5.418   9.886   7.864  0.1718 -0.2633 -0.9079
  193MOL0     C25930   5.519   9.999   7.890  0.2531 -0.0192 -0.1642
  193MOL0     C25931   5.642   9.982   7.798  0.2760 -0.3473  1.1818
  193MOL0     C25932   5.762  10.067   7.836 -0.3921  0.2479 -0.7254
  193MOL0     C25933   5.885  10.035   7.749  0.1234 -0.3978  0.0832
  193MOL0     C25934   5.973   9.935   7.809  0.6236 -1.1848 -0.5270
  193MOL0     C25935   6.100   9.904   7.722  0.4163  0.4153 -0.2958
  193MOL0     C25936   6.165   9.777   7.764 -1.1805  0.6544 -1.0068
  193MOL0     N25937   6.220   9.789   7.902 -0.0007  0.2855  0.2645
  193MOL0     C25938   6.354   9.777   7.938  0.1683 -0.2261  0.5349
  193MOL0     C25939   6.354   9.766   8.067  1.0988  0.5077 -0.2076
  193MOL0     C25940   6.464   9.733   8.161  0.2151  0.5703 -0.2061
  193MOL0     C25941   6.485   9.580   8.202 -0.0299 -0.3899 -0.1288
  193MOL0     C25942   6.609   9.551   8.292 -0.5960  0.3956 -0.4783
  193MOL0     C25943   6.744   9.601   8.232 -0.4494  0.2913  0.2488
  193MOL0     O25944   6.848   9.559   8.326  0.2794 -0.5946 -0.2158
  193MOL0     C25945   6.923   9.450   8.303 -0.3611  0.9063 -0.8454
  193MOL0     C25946   7.035   9.431   8.390 -0.1821  0.7001 -0.0513
  193MOL0     C25947   7.111   9.311   8.382  0.3776 -0.9038 -0.2479
  193MOL0     C25948   7.079   9.201   8.307  0.1969  0.4009 -0.3273
  193MOL0     C25949   7.155   9.082   8.310  0.3566  1.3302  0.1381
  193MOL0     O25950   7.148   8.988   8.208  0.6214 -0.6218 -0.0841
  193MOL0     C25951   7.225   8.877   8.217 -0.3431  0.4334  0.1690
  193MOL0     C25952   7.365   8.880   8.212 -0.3646  0.7007 -0.3996
  193MOL0     C25953   7.436   8.759   8.230  0.4033 -0.0193  0.0403
  193MOL0     C25954   7.373   8.636   8.244  0.3556 -0.4891  0.0468
  193MOL0     O25955   7.459   8.533   8.272  0.0821  0.8611 -0.3546
  193MOL0     C25956   7.420   8.415   8.348  0.0259 -1.6237  0.7256
  193MOL0     C25957   7.377   8.456   8.480  0.1627 -0.2102  0.2005
  193MOL0     C25958   7.347   8.322   8.568  0.2405  0.6386 -0.0766
  193MOL0     C25959   7.294   8.337   8.714 -0.3026 -0.3014 -0.1196
  193MOL0     C25960   7.280   8.220   8.810 -0.4046  0.1456  0.5610
  193MOL0     C25961   7.185   8.121   8.747  1.0826  0.0248 -0.5896
  193MOL0     C25962   7.164   8.007   8.833  0.2661  0.0890 -0.7267
  193MOL0     C25963   7.076   7.898   8.776  0.3258 -0.1558 -0.5862
  193MOL0    Cl25964   7.190   7.809   8.670  0.4611 -0.3041  0.1996
  193MOL0     C25965   7.238   8.632   8.246  0.2706  0.1488  0.0428
  193MOL0     C25966   7.158   8.748   8.226  0.5561 -0.4024  0.5443
  193MOL0     O25967   7.222   9.072   8.409  0.1166  0.3487  0.2079
  193MOL0     C25968   6.972   9.220   8.218 -0.4292  0.0895  0.7363
  193MOL0     C25969   6.889   9.339   8.223 -0.3749 -0.1639 -1.1166
  193MOL0     N25970   6.221   9.768   8.121  0.8302  0.5449  1.1225
  193MOL0     N25971   6.148   9.771   8.010  0.0122 -0.2805  0.1847
  193MOL0     C25972   5.396   9.724   7.563 -0.4287  0.7545  0.9682
  193MOL0     C25973   5.379   9.598   7.502  0.0214  0.1626 -0.4341
  193MOL0     C25974   5.150   9.225   7.373 -0.4056 -1.2320 -0.1949
  193MOL0     C25975   5.278   9.164   7.343  0.3166 -0.7736  0.7411
  193MOL0     C25976   5.292   9.064   7.246  0.3071 -0.2489 -1.1276
  193MOL0     C25977   5.190   9.010   7.170 -0.0819  0.6358 -0.9018
  193MOL0     O25978   5.217   8.914   7.072 -0.0495  0.4302  0.1551
  193MOL0     C25979   5.116   8.861   6.989  0.1476 -0.1761  0.2392
  193MOL0     C25980   5.087   8.971   6.878  0.4483  0.6318  0.2246
  193MOL0     C25981   4.970   8.939   6.781  0.0631  0.1696 -0.4201
  193MOL0     C25982   4.981   9.039   6.662  0.1491 -0.3006  1.0527
  193MOL0     C25983   4.849   9.033   6.600 -0.6283  0.3503  0.6490
  193MOL0     C25984   4.735   9.025   6.555 -0.0436 -0.3110  0.1628
  193MOL0     C25985   5.071   9.069   7.202  0.9136 -0.0521  0.6717
  193MOL0     C25986   5.040   9.159   7.307  0.0213 -1.1176 -0.4287
  193MOL0     C25987   4.904   9.204   7.334  0.2316 -0.4471  0.3076
  193MOL0     H25988   5.131   9.490   7.717  3.0752 -1.3156  1.6444
  193MOL0     H25989   5.160   9.712   7.804  1.1372  0.4535  1.0962
  193MOL0     H25990   5.348   9.901   7.947  1.0642 -0.3576 -0.1235
  193MOL0     H25991   5.464   9.789   7.882  2.9818  1.3164  1.2930
  193MOL0     H25992   5.544   9.978   7.995  0.2496 -0.0055 -0.1608
  193MOL0     H25993   5.475  10.099   7.894 -1.6033 -0.8123  0.3503
  193MOL0     H25994   5.613  10.000   7.694 -1.1773  1.1018  1.7984
  193MOL0     H25995   5.671   9.877   7.808  0.0145 -0.4620  0.7593
  193MOL0     H25996   5.742  10.174   7.844  1.0553  0.4930 -0.1165
  193MOL0     H25997   5.773  10.050   7.943  0.0175 -1.3494 -0.9935
  193MOL0     H25998   5.840  10.000   7.655 -1.7371 -0.3602  0.9077
  193MOL0     H25999   5.936  10.131   7.747  0.0833 -0.1620  4.0808
  193MOL0     H26000   6.018   9.969   7.902  1.1149 -2.1824 -0.3858
  193MOL0     H26001   5.922   9.838   7.816 -0.3939 -0.7028 -0.9997
  193MOL0     H26002   6.161   9.992   7.741  0.2377  0.1984  1.5171
  193MOL0     H26003   6.067   9.902   7.618 -0.0828  1.2988 -0.1647
  193MOL0     H26004   6.094   9.695   7.767 -1.8241  1.2247  0.1246
  193MOL0     H26005   6.240   9.743   7.692 -3.4097 -1.4014 -2.4855
  193MOL0     H26006   6.444   9.761   7.879 -0.6115 -3.6912  0.1168
  193MOL0     H26007   6.555   9.773   8.115 -0.7418  1.3800 -1.4768
  193MOL0     H26008   6.441   9.776   8.259  1.8023  2.6557 -0.6760
  193MOL0     H26009   6.396   9.528   8.241 -0.6236 -1.0809 -2.2831
  193MOL0     H26010   6.496   9.539   8.101 -1.0988 -0.8431 -0.0830
  193MOL0     H26011   6.629   9.443   8.294 -3.8986 -0.3276 -0.6582
  193MOL0     H26012   6.598   9.578   8.397  1.9146 -3.9820  1.1763
  193MOL0     H26013   6.753   9.710   8.223 -1.3021  0.6372  2.7768
  193MOL0     H26014   6.764   9.549   8.138  0.9725  0.6546  0.3215
  193MOL0     H26015   7.066   9.518   8.446 -2.2776  3.0531 -2.2586
  193MOL0     H26016   7.200   9.335   8.440 -1.2982  1.8764  1.3941
  193MOL0     H26017   7.423   8.971   8.201 -2.3540  1.9699 -0.8402
  193MOL0     H26018   7.540   8.785   8.244  0.9529  0.3235 -3.6458
  193MOL0     H26019   7.337   8.369   8.292 -0.5898  1.7219 -1.4123
  193MOL0     H26020   7.504   8.346   8.352 -0.6925 -2.5677  0.0283
  193MOL0     H26021   7.462   8.512   8.522 -2.2883  3.6167  0.4949
  193MOL0     H26022   7.290   8.522   8.481  2.8476  3.6985 -0.3183
  193MOL0     H26023   7.279   8.260   8.509  1.4209  1.8790 -2.9464
  193MOL0     H26024   7.439   8.262   8.575 -0.1180 -0.0025 -0.8064
  193MOL0     H26025   7.199   8.390   8.701  0.0630  0.8463  1.4798
  193MOL0     H26026   7.358   8.408   8.769 -1.2512  0.4393  0.0472
  193MOL0     H26027   7.244   8.263   8.903  1.7724  0.0247  1.5065
  193MOL0     H26028   7.382   8.183   8.825  0.2344  1.6922  0.2101
  193MOL0     H26029   7.091   8.177   8.744  1.7637  1.3312  1.1090
  193MOL0     H26030   7.217   8.098   8.645  1.3639  0.6002 -0.6288
  193MOL0     H26031   7.125   8.048   8.927  1.6087 -0.9585  0.3390
  193MOL0     H26032   7.260   7.961   8.858  0.3864 -0.0779 -1.4805
  193MOL0     H26033   7.018   7.850   8.856 -2.5585  1.0294 -1.8038
  193MOL0     H26034   6.998   7.950   8.719  1.4363  1.9127 -0.3258
  193MOL0     H26035   7.187   8.538   8.265  0.4030  0.3423  1.4354
  193MOL0     H26036   7.050   8.742   8.222  0.6033 -0.9217 -1.7359
  193MOL0     H26037   6.967   9.137   8.148  2.2756  0.6255 -0.2041
  193MOL0     H26038   6.797   9.347   8.166  0.0486  1.3881 -1.6164
  193MOL0     H26039   5.480   9.783   7.527  2.2822 -2.4664  1.5690
  193MOL0     H26040   5.453   9.563   7.431  1.1057  0.1140  0.6750
  193MOL0     H26041   5.373   9.186   7.390  1.7824 -4.1129 -0.3744
  193MOL0     H26042   5.393   9.033   7.223 -0.1191 -2.8583  0.1765
  193MOL0     H26043   5.021   8.841   7.040 -0.1499 -1.8075 -0.8759
  193MOL0     H26044   5.161   8.771   6.946 -0.1826 -1.5601  2.6359
  193MOL0     H26045   5.179   8.973   6.819 -1.9713 -0.1160 -3.8950
  193MOL0     H26046   5.072   9.070   6.923 -0.5586  0.4302  0.3653
  193MOL0     H26047   4.884   8.951   6.848  0.6756 -2.5487  0.9678
  193MOL0     H26048   4.963   8.836   6.746 -1.0809 -1.0470  2.9181
  193MOL0     H26049   5.007   9.142   6.690 -1.5010  0.7765 -1.0884
  193MOL0     H26050   5.057   9.004   6.592 -1.0701 -0.9098 -0.0123
  193MOL0     H26051   4.641   9.005   6.507  0.0738  0.5487 -0.4549
  193MOL0     H26052   4.978   9.039   7.154  0.2609  1.4235  0.9483
  193MOL0     H26053   4.863   9.270   7.257 -2.9190 -0.7475  1.5562
  193MOL0     H26054   4.835   9.120   7.319 -1.4006  1.1087 -1.3619
  193MOL0     H26055   4.879   9.245   7.432 -1.7138  1.2825 -0.8375
  194MOL0     O26056   1.089   0.917   4.386  0.4636 -1.0711  0.3310
  194MOL0     C26057   1.062   0.820   4.315 -0.0451 -0.3234 -0.2029
  194MOL0     O26058   0.982   0.719   4.344 -0.0241  0.0084 -0.3111
  194MOL0     C26059   0.931   0.727   4.477  0.5913  0.1249 -0.2539
  194MOL0     C26060   0.795   0.723   4.499  0.3031 -1.4164  0.7723
  194MOL0     C26061   0.730   0.731   4.619 -0.6520 -0.0680 -0.1318
  194MOL0     C26062   0.812   0.742   4.736 -0.5525  0.2730  0.4547
  194MOL0     O26063   0.741   0.749   4.849  0.1716  0.2526 -0.2777
  194MOL0     C26064   0.785   0.673   4.967  0.0852 -0.6093  0.8103
  194MOL0     C26065   0.671   0.603   5.039 -0.5386 -0.7317 -0.0191
  194MOL0     C26066   0.548   0.697   5.068 -0.7528  0.5054  0.1224
  194MOL0     C26067   0.446   0.686   4.950 -0.6491  0.0031  0.7044
  194MOL0     C26068   0.339   0.799   4.945  1.0687 -0.5288  0.3281
  194MOL0     C26069   0.249   0.786   5.068  0.2261  0.2043  1.0657
  194MOL0     C26070   0.140   0.908   5.081  0.3628  0.9324  0.3685
  194MOL0     C26071   0.000   0.849   5.129 -0.3776  0.1092  0.4899
  194MOL0     N26072  -0.083   0.806   5.021  0.0994  0.1410  0.4503
  194MOL0     C26073  -0.225   0.833   5.019 -0.2784  0.2994  0.0587
  194MOL0     C26074  -0.256   0.796   4.892 -0.0059  0.5868  0.3370
  194MOL0     C26075  -0.394   0.786   4.845  0.5971  0.0443  0.9086
  194MOL0     C26076  -0.504   0.807   4.958 -0.4728 -0.1106  0.0762
  194MOL0     C26077  -0.641   0.751   4.916 -0.2508 -0.1458 -0.0604
  194MOL0     C26078  -0.747   0.748   5.022  0.1901  0.3187  0.4854
  194MOL0     O26079  -0.800   0.617   5.043 -0.1237 -0.7108  0.1116
  194MOL0     C26080  -0.906   0.608   5.120  0.2085  1.0532 -0.9687
  194MOL0     C26081  -0.949   0.474   5.134  0.6928  0.2134  0.5919
  194MOL0     C26082  -1.054   0.434   5.220 -0.6429 -0.0694 -1.0138
  194MOL0     C26083  -1.118   0.526   5.299  1.2088 -0.5464  0.7240
  194MOL0     C26084  -1.235   0.486   5.386 -0.8401 -0.1315 -0.7637
  194MOL0     O26085  -1.343   0.568   5.393 -0.2955 -0.5905 -0.5453
  194MOL0     C26086  -1.461   0.512   5.437 -0.5539  0.5949  0.8398
  194MOL0     C26087  -1.528   0.426   5.348 -0.1900  0.0878  0.5747
  194MOL0     C26088  -1.660   0.378   5.374 -0.0322 -0.4753 -0.2476
  194MOL0     C26089  -1.707   0.410   5.503  0.5124 -0.0547  0.1238
  194MOL0     O26090  -1.832   0.360   5.536  0.1920  0.1310  0.3190
  194MOL0     C26091  -1.935   0.385   5.440  0.2781 -0.0665 -0.4136
  194MOL0     C26092  -2.072   0.336   5.487  0.4885  1.4645  0.4852
  194MOL0     C26093  -2.114   0.396   5.615 -0.1353 -0.7667 -0.0018
  194MOL0     C26094  -2.227   0.512   5.612  0.3674 -0.3670 -0.2862
  194MOL0     C26095  -2.275   0.537   5.751 -0.7652  0.6946 -0.7402
  194MOL0     C26096  -2.417   0.477   5.775 -0.0467  0.7499 -0.8411
  194MOL0     C26097  -2.422   0.325   5.758 -0.6770  1.7704  0.6903
  194MOL0     C26098  -2.548   0.265   5.826 -0.6852  0.3357 -0.6462
  194MOL0    Cl26099  -2.693   0.332   5.751 -0.1371  0.3845  0.2522
  194MOL0     C26100  -1.640   0.501   5.593  1.2104  0.0235  0.8322
  194MOL0     C26101  -1.517   0.547   5.558 -0.0240 -0.2989 -0.0629
  194MOL0     O26102  -1.226   0.370   5.438 -0.1844  0.9901 -0.5572
  194MOL0     C26103  -1.080   0.661   5.276  0.1091 -0.4258 -0.7950
  194MOL0     C26104  -0.978   0.709   5.185 -0.2268 -0.1817 -0.3236
  194MOL0     N26105  -0.141   0.751   4.827 -0.3860  0.5861  0.2117
  194MOL0     N26106  -0.027   0.765   4.904  0.2308  0.5288  0.0878
  194MOL0     C26107   0.950   0.721   4.721 -0.4191 -0.2773  0.0466
  194MOL0     C26108   1.005   0.709   4.594 -0.3124  0.2928 -0.3871
  194MOL0     C26109   1.106   0.831   4.174 -0.5360 -0.0276  0.0681
  194MOL0     C26110   1.043   0.765   4.071 -0.3412  0.2337  0.4085
  194MOL0     C26111   1.074   0.785   3.938 -0.2738 -0.1872  0.7878
  194MOL0     C26112   1.192   0.857   3.904 -0.6136 -0.3584  0.5995
  194MOL0     O26113   1.228   0.841   3.774  0.5050  0.6760  0.3040
  194MOL0     C26114   1.347   0.913   3.721 -0.1129 -0.2687 -0.5108
  194MOL0     C26115   1.327   0.921   3.573 -0.2655  0.0607  0.1149
  194MOL0     C26116   1.312   0.775   3.511  0.1423 -0.3667  0.0085
  194MOL0     C26117   1.433   0.711   3.454 -0.2410  0.1300 -0.2878
  194MOL0     C26118   1.519   0.660   3.554 -0.3293 -0.5683 -0.0305
  194MOL0     C26119   1.599   0.613   3.636 -0.5928  0.2546  0.8272
  194MOL0     C26120   1.265   0.910   4.005 -0.0515 -0.8664  0.1445
  194MOL0     C26121   1.226   0.902   4.136  0.0392  0.4492 -0.9827
  194MOL0     C26122   1.326   0.969   4.222  0.0345  0.7662 -1.1028
  194MOL0     H26123   0.729   0.736   4.414 -2.6825 -2.1213  2.8234
  194MOL0     H26124   0.624   0.758   4.621  0.1413  3.8659 -1.4423
  194MOL0     H26125   0.853   0.591   4.946 -0.7864 -1.0512 -0.4337
  194MOL0     H26126   0.827   0.746   5.036  1.0421 -0.3610 -0.0218
  194MOL0     H26127   0.725   0.578   5.131  2.3813  3.4007 -0.3291
  194MOL0     H26128   0.637   0.517   4.980 -2.1659 -0.3297  0.2963
  194MOL0     H26129   0.586   0.800   5.071  0.2274  0.1255  2.2951
  194MOL0     H26130   0.503   0.658   5.160 -2.9320 -0.2737 -1.1881
  194MOL0     H26131   0.505   0.702   4.859 -1.5902  0.1546  0.1171
  194MOL0     H26132   0.417   0.581   4.953 -0.1512 -0.1560  0.0860
  194MOL0     H26133   0.387   0.894   4.923  3.9472 -1.8961  0.2941
  194MOL0     H26134   0.275   0.788   4.857  2.4661  0.8327 -0.9171
  194MOL0     H26135   0.203   0.688   5.072 -0.6210  0.6322  4.0400
  194MOL0     H26136   0.322   0.783   5.150  1.1996  0.6232  0.2383
  194MOL0     H26137   0.130   0.975   4.995 -2.8862  1.6048  1.1309
  194MOL0     H26138   0.186   0.967   5.161  0.0461 -0.7101  1.8277
  194MOL0     H26139   0.027   0.762   5.190 -1.3868 -2.1910 -2.1635
  194MOL0     H26140  -0.046   0.926   5.191 -0.6034  0.5032 -0.1581
  194MOL0     H26141  -0.288   0.858   5.104 -0.3571  2.4257 -0.5704
  194MOL0     H26142  -0.406   0.855   4.760 -0.5622  1.4428  2.1594
  194MOL0     H26143  -0.409   0.684   4.807  1.0591  1.0981 -2.4794
  194MOL0     H26144  -0.483   0.735   5.038 -2.7751  0.8760  1.6846
  194MOL0     H26145  -0.514   0.913   4.981  0.1155 -0.1133  0.3733
  194MOL0     H26146  -0.641   0.650   4.873 -2.7362  0.0961 -0.7575
  194MOL0     H26147  -0.659   0.829   4.841  5.3205  0.8452 -0.8137
  194MOL0     H26148  -0.829   0.812   4.988 -0.6420 -0.3969  1.1254
  194MOL0     H26149  -0.715   0.801   5.112  1.0265  0.9100 -0.1337
  194MOL0     H26150  -0.886   0.398   5.090 -0.2160 -1.5544  2.2279
  194MOL0     H26151  -1.095   0.334   5.216 -1.9106  0.4204 -0.8567
  194MOL0     H26152  -1.488   0.403   5.250  0.2470 -1.1175  1.0249
  194MOL0     H26153  -1.698   0.315   5.295  0.8761 -1.0385 -0.2570
  194MOL0     H26154  -1.933   0.494   5.429  1.7175 -0.1807 -1.5553
  194MOL0     H26155  -1.900   0.339   5.347  0.3755  0.4363 -0.6311
  194MOL0     H26156  -2.147   0.379   5.421  1.1349  0.0798 -1.2222
  194MOL0     H26157  -2.084   0.227   5.492  1.5579  1.1873 -1.7766
  194MOL0     H26158  -2.159   0.308   5.661 -1.1448  0.4922  1.5485
  194MOL0     H26159  -2.024   0.424   5.671  2.9024 -2.3489 -3.6217
  194MOL0     H26160  -2.305   0.471   5.547  1.3617 -2.1775 -0.4187
  194MOL0     H26161  -2.190   0.608   5.575  4.3622 -1.5206  0.1663
  194MOL0     H26162  -2.286   0.644   5.770 -6.3055  0.5388 -1.4460
  194MOL0     H26163  -2.215   0.492   5.831 -2.3640 -2.9551 -1.3785
  194MOL0     H26164  -2.439   0.499   5.879 -0.6894 -4.0025  0.2320
  194MOL0     H26165  -2.488   0.520   5.704  0.3162  1.7782 -0.5973
  194MOL0     H26166  -2.331   0.286   5.804  1.0441  0.1355 -3.6045
  194MOL0     H26167  -2.412   0.295   5.653  1.9443  1.9645  0.8189
  194MOL0     H26168  -2.533   0.158   5.811  1.3246  0.6794 -1.3582
  194MOL0     H26169  -2.545   0.275   5.935 -0.4560  0.7600 -0.6905
  194MOL0     H26170  -1.678   0.510   5.694  0.6422  0.0940  0.6163
  194MOL0     H26171  -1.448   0.590   5.629 -0.6351  0.1428  0.2632
  194MOL0     H26172  -1.119   0.726   5.354 -0.1084 -0.6521 -0.7126
  194MOL0     H26173  -0.956   0.815   5.174 -2.4087  0.1333 -2.6146
  194MOL0     H26174   1.021   0.724   4.803 -1.6138 -1.0348  1.1522
  194MOL0     H26175   1.108   0.682   4.575 -0.5686 -2.2889  1.4277
  194MOL0     H26176   0.957   0.710   4.106 -1.4512  2.6511  1.6893
  194MOL0     H26177   1.003   0.748   3.864 -0.0751  0.2949  0.3508
  194MOL0     H26178   1.438   0.855   3.739  0.2836  0.3497 -0.5134
  194MOL0     H26179   1.353   1.012   3.768  0.6662  0.4595 -2.0864
  194MOL0     H26180   1.420   0.967   3.537 -1.0554  1.5215 -0.1214
  194MOL0     H26181   1.244   0.988   3.550  0.4038  0.7399 -0.3736
  194MOL0     H26182   1.244   0.788   3.426  0.5198  1.7456 -0.0167
  194MOL0     H26183   1.266   0.711   3.587  1.4276 -0.7698  0.4667
  194MOL0     H26184   1.401   0.621   3.401  0.7251  1.2475 -2.8783
  194MOL0     H26185   1.475   0.773   3.375 -1.5903 -0.3032 -1.3858
  194MOL0     H26186   1.670   0.569   3.703 -3.5056 -2.3696  2.4311
  194MOL0     H26187   1.342   0.982   3.979 -2.6232  1.8515 -0.4822
  194MOL0     H26188   1.371   0.890   4.282 -0.1377  0.4055 -1.4412
  194MOL0     H26189   1.409   1.007   4.162  1.1205 -0.3293 -0.3227
  194MOL0     H26190   1.285   1.048   4.286  1.5713 -0.9015  2.1753
  195MOL0     O26191   7.807   1.180   5.634  0.4215  0.4482 -0.7636
  195MOL0     C26192   7.706   1.115   5.647  0.0773 -0.8532  0.5694
  195MOL0     O26193   7.693   1.019   5.732  0.7236  0.8341  0.8785
  195MOL0     C26194   7.781   0.979   5.824 -1.1219  0.3350  0.4409
  195MOL0     C26195   7.752   0.857   5.879 -0.2627  0.6195  0.6333
  195MOL0     C26196   7.833   0.802   5.985  0.1001  0.9864  1.2968
  195MOL0     C26197   7.920   0.879   6.050 -0.2268 -1.6405  0.5249
  195MOL0     O26198   7.980   0.819   6.151 -0.6486  0.0020  0.5783
  195MOL0     C26199   8.076   0.887   6.235 -0.0876  0.1546  0.3747
  195MOL0     C26200   8.107   0.803   6.359 -0.0999  0.8566 -0.5097
  195MOL0     C26201   8.137   0.648   6.344 -0.1136  0.2603 -1.3828
  195MOL0     C26202   8.077   0.566   6.456  1.0572  0.2538 -0.2900
  195MOL0     C26203   7.918   0.560   6.471  0.4059  0.2105  0.2219
  195MOL0     C26204   7.875   0.461   6.577 -1.2687  0.3216 -0.6693
  195MOL0     C26205   7.726   0.444   6.588  1.4945  0.4000 -0.5273
  195MOL0     C26206   7.648   0.520   6.699 -0.7692 -0.2641  0.5838
  195MOL0     N26207   7.659   0.666   6.670 -0.6193 -1.4288  0.0739
  195MOL0     C26208   7.608   0.725   6.557 -0.0936 -0.0236 -0.3724
  195MOL0     C26209   7.640   0.853   6.578  0.4469 -0.7435  0.6217
  195MOL0     C26210   7.590   0.958   6.478  0.6061  0.1332 -0.5337
  195MOL0     C26211   7.534   1.081   6.544 -0.9314 -0.3221 -0.7445
  195MOL0     C26212   7.492   1.179   6.439  0.8330  0.4304 -0.3460
  195MOL0     C26213   7.468   1.314   6.517  0.1158 -0.3207  0.4698
  195MOL0     O26214   7.380   1.307   6.631  0.2648 -0.0322  1.0642
  195MOL0     C26215   7.244   1.279   6.606  1.1670 -0.3641  0.3263
  195MOL0     C26216   7.188   1.281   6.486  0.0741  0.3953  0.3822
  195MOL0     C26217   7.051   1.272   6.469 -1.2988 -0.3367  0.2937
  195MOL0     C26218   6.973   1.265   6.590 -0.4645  0.2171  0.1410
  195MOL0     C26219   6.828   1.247   6.573 -1.3804  0.1832 -0.5710
  195MOL0     O26220   6.734   1.286   6.670  0.0043  0.3441  0.4332
  195MOL0     C26221   6.614   1.227   6.666 -0.8361 -0.4800 -0.5297
  195MOL0     C26222   6.506   1.314   6.655 -0.1288 -0.1763  0.1220
  195MOL0     C26223   6.380   1.260   6.661  0.0846 -0.4288 -0.7595
  195MOL0     C26224   6.355   1.112   6.667  0.4673 -0.7445 -0.8921
  195MOL0     O26225   6.229   1.051   6.652 -0.2421  0.9453  0.3230
  195MOL0     C26226   6.112   1.113   6.608  0.4481 -0.0824 -0.3984
  195MOL0     C26227   6.090   1.141   6.459 -0.3812 -0.0089  0.6290
  195MOL0     C26228   6.204   1.228   6.387 -0.3037  0.6364  0.1255
  195MOL0     C26229   6.181   1.248   6.239  0.8556  1.0137 -0.1202
  195MOL0     C26230   6.110   1.377   6.219  0.2808  0.3557 -0.2325
  195MOL0     C26231   6.086   1.393   6.065 -0.5474 -0.0096 -0.5591
  195MOL0     C26232   6.048   1.544   6.034  0.9874  0.5675 -0.3225
  195MOL0     C26233   5.885   1.554   6.029  0.6878 -0.5617  0.8440
  195MOL0    Cl26234   5.869   1.734   6.020  0.0733 -0.1275  0.8169
  195MOL0     C26235   6.469   1.032   6.665 -0.0662  0.6059  0.0127
  195MOL0     C26236   6.596   1.090   6.672  1.0274 -0.5768 -0.0592
  195MOL0     O26237   6.798   1.195   6.467 -1.2450  0.0599  0.2721
  195MOL0     C26238   7.027   1.262   6.718  0.0464 -0.3535 -0.9395
  195MOL0     C26239   7.164   1.261   6.723  0.1640 -0.4394  0.3625
  195MOL0     N26240   7.707   0.876   6.700  0.5295  0.2139  0.0701
  195MOL0     N26241   7.714   0.755   6.758 -0.2410  0.4994  0.0537
  195MOL0     C26242   7.945   1.001   6.006 -1.1992 -0.7161  0.7457
  195MOL0     C26243   7.879   1.055   5.888  0.4970  0.0225 -0.2459
  195MOL0     C26244   7.574   1.147   5.576 -0.4321 -0.0927 -0.0499
  195MOL0     C26245   7.454   1.085   5.613  0.4599 -1.6644  0.5780
  195MOL0     C26246   7.332   1.107   5.548 -0.6735 -0.2090 -0.2194
  195MOL0     C26247   7.325   1.202   5.447 -0.5452 -0.7916 -1.3979
  195MOL0     O26248   7.213   1.234   5.377  0.2963 -0.7372  0.2788
  195MOL0     C26249   7.107   1.282   5.464 -0.2136 -0.3355  0.8577
  195MOL0     C26250   6.983   1.210   5.424  0.2471 -0.5345  0.0665
  195MOL0     C26251   6.962   1.225   5.272  0.1451  0.5915 -0.2922
  195MOL0     C26252   7.037   1.132   5.168  0.5090  0.1547 -0.1585
  195MOL0     C26253   6.998   0.991   5.208  0.4300 -1.1551 -0.0619
  195MOL0     C26254   6.974   0.889   5.252  0.5536  0.9792 -0.3368
  195MOL0     C26255   7.442   1.265   5.413 -0.2726  0.9384  0.7718
  195MOL0     C26256   7.570   1.237   5.467  0.4415  0.4251 -0.7049
  195MOL0     C26257   7.694   1.308   5.409  0.3750  0.7128  0.6319
  195MOL0     H26258   7.672   0.806   5.827 -2.5119  2.1234  2.3861
  195MOL0     H26259   7.814   0.699   6.014 -4.2590  0.6611 -1.7552
  195MOL0     H26260   8.178   0.897   6.196  0.0141  3.2271  1.1387
  195MOL0     H26261   8.039   0.988   6.254  0.2257  0.0974  1.3105
  195MOL0     H26262   8.023   0.815   6.429  1.6652 -1.9015  2.3640
  195MOL0     H26263   8.194   0.838   6.415 -0.3183 -2.2781  2.1390
  195MOL0     H26264   8.245   0.632   6.345 -0.0511  0.6422 -1.7481
  195MOL0     H26265   8.101   0.608   6.249 -1.3518 -0.4541 -0.6437
  195MOL0     H26266   8.112   0.462   6.446  1.2282  0.2771  0.0382
  195MOL0     H26267   8.117   0.605   6.551  1.5336 -2.1015  0.5572
  195MOL0     H26268   7.885   0.662   6.495 -2.3060 -0.9361  1.8808
  195MOL0     H26269   7.881   0.522   6.375 -1.2380  2.8437 -0.2827
  195MOL0     H26270   7.920   0.362   6.565  2.6494  1.4245  2.6216
  195MOL0     H26271   7.919   0.489   6.673 -0.1247  2.9754 -1.8692
  195MOL0     H26272   7.697   0.339   6.586  1.9013  0.2790 -0.1896
  195MOL0     H26273   7.690   0.488   6.494  2.8184 -2.0606 -2.3078
  195MOL0     H26274   7.542   0.499   6.684 -0.4806  0.6431 -4.5560
  195MOL0     H26275   7.682   0.491   6.798  1.6683 -0.5847 -0.2679
  195MOL0     H26276   7.556   0.674   6.477 -0.1372 -1.1604  0.3455
  195MOL0     H26277   7.672   0.983   6.410 -0.7225 -0.0173 -2.2562
  195MOL0     H26278   7.510   0.910   6.420 -0.5987 -0.7008  1.7118
  195MOL0     H26279   7.457   1.040   6.610 -0.1945 -1.7986 -0.7706
  195MOL0     H26280   7.606   1.127   6.611 -0.9221  0.2557 -1.1360
  195MOL0     H26281   7.404   1.149   6.380  0.9428 -1.9729  0.6307
  195MOL0     H26282   7.578   1.199   6.374 -0.7579  0.4085 -2.5943
  195MOL0     H26283   7.447   1.394   6.445  1.4738  0.6427  1.0950
  195MOL0     H26284   7.562   1.348   6.563  0.6952 -1.0456 -0.1353
  195MOL0     H26285   7.241   1.293   6.392 -1.5162 -0.3075 -0.6583
  195MOL0     H26286   7.016   1.262   6.367  1.7167  0.2117 -0.8951
  195MOL0     H26287   6.538   1.418   6.648  0.3795 -0.3286  0.1258
  195MOL0     H26288   6.294   1.326   6.667  0.2976 -0.3034  2.2101
  195MOL0     H26289   6.026   1.061   6.650  0.2771  1.1253  0.8242
  195MOL0     H26290   6.100   1.213   6.652 -0.9978  0.4260 -1.8239
  195MOL0     H26291   6.078   1.042   6.416  1.2341  0.7091 -1.6179
  195MOL0     H26292   5.998   1.199   6.443 -1.2268 -2.0939 -3.0861
  195MOL0     H26293   6.236   1.321   6.434 -0.1165 -1.4895  4.7762
  195MOL0     H26294   6.291   1.162   6.388 -0.0447  0.8126 -2.6762
  195MOL0     H26295   6.137   1.164   6.185  1.6570  0.7894 -0.4458
  195MOL0     H26296   6.278   1.251   6.188 -0.0773 -4.0357 -2.8331
  195MOL0     H26297   6.164   1.463   6.260  1.1918 -0.1128 -0.4072
  195MOL0     H26298   6.009   1.375   6.262  2.0932 -2.0974  4.7224
  195MOL0     H26299   6.183   1.380   6.017  0.3129  2.6412  0.2796
  195MOL0     H26300   6.013   1.322   6.025 -3.0526 -0.3897  3.8956
  195MOL0     H26301   6.094   1.576   5.940  1.3627  0.1650 -0.2817
  195MOL0     H26302   6.088   1.608   6.113  2.1382 -0.5295  0.0331
  195MOL0     H26303   5.841   1.503   5.942  0.9921 -0.8866  0.8785
  195MOL0     H26304   5.838   1.511   6.118  1.5118 -0.7112  1.2157
  195MOL0     H26305   6.455   0.925   6.656 -1.4043  0.8788 -1.8300
  195MOL0     H26306   6.674   1.015   6.677  0.5230 -1.1740 -0.9451
  195MOL0     H26307   6.965   1.251   6.806  2.1458  0.0600  0.6867
  195MOL0     H26308   7.214   1.265   6.820  1.0506 -0.1371 -0.0901
  195MOL0     H26309   8.023   1.070   6.039 -0.1209  0.5958 -3.8093
  195MOL0     H26310   7.891   1.154   5.846 -0.7104  1.0378  1.6192
  195MOL0     H26311   7.447   1.008   5.690  0.5456 -1.9118  0.3403
  195MOL0     H26312   7.244   1.057   5.587 -0.1624  0.2533  1.6269
  195MOL0     H26313   7.098   1.389   5.445  0.0538 -0.5018 -0.2810
  195MOL0     H26314   7.125   1.258   5.569  1.3091  1.9759  1.1791
  195MOL0     H26315   6.906   1.257   5.486 -2.8778 -4.8876 -0.0562
  195MOL0     H26316   6.984   1.105   5.454 -0.5309 -1.1834 -2.0470
  195MOL0     H26317   6.979   1.332   5.257 -1.5502  1.2193  1.7089
  195MOL0     H26318   6.859   1.220   5.234  0.8812 -1.9800 -2.1866
  195MOL0     H26319   6.992   1.151   5.070 -1.9805 -0.6364  0.7790
  195MOL0     H26320   7.146   1.146   5.175  0.8389 -0.5233 -2.8453
  195MOL0     H26321   6.958   0.791   5.293  0.3941  1.8561  1.8570
  195MOL0     H26322   7.425   1.328   5.326  2.7239  0.5054 -0.2268
  195MOL0     H26323   7.678   1.353   5.311  2.1923  1.9782  0.8643
  195MOL0     H26324   7.719   1.388   5.480  3.4343  1.3996 -1.0364
  195MOL0     H26325   7.767   1.230   5.386  0.2117  0.2675  1.5567
  196MOL0     O26326   4.860  11.344   3.460  0.3541 -1.4780 -2.1281
  196MOL0     C26327   4.740  11.330   3.494 -0.8181  1.0287 -0.1095
  196MOL0     O26328   4.691  11.310   3.618  0.4247  0.2850  0.3570
  196MOL0     C26329   4.767  11.279   3.734 -0.9875  0.5373  0.5212
  196MOL0     C26330   4.714  11.198   3.828  0.3056 -0.0677  0.3457
  196MOL0     C26331   4.775  11.150   3.944  1.0615 -0.5973  0.2872
  196MOL0     C26332   4.907  11.184   3.967 -0.0927 -0.6334 -0.6252
  196MOL0     O26333   4.977  11.130   4.078 -0.1125 -0.0057  0.3982
  196MOL0     C26334   5.088  11.047   4.030  0.1484  0.3021 -0.5900
  196MOL0     C26335   5.162  10.996   4.158 -0.1825 -0.2789  0.0402
  196MOL0     C26336   5.067  10.946   4.277 -0.5024  0.5827  0.4377
  196MOL0     C26337   5.157  10.868   4.366  0.6349  0.1629  0.7787
  196MOL0     C26338   5.069  10.764   4.447  0.3682 -0.3217 -0.0859
  196MOL0     C26339   5.023  10.850   4.565 -0.5608  0.9404 -0.4358
  196MOL0     C26340   4.906  10.780   4.646 -0.1297  0.3364  0.3940
  196MOL0     C26341   4.969  10.694   4.761  0.4081 -0.9219  0.5637
  196MOL0     N26342   4.865  10.632   4.856 -0.1714  0.3438  0.2763
  196MOL0     C26343   4.886  10.505   4.920  0.4895 -0.1915 -0.0125
  196MOL0     C26344   4.803  10.508   5.023 -0.6716 -0.0133  0.1823
  196MOL0     C26345   4.796  10.404   5.130 -0.3034  0.4643 -0.0764
  196MOL0     C26346   4.676  10.311   5.127 -1.3905 -0.7008 -0.6677
  196MOL0     C26347   4.665  10.220   5.008  0.1167 -0.0944  0.7143
  196MOL0     C26348   4.529  10.153   5.004  0.1645  0.3984 -0.3166
  196MOL0     O26349   4.511  10.069   5.117 -0.0427 -0.2187 -0.4690
  196MOL0     C26350   4.390  10.021   5.151  0.0079 -0.4061  0.1931
  196MOL0     C26351   4.388   9.916   5.243 -0.1141  0.3857 -0.5051
  196MOL0     C26352   4.278   9.835   5.263 -0.5294  0.3766 -0.3700
  196MOL0     C26353   4.162   9.870   5.201 -0.6868  0.2015  0.4051
  196MOL0     C26354   4.039   9.789   5.227 -0.0092 -0.9334  0.5613
  196MOL0     O26355   4.040   9.690   5.322 -0.2854  0.3382  0.1000
  196MOL0     C26356   3.927   9.610   5.348 -0.4001 -0.7750 -0.4176
  196MOL0     C26357   3.953   9.464   5.363  0.0473 -1.9424 -0.1545
  196MOL0     C26358   3.840   9.381   5.377 -0.1413  0.1070 -0.1046
  196MOL0     C26359   3.710   9.433   5.394 -1.1220 -1.0965  0.1042
  196MOL0     O26360   3.611   9.342   5.420  0.9258 -0.4923  1.3558
  196MOL0     C26361   3.497   9.361   5.327 -0.7011  0.3316  0.2280
  196MOL0     C26362   3.388   9.250   5.347 -0.2111 -1.0085  0.8456
  196MOL0     C26363   3.458   9.118   5.363 -0.4962  0.2701 -0.3875
  196MOL0     C26364   3.525   9.071   5.234 -0.1891  0.5698  0.3572
  196MOL0     C26365   3.565   8.918   5.231  0.0089 -0.8430  0.5687
  196MOL0     C26366   3.438   8.830   5.200  0.5453 -0.2969  0.4850
  196MOL0     C26367   3.415   8.775   5.056 -1.3612  0.3186  0.2142
  196MOL0     C26368   3.284   8.700   5.029 -0.4405  0.0877  0.2154
  196MOL0    Cl26369   3.258   8.566   5.138  0.2228 -0.2412 -0.0781
  196MOL0     C26370   3.690   9.571   5.386  0.1287 -0.1377  0.1499
  196MOL0     C26371   3.803   9.657   5.371 -0.1743 -0.0369  0.1959
  196MOL0     O26372   3.944   9.815   5.157 -0.1489  0.4488 -0.1665
  196MOL0     C26373   4.160   9.988   5.109  0.2966 -0.2536 -0.1501
  196MOL0     C26374   4.268  10.068   5.094  0.0822  0.1040  0.6923
  196MOL0     N26375   4.733  10.629   5.024  0.2023 -1.1536  0.3087
  196MOL0     N26376   4.775  10.702   4.929  0.4139 -0.3407  0.0386
  196MOL0     C26377   4.974  11.263   3.862 -1.4069  0.4532 -0.0228
  196MOL0     C26378   4.900  11.310   3.751 -0.0514 -0.3247 -0.4743
  196MOL0     C26379   4.648  11.342   3.372  1.3023  0.0153  0.5252
  196MOL0     C26380   4.694  11.400   3.251 -0.4234 -0.3319  0.8420
  196MOL0     C26381   4.619  11.409   3.136  1.3429 -0.0587  0.3311
  196MOL0     C26382   4.487  11.357   3.127  0.5820 -0.2444 -0.2214
  196MOL0     O26383   4.411  11.374   3.014  0.1077 -0.1061  0.6413
  196MOL0     C26384   4.434  11.485   2.918 -0.2202  0.0781 -0.2570
  196MOL0     C26385   4.388  11.617   2.979  0.5579 -1.1141 -0.7251
  196MOL0     C26386   4.261  11.621   3.076 -0.3446  0.5315 -0.7135
  196MOL0     C26387   4.259  11.765   3.123 -0.2820  0.2251 -1.0482
  196MOL0     C26388   4.125  11.787   3.185 -0.1578 -0.2039 -0.1540
  196MOL0     C26389   4.013  11.807   3.228 -0.2352  0.3607  0.1307
  196MOL0     C26390   4.434  11.302   3.240 -0.5081 -0.5053  0.4730
  196MOL0     C26391   4.513  11.290   3.359  0.5018 -0.2583 -0.6725
  196MOL0     C26392   4.438  11.226   3.467  0.4665 -0.3117 -0.7330
  196MOL0     H26393   4.610  11.167   3.833  0.3046  0.1314  2.7174
  196MOL0     H26394   4.725  11.067   3.993 -3.7382  0.6433 -1.9678
  196MOL0     H26395   5.055  10.971   3.958  1.6972 -1.1502  0.1779
  196MOL0     H26396   5.148  11.110   3.964  0.8086 -0.3333 -0.6056
  196MOL0     H26397   5.219  11.076   4.205 -1.7267 -0.2022  1.9133
  196MOL0     H26398   5.231  10.917   4.128  2.1859  1.8123 -0.2909
  196MOL0     H26399   4.981  10.892   4.235 -2.2303  4.1651 -1.1007
  196MOL0     H26400   5.043  11.037   4.334  1.8378  0.6737  1.3588
  196MOL0     H26401   5.222  10.802   4.309 -1.6782 -1.6844  0.1131
  196MOL0     H26402   5.206  10.938   4.434 -0.8582  2.9743 -0.8131
  196MOL0     H26403   4.985  10.718   4.394 -0.4176 -3.6348  3.5638
  196MOL0     H26404   5.126  10.676   4.478 -0.5920 -1.8056 -2.2706
  196MOL0     H26405   5.103  10.872   4.636 -1.9129  0.0506  1.4401
  196MOL0     H26406   4.988  10.948   4.533  2.8785  2.6228  0.5075
  196MOL0     H26407   4.841  10.720   4.582 -1.2459 -0.1942  1.9370
  196MOL0     H26408   4.844  10.858   4.692  0.9912 -0.1649  2.9651
  196MOL0     H26409   5.039  10.632   4.705  1.6111  1.8351 -1.2348
  196MOL0     H26410   5.034  10.758   4.821  0.4915  0.6559 -1.1240
  196MOL0     H26411   4.956  10.424   4.899 -0.9570 -1.3685 -0.4560
  196MOL0     H26412   4.882  10.336   5.123 -1.1588 -0.5455 -1.0932
  196MOL0     H26413   4.821  10.460   5.221  3.7202  0.6744 -1.1381
  196MOL0     H26414   4.699  10.228   5.195  2.9319 -0.3220 -1.3828
  196MOL0     H26415   4.589  10.374   5.145 -1.5981 -0.6651 -1.7729
  196MOL0     H26416   4.731  10.132   5.004 -0.1738 -0.2724 -1.7245
  196MOL0     H26417   4.689  10.280   4.920  4.3462 -2.0965  0.2429
  196MOL0     H26418   4.511  10.101   4.909 -0.3654 -2.5427  1.2629
  196MOL0     H26419   4.465  10.240   5.014  1.8581  2.4750 -4.6139
  196MOL0     H26420   4.478   9.898   5.299  0.2719 -0.0220 -1.2396
  196MOL0     H26421   4.287   9.750   5.329 -3.1790  1.3657  1.4346
  196MOL0     H26422   4.053   9.424   5.368  0.9125  0.1989  3.0696
  196MOL0     H26423   3.845   9.273   5.387 -0.3865 -0.1387 -2.1007
  196MOL0     H26424   3.451   9.460   5.326 -1.7682 -0.1061 -2.2472
  196MOL0     H26425   3.537   9.335   5.229  0.3714 -0.4614  0.8593
  196MOL0     H26426   3.332   9.269   5.438  0.5849 -0.3146  1.1955
  196MOL0     H26427   3.311   9.248   5.269 -1.4999  2.5004  1.8528
  196MOL0     H26428   3.533   9.116   5.443 -0.9776 -1.2302  0.0448
  196MOL0     H26429   3.374   9.053   5.388 -0.4538  0.4345  0.2155
  196MOL0     H26430   3.622   9.118   5.220  0.9680 -1.5064  1.0339
  196MOL0     H26431   3.462   9.093   5.148 -4.2903 -4.0054  1.7106
  196MOL0     H26432   3.611   8.890   5.327 -1.1483  1.4124  1.8781
  196MOL0     H26433   3.626   8.896   5.143  0.6247 -0.9483  1.0105
  196MOL0     H26434   3.447   8.753   5.277  1.9179 -0.6816 -0.0426
  196MOL0     H26435   3.346   8.884   5.226  0.9088  1.2048 -1.1067
  196MOL0     H26436   3.501   8.712   5.033 -1.6303 -0.4078  1.1131
  196MOL0     H26437   3.411   8.855   4.982  2.2825 -1.1167 -1.7843
  196MOL0     H26438   3.192   8.758   5.029 -1.3166 -1.2139  1.9956
  196MOL0     H26439   3.284   8.657   4.929 -1.7810 -1.4816  0.8437
  196MOL0     H26440   3.593   9.617   5.399 -0.5929 -1.0863 -1.5910
  196MOL0     H26441   3.789   9.764   5.377  1.6382  0.2335  0.3720
  196MOL0     H26442   4.077  10.035   5.057  1.7859  3.2733  0.3717
  196MOL0     H26443   4.262  10.146   5.018  5.7722 -0.1422 -0.5150
  196MOL0     H26444   5.082  11.272   3.868 -1.3628  2.6233 -2.6497
  196MOL0     H26445   4.951  11.368   3.674 -0.1699  1.5587  0.7871
  196MOL0     H26446   4.793  11.445   3.243  0.1053 -1.7831 -1.6819
  196MOL0     H26447   4.670  11.460   3.055 -1.8407  1.4087 -0.9506
  196MOL0     H26448   4.368  11.463   2.833 -2.1607 -2.1797  1.6682
  196MOL0     H26449   4.539  11.484   2.889 -0.4517 -0.6777 -1.1359
  196MOL0     H26450   4.368  11.676   2.889 -2.1828 -0.1096  0.4376
  196MOL0     H26451   4.477  11.654   3.030 -1.6564  0.4992  2.3027
  196MOL0     H26452   4.264  11.544   3.154 -3.1173  1.7596  0.7788
  196MOL0     H26453   4.169  11.595   3.022 -0.8494  1.2117 -0.1926
  196MOL0     H26454   4.339  11.784   3.195 -0.1540 -4.2871  0.2676
  196MOL0     H26455   4.270  11.835   3.039  0.2914  3.4695  1.5403
  196MOL0     H26456   3.917  11.839   3.264 -0.4214 -0.4795  0.4188
  196MOL0     H26457   4.331  11.267   3.231 -0.7734  0.3460  0.1239
  196MOL0     H26458   4.497  11.164   3.534 -2.5692 -0.4720  2.0327
  196MOL0     H26459   4.386  11.298   3.530 -1.9617 -1.4773 -1.2778
  196MOL0     H26460   4.358  11.161   3.430 -2.5422  1.1036  2.6277
  197MOL0     O26461   4.845  10.507   4.477 -0.3583  0.2687 -0.4230
  197MOL0     C26462   4.762  10.414   4.471 -0.1636 -0.2388  0.0790
  197MOL0     O26463   4.646  10.418   4.400 -0.2401 -0.6319 -0.9765
  197MOL0     C26464   4.627  10.539   4.334 -1.3447  0.7244  0.1364
  197MOL0     C26465   4.504  10.601   4.355  0.1639 -0.3129  0.6013
  197MOL0     C26466   4.476  10.723   4.280  0.7740 -0.3996 -0.5277
  197MOL0     C26467   4.563  10.778   4.187  0.7683 -0.7987  0.4371
  197MOL0     O26468   4.529  10.886   4.107  0.5460 -0.1941 -0.2707
  197MOL0     C26469   4.443  10.995   4.158 -0.0848  0.1788  0.9465
  197MOL0     C26470   4.502  11.073   4.270  0.9370  0.5070 -0.9647
  197MOL0     C26471   4.636  11.137   4.227 -0.2201  0.7601 -0.9796
  197MOL0     C26472   4.685  11.237   4.335 -0.5083  0.3074  0.5589
  197MOL0     C26473   4.782  11.341   4.283  0.8468  0.3952  0.4885
  197MOL0     C26474   4.882  11.407   4.378  1.0730 -0.2750  0.7553
  197MOL0     C26475   4.968  11.311   4.448  0.2062  0.1969  0.4866
  197MOL0     C26476   5.071  11.394   4.517  0.7327  0.0617  0.3619
  197MOL0     N26477   5.014  11.487   4.623 -0.2487  0.3921  0.7814
  197MOL0     C26478   4.919  11.475   4.723  0.6405  0.6843  1.7528
  197MOL0     C26479   4.876  11.600   4.757 -0.0258 -0.0233 -0.3285
  197MOL0     C26480   4.775  11.643   4.842  0.1960 -0.0814  0.0354
  197MOL0     C26481   4.649  11.565   4.811 -0.9812  0.5043 -0.0534
  197MOL0     C26482   4.523  11.636   4.863 -0.0992 -0.1715 -0.2881
  197MOL0     C26483   4.480  11.762   4.799  0.0821  0.6995 -0.9055
  197MOL0     O26484   4.416  11.747   4.672  0.0554 -0.0381  0.7655
  197MOL0     C26485   4.502  11.763   4.553  0.0255 -0.1432 -1.4135
  197MOL0     C26486   4.441  11.741   4.429 -0.3154  1.0187  0.8068
  197MOL0     C26487   4.504  11.747   4.307  0.3449 -0.5943 -0.1594
  197MOL0     C26488   4.645  11.775   4.303 -0.0331 -0.2077  0.0225
  197MOL0     C26489   4.710  11.773   4.170 -0.3652 -0.0550  0.6290
  197MOL0     O26490   4.842  11.750   4.175  1.0371 -0.0414 -0.3873
  197MOL0     C26491   4.936  11.735   4.078 -0.1653  0.0345 -0.0629
  197MOL0     C26492   4.916  11.775   3.952 -0.0566  0.4145 -0.4552
  197MOL0     C26493   5.009  11.753   3.857  0.2247 -0.3277 -0.1401
  197MOL0     C26494   5.126  11.697   3.887  0.4967  0.1975  0.4259
  197MOL0     O26495   5.225  11.691   3.786  0.3552 -0.7205  0.8005
  197MOL0     C26496   5.348  11.628   3.828  0.0330 -0.3975  1.1036
  197MOL0     C26497   5.455  11.625   3.717 -0.3771  0.7814  0.5553
  197MOL0     C26498   5.467  11.744   3.638 -0.0884  0.1758 -0.5260
  197MOL0     C26499   5.594  11.722   3.540  0.3392  0.3325 -0.6642
  197MOL0     C26500   5.578  11.817   3.425 -0.3409  1.3555  0.7993
  197MOL0     C26501   5.687  11.819   3.322 -0.0688 -0.5376 -0.7231
  197MOL0     C26502   5.677  11.933   3.235  0.0359  0.4108  0.1317
  197MOL0     C26503   5.783  11.926   3.134 -0.4537 -0.1809 -0.5466
  197MOL0    Cl26504   5.939  11.975   3.221  0.1412 -0.0275 -0.1251
  197MOL0     C26505   5.150  11.663   4.023 -1.1290  0.0034 -0.5367
  197MOL0     C26506   5.053  11.680   4.117  0.4025  0.6468 -0.3350
  197MOL0     O26507   4.642  11.767   4.070  0.0953 -0.9843  0.3026
  197MOL0     C26508   4.717  11.798   4.430 -0.3597 -0.3469  0.0832
  197MOL0     C26509   4.641  11.790   4.550 -0.0706 -1.1230  0.4628
  197MOL0     N26510   4.950  11.687   4.684 -0.1652 -0.4627 -0.0296
  197MOL0     N26511   5.028  11.620   4.599 -0.8577 -0.5572  0.3637
  197MOL0     C26512   4.692  10.715   4.180 -0.1236 -0.2290  0.2944
  197MOL0     C26513   4.721  10.595   4.244  0.0389  0.0084  0.2803
  197MOL0     C26514   4.793  10.304   4.565  0.4381  0.5186  0.3987
  197MOL0     C26515   4.686  10.228   4.611 -0.1698 -0.7512  0.5476
  197MOL0     C26516   4.699  10.129   4.691  0.1334  0.6466  0.4920
  197MOL0     C26517   4.820  10.083   4.735 -0.4868 -0.9034 -1.4703
  197MOL0     O26518   4.823   9.965   4.810 -0.1831 -0.7841 -0.7329
  197MOL0     C26519   4.931   9.872   4.802 -0.0800  1.2294 -0.3444
  197MOL0     C26520   4.872   9.744   4.858 -0.2232  0.0685 -0.6289
  197MOL0     C26521   4.850   9.761   5.004 -0.4749 -0.2909  0.3843
  197MOL0     C26522   4.742   9.681   5.056  0.9111  1.0153  0.4985
  197MOL0     C26523   4.720   9.700   5.199  0.2345  0.0254  0.1115
  197MOL0     C26524   4.717   9.723   5.321 -0.0237 -0.3868  0.6762
  197MOL0     C26525   4.929  10.166   4.710  0.1179 -0.2182 -0.0550
  197MOL0     C26526   4.917  10.267   4.619  0.5916 -0.5850 -0.8172
  197MOL0     C26527   5.053  10.333   4.585  0.3540 -0.0821 -0.8469
  197MOL0     H26528   4.425  10.560   4.417 -1.5288 -1.7630 -2.3055
  197MOL0     H26529   4.379  10.765   4.305  0.9510 -1.7192  2.8885
  197MOL0     H26530   4.422  11.065   4.076 -0.6532  0.3453  1.2292
  197MOL0     H26531   4.349  10.951   4.190 -1.7323  0.1782 -3.2933
  197MOL0     H26532   4.513  11.000   4.350 -1.9855  1.0380  0.0653
  197MOL0     H26533   4.429  11.151   4.295  2.2560  1.3063  0.5690
  197MOL0     H26534   4.610  11.194   4.137 -1.8553  0.1955 -0.9044
  197MOL0     H26535   4.710  11.060   4.202  1.2213  1.0696  1.9426
  197MOL0     H26536   4.600  11.295   4.372 -0.1952 -1.1320  3.8490
  197MOL0     H26537   4.723  11.182   4.421 -0.7744  2.0786  1.8529
  197MOL0     H26538   4.839  11.300   4.200 -0.0500 -0.2340  0.1666
  197MOL0     H26539   4.720  11.422   4.242 -1.9192 -1.2847  1.0643
  197MOL0     H26540   4.936  11.478   4.314  2.0954 -1.7671 -0.1060
  197MOL0     H26541   4.826  11.459   4.455  4.0306  0.1474  2.7613
  197MOL0     H26542   5.010  11.255   4.364 -0.4864  0.9100 -0.3579
  197MOL0     H26543   4.915  11.241   4.513 -0.3171 -1.3115 -1.4614
  197MOL0     H26544   5.133  11.319   4.566  0.6653 -1.2955 -1.5665
  197MOL0     H26545   5.132  11.441   4.439  1.2193 -2.4449 -0.8562
  197MOL0     H26546   4.877  11.389   4.775 -4.5654  2.3460  0.8445
  197MOL0     H26547   4.791  11.637   4.950 -1.0744  2.5320  0.4539
  197MOL0     H26548   4.767  11.750   4.821 -1.3154 -0.2702 -0.4494
  197MOL0     H26549   4.653  11.549   4.703  0.5193  0.8014 -0.0665
  197MOL0     H26550   4.651  11.469   4.864 -0.0657  0.7875  0.4470
  197MOL0     H26551   4.532  11.667   4.967 -3.1645  0.6103 -0.1790
  197MOL0     H26552   4.441  11.564   4.862 -2.1095  1.8960  2.1606
  197MOL0     H26553   4.569  11.826   4.788  0.6530  0.0603 -0.0623
  197MOL0     H26554   4.412  11.819   4.862  0.4406 -0.8402  0.9681
  197MOL0     H26555   4.334  11.723   4.423  0.1210 -1.5020 -1.8734
  197MOL0     H26556   4.450  11.760   4.214 -2.5003  1.3912  1.6121
  197MOL0     H26557   4.828  11.823   3.912  0.3056  2.0163  0.5789
  197MOL0     H26558   4.973  11.756   3.754 -2.8343  0.5549  0.8271
  197MOL0     H26559   5.394  11.676   3.915  0.1797 -1.7264  1.7787
  197MOL0     H26560   5.323  11.526   3.857 -0.3250 -0.9623 -1.0098
  197MOL0     H26561   5.552  11.602   3.764  0.9549  2.1431 -1.3685
  197MOL0     H26562   5.429  11.537   3.658 -4.1340  0.6617  2.1278
  197MOL0     H26563   5.375  11.764   3.583 -2.5723 -2.5942  2.2736
  197MOL0     H26564   5.481  11.836   3.696 -2.3773  0.5491 -0.4938
  197MOL0     H26565   5.585  11.619   3.502 -1.9283  0.7632 -1.4236
  197MOL0     H26566   5.688  11.735   3.595 -2.0699 -0.0282  3.9867
  197MOL0     H26567   5.568  11.917   3.467 -2.1505  1.6689 -0.2774
  197MOL0     H26568   5.483  11.799   3.376  1.9658 -1.0367 -3.3643
  197MOL0     H26569   5.786  11.814   3.368  0.2860 -1.9703 -1.5686
  197MOL0     H26570   5.672  11.739   3.248 -3.4300  1.6406 -2.7149
  197MOL0     H26571   5.681  12.033   3.281  2.0061  0.3518  0.1811
  197MOL0     H26572   5.583  11.926   3.180 -0.7407  0.0183  1.4493
  197MOL0     H26573   5.786  11.825   3.092  1.6268 -2.1673  3.7375
  197MOL0     H26574   5.760  12.007   3.065 -0.9762  0.5245  0.4188
  197MOL0     H26575   5.239  11.612   4.056 -0.6901  1.2761  0.3003
  197MOL0     H26576   5.061  11.643   4.218 -0.4716  0.1727 -0.4318
  197MOL0     H26577   4.822  11.826   4.433 -0.9362  1.9817  0.3597
  197MOL0     H26578   4.694  11.830   4.635 -1.5672  3.6595 -0.5198
  197MOL0     H26579   4.763  10.764   4.114 -1.9387  3.7365  0.9591
  197MOL0     H26580   4.808  10.534   4.224 -0.0949 -0.1630  0.2196
  197MOL0     H26581   4.591  10.242   4.559  0.1126 -1.3735 -0.1642
  197MOL0     H26582   4.609  10.075   4.719 -0.2014 -0.3555 -2.1898
  197MOL0     H26583   5.025   9.893   4.855  2.7454 -0.2498 -4.2647
  197MOL0     H26584   4.954   9.858   4.696 -1.4487 -1.5276 -0.3456
  197MOL0     H26585   4.941   9.660   4.848  0.8230  0.3357  3.1339
  197MOL0     H26586   4.777   9.722   4.806 -0.9919 -2.6328  1.6689
  197MOL0     H26587   4.835   9.866   5.031  0.0889  0.7681 -2.9713
  197MOL0     H26588   4.939   9.726   5.058  1.7328  1.1199 -2.1008
  197MOL0     H26589   4.646   9.720   5.021  0.7350 -0.6163 -0.9795
  197MOL0     H26590   4.762   9.575   5.039 -2.1500  0.4969 -0.5107
  197MOL0     H26591   4.739   9.755   5.421 -3.4958  1.1725  1.0898
  197MOL0     H26592   5.022  10.131   4.755 -0.6636  1.3168  3.0197
  197MOL0     H26593   5.134  10.261   4.573  0.6947  0.1837 -0.2389
  197MOL0     H26594   5.058  10.392   4.493  2.6334  1.8710  0.3823
  197MOL0     H26595   5.100  10.394   4.664  3.2385 -3.3357  0.2004
  198MOL0     O26596   4.560   2.717   9.802  0.9032  0.2989  0.1022
  198MOL0     C26597   4.458   2.753   9.745  0.3505 -0.0095  0.4867
  198MOL0     O26598   4.339   2.680   9.753 -0.6201  0.4891 -0.0074
  198MOL0     C26599   4.330   2.619   9.873  0.3241 -0.6693  0.0228
  198MOL0     C26600   4.337   2.684   9.995 -0.1127 -0.4776 -0.2194
  198MOL0     C26601   4.304   2.614  10.116 -1.0788 -0.0982 -0.1036
  198MOL0     C26602   4.272   2.475  10.115  0.0225  0.4315 -0.0819
  198MOL0     O26603   4.214   2.430  10.239  0.1552  0.4618  0.5870
  198MOL0     C26604   4.098   2.348  10.211  0.1465 -0.7848 -0.2228
  198MOL0     C26605   4.011   2.332  10.334  0.2570  0.8494  0.4208
  198MOL0     C26606   3.944   2.463  10.372 -0.2800  0.4659  0.9569
  198MOL0     C26607   3.852   2.524  10.273  0.0709 -0.5658  0.3955
  198MOL0     C26608   3.754   2.620  10.341 -0.0344 -0.1331  0.5206
  198MOL0     C26609   3.631   2.649  10.248 -0.4691  0.6022  0.0684
  198MOL0     C26610   3.531   2.753  10.314 -0.1405  0.2826 -0.9341
  198MOL0     C26611   3.560   2.903  10.310 -0.7808  0.0514 -0.5403
  198MOL0     N26612   3.558   2.952  10.169 -1.4064  0.3255  0.1480
  198MOL0     C26613   3.446   2.972  10.088 -0.8269  1.0321 -0.3590
  198MOL0     C26614   3.491   3.019   9.976 -1.0114  0.7002  0.5025
  198MOL0     C26615   3.403   3.066   9.861 -0.3751  0.3548  0.8351
  198MOL0     C26616   3.460   3.070   9.725 -0.1629 -0.1632  1.5282
  198MOL0     C26617   3.498   2.926   9.685 -0.4762 -0.0643 -0.1263
  198MOL0     C26618   3.396   2.881   9.583  0.1072  0.4071  0.4965
  198MOL0     O26619   3.267   2.844   9.639 -0.9559 -0.0098  0.2015
  198MOL0     C26620   3.168   2.806   9.561 -0.8469  0.4553  0.1948
  198MOL0     C26621   3.040   2.808   9.600  0.7656 -0.6108 -0.3053
  198MOL0     C26622   2.926   2.766   9.524 -0.1166  0.3734 -0.3694
  198MOL0     C26623   2.951   2.711   9.397 -0.4508 -0.6605  0.2497
  198MOL0     C26624   2.840   2.664   9.312 -0.9949  0.5782  0.7190
  198MOL0     O26625   2.867   2.649   9.177 -0.4203 -0.1422 -0.4055
  198MOL0     C26626   2.764   2.614   9.098 -0.9209  0.4935  1.0725
  198MOL0     C26627   2.688   2.500   9.134  0.3175 -0.2781  0.1537
  198MOL0     C26628   2.587   2.446   9.038  0.7073 -0.1293  0.0740
  198MOL0     C26629   2.575   2.496   8.906  0.8135 -0.1435 -0.2681
  198MOL0     O26630   2.500   2.426   8.812 -1.0484 -0.5550  0.0312
  198MOL0     C26631   2.432   2.499   8.705  0.4480  0.0148  0.6126
  198MOL0     C26632   2.325   2.412   8.660 -0.5401  0.2098  0.0962
  198MOL0     C26633   2.228   2.462   8.549 -0.0372 -0.8838  0.3650
  198MOL0     C26634   2.159   2.588   8.591 -0.4229  0.1755 -0.3571
  198MOL0     C26635   2.048   2.595   8.496  0.9222 -0.8700  0.2508
  198MOL0     C26636   1.967   2.732   8.505 -0.2270  0.1557 -0.4246
  198MOL0     C26637   2.047   2.863   8.487 -0.0589  1.0369 -0.4850
  198MOL0     C26638   2.012   2.953   8.609 -0.3491 -0.0256  0.3327
  198MOL0    Cl26639   1.827   2.990   8.606  0.6200  0.1798  0.4806
  198MOL0     C26640   2.658   2.609   8.879  0.3375  0.1659 -0.3414
  198MOL0     C26641   2.746   2.662   8.970 -0.2155  0.2576 -0.1372
  198MOL0     O26642   2.732   2.643   9.367  0.3297 -0.6335  0.1494
  198MOL0     C26643   3.082   2.705   9.353 -0.6655 -0.6050 -0.5312
  198MOL0     C26644   3.192   2.750   9.434  1.0557  0.1028 -0.0990
  198MOL0     N26645   3.631   3.040   9.983  0.5231 -0.6984 -0.0789
  198MOL0     N26646   3.662   3.010  10.102 -0.6731  0.3856 -0.2279
  198MOL0     C26647   4.289   2.408   9.995  0.3627 -0.2924 -1.2902
  198MOL0     C26648   4.307   2.482   9.876  0.6001  0.3053  0.7718
  198MOL0     C26649   4.469   2.882   9.664 -0.1566  0.4586 -0.2435
  198MOL0     C26650   4.337   2.933   9.616  0.3081  0.6514 -0.0895
  198MOL0     C26651   4.332   3.054   9.551 -0.2834 -0.0640 -0.5174
  198MOL0     C26652   4.445   3.124   9.513 -0.0969  0.6000 -0.6074
  198MOL0     O26653   4.438   3.229   9.428  0.2498  0.1263  0.6488
  198MOL0     C26654   4.307   3.261   9.361 -0.6815  0.2846 -0.4952
  198MOL0     C26655   4.321   3.388   9.272 -0.2232 -0.3654  0.1901
  198MOL0     C26656   4.426   3.354   9.166 -1.1639 -0.0412  0.2913
  198MOL0     C26657   4.447   3.471   9.071 -0.2219  0.0476  0.1154
  198MOL0     C26658   4.401   3.439   8.933  0.3756  0.7972 -0.8534
  198MOL0     C26659   4.365   3.425   8.811 -0.9523  0.0432  0.0209
  198MOL0     C26660   4.569   3.085   9.564  0.6120 -0.4027 -1.6779
  198MOL0     C26661   4.586   2.970   9.636  0.1153  0.4672  0.1490
  198MOL0     C26662   4.729   2.933   9.674  0.8115 -0.1632  0.1181
  198MOL0     H26663   4.356   2.790  10.005 -1.1162 -0.3841  0.9566
  198MOL0     H26664   4.269   2.663  10.206 -2.5608  1.5105 -1.4910
  198MOL0     H26665   4.038   2.383  10.127  2.6678  1.6272 -1.1641
  198MOL0     H26666   4.141   2.250  10.187  3.5430  0.3912  0.4038
  198MOL0     H26667   4.066   2.279  10.411 -0.2532  0.1179  0.2958
  198MOL0     H26668   3.929   2.263  10.311  1.6139 -0.3497 -0.9704
  198MOL0     H26669   4.020   2.541  10.385 -0.7228  1.0632  0.0557
  198MOL0     H26670   3.900   2.460  10.472 -0.8869  0.3144  0.6877
  198MOL0     H26671   3.904   2.578  10.193 -0.1252  3.3242  2.6255
  198MOL0     H26672   3.792   2.440  10.237 -2.9755 -0.2589  4.0453
  198MOL0     H26673   3.731   2.586  10.442  1.5150 -1.3441  0.4954
  198MOL0     H26674   3.809   2.714  10.352 -0.6657  0.1806  1.0879
  198MOL0     H26675   3.657   2.690  10.151 -0.2094 -0.8160 -0.4818
  198MOL0     H26676   3.574   2.555  10.253  4.1930 -2.6543 -0.7573
  198MOL0     H26677   3.527   2.727  10.420  0.5500  4.2409  0.2413
  198MOL0     H26678   3.435   2.725  10.269 -0.9792 -2.3623  2.1759
  198MOL0     H26679   3.487   2.958  10.370 -0.6061 -1.1038  0.7650
  198MOL0     H26680   3.655   2.925  10.360 -0.5704  1.5269 -1.5345
  198MOL0     H26681   3.344   2.953  10.120 -0.4084  3.1008  2.6490
  198MOL0     H26682   3.319   2.997   9.852 -0.8565  1.1171 -0.9363
  198MOL0     H26683   3.363   3.164   9.889 -1.4701 -0.3168  1.7046
  198MOL0     H26684   3.388   3.112   9.655 -1.0655 -2.1503  1.2027
  198MOL0     H26685   3.549   3.134   9.718 -2.0236  2.6342  1.6553
  198MOL0     H26686   3.505   2.857   9.770  1.1327  0.3073  0.0816
  198MOL0     H26687   3.597   2.922   9.639  0.2133  0.6364  1.2184
  198MOL0     H26688   3.436   2.790   9.539  0.4140  0.4430  0.6995
  198MOL0     H26689   3.382   2.962   9.511  0.6563 -0.8662 -1.0989
  198MOL0     H26690   3.031   2.835   9.705  0.7934  0.4434 -0.5688
  198MOL0     H26691   2.825   2.765   9.564 -0.8972 -0.0758 -2.2912
  198MOL0     H26692   2.726   2.457   9.226  4.7186  2.3072 -0.1970
  198MOL0     H26693   2.536   2.358   9.078  0.6339  0.0809  0.4517
  198MOL0     H26694   2.386   2.590   8.742  0.4114 -0.6456  2.2640
  198MOL0     H26695   2.495   2.525   8.619 -1.6628  2.4015 -0.3267
  198MOL0     H26696   2.376   2.321   8.627 -0.6164  0.3703 -0.4824
  198MOL0     H26697   2.254   2.382   8.737  0.7527 -4.0249 -0.0961
  198MOL0     H26698   2.289   2.478   8.460  2.3404 -1.5172  1.7844
  198MOL0     H26699   2.149   2.386   8.545  0.7577 -1.9447  2.7677
  198MOL0     H26700   2.227   2.673   8.583 -1.3545  1.1838  1.7858
  198MOL0     H26701   2.123   2.577   8.694 -0.5454  1.6019 -0.2298
  198MOL0     H26702   1.974   2.519   8.522  0.2639  0.2085  1.7140
  198MOL0     H26703   2.074   2.588   8.390 -2.9289 -1.6431 -0.7878
  198MOL0     H26704   1.869   2.724   8.456 -1.7224 -0.4627  2.4737
  198MOL0     H26705   1.934   2.723   8.608 -1.9851 -1.2565 -1.0591
  198MOL0     H26706   2.013   2.919   8.400 -1.8201 -0.3202 -0.7278
  198MOL0     H26707   2.154   2.842   8.491 -0.2852 -0.0049  1.4150
  198MOL0     H26708   2.024   2.902   8.704 -3.0323 -2.1265 -0.3292
  198MOL0     H26709   2.081   3.038   8.611  0.3494 -0.5720  3.1834
  198MOL0     H26710   2.639   2.643   8.777 -0.5721 -1.1853 -0.6399
  198MOL0     H26711   2.802   2.744   8.925  1.3701 -0.8590 -0.3084
  198MOL0     H26712   3.103   2.668   9.253 -0.6887  4.2628 -2.6524
  198MOL0     H26713   3.285   2.734   9.379 -1.1740  0.7164 -4.5089
  198MOL0     H26714   4.279   2.300   9.988 -0.8094 -0.3873  1.1163
  198MOL0     H26715   4.312   2.436   9.778 -0.1585 -0.7424  1.2112
  198MOL0     H26716   4.248   2.877   9.640 -0.6717  1.4525 -1.6462
  198MOL0     H26717   4.235   3.084   9.511  0.2461 -0.5050 -2.2447
  198MOL0     H26718   4.225   3.280   9.430 -1.2373 -0.9729 -0.7843
  198MOL0     H26719   4.286   3.172   9.301  1.0974 -0.3184 -0.2838
  198MOL0     H26720   4.371   3.473   9.319  1.5769 -0.9049 -0.6580
  198MOL0     H26721   4.227   3.419   9.225  0.6056 -0.6483 -1.7923
  198MOL0     H26722   4.404   3.269   9.101  1.0901 -0.1274 -0.4559
  198MOL0     H26723   4.518   3.339   9.224 -0.6398 -0.2206 -0.5599
  198MOL0     H26724   4.390   3.560   9.102 -2.7567 -1.3856 -0.1797
  198MOL0     H26725   4.552   3.500   9.064 -0.5071  0.9278 -0.8130
  198MOL0     H26726   4.327   3.424   8.710  1.1735  2.3170 -0.9304
  198MOL0     H26727   4.655   3.147   9.545  1.2111 -0.0840  1.6105
  198MOL0     H26728   4.801   2.999   9.625  1.4054 -0.7316  0.2073
  198MOL0     H26729   4.731   2.938   9.783 -2.4955  0.0834  0.2742
  198MOL0     H26730   4.743   2.828   9.647  0.4612  0.3799 -2.4519
  199MOL0     O26731   8.933   8.565   1.720  0.7132  0.2852  0.2133
  199MOL0     C26732   8.931   8.444   1.687 -0.5005 -0.6241  0.1521
  199MOL0     O26733   9.004   8.395   1.588  0.1353  1.3472  0.5741
  199MOL0     C26734   9.105   8.471   1.530 -0.1531  0.0927  0.6644
  199MOL0     C26735   9.238   8.433   1.531 -0.3876 -0.4393  0.3805
  199MOL0     C26736   9.341   8.510   1.475  1.3201 -0.5981 -1.0320
  199MOL0     C26737   9.312   8.639   1.417  0.2836 -0.4673 -0.2037
  199MOL0     O26738   9.408   8.722   1.357  0.4714 -0.0750 -0.5967
  199MOL0     C26739   9.545   8.668   1.351 -0.1213 -0.1823  0.7939
  199MOL0     C26740   9.633   8.767   1.267  0.0438  0.8977 -0.0004
  199MOL0     C26741   9.659   8.903   1.336  1.6803 -0.0190  0.1322
  199MOL0     C26742   9.741   8.888   1.464 -0.1196 -0.8627  0.5349
  199MOL0     C26743   9.781   9.026   1.519  0.5959 -0.0842  0.1970
  199MOL0     C26744   9.664   9.131   1.536  0.3208  0.8161 -0.3455
  199MOL0     C26745   9.688   9.218   1.657 -0.7668  0.4329 -0.2218
  199MOL0     C26746   9.818   9.311   1.619 -0.2464 -0.0695 -0.4140
  199MOL0     N26747   9.846   9.397   1.733 -0.6900  0.6061  0.6552
  199MOL0     C26748   9.950   9.377   1.819 -0.1071  0.8051  0.4806
  199MOL0     C26749   9.936   9.470   1.907  0.5812  0.2729 -0.2937
  199MOL0     C26750  10.040   9.485   2.014  0.3702  0.2167 -0.2375
  199MOL0     C26751   9.967   9.512   2.150 -0.7774 -0.3366  0.3287
  199MOL0     C26752  10.050   9.463   2.263  0.2312 -0.2058 -1.4882
  199MOL0     C26753  10.190   9.520   2.285 -0.1231  0.5953 -0.0302
  199MOL0     O26754  10.204   9.526   2.428 -0.3405  0.1202 -0.7806
  199MOL0     C26755  10.332   9.555   2.477  0.2648 -0.5957  0.5981
  199MOL0     C26756  10.446   9.576   2.392  0.0859  0.7540  0.7351
  199MOL0     C26757  10.569   9.590   2.446  0.8128  0.5048  0.8861
  199MOL0     C26758  10.585   9.607   2.587  0.5353  0.1140  0.1971
  199MOL0     C26759  10.721   9.617   2.652  0.7990  0.3546 -0.0987
  199MOL0     O26760  10.821   9.565   2.566 -0.8727 -0.1270 -0.0261
  199MOL0     C26761  10.949   9.556   2.608 -0.2076  0.2675 -0.8572
  199MOL0     C26762  11.025   9.440   2.584  0.0965 -1.1347  0.1081
  199MOL0     C26763  11.161   9.429   2.613  0.1202 -0.8599  0.1909
  199MOL0     C26764  11.228   9.533   2.680  0.2651 -1.0595  0.1050
  199MOL0     O26765  11.360   9.529   2.712 -0.0402  0.3015 -0.3770
  199MOL0     C26766  11.444   9.406   2.690  0.4160 -0.8066  0.2846
  199MOL0     C26767  11.417   9.293   2.785  0.4081  0.1068 -0.8559
  199MOL0     C26768  11.415   9.321   2.939 -0.3879  0.0381  0.4312
  199MOL0     C26769  11.450   9.189   3.022  0.6086  0.1145  0.0486
  199MOL0     C26770  11.608   9.174   3.035 -0.9230  1.1839  0.3152
  199MOL0     C26771  11.668   9.041   3.102  0.8841 -0.7323  0.6219
  199MOL0     C26772  11.601   9.008   3.234 -1.0700  0.4736 -0.8271
  199MOL0     C26773  11.654   8.874   3.276 -1.0740  0.5726 -1.4447
  199MOL0    Cl26774  11.601   8.746   3.172 -0.1795 -0.2533  0.6280
  199MOL0     C26775  11.157   9.649   2.714 -0.3522  0.3521 -0.0894
  199MOL0     C26776  11.018   9.654   2.676  0.2486 -1.5427 -0.6682
  199MOL0     O26777  10.744   9.665   2.768  0.5343  0.7313  0.5781
  199MOL0     C26778  10.476   9.605   2.670 -0.1102  0.2792  0.3867
  199MOL0     C26779  10.349   9.579   2.611  0.1042  0.1502  0.1170
  199MOL0     N26780   9.837   9.557   1.872 -0.1287  0.1035 -0.3652
  199MOL0     N26781   9.775   9.508   1.766 -0.2625  0.5800 -0.0355
  199MOL0     C26782   9.172   8.667   1.405  0.0926  0.0302 -0.0502
  199MOL0     C26783   9.075   8.586   1.461  0.0607 -0.4133 -0.1891
  199MOL0     C26784   8.825   8.357   1.752 -0.6106  0.5873  0.4802
  199MOL0     C26785   8.691   8.390   1.730 -0.2926 -0.1622  0.2322
  199MOL0     C26786   8.591   8.314   1.780  0.6302 -0.6486 -0.9386
  199MOL0     C26787   8.620   8.185   1.823 -0.3389  0.1761 -0.0115
  199MOL0     O26788   8.515   8.108   1.868  0.5670  0.1063 -0.0981
  199MOL0     C26789   8.516   7.969   1.827 -0.8975  0.3844 -1.1281
  199MOL0     C26790   8.387   7.941   1.743 -0.0961  0.8577  0.4630
  199MOL0     C26791   8.414   8.012   1.613 -0.1829 -0.1843 -0.5585
  199MOL0     C26792   8.375   7.917   1.487 -0.3223 -1.2573  0.1031
  199MOL0     C26793   8.238   7.950   1.443  0.3335 -0.0379  0.7480
  199MOL0     C26794   8.125   7.967   1.397  0.2249  0.2695  0.5793
  199MOL0     C26795   8.755   8.151   1.836 -0.7181  0.5452 -0.3742
  199MOL0     C26796   8.859   8.235   1.814  0.4897 -0.7261  0.7246
  199MOL0     C26797   9.002   8.211   1.847  0.4908  0.1622  0.1225
  199MOL0     H26798   9.274   8.343   1.580  2.0362 -0.9335 -2.0837
  199MOL0     H26799   9.442   8.473   1.483  1.0278 -0.9728  1.8554
  199MOL0     H26800   9.581   8.660   1.454 -1.7806  2.4272  1.6579
  199MOL0     H26801   9.552   8.571   1.301  0.1870 -0.2425  0.9520
  199MOL0     H26802   9.598   8.794   1.167 -0.1038 -1.6502 -0.7039
  199MOL0     H26803   9.731   8.721   1.247 -0.0475  0.3367  0.7706
  199MOL0     H26804   9.560   8.940   1.363  1.3176  0.2794 -1.4857
  199MOL0     H26805   9.697   8.986   1.276  1.8132 -0.4978 -0.4585
  199MOL0     H26806   9.679   8.840   1.540 -3.0174  3.0062  0.9150
  199MOL0     H26807   9.830   8.830   1.438  0.9791  1.6540 -1.8489
  199MOL0     H26808   9.829   9.017   1.616  1.0833  0.4159  0.0049
  199MOL0     H26809   9.852   9.077   1.453 -0.7111 -1.2553 -2.2528
  199MOL0     H26810   9.642   9.185   1.443 -1.0663 -0.7490 -0.9706
  199MOL0     H26811   9.569   9.078   1.546  0.8284  0.1757  1.6747
  199MOL0     H26812   9.717   9.167   1.749  2.4309 -2.7876 -2.7149
  199MOL0     H26813   9.609   9.290   1.679  0.2397  0.9482  1.9511
  199MOL0     H26814   9.908   9.252   1.598 -0.7704 -0.4412 -1.7240
  199MOL0     H26815   9.789   9.359   1.526 -1.8246 -0.3928 -0.1112
  199MOL0     H26816  10.023   9.297   1.819 -0.5490  0.3950  0.2662
  199MOL0     H26817  10.088   9.387   2.022  0.0835 -0.1128 -2.1805
  199MOL0     H26818  10.113   9.558   1.981  1.4460 -0.4343  0.6343
  199MOL0     H26819   9.933   9.615   2.164 -0.7633 -0.2252 -0.4503
  199MOL0     H26820   9.876   9.452   2.155  0.1767 -1.7643  1.1658
  199MOL0     H26821  10.050   9.353   2.264 -2.2308 -0.2530 -1.9198
  199MOL0     H26822   9.992   9.486   2.353  0.1304 -0.5801 -1.4549
  199MOL0     H26823  10.199   9.625   2.252  0.4028  0.7167  0.4764
  199MOL0     H26824  10.267   9.468   2.226 -0.9282 -1.5011  0.6854
  199MOL0     H26825  10.434   9.574   2.284  1.0639 -1.7529  0.6090
  199MOL0     H26826  10.652   9.580   2.377 -0.2595  0.4952 -0.4347
  199MOL0     H26827  10.964   9.361   2.540  0.2124 -0.1128 -2.0420
  199MOL0     H26828  11.210   9.335   2.592 -0.6222 -1.7298  2.0932
  199MOL0     H26829  11.438   9.390   2.582  1.4077 -0.1300  0.1158
  199MOL0     H26830  11.549   9.431   2.703  0.0870  1.4692 -0.9086
  199MOL0     H26831  11.315   9.262   2.759 -0.8780  2.3915  1.0840
  199MOL0     H26832  11.487   9.216   2.752 -0.1816 -0.8512  0.0640
  199MOL0     H26833  11.477   9.408   2.964 -1.4573  0.9076  0.1030
  199MOL0     H26834  11.312   9.343   2.966 -1.5966 -3.3678 -0.8666
  199MOL0     H26835  11.399   9.106   2.972  1.9058 -1.0191  0.5214
  199MOL0     H26836  11.410   9.203   3.123 -1.2842  1.3759 -0.8285
  199MOL0     H26837  11.651   9.247   3.104  2.7319  0.6776 -1.1983
  199MOL0     H26838  11.645   9.184   2.933  0.2723 -2.9086  0.1741
  199MOL0     H26839  11.653   8.959   3.031 -0.7528  0.5425 -0.5784
  199MOL0     H26840  11.774   9.062   3.112  0.7705  1.0320 -1.2645
  199MOL0     H26841  11.492   9.001   3.222 -0.9502 -0.1667 -1.5676
  199MOL0     H26842  11.630   9.087   3.304  0.4014  0.0160 -0.8928
  199MOL0     H26843  11.764   8.869   3.276 -0.9039  2.7907 -0.6262
  199MOL0     H26844  11.625   8.848   3.378  0.7963 -2.1872 -1.5151
  199MOL0     H26845  11.197   9.739   2.759 -0.6834  1.5415 -2.0572
  199MOL0     H26846  10.971   9.746   2.710  2.4566  0.8759 -3.5573
  199MOL0     H26847  10.476   9.610   2.779 -1.0377 -1.1194  0.4828
  199MOL0     H26848  10.267   9.564   2.680  1.0082  1.6575  1.5690
  199MOL0     H26849   9.133   8.742   1.336  0.0779 -1.6234 -1.9364
  199MOL0     H26850   8.972   8.615   1.448  0.5524  2.3113  1.2101
  199MOL0     H26851   8.660   8.484   1.685 -3.0511 -1.5094 -0.8636
  199MOL0     H26852   8.489   8.351   1.778  0.2911 -1.4092  0.6722
  199MOL0     H26853   8.509   7.904   1.914 -3.1157  2.1283  0.0842
  199MOL0     H26854   8.613   7.940   1.785 -2.1575 -3.8014 -1.5927
  199MOL0     H26855   8.298   7.983   1.791  0.3353  2.8202 -0.3475
  199MOL0     H26856   8.368   7.835   1.727 -2.4407  1.1179  1.1663
  199MOL0     H26857   8.518   8.044   1.611 -0.3315  0.3578 -0.0063
  199MOL0     H26858   8.367   8.111   1.621  2.8377  1.2116  1.5088
  199MOL0     H26859   8.431   7.942   1.396  2.0883  2.2106  2.3094
  199MOL0     H26860   8.383   7.810   1.508  0.7857 -1.3632 -0.7696
  199MOL0     H26861   8.027   8.000   1.371  0.6092  1.8129  0.9659
  199MOL0     H26862   8.779   8.053   1.877  0.6732  0.4946 -1.2469
  199MOL0     H26863   9.040   8.142   1.770 -0.3414 -0.0355 -0.1182
  199MOL0     H26864   9.059   8.304   1.852 -0.2412  0.5761  0.9084
  199MOL0     H26865   9.014   8.177   1.950  1.7779 -0.7527 -0.2984
  200MOL0     O26866   3.967  10.927   6.542  0.2256 -1.1499  0.4386
  200MOL0     C26867   3.955  10.856   6.634 -0.0624  0.6982  0.5662
  200MOL0     O26868   4.006  10.887   6.761  0.6541 -0.3443  0.5697
  200MOL0     C26869   4.089  10.993   6.776  0.0352 -0.0913  0.7283
  200MOL0     C26870   4.169  11.069   6.680 -0.1590  0.6166  0.1052
  200MOL0     C26871   4.239  11.177   6.726  0.1939 -0.7695  0.2860
  200MOL0     C26872   4.251  11.219   6.850  0.3241  0.3813 -0.0600
  200MOL0     O26873   4.339  11.330   6.875 -0.5703  0.4172  0.1852
  200MOL0     C26874   4.371  11.376   7.009 -0.2369 -0.0049  0.0853
  200MOL0     C26875   4.478  11.488   7.008  0.8575  0.1351  0.0461
  200MOL0     C26876   4.470  11.595   6.900  0.8358 -0.0903 -0.0239
  200MOL0     C26877   4.432  11.562   6.754  0.6752  0.0243 -0.4417
  200MOL0     C26878   4.443  11.680   6.658 -1.1451  0.6393 -0.0376
  200MOL0     C26879   4.586  11.699   6.596 -0.2208  0.2200 -0.2762
  200MOL0     C26880   4.586  11.825   6.505 -0.5649  0.0888 -0.3243
  200MOL0     C26881   4.717  11.847   6.433  0.0523 -0.7490 -0.3663
  200MOL0     N26882   4.741  11.984   6.396 -0.0112 -0.3189  0.5114
  200MOL0     C26883   4.685  12.056   6.298  0.0051 -1.0009  0.1718
  200MOL0     C26884   4.773  12.161   6.275  0.5224  0.7255  0.5324
  200MOL0     C26885   4.742  12.258   6.173  0.5353 -0.7180  2.4294
  200MOL0     C26886   4.706  12.394   6.241  0.3451  0.4186 -0.4057
  200MOL0     C26887   4.551  12.418   6.251 -0.0944 -1.0183 -0.2174
  200MOL0     C26888   4.512  12.568   6.289  0.0835 -0.0407 -0.2383
  200MOL0     O26889   4.515  12.587   6.432  0.1212 -0.3397  0.5366
  200MOL0     C26890   4.527  12.714   6.467  0.6284  0.2095  0.1230
  200MOL0     C26891   4.413  12.794   6.457  0.6937 -0.2157  0.4020
  200MOL0     C26892   4.411  12.931   6.489  0.2717  0.0128 -0.1597
  200MOL0     C26893   4.535  12.993   6.510  0.6301 -0.0248  1.1831
  200MOL0     C26894   4.534  13.135   6.549  0.1837  0.9723 -0.5463
  200MOL0     O26895   4.444  13.220   6.497  0.4714  0.3188 -0.4943
  200MOL0     C26896   4.446  13.349   6.533 -0.0793  0.2093 -0.1402
  200MOL0     C26897   4.539  13.436   6.469 -0.3459  0.3194  0.1326
  200MOL0     C26898   4.552  13.566   6.505  0.0835 -0.6426 -0.2243
  200MOL0     C26899   4.468  13.623   6.598  0.2355 -1.5169  0.5958
  200MOL0     O26900   4.484  13.754   6.642  0.1570  0.0850  1.2166
  200MOL0     C26901   4.620  13.799   6.668  0.5261  0.9497 -0.4125
  200MOL0     C26902   4.630  13.944   6.711 -0.1179  0.2026 -0.2725
  200MOL0     C26903   4.778  13.979   6.746 -0.4789  0.3845  0.1196
  200MOL0     C26904   4.775  14.130   6.790  0.5097 -0.0565  0.3346
  200MOL0     C26905   4.918  14.175   6.805 -0.5557 -0.1133  0.2751
  200MOL0     C26906   4.937  14.317   6.864 -0.2423  0.4963  0.2823
  200MOL0     C26907   4.835  14.417   6.815 -0.4306  0.2009  0.1119
  200MOL0     C26908   4.863  14.457   6.673  0.1078 -0.4620 -0.2693
  200MOL0    Cl26909   4.748  14.593   6.626  0.0158  0.0236  0.6583
  200MOL0     C26910   4.357  13.546   6.646 -0.2273  0.2787 -0.1400
  200MOL0     C26911   4.350  13.407   6.612 -0.3142  0.1217 -1.0072
  200MOL0     O26912   4.621  13.159   6.629  0.2933  0.3319  0.0515
  200MOL0     C26913   4.652  12.917   6.513 -0.3889  0.2495  0.0463
  200MOL0     C26914   4.648  12.778   6.490  0.5799 -0.0779  0.1863
  200MOL0     N26915   4.877  12.149   6.366 -0.1709 -0.1969  0.4786
  200MOL0     N26916   4.860  12.040   6.431 -0.0145 -0.0812 -0.0923
  200MOL0     C26917   4.174  11.152   6.938 -0.1820 -0.4598  0.3438
  200MOL0     C26918   4.092  11.048   6.905 -0.2952 -0.2923 -0.5932
  200MOL0     C26919   3.869  10.730   6.626  0.1853  0.1568  0.2974
  200MOL0     C26920   3.783  10.724   6.515 -0.1009  0.1517  0.0833
  200MOL0     C26921   3.694  10.613   6.511  0.2723 -0.2208 -0.5184
  200MOL0     C26922   3.709  10.498   6.588 -0.7512 -0.9422 -0.2065
  200MOL0     O26923   3.628  10.391   6.565  0.7002 -0.0803  0.5880
  200MOL0     C26924   3.657  10.263   6.619 -0.6078  0.3505 -1.1885
  200MOL0     C26925   3.583  10.159   6.534  0.1532  0.4791  0.7344
  200MOL0     C26926   3.431  10.156   6.571  0.1389 -0.7956 -0.4226
  200MOL0     C26927   3.339  10.097   6.468 -0.7554  0.1639 -0.2031
  200MOL0     C26928   3.215  10.047   6.524 -0.8210 -0.1140 -1.1265
  200MOL0     C26929   3.120   9.982   6.576 -0.4639  0.3037  0.1957
  200MOL0     C26930   3.808  10.509   6.688 -0.1839  0.0671 -0.4238
  200MOL0     C26931   3.887  10.624   6.712  0.1811 -0.4000  0.0189
  200MOL0     C26932   3.997  10.621   6.809  0.5428 -1.4513  0.4920
  200MOL0     H26933   4.184  11.038   6.577 -0.6970 -0.8202  0.4378
  200MOL0     H26934   4.294  11.246   6.662 -4.0930  1.5757 -1.2623
  200MOL0     H26935   4.287  11.423   7.061  1.1698  0.8080  1.7309
  200MOL0     H26936   4.406  11.292   7.070  2.5915  1.0432  0.0816
  200MOL0     H26937   4.575  11.439   6.999  0.0205 -1.5662 -0.0018
  200MOL0     H26938   4.482  11.538   7.106 -0.5459 -1.6035  1.0422
  200MOL0     H26939   4.570  11.640   6.904  0.2736  1.2148 -0.2732
  200MOL0     H26940   4.395  11.669   6.929  0.5929  0.5451 -2.1226
  200MOL0     H26941   4.496  11.481   6.719  0.8096 -1.2412  2.4848
  200MOL0     H26942   4.333  11.518   6.741  0.1730  0.5929  1.1558
  200MOL0     H26943   4.374  11.663   6.576  0.7928 -0.5374 -1.5194
  200MOL0     H26944   4.425  11.774   6.711 -0.7529  2.1109 -2.3757
  200MOL0     H26945   4.661  11.707   6.675  1.7060 -0.9563 -1.8731
  200MOL0     H26946   4.629  11.619   6.535  3.5432  2.1896 -0.5180
  200MOL0     H26947   4.581  11.908   6.576  3.0047 -2.4824  3.3106
  200MOL0     H26948   4.506  11.831   6.430 -1.6840 -0.8507  0.7691
  200MOL0     H26949   4.794  11.816   6.503 -0.3382 -0.9782 -0.0317
  200MOL0     H26950   4.721  11.787   6.342 -3.4897  2.1565 -2.7447
  200MOL0     H26951   4.597  12.049   6.235  0.0714 -2.0059  0.1743
  200MOL0     H26952   4.830  12.268   6.110  0.3918 -1.5195  2.0962
  200MOL0     H26953   4.662  12.219   6.109 -0.7149  2.7347  1.6760
  200MOL0     H26954   4.739  12.391   6.345  1.3196 -1.8664 -0.7384
  200MOL0     H26955   4.763  12.476   6.195  1.7564 -1.2423 -1.7462
  200MOL0     H26956   4.507  12.345   6.320  0.3577 -0.9356  0.1634
  200MOL0     H26957   4.516  12.417   6.147  0.3224  0.5474 -0.4034
  200MOL0     H26958   4.409  12.592   6.262  0.8892  3.1105 -0.9323
  200MOL0     H26959   4.580  12.634   6.235 -0.4946  0.5585 -0.2390
  200MOL0     H26960   4.314  12.761   6.428 -0.0525 -0.4328  2.9338
  200MOL0     H26961   4.320  12.988   6.476  0.2496  0.4106  1.4889
  200MOL0     H26962   4.612  13.406   6.395  0.1087 -2.8919  1.7226
  200MOL0     H26963   4.640  13.613   6.461 -2.1177  1.1097 -3.1272
  200MOL0     H26964   4.666  13.731   6.740  0.5431  1.8214  0.4198
  200MOL0     H26965   4.678  13.796   6.576 -1.1091  1.4984 -1.5239
  200MOL0     H26966   4.587  14.008   6.634 -0.3436 -1.8395 -1.9136
  200MOL0     H26967   4.574  13.964   6.803 -0.8824  1.7024 -1.0309
  200MOL0     H26968   4.821  13.920   6.827 -2.4327 -0.3306  0.6743
  200MOL0     H26969   4.842  13.971   6.658  0.0450 -0.2215  0.5429
  200MOL0     H26970   4.729  14.152   6.886 -1.8617  1.2272 -1.0047
  200MOL0     H26971   4.720  14.192   6.719 -2.0014  2.9369  4.4611
  200MOL0     H26972   4.991  14.155   6.726  0.7421 -1.4830  1.7560
  200MOL0     H26973   4.961  14.113   6.884  3.0389  3.0547  1.1075
  200MOL0     H26974   4.928  14.309   6.972 -0.6577  0.1740  0.2273
  200MOL0     H26975   5.040  14.347   6.842 -0.3406 -0.9019 -2.7332
  200MOL0     H26976   4.845  14.506   6.879 -0.0564  1.4279 -1.5981
  200MOL0     H26977   4.731  14.385   6.830 -0.0366  0.1584  4.0469
  200MOL0     H26978   4.969  14.479   6.657  0.1994 -0.4196  0.3723
  200MOL0     H26979   4.844  14.376   6.602 -0.7286  0.2020 -0.8290
  200MOL0     H26980   4.290  13.587   6.722 -2.8180 -2.1557 -0.9501
  200MOL0     H26981   4.268  13.346   6.648 -0.1284 -0.4653 -1.5595
  200MOL0     H26982   4.744  12.964   6.547  1.1052 -0.5008 -2.6723
  200MOL0     H26983   4.746  12.731   6.482  1.9003  2.5684 -0.3014
  200MOL0     H26984   4.181  11.195   7.038  0.7111  0.3706 -0.0624
  200MOL0     H26985   4.038  10.996   6.983 -1.1895  2.1826  0.5644
  200MOL0     H26986   3.786  10.807   6.445  2.0472  1.7606  1.9328
  200MOL0     H26987   3.614  10.598   6.438 -0.3645 -1.1363  0.3405
  200MOL0     H26988   3.641  10.249   6.726 -0.3369 -0.7156 -1.2749
  200MOL0     H26989   3.766  10.253   6.620 -0.0152  4.8396 -0.2238
  200MOL0     H26990   3.625  10.059   6.546 -1.3737 -0.3307 -0.3131
  200MOL0     H26991   3.594  10.180   6.427 -2.3466 -0.7054  0.1684
  200MOL0     H26992   3.406  10.262   6.584 -0.9743 -0.7842 -2.3255
  200MOL0     H26993   3.415  10.110   6.669  1.4334  0.5677  0.4771
  200MOL0     H26994   3.317  10.175   6.393 -1.0183 -0.7541 -1.0992
  200MOL0     H26995   3.385  10.017   6.409 -0.3347  0.2864 -0.0465
  200MOL0     H26996   3.037   9.925   6.612  0.1554  0.4601  1.9737
  200MOL0     H26997   3.838  10.426   6.751  0.7678 -0.9711 -2.1541
  200MOL0     H26998   3.966  10.684   6.894  0.8020  1.1500 -1.2393
  200MOL0     H26999   4.001  10.521   6.853 -2.1482 -0.9612  2.0816
  200MOL0     H27000   4.093  10.646   6.764 -0.7695 -0.1171 -1.7320
  201MOL0     O27001   9.679   9.973   6.841  0.7070 -0.1130 -0.5180
  201MOL0     C27002   9.579   9.913   6.802 -0.6605  0.0217  0.8323
  201MOL0     O27003   9.530   9.793   6.855  0.2034  0.3028  0.5921
  201MOL0     C27004   9.587   9.743   6.967 -1.0335  0.1932 -1.3297
  201MOL0     C27005   9.720   9.727   6.995 -0.2636 -0.7822  0.7791
  201MOL0     C27006   9.753   9.670   7.113 -0.9721  0.7114  0.3468
  201MOL0     C27007   9.662   9.615   7.204  0.2327  0.0395 -1.1945
  201MOL0     O27008   9.711   9.550   7.320  0.5456  0.6375  0.8845
  201MOL0     C27009   9.655   9.584   7.440  1.4353 -0.6214 -0.6872
  201MOL0     C27010   9.764   9.601   7.553  0.3415 -0.2596  0.2012
  201MOL0     C27011   9.839   9.731   7.536 -0.0548 -0.5947 -0.5049
  201MOL0     C27012   9.744   9.856   7.561 -0.1621  0.4555 -0.1936
  201MOL0     C27013   9.823   9.973   7.591  0.1899 -0.2501 -0.1570
  201MOL0     C27014   9.717  10.073   7.627 -0.4399 -0.8208 -0.0145
  201MOL0     C27015   9.762  10.220   7.614 -0.0027  0.1718  0.4435
  201MOL0     C27016   9.722  10.291   7.478  0.8092 -0.4533 -1.2742
  201MOL0     N27017   9.711  10.439   7.491  0.1500 -0.4854  0.1506
  201MOL0     C27018   9.656  10.520   7.395 -0.1796 -0.2430  0.3630
  201MOL0     C27019   9.626  10.633   7.464 -0.1669 -0.1621 -0.3430
  201MOL0     C27020   9.564  10.757   7.402  0.4549 -0.6677 -0.3646
  201MOL0     C27021   9.429  10.792   7.459 -1.0252  0.2205 -0.0104
  201MOL0     C27022   9.317  10.716   7.401 -0.0435 -0.0078  0.5073
  201MOL0     C27023   9.240  10.803   7.305  0.1611 -0.6363 -0.0625
  201MOL0     O27024   9.315  10.827   7.193  0.2899 -0.1641 -0.6214
  201MOL0     C27025   9.242  10.872   7.087 -0.3649  0.0782 -0.0295
  201MOL0     C27026   9.148  10.786   7.028  0.0955 -0.3899  1.3643
  201MOL0     C27027   9.053  10.836   6.937  0.3230 -0.6073 -0.2201
  201MOL0     C27028   9.044  10.970   6.904 -0.6014  0.3917 -0.1032
  201MOL0     C27029   8.956  11.013   6.794 -0.3233 -0.7164 -0.3518
  201MOL0     O27030   8.884  10.920   6.731  0.7729  0.8540 -0.4484
  201MOL0     C27031   8.792  10.967   6.647 -0.4292  1.1137  0.0395
  201MOL0     C27032   8.816  10.959   6.508 -0.0472  0.4708  0.2425
  201MOL0     C27033   8.737  11.018   6.408  0.4297  0.8850  0.2638
  201MOL0     C27034   8.603  11.057   6.453 -0.2312  0.1934  0.4825
  201MOL0     O27035   8.518  11.088   6.345 -0.1019 -0.2939  0.2295
  201MOL0     C27036   8.402  11.160   6.379  1.3537 -0.4786  0.4797
  201MOL0     C27037   8.323  11.178   6.253  0.8039 -0.7095  1.2489
  201MOL0     C27038   8.378  11.299   6.160 -0.5155  0.1457  0.6386
  201MOL0     C27039   8.517  11.292   6.105 -0.0778  1.3252 -0.0192
  201MOL0     C27040   8.538  11.175   6.009 -0.0632  0.1991 -0.1972
  201MOL0     C27041   8.679  11.184   5.943  0.3550  1.5110  0.6104
  201MOL0     C27042   8.672  11.298   5.835 -0.5949  0.1452  0.0849
  201MOL0     C27043   8.808  11.315   5.768  0.3261  0.0491  1.2223
  201MOL0    Cl27044   8.853  11.194   5.631 -0.1996 -0.3107 -0.0057
  201MOL0     C27045   8.568  11.055   6.592  0.6472 -0.8636 -0.4675
  201MOL0     C27046   8.671  11.010   6.694  0.5301  0.4276  0.0815
  201MOL0     O27047   8.945  11.136   6.774  0.0226  0.1051 -0.4996
  201MOL0     C27048   9.137  11.059   6.961  0.4365  0.0057 -0.4330
  201MOL0     C27049   9.230  11.000   7.053  0.3706 -1.1249  0.0880
  201MOL0     N27050   9.658  10.617   7.599  0.0915 -0.6637 -0.1845
  201MOL0     N27051   9.715  10.500   7.611  0.0840 -0.5053  0.0304
  201MOL0     C27052   9.523   9.638   7.179 -0.1079  0.1014 -0.7765
  201MOL0     C27053   9.486   9.701   7.056  0.4202 -0.2717  0.4228
  201MOL0     C27054   9.522   9.970   6.674 -0.0585  0.2508 -0.7896
  201MOL0     C27055   9.606  10.049   6.594 -0.3917 -0.7084  0.3699
  201MOL0     C27056   9.559  10.108   6.473 -0.5302  0.3344 -0.5037
  201MOL0     C27057   9.433  10.069   6.423  0.6983 -1.2419 -0.3760
  201MOL0     O27058   9.380  10.104   6.303 -0.0122 -0.2828 -0.4410
  201MOL0     C27059   9.439  10.220   6.246 -0.8607 -0.4258  0.0427
  201MOL0     C27060   9.336  10.218   6.137 -0.0338 -0.2122  0.3385
  201MOL0     C27061   9.364  10.332   6.044 -0.2406  0.0433 -0.2980
  201MOL0     C27062   9.251  10.359   5.953 -0.9589  0.5063 -0.5150
  201MOL0     C27063   9.274  10.434   5.823 -0.6110  0.8786 -0.3750
  201MOL0     C27064   9.295  10.471   5.710 -0.0704  0.3369 -0.2887
  201MOL0     C27065   9.348   9.999   6.506  0.2365  1.3782  0.1548
  201MOL0     C27066   9.390   9.958   6.634  0.4228 -0.6513  0.0470
  201MOL0     C27067   9.282   9.891   6.717  0.4365  0.2879 -0.5136
  201MOL0     H27068   9.791   9.772   6.925 -3.4318  0.1704 -2.1044
  201MOL0     H27069   9.858   9.656   7.138 -1.5344  0.3051  2.7223
  201MOL0     H27070   9.595   9.675   7.434 -1.7472 -1.6815  5.8960
  201MOL0     H27071   9.584   9.505   7.464  0.5513  0.6778  1.2264
  201MOL0     H27072   9.837   9.520   7.545 -0.2716 -0.6785 -1.6085
  201MOL0     H27073   9.729   9.608   7.657 -0.2619 -2.4757  0.1898
  201MOL0     H27074   9.858   9.731   7.428 -0.7964 -1.8572 -0.6608
  201MOL0     H27075   9.938   9.725   7.584 -0.2606 -2.1312 -0.2091
  201MOL0     H27076   9.693   9.881   7.467  1.6425 -3.0344 -2.2940
  201MOL0     H27077   9.676   9.835   7.644 -1.0916  2.4208 -0.3846
  201MOL0     H27078   9.897   9.944   7.667 -2.8167 -0.8037  2.7680
  201MOL0     H27079   9.878  10.016   7.507  0.8889  3.9500  2.1650
  201MOL0     H27080   9.626  10.072   7.566 -0.8758  4.7786  0.0473
  201MOL0     H27081   9.687  10.054   7.731  0.1720 -2.2516 -0.0725
  201MOL0     H27082   9.866  10.242   7.641 -0.0024 -1.3156  1.7612
  201MOL0     H27083   9.698  10.271   7.687  0.9407 -0.1069  1.4944
  201MOL0     H27084   9.797  10.275   7.400  4.1668 -5.3336  2.2972
  201MOL0     H27085   9.633  10.250   7.430 -0.7914 -1.3924  2.1465
  201MOL0     H27086   9.623  10.494   7.295 -3.5555  1.9133  0.7642
  201MOL0     H27087   9.639  10.836   7.416  1.4348 -1.7166  0.4772
  201MOL0     H27088   9.536  10.734   7.299 -0.2096 -1.6559  0.0242
  201MOL0     H27089   9.428  10.774   7.567 -1.0992  0.6852  0.0686
  201MOL0     H27090   9.412  10.900   7.458  1.5307  0.6698 -0.0864
  201MOL0     H27091   9.241  10.714   7.481 -0.4227  0.1540  0.1531
  201MOL0     H27092   9.344  10.616   7.366 -0.9375 -0.4628  1.0639
  201MOL0     H27093   9.218  10.901   7.350  4.7287  0.5609  0.0822
  201MOL0     H27094   9.148  10.749   7.280 -0.1465  0.7475 -2.3202
  201MOL0     H27095   9.158  10.679   7.036 -0.1988 -0.8077 -2.4250
  201MOL0     H27096   8.979  10.770   6.893  0.8105 -3.2501  2.5912
  201MOL0     H27097   8.917  10.932   6.479  1.3497  1.7438  3.4386
  201MOL0     H27098   8.763  11.038   6.305 -5.7568 -0.7847 -2.0930
  201MOL0     H27099   8.328  11.103   6.437 -2.3840  0.7775 -2.5919
  201MOL0     H27100   8.418  11.262   6.415 -1.1793  0.8314 -1.7372
  201MOL0     H27101   8.332  11.095   6.182 -0.1652  0.0722  0.1668
  201MOL0     H27102   8.222  11.210   6.279  0.5757  2.3299 -2.4145
  201MOL0     H27103   8.312  11.317   6.074  0.0925 -3.3045 -0.7062
  201MOL0     H27104   8.385  11.391   6.218 -1.6314  1.7262 -1.5637
  201MOL0     H27105   8.581  11.304   6.193 -1.3891  4.8395  0.6082
  201MOL0     H27106   8.532  11.385   6.050  1.0560  0.0239 -2.0390
  201MOL0     H27107   8.466  11.180   5.926 -0.9955  2.4155  0.6530
  201MOL0     H27108   8.524  11.076   6.052 -1.2155  1.0042  1.3646
  201MOL0     H27109   8.765  11.201   6.008 -0.4800  3.3676  1.3285
  201MOL0     H27110   8.697  11.089   5.892 -0.7763 -0.5569  3.7230
  201MOL0     H27111   8.650  11.395   5.881  1.8376  0.6926  0.2346
  201MOL0     H27112   8.592  11.276   5.764 -3.7222  2.3009  2.6761
  201MOL0     H27113   8.811  11.412   5.717  1.4692 -1.0328 -0.9173
  201MOL0     H27114   8.878  11.315   5.851  0.9301  0.8445  0.7241
  201MOL0     H27115   8.475  11.095   6.630  0.8293 -0.3542 -0.5499
  201MOL0     H27116   8.661  11.002   6.802  0.4415 -0.5767  0.0028
  201MOL0     H27117   9.130  11.165   6.938  2.0712 -0.1460 -1.8328
  201MOL0     H27118   9.286  11.074   7.109 -0.1187  0.6178 -1.6329
  201MOL0     H27119   9.448   9.593   7.244  0.8004 -1.8279 -0.9890
  201MOL0     H27120   9.387   9.716   7.016  0.6295  1.9185  0.5842
  201MOL0     H27121   9.708  10.073   6.621 -1.8410  4.4545  2.5169
  201MOL0     H27122   9.623  10.174   6.416 -1.1943 -0.8508 -2.7515
  201MOL0     H27123   9.541  10.197   6.213 -0.6904  1.5871 -0.9756
  201MOL0     H27124   9.429  10.309   6.308  3.9101 -0.6941  1.6093
  201MOL0     H27125   9.236  10.226   6.181 -0.7501 -0.5944 -1.1539
  201MOL0     H27126   9.348  10.121   6.088 -1.2325 -0.0770 -0.2528
  201MOL0     H27127   9.453  10.312   5.983 -1.2386  1.4921 -2.3112
  201MOL0     H27128   9.388  10.425   6.096  1.7130 -1.4714  1.7286
  201MOL0     H27129   9.208  10.260   5.935 -0.1082 -0.3468  1.8417
  201MOL0     H27130   9.190  10.433   6.006  1.5986  3.0654 -0.9389
  201MOL0     H27131   9.292  10.515   5.612 -1.6451  0.9369 -0.0024
  201MOL0     H27132   9.247   9.971   6.478  0.8223  0.4738 -1.1824
  201MOL0     H27133   9.308   9.915   6.820  2.3033  0.7343 -1.0477
  201MOL0     H27134   9.182   9.925   6.688  0.5751 -0.2218 -1.6744
  201MOL0     H27135   9.277   9.782   6.704 -2.2509 -0.1875  2.8570
  202MOL0     O27136  10.891   3.561  10.328 -0.3700  0.3573 -0.2833
  202MOL0     C27137  10.814   3.499  10.397 -0.0703 -1.2298 -0.1127
  202MOL0     O27138  10.743   3.555  10.503  0.3674 -0.3888 -0.5774
  202MOL0     C27139  10.765   3.683  10.537 -0.3461 -0.0717  0.1460
  202MOL0     C27140  10.894   3.721  10.592 -0.7479 -0.1947 -0.1842
  202MOL0     C27141  10.932   3.861  10.599 -0.8109  0.6714  0.5486
  202MOL0     C27142  10.830   3.949  10.580 -1.0073 -0.2168  0.4790
  202MOL0     O27143  10.860   4.085  10.576  0.1224  0.2686  0.3318
  202MOL0     C27144  10.978   4.141  10.638  0.1762  0.0010  0.9646
  202MOL0     C27145  10.937   4.273  10.699  0.5441  1.1480 -0.9100
  202MOL0     C27146  10.986   4.306  10.835  0.8153 -0.2685 -0.1692
  202MOL0     C27147  10.906   4.421  10.900 -0.1559  1.1345  0.2517
  202MOL0     C27148  10.969   4.461  11.032  0.2246  0.3404  0.0069
  202MOL0     C27149  10.930   4.607  11.079 -0.4517 -1.5117  0.2140
  202MOL0     C27150  11.040   4.645  11.178  0.2873  0.3581 -0.2197
  202MOL0     C27151  11.067   4.796  11.205  0.9020 -0.2230 -0.1046
  202MOL0     N27152  11.169   4.807  11.310 -0.3580  0.1893  0.8294
  202MOL0     C27153  11.152   4.795  11.447  0.5172  0.2711  0.4319
  202MOL0     C27154  11.271   4.784  11.512  0.0429 -0.1328  0.0410
  202MOL0     C27155  11.295   4.783  11.663  0.4759  0.3291 -0.5137
  202MOL0     C27156  11.239   4.666  11.751  0.0318 -0.1938  0.2980
  202MOL0     C27157  11.270   4.677  11.899 -1.5021 -0.8630 -0.3795
  202MOL0     C27158  11.182   4.580  11.978  0.9459  0.3975 -0.7946
  202MOL0     O27159  11.167   4.459  11.907 -0.5310  0.7977  0.1088
  202MOL0     C27160  11.241   4.346  11.932 -0.1997 -0.3922 -0.5333
  202MOL0     C27161  11.376   4.330  11.922 -0.1180 -0.0081 -0.8907
  202MOL0     C27162  11.432   4.215  11.966 -0.3703  0.4796  0.5793
  202MOL0     C27163  11.354   4.108  12.013 -0.1892  0.0825  0.2431
  202MOL0     C27164  11.425   3.990  12.052  0.5764 -0.5114 -0.5506
  202MOL0     O27165  11.562   3.977  12.050 -0.7789  0.0853  0.1747
  202MOL0     C27166  11.611   3.846  12.055  0.2186 -0.4153 -0.5026
  202MOL0     C27167  11.650   3.792  11.936  0.3837  0.3956  0.2712
  202MOL0     C27168  11.725   3.671  11.945  0.3767 -0.6840  0.4435
  202MOL0     C27169  11.759   3.611  12.068 -0.5186  0.2343  0.2091
  202MOL0     O27170  11.845   3.505  12.062  1.2764  0.2921  0.3106
  202MOL0     C27171  11.893   3.431  12.176  0.1840 -0.4892  0.6704
  202MOL0     C27172  12.048   3.421  12.157  0.1400 -0.3324  0.6204
  202MOL0     C27173  12.113   3.356  12.286 -0.3691  0.5131  0.2768
  202MOL0     C27174  12.092   3.201  12.293 -0.0309 -0.4275  0.2889
  202MOL0     C27175  12.134   3.138  12.421 -0.1230  0.1969 -0.0702
  202MOL0     C27176  12.279   3.143  12.461  0.9559  0.4387 -0.1887
  202MOL0     C27177  12.324   3.046  12.579 -1.1792 -0.1170 -0.2558
  202MOL0     C27178  12.470   3.014  12.579  0.1110 -0.9473  0.5246
  202MOL0    Cl27179  12.559   3.168  12.612 -0.3764  0.0565 -0.0167
  202MOL0     C27180  11.707   3.672  12.189  0.6880 -0.0509  0.5196
  202MOL0     C27181  11.624   3.786  12.179  0.2442 -0.3060 -0.4382
  202MOL0     O27182  11.352   3.909  12.107 -0.3584 -0.0516  0.4316
  202MOL0     C27183  11.224   4.111  11.989  0.5047  0.2744  0.5373
  202MOL0     C27184  11.164   4.231  11.951 -0.6650  0.1640 -0.3713
  202MOL0     N27185  11.361   4.797  11.411  0.0948  0.3669 -0.2505
  202MOL0     N27186  11.306   4.789  11.289  0.2012 -0.5477 -0.0657
  202MOL0     C27187  10.704   3.910  10.548  0.5519  0.0272 -0.4291
  202MOL0     C27188  10.670   3.785  10.517 -1.8302 -0.3752 -0.2213
  202MOL0     C27189  10.766   3.370  10.359 -1.1788  0.5472  0.3113
  202MOL0     C27190  10.627   3.355  10.378  0.4130 -0.0310  0.3258
  202MOL0     C27191  10.569   3.237  10.328 -1.0242 -0.1133 -0.0147
  202MOL0     C27192  10.646   3.132  10.278 -0.3669 -0.1744  0.2017
  202MOL0     O27193  10.582   3.019  10.237 -0.2849 -0.3808  0.5133
  202MOL0     C27194  10.657   2.905  10.188 -0.8809  0.1871  0.6069
  202MOL0     C27195  10.589   2.765  10.179 -0.4444 -0.8340  1.1618
  202MOL0     C27196  10.654   2.677  10.072 -0.1640 -0.5760  0.3373
  202MOL0     C27197  10.555   2.599   9.976 -0.3230 -0.8997 -0.9487
  202MOL0     C27198  10.491   2.687   9.874  0.4035 -0.6284  0.3753
  202MOL0     C27199  10.424   2.757   9.802  0.1356 -0.6536 -0.5232
  202MOL0     C27200  10.792   3.145  10.275  0.2478 -0.3342 -0.5449
  202MOL0     C27201  10.847   3.267  10.310 -0.2919 -0.1384  0.4137
  202MOL0     C27202  11.001   3.275  10.288  0.1711 -0.6740  0.3002
  202MOL0     H27203  10.969   3.642  10.596  2.2473  2.4351  3.8625
  202MOL0     H27204  11.036   3.883  10.620 -0.5735 -0.1225  0.2634
  202MOL0     H27205  11.001   4.078  10.725  0.5560 -1.9430 -0.4791
  202MOL0     H27206  11.063   4.158  10.572  0.5376  0.9504  1.6478
  202MOL0     H27207  10.828   4.280  10.699  0.6102  2.5048 -1.0606
  202MOL0     H27208  10.965   4.355  10.632 -3.1079  3.4591  0.0603
  202MOL0     H27209  11.090   4.337  10.823  0.1346  1.5568 -2.0183
  202MOL0     H27210  10.989   4.219  10.901  3.0900 -1.7576 -2.0762
  202MOL0     H27211  10.910   4.498  10.822  1.6356 -0.2524 -1.1150
  202MOL0     H27212  10.805   4.392  10.930  0.5213 -0.6351  0.9795
  202MOL0     H27213  10.936   4.393  11.112 -0.8865 -0.0011 -0.7211
  202MOL0     H27214  11.078   4.450  11.027  0.6150  2.5822  1.9755
  202MOL0     H27215  10.915   4.687  11.006 -1.6840  1.1288  3.1398
  202MOL0     H27216  10.837   4.608  11.136 -0.1892  0.4319  0.6827
  202MOL0     H27217  11.133   4.591  11.160  0.7690 -0.2279  3.2085
  202MOL0     H27218  11.007   4.599  11.272 -0.9267  4.0279  1.3578
  202MOL0     H27219  11.108   4.830  11.109 -0.0439 -2.6797 -1.4725
  202MOL0     H27220  10.977   4.855  11.230 -0.1898 -2.4246  1.4656
  202MOL0     H27221  11.055   4.776  11.493  1.4573 -0.6951  2.1362
  202MOL0     H27222  11.403   4.774  11.680  0.3489 -0.5358 -0.1185
  202MOL0     H27223  11.257   4.882  11.692 -1.1327 -0.5016  0.3553
  202MOL0     H27224  11.132   4.680  11.733  0.3311 -0.1917 -1.7617
  202MOL0     H27225  11.276   4.574  11.705 -0.3072 -0.1808  0.0007
  202MOL0     H27226  11.251   4.773  11.948 -0.5843 -0.6051 -0.4973
  202MOL0     H27227  11.375   4.650  11.916  0.3088  5.0351  0.1661
  202MOL0     H27228  11.081   4.621  11.972 -0.3247 -2.4407 -0.2289
  202MOL0     H27229  11.216   4.560  12.080 -0.8044  2.9571  0.3963
  202MOL0     H27230  11.442   4.416  11.913  1.2438 -0.6006  1.9973
  202MOL0     H27231  11.538   4.220  11.991  0.1549  2.3744 -1.6939
  202MOL0     H27232  11.634   3.837  11.839  0.7687  1.6554  0.7706
  202MOL0     H27233  11.763   3.626  11.855 -3.1930  3.5685 -3.6934
  202MOL0     H27234  11.878   3.480  12.272  1.3178 -0.7153  0.9899
  202MOL0     H27235  11.857   3.327  12.175  0.6872 -0.6658 -0.2621
  202MOL0     H27236  12.074   3.366  12.067 -1.7534 -0.1566 -0.0975
  202MOL0     H27237  12.081   3.525  12.144 -2.2382  0.5496  0.8955
  202MOL0     H27238  12.221   3.368  12.281 -0.0847 -0.8521  1.9151
  202MOL0     H27239  12.066   3.398  12.376  0.4904 -0.0480  1.0030
  202MOL0     H27240  12.149   3.149  12.215 -0.8262 -1.4816  0.3914
  202MOL0     H27241  11.988   3.171  12.277  0.0712 -2.2013  2.4477
  202MOL0     H27242  12.109   3.031  12.413  1.8457 -0.2151 -1.4537
  202MOL0     H27243  12.074   3.173  12.505  0.9405 -0.3166  0.9348
  202MOL0     H27244  12.326   3.097  12.373 -2.3500 -0.7395 -1.4971
  202MOL0     H27245  12.314   3.246  12.464  3.0295 -0.2140 -0.2567
  202MOL0     H27246  12.268   2.952  12.579  3.2835 -3.1425  2.6628
  202MOL0     H27247  12.301   3.093  12.674  1.6923 -0.7328  0.8373
  202MOL0     H27248  12.503   2.936  12.649  0.7249 -1.3740 -0.2198
  202MOL0     H27249  12.510   2.968  12.488 -0.1703 -2.8799  1.3316
  202MOL0     H27250  11.717   3.619  12.283 -2.6635 -0.7064  0.6357
  202MOL0     H27251  11.587   3.823  12.274  1.3855 -1.6819  0.5877
  202MOL0     H27252  11.158   4.025  11.996 -0.6729  0.8780 -1.9687
  202MOL0     H27253  11.058   4.255  11.940 -0.5129  3.1391  2.9997
  202MOL0     H27254  10.641   3.991  10.514 -0.2484 -0.4222 -0.0461
  202MOL0     H27255  10.581   3.743  10.471 -1.6850 -1.8258  0.7395
  202MOL0     H27256  10.571   3.440  10.416  2.0719  0.1039  2.7335
  202MOL0     H27257  10.464   3.212  10.337 -1.1694  0.2027 -0.7790
  202MOL0     H27258  10.752   2.882  10.237  0.1555  4.8488  1.1871
  202MOL0     H27259  10.677   2.942  10.087  2.1605 -5.3049 -1.2357
  202MOL0     H27260  10.485   2.782  10.148 -0.4348 -1.3328  0.8389
  202MOL0     H27261  10.601   2.724  10.280  1.6142  1.3231  1.8692
  202MOL0     H27262  10.736   2.610  10.101 -0.9700 -2.2907 -1.1577
  202MOL0     H27263  10.712   2.745  10.008  1.2037 -0.9399  1.1628
  202MOL0     H27264  10.609   2.518   9.927 -0.9759 -1.8979 -0.0583
  202MOL0     H27265  10.484   2.542  10.037  2.3068 -3.7183 -0.2630
  202MOL0     H27266  10.375   2.829   9.740 -4.6659 -2.6543  0.4836
  202MOL0     H27267  10.857   3.062  10.250  0.9870  0.7536 -2.5405
  202MOL0     H27268  11.027   3.303  10.185 -0.1457  1.8350  0.8409
  202MOL0     H27269  11.057   3.347  10.348  3.4512  1.9751 -5.1482
  202MOL0     H27270  11.041   3.175  10.307  1.1049  0.1190  3.0484
  203MOL0     O27271  10.131   1.411   1.275  0.1286  0.0679 -0.6695
  203MOL0     C27272  10.019   1.365   1.272  0.4750 -0.1083  0.3975
  203MOL0     O27273   9.955   1.308   1.368 -0.0068  0.1579 -0.3055
  203MOL0     C27274   9.986   1.291   1.501 -0.6395 -0.1362 -0.2434
  203MOL0     C27275   9.908   1.191   1.559  1.1468 -0.4071  0.6393
  203MOL0     C27276   9.930   1.159   1.684 -0.7391  0.8485 -0.0422
  203MOL0     C27277  10.030   1.220   1.762 -0.2453  0.4247 -0.8440
  203MOL0     O27278  10.032   1.227   1.896 -0.0590 -1.1720  0.0119
  203MOL0     C27279  10.047   1.096   1.967  0.4850  0.8178 -0.7106
  203MOL0     C27280  10.121   1.117   2.105 -1.1832  0.3159  0.3777
  203MOL0     C27281  10.120   0.989   2.183  0.3809  0.6303 -0.0633
  203MOL0     C27282  10.175   1.033   2.324 -0.5042 -0.3121 -0.8089
  203MOL0     C27283  10.154   0.924   2.424 -0.8500  0.1778  0.0295
  203MOL0     C27284  10.012   0.914   2.487 -0.0322  0.1139 -0.1826
  203MOL0     C27285   9.998   0.832   2.616 -0.6377 -0.1168  0.3297
  203MOL0     C27286  10.042   0.909   2.735  0.1434 -0.9385  0.5214
  203MOL0     N27287  10.122   0.821   2.827  0.0365  0.6209 -0.1011
  203MOL0     C27288  10.057   0.746   2.914  0.2355  0.2803  0.3080
  203MOL0     C27289  10.149   0.660   2.972 -0.8072 -0.9755 -0.2528
  203MOL0     C27290  10.144   0.566   3.089  1.1147  0.9617  0.6966
  203MOL0     C27291  10.194   0.653   3.221 -0.4875 -0.7410  1.2579
  203MOL0     C27292  10.231   0.559   3.334 -0.3923 -0.0997 -0.6924
  203MOL0     C27293  10.305   0.638   3.440  0.6407 -0.4263 -0.1940
  203MOL0     O27294  10.339   0.559   3.551  0.8881 -0.6997 -0.4571
  203MOL0     C27295  10.455   0.486   3.554 -0.0982  0.2967 -1.1226
  203MOL0     C27296  10.477   0.419   3.674 -1.1701 -0.6585 -0.3194
  203MOL0     C27297  10.593   0.346   3.701 -0.7021  0.2813  0.2769
  203MOL0     C27298  10.684   0.333   3.598 -0.4601  0.4103  0.0964
  203MOL0     C27299  10.812   0.272   3.629 -0.9596 -0.2766 -1.1426
  203MOL0     O27300  10.819   0.197   3.742  0.2554  0.5740  0.3410
  203MOL0     C27301  10.938   0.131   3.766 -0.4811 -0.6662  0.4021
  203MOL0     C27302  11.033   0.193   3.841 -0.2217 -0.0017 -0.1160
  203MOL0     C27303  11.154   0.131   3.861 -1.0778  1.0960  0.3129
  203MOL0     C27304  11.183   0.004   3.807 -0.0902 -0.0254  0.3105
  203MOL0     O27305  11.302  -0.059   3.815  0.0247  0.2747 -0.1884
  203MOL0     C27306  11.390  -0.017   3.916  0.5355  0.0377  0.5214
  203MOL0     C27307  11.497  -0.132   3.923 -0.5939  0.4896  0.1661
  203MOL0     C27308  11.442  -0.261   3.988 -0.1592 -0.7077 -0.2638
  203MOL0     C27309  11.564  -0.357   4.003  0.1772  0.2552 -0.5621
  203MOL0     C27310  11.621  -0.383   4.138  0.5355 -0.4822 -0.2669
  203MOL0     C27311  11.747  -0.470   4.116 -0.2396 -0.0278 -0.3667
  203MOL0     C27312  11.808  -0.515   4.244  0.1056  1.6582  0.3017
  203MOL0     C27313  11.897  -0.640   4.215 -0.3139 -0.1183 -0.1915
  203MOL0    Cl27314  12.051  -0.593   4.136  0.0466 -0.8433 -0.0226
  203MOL0     C27315  11.082  -0.063   3.732  0.1384 -1.0623 -0.0552
  203MOL0     C27316  10.957   0.003   3.714 -0.9318 -0.6361 -0.5298
  203MOL0     O27317  10.905   0.290   3.552  0.3160 -0.0978 -0.1833
  203MOL0     C27318  10.671   0.414   3.482  0.0243 -1.4061  0.0052
  203MOL0     C27319  10.554   0.482   3.460 -0.6544 -0.0021  0.0857
  203MOL0     N27320  10.262   0.657   2.883  1.3938  0.2111  0.4003
  203MOL0     N27321  10.241   0.752   2.798 -0.1482 -0.0868  0.0687
  203MOL0     C27322  10.113   1.319   1.711  0.9983  0.3134 -0.0773
  203MOL0     C27323  10.095   1.354   1.575 -0.1073  0.2520  0.5039
  203MOL0     C27324   9.950   1.359   1.136 -0.1193  0.7325  0.3641
  203MOL0     C27325  10.028   1.381   1.021 -0.3354  0.7779  0.2884
  203MOL0     C27326   9.970   1.360   0.897 -0.0776 -0.0060 -0.8041
  203MOL0     C27327   9.839   1.320   0.865  0.1063 -0.4087 -0.0508
  203MOL0     O27328   9.807   1.316   0.728  0.1965  0.4773  0.2320
  203MOL0     C27329   9.670   1.289   0.701  0.1675  0.6048  0.0284
  203MOL0     C27330   9.669   1.275   0.542 -0.0808 -0.1597 -0.8952
  203MOL0     C27331   9.744   1.157   0.487  0.1017 -0.6480 -0.3842
  203MOL0     C27332   9.693   1.023   0.515 -0.9720  0.2252 -0.0142
  203MOL0     C27333   9.544   1.000   0.479  0.5358  0.5902  0.1953
  203MOL0     C27334   9.425   0.977   0.471  0.3331  0.5406  0.4521
  203MOL0     C27335   9.760   1.313   0.978  0.0289  0.5120 -0.5673
  203MOL0     C27336   9.815   1.319   1.111  0.3240 -0.6100 -0.0667
  203MOL0     C27337   9.714   1.307   1.219  0.0398 -0.3725  0.1713
  203MOL0     H27338   9.822   1.146   1.508 -0.0355  1.1680  1.1610
  203MOL0     H27339   9.868   1.082   1.731 -0.0901 -1.6984 -3.0192
  203MOL0     H27340   9.946   1.056   1.977 -1.1043  4.0524 -2.3447
  203MOL0     H27341  10.099   1.025   1.902 -0.3964 -0.2529 -0.2790
  203MOL0     H27342  10.089   1.209   2.154  0.8133  1.6708 -0.6918
  203MOL0     H27343  10.222   1.147   2.074 -1.0546  0.8901  1.3099
  203MOL0     H27344  10.188   0.916   2.138 -1.0514 -0.2471 -0.8837
  203MOL0     H27345  10.020   0.947   2.195  2.2073 -4.1022  0.8517
  203MOL0     H27346  10.282   1.052   2.315 -0.1058 -0.5200  2.2501
  203MOL0     H27347  10.126   1.123   2.362  3.1019  2.4853 -2.2012
  203MOL0     H27348  10.191   0.826   2.391  2.7410  1.3528  0.1412
  203MOL0     H27349  10.223   0.950   2.505  1.9154 -4.3846 -0.4654
  203MOL0     H27350   9.970   1.011   2.519 -0.3486  0.2777 -1.0770
  203MOL0     H27351   9.944   0.880   2.409  1.2856 -1.2353 -0.7831
  203MOL0     H27352  10.050   0.736   2.608 -2.2178 -1.1069  1.3058
  203MOL0     H27353   9.896   0.791   2.617  0.2010 -2.3564  0.1129
  203MOL0     H27354  10.113   0.985   2.703 -1.6862 -0.1616 -1.9963
  203MOL0     H27355   9.963   0.970   2.779  2.5420  2.9802 -0.0847
  203MOL0     H27356   9.958   0.764   2.955 -1.1486 -1.0575 -2.2403
  203MOL0     H27357  10.039   0.539   3.096  1.6089 -0.9628  1.2552
  203MOL0     H27358  10.194   0.471   3.068  0.8794  1.0427 -0.2699
  203MOL0     H27359  10.292   0.692   3.194 -0.2802 -1.5690  0.7623
  203MOL0     H27360  10.113   0.723   3.242 -1.0740 -1.5341  1.7051
  203MOL0     H27361  10.300   0.487   3.288  0.5425  0.3183  0.0318
  203MOL0     H27362  10.146   0.499   3.368  0.6792 -1.5596 -0.5046
  203MOL0     H27363  10.233   0.708   3.484 -2.4075 -0.8437 -3.9830
  203MOL0     H27364  10.386   0.699   3.399  0.3646  0.1011  0.0338
  203MOL0     H27365  10.402   0.416   3.752  0.4141 -1.5753  1.2426
  203MOL0     H27366  10.599   0.286   3.792  0.1767 -0.6037 -0.3368
  203MOL0     H27367  11.013   0.290   3.884 -0.3805  0.2077 -0.6637
  203MOL0     H27368  11.226   0.190   3.917 -0.5590  0.2647  0.5325
  203MOL0     H27369  11.434   0.080   3.892  0.0477 -0.3060 -1.9408
  203MOL0     H27370  11.343  -0.014   4.015  1.6269 -2.0687  1.1697
  203MOL0     H27371  11.544  -0.139   3.824 -0.4794 -0.3807  0.2727
  203MOL0     H27372  11.577  -0.089   3.984  3.0338 -1.7341 -2.6043
  203MOL0     H27373  11.398  -0.237   4.085  1.3408 -1.1295  0.5614
  203MOL0     H27374  11.361  -0.303   3.927  2.7377 -2.4620 -3.2250
  203MOL0     H27375  11.645  -0.312   3.944  2.1055 -1.0252  1.0030
  203MOL0     H27376  11.542  -0.454   3.956 -2.2752 -0.4718  1.8121
  203MOL0     H27377  11.540  -0.431   4.194 -0.8374  1.5792 -0.3632
  203MOL0     H27378  11.635  -0.287   4.190 -2.1107 -0.6934  1.0063
  203MOL0     H27379  11.718  -0.556   4.056  0.9394 -2.4941  2.3027
  203MOL0     H27380  11.821  -0.408   4.064  0.6588 -0.3358  0.4938
  203MOL0     H27381  11.730  -0.538   4.317  0.3355 -1.8340 -0.3624
  203MOL0     H27382  11.867  -0.432   4.282 -0.4858  3.4514 -2.3918
  203MOL0     H27383  11.935  -0.669   4.314  1.7844  1.3021 -0.5224
  203MOL0     H27384  11.841  -0.715   4.158 -0.9289 -0.1561  0.4375
  203MOL0     H27385  11.101  -0.161   3.689  0.3118 -1.1613  0.2451
  203MOL0     H27386  10.881  -0.042   3.650 -1.4985 -0.6883  0.1630
  203MOL0     H27387  10.750   0.413   3.408  1.0206 -2.6006  1.0287
  203MOL0     H27388  10.534   0.518   3.359  0.3430 -3.7452 -1.6301
  203MOL0     H27389  10.182   1.366   1.781  1.3661 -2.2256  1.3895
  203MOL0     H27390  10.146   1.431   1.518 -1.4585  1.0342  0.3167
  203MOL0     H27391  10.134   1.400   1.018 -0.2758  0.3779 -0.3947
  203MOL0     H27392  10.038   1.373   0.813  1.5552 -0.1157  0.4545
  203MOL0     H27393   9.603   1.371   0.731  1.9275  0.8344  3.9659
  203MOL0     H27394   9.632   1.200   0.751 -1.9254  2.5217  2.0839
  203MOL0     H27395   9.696   1.374   0.502 -0.5134  0.7267  0.9212
  203MOL0     H27396   9.563   1.274   0.515 -0.6484 -0.1603  1.1601
  203MOL0     H27397   9.840   1.159   0.540 -0.1471  0.2049  0.0491
  203MOL0     H27398   9.753   1.176   0.380  1.4492 -0.2272 -0.2182
  203MOL0     H27399   9.744   0.948   0.455 -0.9499 -0.5523  0.9592
  203MOL0     H27400   9.700   1.009   0.624 -0.8714  1.5393  0.1656
  203MOL0     H27401   9.323   0.950   0.451  0.7095 -0.3259 -0.3923
  203MOL0     H27402   9.657   1.289   0.955  0.2416  1.2041 -2.4439
  203MOL0     H27403   9.735   1.220   1.282  1.9597 -0.1887 -0.1520
  203MOL0     H27404   9.716   1.401   1.275  0.5838 -1.2200  1.6459
  203MOL0     H27405   9.614   1.308   1.174 -1.1794  1.9845  2.6141
  204MOL0     O27406   4.682   3.070   8.889 -0.2266 -0.1736  0.1867
  204MOL0     C27407   4.713   3.175   8.953  0.6276  0.1379  0.1824
  204MOL0     O27408   4.728   3.175   9.087 -0.0916 -0.2292  0.1444
  204MOL0     C27409   4.686   3.068   9.157  0.5168 -1.2721 -0.6473
  204MOL0     C27410   4.790   3.016   9.238 -0.2627  0.5560  0.0595
  204MOL0     C27411   4.765   2.901   9.316  0.2252  0.0038 -0.6239
  204MOL0     C27412   4.646   2.831   9.292 -0.0816  0.2778  0.0506
  204MOL0     O27413   4.632   2.719   9.362 -0.6054  0.3924 -0.7991
  204MOL0     C27414   4.529   2.628   9.334  0.0873 -0.4395  0.2258
  204MOL0     C27415   4.576   2.483   9.345 -0.2333  0.1193 -0.1961
  204MOL0     C27416   4.638   2.456   9.483 -0.1632  0.3416 -0.4910
  204MOL0     C27417   4.694   2.314   9.478 -0.0126  0.4675 -0.4707
  204MOL0     C27418   4.699   2.259   9.620 -0.0252  0.0669  0.0998
  204MOL0     C27419   4.565   2.205   9.683  0.1995  0.3697  0.0159
  204MOL0     C27420   4.583   2.148   9.826 -0.0831 -0.4291  0.8018
  204MOL0     C27421   4.523   2.016   9.851 -0.1483  0.0631  0.5251
  204MOL0     N27422   4.518   1.989   9.995  0.6876  1.0434  0.5165
  204MOL0     C27423   4.433   2.049  10.082  0.3047 -0.0740 -0.8499
  204MOL0     C27424   4.431   1.967  10.190  0.7751  0.4260  0.1723
  204MOL0     C27425   4.342   1.989  10.307 -0.3667 -1.1679  0.2763
  204MOL0     C27426   4.310   1.865  10.402 -0.5327  0.1554  1.0187
  204MOL0     C27427   4.193   1.893  10.497 -0.2578 -0.5117 -0.7636
  204MOL0     C27428   4.130   1.756  10.527  0.3000  0.4699 -0.1760
  204MOL0     O27429   4.220   1.683  10.614  1.0218  0.2589 -0.6366
  204MOL0     C27430   4.154   1.582  10.677  0.4741 -0.6959  0.8424
  204MOL0     C27431   4.136   1.468  10.596  0.4346 -0.0213  0.1464
  204MOL0     C27432   4.058   1.363  10.642  0.9798 -0.5308  0.4648
  204MOL0     C27433   3.988   1.381  10.770 -0.2247 -0.4189 -0.2903
  204MOL0     C27434   3.912   1.266  10.819  0.1797  0.2052 -0.9347
  204MOL0     O27435   3.925   1.143  10.757  0.2787  0.1714 -0.3631
  204MOL0     C27436   3.864   1.051  10.831 -0.9179  1.1333 -0.2017
  204MOL0     C27437   3.917   0.981  10.944  0.0271 -1.3747  0.8637
  204MOL0     C27438   3.850   0.880  11.012  0.5122 -0.0398  0.0995
  204MOL0     C27439   3.729   0.837  10.954  0.0997  0.8953 -1.2297
  204MOL0     O27440   3.668   0.743  11.026  0.8332 -0.2158 -0.1320
  204MOL0     C27441   3.580   0.660  10.956  0.6786  0.3284 -0.1850
  204MOL0     C27442   3.520   0.551  11.044  0.1253  0.3892  0.3149
  204MOL0     C27443   3.385   0.499  10.994 -1.0618  0.4766 -0.3325
  204MOL0     C27444   3.371   0.413  10.861 -0.4248 -0.0092  0.3690
  204MOL0     C27445   3.259   0.306  10.880 -0.0148  0.3535  0.6185
  204MOL0     C27446   3.123   0.360  10.905  0.2812  0.5371 -0.1995
  204MOL0     C27447   3.028   0.243  10.919  0.0694  0.4780 -0.7926
  204MOL0     C27448   2.940   0.241  10.791 -0.0438 -0.8131  0.1737
  204MOL0    Cl27449   3.043   0.217  10.650 -0.4054 -0.1973  0.3397
  204MOL0     C27450   3.668   0.904  10.848  1.3290  0.1798  0.8139
  204MOL0     C27451   3.734   1.019  10.793 -1.1647 -0.8576 -0.5873
  204MOL0     O27452   3.858   1.288  10.925  0.2895  0.2451  0.3560
  204MOL0     C27453   4.004   1.497  10.844  0.6471 -0.0524  0.5660
  204MOL0     C27454   4.092   1.599  10.799  1.2759  0.2350  0.0390
  204MOL0     N27455   4.513   1.861  10.162  0.0400  0.4450  1.2242
  204MOL0     N27456   4.575   1.876  10.048  0.1246 -0.8868 -0.6815
  204MOL0     C27457   4.549   2.888   9.216  0.1091 -0.1479 -0.2548
  204MOL0     C27458   4.564   3.005   9.139  0.5210  0.2951 -0.5404
  204MOL0     C27459   4.742   3.300   8.882  0.3103 -0.9336 -0.4326
  204MOL0     C27460   4.690   3.307   8.756  0.2359  1.0106 -0.1101
  204MOL0     C27461   4.714   3.420   8.674  0.5007 -0.8740  0.1444
  204MOL0     C27462   4.794   3.528   8.716  0.1577  0.9752 -0.0313
  204MOL0     O27463   4.811   3.651   8.653  0.4515 -0.4988  0.2984
  204MOL0     C27464   4.741   3.677   8.525 -1.1921 -0.0685  0.2508
  204MOL0     C27465   4.818   3.797   8.469  0.3149 -0.4133  1.0406
  204MOL0     C27466   4.778   3.925   8.546 -1.0071 -0.6317  0.5859
  204MOL0     C27467   4.786   4.051   8.458  0.3253  0.3232 -0.5201
  204MOL0     C27468   4.932   4.085   8.453  0.6018  0.2623 -0.4105
  204MOL0     C27469   5.046   4.078   8.422  1.1827 -0.4874  0.5346
  204MOL0     C27470   4.837   3.511   8.851 -0.5712  0.3199  0.7399
  204MOL0     C27471   4.811   3.409   8.935  0.4542 -0.1024 -0.0894
  204MOL0     C27472   4.868   3.409   9.079 -0.1767  0.3120 -0.2431
  204MOL0     H27473   4.889   3.060   9.248  0.7946 -1.8238  1.0219
  204MOL0     H27474   4.831   2.853   9.387  2.6803 -1.1980 -3.4958
  204MOL0     H27475   4.439   2.631   9.396  0.3264  1.1447  0.5365
  204MOL0     H27476   4.500   2.631   9.228  3.6224 -1.4758 -0.9217
  204MOL0     H27477   4.644   2.466   9.261  0.9723 -0.7754  0.9208
  204MOL0     H27478   4.501   2.406   9.327  1.1071 -1.2246 -0.2580
  204MOL0     H27479   4.558   2.461   9.557 -1.1060 -2.8334 -1.1614
  204MOL0     H27480   4.723   2.522   9.507  0.3117 -0.8254  1.2357
  204MOL0     H27481   4.638   2.244   9.415  0.0859  1.4816 -1.7255
  204MOL0     H27482   4.791   2.317   9.427 -0.7740  0.8729 -1.9495
  204MOL0     H27483   4.775   2.180   9.620 -0.7846 -0.6790  0.7475
  204MOL0     H27484   4.742   2.333   9.688  1.9613 -0.6805 -0.2826
  204MOL0     H27485   4.501   2.294   9.685  0.2661  0.4587 -1.0311
  204MOL0     H27486   4.507   2.129   9.629  1.0110 -1.4513  1.6109
  204MOL0     H27487   4.543   2.227   9.891  1.0985  0.4562  0.4933
  204MOL0     H27488   4.691   2.145   9.844  0.4917  0.2860 -2.0897
  204MOL0     H27489   4.420   2.030   9.818  0.3200 -0.8837 -1.5057
  204MOL0     H27490   4.563   1.937   9.785  0.9639  1.8336 -1.0156
  204MOL0     H27491   4.383   2.145  10.079  3.1327  1.5222 -2.6972
  204MOL0     H27492   4.405   2.051  10.371 -0.5301 -1.3613  0.6235
  204MOL0     H27493   4.255   2.045  10.271 -0.0941 -0.2848  0.9645
  204MOL0     H27494   4.285   1.776  10.344 -1.0068  1.4858 -0.9101
  204MOL0     H27495   4.402   1.841  10.455  0.4695 -0.5080 -0.9325
  204MOL0     H27496   4.114   1.951  10.449 -1.6908 -0.8411  1.1039
  204MOL0     H27497   4.225   1.934  10.594 -1.2792 -2.5004  0.4874
  204MOL0     H27498   4.115   1.693  10.438 -0.0543 -1.2210  1.0259
  204MOL0     H27499   4.033   1.772  10.575  1.2524 -1.1291  2.5242
  204MOL0     H27500   4.204   1.477  10.512  1.0213  0.5964  0.6776
  204MOL0     H27501   4.047   1.267  10.593 -1.9496  0.3300 -0.7563
  204MOL0     H27502   4.013   1.024  10.972  0.7570 -0.0137 -3.0660
  204MOL0     H27503   3.897   0.846  11.104 -0.2340  2.9064  1.6980
  204MOL0     H27504   3.494   0.722  10.929  1.6522  0.6082 -2.9416
  204MOL0     H27505   3.633   0.600  10.881  1.2073  0.3893  0.1389
  204MOL0     H27506   3.588   0.468  11.023 -1.4444 -0.4003 -1.9465
  204MOL0     H27507   3.519   0.582  11.149 -1.1912  2.6983 -0.3018
  204MOL0     H27508   3.365   0.432  11.079  2.1388  2.6584  2.3810
  204MOL0     H27509   3.312   0.580  11.001  0.6904  1.9669  2.6292
  204MOL0     H27510   3.464   0.362  10.836  0.9841  0.5274  3.9134
  204MOL0     H27511   3.342   0.477  10.777  1.1281 -0.3805 -0.4701
  204MOL0     H27512   3.294   0.241  10.960 -0.7285 -2.2461 -1.0474
  204MOL0     H27513   3.260   0.238  10.794 -1.2552  1.0276  0.0423
  204MOL0     H27514   3.123   0.422  10.995 -2.1034  2.3511 -1.3533
  204MOL0     H27515   3.094   0.432  10.828  2.6576  0.2666 -1.4618
  204MOL0     H27516   2.958   0.258  11.002 -0.9350 -3.6972 -0.6550
  204MOL0     H27517   3.070   0.145  10.941  0.6880  0.2829 -2.6882
  204MOL0     H27518   2.872   0.157  10.805 -0.3381 -0.3447  1.7697
  204MOL0     H27519   2.885   0.334  10.776  1.0250  0.0147  1.1008
  204MOL0     H27520   3.580   0.866  10.798  1.0621  3.8934 -2.0089
  204MOL0     H27521   3.707   1.074  10.704  0.7388  2.0120  0.4815
  204MOL0     H27522   3.976   1.494  10.949  1.9371 -4.3535  0.9747
  204MOL0     H27523   4.085   1.690  10.858 -1.8172  0.7034 -0.8567
  204MOL0     H27524   4.455   2.837   9.193  0.1799 -1.0181  1.2402
  204MOL0     H27525   4.484   3.039   9.074 -2.7584 -1.6129  2.1563
  204MOL0     H27526   4.623   3.231   8.717  0.5203 -0.1792  1.6146
  204MOL0     H27527   4.670   3.417   8.575 -0.1000  3.0183  0.1698
  204MOL0     H27528   4.637   3.710   8.533 -1.1035  0.9995 -2.2004
  204MOL0     H27529   4.753   3.596   8.453  3.0335  1.3997 -0.9941
  204MOL0     H27530   4.795   3.811   8.363  3.5566  0.7624  0.3632
  204MOL0     H27531   4.924   3.770   8.475 -0.1063 -1.8222  3.9917
  204MOL0     H27532   4.838   3.930   8.638  2.9520 -2.2467 -1.6592
  204MOL0     H27533   4.673   3.920   8.576 -0.5853 -1.2044  2.1059
  204MOL0     H27534   4.747   4.019   8.361 -0.5348 -0.5878  0.1065
  204MOL0     H27535   4.730   4.139   8.490  0.2056  1.3430 -3.2516
  204MOL0     H27536   5.144   4.050   8.391  0.3416 -1.5801 -1.2584
  204MOL0     H27537   4.887   3.599   8.891 -0.9421 -0.1618  2.3307
  204MOL0     H27538   4.786   3.408   9.152 -0.1015  3.5547  0.0286
  204MOL0     H27539   4.936   3.323   9.084  1.5280  1.5398 -1.2184
  204MOL0     H27540   4.931   3.496   9.100  1.8756 -0.5365 -2.4663
  205MOL0     O27541   4.022   8.171   0.880 -0.3907 -0.0298  0.4437
  205MOL0     C27542   3.977   8.071   0.826  0.7788  0.2576  0.8117
  205MOL0     O27543   3.910   8.075   0.712  0.7453 -0.3362  0.0891
  205MOL0     C27544   3.894   8.194   0.641 -0.0986 -0.3153  0.6587
  205MOL0     C27545   4.004   8.245   0.566  0.2075  0.7073 -0.9594
  205MOL0     C27546   3.981   8.354   0.475 -0.2342  1.0882  0.4548
  205MOL0     C27547   3.854   8.393   0.432 -0.2691  1.4213 -0.4862
  205MOL0     O27548   3.822   8.486   0.334 -0.1732 -0.3206 -0.0737
  205MOL0     C27549   3.922   8.574   0.284 -0.2040  0.5332  0.0401
  205MOL0     C27550   3.858   8.685   0.200 -0.1151  0.2918 -0.3313
  205MOL0     C27551   3.912   8.823   0.224 -0.9583 -0.3146 -0.4170
  205MOL0     C27552   4.062   8.840   0.194  0.6150  0.2521  0.1129
  205MOL0     C27553   4.101   8.986   0.175 -0.9553 -0.5227 -0.7643
  205MOL0     C27554   4.246   9.004   0.124  0.2380 -0.0978 -0.8486
  205MOL0     C27555   4.265   8.980  -0.024 -0.2134 -0.4349  0.8892
  205MOL0     C27556   4.400   9.015  -0.084 -0.6728  0.5749 -0.2985
  205MOL0     N27557   4.509   8.949  -0.012 -0.3726 -0.3116 -0.3145
  205MOL0     C27558   4.637   9.003   0.009  0.5858  0.2690  0.1928
  205MOL0     C27559   4.713   8.890   0.026 -0.0686  0.0699  0.0057
  205MOL0     C27560   4.853   8.884   0.068 -0.6331  0.2138 -0.2171
  205MOL0     C27561   4.863   8.879   0.224  0.6565  0.4672 -0.0656
  205MOL0     C27562   5.005   8.872   0.273  0.6126  0.8016 -1.1596
  205MOL0     C27563   5.075   8.736   0.227  0.9837 -0.6953 -0.6320
  205MOL0     O27564   5.214   8.731   0.250 -0.0571 -0.1005  0.7687
  205MOL0     C27565   5.291   8.620   0.211  1.6886 -0.9509  0.3483
  205MOL0     C27566   5.430   8.628   0.200 -0.7445  1.0846  0.3433
  205MOL0     C27567   5.510   8.528   0.139  0.3826  0.6183 -0.5411
  205MOL0     C27568   5.445   8.408   0.089 -0.3752  0.6957  0.5565
  205MOL0     C27569   5.513   8.302   0.010  0.1925 -0.1021  0.0939
  205MOL0     O27570   5.647   8.318   0.006  0.5488 -0.7691 -0.0638
  205MOL0     C27571   5.718   8.210  -0.017  0.0956 -0.6474  0.0150
  205MOL0     C27572   5.815   8.225  -0.116 -0.5056 -0.8804  0.2723
  205MOL0     C27573   5.894   8.115  -0.147 -0.9585 -0.1484 -0.0159
  205MOL0     C27574   5.880   7.996  -0.080  0.1316  0.0340  0.1636
  205MOL0     O27575   5.974   7.901  -0.104  0.2597 -0.0560  0.3719
  205MOL0     C27576   5.926   7.800  -0.197  0.1932 -0.7558  0.2973
  205MOL0     C27577   6.057   7.744  -0.259  0.1829  0.5546  0.2482
  205MOL0     C27578   6.166   7.837  -0.282 -0.3055  0.6500 -0.6170
  205MOL0     C27579   6.294   7.762  -0.349  0.7045 -0.8470 -0.1071
  205MOL0     C27580   6.413   7.854  -0.371  0.4776  0.2582 -0.6565
  205MOL0     C27581   6.531   7.778  -0.435 -0.8650  0.1359 -1.2164
  205MOL0     C27582   6.633   7.884  -0.462  0.0215 -0.0291  0.8102
  205MOL0     C27583   6.611   7.923  -0.610 -0.6961 -0.1402  0.4486
  205MOL0    Cl27584   6.731   8.044  -0.664  0.2548 -0.5456 -0.0660
  205MOL0     C27585   5.784   7.982   0.023 -0.0682  0.0686 -0.6678
  205MOL0     C27586   5.704   8.085   0.052  0.2494 -0.2487  0.5358
  205MOL0     O27587   5.447   8.211  -0.039 -0.6466 -0.2765 -0.6782
  205MOL0     C27588   5.314   8.388   0.124  0.3189 -0.7385  0.0350
  205MOL0     C27589   5.234   8.502   0.177  0.1301  0.6665 -0.5165
  205MOL0     N27590   4.649   8.776  -0.008 -0.0568  0.1023 -0.2877
  205MOL0     N27591   4.527   8.817  -0.027  0.3641 -0.5709 -0.3085
  205MOL0     C27592   3.744   8.334   0.497 -0.6159  0.0774 -0.4031
  205MOL0     C27593   3.762   8.234   0.599 -0.8302 -0.3882  0.9338
  205MOL0     C27594   4.011   7.929   0.879  0.3317  0.5678 -0.7089
  205MOL0     C27595   3.947   7.818   0.807 -0.4087  0.6396  0.1491
  205MOL0     C27596   3.972   7.684   0.840 -0.1374 -0.6805  0.1803
  205MOL0     C27597   4.069   7.657   0.936  0.3601  0.7715 -1.2943
  205MOL0     O27598   4.110   7.532   0.966  0.6241  0.7133 -0.5390
  205MOL0     C27599   4.127   7.422   0.869  0.3899  0.0984 -0.0215
  205MOL0     C27600   4.268   7.423   0.802  0.2952 -0.1581 -0.3152
  205MOL0     C27601   4.385   7.432   0.917  0.9129  0.6707 -0.3740
  205MOL0     C27602   4.504   7.360   0.870  0.6688  0.0769 -0.2776
  205MOL0     C27603   4.614   7.361   0.970  0.5300  0.4448 -0.3194
  205MOL0     C27604   4.708   7.356   1.045 -0.3006  0.5476  0.3796
  205MOL0     C27605   4.129   7.760   1.003 -0.5895  1.2565 -0.2112
  205MOL0     C27606   4.115   7.891   0.971 -0.1748 -0.2842  0.0513
  205MOL0     C27607   4.212   7.990   1.023  0.3395 -0.0654 -0.0572
  205MOL0     H27608   4.102   8.213   0.598 -0.8540  2.0426  4.5677
  205MOL0     H27609   4.060   8.406   0.422 -0.9151 -0.2366 -1.9931
  205MOL0     H27610   3.976   8.620   0.368 -1.8899  0.9709  0.9499
  205MOL0     H27611   3.988   8.512   0.224  0.1108 -2.3141  3.0269
  205MOL0     H27612   3.757   8.673   0.240  0.8750  0.4603  2.4430
  205MOL0     H27613   3.848   8.666   0.093 -2.0164  2.1623 -0.5538
  205MOL0     H27614   3.895   8.851   0.328 -0.5795 -3.0970  0.4650
  205MOL0     H27615   3.852   8.893   0.164 -2.0576  0.3701  1.4137
  205MOL0     H27616   4.124   8.796   0.272  1.1575  0.4810 -0.1816
  205MOL0     H27617   4.090   8.790   0.101 -0.8869  0.8092 -0.6730
  205MOL0     H27618   4.044   9.044   0.101  2.2179 -0.6365 -3.5663
  205MOL0     H27619   4.082   9.034   0.271 -0.1273  1.1902 -1.4126
  205MOL0     H27620   4.279   9.107   0.142 -1.0282  0.4879 -1.7841
  205MOL0     H27621   4.315   8.938   0.179  0.6822 -1.2868 -2.7331
  205MOL0     H27622   4.189   9.037  -0.078  1.4420  3.6417  2.4779
  205MOL0     H27623   4.253   8.873  -0.044 -4.4711  0.0275 -0.1012
  205MOL0     H27624   4.412   8.976  -0.185 -1.3070 -0.3086 -0.0482
  205MOL0     H27625   4.410   9.124  -0.088 -1.8664  0.6552 -1.4575
  205MOL0     H27626   4.676   9.104   0.011  1.5207  0.0815 -2.7096
  205MOL0     H27627   4.893   8.795   0.018  1.6126  0.9367  0.1713
  205MOL0     H27628   4.895   8.982   0.042 -0.3354  0.3327  0.7073
  205MOL0     H27629   4.821   8.970   0.266 -1.6379 -1.4061  2.0234
  205MOL0     H27630   4.800   8.791   0.240 -0.1353  0.5310 -2.3526
  205MOL0     H27631   4.997   8.890   0.381 -1.0002  3.5935 -1.6535
  205MOL0     H27632   5.054   8.957   0.226 -0.7472  1.7762 -0.8834
  205MOL0     H27633   5.047   8.722   0.122 -2.2614  3.2459 -0.5290
  205MOL0     H27634   5.018   8.656   0.275 -0.1040 -1.1998 -2.6089
  205MOL0     H27635   5.487   8.719   0.216  1.2449 -0.0610  0.1042
  205MOL0     H27636   5.614   8.546   0.113  0.9015  1.2849  1.7762
  205MOL0     H27637   5.815   8.313  -0.179  1.3066  0.8714  2.5664
  205MOL0     H27638   5.970   8.123  -0.224  0.2258  3.8312  1.3488
  205MOL0     H27639   5.881   7.717  -0.142  0.0033 -0.1669  1.0507
  205MOL0     H27640   5.867   7.840  -0.280  2.4235  1.2743 -0.4476
  205MOL0     H27641   6.098   7.675  -0.184 -3.9318  0.3436  2.5659
  205MOL0     H27642   6.055   7.696  -0.357  0.8346  0.4802  0.2631
  205MOL0     H27643   6.151   7.919  -0.352  0.1511  1.6399  0.4162
  205MOL0     H27644   6.206   7.879  -0.189  0.4119  1.8437 -1.4421
  205MOL0     H27645   6.258   7.725  -0.445 -2.5088 -4.4148  2.2020
  205MOL0     H27646   6.335   7.673  -0.300  0.3152  0.0124  1.8791
  205MOL0     H27647   6.453   7.897  -0.279  1.4083  0.8079 -1.2982
  205MOL0     H27648   6.377   7.936  -0.434 -0.8397  1.0013  0.9789
  205MOL0     H27649   6.574   7.705  -0.366 -1.4740  2.1275  1.4695
  205MOL0     H27650   6.502   7.730  -0.529  0.6846  1.3019 -2.3179
  205MOL0     H27651   6.735   7.844  -0.455  0.5602  0.7489 -1.6387
  205MOL0     H27652   6.621   7.973  -0.399  1.8884 -0.5180  1.9272
  205MOL0     H27653   6.626   7.832  -0.668 -0.1833  0.1944  0.0462
  205MOL0     H27654   6.511   7.953  -0.642 -1.5369 -3.4607 -0.3256
  205MOL0     H27655   5.786   7.897   0.091  3.1288 -1.9993 -3.0636
  205MOL0     H27656   5.634   8.083   0.135 -0.1650  1.0536  0.2400
  205MOL0     H27657   5.264   8.293   0.105 -2.2917  0.6189 -0.4557
  205MOL0     H27658   5.126   8.489   0.179  0.1837  0.2284 -0.5419
  205MOL0     H27659   3.647   8.372   0.466 -0.7075 -0.1031 -0.3356
  205MOL0     H27660   3.676   8.196   0.653 -1.2645  0.2300  0.6755
  205MOL0     H27661   3.869   7.835   0.734 -2.8313 -1.6960  1.9696
  205MOL0     H27662   3.950   7.594   0.784 -2.9729 -0.5220  0.8739
  205MOL0     H27663   4.058   7.406   0.785  4.0837 -5.0013 -2.5952
  205MOL0     H27664   4.118   7.328   0.925 -2.2039  0.5306  0.4149
  205MOL0     H27665   4.286   7.506   0.732  1.2450  0.2996  0.4348
  205MOL0     H27666   4.281   7.327   0.753 -1.1547 -1.0782  0.9984
  205MOL0     H27667   4.359   7.374   1.007  2.4183  1.4336  0.5992
  205MOL0     H27668   4.393   7.538   0.942  0.9379 -0.0408  3.1901
  205MOL0     H27669   4.488   7.254   0.848  5.7066 -1.6204  2.6432
  205MOL0     H27670   4.542   7.414   0.784 -1.2801  1.9324 -0.0801
  205MOL0     H27671   4.793   7.357   1.111 -0.8888 -2.5005  1.3402
  205MOL0     H27672   4.208   7.722   1.068 -1.7598  0.2002  0.6589
  205MOL0     H27673   4.165   8.045   1.105  2.5444  0.4672  0.9045
  205MOL0     H27674   4.292   7.936   1.075  0.7675  2.0791  1.6091
  205MOL0     H27675   4.255   8.055   0.947  2.6103 -1.5867 -0.1535
  206MOL0     O27676   3.597  11.048   9.900  0.2215 -0.5353 -0.6628
  206MOL0     C27677   3.472  11.071   9.915 -1.3314  0.2188  0.0283
  206MOL0     O27678   3.424  11.180   9.976 -0.1553 -0.9578 -0.8780
  206MOL0     C27679   3.515  11.280  10.029 -0.5051  0.5273 -0.0578
  206MOL0     C27680   3.548  11.407   9.970  0.2165  1.2710  0.0169
  206MOL0     C27681   3.610  11.491  10.064 -0.0206  1.4156  1.0905
  206MOL0     C27682   3.672  11.451  10.179  0.0848  0.1370 -0.2176
  206MOL0     O27683   3.737  11.550  10.245 -0.1992  0.2610 -0.2833
  206MOL0     C27684   3.797  11.516  10.368  0.5712 -0.6479 -0.5791
  206MOL0     C27685   3.840  11.646  10.436  0.5230  0.0823 -0.1348
  206MOL0     C27686   3.913  11.614  10.567  0.0725 -0.1032  0.1305
  206MOL0     C27687   3.966  11.740  10.640 -0.0164  0.7126 -0.1340
  206MOL0     C27688   3.844  11.820  10.694  0.0007  0.8143 -0.0755
  206MOL0     C27689   3.901  11.914  10.801 -0.0531 -0.0530  0.5789
  206MOL0     C27690   3.889  11.835  10.937 -0.5001 -0.0300  0.0155
  206MOL0     C27691   3.945  11.903  11.053  0.0499 -0.9404  0.7488
  206MOL0     N27692   4.100  11.928  11.050 -0.4211  0.5568  0.2512
  206MOL0     C27693   4.189  12.002  10.977 -0.7370 -0.0127  0.3246
  206MOL0     C27694   4.310  11.996  11.031  1.1758  0.5389 -0.0721
  206MOL0     C27695   4.435  12.068  10.996 -1.0425  0.5411  0.7378
  206MOL0     C27696   4.452  12.122  10.853  0.6914  0.3278 -0.6570
  206MOL0     C27697   4.460  12.022  10.730 -0.2871 -0.1648  0.5463
  206MOL0     C27698   4.445  12.099  10.595  0.3089 -0.6411 -0.6310
  206MOL0     O27699   4.356  12.217  10.605 -0.1051 -0.2913 -0.5221
  206MOL0     C27700   4.224  12.210  10.573  0.7231  0.8174  0.4909
  206MOL0     C27701   4.175  12.129  10.464  0.2117  0.5058  0.2415
  206MOL0     C27702   4.036  12.112  10.448 -0.7770  1.1860  0.7337
  206MOL0     C27703   3.943  12.185  10.523  0.2677  0.6194 -0.2000
  206MOL0     C27704   3.797  12.145  10.508  0.5716 -0.4398  0.0706
  206MOL0     O27705   3.768  12.082  10.394 -0.2631 -0.1632 -0.1542
  206MOL0     C27706   3.639  12.051  10.361  0.8589  0.2761  0.7812
  206MOL0     C27707   3.605  11.943  10.280 -0.1139 -0.4282 -0.2028
  206MOL0     C27708   3.468  11.904  10.260  0.5329  0.3302  0.5042
  206MOL0     C27709   3.367  11.992  10.286 -1.1316  0.2148  0.1134
  206MOL0     O27710   3.239  11.969  10.251 -0.5937 -0.5956  0.7771
  206MOL0     C27711   3.183  11.842  10.263  0.1984  0.1349 -0.2239
  206MOL0     C27712   3.036  11.829  10.272 -0.7936  0.7333 -0.1548
  206MOL0     C27713   2.976  11.920  10.383 -0.1044  0.3056 -1.2993
  206MOL0     C27714   2.945  12.065  10.344 -0.6525  1.0283  0.1551
  206MOL0     C27715   2.818  12.062  10.251  0.5409  0.8252 -0.1135
  206MOL0     C27716   2.759  12.204  10.252 -0.0089  0.0051  0.7473
  206MOL0     C27717   2.619  12.213  10.189 -0.8347  0.0245 -0.5086
  206MOL0     C27718   2.524  12.198  10.303 -0.1173 -0.6847  0.3840
  206MOL0    Cl27719   2.525  12.334  10.417  0.0229 -0.5077  0.5394
  206MOL0     C27720   3.392  12.107  10.358 -0.7608  0.9273 -1.1607
  206MOL0     C27721   3.528  12.135  10.401  0.1584  0.7798 -0.2574
  206MOL0     O27722   3.720  12.170  10.594  0.6894 -0.1302 -0.7345
  206MOL0     C27723   3.989  12.259  10.628 -1.4705 -0.4601 -0.2884
  206MOL0     C27724   4.130  12.275  10.657 -0.4263 -0.7001 -0.0149
  206MOL0     N27725   4.298  11.918  11.141  0.0740  0.5122 -0.1201
  206MOL0     N27726   4.175  11.885  11.153 -0.0978 -0.4591  0.7989
  206MOL0     C27727   3.656  11.322  10.225  0.5192 -0.3499  0.2910
  206MOL0     C27728   3.562  11.243  10.155 -0.7504  0.7760  0.0186
  206MOL0     C27729   3.389  10.975   9.845  0.1861 -0.2816 -0.0354
  206MOL0     C27730   3.444  10.889   9.745  0.4169 -0.5642  0.9683
  206MOL0     C27731   3.364  10.803   9.664 -0.2866 -0.4695 -0.3531
  206MOL0     C27732   3.228  10.808   9.680 -0.7696  0.6730  0.0968
  206MOL0     O27733   3.159  10.710   9.606 -0.2739  0.0679 -0.7661
  206MOL0     C27734   3.022  10.686   9.631 -0.9787 -0.3676  0.0418
  206MOL0     C27735   2.976  10.552   9.575 -0.0965 -0.5897  0.1488
  206MOL0     C27736   3.071  10.432   9.619 -0.0762 -0.2278 -0.4276
  206MOL0     C27737   3.034  10.299   9.561 -0.8270 -0.1573  0.1636
  206MOL0     C27738   3.006  10.311   9.414 -0.4726  0.4993  0.6677
  206MOL0     C27739   2.978  10.324   9.294  0.4721 -0.1579  1.4215
  206MOL0     C27740   3.167  10.901   9.760 -0.4039 -0.0269  0.2662
  206MOL0     C27741   3.250  10.980   9.848  0.6871 -0.0654 -0.0091
  206MOL0     C27742   3.165  11.067   9.944 -0.0432 -0.4994  0.5987
  206MOL0     H27743   3.502  11.436   9.875 -3.0799 -3.0134  0.0126
  206MOL0     H27744   3.645  11.588  10.031  4.2047 -0.3900 -0.5709
  206MOL0     H27745   3.735  11.451  10.431  0.1966 -0.4663 -0.7582
  206MOL0     H27746   3.876  11.447  10.337  0.0671 -0.8569 -1.4473
  206MOL0     H27747   3.744  11.699  10.440 -0.3582 -1.5093  0.4844
  206MOL0     H27748   3.899  11.715  10.373  1.2678 -0.2556  0.1869
  206MOL0     H27749   4.001  11.554  10.544  0.9177  0.9852  0.4854
  206MOL0     H27750   3.853  11.557  10.639 -0.5870  0.1021 -0.2411
  206MOL0     H27751   4.020  11.704  10.728 -2.3273  0.8614  1.4410
  206MOL0     H27752   4.029  11.808  10.582  0.7418 -1.9459 -2.6384
  206MOL0     H27753   3.788  11.869  10.614 -0.2019  0.4245 -0.1774
  206MOL0     H27754   3.780  11.745  10.742  0.7395  0.5333  0.4953
  206MOL0     H27755   4.002  11.946  10.777  0.8150 -4.2251 -2.3769
  206MOL0     H27756   3.835  12.001  10.796  0.5313  0.3354 -0.8508
  206MOL0     H27757   3.943  11.740  10.936  2.3799  1.3827  2.7995
  206MOL0     H27758   3.782  11.817  10.951 -0.5205  2.1908  4.1881
  206MOL0     H27759   3.901  12.003  11.053  0.7033 -0.6517  0.9071
  206MOL0     H27760   3.932  11.840  11.142 -1.4904 -4.8498 -1.9523
  206MOL0     H27761   4.176  12.069  10.893 -3.9460 -0.2842  0.4903
  206MOL0     H27762   4.465  12.150  11.063  2.1637  0.1305 -0.0205
  206MOL0     H27763   4.519  11.998  11.010 -0.3199  0.9592 -1.1897
  206MOL0     H27764   4.373  12.197  10.846 -0.8317 -0.8361  2.4644
  206MOL0     H27765   4.543  12.183  10.859  0.0998  1.0853  1.1858
  206MOL0     H27766   4.372  11.958  10.733 -0.4477  0.0085 -0.2849
  206MOL0     H27767   4.547  11.956  10.730  0.3379  0.6347  0.8080
  206MOL0     H27768   4.398  12.025  10.529 -1.2292  0.1760 -0.4882
  206MOL0     H27769   4.546  12.117  10.558  1.2170  0.7996  2.2702
  206MOL0     H27770   4.239  12.065  10.403 -0.0545  0.2535  0.2235
  206MOL0     H27771   4.010  12.048  10.365 -2.2091  0.3929  1.7491
  206MOL0     H27772   3.693  11.881  10.266 -0.5169 -1.5961  1.9479
  206MOL0     H27773   3.443  11.818  10.199 -0.4432  0.2012  1.0686
  206MOL0     H27774   3.210  11.793  10.169 -0.3063  3.5228 -2.3074
  206MOL0     H27775   3.222  11.794  10.353 -4.5846  0.1775  2.1948
  206MOL0     H27776   2.989  11.839  10.174 -0.4705 -0.5247 -0.4623
  206MOL0     H27777   3.010  11.725  10.294 -2.1145  1.4243  1.7742
  206MOL0     H27778   2.882  11.878  10.421  1.7974 -2.0933  1.1896
  206MOL0     H27779   3.056  11.917  10.458 -1.8523 -0.7479  0.6292
  206MOL0     H27780   3.029  12.111  10.291 -1.0968 -0.5154 -1.9877
  206MOL0     H27781   2.920  12.112  10.440 -0.9497  1.7253 -0.2607
  206MOL0     H27782   2.735  11.999  10.286 -1.1888  3.3546  0.5966
  206MOL0     H27783   2.843  12.044  10.146 -2.0200 -1.4325 -0.4772
  206MOL0     H27784   2.767  12.242  10.355  0.1267  0.3622  0.6094
  206MOL0     H27785   2.823  12.268  10.190 -2.3676 -1.6735 -3.8236
  206MOL0     H27786   2.612  12.146  10.103 -1.4757  0.8751 -1.1321
  206MOL0     H27787   2.605  12.311  10.141  2.5054  0.4086 -0.9663
  206MOL0     H27788   2.422  12.187  10.265 -0.1093  1.5510 -0.4170
  206MOL0     H27789   2.537  12.103  10.355  0.2182 -0.5465  0.5509
  206MOL0     H27790   3.322  12.181  10.395 -1.7106 -0.8309  0.8243
  206MOL0     H27791   3.535  12.235  10.443 -2.6993  0.8053  0.3942
  206MOL0     H27792   3.916  12.323  10.675  1.7103  2.5505  1.0368
  206MOL0     H27793   4.156  12.343  10.737 -0.4757 -0.0728 -0.5254
  206MOL0     H27794   3.699  11.285  10.317  2.6972  2.7445  0.7011
  206MOL0     H27795   3.539  11.141  10.187 -0.5403  0.9692  0.8133
  206MOL0     H27796   3.548  10.900   9.715  0.0169 -0.1654 -0.3142
  206MOL0     H27797   3.412  10.733   9.597 -1.5515 -2.0664  0.3465
  206MOL0     H27798   2.968  10.774   9.595  0.6297 -0.8208 -4.0462
  206MOL0     H27799   2.998  10.667   9.736  1.4979 -1.1405  0.5170
  206MOL0     H27800   2.986  10.556   9.466  2.7462 -0.1527  0.3417
  206MOL0     H27801   2.871  10.533   9.599 -0.4538  1.2499  0.2040
  206MOL0     H27802   3.088  10.427   9.727 -1.0205 -1.7593 -0.3114
  206MOL0     H27803   3.169  10.453   9.575  1.1997  2.4175  3.2115
  206MOL0     H27804   3.112  10.227   9.588 -2.3845 -1.9566  0.0728
  206MOL0     H27805   2.946  10.267   9.617 -0.3807  0.0605  0.9994
  206MOL0     H27806   2.974  10.343   9.189  1.4914  3.5740  1.8866
  206MOL0     H27807   3.059  10.897   9.765 -0.4274  0.9006  0.7843
  206MOL0     H27808   3.192  11.046  10.048 -1.4755 -0.7283  0.9354
  206MOL0     H27809   3.178  11.175   9.929 -0.2260  0.0073  3.4699
  206MOL0     H27810   3.061  11.037   9.932  0.2947 -1.4045 -0.1565
  207MOL0     O27811   9.196   4.061   9.950 -0.3408  0.4808 -0.3165
  207MOL0     C27812   9.192   4.162  10.013 -0.2351 -0.5925 -0.4220
  207MOL0     O27813   9.209   4.175  10.147 -0.7736  0.1139 -0.4743
  207MOL0     C27814   9.266   4.069  10.226  0.4480 -1.1095 -0.5115
  207MOL0     C27815   9.272   4.098  10.364 -0.1296  0.1316 -0.5712
  207MOL0     C27816   9.325   4.005  10.455 -0.5784  0.8520 -0.2921
  207MOL0     C27817   9.372   3.883  10.414 -0.3423  0.3357  0.6779
  207MOL0     O27818   9.407   3.799  10.507 -0.4126 -0.0592 -0.1280
  207MOL0     C27819   9.551   3.790  10.520 -0.1550 -0.1563 -0.1092
  207MOL0     C27820   9.593   3.732  10.656 -0.5448  0.0851  1.2307
  207MOL0     C27821   9.508   3.776  10.771 -0.5879 -0.0860  0.0811
  207MOL0     C27822   9.369   3.703  10.785 -0.0024 -0.4238  0.3409
  207MOL0     C27823   9.324   3.737  10.925  0.1475 -0.2556 -0.9490
  207MOL0     C27824   9.196   3.674  10.977 -0.3024  0.0648  0.1757
  207MOL0     C27825   9.177   3.665  11.128  0.4137  0.6712 -0.4035
  207MOL0     C27826   9.051   3.586  11.162 -0.9720 -0.6637  0.0332
  207MOL0     N27827   9.012   3.609  11.300  0.4378 -0.2270  0.0684
  207MOL0     C27828   9.081   3.603  11.422  0.6188  0.7492  0.1989
  207MOL0     C27829   8.983   3.622  11.518 -0.5810  0.5115  0.1943
  207MOL0     C27830   9.002   3.578  11.661  0.5756  0.4564 -0.2372
  207MOL0     C27831   8.913   3.463  11.693  0.1510  1.0988 -0.6609
  207MOL0     C27832   8.768   3.491  11.704  0.9226 -0.6654  0.9471
  207MOL0     C27833   8.728   3.607  11.788  0.1298 -1.0508 -0.2540
  207MOL0     O27834   8.591   3.613  11.830  0.3625  0.5296  0.3838
  207MOL0     C27835   8.537   3.530  11.928 -0.0325  0.8330 -0.2817
  207MOL0     C27836   8.401   3.541  11.951 -0.4176 -0.3745  0.0843
  207MOL0     C27837   8.336   3.463  12.047 -1.1598  0.4132 -0.4465
  207MOL0     C27838   8.415   3.384  12.140  0.0827 -0.5372  0.1179
  207MOL0     C27839   8.341   3.297  12.238 -0.9244 -0.2137  0.5864
  207MOL0     O27840   8.224   3.358  12.289  0.2024  0.6717 -0.4754
  207MOL0     C27841   8.152   3.322  12.395  1.1096 -0.0906  0.0901
  207MOL0     C27842   8.220   3.264  12.505 -0.1637  0.1642  0.2079
  207MOL0     C27843   8.145   3.213  12.609 -0.3462 -1.3436  0.4805
  207MOL0     C27844   8.006   3.236  12.619 -0.2244  0.2476 -0.0952
  207MOL0     O27845   7.936   3.182  12.727 -0.8888 -0.5787 -0.7239
  207MOL0     C27846   7.847   3.277  12.792  0.6220  1.0579 -0.1729
  207MOL0     C27847   7.800   3.216  12.920 -0.3523  0.4000  0.3647
  207MOL0     C27848   7.690   3.310  12.979 -0.6115  0.7098  1.0670
  207MOL0     C27849   7.612   3.254  13.097 -0.0947  0.9346  0.3182
  207MOL0     C27850   7.495   3.358  13.131 -1.4748  0.1678  0.5017
  207MOL0     C27851   7.379   3.362  13.032  0.8168 -0.6517  0.2717
  207MOL0     C27852   7.258   3.436  13.089  0.4929 -0.3670 -1.0389
  207MOL0     C27853   7.259   3.592  13.058  0.1918  0.1501  0.7138
  207MOL0    Cl27854   7.137   3.661  13.176 -0.3850  0.2588 -0.2397
  207MOL0     C27855   7.936   3.293  12.510 -0.4122  0.4513  0.8305
  207MOL0     C27856   8.011   3.332  12.393 -0.0647  0.0385 -0.5709
  207MOL0     O27857   8.385   3.182  12.261 -1.4901  0.0354 -0.3633
  207MOL0     C27858   8.553   3.370  12.116 -0.3674 -0.3199 -0.9576
  207MOL0     C27859   8.610   3.449  12.022  0.1072  0.4455 -0.7339
  207MOL0     N27860   8.865   3.656  11.453 -0.3152 -0.8009  0.3248
  207MOL0     N27861   8.891   3.646  11.333  0.7357 -0.6833  0.5480
  207MOL0     C27862   9.355   3.843  10.276 -0.1984  0.6738 -0.3621
  207MOL0     C27863   9.313   3.939  10.187 -0.3944 -0.6720  0.3341
  207MOL0     C27864   9.148   4.285   9.937  0.2118  0.3976  0.0596
  207MOL0     C27865   9.102   4.400  10.006  0.2503  0.7036 -0.3555
  207MOL0     C27866   9.065   4.518   9.947  0.1585  0.4248 -0.3073
  207MOL0     C27867   9.082   4.535   9.810  0.4047  0.7513  0.2374
  207MOL0     O27868   9.061   4.651   9.740  0.0524  0.0809  0.1014
  207MOL0     C27869   8.984   4.763   9.790 -0.2478 -0.9088  0.3291
  207MOL0     C27870   8.987   4.880   9.690 -0.2240 -0.1895  0.1569
  207MOL0     C27871   8.911   4.837   9.566  0.0309  0.1040 -0.1555
  207MOL0     C27872   8.911   4.938   9.449 -0.3848 -0.1905 -0.6455
  207MOL0     C27873   8.847   5.058   9.491  0.1960 -0.1371  0.6895
  207MOL0     C27874   8.784   5.161   9.511 -0.0172 -0.2535  0.9499
  207MOL0     C27875   9.130   4.426   9.736  0.2604 -0.2670  0.8203
  207MOL0     C27876   9.155   4.301   9.791 -0.7223  0.5041  0.7181
  207MOL0     C27877   9.217   4.189   9.697  0.4036  0.1609  0.6447
  207MOL0     H27878   9.256   4.197  10.406 -1.6620 -1.8086  4.1264
  207MOL0     H27879   9.345   4.028  10.559  0.6802 -0.7523 -0.1209
  207MOL0     H27880   9.577   3.732  10.431 -0.7842  1.4584 -1.3980
  207MOL0     H27881   9.588   3.893  10.523  0.3579 -0.3505  0.4962
  207MOL0     H27882   9.698   3.745  10.684 -0.2344 -1.9436  1.1820
  207MOL0     H27883   9.579   3.625  10.636 -0.0804  0.4180 -1.2054
  207MOL0     H27884   9.506   3.885  10.772  3.4431  0.1498 -0.5179
  207MOL0     H27885   9.572   3.747  10.855 -1.8495 -0.2749  1.0014
  207MOL0     H27886   9.304   3.744  10.707  0.8939  1.1041  0.3454
  207MOL0     H27887   9.375   3.594  10.776  1.3183 -0.6965  3.2069
  207MOL0     H27888   9.395   3.703  11.001 -2.2643 -1.7360  0.7589
  207MOL0     H27889   9.297   3.843  10.918 -3.9518 -1.1570 -1.1677
  207MOL0     H27890   9.121   3.745  10.940 -1.6975 -1.1495  0.5415
  207MOL0     H27891   9.173   3.578  10.929 -3.0925  1.8914 -2.5557
  207MOL0     H27892   9.174   3.763  11.176 -0.0833  1.0894 -1.2757
  207MOL0     H27893   9.258   3.601  11.164  0.0027 -0.9273 -2.1570
  207MOL0     H27894   8.969   3.624  11.101  1.5492  2.3897 -1.7529
  207MOL0     H27895   9.059   3.479  11.142 -1.8242 -0.4757 -1.3797
  207MOL0     H27896   9.184   3.573  11.437  0.3643 -1.5469 -2.0128
  207MOL0     H27897   9.107   3.549  11.669  1.1130  1.6912 -2.0096
  207MOL0     H27898   8.991   3.653  11.740  1.0570  2.4905 -1.9895
  207MOL0     H27899   8.924   3.396  11.607 -4.8071 -0.1730 -0.6312
  207MOL0     H27900   8.947   3.400  11.776 -1.6897  0.7970 -0.0959
  207MOL0     H27901   8.715   3.409  11.754  1.4683 -0.3032  2.1622
  207MOL0     H27902   8.725   3.516  11.607  0.0665  2.8914  2.1153
  207MOL0     H27903   8.748   3.701  11.734 -0.4556  1.4009  3.4586
  207MOL0     H27904   8.793   3.595  11.875  1.3170  3.4356 -0.2317
  207MOL0     H27905   8.346   3.613  11.893  0.9972  2.5711  2.1326
  207MOL0     H27906   8.228   3.477  12.058 -1.2966 -0.4191 -0.6532
  207MOL0     H27907   8.326   3.241  12.500 -0.6317 -3.7668  3.4294
  207MOL0     H27908   8.183   3.159  12.695  1.4012 -0.9081  0.0075
  207MOL0     H27909   7.902   3.370  12.806  1.2822  0.3513  2.5641
  207MOL0     H27910   7.758   3.294  12.731  0.3952 -1.9776 -0.8656
  207MOL0     H27911   7.762   3.119  12.886  2.4778 -0.7990  0.3226
  207MOL0     H27912   7.880   3.193  12.992 -1.2551 -6.2319 -0.1122
  207MOL0     H27913   7.741   3.405  13.003  1.8046 -0.5880  1.4464
  207MOL0     H27914   7.616   3.331  12.902  0.8178  1.7045 -0.0904
  207MOL0     H27915   7.680   3.233  13.179 -2.4683 -0.5621  2.0278
  207MOL0     H27916   7.566   3.156  13.086  0.9658  0.5008 -0.3666
  207MOL0     H27917   7.532   3.461  13.124 -0.2437 -0.3557 -1.3481
  207MOL0     H27918   7.458   3.335  13.232 -1.3916 -0.7359  0.3287
  207MOL0     H27919   7.396   3.393  12.928  0.6233 -0.1544  0.3852
  207MOL0     H27920   7.350   3.257  13.022  1.8815 -0.8599 -0.8030
  207MOL0     H27921   7.285   3.424  13.194  0.1745  0.4387 -0.8589
  207MOL0     H27922   7.166   3.383  13.062 -1.0391  0.9282  1.2989
  207MOL0     H27923   7.363   3.618  13.078 -0.2911  3.3752 -0.3851
  207MOL0     H27924   7.241   3.619  12.954  1.1865 -3.3275 -0.4865
  207MOL0     H27925   7.830   3.314  12.500 -1.1418 -3.3683 -1.4127
  207MOL0     H27926   7.963   3.372  12.304 -2.8784 -2.9037 -0.5483
  207MOL0     H27927   8.625   3.315  12.177 -2.2499 -0.5738  1.1956
  207MOL0     H27928   8.719   3.454  12.016  0.0390  0.3545 -2.2293
  207MOL0     H27929   9.403   3.751  10.245 -1.3662 -0.5151  1.2238
  207MOL0     H27930   9.326   3.904  10.085  1.5512  1.1090 -0.1077
  207MOL0     H27931   9.091   4.388  10.114  2.1487 -0.2014 -0.2342
  207MOL0     H27932   9.021   4.600  10.002 -2.2528 -0.3900 -0.8986
  207MOL0     H27933   9.018   4.796   9.889  0.8968  1.5974 -0.8347
  207MOL0     H27934   8.882   4.731   9.816 -0.6706  0.0105 -0.1682
  207MOL0     H27935   9.087   4.914   9.663 -1.0039  1.2528 -1.0828
  207MOL0     H27936   8.944   4.961   9.750 -0.7621  0.6221 -1.2686
  207MOL0     H27937   8.811   4.812   9.605  0.6352 -2.4482 -0.0286
  207MOL0     H27938   8.947   4.742   9.525 -0.5727 -1.2171  2.1716
  207MOL0     H27939   9.009   4.955   9.403 -0.7903 -0.3940 -1.6089
  207MOL0     H27940   8.854   4.893   9.368  0.1469 -0.6251 -0.7836
  207MOL0     H27941   8.720   5.247   9.515  3.4008  2.5919 -0.1358
  207MOL0     H27942   9.134   4.446   9.629  0.7206  0.7283  1.0092
  207MOL0     H27943   9.316   4.153   9.727  1.8364  1.4329 -2.1752
  207MOL0     H27944   9.144   4.107   9.693 -0.2919  0.7827  0.2873
  207MOL0     H27945   9.233   4.216   9.593 -1.7011 -0.8576 -0.0116
  208MOL0     O27946   8.528   8.650  10.978  0.1704 -0.5897  0.4974
  208MOL0     C27947   8.455   8.559  11.014 -0.6402 -0.5490 -0.1680
  208MOL0     O27948   8.503   8.432  11.024  1.1509  0.0462  0.1859
  208MOL0     C27949   8.627   8.404  10.969  0.3987  0.8410  0.4547
  208MOL0     C27950   8.631   8.362  10.828 -0.6372 -0.6459  1.0036
  208MOL0     C27951   8.748   8.338  10.763  0.1871  0.3258 -0.8119
  208MOL0     C27952   8.874   8.341  10.839  0.8105 -0.2033 -0.0155
  208MOL0     O27953   8.984   8.300  10.767  0.5597  0.6094  0.3574
  208MOL0     C27954   9.113   8.364  10.774 -0.1996 -0.8081  0.1112
  208MOL0     C27955   9.207   8.302  10.870  0.9903  0.6980  0.1122
  208MOL0     C27956   9.184   8.153  10.869 -0.2936 -0.7055 -0.6885
  208MOL0     C27957   9.296   8.087  10.954  0.2756  0.0327  0.4612
  208MOL0     C27958   9.240   7.952  11.000  0.1670 -1.2096 -0.7074
  208MOL0     C27959   9.224   7.932  11.151  0.0811 -0.2154 -1.5053
  208MOL0     C27960   9.180   7.781  11.168  0.3181 -0.5538 -0.8177
  208MOL0     C27961   9.170   7.745  11.318  0.5122  0.3086  0.4178
  208MOL0     N27962   9.151   7.595  11.331  0.1779 -0.0104 -0.1111
  208MOL0     C27963   9.247   7.511  11.353  1.0134 -0.7307 -0.5368
  208MOL0     C27964   9.214   7.388  11.307  0.1952  0.7616  0.3826
  208MOL0     C27965   9.305   7.263  11.318 -0.5806 -0.2410  0.5229
  208MOL0     C27966   9.312   7.214  11.462  0.0420 -0.1098  0.1868
  208MOL0     C27967   9.179   7.149  11.505 -0.4535  0.4775 -0.0599
  208MOL0     C27968   9.195   7.076  11.644 -0.0944 -0.1588  0.9319
  208MOL0     O27969   9.220   7.164  11.752  0.2124  0.7378 -0.2364
  208MOL0     C27970   9.335   7.149  11.822 -0.1788 -0.0081 -0.2996
  208MOL0     C27971   9.457   7.123  11.760  0.6858 -0.4830  0.0392
  208MOL0     C27972   9.575   7.134  11.835  0.4773  0.6349 -0.2779
  208MOL0     C27973   9.566   7.175  11.967 -0.1319 -0.4134 -0.0134
  208MOL0     C27974   9.687   7.225  12.036 -0.2799 -0.8199  0.5481
  208MOL0     O27975   9.699   7.202  12.177  0.4040  0.0563  0.8989
  208MOL0     C27976   9.817   7.252  12.233  0.9462  0.1758 -0.7350
  208MOL0     C27977   9.828   7.389  12.270  0.3157  1.0081 -0.9845
  208MOL0     C27978   9.959   7.436  12.321 -0.3551  0.4707  0.5000
  208MOL0     C27979  10.067   7.348  12.319 -0.8836 -0.5912 -0.0600
  208MOL0     O27980  10.202   7.392  12.347  0.5570 -0.6561 -0.6518
  208MOL0     C27981  10.313   7.303  12.358 -0.3531  0.1323  0.2037
  208MOL0     C27982  10.414   7.365  12.456 -1.0870  0.3053  0.3676
  208MOL0     C27983  10.474   7.496  12.391  0.7390  0.4841  0.2313
  208MOL0     C27984  10.579   7.555  12.481  0.0168 -0.7137  0.0920
  208MOL0     C27985  10.683   7.656  12.413  0.1493 -0.1410  1.0751
  208MOL0     C27986  10.831   7.651  12.451  0.3506  0.0644 -0.3567
  208MOL0     C27987  10.854   7.649  12.600  1.0058 -0.5321 -0.5897
  208MOL0     C27988  10.998   7.663  12.623  0.3563 -0.1890  0.0998
  208MOL0    Cl27989  11.040   7.841  12.625  0.1125 -0.0676  0.2083
  208MOL0     C27990  10.044   7.215  12.279 -0.2811 -0.6422 -0.3192
  208MOL0     C27991   9.920   7.166  12.252 -0.0434  0.5473 -1.0857
  208MOL0     O27992   9.768   7.284  11.961 -0.5121 -0.7913  0.2650
  208MOL0     C27993   9.442   7.203  12.033  0.6642  0.0755  0.0043
  208MOL0     C27994   9.327   7.181  11.955 -0.4381  0.4124  0.3403
  208MOL0     N27995   9.082   7.396  11.257 -0.6073  0.1270 -0.2999
  208MOL0     N27996   9.046   7.520  11.279  0.1760  0.1177  0.8540
  208MOL0     C27997   8.869   8.369  10.976 -0.1488  0.5325 -0.1602
  208MOL0     C27998   8.742   8.406  11.043 -0.4749 -0.1465 -0.2869
  208MOL0     C27999   8.315   8.594  11.058 -0.1318 -0.4195  0.1503
  208MOL0     C28000   8.250   8.501  11.147 -0.5423 -0.9040  0.2392
  208MOL0     C28001   8.113   8.517  11.182 -0.5096  0.9773 -0.1751
  208MOL0     C28002   8.042   8.617  11.129 -0.3815  0.5017 -0.1666
  208MOL0     O28003   7.900   8.615  11.128 -0.4195 -0.3091  0.4294
  208MOL0     C28004   7.818   8.544  11.218  0.3608  0.2481  0.2971
  208MOL0     C28005   7.725   8.622  11.296 -0.1821 -0.1932 -0.6242
  208MOL0     C28006   7.647   8.543  11.405  0.4355  1.0657  0.7758
  208MOL0     C28007   7.561   8.418  11.355 -0.1021  0.3831 -0.9328
  208MOL0     C28008   7.436   8.456  11.287 -0.5044 -0.2767  1.4468
  208MOL0     C28009   7.333   8.494  11.232 -0.2286  1.0275 -0.1617
  208MOL0     C28010   8.105   8.703  11.037 -0.5439 -0.0146  0.3736
  208MOL0     C28011   8.249   8.700  11.008 -0.6128  0.0635 -0.0591
  208MOL0     C28012   8.298   8.792  10.903  0.7577 -0.6478  0.2189
  208MOL0     H28013   8.534   8.362  10.779  0.7082 -0.3672 -1.8400
  208MOL0     H28014   8.756   8.307  10.660 -0.3729  1.5679 -1.2502
  208MOL0     H28015   9.165   8.351  10.679  2.0936  1.0779  1.0191
  208MOL0     H28016   9.081   8.466  10.800 -1.6236 -0.8998 -1.1675
  208MOL0     H28017   9.187   8.340  10.971 -0.4401 -0.6893  0.3821
  208MOL0     H28018   9.309   8.327  10.841  1.5989  0.1342  1.6759
  208MOL0     H28019   9.188   8.109  10.769  0.1927 -2.2464 -0.0319
  208MOL0     H28020   9.085   8.158  10.917  0.7372  2.0673  1.4102
  208MOL0     H28021   9.390   8.082  10.900  1.5077  0.4590  2.4483
  208MOL0     H28022   9.326   8.154  11.035 -0.3230  2.0916 -0.9341
  208MOL0     H28023   9.143   7.926  10.957 -0.3166 -1.7432  0.6570
  208MOL0     H28024   9.317   7.882  10.966  2.2119  0.7287 -0.3210
  208MOL0     H28025   9.309   7.966  11.211 -1.0187  0.7908 -0.4770
  208MOL0     H28026   9.145   7.998  11.187  1.1803  0.4041 -0.1448
  208MOL0     H28027   9.261   7.722  11.125  1.7835  0.6829  0.1508
  208MOL0     H28028   9.089   7.752  11.115 -1.4103  1.9250  0.5696
  208MOL0     H28029   9.253   7.789  11.373  0.8449  1.1050 -0.6755
  208MOL0     H28030   9.076   7.785  11.359 -0.5364 -1.1356 -0.4711
  208MOL0     H28031   9.336   7.530  11.412  0.5272  1.2785 -0.3475
  208MOL0     H28032   9.277   7.178  11.254  2.0949  1.0668 -2.6804
  208MOL0     H28033   9.404   7.289  11.279  1.1300 -2.5722  2.9423
  208MOL0     H28034   9.389   7.137  11.450 -1.0236 -1.0076 -0.9666
  208MOL0     H28035   9.349   7.291  11.532  2.3242  0.9843 -2.0636
  208MOL0     H28036   9.165   7.072  11.429 -0.2728  0.6379 -0.2577
  208MOL0     H28037   9.094   7.218  11.502 -2.1065 -1.3850 -4.3905
  208MOL0     H28038   9.262   6.990  11.643  0.9368  0.5923  2.0855
  208MOL0     H28039   9.098   7.032  11.667  0.1722 -1.6214 -0.4961
  208MOL0     H28040   9.458   7.101  11.654 -0.3410  2.1110 -0.5897
  208MOL0     H28041   9.674   7.126  11.790  1.0451  3.8581  0.0953
  208MOL0     H28042   9.744   7.456  12.256 -0.4964 -0.2157 -2.2369
  208MOL0     H28043   9.977   7.540  12.346 -1.9850  1.0480 -0.5690
  208MOL0     H28044  10.280   7.206  12.397 -0.9359  1.0692  2.1880
  208MOL0     H28045  10.353   7.278  12.260  0.7587  1.7488  0.1954
  208MOL0     H28046  10.384   7.387  12.559  2.6349 -1.8135  2.1252
  208MOL0     H28047  10.496   7.295  12.479  0.2688  1.5915 -0.3393
  208MOL0     H28048  10.523   7.477  12.295  2.9353 -0.7801  1.5258
  208MOL0     H28049  10.394   7.567  12.370 -0.1533 -0.5467  0.0804
  208MOL0     H28050  10.630   7.470  12.528 -0.0800 -0.5381  0.5145
  208MOL0     H28051  10.543   7.603  12.572  1.1816 -0.6090  0.5081
  208MOL0     H28052  10.646   7.758  12.426 -2.0881 -0.7971  0.3012
  208MOL0     H28053  10.683   7.638  12.305 -0.3389 -0.0226  1.0539
  208MOL0     H28054  10.867   7.558  12.405 -2.5732 -2.2360  1.5573
  208MOL0     H28055  10.882   7.737  12.408  1.4126 -0.8603 -0.9900
  208MOL0     H28056  10.825   7.557  12.652  1.9016 -0.2605  0.4216
  208MOL0     H28057  10.795   7.725  12.651  1.7708  0.0415 -0.5445
  208MOL0     H28058  11.017   7.612  12.717 -1.4722  0.5633  0.9320
  208MOL0     H28059  11.045   7.618  12.535 -2.3953 -0.8151 -1.1536
  208MOL0     H28060  10.127   7.145  12.283  0.3757  0.1828  2.2959
  208MOL0     H28061   9.896   7.060  12.247 -2.1710  0.9182  0.2152
  208MOL0     H28062   9.433   7.234  12.137  2.7032  0.4364  0.0984
  208MOL0     H28063   9.236   7.221  11.997  0.7173  2.3762  1.1494
  208MOL0     H28064   8.962   8.380  11.031 -0.0425  2.5420 -0.6636
  208MOL0     H28065   8.745   8.432  11.149  4.3373  1.1417 -0.5126
  208MOL0     H28066   8.306   8.411  11.168 -0.8111 -1.7801 -2.4835
  208MOL0     H28067   8.065   8.439  11.241  2.1628 -0.8303 -0.1740
  208MOL0     H28068   7.876   8.476  11.281 -0.0435  0.2990  0.7375
  208MOL0     H28069   7.752   8.473  11.167 -0.7728  0.1412  1.8496
  208MOL0     H28070   7.659   8.676  11.227 -1.6984  1.8579  2.2024
  208MOL0     H28071   7.790   8.701  11.336 -1.6087  1.0012 -0.5606
  208MOL0     H28072   7.577   8.603  11.464 -1.3592  1.2947 -1.4473
  208MOL0     H28073   7.724   8.496  11.466  1.7683  0.4979 -1.2150
  208MOL0     H28074   7.615   8.349  11.289  1.7547  0.4743  0.3983
  208MOL0     H28075   7.536   8.356  11.442  2.0097 -1.0305 -1.2706
  208MOL0     H28076   7.239   8.528  11.193 -0.7223  0.4774  0.5237
  208MOL0     H28077   8.055   8.786  10.988  2.5693  2.6079  1.3316
  208MOL0     H28078   8.329   8.740  10.812  0.2543  3.6135 -2.6686
  208MOL0     H28079   8.220   8.860  10.868  1.7406  0.3124 -0.1756
  208MOL0     H28080   8.374   8.865  10.934 -1.4612  1.6813  0.5444
  209MOL0     O28081   6.245   8.458   3.433  0.8709 -0.8975 -0.0420
  209MOL0     C28082   6.181   8.367   3.378  0.5644  0.1726 -0.7850
  209MOL0     O28083   6.047   8.338   3.401  0.2181 -0.2442 -0.0637
  209MOL0     C28084   5.990   8.409   3.501  0.9760 -0.4564 -0.0985
  209MOL0     C28085   6.025   8.389   3.638  0.2201 -0.4440  0.1174
  209MOL0     C28086   5.955   8.456   3.740  0.5680  0.3985  0.7422
  209MOL0     C28087   5.830   8.503   3.703  0.1175  0.0453 -0.2336
  209MOL0     O28088   5.754   8.543   3.810 -0.0686  0.7508  0.2381
  209MOL0     C28089   5.624   8.589   3.784 -0.1188 -0.1727 -0.2585
  209MOL0     C28090   5.570   8.600   3.921  1.0359 -0.3784 -0.4776
  209MOL0     C28091   5.426   8.664   3.935 -0.0824  0.6789  0.6346
  209MOL0     C28092   5.349   8.700   3.809 -0.0492 -1.0866 -0.2098
  209MOL0     C28093   5.212   8.750   3.834  0.3450  0.2356 -0.3957
  209MOL0     C28094   5.126   8.771   3.702  0.3889 -0.1901  0.7953
  209MOL0     C28095   5.155   8.891   3.625  0.8834  0.4779  0.0232
  209MOL0     C28096   5.094   9.021   3.684  0.5472 -0.8282  0.0011
  209MOL0     N28097   5.095   9.118   3.572  0.2820 -1.0327  0.1594
  209MOL0     C28098   5.203   9.158   3.495  0.2902  0.2754  0.1552
  209MOL0     C28099   5.142   9.250   3.421  0.2145 -0.4196 -0.0991
  209MOL0     C28100   5.224   9.331   3.311 -0.1080  0.5075  0.9992
  209MOL0     C28101   5.313   9.433   3.392  0.4920  0.2941  0.0744
  209MOL0     C28102   5.228   9.534   3.481 -0.1430  1.3706 -0.1697
  209MOL0     C28103   5.142   9.625   3.387 -0.5074  1.3684 -0.3189
  209MOL0     O28104   5.216   9.689   3.282 -0.3612  0.6679  0.3631
  209MOL0     C28105   5.308   9.788   3.299 -0.4187  0.0200 -0.4724
  209MOL0     C28106   5.374   9.838   3.176 -0.2652 -0.1165  0.2731
  209MOL0     C28107   5.462   9.944   3.182 -0.0976  0.8247 -0.4930
  209MOL0     C28108   5.486  10.013   3.300  0.6770  0.2465  1.0050
  209MOL0     C28109   5.570  10.129   3.313  0.6705  0.1844 -0.7387
  209MOL0     O28110   5.628  10.170   3.200 -0.0059 -0.4123 -0.3428
  209MOL0     C28111   5.720  10.264   3.206  0.1486  0.4522  0.6149
  209MOL0     C28112   5.673  10.387   3.242 -0.8002 -0.2701  0.0199
  209MOL0     C28113   5.771  10.493   3.265 -0.6907 -0.6154  0.3838
  209MOL0     C28114   5.906  10.472   3.236 -0.9292  0.0453  0.0005
  209MOL0     O28115   6.001  10.570   3.250 -0.4737  0.0192 -0.1853
  209MOL0     C28116   5.972  10.709   3.275 -1.2931  0.0891  0.5273
  209MOL0     C28117   6.106  10.785   3.255 -1.1452 -0.1210 -0.1709
  209MOL0     C28118   6.111  10.939   3.253 -0.0479  0.3584  0.0663
  209MOL0     C28119   6.245  11.007   3.287  0.1774  0.1064  0.1373
  209MOL0     C28120   6.344  11.013   3.169 -0.3906  0.1524  0.5268
  209MOL0     C28121   6.483  11.078   3.199  0.1799 -0.4535  0.6498
  209MOL0     C28122   6.531  11.142   3.063  0.0075  0.0408 -0.2441
  209MOL0     C28123   6.680  11.185   3.068 -1.0794 -0.0702 -0.0743
  209MOL0    Cl28124   6.730  11.258   3.224  0.0807  0.2286 -0.1290
  209MOL0     C28125   5.949  10.345   3.202  0.2159  0.3719 -0.3875
  209MOL0     C28126   5.855  10.243   3.171  0.2280  0.1406 -0.0193
  209MOL0     O28127   5.606  10.174   3.427  0.5726  0.0166  0.3966
  209MOL0     C28128   5.416   9.957   3.416 -0.7852  0.2828 -0.3021
  209MOL0     C28129   5.335   9.849   3.420  0.6047 -1.7630 -0.0160
  209MOL0     N28130   5.013   9.272   3.440  0.1804  1.1831  0.1972
  209MOL0     N28131   4.981   9.180   3.524  0.0543 -0.0479  0.1937
  209MOL0     C28132   5.786   8.514   3.571 -0.0019  0.2768  0.3387
  209MOL0     C28133   5.865   8.466   3.465 -0.5753  0.2488  0.7213
  209MOL0     C28134   6.261   8.286   3.297 -0.0101 -0.1290  0.2718
  209MOL0     C28135   6.402   8.313   3.285  0.0990 -1.2216  0.4893
  209MOL0     C28136   6.486   8.259   3.190 -0.2008 -0.4651  0.2091
  209MOL0     C28137   6.434   8.161   3.112 -0.3175 -0.3459 -0.4744
  209MOL0     O28138   6.516   8.094   3.024 -0.0867  0.3604  0.7451
  209MOL0     C28139   6.490   8.088   2.884  0.7842 -0.7315 -0.5094
  209MOL0     C28140   6.521   8.216   2.801 -0.9297 -0.4152  0.1802
  209MOL0     C28141   6.502   8.187   2.656 -0.6204  0.1776  0.0305
  209MOL0     C28142   6.552   8.309   2.578 -0.8349 -0.0021  0.3282
  209MOL0     C28143   6.462   8.315   2.461 -0.0756  0.2267 -0.4062
  209MOL0     C28144   6.396   8.290   2.358 -0.4551  0.7304  0.1264
  209MOL0     C28145   6.292   8.127   3.125 -0.7256  0.3858 -1.2292
  209MOL0     C28146   6.204   8.183   3.217  0.2403 -0.9521  0.6243
  209MOL0     C28147   6.061   8.140   3.214 -0.2650 -0.2494 -0.0654
  209MOL0     H28148   6.107   8.323   3.661 -1.4544 -2.2957  0.9864
  209MOL0     H28149   5.989   8.454   3.842  1.5070  1.9221  0.4967
  209MOL0     H28150   5.617   8.692   3.748 -1.4819  0.5249  1.8360
  209MOL0     H28151   5.561   8.519   3.728 -1.9591  0.8318  0.4600
  209MOL0     H28152   5.640   8.663   3.976 -0.7885  2.0216 -0.7246
  209MOL0     H28153   5.578   8.507   3.977  0.9212  1.3205  2.5462
  209MOL0     H28154   5.420   8.754   3.996 -0.7728 -1.1517  3.4704
  209MOL0     H28155   5.358   8.594   3.985 -0.4303 -2.1648 -3.3439
  209MOL0     H28156   5.408   8.771   3.751  1.8341 -0.7360  1.9885
  209MOL0     H28157   5.334   8.612   3.745 -1.7812 -0.9279 -0.0654
  209MOL0     H28158   5.155   8.685   3.901 -0.3821 -3.2674 -4.0248
  209MOL0     H28159   5.218   8.852   3.873  1.3320  1.8427 -4.2837
  209MOL0     H28160   5.146   8.688   3.634  1.7570 -0.1539  1.1126
  209MOL0     H28161   5.018   8.765   3.717  0.0928 -2.5549 -1.4844
  209MOL0     H28162   5.118   8.860   3.527 -1.1952 -1.1520  1.2244
  209MOL0     H28163   5.260   8.912   3.601  1.1002 -0.9782 -0.4133
  209MOL0     H28164   4.990   8.987   3.697  1.3088 -2.9377  1.2492
  209MOL0     H28165   5.137   9.045   3.782  0.3282  0.7988 -0.2801
  209MOL0     H28166   5.308   9.132   3.501 -0.0432 -1.2416 -0.1508
  209MOL0     H28167   5.283   9.269   3.242 -1.5853  0.5366 -0.3381
  209MOL0     H28168   5.165   9.393   3.243  1.7084  3.7359  2.1699
  209MOL0     H28169   5.357   9.371   3.471 -0.2379  2.3249  2.2063
  209MOL0     H28170   5.381   9.473   3.317 -1.2273  2.8135 -0.2384
  209MOL0     H28171   5.305   9.597   3.527  2.7243  0.5051 -3.3454
  209MOL0     H28172   5.165   9.498   3.562 -0.3357  0.8168 -0.5598
  209MOL0     H28173   5.092   9.693   3.456 -2.0134 -0.0775  0.0747
  209MOL0     H28174   5.054   9.581   3.340 -2.6003  3.7592  1.1645
  209MOL0     H28175   5.353   9.779   3.087 -1.5790  0.4061  0.2150
  209MOL0     H28176   5.527   9.964   3.097  1.5109  0.1251  0.5392
  209MOL0     H28177   5.569  10.410   3.261 -0.2446  2.3922  0.2325
  209MOL0     H28178   5.734  10.585   3.309 -3.8159  1.0947 -4.8435
  209MOL0     H28179   5.894  10.744   3.206 -0.2610  1.8959  0.2175
  209MOL0     H28180   5.949  10.735   3.378 -0.1039 -2.5938  1.5858
  209MOL0     H28181   6.174  10.757   3.336  2.8544  1.8635 -2.5267
  209MOL0     H28182   6.155  10.739   3.168  3.2985  2.2245  0.8176
  209MOL0     H28183   6.075  10.966   3.153 -2.0822 -0.1380  0.6286
  209MOL0     H28184   6.036  10.981   3.320  2.4277  3.3190  1.1903
  209MOL0     H28185   6.283  10.973   3.384 -1.7496  1.1049  1.2896
  209MOL0     H28186   6.211  11.110   3.297 -0.5938 -0.1065 -0.2623
  209MOL0     H28187   6.300  11.057   3.078  0.4780 -0.2360 -0.0876
  209MOL0     H28188   6.334  10.908   3.143 -0.2929 -0.1196  1.5398
  209MOL0     H28189   6.476  11.161   3.270 -0.4268  0.9305 -0.9573
  209MOL0     H28190   6.545  10.995   3.235 -0.3519 -0.3103  1.9570
  209MOL0     H28191   6.463  11.226   3.046  2.2332  1.7242 -1.4317
  209MOL0     H28192   6.517  11.069   2.984 -2.0833 -2.0414  1.8933
  209MOL0     H28193   6.733  11.090   3.056 -2.6770 -0.8766 -1.0353
  209MOL0     H28194   6.704  11.251   2.984  1.0687  2.7660  2.5516
  209MOL0     H28195   6.056  10.330   3.199  0.3840  1.5071 -0.5714
  209MOL0     H28196   5.901  10.149   3.141 -0.1064 -0.2489  0.6813
  209MOL0     H28197   5.451   9.994   3.513  0.2593 -0.6319 -0.3067
  209MOL0     H28198   5.293   9.812   3.513  0.4043  1.0018  1.0859
  209MOL0     H28199   5.684   8.542   3.547 -0.2208 -3.4474 -4.5956
  209MOL0     H28200   5.832   8.471   3.362 -0.0124 -0.9193  0.4726
  209MOL0     H28201   6.453   8.395   3.334  1.2193 -0.9181 -1.0968
  209MOL0     H28202   6.588   8.294   3.177  0.6974 -2.7800  0.5135
  209MOL0     H28203   6.385   8.060   2.867  0.5914  0.5995 -1.7516
  209MOL0     H28204   6.554   8.008   2.847  0.4043 -2.4184  2.2440
  209MOL0     H28205   6.627   8.244   2.811 -0.8224 -1.0505  1.0215
  209MOL0     H28206   6.457   8.300   2.827  1.9382  1.2320  2.6346
  209MOL0     H28207   6.393   8.181   2.648 -0.5881 -0.5833  0.0902
  209MOL0     H28208   6.551   8.094   2.627  3.5459  2.8723 -2.7525
  209MOL0     H28209   6.556   8.408   2.624  1.4696  0.9212 -1.6616
  209MOL0     H28210   6.645   8.285   2.526 -0.7885  2.2078 -0.7189
  209MOL0     H28211   6.363   8.270   2.258  1.3336  1.5443 -0.6747
  209MOL0     H28212   6.248   8.044   3.071 -0.2026  0.6931 -2.1430
  209MOL0     H28213   5.997   8.226   3.193  1.9873  1.0134 -2.3536
  209MOL0     H28214   6.031   8.091   3.120 -4.3100 -1.4756  1.6579
  209MOL0     H28215   6.028   8.074   3.295 -1.4323 -0.8140 -0.9591
  210MOL0     O28216   4.755  11.143   8.097  0.0959 -0.6923 -1.1018
  210MOL0     C28217   4.718  11.210   8.199 -0.2509 -0.9220  0.7624
  210MOL0     O28218   4.596  11.271   8.219 -0.8283  0.5409  0.7106
  210MOL0     C28219   4.502  11.229   8.134 -0.2534 -0.0544  0.2130
  210MOL0     C28220   4.480  11.292   8.007  0.0543 -0.0867 -0.5044
  210MOL0     C28221   4.386  11.242   7.924  0.4970 -0.1592 -0.1368
  210MOL0     C28222   4.299  11.138   7.956  0.2310  0.2580 -1.1872
  210MOL0     O28223   4.213  11.081   7.872  0.6488 -0.3287  0.0854
  210MOL0     C28224   4.191  10.945   7.860 -1.0673 -0.2266 -0.1964
  210MOL0     C28225   4.048  10.917   7.873 -0.6508 -0.2599  0.3841
  210MOL0     C28226   4.028  10.766   7.847  0.2475  0.7580  1.2941
  210MOL0     C28227   3.877  10.733   7.828  0.8360 -0.6756 -0.9189
  210MOL0     C28228   3.873  10.595   7.762  0.0839  0.4561  0.7136
  210MOL0     C28229   3.741  10.576   7.687 -0.3067  0.1984  0.2834
  210MOL0     C28230   3.631  10.559   7.792 -0.1081 -0.6439 -0.3443
  210MOL0     C28231   3.500  10.531   7.723 -0.5614  0.3637  0.8192
  210MOL0     N28232   3.393  10.520   7.820  0.0122 -0.7709 -0.6541
  210MOL0     C28233   3.321  10.631   7.873  0.0785 -0.0501 -0.3500
  210MOL0     C28234   3.221  10.577   7.946 -0.2575  1.2639  0.0042
  210MOL0     C28235   3.111  10.647   8.019  0.6764  0.0780  0.8132
  210MOL0     C28236   3.148  10.657   8.167  0.0771 -0.1430 -0.0044
  210MOL0     C28237   3.023  10.693   8.250  0.2805  0.6650  0.3427
  210MOL0     C28238   2.934  10.570   8.283  0.1087  0.4774 -0.1115
  210MOL0     O28239   2.868  10.582   8.404  0.3832  0.0026 -0.3289
  210MOL0     C28240   2.731  10.610   8.411  0.4455  0.6479  1.0204
  210MOL0     C28241   2.650  10.625   8.296 -0.2413 -0.1672 -0.0369
  210MOL0     C28242   2.508  10.654   8.316 -0.6366 -0.5642 -0.9449
  210MOL0     C28243   2.453  10.658   8.446 -0.1915  0.0591 -0.3140
  210MOL0     C28244   2.314  10.674   8.459 -0.1975 -0.1382  0.5237
  210MOL0     O28245   2.254  10.648   8.576 -0.0905 -0.2175  0.0369
  210MOL0     C28246   2.129  10.683   8.610 -0.1604  0.1738 -0.3832
  210MOL0     C28247   2.016  10.648   8.539  0.3868 -1.4652  0.4161
  210MOL0     C28248   1.894  10.690   8.589  0.2511 -0.0792  0.3099
  210MOL0     C28249   1.879  10.763   8.706 -0.4668 -0.2533 -0.1572
  210MOL0     O28250   1.752  10.792   8.754  0.1458  1.1339 -1.0307
  210MOL0     C28251   1.675  10.673   8.778  0.6440 -0.4700  0.7146
  210MOL0     C28252   1.684  10.642   8.927 -0.3881  0.3800  0.0917
  210MOL0     C28253   1.578  10.545   8.980 -0.9206 -0.4254  0.7328
  210MOL0     C28254   1.589  10.414   8.904  0.7818  0.0860 -0.0092
  210MOL0     C28255   1.470  10.324   8.925 -0.3096  0.6886 -0.8816
  210MOL0     C28256   1.453  10.271   9.065 -0.8914 -0.6550 -0.2884
  210MOL0     C28257   1.554  10.154   9.092  0.8942 -0.2027 -0.1161
  210MOL0     C28258   1.529  10.060   9.205  0.6344  0.6474 -0.3331
  210MOL0    Cl28259   1.650   9.925   9.216 -0.3637  0.0818 -0.0993
  210MOL0     C28260   1.995  10.801   8.778  0.3727  0.7236  0.5794
  210MOL0     C28261   2.116  10.764   8.727 -1.9198 -0.7127  0.0905
  210MOL0     O28262   2.250  10.712   8.368  0.1913  0.6538  0.8540
  210MOL0     C28263   2.542  10.640   8.552 -0.4186 -0.1601 -1.5439
  210MOL0     C28264   2.676  10.619   8.538 -1.0393  0.2540  0.1174
  210MOL0     N28265   3.227  10.439   7.931  0.0529 -0.1749  0.5442
  210MOL0     N28266   3.318  10.406   7.847  0.0377 -0.1902 -0.2247
  210MOL0     C28267   4.318  11.077   8.085  0.5368  0.0086  0.4685
  210MOL0     C28268   4.422  11.121   8.166  0.8568  1.1618 -0.2695
  210MOL0     C28269   4.820  11.266   8.291  0.6433 -0.6758  0.0051
  210MOL0     C28270   4.812  11.243   8.431  0.0425 -0.4248 -0.9314
  210MOL0     C28271   4.896  11.298   8.522  0.6748  0.8158  0.0041
  210MOL0     C28272   4.998  11.377   8.483 -0.1721 -0.2074  0.0318
  210MOL0     O28273   5.090  11.414   8.583 -0.6692  0.6899 -0.1544
  210MOL0     C28274   5.188  11.518   8.548 -1.0329 -0.4033  0.5375
  210MOL0     C28275   5.124  11.657   8.558 -0.2288 -0.1196 -0.0587
  210MOL0     C28276   5.069  11.699   8.697 -0.2870 -0.4567 -0.0464
  210MOL0     C28277   5.070  11.856   8.711  0.0596 -0.6782  0.1621
  210MOL0     C28278   5.044  11.889   8.857 -1.0943 -0.1175  0.6752
  210MOL0     C28279   5.037  11.923   8.974 -0.5938 -0.3426  0.7349
  210MOL0     C28280   5.014  11.405   8.344 -0.5170 -0.0287  0.4871
  210MOL0     C28281   4.925  11.351   8.248 -0.0120  0.0633  0.0795
  210MOL0     C28282   4.949  11.383   8.107 -0.7808  0.9249  0.3235
  210MOL0     H28283   4.534  11.381   7.977  0.1448  0.1773  0.4227
  210MOL0     H28284   4.371  11.294   7.830  0.2743  1.4814  0.7639
  210MOL0     H28285   4.228  10.910   7.763  0.4375 -0.4111  0.4262
  210MOL0     H28286   4.245  10.891   7.938 -1.7896  0.3290  0.7162
  210MOL0     H28287   3.998  10.984   7.802  0.5427 -0.7784 -0.9878
  210MOL0     H28288   4.020  10.944   7.975 -0.7705  0.2583  0.2176
  210MOL0     H28289   4.071  10.718   7.936  1.8220  0.2831  0.3204
  210MOL0     H28290   4.090  10.739   7.761  2.0574  3.8877  1.4506
  210MOL0     H28291   3.807  10.733   7.912  0.8162 -1.9533 -0.9291
  210MOL0     H28292   3.839  10.812   7.762 -0.3159  1.0576  1.6450
  210MOL0     H28293   3.951  10.578   7.688 -0.3343 -2.1925  0.7895
  210MOL0     H28294   3.900  10.523   7.840  3.0997  3.7565  3.0781
  210MOL0     H28295   3.719  10.643   7.603 -0.2356 -1.9942 -1.5748
  210MOL0     H28296   3.753  10.477   7.642 -1.7229 -0.9239  2.2245
  210MOL0     H28297   3.609  10.643   7.858 -0.1729 -1.8641  1.2434
  210MOL0     H28298   3.643  10.472   7.857  2.3048  1.0217  1.6254
  210MOL0     H28299   3.464  10.605   7.651 -4.6177 -2.0653 -0.0114
  210MOL0     H28300   3.498  10.435   7.669 -0.6808 -0.9057  2.9839
  210MOL0     H28301   3.340  10.736   7.853  1.8643 -0.2973 -0.1663
  210MOL0     H28302   3.088  10.744   7.974  0.5473  0.4712  1.7004
  210MOL0     H28303   3.021  10.589   7.997 -0.0116  0.1749  3.0766
  210MOL0     H28304   3.190  10.561   8.196  1.6809  0.3574 -0.5557
  210MOL0     H28305   3.214  10.742   8.185  0.5358 -0.5365  0.2008
  210MOL0     H28306   2.964  10.770   8.199 -0.7063 -0.2213  0.1104
  210MOL0     H28307   3.067  10.738   8.340  5.1936  3.8932 -3.1119
  210MOL0     H28308   2.996  10.481   8.296 -0.4078  0.3983  2.3502
  210MOL0     H28309   2.884  10.556   8.186  1.0078 -1.8212 -0.2832
  210MOL0     H28310   2.694  10.641   8.198 -5.0843  1.3213 -2.2982
  210MOL0     H28311   2.445  10.674   8.230  2.8663 -4.1563 -4.8705
  210MOL0     H28312   2.025  10.597   8.444  2.0022 -1.3638  0.4817
  210MOL0     H28313   1.813  10.666   8.521  0.5781  0.0736 -0.1379
  210MOL0     H28314   1.570  10.696   8.756  1.2627  3.1088  0.8475
  210MOL0     H28315   1.711  10.590   8.716  2.2310  1.5342 -1.1952
  210MOL0     H28316   1.782  10.597   8.949 -0.6435 -1.0154 -1.3846
  210MOL0     H28317   1.675  10.735   8.983  1.5635 -0.7602  2.4902
  210MOL0     H28318   1.602  10.542   9.087  4.9704  3.3858 -0.0444
  210MOL0     H28319   1.476  10.581   8.964 -2.4112 -3.5587  2.3116
  210MOL0     H28320   1.683  10.366   8.931 -0.8369 -1.7917  2.8861
  210MOL0     H28321   1.584  10.431   8.796 -4.2992 -2.9174 -0.6037
  210MOL0     H28322   1.468  10.241   8.854 -0.4247 -0.1272  0.0595
  210MOL0     H28323   1.377  10.380   8.909 -0.1145  0.9412 -1.1581
  210MOL0     H28324   1.464  10.350   9.140  1.7126  0.1816 -1.4404
  210MOL0     H28325   1.350  10.248   9.096 -1.3985  0.9835 -0.6617
  210MOL0     H28326   1.659  10.181   9.102  1.5710 -1.6439 -2.4954
  210MOL0     H28327   1.551  10.095   9.000 -3.6967  1.4380 -1.3336
  210MOL0     H28328   1.542  10.125   9.292  0.8217 -2.4245  2.1249
  210MOL0     H28329   1.437  10.004   9.186  0.7921  0.5206 -0.7585
  210MOL0     H28330   1.972  10.866   8.861 -2.8946  3.1508 -1.9271
  210MOL0     H28331   2.204  10.812   8.768 -0.2682 -0.8132 -2.9650
  210MOL0     H28332   2.503  10.643   8.653  4.1522  2.4620  0.4627
  210MOL0     H28333   2.741  10.617   8.625  2.8103  3.5326 -2.3483
  210MOL0     H28334   4.252  11.000   8.123 -2.5518  2.0334 -0.4123
  210MOL0     H28335   4.447  11.075   8.262 -2.4673  1.8338  1.0771
  210MOL0     H28336   4.719  11.194   8.460  1.0181 -1.9493 -0.2560
  210MOL0     H28337   4.886  11.269   8.626  0.9968 -1.1903 -0.4845
  210MOL0     H28338   5.246  11.491   8.459  2.4584  1.8039  1.8945
  210MOL0     H28339   5.265  11.524   8.626 -1.5832  1.2590  0.9963
  210MOL0     H28340   5.037  11.650   8.492 -1.2798  1.9433  1.0027
  210MOL0     H28341   5.192  11.734   8.520 -0.4883 -0.9000 -2.2243
  210MOL0     H28342   5.148  11.653   8.756  0.9090  1.7613  0.2014
  210MOL0     H28343   4.965  11.668   8.714 -0.2833 -0.3026  0.2639
  210MOL0     H28344   5.166  11.901   8.687 -1.4533  0.9687 -3.5716
  210MOL0     H28345   4.986  11.896   8.653 -2.6964 -3.8438  1.5723
  210MOL0     H28346   5.037  11.955   9.076 -3.6203 -0.5594  0.8940
  210MOL0     H28347   5.096  11.466   8.308 -0.0331 -0.2223  1.2211
  210MOL0     H28348   5.037  11.329   8.072 -2.6086 -2.3686  0.3892
  210MOL0     H28349   4.868  11.354   8.039  0.9652 -3.7528 -0.0705
  210MOL0     H28350   4.969  11.490   8.093  2.6165  0.5565  1.5161
  211MOL0     O28351   7.193   6.440   8.112 -0.0603  0.7272  0.7645
  211MOL0     C28352   7.238   6.349   8.170 -0.9864  0.1563 -0.6706
  211MOL0     O28353   7.229   6.327   8.306  1.0728 -0.4537  0.2147
  211MOL0     C28354   7.152   6.425   8.368 -0.8236 -0.1336 -0.1686
  211MOL0     C28355   7.228   6.517   8.445 -0.3985 -1.1016  0.4893
  211MOL0     C28356   7.165   6.631   8.510  0.2392  0.3736 -0.8398
  211MOL0     C28357   7.032   6.645   8.498 -0.0997 -0.3642  0.3422
  211MOL0     O28358   6.987   6.765   8.562  0.4913  0.2423 -0.2145
  211MOL0     C28359   6.873   6.758   8.642 -0.9706  0.1218 -0.3828
  211MOL0     C28360   6.907   6.690   8.780  0.0645 -0.4204  0.3722
  211MOL0     C28361   6.921   6.791   8.888  0.1197 -0.4988 -0.6777
  211MOL0     C28362   6.985   6.731   9.012  0.2017  0.5113 -0.1604
  211MOL0     C28363   6.957   6.798   9.142 -0.9045 -0.6455 -0.9555
  211MOL0     C28364   6.810   6.785   9.190 -0.0160  0.3579 -0.0537
  211MOL0     C28365   6.763   6.655   9.250 -0.3613 -0.2993 -0.3328
  211MOL0     C28366   6.614   6.625   9.265 -0.0313  0.2997 -0.2394
  211MOL0     N28367   6.533   6.678   9.147  0.2245  0.5120 -0.2344
  211MOL0     C28368   6.527   6.620   9.025  0.2446 -0.4741 -0.3792
  211MOL0     C28369   6.444   6.699   8.954  0.4491  0.5950  0.5527
  211MOL0     C28370   6.379   6.685   8.813  0.0281 -0.8414  1.0126
  211MOL0     C28371   6.449   6.764   8.699 -0.1530 -0.8291 -0.8289
  211MOL0     C28372   6.398   6.726   8.555 -0.1572  0.0662 -0.3311
  211MOL0     C28373   6.421   6.836   8.457  0.4281  0.2994  0.0686
  211MOL0     O28374   6.560   6.863   8.447 -0.2288  0.4576 -0.4960
  211MOL0     C28375   6.588   6.936   8.334  0.2703 -0.2824  0.8975
  211MOL0     C28376   6.515   7.048   8.293 -0.3260  0.1322  0.2945
  211MOL0     C28377   6.561   7.125   8.199  0.3995  0.7845  0.5235
  211MOL0     C28378   6.681   7.096   8.123 -0.1530 -0.6335  0.6942
  211MOL0     C28379   6.729   7.191   8.018 -1.0642 -0.9868  0.6226
  211MOL0     O28380   6.864   7.187   7.979  0.8983 -0.1195  0.0372
  211MOL0     C28381   6.904   7.246   7.866  0.2860 -0.7236  0.1690
  211MOL0     C28382   6.953   7.377   7.870  1.0214  0.9693 -1.9591
  211MOL0     C28383   7.000   7.438   7.760 -1.1635  0.7766  1.1541
  211MOL0     C28384   7.000   7.372   7.638  0.1383 -0.5623 -0.0733
  211MOL0     O28385   7.030   7.435   7.517  0.4610  0.2468  0.3308
  211MOL0     C28386   7.121   7.542   7.525  0.6157  0.5189 -0.5016
  211MOL0     C28387   7.199   7.568   7.401  0.9517  0.0209 -0.9747
  211MOL0     C28388   7.260   7.442   7.342  0.6604  0.1450 -0.2476
  211MOL0     C28389   7.403   7.462   7.299  0.0930 -0.1542  0.0429
  211MOL0     C28390   7.419   7.557   7.174  0.4796  0.7653 -0.0875
  211MOL0     C28391   7.563   7.570   7.149  0.6694 -0.0596 -0.0168
  211MOL0     C28392   7.595   7.638   7.017  0.4187  0.5951 -1.1021
  211MOL0     C28393   7.700   7.570   6.935 -0.8427 -1.2265  0.9752
  211MOL0    Cl28394   7.617   7.429   6.849 -0.0796 -0.1205 -0.2665
  211MOL0     C28395   6.934   7.246   7.633 -0.6101  0.4686  0.1275
  211MOL0     C28396   6.889   7.179   7.748 -0.1343  0.3651 -0.6557
  211MOL0     O28397   6.641   7.268   7.969 -0.4304  0.0250  0.5214
  211MOL0     C28398   6.759   6.987   8.161 -0.0738  1.4287 -0.3929
  211MOL0     C28399   6.706   6.912   8.271  0.2340  0.5343 -0.2725
  211MOL0     N28400   6.409   6.809   9.037  0.1127  0.7058  0.2798
  211MOL0     N28401   6.465   6.795   9.155  0.5017 -0.6093  0.1100
  211MOL0     C28402   6.956   6.552   8.425 -0.9473 -0.5549  0.1163
  211MOL0     C28403   7.016   6.446   8.365 -0.1134  0.1608  0.1629
  211MOL0     C28404   7.328   6.258   8.103 -0.5618 -0.1939  0.4784
  211MOL0     C28405   7.433   6.205   8.180 -0.1901 -0.8118  0.3732
  211MOL0     C28406   7.540   6.147   8.112  0.6605 -0.2361  0.6519
  211MOL0     C28407   7.560   6.137   7.971 -0.2372  0.0911  0.5317
  211MOL0     O28408   7.674   6.069   7.922 -0.0858 -0.9941 -0.2331
  211MOL0     C28409   7.715   6.084   7.782  0.0472 -0.2331  1.3128
  211MOL0     C28410   7.850   6.028   7.754  0.0079 -0.2613  0.2061
  211MOL0     C28411   7.890   6.044   7.608 -0.5375 -0.6263  0.4228
  211MOL0     C28412   8.020   5.979   7.571  0.2400 -0.5466 -0.5948
  211MOL0     C28413   8.134   6.008   7.666 -0.1407 -0.8116  0.3484
  211MOL0     C28414   8.224   6.038   7.735  0.0206  0.8318 -0.3384
  211MOL0     C28415   7.453   6.177   7.898 -0.6179 -0.0343 -0.4716
  211MOL0     C28416   7.335   6.234   7.964 -0.0264  0.7827  0.2310
  211MOL0     C28417   7.215   6.264   7.865 -0.1120  0.1800 -0.7380
  211MOL0     H28418   7.334   6.499   8.436 -0.0091  0.2203  1.9734
  211MOL0     H28419   7.236   6.694   8.562  0.5593 -0.0689 -0.7395
  211MOL0     H28420   6.832   6.857   8.665 -1.7834 -0.7957  2.5928
  211MOL0     H28421   6.790   6.702   8.599 -0.3579 -3.4857  2.5960
  211MOL0     H28422   7.001   6.635   8.769  1.0990  1.5688 -1.5594
  211MOL0     H28423   6.831   6.613   8.799 -0.1030  0.0563  1.7918
  211MOL0     H28424   6.821   6.834   8.901  0.3959  0.6746 -2.2154
  211MOL0     H28425   6.981   6.877   8.859  0.1230  0.8060  2.7949
  211MOL0     H28426   6.970   6.623   9.010  3.7219 -0.1069 -0.1493
  211MOL0     H28427   7.092   6.745   8.993  0.6202 -1.5955  0.4430
  211MOL0     H28428   7.027   6.748   9.210 -1.5893 -2.8216 -1.7635
  211MOL0     H28429   6.986   6.902   9.127 -1.7518 -0.7574 -4.0073
  211MOL0     H28430   6.807   6.873   9.254  0.5346  0.4956 -0.2131
  211MOL0     H28431   6.748   6.817   9.106  1.5032 -1.8090 -2.1601
  211MOL0     H28432   6.812   6.655   9.348  2.2229 -0.4560 -1.5430
  211MOL0     H28433   6.811   6.581   9.186 -0.4674 -2.8145  2.3055
  211MOL0     H28434   6.599   6.519   9.288 -1.0160  0.7488  1.3670
  211MOL0     H28435   6.582   6.678   9.355 -1.0663 -0.5010 -0.1234
  211MOL0     H28436   6.560   6.518   9.006 -2.0034 -1.2527 -0.4299
  211MOL0     H28437   6.368   6.579   8.786 -0.9990 -1.3836  3.3140
  211MOL0     H28438   6.283   6.737   8.816  1.8775  2.8394  2.4360
  211MOL0     H28439   6.435   6.869   8.727 -1.7685 -0.4544 -2.7874
  211MOL0     H28440   6.557   6.752   8.701 -0.1096 -0.3499  0.6881
  211MOL0     H28441   6.293   6.694   8.556  0.6959 -3.0551  0.6902
  211MOL0     H28442   6.449   6.639   8.513 -2.1516 -1.8350  0.9843
  211MOL0     H28443   6.358   6.918   8.492 -0.4582  0.0127 -0.7930
  211MOL0     H28444   6.390   6.801   8.358 -2.3367 -1.3196  1.3765
  211MOL0     H28445   6.430   7.084   8.350 -0.4305 -0.9332  0.8461
  211MOL0     H28446   6.506   7.214   8.170 -0.0777 -0.1762 -1.7283
  211MOL0     H28447   6.947   7.416   7.971 -2.4050 -3.4639 -0.1258
  211MOL0     H28448   7.030   7.542   7.769 -0.5435  0.6269  0.8617
  211MOL0     H28449   7.070   7.638   7.532 -1.5353 -0.5944  0.1748
  211MOL0     H28450   7.179   7.547   7.618 -1.5354 -2.4197  1.2055
  211MOL0     H28451   7.132   7.622   7.333  1.8854  0.3827 -1.6428
  211MOL0     H28452   7.269   7.651   7.420 -0.6080  1.0169  0.6412
  211MOL0     H28453   7.262   7.358   7.413 -1.3876  0.0188 -0.2811
  211MOL0     H28454   7.198   7.411   7.257 -1.4839  0.6143  1.0855
  211MOL0     H28455   7.461   7.371   7.280  1.9656  0.5151  2.1044
  211MOL0     H28456   7.459   7.499   7.385 -0.8551 -0.7180  0.9300
  211MOL0     H28457   7.365   7.651   7.193 -0.6640  0.2899 -0.8645
  211MOL0     H28458   7.366   7.509   7.092 -3.5584 -1.5308  3.4236
  211MOL0     H28459   7.602   7.629   7.232 -1.8751  1.4760  0.1992
  211MOL0     H28460   7.613   7.474   7.135  0.7286  0.2080 -2.0538
  211MOL0     H28461   7.634   7.739   7.035  0.3178  1.7616 -5.9875
  211MOL0     H28462   7.520   7.676   6.948  0.7818  1.5046 -1.0181
  211MOL0     H28463   7.755   7.628   6.860 -3.2758  1.7031  1.2785
  211MOL0     H28464   7.787   7.528   6.987  1.9721  1.7866 -0.8609
  211MOL0     H28465   6.925   7.201   7.535 -0.2861  2.9072 -1.1110
  211MOL0     H28466   6.834   7.086   7.744 -2.4808  1.5641  1.0738
  211MOL0     H28467   6.845   6.952   8.105 -1.1319  1.6875 -2.2897
  211MOL0     H28468   6.764   6.827   8.307  0.1091 -0.0693 -1.4559
  211MOL0     H28469   6.847   6.553   8.429 -0.9627 -1.8205  0.2545
  211MOL0     H28470   6.942   6.393   8.306 -0.5026  1.4384 -0.5222
  211MOL0     H28471   7.446   6.221   8.287  2.4938  2.8538 -0.3306
  211MOL0     H28472   7.622   6.106   8.169 -0.3861 -3.0491  0.3022
  211MOL0     H28473   7.719   6.190   7.756 -1.8339 -0.8583 -2.0179
  211MOL0     H28474   7.634   6.039   7.725 -1.2894  0.2434  2.7653
  211MOL0     H28475   7.863   5.931   7.803  0.5362 -0.2796  0.0435
  211MOL0     H28476   7.929   6.092   7.795  1.1793  0.2384 -2.6106
  211MOL0     H28477   7.896   6.151   7.589  3.7249  0.3534  5.2270
  211MOL0     H28478   7.810   5.997   7.550  0.4673 -0.2619 -1.3072
  211MOL0     H28479   8.005   5.871   7.560 -0.1824 -0.3170 -2.5063
  211MOL0     H28480   8.038   6.012   7.469 -3.6031  1.0134 -0.9246
  211MOL0     H28481   8.309   6.062   7.796 -0.1316  0.7202 -0.0829
  211MOL0     H28482   7.451   6.160   7.791 -0.7170 -2.0106 -0.1926
  211MOL0     H28483   7.241   6.354   7.809  3.4245 -0.5854 -0.5939
  211MOL0     H28484   7.217   6.184   7.791  0.5539  0.8888 -1.5062
  211MOL0     H28485   7.122   6.271   7.923  0.6092  0.7201  0.4040
  212MOL0     O28486  10.826   4.048   6.555  0.3362  0.4435  0.5906
  212MOL0     C28487  10.774   3.949   6.604 -0.6542 -1.3285 -0.0997
  212MOL0     O28488  10.838   3.852   6.668  0.1122 -0.0606  0.4335
  212MOL0     C28489  10.966   3.869   6.724  0.3691 -0.5987 -0.8441
  212MOL0     C28490  11.019   3.990   6.771  0.8383  0.3572  0.5721
  212MOL0     C28491  11.142   4.006   6.818 -0.6227  0.1763 -0.2564
  212MOL0     C28492  11.216   3.888   6.838 -0.5311  0.1764 -0.7372
  212MOL0     O28493  11.341   3.896   6.890  0.2110  0.2652 -0.4807
  212MOL0     C28494  11.366   3.814   7.009  0.0809 -0.2553  0.0084
  212MOL0     C28495  11.497   3.732   6.996 -0.2148  0.2198  0.3181
  212MOL0     C28496  11.539   3.649   7.123  0.5219  0.1836  0.8202
  212MOL0     C28497  11.686   3.607   7.107 -0.9246 -0.0144  0.2010
  212MOL0     C28498  11.724   3.515   7.224  0.6969 -0.4503  0.0621
  212MOL0     C28499  11.715   3.585   7.367 -0.7027  0.4050 -0.3012
  212MOL0     C28500  11.789   3.496   7.478 -0.1304 -0.1010  0.4232
  212MOL0     C28501  11.829   3.559   7.613 -0.0892  0.1833 -0.3401
  212MOL0     N28502  11.967   3.524   7.645  0.5957  0.0876  0.1479
  212MOL0     C28503  12.004   3.428   7.739  0.5105 -0.3501 -0.3964
  212MOL0     C28504  12.135   3.448   7.738  0.7198 -0.2557 -0.8364
  212MOL0     C28505  12.219   3.375   7.836  0.8139  0.5848 -0.3262
  212MOL0     C28506  12.237   3.459   7.963 -0.5993 -0.1408 -0.0092
  212MOL0     C28507  12.345   3.570   7.944 -1.0097 -0.3005  0.4696
  212MOL0     C28508  12.385   3.667   8.060 -0.1530 -0.2491  0.1299
  212MOL0     O28509  12.291   3.668   8.171 -0.5488 -0.2223 -1.0900
  212MOL0     C28510  12.274   3.779   8.244  0.1814 -0.3707 -0.7297
  212MOL0     C28511  12.322   3.810   8.374  0.2074  0.0629 -0.1219
  212MOL0     C28512  12.284   3.926   8.442 -0.9812 -0.2465 -0.0461
  212MOL0     C28513  12.197   4.023   8.374  1.1690  0.0970  0.2552
  212MOL0     C28514  12.157   4.148   8.438  0.1135  0.1390 -0.0584
  212MOL0     O28515  12.045   4.217   8.390  0.0733 -0.6657  0.3176
  212MOL0     C28516  11.998   4.330   8.449  1.0956 -0.2102 -0.4451
  212MOL0     C28517  11.977   4.436   8.356  0.5484  0.0252  0.1095
  212MOL0     C28518  11.933   4.554   8.411 -0.0626  0.2132  0.3904
  212MOL0     C28519  11.917   4.568   8.551  0.1881  0.6925 -0.3521
  212MOL0     O28520  11.895   4.694   8.601 -0.2096 -0.3168  0.0578
  212MOL0     C28521  11.758   4.728   8.625  0.3715  0.2151  0.1302
  212MOL0     C28522  11.735   4.733   8.777  0.3260  1.1454  0.3570
  212MOL0     C28523  11.805   4.842   8.846 -0.3944 -0.5072 -0.2773
  212MOL0     C28524  11.741   4.982   8.837  1.6672 -0.5013  0.5955
  212MOL0     C28525  11.827   5.097   8.900 -0.1683 -0.5613 -0.2534
  212MOL0     C28526  11.745   5.223   8.939 -0.7408 -0.3895 -0.1817
  212MOL0     C28527  11.842   5.336   8.975 -0.6077 -0.4934  0.2103
  212MOL0     C28528  11.774   5.446   9.054  0.1648 -1.4294 -0.0989
  212MOL0    Cl28529  11.706   5.574   8.943 -0.3094 -0.5200 -0.3872
  212MOL0     C28530  11.940   4.454   8.637 -0.6232 -0.1715  0.8910
  212MOL0     C28531  11.975   4.339   8.587 -0.1214  0.1504  0.2165
  212MOL0     O28532  12.231   4.180   8.532 -0.4360 -0.4807  0.1882
  212MOL0     C28533  12.154   3.994   8.251  0.2825  0.3204  1.2138
  212MOL0     C28534  12.186   3.874   8.184 -0.9354  0.1114  0.0089
  212MOL0     N28535  12.175   3.550   7.653  0.5406  0.2268 -0.1768
  212MOL0     N28536  12.071   3.593   7.603  0.2961  0.4367  0.0355
  212MOL0     C28537  11.170   3.767   6.797  0.2218  0.1817 -0.0039
  212MOL0     C28538  11.044   3.758   6.740 -0.1979  0.7476 -0.4630
  212MOL0     C28539  10.625   3.934   6.597 -1.0075  0.7341 -1.1451
  212MOL0     C28540  10.560   3.860   6.697  0.7116  0.5398 -0.6207
  212MOL0     C28541  10.421   3.846   6.712 -0.7779 -0.0060 -0.0285
  212MOL0     C28542  10.349   3.905   6.617 -0.2557 -0.4332  0.8724
  212MOL0     O28543  10.219   3.906   6.606  0.2851 -0.5473 -0.3593
  212MOL0     C28544  10.140   3.891   6.721 -1.0524 -0.3244 -0.6825
  212MOL0     C28545   9.999   3.943   6.722  1.0467  0.0719 -0.6211
  212MOL0     C28546   9.938   3.947   6.864 -0.2692  1.0001 -0.4518
  212MOL0     C28547   9.794   4.013   6.876 -0.0806 -0.2779  0.2449
  212MOL0     C28548   9.759   4.036   7.013  1.0574  0.5552  0.3813
  212MOL0     C28549   9.733   4.054   7.128 -0.0400 -0.6118 -0.1858
  212MOL0     C28550  10.416   3.965   6.496  0.9714  0.8829 -0.0890
  212MOL0     C28551  10.548   3.979   6.491  0.7847 -0.5529 -0.0025
  212MOL0     C28552  10.607   4.030   6.365 -0.2190 -0.2243 -0.1316
  212MOL0     H28553  10.958   4.080   6.773 -3.6508 -2.1588 -3.0034
  212MOL0     H28554  11.171   4.099   6.865 -0.9097 -0.1896  0.6674
  212MOL0     H28555  11.363   3.876   7.099 -1.5969 -2.3734  1.4885
  212MOL0     H28556  11.276   3.759   7.039 -1.8936  2.3409 -0.6896
  212MOL0     H28557  11.581   3.794   6.962 -1.2585  0.6691 -1.6208
  212MOL0     H28558  11.478   3.667   6.910 -1.0721  1.0264 -0.1326
  212MOL0     H28559  11.471   3.564   7.134 -1.0542  1.4127  0.9100
  212MOL0     H28560  11.520   3.719   7.205 -3.8846  1.8828 -1.3327
  212MOL0     H28561  11.691   3.568   7.005 -2.7732  1.1205 -0.3911
  212MOL0     H28562  11.759   3.688   7.102  0.7785 -1.5285 -0.6056
  212MOL0     H28563  11.646   3.439   7.235  0.7029 -0.5918 -0.7714
  212MOL0     H28564  11.824   3.469   7.220 -0.0184 -2.0750  0.1901
  212MOL0     H28565  11.766   3.681   7.356  2.1929 -1.0367 -0.5073
  212MOL0     H28566  11.613   3.602   7.401 -1.4359 -0.5914 -1.8613
  212MOL0     H28567  11.882   3.459   7.436 -0.8263 -1.4547  0.0373
  212MOL0     H28568  11.740   3.403   7.508 -1.7585  0.1780 -1.2267
  212MOL0     H28569  11.819   3.668   7.619 -1.2333  0.0205  2.4146
  212MOL0     H28570  11.761   3.522   7.690 -0.2022 -1.1408 -1.0562
  212MOL0     H28571  11.943   3.367   7.805  2.9405 -2.9799 -0.3731
  212MOL0     H28572  12.167   3.281   7.850  2.0519  0.1012  1.4363
  212MOL0     H28573  12.312   3.346   7.785  0.3721  0.1471 -0.8936
  212MOL0     H28574  12.141   3.507   7.984 -1.6109 -1.7728 -0.7368
  212MOL0     H28575  12.255   3.391   8.046  0.2491 -0.9615 -0.8425
  212MOL0     H28576  12.311   3.636   7.863  2.1252  1.0109  0.0842
  212MOL0     H28577  12.434   3.521   7.902 -0.0308  2.7197 -1.3190
  212MOL0     H28578  12.390   3.768   8.019  3.0728 -1.1590 -2.0442
  212MOL0     H28579  12.487   3.658   8.096 -0.1080  1.8876  0.6518
  212MOL0     H28580  12.370   3.725   8.423 -0.1840 -0.3004 -0.3603
  212MOL0     H28581  12.327   3.954   8.538  0.5044  0.4950 -0.8872
  212MOL0     H28582  11.999   4.433   8.250  3.8875 -1.8885  0.7215
  212MOL0     H28583  11.915   4.635   8.341  4.1715  0.0985 -1.1260
  212MOL0     H28584  11.712   4.820   8.590 -1.0779  0.9334  3.4587
  212MOL0     H28585  11.697   4.653   8.575  1.8766 -0.5227 -0.6647
  212MOL0     H28586  11.629   4.732   8.801 -0.0522  0.4169 -1.2217
  212MOL0     H28587  11.793   4.648   8.812  2.3510 -0.1814 -5.1616
  212MOL0     H28588  11.814   4.809   8.950 -1.9685 -4.6755 -1.2686
  212MOL0     H28589  11.901   4.861   8.798 -2.0850 -0.9860 -4.2216
  212MOL0     H28590  11.643   4.974   8.885  1.2984 -4.0534 -0.4667
  212MOL0     H28591  11.717   5.012   8.734 -3.3325 -1.2261  1.2962
  212MOL0     H28592  11.904   5.149   8.842 -1.9431  3.4172  0.5934
  212MOL0     H28593  11.869   5.050   8.988  0.4973  1.8038  0.7682
  212MOL0     H28594  11.683   5.250   8.853 -1.5982 -2.0169 -0.1238
  212MOL0     H28595  11.672   5.188   9.013 -0.8849 -1.5121 -0.8401
  212MOL0     H28596  11.888   5.380   8.886  2.1160 -1.9035  0.8150
  212MOL0     H28597  11.916   5.297   9.045 -1.4223 -0.5408  1.0806
  212MOL0     H28598  11.687   5.399   9.102  0.1603 -0.5390  0.7770
  212MOL0     H28599  11.846   5.486   9.124 -2.1752  0.5242  1.3339
  212MOL0     H28600  11.933   4.462   8.745  1.3230 -0.4593  1.0710
  212MOL0     H28601  11.985   4.248   8.645  1.6894 -0.6490 -1.2295
  212MOL0     H28602  12.100   4.074   8.201  2.8439  2.1092  1.0795
  212MOL0     H28603  12.139   3.848   8.089  1.6487  1.2320 -1.6928
  212MOL0     H28604  11.235   3.680   6.803  1.5331  0.7191 -3.7790
  212MOL0     H28605  11.018   3.660   6.702  2.0507 -0.3607  0.7019
  212MOL0     H28606  10.621   3.810   6.772  1.5313  3.0584  0.5076
  212MOL0     H28607  10.378   3.792   6.796  0.6939 -2.7680 -0.9459
  212MOL0     H28608  10.189   3.943   6.805 -0.0995 -0.4443 -1.1571
  212MOL0     H28609  10.131   3.783   6.732 -0.3487 -0.2061  1.8468
  212MOL0     H28610   9.921   3.895   6.662  0.6589 -0.9336  0.6450
  212MOL0     H28611  10.010   4.044   6.683 -1.0762  0.1264 -1.2184
  212MOL0     H28612  10.008   3.993   6.933  0.0935  0.6592 -0.5895
  212MOL0     H28613   9.928   3.844   6.901 -1.3374  1.1034 -0.4058
  212MOL0     H28614   9.792   4.113   6.831 -0.3742  0.1233  1.1123
  212MOL0     H28615   9.719   3.960   6.817  0.9956  2.4781 -4.1079
  212MOL0     H28616   9.716   4.076   7.231  2.4306  1.2753 -0.1059
  212MOL0     H28617  10.361   4.029   6.427  1.2297 -0.8072 -1.9569
  212MOL0     H28618  10.563   4.015   6.267  5.5019 -1.3433 -2.9481
  212MOL0     H28619  10.611   4.139   6.376 -0.7024 -0.3040  1.0092
  212MOL0     H28620  10.708   3.994   6.344  0.3506  0.2021  1.6745
  213MOL0     O28621   4.946   4.886   6.252 -0.8246 -0.4757 -0.4881
  213MOL0     C28622   4.913   4.861   6.135  0.7126  0.6949  0.2141
  213MOL0     O28623   4.848   4.943   6.058  0.3523  0.4271  0.3983
  213MOL0     C28624   4.798   5.060   6.116 -0.0740  0.1664  1.0028
  213MOL0     C28625   4.851   5.184   6.073  0.0489 -0.1904  0.0488
  213MOL0     C28626   4.814   5.305   6.122 -0.0408  0.8576  0.8842
  213MOL0     C28627   4.719   5.303   6.219  0.0459 -0.1134 -0.3706
  213MOL0     O28628   4.700   5.426   6.275 -0.2144  0.1577  0.3254
  213MOL0     C28629   4.614   5.509   6.196 -1.1206 -0.5672  0.0513
  213MOL0     C28630   4.520   5.598   6.278  0.0393  0.3698 -0.0683
  213MOL0     C28631   4.587   5.706   6.354 -0.5610 -0.2343 -0.9462
  213MOL0     C28632   4.644   5.822   6.272  0.7105  0.1245  0.4246
  213MOL0     C28633   4.636   5.957   6.345 -0.3185 -0.1628 -0.0410
  213MOL0     C28634   4.735   6.063   6.295 -0.2655  0.5990 -0.6592
  213MOL0     C28635   4.697   6.202   6.339 -0.9813 -0.1054 -0.2522
  213MOL0     C28636   4.559   6.236   6.292 -0.0360  0.6459 -0.5766
  213MOL0     N28637   4.579   6.380   6.263  0.9607  0.0865  0.1873
  213MOL0     C28638   4.624   6.439   6.148 -0.8479 -1.1757  0.8441
  213MOL0     C28639   4.613   6.575   6.173  0.6479  0.0979 -0.2007
  213MOL0     C28640   4.664   6.688   6.091  0.3499 -0.4110  0.0029
  213MOL0     C28641   4.804   6.657   6.038 -0.3690 -0.7644 -0.3042
  213MOL0     C28642   4.915   6.619   6.151  0.2636  0.5499  0.4634
  213MOL0     C28643   5.053   6.636   6.084 -0.4323  0.0160 -0.7211
  213MOL0     O28644   5.059   6.575   5.955  0.1333 -1.2822  0.0892
  213MOL0     C28645   5.088   6.447   5.942  0.1375  0.3733  0.0144
  213MOL0     C28646   5.073   6.348   6.046  0.2618 -0.5814 -0.0752
  213MOL0     C28647   5.072   6.216   6.014  0.8638  0.2890  0.0951
  213MOL0     C28648   5.079   6.169   5.887 -1.1644 -0.1386 -0.1063
  213MOL0     C28649   5.079   6.024   5.856 -0.4151 -0.0247  1.0959
  213MOL0     O28650   5.034   5.946   5.963  0.2783  0.9751 -0.4223
  213MOL0     C28651   5.059   5.810   5.949 -0.1160 -0.2630 -0.7077
  213MOL0     C28652   5.133   5.742   6.046 -0.0138  0.0729 -0.4009
  213MOL0     C28653   5.152   5.606   6.051 -0.1174 -0.7269  0.3000
  213MOL0     C28654   5.105   5.526   5.950 -0.7459 -0.6783  0.4102
  213MOL0     O28655   5.130   5.390   5.936 -1.1604 -0.0083 -0.3422
  213MOL0     C28656   5.173   5.314   6.056  1.0430 -0.1918  0.5957
  213MOL0     C28657   5.243   5.186   6.025 -0.1957  0.4915  0.2578
  213MOL0     C28658   5.259   5.106   6.148  1.0131  0.1764 -0.4846
  213MOL0     C28659   5.341   4.978   6.101  0.4118  0.1753 -0.5361
  213MOL0     C28660   5.347   4.862   6.205 -0.2859  0.1915  0.7449
  213MOL0     C28661   5.412   4.737   6.148  0.1882 -0.5961 -0.1019
  213MOL0     C28662   5.439   4.620   6.248  0.0674 -0.0948 -0.0672
  213MOL0     C28663   5.550   4.517   6.211 -0.4764  0.4363  0.1668
  213MOL0    Cl28664   5.485   4.395   6.107  0.3898 -0.0901 -0.5223
  213MOL0     C28665   5.035   5.590   5.849  0.2077 -0.8974  0.9683
  213MOL0     C28666   5.009   5.729   5.851 -0.7752 -0.8890  0.2394
  213MOL0     O28667   5.144   5.990   5.756 -0.3935 -0.5931 -0.9611
  213MOL0     C28668   5.085   6.263   5.790 -0.4681 -0.1012  0.7937
  213MOL0     C28669   5.092   6.403   5.816  0.1422  0.3372  0.3716
  213MOL0     N28670   4.545   6.593   6.296  0.3765  0.2911  0.6993
  213MOL0     N28671   4.528   6.472   6.350  0.9012 -0.2698 -0.1199
  213MOL0     C28672   4.664   5.183   6.273 -0.9954  0.5780 -0.3085
  213MOL0     C28673   4.709   5.065   6.219  0.4870  0.3228 -0.2830
  213MOL0     C28674   4.955   4.733   6.063  0.7182 -0.5899  0.3296
  213MOL0     C28675   4.969   4.726   5.928 -0.0563  0.9144  0.6841
  213MOL0     C28676   5.022   4.609   5.865  0.1184  0.7033  0.3112
  213MOL0     C28677   5.049   4.484   5.927 -0.2092  0.1645  0.6755
  213MOL0     O28678   5.097   4.379   5.851 -0.1679  0.0282 -0.5615
  213MOL0     C28679   5.139   4.261   5.920 -0.7965 -0.5306 -0.1931
  213MOL0     C28680   5.233   4.191   5.811 -0.7871  0.1983  0.6990
  213MOL0     C28681   5.332   4.082   5.855  1.2792  0.8183 -0.0499
  213MOL0     C28682   5.291   3.943   5.787  0.3156  0.8994 -0.1241
  213MOL0     C28683   5.159   3.906   5.829  0.6870 -0.2633 -0.7640
  213MOL0     C28684   5.046   3.861   5.846  0.0454 -0.2922 -0.6241
  213MOL0     C28685   5.024   4.488   6.063 -0.0861  1.1288 -0.2169
  213MOL0     C28686   4.977   4.605   6.132 -1.3964  0.7847  1.0323
  213MOL0     C28687   4.969   4.590   6.280  0.0601  0.3542 -0.2206
  213MOL0     H28688   4.936   5.187   6.006 -2.3520  0.4260 -3.2149
  213MOL0     H28689   4.858   5.396   6.081  1.0572 -0.5525 -1.2591
  213MOL0     H28690   4.680   5.574   6.137 -1.8129  0.1741  0.0776
  213MOL0     H28691   4.554   5.442   6.134  1.1496 -1.1297 -1.6956
  213MOL0     H28692   4.487   5.520   6.348 -0.3742  1.6740  1.2506
  213MOL0     H28693   4.440   5.645   6.220 -2.5885  0.2917  3.1563
  213MOL0     H28694   4.665   5.668   6.421  2.1906  4.3359 -1.1016
  213MOL0     H28695   4.507   5.745   6.417  1.2415  0.6783  0.9066
  213MOL0     H28696   4.741   5.793   6.229  0.4927  0.3145 -0.2065
  213MOL0     H28697   4.571   5.832   6.191 -0.5304  2.5636  1.7744
  213MOL0     H28698   4.539   6.004   6.360 -0.2096  0.9561 -2.4869
  213MOL0     H28699   4.668   5.929   6.446  1.8040 -2.7844 -1.2783
  213MOL0     H28700   4.836   6.049   6.333  0.4854  0.8353 -2.4810
  213MOL0     H28701   4.728   6.055   6.186 -1.4315 -0.8674 -0.5187
  213MOL0     H28702   4.782   6.260   6.303 -0.5081  0.5856  1.8153
  213MOL0     H28703   4.692   6.216   6.448 -1.0841  1.3724 -0.4301
  213MOL0     H28704   4.524   6.185   6.201  1.5094  0.6441 -1.2001
  213MOL0     H28705   4.489   6.231   6.376  0.7352  2.0773  0.1784
  213MOL0     H28706   4.665   6.383   6.066  1.4682 -1.9948  2.4629
  213MOL0     H28707   4.586   6.718   6.021  1.1870  2.7255  0.2715
  213MOL0     H28708   4.665   6.780   6.150  1.1617 -0.2776 -0.2044
  213MOL0     H28709   4.798   6.581   5.959  0.7262 -0.0191 -1.1361
  213MOL0     H28710   4.847   6.746   5.992  2.6701 -1.4950  0.8619
  213MOL0     H28711   4.882   6.517   6.172 -0.8879  0.9398  0.5961
  213MOL0     H28712   4.907   6.680   6.241 -1.8956  0.1175  0.6080
  213MOL0     H28713   5.137   6.602   6.145  2.1777  3.0147 -2.3182
  213MOL0     H28714   5.061   6.744   6.069  0.0977  0.5176  2.4716
  213MOL0     H28715   5.064   6.373   6.151 -2.5914  0.8815 -0.5862
  213MOL0     H28716   5.058   6.145   6.096 -0.2880 -3.5456 -3.1136
  213MOL0     H28717   5.179   5.795   6.129  0.1070  1.4047 -1.2818
  213MOL0     H28718   5.210   5.568   6.135  0.8117  3.4919  1.8166
  213MOL0     H28719   5.247   5.377   6.106  0.2397  1.6315 -0.4207
  213MOL0     H28720   5.091   5.313   6.128  1.3716  0.7682  0.9902
  213MOL0     H28721   5.193   5.133   5.944  0.7119  1.5286 -1.0366
  213MOL0     H28722   5.340   5.204   5.977 -1.1422  1.9176 -1.2156
  213MOL0     H28723   5.320   5.146   6.229 -1.0089 -2.8828  2.8198
  213MOL0     H28724   5.164   5.069   6.185  2.4779 -2.2541  1.0968
  213MOL0     H28725   5.443   5.014   6.088 -0.7850  4.1710 -0.0726
  213MOL0     H28726   5.303   4.930   6.011  1.3326 -1.8075  0.0696
  213MOL0     H28727   5.245   4.828   6.225 -0.6263  0.4644 -0.4904
  213MOL0     H28728   5.402   4.888   6.296  0.8659 -1.0808  0.4426
  213MOL0     H28729   5.343   4.694   6.074  1.9267 -0.3387 -1.9589
  213MOL0     H28730   5.502   4.777   6.101  0.9445 -2.4897 -0.3325
  213MOL0     H28731   5.345   4.572   6.277  0.9444 -1.5522  0.5021
  213MOL0     H28732   5.493   4.668   6.330 -0.2647  1.2845 -0.6245
  213MOL0     H28733   5.616   4.577   6.147 -1.8688  1.2867 -0.5390
  213MOL0     H28734   5.604   4.474   6.295 -0.5480 -1.6303 -0.7790
  213MOL0     H28735   4.989   5.525   5.775 -0.2440 -1.3720  1.6603
  213MOL0     H28736   4.944   5.761   5.771 -0.7200 -1.2773  0.0382
  213MOL0     H28737   5.084   6.231   5.686 -0.5714 -0.5449  0.9307
  213MOL0     H28738   5.105   6.478   5.739  1.0677 -0.2492 -0.0653
  213MOL0     H28739   4.587   5.180   6.349 -1.4883  0.8119 -0.7864
  213MOL0     H28740   4.670   4.967   6.248  0.5888  0.8822  1.9183
  213MOL0     H28741   4.945   4.806   5.859 -0.7807 -1.2621 -1.7762
  213MOL0     H28742   5.041   4.604   5.758  0.3375 -0.4216  0.3937
  213MOL0     H28743   5.056   4.194   5.945  1.0673 -2.9840 -0.2868
  213MOL0     H28744   5.189   4.279   6.016  1.7891 -0.8901 -1.4124
  213MOL0     H28745   5.303   4.270   5.784 -0.2601  0.2072  2.0381
  213MOL0     H28746   5.174   4.152   5.728  2.2454  0.0466 -1.5594
  213MOL0     H28747   5.316   4.077   5.963  3.4576  1.8701  0.3844
  213MOL0     H28748   5.437   4.103   5.830  1.7181  0.3076  1.2633
  213MOL0     H28749   5.288   3.966   5.680  3.8733 -0.3067 -0.6057
  213MOL0     H28750   5.360   3.861   5.803  0.1700  0.3951 -1.8278
  213MOL0     H28751   4.955   3.813   5.877 -0.0245  1.1665  1.6654
  213MOL0     H28752   5.039   4.397   6.121  0.8062 -0.0573 -2.2164
  213MOL0     H28753   4.870   4.630   6.307  0.3613  0.9394  0.0367
  213MOL0     H28754   4.987   4.486   6.308 -1.7002 -0.2883 -1.2885
  213MOL0     H28755   5.050   4.641   6.333 -0.1593 -2.0208  2.6147
  214MOL0     O28756   9.756   1.553   3.529 -1.2393 -0.0474 -0.3795
  214MOL0     C28757   9.673   1.499   3.456  1.4009 -0.3362  0.1026
  214MOL0     O28758   9.555   1.439   3.510 -0.3632  0.2230  0.3105
  214MOL0     C28759   9.485   1.359   3.431 -0.6432 -0.0957  0.6908
  214MOL0     C28760   9.494   1.225   3.429  0.8819  0.7261 -0.1488
  214MOL0     C28761   9.421   1.144   3.346 -0.8374 -0.9563  0.1381
  214MOL0     C28762   9.321   1.208   3.268  0.6101 -0.3147 -0.3978
  214MOL0     O28763   9.244   1.135   3.185 -0.3915  0.8221 -0.3168
  214MOL0     C28764   9.306   1.038   3.102  0.6487 -0.4107 -0.1254
  214MOL0     C28765   9.207   0.966   3.016 -0.5182 -0.1625 -0.1990
  214MOL0     C28766   9.266   0.853   2.924  0.1201  0.0790 -0.6734
  214MOL0     C28767   9.261   0.711   2.994  0.8394  0.6321  0.4571
  214MOL0     C28768   9.290   0.601   2.893  0.0438 -0.3126 -0.3864
  214MOL0     C28769   9.369   0.491   2.958 -0.3965  1.3257 -0.1495
  214MOL0     C28770   9.282   0.408   3.051 -0.1982  0.4928 -0.7965
  214MOL0     C28771   9.344   0.280   3.085 -0.3790  0.2342 -0.4170
  214MOL0     N28772   9.463   0.314   3.181 -0.4045  0.2089  0.6048
  214MOL0     C28773   9.444   0.343   3.309  0.4486 -0.7519 -0.7240
  214MOL0     C28774   9.563   0.357   3.363  0.2114 -0.0366 -0.3701
  214MOL0     C28775   9.600   0.373   3.504  0.2282  1.0260 -1.1201
  214MOL0     C28776   9.479   0.356   3.606 -0.8856 -0.1583 -0.2735
  214MOL0     C28777   9.527   0.414   3.741  0.1051  0.5595  0.0388
  214MOL0     C28778   9.427   0.343   3.840  0.3444 -0.1677  1.1248
  214MOL0     O28779   9.435   0.394   3.965 -0.3235 -0.3375 -0.5973
  214MOL0     C28780   9.360   0.507   3.987  0.1524  0.4628 -0.5577
  214MOL0     C28781   9.360   0.560   4.116  0.1470 -0.4751 -0.3146
  214MOL0     C28782   9.278   0.672   4.146 -0.8436  0.7664 -0.5244
  214MOL0     C28783   9.200   0.739   4.047 -0.2225 -0.6934 -1.5382
  214MOL0     C28784   9.107   0.854   4.080  0.3742 -0.4058  0.3955
  214MOL0     O28785   9.003   0.873   3.993  0.7187 -0.1227 -0.3563
  214MOL0     C28786   8.904   0.965   4.035 -0.7794  0.2000  0.0630
  214MOL0     C28787   8.786   0.928   4.100  0.0982  0.0328 -0.4494
  214MOL0     C28788   8.706   1.022   4.162  0.4515  0.2720 -0.4579
  214MOL0     C28789   8.722   1.157   4.139 -0.0024  0.1421  0.5920
  214MOL0     O28790   8.619   1.239   4.189 -0.9309 -0.8627  0.2588
  214MOL0     C28791   8.656   1.376   4.208  1.4425 -0.3535  0.4836
  214MOL0     C28792   8.541   1.450   4.279  0.2026 -0.1411  0.6035
  214MOL0     C28793   8.491   1.369   4.397 -0.7478 -0.0876 -0.0663
  214MOL0     C28794   8.409   1.439   4.503 -0.1314 -0.1542 -0.9426
  214MOL0     C28795   8.275   1.495   4.440 -0.0300 -0.8721  0.3219
  214MOL0     C28796   8.200   1.399   4.348 -0.3865 -0.2634  0.8190
  214MOL0     C28797   8.143   1.275   4.413  0.2252 -0.5857 -0.2685
  214MOL0     C28798   8.000   1.305   4.466  0.4435 -0.3542 -0.0341
  214MOL0    Cl28799   7.948   1.165   4.556 -0.2194  0.8384 -0.5939
  214MOL0     C28800   8.833   1.199   4.059  1.0569 -0.5605  0.0218
  214MOL0     C28801   8.921   1.105   4.009 -0.5647 -0.2183  0.8769
  214MOL0     O28802   9.126   0.920   4.183  0.1040 -0.5397 -0.1237
  214MOL0     C28803   9.207   0.691   3.919 -0.7626  0.3963 -0.1202
  214MOL0     C28804   9.291   0.579   3.887 -0.2087  0.4308 -0.2204
  214MOL0     N28805   9.660   0.335   3.267  0.1523 -0.2295  0.0135
  214MOL0     N28806   9.603   0.302   3.161  0.5162  0.9693  0.6045
  214MOL0     C28807   9.291   1.347   3.270 -0.1364  0.0986 -0.0512
  214MOL0     C28808   9.381   1.416   3.351 -0.7256  0.1217  0.2515
  214MOL0     C28809   9.703   1.515   3.305  0.7315  0.4846  0.2109
  214MOL0     C28810   9.733   1.403   3.236 -0.0825 -0.2655 -0.1679
  214MOL0     C28811   9.786   1.407   3.104 -0.5420  0.2953  0.2555
  214MOL0     C28812   9.789   1.516   3.032  0.5375 -0.8624  0.2529
  214MOL0     O28813   9.831   1.527   2.905  0.4719 -0.4918  1.3083
  214MOL0     C28814   9.891   1.421   2.839  0.1897 -0.0151 -0.3208
  214MOL0     C28815   9.919   1.468   2.692 -0.1423  0.0745  0.4806
  214MOL0     C28816   9.878   1.373   2.582  0.3651  0.0709  0.2059
  214MOL0     C28817   9.920   1.408   2.441  0.5479 -1.5848 -0.1960
  214MOL0     C28818   9.881   1.316   2.335 -0.5475 -0.6574 -0.4312
  214MOL0     C28819   9.860   1.239   2.242 -0.0234 -0.3304  0.5076
  214MOL0     C28820   9.729   1.629   3.092  0.6311  0.7817  0.4055
  214MOL0     C28821   9.686   1.631   3.232 -0.4173 -0.2732  0.2526
  214MOL0     C28822   9.623   1.761   3.279 -0.3216 -0.2887 -0.4695
  214MOL0     H28823   9.570   1.170   3.483  0.5283 -0.3439 -0.7151
  214MOL0     H28824   9.433   1.036   3.349  4.1947 -0.7474 -1.4227
  214MOL0     H28825   9.372   1.083   3.027  0.2692 -2.6469 -1.9129
  214MOL0     H28826   9.369   0.965   3.154  1.1540  1.2308  1.6794
  214MOL0     H28827   9.164   1.037   2.945  2.4960  0.8554 -1.1933
  214MOL0     H28828   9.135   0.913   3.078 -0.7619  1.3573  0.8816
  214MOL0     H28829   9.371   0.878   2.905  0.6959 -0.1568  1.8775
  214MOL0     H28830   9.212   0.842   2.830  0.5255 -0.2408 -0.8722
  214MOL0     H28831   9.324   0.702   3.083  0.9243 -0.0704  0.3374
  214MOL0     H28832   9.156   0.690   3.019  0.8280 -0.4228 -0.3748
  214MOL0     H28833   9.190   0.567   2.866 -1.0011  1.4328  1.0514
  214MOL0     H28834   9.343   0.645   2.808 -0.2488 -1.9788 -1.4735
  214MOL0     H28835   9.400   0.432   2.871  0.5938  0.9587  0.4283
  214MOL0     H28836   9.463   0.523   3.004  0.5552 -1.7793  0.2892
  214MOL0     H28837   9.186   0.411   3.000  0.3634  0.9953 -1.8426
  214MOL0     H28838   9.269   0.459   3.147 -1.0845 -2.6943  0.9298
  214MOL0     H28839   9.281   0.207   3.137  0.5038 -0.9316 -0.9385
  214MOL0     H28840   9.385   0.224   3.001 -2.2530 -1.0134 -0.5575
  214MOL0     H28841   9.351   0.372   3.357  0.3789  1.8248 -2.2463
  214MOL0     H28842   9.687   0.312   3.528 -0.1034  0.7690 -0.5563
  214MOL0     H28843   9.619   0.481   3.507 -2.2486  1.5113 -0.5312
  214MOL0     H28844   9.390   0.402   3.563 -1.7657 -1.1555  0.4222
  214MOL0     H28845   9.460   0.248   3.610 -3.2807  0.2414  1.8607
  214MOL0     H28846   9.518   0.523   3.745  3.8959  1.0348 -0.8925
  214MOL0     H28847   9.625   0.383   3.777  0.1560 -2.2506 -2.2259
  214MOL0     H28848   9.451   0.236   3.837 -2.6805 -0.9536 -1.9507
  214MOL0     H28849   9.325   0.346   3.799  1.0931  0.8080 -0.7925
  214MOL0     H28850   9.402   0.503   4.198  0.8601  2.7846  1.8046
  214MOL0     H28851   9.281   0.707   4.249  2.1763  4.0707 -1.5438
  214MOL0     H28852   8.755   0.825   4.114 -1.2050  0.5816  0.9832
  214MOL0     H28853   8.623   0.993   4.225  0.1246 -0.1769 -1.0772
  214MOL0     H28854   8.749   1.396   4.262  1.4892  2.6898 -0.5519
  214MOL0     H28855   8.662   1.430   4.114 -1.0751 -0.0988  0.4091
  214MOL0     H28856   8.587   1.545   4.308 -1.1792 -0.3603  3.9314
  214MOL0     H28857   8.455   1.475   4.217 -1.8331 -1.7436  2.6323
  214MOL0     H28858   8.431   1.286   4.357 -0.3752 -0.5393  0.2991
  214MOL0     H28859   8.585   1.332   4.438  0.1192  2.8060  0.7503
  214MOL0     H28860   8.467   1.527   4.531 -0.4087 -0.1927 -0.1985
  214MOL0     H28861   8.386   1.380   4.593  1.5918 -2.1132 -1.7043
  214MOL0     H28862   8.313   1.573   4.373  2.2543 -2.8431 -0.8540
  214MOL0     H28863   8.217   1.537   4.523  1.9199  2.0067  0.3684
  214MOL0     H28864   8.117   1.452   4.300 -1.7620 -4.0378 -1.4339
  214MOL0     H28865   8.262   1.371   4.262 -1.4046 -2.2122  0.6558
  214MOL0     H28866   8.212   1.260   4.497  1.0590  1.0195 -0.6326
  214MOL0     H28867   8.125   1.187   4.350 -3.6351  0.6289 -1.1040
  214MOL0     H28868   7.985   1.399   4.521 -3.7561  0.8718 -2.7975
  214MOL0     H28869   7.937   1.305   4.377  2.2995 -2.1285 -1.4288
  214MOL0     H28870   8.842   1.305   4.035 -1.2241 -0.0523  1.1289
  214MOL0     H28871   9.011   1.125   3.952 -0.8454 -2.6936 -0.5672
  214MOL0     H28872   9.139   0.723   3.840 -1.4429  1.2799  0.7958
  214MOL0     H28873   9.284   0.545   3.784 -3.5512 -2.6538  0.7957
  214MOL0     H28874   9.216   1.391   3.205 -0.5967  0.7750  0.9112
  214MOL0     H28875   9.375   1.524   3.359  1.8987  0.3251  0.0526
  214MOL0     H28876   9.732   1.315   3.299 -0.3909  1.0346  1.7260
  214MOL0     H28877   9.830   1.320   3.056  2.5679  2.2564 -0.6856
  214MOL0     H28878   9.829   1.330   2.837  0.3440 -0.1200 -1.9263
  214MOL0     H28879   9.985   1.393   2.886 -0.2433 -0.5263  0.2677
  214MOL0     H28880  10.028   1.470   2.682 -0.2095 -0.0750 -0.3796
  214MOL0     H28881   9.886   1.571   2.677  1.8810  0.7963  0.6971
  214MOL0     H28882   9.768   1.379   2.583  0.4366  2.7682  0.7051
  214MOL0     H28883   9.907   1.270   2.603 -1.5611 -1.1672 -2.4764
  214MOL0     H28884   9.885   1.510   2.423  1.9952 -0.7406  1.4016
  214MOL0     H28885  10.027   1.427   2.427  0.9447 -2.6554  1.2116
  214MOL0     H28886   9.843   1.169   2.163  2.3029  1.3846 -1.6504
  214MOL0     H28887   9.716   1.706   3.017  3.6725 -0.2151 -1.3509
  214MOL0     H28888   9.708   1.829   3.278  0.0760 -0.7665  0.2397
  214MOL0     H28889   9.544   1.802   3.216 -2.4656 -0.6131  1.8180
  214MOL0     H28890   9.586   1.757   3.382 -0.3528  4.4680 -0.0576
  215MOL0     O28891   5.599   5.127   1.977  0.8574 -0.3445 -0.2952
  215MOL0     C28892   5.556   5.202   1.886  0.3227  0.2421 -0.5440
  215MOL0     O28893   5.524   5.334   1.902  0.0433  0.1222 -0.5641
  215MOL0     C28894   5.541   5.401   2.020  0.4070 -0.8402 -0.4225
  215MOL0     C28895   5.452   5.503   2.053 -0.3442  0.5382 -1.2350
  215MOL0     C28896   5.478   5.585   2.165 -0.0687  0.4177  0.3128
  215MOL0     C28897   5.598   5.574   2.235  0.2558  0.6624  0.5890
  215MOL0     O28898   5.619   5.664   2.332  0.4060 -0.4972 -0.2006
  215MOL0     C28899   5.712   5.626   2.438  0.9165 -0.1515  0.1436
  215MOL0     C28900   5.661   5.502   2.515 -0.4971  0.2083  0.0443
  215MOL0     C28901   5.768   5.440   2.598  0.1330  0.3311  0.1780
  215MOL0     C28902   5.695   5.311   2.642 -0.1727 -0.6524 -0.0220
  215MOL0     C28903   5.783   5.224   2.726  0.1975  1.3442  0.0726
  215MOL0     C28904   5.723   5.084   2.729  1.2275 -0.5350  0.1440
  215MOL0     C28905   5.805   4.985   2.800  0.1799 -0.2717 -0.4220
  215MOL0     C28906   5.920   4.949   2.696  0.2091  0.5035  0.0352
  215MOL0     N28907   5.990   4.840   2.760  0.7337 -0.3706 -1.2038
  215MOL0     C28908   5.981   4.704   2.732  0.8336 -0.7317 -0.1979
  215MOL0     C28909   6.083   4.660   2.813  0.4822 -0.7489 -0.0757
  215MOL0     C28910   6.106   4.519   2.799 -0.1306 -0.2027  0.3314
  215MOL0     C28911   6.152   4.477   2.935  0.7199  0.2428  0.0792
  215MOL0     C28912   6.181   4.330   2.957 -0.5207  0.3264 -0.0307
  215MOL0     C28913   6.317   4.276   2.927  0.3241  0.5242  0.4273
  215MOL0     O28914   6.320   4.246   2.787 -0.7728 -0.2488  0.4852
  215MOL0     C28915   6.411   4.159   2.724 -0.2857  0.1246 -0.6402
  215MOL0     C28916   6.391   4.124   2.597  0.9375  0.4431  0.2324
  215MOL0     C28917   6.492   4.053   2.523 -0.2914  0.4960 -0.0642
  215MOL0     C28918   6.609   4.014   2.582 -0.4829  0.5127 -0.4231
  215MOL0     C28919   6.713   3.941   2.495 -0.0389 -0.7209  0.2131
  215MOL0     O28920   6.679   3.911   2.369  0.0806 -0.6811  0.1419
  215MOL0     C28921   6.729   3.806   2.296  0.3737  1.0792 -0.7771
  215MOL0     C28922   6.680   3.774   2.166 -0.0321  1.0721  0.0391
  215MOL0     C28923   6.702   3.665   2.087  0.2668  0.6064  0.0431
  215MOL0     C28924   6.795   3.573   2.134  0.9405 -1.0250  1.2239
  215MOL0     O28925   6.820   3.468   2.048  0.9613 -0.5949  0.3191
  215MOL0     C28926   6.951   3.469   1.986 -0.5771 -0.2875 -0.0989
  215MOL0     C28927   6.984   3.329   1.955  0.4243 -0.6718  1.1536
  215MOL0     C28928   7.010   3.261   2.087  0.6654  0.7928  0.7436
  215MOL0     C28929   6.992   3.108   2.063  0.0013 -0.3467 -0.9947
  215MOL0     C28930   7.015   3.040   2.203 -0.3360  0.5998  0.1632
  215MOL0     C28931   7.134   2.949   2.211  0.0357  1.1363  0.3056
  215MOL0     C28932   7.114   2.816   2.133  1.0382 -0.4243 -0.3307
  215MOL0     C28933   7.036   2.706   2.211  0.8025  0.6025 -0.2288
  215MOL0    Cl28934   7.139   2.643   2.346  0.1241  0.2430 -0.3172
  215MOL0     C28935   6.854   3.590   2.267 -0.5652 -0.0329  0.9059
  215MOL0     C28936   6.823   3.710   2.350  0.1094 -0.5997 -0.1050
  215MOL0     O28937   6.822   3.924   2.540 -0.0816  0.4000 -0.6183
  215MOL0     C28938   6.631   4.061   2.713  0.0764 -0.1394 -0.2810
  215MOL0     C28939   6.542   4.136   2.785 -0.2650  1.6464 -0.6276
  215MOL0     N28940   6.140   4.760   2.893  0.3012  0.2860 -1.2683
  215MOL0     N28941   6.081   4.859   2.857  0.4212  0.9278  0.4444
  215MOL0     C28942   5.682   5.473   2.198  0.4397  0.4913 -0.2033
  215MOL0     C28943   5.656   5.380   2.095 -0.6746 -0.8269  0.1477
  215MOL0     C28944   5.529   5.134   1.754 -0.1981 -0.1638 -1.1122
  215MOL0     C28945   5.486   5.005   1.753  0.0333 -0.0628 -0.0977
  215MOL0     C28946   5.449   4.930   1.640 -1.3462  0.2230 -0.2467
  215MOL0     C28947   5.493   4.978   1.517  0.3859 -0.1264  0.1276
  215MOL0     O28948   5.489   4.884   1.413  0.0098  0.3561  0.0562
  215MOL0     C28949   5.518   4.937   1.287 -0.3594 -0.0233  1.0562
  215MOL0     C28950   5.491   4.846   1.169  0.5712  0.1607  0.2953
  215MOL0     C28951   5.341   4.836   1.133  0.0997 -0.3340 -0.4816
  215MOL0     C28952   5.261   4.764   1.247 -0.0876  0.5232 -1.3050
  215MOL0     C28953   5.134   4.693   1.204 -0.3137  0.2049  0.3431
  215MOL0     C28954   5.026   4.630   1.184 -0.7904  0.7925 -0.4547
  215MOL0     C28955   5.540   5.111   1.515 -0.3031 -0.1878  1.0249
  215MOL0     C28956   5.547   5.193   1.628 -0.4855  0.6591  0.1933
  215MOL0     C28957   5.623   5.325   1.622  0.1306  0.6274 -0.4999
  215MOL0     H28958   5.362   5.515   1.994 -0.8625  1.3601 -0.2996
  215MOL0     H28959   5.423   5.669   2.206 -0.2555  0.3184  0.2649
  215MOL0     H28960   5.815   5.604   2.409  0.9776 -5.2217  3.0720
  215MOL0     H28961   5.702   5.708   2.509  2.1120  0.3263 -0.2219
  215MOL0     H28962   5.618   5.431   2.444 -1.2256 -2.4198  2.8879
  215MOL0     H28963   5.578   5.534   2.578  0.6612  3.7185  0.0379
  215MOL0     H28964   5.785   5.513   2.678  1.3145  2.5082 -1.9201
  215MOL0     H28965   5.860   5.420   2.543 -0.8451 -1.0467 -1.0161
  215MOL0     H28966   5.599   5.323   2.693  0.1822 -5.3896  2.2838
  215MOL0     H28967   5.689   5.256   2.548  1.7240  1.6219 -1.5824
  215MOL0     H28968   5.884   5.209   2.686  0.7494  0.4792  1.6694
  215MOL0     H28969   5.798   5.264   2.827  1.1852 -1.8894  1.3467
  215MOL0     H28970   5.632   5.079   2.789  0.3896 -0.5282 -1.1067
  215MOL0     H28971   5.695   5.048   2.630  0.8695  0.8734 -0.2774
  215MOL0     H28972   5.760   4.887   2.821  3.2613 -1.4957  1.0935
  215MOL0     H28973   5.848   5.025   2.892 -1.7659  0.4885  0.2145
  215MOL0     H28974   5.862   4.921   2.608  1.1179 -2.9069  0.3908
  215MOL0     H28975   5.989   5.032   2.678 -0.8840  2.0279  2.3436
  215MOL0     H28976   5.919   4.649   2.662 -0.4161 -1.8941  1.7308
  215MOL0     H28977   6.015   4.462   2.776  0.4464 -0.6795 -0.8695
  215MOL0     H28978   6.183   4.508   2.723  0.1351  2.1205  0.1921
  215MOL0     H28979   6.236   4.543   2.960 -0.1100  0.9878  0.9655
  215MOL0     H28980   6.079   4.490   3.015  3.3354 -0.5914  2.8032
  215MOL0     H28981   6.107   4.264   2.910 -0.7423 -1.7500  2.9366
  215MOL0     H28982   6.170   4.319   3.065  0.4997  0.7294  0.1215
  215MOL0     H28983   6.317   4.185   2.988 -3.9376 -1.4685 -2.1194
  215MOL0     H28984   6.405   4.335   2.957  3.1879 -1.8559 -2.5688
  215MOL0     H28985   6.296   4.164   2.565 -0.5439 -0.6293  2.9476
  215MOL0     H28986   6.490   4.026   2.418 -4.3017  1.8246 -0.4816
  215MOL0     H28987   6.599   3.831   2.121 -1.1491  2.6142  3.5943
  215MOL0     H28988   6.656   3.635   1.993 -0.9547 -2.6844  1.5252
  215MOL0     H28989   6.948   3.535   1.899 -1.7920 -0.2887 -0.0676
  215MOL0     H28990   7.026   3.513   2.053  0.6983  0.9494 -2.2107
  215MOL0     H28991   6.894   3.298   1.902  0.1123  2.6165 -0.5329
  215MOL0     H28992   7.070   3.323   1.887 -0.0422  2.8846  0.0091
  215MOL0     H28993   7.109   3.289   2.123  0.3565  1.4726  1.0904
  215MOL0     H28994   6.943   3.283   2.171 -0.2056 -3.7082  1.5166
  215MOL0     H28995   7.069   3.075   1.992 -1.7051 -1.5243 -2.3968
  215MOL0     H28996   6.899   3.075   2.015  0.8830 -1.4571 -2.0088
  215MOL0     H28997   6.938   2.974   2.243  0.5150 -0.1584  0.5998
  215MOL0     H28998   7.017   3.126   2.271 -3.3607  0.5091  0.4927
  215MOL0     H28999   7.215   3.000   2.158  0.4055 -1.5454 -1.9404
  215MOL0     H29000   7.165   2.941   2.315 -2.0313  2.3612  1.0961
  215MOL0     H29001   7.209   2.775   2.097  1.6563 -1.9145  2.6882
  215MOL0     H29002   7.047   2.839   2.050 -1.8359  0.3462  2.0294
  215MOL0     H29003   6.941   2.744   2.250  1.5813  0.7267  1.6050
  215MOL0     H29004   7.016   2.619   2.148  0.5313  0.9828 -0.6807
  215MOL0     H29005   6.916   3.511   2.307  0.7810  1.1583  1.2389
  215MOL0     H29006   6.871   3.713   2.447 -0.6084  0.4912  0.2327
  215MOL0     H29007   6.726   4.053   2.766  0.2803 -1.0489 -0.7615
  215MOL0     H29008   6.567   4.175   2.883 -0.9836  2.7120 -0.8434
  215MOL0     H29009   5.774   5.466   2.254  0.7458  1.1985 -0.6062
  215MOL0     H29010   5.723   5.298   2.072  2.6735  1.7572 -0.0298
  215MOL0     H29011   5.473   4.955   1.848  0.1506  1.2171  0.6066
  215MOL0     H29012   5.410   4.828   1.635 -1.1887  0.1575 -0.1357
  215MOL0     H29013   5.618   4.979   1.278 -0.9985  1.0539 -2.7329
  215MOL0     H29014   5.448   5.021   1.282 -0.3646  0.2649  4.3365
  215MOL0     H29015   5.533   4.748   1.195 -1.2066 -1.1318 -1.2873
  215MOL0     H29016   5.537   4.887   1.079 -2.9313 -2.8659 -3.2878
  215MOL0     H29017   5.330   4.770   1.047  2.2353 -4.6926  2.1984
  215MOL0     H29018   5.284   4.928   1.119  0.3072 -0.1574 -0.1956
  215MOL0     H29019   5.330   4.688   1.284 -1.1794  1.7005  4.0373
  215MOL0     H29020   5.233   4.833   1.327 -2.8477 -1.4497 -0.3958
  215MOL0     H29021   4.939   4.573   1.160  0.1431 -0.2596 -1.4661
  215MOL0     H29022   5.576   5.169   1.430  2.2085  2.5935  3.7342
  215MOL0     H29023   5.708   5.330   1.690  1.5454  2.2247 -2.2632
  215MOL0     H29024   5.661   5.343   1.521  1.6619 -1.2145 -0.3026
  215MOL0     H29025   5.551   5.405   1.640 -3.2857 -1.7506 -2.2503
  216MOL0     O29026   2.893   5.846   7.859 -0.2494  0.6931 -0.7010
  216MOL0     C29027   2.938   5.892   7.961 -0.0242 -0.7741 -0.2692
  216MOL0     O29028   3.062   5.949   7.973 -1.1560 -0.1171 -0.3103
  216MOL0     C29029   3.112   6.026   7.868 -0.0714 -0.4024  0.7854
  216MOL0     C29030   3.130   5.970   7.744  0.3618  0.6142  0.4091
  216MOL0     C29031   3.161   6.050   7.634  0.6819  0.8771  0.3935
  216MOL0     C29032   3.191   6.181   7.654 -0.6698  1.2552  0.1846
  216MOL0     O29033   3.236   6.238   7.536  0.3951  0.4061 -0.3960
  216MOL0     C29034   3.238   6.371   7.523 -0.3682 -0.5322 -0.5327
  216MOL0     C29035   3.217   6.424   7.385 -0.1709  0.3822  0.8698
  216MOL0     C29036   3.083   6.369   7.321 -0.0375  0.1590  0.3886
  216MOL0     C29037   2.957   6.407   7.396 -0.5242  0.4977  0.2619
  216MOL0     C29038   2.930   6.552   7.389  0.4727 -0.5623  1.9644
  216MOL0     C29039   2.795   6.598   7.439  0.0890  0.8747  0.7571
  216MOL0     C29040   2.766   6.590   7.589 -0.6122  0.1533  0.3842
  216MOL0     C29041   2.780   6.726   7.664  0.7946  0.3266 -0.9705
  216MOL0     N29042   2.724   6.734   7.795  0.5228  1.0993  0.1705
  216MOL0     C29043   2.651   6.638   7.862  0.2843  0.4389  1.0348
  216MOL0     C29044   2.596   6.694   7.971  0.3699 -0.2520  0.7904
  216MOL0     C29045   2.535   6.605   8.072 -0.6074 -0.3496  0.0344
  216MOL0     C29046   2.454   6.674   8.180 -0.1176  0.0443 -0.3391
  216MOL0     C29047   2.410   6.573   8.283  0.4925  0.0146  0.5905
  216MOL0     C29048   2.318   6.631   8.396  0.7279 -0.2509  0.5965
  216MOL0     O29049   2.380   6.748   8.459  0.3469  0.3109 -0.5671
  216MOL0     C29050   2.321   6.796   8.570  1.3937 -0.1366 -0.3348
  216MOL0     C29051   2.400   6.876   8.649  0.7114 -0.8407 -0.6130
  216MOL0     C29052   2.354   6.937   8.764 -0.2679 -0.4075 -0.9982
  216MOL0     C29053   2.218   6.919   8.798 -0.4349  0.4625  0.3801
  216MOL0     C29054   2.158   7.015   8.900  0.7194 -0.2991  0.1527
  216MOL0     O29055   2.026   7.021   8.901  0.3550  0.0184  0.4360
  216MOL0     C29056   1.957   7.066   9.006  0.7261 -0.0012  0.3147
  216MOL0     C29057   1.973   7.195   9.063  0.5825  0.2320 -0.2461
  216MOL0     C29058   1.922   7.225   9.189 -0.0077 -0.0689 -0.5767
  216MOL0     C29059   1.841   7.131   9.254 -0.3610 -0.2187 -0.8520
  216MOL0     O29060   1.810   7.151   9.389  0.0781  0.2007 -1.1706
  216MOL0     C29061   1.818   7.039   9.476  0.2840 -0.1609  0.0753
  216MOL0     C29062   1.820   7.077   9.625  0.5359  0.1764 -0.8661
  216MOL0     C29063   1.690   7.167   9.661 -0.6078  0.4574 -0.3741
  216MOL0     C29064   1.686   7.216   9.810 -0.3132 -0.2718 -0.1565
  216MOL0     C29065   1.560   7.307   9.836 -0.7190 -0.8722  0.4699
  216MOL0     C29066   1.425   7.237   9.834  0.1541  0.3209 -0.0744
  216MOL0     C29067   1.313   7.281   9.931  0.6045  0.1662 -0.3942
  216MOL0     C29068   1.251   7.422   9.909 -0.8632  0.6777 -0.0082
  216MOL0    Cl29069   1.362   7.556   9.946 -0.3356 -0.2491  0.3398
  216MOL0     C29070   1.830   7.004   9.191 -0.8141 -0.9829 -0.8764
  216MOL0     C29071   1.874   6.972   9.067  0.2233 -0.1860 -0.3558
  216MOL0     O29072   2.229   7.087   8.968 -0.2542  0.3219 -0.3862
  216MOL0     C29073   2.130   6.839   8.714  0.6175 -1.0562 -0.2079
  216MOL0     C29074   2.189   6.769   8.610 -0.2860 -0.3821  0.6784
  216MOL0     N29075   2.626   6.830   7.965  0.0654 -0.0983  0.2155
  216MOL0     N29076   2.709   6.845   7.867 -0.2409  0.2378 -0.3558
  216MOL0     C29077   3.186   6.234   7.788 -1.1619 -0.4885  0.8301
  216MOL0     C29078   3.131   6.161   7.896 -0.1113  0.0120 -0.4258
  216MOL0     C29079   2.854   5.906   8.082 -0.4546 -0.7034  0.9143
  216MOL0     C29080   2.715   5.887   8.070  0.0451 -0.3627  0.4172
  216MOL0     C29081   2.632   5.916   8.176 -0.5294 -0.0862 -0.4186
  216MOL0     C29082   2.684   5.944   8.305  0.2383 -0.4452 -0.0421
  216MOL0     O29083   2.617   5.953   8.431 -0.3665  0.5970  0.7229
  216MOL0     C29084   2.470   5.981   8.431 -0.8266  0.1177 -0.2293
  216MOL0     C29085   2.400   5.835   8.427  0.0584 -0.2277  0.5134
  216MOL0     C29086   2.450   5.748   8.550  1.0272 -0.0584 -0.3881
  216MOL0     C29087   2.361   5.771   8.665 -1.7279 -0.2329 -0.1765
  216MOL0     C29088   2.227   5.737   8.644  0.2693  0.4325  0.3144
  216MOL0     C29089   2.113   5.714   8.626  0.6615  0.5607  0.6513
  216MOL0     C29090   2.824   5.962   8.318 -0.9312 -0.7685  0.3734
  216MOL0     C29091   2.913   5.939   8.209 -0.4828  0.1852  0.4092
  216MOL0     C29092   3.057   5.956   8.257  0.7740 -0.1073 -0.0762
  216MOL0     H29093   3.112   5.863   7.743  2.6125  0.1789  0.1733
  216MOL0     H29094   3.164   6.003   7.537 -3.6392 -0.7536  0.8233
  216MOL0     H29095   3.167   6.419   7.591  1.3696 -1.8669  2.4499
  216MOL0     H29096   3.337   6.406   7.554 -0.7295 -0.8813  1.1161
  216MOL0     H29097   3.297   6.394   7.317 -0.1522 -1.8629  1.7827
  216MOL0     H29098   3.227   6.532   7.393  0.4552  0.2805  1.5849
  216MOL0     H29099   3.093   6.261   7.307 -0.3957  0.4219 -2.6369
  216MOL0     H29100   3.074   6.399   7.216 -0.6498  1.4679  0.8027
  216MOL0     H29101   2.884   6.338   7.353 -0.2271 -0.7409  1.6792
  216MOL0     H29102   2.973   6.377   7.499 -1.8853 -0.9175  0.0813
  216MOL0     H29103   3.007   6.615   7.434  0.2789  3.0282 -2.0468
  216MOL0     H29104   2.927   6.584   7.285 -0.5218 -0.1296  2.1175
  216MOL0     H29105   2.790   6.705   7.421 -1.3034  1.4068  3.6183
  216MOL0     H29106   2.713   6.545   7.390 -0.1244 -0.0931  2.0826
  216MOL0     H29107   2.839   6.525   7.638  0.5605  1.2464  0.1127
  216MOL0     H29108   2.665   6.554   7.614  1.2086 -3.9927  2.8896
  216MOL0     H29109   2.877   6.775   7.666  1.3029 -0.5097 -2.9502
  216MOL0     H29110   2.714   6.797   7.613  0.0761 -1.5562 -2.8057
  216MOL0     H29111   2.634   6.533   7.839 -0.7301  0.5222  1.3593
  216MOL0     H29112   2.471   6.538   8.014 -2.4057  2.2464 -1.2195
  216MOL0     H29113   2.618   6.548   8.113 -0.0257 -1.5912 -2.6427
  216MOL0     H29114   2.513   6.752   8.228  1.1097 -1.5606  0.8495
  216MOL0     H29115   2.357   6.703   8.138 -1.5141 -1.1980  1.8724
  216MOL0     H29116   2.492   6.523   8.336  0.0304 -0.6022  0.7398
  216MOL0     H29117   2.358   6.491   8.232 -1.0265  1.6096 -0.5284
  216MOL0     H29118   2.302   6.554   8.472 -0.1815 -0.9982 -0.3314
  216MOL0     H29119   2.225   6.661   8.347  2.2982 -2.0072 -3.9454
  216MOL0     H29120   2.501   6.878   8.611  0.9178 -1.1592 -0.0858
  216MOL0     H29121   2.419   7.014   8.804 -1.5562  0.6798 -0.8832
  216MOL0     H29122   2.030   7.277   9.020  0.8987  0.2214  0.1370
  216MOL0     H29123   1.968   7.310   9.239  0.6111 -1.5138  1.4388
  216MOL0     H29124   1.733   6.975   9.451  1.4745 -1.9646  0.4304
  216MOL0     H29125   1.910   6.984   9.454  1.2156  0.4407  2.2126
  216MOL0     H29126   1.825   6.978   9.673  4.0359  0.2374 -0.8452
  216MOL0     H29127   1.916   7.125   9.648  1.4762 -1.4658 -1.1325
  216MOL0     H29128   1.688   7.260   9.603 -5.2383  1.0176  0.3467
  216MOL0     H29129   1.602   7.106   9.640  1.4001 -2.6131 -0.5068
  216MOL0     H29130   1.778   7.273   9.825 -1.1504  1.2727 -0.7354
  216MOL0     H29131   1.686   7.131   9.879 -3.9953  2.5667  3.7948
  216MOL0     H29132   1.563   7.386   9.760 -1.0190 -1.5971 -0.3115
  216MOL0     H29133   1.590   7.351   9.932 -1.5268 -1.5521  1.0430
  216MOL0     H29134   1.389   7.244   9.730  3.2277 -0.0699 -1.2741
  216MOL0     H29135   1.445   7.131   9.849  0.4892  0.6272  1.9205
  216MOL0     H29136   1.346   7.270  10.035 -2.5463  0.9416  0.8170
  216MOL0     H29137   1.227   7.214   9.917  0.3176  0.3762  0.3120
  216MOL0     H29138   1.204   7.428   9.810  0.5179 -0.7995 -0.7889
  216MOL0     H29139   1.179   7.426   9.991  0.8702  5.3499  1.6571
  216MOL0     H29140   1.781   6.918   9.234 -0.7575  0.3175  2.0086
  216MOL0     H29141   1.857   6.869   9.038 -0.2149 -1.3477  3.4035
  216MOL0     H29142   2.024   6.832   8.735 -0.1783  1.6691 -2.6581
  216MOL0     H29143   2.125   6.712   8.543  0.4117 -0.7001  0.2748
  216MOL0     H29144   3.232   6.332   7.784 -0.5093 -0.8172 -2.3541
  216MOL0     H29145   3.103   6.199   7.994 -4.2563  0.5558 -1.6543
  216MOL0     H29146   2.675   5.859   7.974 -0.5310  0.1061  0.5148
  216MOL0     H29147   2.523   5.914   8.167 -0.8205 -1.5315  2.4358
  216MOL0     H29148   2.432   6.047   8.353  1.3563 -0.5540 -1.9780
  216MOL0     H29149   2.449   6.030   8.526 -3.6229  3.8583 -2.4915
  216MOL0     H29150   2.438   5.783   8.339  0.3160  0.2041  0.3674
  216MOL0     H29151   2.293   5.841   8.407 -0.2860 -2.0830  1.5154
  216MOL0     H29152   2.554   5.764   8.580  0.2819  2.7582  1.0694
  216MOL0     H29153   2.446   5.643   8.520  1.6035 -0.1676 -0.0937
  216MOL0     H29154   2.405   5.719   8.751  0.1716  0.9365 -0.3900
  216MOL0     H29155   2.362   5.872   8.707 -2.9570  0.5320 -1.9008
  216MOL0     H29156   2.012   5.688   8.601  1.4581 -0.2384 -2.1948
  216MOL0     H29157   2.864   5.997   8.412  0.5972 -3.6796  0.9523
  216MOL0     H29158   3.129   5.902   8.194 -0.1533 -1.8382  0.2761
  216MOL0     H29159   3.089   6.060   8.260  0.1736  0.2611 -3.0152
  216MOL0     H29160   3.064   5.913   8.357  1.7210 -2.3473 -1.0347
  217MOL0     O29161   9.250   5.335   2.934 -0.4990  0.0084 -0.1497
  217MOL0     C29162   9.366   5.319   2.968  0.8378 -0.6079 -0.8908
  217MOL0     O29163   9.465   5.288   2.885 -1.1620  0.7345  0.3337
  217MOL0     C29164   9.427   5.330   2.753  0.4218  0.3828 -0.3107
  217MOL0     C29165   9.482   5.456   2.700  0.8792 -0.0950 -0.7460
  217MOL0     C29166   9.453   5.507   2.575 -0.1031 -0.1515  0.7899
  217MOL0     C29167   9.385   5.421   2.486  0.9221  0.2231 -0.2353
  217MOL0     O29168   9.353   5.457   2.355 -0.4130 -0.3579 -0.1151
  217MOL0     C29169   9.406   5.391   2.239  0.1594  0.4522 -0.0016
  217MOL0     C29170   9.374   5.244   2.220  0.1546  0.1826  0.1941
  217MOL0     C29171   9.419   5.193   2.081 -0.5307 -0.5803  0.1095
  217MOL0     C29172   9.575   5.166   2.065 -0.4131 -0.5167  0.1622
  217MOL0     C29173   9.611   5.126   1.925 -0.1489  0.5848  0.3517
  217MOL0     C29174   9.758   5.084   1.908 -0.7455 -0.2365  0.1078
  217MOL0     C29175   9.776   5.017   1.773 -0.0911  0.5254 -0.5896
  217MOL0     C29176   9.907   4.943   1.750 -0.2418 -0.1281 -0.6709
  217MOL0     N29177  10.018   5.038   1.730 -0.4121 -0.7193 -0.0047
  217MOL0     C29178  10.064   5.135   1.809 -1.0779 -0.6718  0.2584
  217MOL0     C29179  10.165   5.199   1.740 -0.0907  0.6051  0.2603
  217MOL0     C29180  10.232   5.322   1.783 -0.9114 -0.1323 -0.4576
  217MOL0     C29181  10.386   5.298   1.795  0.4376 -0.6257 -0.5705
  217MOL0     C29182  10.439   5.357   1.930  0.5063  0.2758  0.3183
  217MOL0     C29183  10.586   5.365   1.941 -0.3675 -0.3762  0.3491
  217MOL0     O29184  10.648   5.244   1.904 -0.0284 -0.2042 -0.2533
  217MOL0     C29185  10.662   5.147   1.999  0.8339  0.4728  0.8840
  217MOL0     C29186  10.723   5.024   1.963  0.1917  0.4059 -0.1849
  217MOL0     C29187  10.750   4.910   2.054 -0.6449  0.0356  0.5040
  217MOL0     C29188  10.720   4.921   2.189 -0.3876  0.7863  0.3074
  217MOL0     C29189  10.748   4.806   2.284  0.6007 -0.4338  0.3313
  217MOL0     O29190  10.798   4.692   2.225  0.2818 -0.0511 -1.3846
  217MOL0     C29191  10.834   4.593   2.317 -0.9228  1.0239 -0.3294
  217MOL0     C29192  10.757   4.482   2.326 -0.2350  0.6278  0.6440
  217MOL0     C29193  10.798   4.380   2.413 -0.1197 -0.2947  0.1596
  217MOL0     C29194  10.911   4.401   2.494 -0.6392  0.1592 -0.0479
  217MOL0     O29195  10.964   4.309   2.584 -0.3117  0.8644 -0.3525
  217MOL0     C29196  10.901   4.179   2.583  0.1212 -0.3059  0.2813
  217MOL0     C29197  10.940   4.126   2.719  0.5882  0.1798  0.0338
  217MOL0     C29198  10.853   4.203   2.831  0.3718 -0.0574  1.0947
  217MOL0     C29199  10.932   4.242   2.949  0.0399  0.2294  0.0095
  217MOL0     C29200  10.846   4.306   3.059  0.6525  0.0518  0.2311
  217MOL0     C29201  10.759   4.425   3.000 -0.7875 -1.4183  0.5380
  217MOL0     C29202  10.723   4.527   3.107  0.4480 -1.1914 -0.2118
  217MOL0     C29203  10.838   4.620   3.156  0.2765  1.2792 -0.4160
  217MOL0    Cl29204  10.914   4.572   3.310 -0.0342  0.1770  0.1512
  217MOL0     C29205  11.001   4.514   2.478  0.4074  0.8182 -0.3572
  217MOL0     C29206  10.959   4.604   2.380  0.0416 -0.9096 -0.5823
  217MOL0     O29207  10.726   4.830   2.404  0.4862  0.1020 -0.0159
  217MOL0     C29208  10.660   5.044   2.235 -0.3185 -0.1976  0.4819
  217MOL0     C29209  10.633   5.153   2.141 -0.3207  0.4249 -0.5354
  217MOL0     N29210  10.180   5.135   1.613 -0.4363  0.3641 -0.7430
  217MOL0     N29211  10.097   5.040   1.617  0.2482 -1.0418  0.2752
  217MOL0     C29212   9.337   5.301   2.534  0.5986  0.2854  0.8545
  217MOL0     C29213   9.364   5.253   2.666  0.0024  0.3080  0.2715
  217MOL0     C29214   9.389   5.321   3.111  0.3327 -0.3824 -0.1739
  217MOL0     C29215   9.502   5.252   3.162 -0.1001 -0.9181  0.2261
  217MOL0     C29216   9.526   5.235   3.303  0.3758  0.2243  0.1674
  217MOL0     C29217   9.430   5.293   3.384 -0.0013  0.1681  0.2457
  217MOL0     O29218   9.433   5.269   3.517 -0.5137 -0.1226 -0.7498
  217MOL0     C29219   9.547   5.205   3.576  0.2576  0.2356 -0.0938
  217MOL0     C29220   9.509   5.204   3.726  0.6518  0.2994  0.5231
  217MOL0     C29221   9.610   5.154   3.827  0.5155 -0.4204  0.8006
  217MOL0     C29222   9.540   5.150   3.957  0.3410 -0.1088  0.0244
  217MOL0     C29223   9.645   5.124   4.063 -0.0659  0.0186 -0.0874
  217MOL0     C29224   9.754   5.119   4.123  0.6766 -0.1893 -0.1436
  217MOL0     C29225   9.328   5.369   3.331 -0.1262  0.2966 -0.9406
  217MOL0     C29226   9.301   5.385   3.200 -0.2408  0.2970  0.1820
  217MOL0     C29227   9.196   5.481   3.159 -0.0324 -0.5921 -0.5870
  217MOL0     H29228   9.548   5.517   2.760  0.3488  0.9392 -1.1824
  217MOL0     H29229   9.498   5.603   2.553 -1.3761  0.1695 -0.5368
  217MOL0     H29230   9.372   5.446   2.151 -2.1878  0.5715  0.9097
  217MOL0     H29231   9.514   5.409   2.245  0.8482 -2.7634 -0.8067
  217MOL0     H29232   9.265   5.236   2.223 -0.2492  3.4358 -1.2275
  217MOL0     H29233   9.430   5.176   2.286 -0.4418 -1.2430 -0.7163
  217MOL0     H29234   9.402   5.276   2.012  0.6143 -0.2705  0.1784
  217MOL0     H29235   9.370   5.102   2.046 -1.8311 -0.5135  1.6291
  217MOL0     H29236   9.634   5.253   2.091  0.2073 -0.9589  0.2573
  217MOL0     H29237   9.597   5.081   2.131  1.5856 -0.5804 -0.5156
  217MOL0     H29238   9.532   5.060   1.887  0.6821 -0.3948  0.2983
  217MOL0     H29239   9.607   5.207   1.851 -0.4737 -0.7705 -1.1711
  217MOL0     H29240   9.820   5.174   1.910  1.9100 -1.7876 -3.1799
  217MOL0     H29241   9.784   5.012   1.986  1.3666  0.7127  0.3523
  217MOL0     H29242   9.766   5.101   1.704  2.8394  4.6752  3.4161
  217MOL0     H29243   9.701   4.937   1.776  1.1793 -0.7055 -0.4813
  217MOL0     H29244   9.933   4.885   1.839  2.6823  1.2006 -0.5180
  217MOL0     H29245   9.889   4.885   1.660  0.2565  2.2590 -2.4159
  217MOL0     H29246  10.022   5.170   1.902  1.1951  0.8171  0.8160
  217MOL0     H29247  10.204   5.393   1.704 -0.5701 -0.9144 -1.3069
  217MOL0     H29248  10.188   5.336   1.882 -0.3991 -1.5485 -0.0065
  217MOL0     H29249  10.414   5.192   1.788  1.3306 -0.5425  1.1552
  217MOL0     H29250  10.431   5.354   1.713  0.8282 -3.8033 -2.7052
  217MOL0     H29251  10.414   5.285   2.009  2.9325 -1.8118 -0.6805
  217MOL0     H29252  10.394   5.455   1.948 -0.7581 -0.0132 -1.1365
  217MOL0     H29253  10.606   5.412   2.038 -0.7026 -1.6481  1.0482
  217MOL0     H29254  10.626   5.438   1.870  0.8873 -0.2555  1.1586
  217MOL0     H29255  10.760   5.016   1.861 -0.3183 -0.8309 -0.2910
  217MOL0     H29256  10.788   4.818   2.010 -0.5683  1.0078 -1.5640
  217MOL0     H29257  10.668   4.481   2.264 -0.2671  1.4124  0.6754
  217MOL0     H29258  10.744   4.287   2.401 -1.1743  0.4267 -0.9602
  217MOL0     H29259  10.793   4.172   2.568 -0.0006  1.1718  0.2983
  217MOL0     H29260  10.943   4.114   2.506  1.3004 -2.8692  2.8867
  217MOL0     H29261  10.929   4.017   2.728 -0.5882  0.2318 -0.4966
  217MOL0     H29262  11.048   4.140   2.730  0.6665 -1.3725  1.7744
  217MOL0     H29263  10.816   4.297   2.789  0.9934 -0.5028 -0.5080
  217MOL0     H29264  10.769   4.134   2.841  0.3137 -0.2367 -0.4852
  217MOL0     H29265  11.007   4.315   2.917 -0.2548  0.7183  0.4261
  217MOL0     H29266  10.987   4.152   2.979  2.3215  1.4152 -0.3523
  217MOL0     H29267  10.900   4.336   3.150 -0.2499  2.5692  0.0359
  217MOL0     H29268  10.774   4.233   3.096 -2.5515  2.6038 -0.4377
  217MOL0     H29269  10.829   4.468   2.926  0.0901 -1.1200  1.5192
  217MOL0     H29270  10.667   4.390   2.952  0.1979 -2.4276 -0.6900
  217MOL0     H29271  10.666   4.480   3.187  0.2353 -0.5067  0.0403
  217MOL0     H29272  10.653   4.598   3.062  1.2421 -1.7458 -2.4899
  217MOL0     H29273  10.908   4.645   3.076  0.1891 -0.9007 -1.2603
  217MOL0     H29274  10.785   4.711   3.187 -2.1215  0.2120 -1.0965
  217MOL0     H29275  11.093   4.530   2.533 -0.8085 -1.4594  2.6479
  217MOL0     H29276  11.026   4.689   2.375 -2.2736  1.1258  0.9615
  217MOL0     H29277  10.645   5.062   2.341 -0.2432 -1.1321  0.6579
  217MOL0     H29278  10.601   5.247   2.184  2.5453 -0.4267  4.1188
  217MOL0     H29279   9.287   5.233   2.466  0.7971 -0.5939  1.5665
  217MOL0     H29280   9.325   5.153   2.679  0.7332 -0.3537 -2.0932
  217MOL0     H29281   9.571   5.202   3.095 -1.6478 -0.4523 -1.8009
  217MOL0     H29282   9.606   5.176   3.347 -1.6753 -1.1601  2.2940
  217MOL0     H29283   9.634   5.269   3.559  0.7599 -0.4095  0.0270
  217MOL0     H29284   9.567   5.105   3.536 -3.5486 -0.1269 -1.5181
  217MOL0     H29285   9.416   5.146   3.728  0.1609  0.9379 -1.4019
  217MOL0     H29286   9.474   5.302   3.760  0.8536  0.5118  0.1226
  217MOL0     H29287   9.700   5.215   3.829  0.8003 -0.8492  1.0598
  217MOL0     H29288   9.654   5.057   3.804 -0.6572 -1.0280  1.0420
  217MOL0     H29289   9.477   5.237   3.977  0.9240  0.4588 -0.5578
  217MOL0     H29290   9.475   5.062   3.962  0.6158 -0.3019  4.0512
  217MOL0     H29291   9.841   5.133   4.184  0.1577  3.3374 -0.0076
  217MOL0     H29292   9.255   5.410   3.400  0.9784 -1.4947  1.4627
  217MOL0     H29293   9.116   5.437   3.099  0.0198 -1.4722 -0.0269
  217MOL0     H29294   9.139   5.521   3.243  2.1586  0.3286  0.5463
  217MOL0     H29295   9.236   5.572   3.113 -1.9344 -0.1524 -1.4553
  218MOL0     O29296   5.056   6.923   4.293 -0.1263 -1.0749  0.1178
  218MOL0     C29297   5.140   6.851   4.355  0.4491 -0.0784 -0.5060
  218MOL0     O29298   5.265   6.816   4.310 -0.0910 -0.5914 -0.2202
  218MOL0     C29299   5.299   6.871   4.188 -0.7667 -0.1581 -0.4447
  218MOL0     C29300   5.291   6.788   4.076  0.3684 -0.6790  0.4679
  218MOL0     C29301   5.326   6.844   3.945 -1.3047  0.8594 -0.4381
  218MOL0     C29302   5.368   6.981   3.935 -0.4485  0.4084 -0.7994
  218MOL0     O29303   5.407   7.043   3.815 -0.3865  0.1953  1.3673
  218MOL0     C29304   5.343   6.995   3.693  0.9702 -0.4791  1.0148
  218MOL0     C29305   5.338   7.106   3.590 -0.2687 -0.9981  1.0475
  218MOL0     C29306   5.263   7.068   3.458 -0.3590  0.2451 -1.3279
  218MOL0     C29307   5.350   6.987   3.363 -0.1894  0.7293  0.0220
  218MOL0     C29308   5.259   6.916   3.259 -0.5463  1.2560 -0.0487
  218MOL0     C29309   5.344   6.843   3.146  0.8607 -0.4024 -0.2865
  218MOL0     C29310   5.398   6.932   3.033  0.8374 -0.4213  0.1896
  218MOL0     C29311   5.463   6.846   2.930 -0.6779 -0.3589 -0.9105
  218MOL0     N29312   5.579   6.791   2.992  0.5272  0.0039 -0.4962
  218MOL0     C29313   5.682   6.853   3.072 -0.3907  0.4409 -0.1971
  218MOL0     C29314   5.773   6.754   3.082  0.0379  0.4519 -0.1755
  218MOL0     C29315   5.909   6.767   3.148  0.2721  0.8720  0.2230
  218MOL0     C29316   5.982   6.888   3.103 -0.2946  1.5762 -0.8988
  218MOL0     C29317   6.078   6.927   3.220  0.3250  0.4358  0.4455
  218MOL0     C29318   6.155   7.053   3.190  0.3161  0.0668 -0.6720
  218MOL0     O29319   6.281   7.070   3.259 -0.3251 -0.9721  0.1025
  218MOL0     C29320   6.290   7.151   3.369  0.4974  1.0893 -0.5602
  218MOL0     C29321   6.186   7.211   3.444  0.2705  0.3613  0.3503
  218MOL0     C29322   6.216   7.287   3.550 -0.5478  0.5586 -0.3998
  218MOL0     C29323   6.348   7.319   3.588  0.6230 -0.7990  0.5553
  218MOL0     C29324   6.369   7.432   3.685  0.6267 -0.3195  0.8369
  218MOL0     O29325   6.254   7.486   3.737  0.1306  0.2498 -0.5577
  218MOL0     C29326   6.256   7.572   3.840 -0.8388  0.2713 -0.9918
  218MOL0     C29327   6.369   7.648   3.897 -0.3073 -0.2205  0.2386
  218MOL0     C29328   6.341   7.741   3.998  0.7835  0.0561  0.3744
  218MOL0     C29329   6.212   7.759   4.045  1.0421 -0.9855 -0.5474
  218MOL0     O29330   6.173   7.839   4.153 -0.0840 -0.9731  0.6945
  218MOL0     C29331   6.284   7.891   4.233  0.1176 -0.3035 -0.3368
  218MOL0     C29332   6.214   7.970   4.339 -0.3727  0.5240  0.1175
  218MOL0     C29333   6.315   8.033   4.439  0.2536  0.8668  0.2779
  218MOL0     C29334   6.240   8.112   4.547 -0.2040  0.7203 -0.2555
  218MOL0     C29335   6.196   8.027   4.666  0.0775  0.6492  0.0710
  218MOL0     C29336   6.056   7.961   4.646 -0.4036  0.5515 -0.1899
  218MOL0     C29337   6.005   7.898   4.782  0.3215 -0.0889 -0.5638
  218MOL0     C29338   5.869   7.829   4.766 -0.1550  0.2810 -0.3291
  218MOL0    Cl29339   5.737   7.942   4.700  0.0791 -0.1969  0.0862
  218MOL0     C29340   6.103   7.688   3.990 -0.1715  0.4660  0.6598
  218MOL0     C29341   6.127   7.594   3.893  0.3722 -1.2072  0.2677
  218MOL0     O29342   6.484   7.455   3.716  1.1920 -0.4859 -0.1629
  218MOL0     C29343   6.450   7.270   3.506 -0.3395 -0.3793 -0.1005
  218MOL0     C29344   6.424   7.187   3.403 -0.1283  0.1004  0.2600
  218MOL0     N29345   5.729   6.642   3.013  0.0923 -0.2630  0.4273
  218MOL0     N29346   5.610   6.669   2.958 -0.4276 -0.0210 -0.0613
  218MOL0     C29347   5.397   7.049   4.049 -0.6573 -0.4513 -1.2047
  218MOL0     C29348   5.366   7.002   4.178  1.4837  0.2014  0.3782
  218MOL0     C29349   5.096   6.811   4.486  0.2381  0.1438 -0.4949
  218MOL0     C29350   5.201   6.755   4.569 -0.0444  0.3662 -0.9608
  218MOL0     C29351   5.172   6.721   4.702  0.6343  0.4700  0.1366
  218MOL0     C29352   5.046   6.742   4.759  0.4199  0.4631 -0.3821
  218MOL0     O29353   5.012   6.719   4.890  0.4005 -0.1704 -0.2140
  218MOL0     C29354   5.017   6.585   4.937 -0.2839 -0.3586 -0.2756
  218MOL0     C29355   4.895   6.505   4.901 -0.3771 -0.5573 -0.7035
  218MOL0     C29356   4.908   6.368   4.973 -0.3035 -0.0100 -0.5433
  218MOL0     C29357   4.769   6.317   5.005  0.5227  0.0933 -0.9951
  218MOL0     C29358   4.714   6.257   4.881 -0.3596  0.9539  0.0579
  218MOL0     C29359   4.683   6.205   4.772 -0.6810  0.4439  0.9492
  218MOL0     C29360   4.947   6.796   4.677 -0.5017 -0.7081  0.9296
  218MOL0     C29361   4.971   6.829   4.543  0.0693  0.0549 -1.0906
  218MOL0     C29362   4.846   6.884   4.477  0.4000  0.2047 -0.6078
  218MOL0     H29363   5.251   6.688   4.086  0.0375 -0.3868  2.5870
  218MOL0     H29364   5.312   6.786   3.854 -1.6766 -0.7256  0.5954
  218MOL0     H29365   5.396   6.907   3.657 -0.5768 -0.4333 -1.5676
  218MOL0     H29366   5.240   6.963   3.713  0.4233  1.3210  1.2759
  218MOL0     H29367   5.433   7.151   3.558 -1.5965  0.6197 -0.9078
  218MOL0     H29368   5.279   7.187   3.633  0.0752  0.5531 -1.2034
  218MOL0     H29369   5.241   7.165   3.412  0.1798  1.3463  0.6191
  218MOL0     H29370   5.170   7.017   3.481  1.2341 -2.6207 -0.8335
  218MOL0     H29371   5.422   7.047   3.306  0.3857 -0.0885 -0.1331
  218MOL0     H29372   5.400   6.902   3.411  1.6293  1.0874 -1.1414
  218MOL0     H29373   5.186   6.853   3.311 -0.7709  1.9897  0.5347
  218MOL0     H29374   5.190   6.985   3.210  0.5554  1.4601 -1.3841
  218MOL0     H29375   5.431   6.794   3.190  1.5301  1.2535  0.3342
  218MOL0     H29376   5.272   6.771   3.108 -1.4399  2.4045 -1.6727
  218MOL0     H29377   5.463   7.007   3.080 -0.1207 -1.2187  2.9467
  218MOL0     H29378   5.321   6.994   2.986  0.5471  0.2820  1.5508
  218MOL0     H29379   5.400   6.769   2.884 -0.6486  0.1065 -1.7494
  218MOL0     H29380   5.502   6.905   2.846  0.5353 -0.1490 -0.2287
  218MOL0     H29381   5.670   6.949   3.120  1.9866  0.8901 -0.4005
  218MOL0     H29382   5.888   6.772   3.256  3.3267 -1.4850  1.0811
  218MOL0     H29383   5.961   6.676   3.116 -3.4216 -0.8660 -1.4133
  218MOL0     H29384   6.038   6.867   3.012 -1.7978 -0.9877 -1.3382
  218MOL0     H29385   5.914   6.972   3.081 -1.8435  1.1880  1.9441
  218MOL0     H29386   6.146   6.842   3.233 -1.3291 -1.5900 -2.8066
  218MOL0     H29387   6.036   6.948   3.320 -0.9138  1.4302 -0.2461
  218MOL0     H29388   6.085   7.135   3.204 -0.3108 -0.8027  1.7215
  218MOL0     H29389   6.181   7.043   3.084  1.5599  4.5688 -0.9955
  218MOL0     H29390   6.082   7.201   3.414  0.3079  2.9769 -0.9335
  218MOL0     H29391   6.140   7.354   3.589  0.7964  2.0563 -0.2248
  218MOL0     H29392   6.471   7.627   3.866 -0.3841  0.2915 -0.3645
  218MOL0     H29393   6.436   7.780   4.034  0.0150  1.2193  1.2213
  218MOL0     H29394   6.346   7.806   4.264 -1.2923 -1.3691 -0.3796
  218MOL0     H29395   6.341   7.961   4.170 -4.0684  1.9973 -1.9628
  218MOL0     H29396   6.161   8.054   4.295 -2.6830  1.2045  3.7335
  218MOL0     H29397   6.129   7.919   4.385 -1.1459  0.5376 -1.2517
  218MOL0     H29398   6.376   7.955   4.486  0.3669  0.3508 -0.7048
  218MOL0     H29399   6.373   8.106   4.382 -1.0085  2.7540  1.2822
  218MOL0     H29400   6.151   8.158   4.502 -1.1676 -0.9128 -0.0857
  218MOL0     H29401   6.317   8.184   4.575 -0.6615  1.6276 -1.2447
  218MOL0     H29402   6.196   8.080   4.761  0.7533 -0.0338  0.4687
  218MOL0     H29403   6.272   7.950   4.684 -1.5831 -0.4288  3.2381
  218MOL0     H29404   5.988   8.034   4.601 -3.3404 -1.7922  0.1163
  218MOL0     H29405   6.071   7.883   4.571  1.2496  1.3833 -0.7703
  218MOL0     H29406   6.005   7.970   4.864 -2.3721 -0.9188  0.2445
  218MOL0     H29407   6.077   7.821   4.814  2.0813  2.3967  1.9449
  218MOL0     H29408   5.872   7.733   4.714  0.3069 -2.1450  3.7729
  218MOL0     H29409   5.826   7.801   4.862 -0.7335 -0.4506 -0.7976
  218MOL0     H29410   6.000   7.716   4.012 -0.9862  1.2537 -3.3426
  218MOL0     H29411   6.036   7.555   3.847  1.5388 -0.0304 -3.3808
  218MOL0     H29412   6.551   7.304   3.523 -0.5005  1.2803 -2.1047
  218MOL0     H29413   6.504   7.152   3.338  2.4115  0.2126  3.0948
  218MOL0     H29414   5.430   7.152   4.036 -1.7762 -0.0739 -1.2495
  218MOL0     H29415   5.375   7.050   4.275 -0.5498 -1.2191  1.3432
  218MOL0     H29416   5.304   6.742   4.537  0.1362  1.1367 -0.7116
  218MOL0     H29417   5.243   6.673   4.769 -3.0002 -3.0796  1.8765
  218MOL0     H29418   5.024   6.585   5.046 -3.1829 -0.6950 -0.0155
  218MOL0     H29419   5.106   6.531   4.903 -1.4534 -1.8064 -1.1450
  218MOL0     H29420   4.883   6.496   4.793  1.1993  0.0761 -0.9639
  218MOL0     H29421   4.807   6.564   4.931 -0.1220 -0.3317 -0.3835
  218MOL0     H29422   4.972   6.380   5.062  1.0081  1.6606 -1.6390
  218MOL0     H29423   4.959   6.289   4.917  3.6521  0.0206  2.5396
  218MOL0     H29424   4.776   6.239   5.081 -0.5454  0.9775  0.0576
  218MOL0     H29425   4.696   6.389   5.044  1.5771  0.9795 -0.6198
  218MOL0     H29426   4.684   6.137   4.689 -3.7983 -0.8206  1.7935
  218MOL0     H29427   4.853   6.808   4.729 -1.5483 -2.9042 -0.3258
  218MOL0     H29428   4.817   6.801   4.411 -1.8313 -0.8806  1.5807
  218MOL0     H29429   4.770   6.893   4.554  2.0468  0.4627  1.0539
  218MOL0     H29430   4.867   6.978   4.426 -0.6274  0.3052 -0.8591
  219MOL0     O29431   5.850  11.188   3.296 -0.5296 -0.0494 -0.0635
  219MOL0     C29432   5.791  11.243   3.201 -0.9172 -0.2019 -0.6507
  219MOL0     O29433   5.828  11.363   3.139  0.2421  0.1071  0.3361
  219MOL0     C29434   5.955  11.414   3.170 -0.0841 -0.6753  0.2780
  219MOL0     C29435   5.958  11.551   3.204  0.0016  0.9762 -0.3927
  219MOL0     C29436   6.080  11.604   3.248  0.7839  0.2766 -0.4269
  219MOL0     C29437   6.189  11.533   3.269 -0.4417 -0.3759 -0.2637
  219MOL0     O29438   6.298  11.591   3.332  0.1201 -0.4784 -0.6665
  219MOL0     C29439   6.425  11.545   3.283 -0.0078 -0.2398  0.2233
  219MOL0     C29440   6.515  11.682   3.292  0.3986  0.0388  0.2795
  219MOL0     C29441   6.473  11.793   3.196  0.6150  0.4160 -0.0863
  219MOL0     C29442   6.556  11.921   3.198 -0.8787 -0.1590  0.2248
  219MOL0     C29443   6.503  12.035   3.115  0.8914  0.5854  0.5432
  219MOL0     C29444   6.368  12.086   3.163 -0.1008  0.0449  0.3316
  219MOL0     C29445   6.326  12.206   3.076 -1.0337  0.5345  0.2429
  219MOL0     C29446   6.198  12.277   3.129 -0.4978  0.5183  0.1224
  219MOL0     N29447   6.115  12.354   3.042  0.3844 -0.1331 -0.1955
  219MOL0     C29448   6.119  12.482   3.012 -0.3581  0.3090 -0.6376
  219MOL0     C29449   6.003  12.502   2.945  0.5985  0.4708 -0.5180
  219MOL0     C29450   5.974  12.645   2.885 -0.0162  0.0397  1.1922
  219MOL0     C29451   5.911  12.734   2.988  0.3104  0.4337  1.4857
  219MOL0     C29452   5.885  12.880   2.938  0.1822 -1.5253 -1.0541
  219MOL0     C29453   6.008  12.961   2.913  0.6268  0.3758 -0.4776
  219MOL0     O29454   5.947  13.091   2.910  0.3696 -0.3256 -0.1424
  219MOL0     C29455   6.010  13.203   2.958  0.1343  0.8607  0.3014
  219MOL0     C29456   5.949  13.322   2.923  0.0809  0.4205  0.2470
  219MOL0     C29457   6.000  13.445   2.960  0.5225  0.2490 -0.2362
  219MOL0     C29458   6.108  13.448   3.055 -0.3281  0.6425  0.6372
  219MOL0     C29459   6.158  13.571   3.120  0.7047 -0.3731  0.5182
  219MOL0     O29460   6.079  13.685   3.113 -0.8717  0.1341 -0.2103
  219MOL0     C29461   6.135  13.808   3.114  0.3138 -0.7445 -0.4012
  219MOL0     C29462   6.217  13.857   3.215  0.0361 -0.2744  1.3432
  219MOL0     C29463   6.255  13.984   3.221 -0.5920 -0.1924 -0.4563
  219MOL0     C29464   6.205  14.072   3.132  0.2263 -0.8144  0.2152
  219MOL0     O29465   6.242  14.205   3.131 -0.9595 -0.5221 -0.2079
  219MOL0     C29466   6.288  14.266   3.249 -0.6762  0.6467  0.4087
  219MOL0     C29467   6.289  14.416   3.229 -0.7125 -0.1813 -0.4827
  219MOL0     C29468   6.163  14.479   3.170 -0.5100  0.2023  0.0536
  219MOL0     C29469   6.203  14.572   3.053 -0.4651 -0.8035 -0.8343
  219MOL0     C29470   6.090  14.676   3.016  0.4173 -0.2241 -0.5782
  219MOL0     C29471   6.062  14.782   3.119 -0.1747  0.0137 -0.0586
  219MOL0     C29472   5.955  14.876   3.074  0.1695  0.9721  0.2268
  219MOL0     C29473   5.968  15.009   3.129  0.0777 -0.6507  0.6796
  219MOL0    Cl29474   5.852  15.110   3.038  0.5071 -0.1395 -0.0821
  219MOL0     C29475   6.127  14.033   3.020 -0.2112  0.0687  0.4195
  219MOL0     C29476   6.092  13.898   3.017  0.6026  0.7659 -0.1738
  219MOL0     O29477   6.270  13.565   3.169  0.1444 -0.8299 -0.2904
  219MOL0     C29478   6.160  13.330   3.094  0.1860 -0.3677 -0.5729
  219MOL0     C29479   6.125  13.208   3.044 -0.0750  0.0767  1.0928
  219MOL0     N29480   5.936  12.383   2.916 -0.3055  0.2037 -0.2550
  219MOL0     N29481   6.012  12.292   2.974  0.2552  0.2388  0.1004
  219MOL0     C29482   6.195  11.400   3.222  0.1944  0.1207  0.0685
  219MOL0     C29483   6.078  11.340   3.167 -0.2686  0.9373  0.3455
  219MOL0     C29484   5.678  11.181   3.167  0.4100  0.7280  0.5294
  219MOL0     C29485   5.569  11.205   3.243 -0.7270 -0.8745  1.7209
  219MOL0     C29486   5.458  11.144   3.218  0.3306  0.1923 -1.2068
  219MOL0     C29487   5.438  11.043   3.119  0.1422  0.0545 -0.7611
  219MOL0     O29488   5.315  10.984   3.110  0.3670 -0.1584  0.3548
  219MOL0     C29489   5.297  10.863   3.043  0.0909  0.4086 -0.5903
  219MOL0     C29490   5.162  10.801   3.072 -0.3966  0.0475 -0.0161
  219MOL0     C29491   5.042  10.897   3.073  0.0411 -0.9225 -0.3269
  219MOL0     C29492   4.918  10.813   3.085 -0.1091 -0.3568 -0.6969
  219MOL0     C29493   4.894  10.722   2.973 -0.3702 -0.5767 -0.4507
  219MOL0     C29494   4.871  10.634   2.898  0.2518  0.0510  0.3026
  219MOL0     C29495   5.549  11.021   3.041  0.2241 -0.4085 -0.1094
  219MOL0     C29496   5.671  11.090   3.062 -0.4603  0.5508 -0.1089
  219MOL0     C29497   5.796  11.061   2.978 -0.1383  0.5022 -0.2288
  219MOL0     H29498   5.867  11.610   3.205 -2.2685 -2.0155 -3.4898
  219MOL0     H29499   6.072  11.704   3.288  4.8219  1.5087 -2.2023
  219MOL0     H29500   6.454  11.459   3.343  3.1109 -0.3767 -1.2926
  219MOL0     H29501   6.428  11.515   3.178 -1.3595  1.5170 -0.3718
  219MOL0     H29502   6.621  11.665   3.271  0.5798  2.2175 -0.7833
  219MOL0     H29503   6.513  11.713   3.397 -0.0889  1.9465 -0.2615
  219MOL0     H29504   6.366  11.810   3.213  1.2190  2.1709  2.7712
  219MOL0     H29505   6.485  11.758   3.093  1.2980  0.9759 -0.2015
  219MOL0     H29506   6.568  11.964   3.298  2.0227  1.3875 -0.6759
  219MOL0     H29507   6.656  11.901   3.159 -0.0836  1.4369  1.3593
  219MOL0     H29508   6.579  12.110   3.136 -0.6885  1.5785  3.1378
  219MOL0     H29509   6.492  11.989   3.016 -0.4889 -0.1625  1.0090
  219MOL0     H29510   6.291  12.008   3.152 -1.0942  1.0285  0.0798
  219MOL0     H29511   6.383  12.122   3.266  2.9136  0.9784 -0.3507
  219MOL0     H29512   6.300  12.173   2.975  0.3691 -0.6126  0.2264
  219MOL0     H29513   6.407  12.281   3.081 -0.5444  0.1655 -1.4925
  219MOL0     H29514   6.133  12.200   3.171 -0.6023  1.1937  1.2536
  219MOL0     H29515   6.229  12.345   3.209  0.9306  0.2816 -0.1986
  219MOL0     H29516   6.194  12.552   3.049 -0.6390  0.1746  0.2228
  219MOL0     H29517   6.059  12.699   2.842 -1.7450  0.3640 -2.2131
  219MOL0     H29518   5.903  12.639   2.801 -0.9699  2.9099  1.6785
  219MOL0     H29519   5.817  12.685   3.014  0.9871 -0.9877  1.3464
  219MOL0     H29520   5.958  12.726   3.087  1.0238 -2.1450  0.9997
  219MOL0     H29521   5.837  12.923   3.027  2.2074  1.9542 -1.4778
  219MOL0     H29522   5.820  12.879   2.849 -0.3147  2.2489 -0.8761
  219MOL0     H29523   6.063  12.929   2.824  1.3959 -0.5262  0.3109
  219MOL0     H29524   6.073  12.954   3.000  0.5291  4.3147  0.1043
  219MOL0     H29525   5.864  13.319   2.856  0.4530 -0.5634 -0.2054
  219MOL0     H29526   5.977  13.546   2.926  0.9322  0.4940  0.1923
  219MOL0     H29527   6.279  13.795   3.279 -2.9855 -3.4994  1.5140
  219MOL0     H29528   6.318  14.013   3.304 -1.0314 -2.4853  0.7397
  219MOL0     H29529   6.218  14.247   3.330 -1.7631  0.2715 -0.5824
  219MOL0     H29530   6.384  14.229   3.288 -3.0521 -5.0001  1.9374
  219MOL0     H29531   6.328  14.463   3.320  0.7503  1.5719 -1.9348
  219MOL0     H29532   6.365  14.431   3.152 -0.1490 -0.7708 -0.0493
  219MOL0     H29533   6.092  14.407   3.129 -0.7297 -0.3270  1.2912
  219MOL0     H29534   6.113  14.537   3.249  0.1431  3.6849 -1.8794
  219MOL0     H29535   6.222  14.512   2.964 -0.7037  1.6900 -2.6685
  219MOL0     H29536   6.285  14.643   3.069 -1.3136  0.3461 -1.4270
  219MOL0     H29537   5.998  14.617   3.012  0.3347 -0.0505 -1.7521
  219MOL0     H29538   6.118  14.732   2.926  5.1008  2.7650  2.3028
  219MOL0     H29539   6.035  14.750   3.220 -1.2735 -1.2025 -0.7113
  219MOL0     H29540   6.151  14.843   3.134  1.2254 -1.7035 -1.0295
  219MOL0     H29541   5.856  14.841   3.106  0.5965  1.4558  2.2348
  219MOL0     H29542   5.951  14.880   2.965 -1.1958 -3.0324 -0.0410
  219MOL0     H29543   5.951  15.003   3.237 -2.3964 -0.9250  0.3522
  219MOL0     H29544   6.064  15.048   3.094 -0.2747 -0.2726  0.1166
  219MOL0     H29545   6.100  14.105   2.943 -0.2867 -1.3581 -0.9266
  219MOL0     H29546   6.021  13.875   2.938 -1.2763  3.2235  0.6762
  219MOL0     H29547   6.244  13.330   3.162 -0.8069  1.5774  0.7444
  219MOL0     H29548   6.177  13.115   3.064 -0.1156  0.0750  1.1956
  219MOL0     H29549   6.284  11.339   3.214  2.0473  2.4825  1.3377
  219MOL0     H29550   6.079  11.237   3.133  0.3835 -0.3548  3.8761
  219MOL0     H29551   5.558  11.276   3.324 -0.9205  1.3911 -0.1959
  219MOL0     H29552   5.366  11.166   3.272  0.4624  3.3231 -2.0417
  219MOL0     H29553   5.374  10.790   3.069  0.6768  1.2686  0.1505
  219MOL0     H29554   5.311  10.885   2.936 -0.4680 -1.9802 -1.2261
  219MOL0     H29555   5.163  10.737   3.161  1.4965 -1.6135 -1.1442
  219MOL0     H29556   5.152  10.719   2.999  1.5138  1.0747 -1.5131
  219MOL0     H29557   5.047  10.954   2.980  3.5330 -1.1769 -0.4116
  219MOL0     H29558   5.058  10.975   3.147 -3.4463 -1.1180  0.8416
  219MOL0     H29559   4.930  10.751   3.174  4.6066 -0.0264 -0.8455
  219MOL0     H29560   4.829  10.876   3.090  0.5336  0.5056  0.2993
  219MOL0     H29561   4.835  10.564   2.826 -1.4603  1.4641 -0.3056
  219MOL0     H29562   5.533  10.948   2.962 -0.8124 -1.3410  0.9297
  219MOL0     H29563   5.883  11.060   3.044 -1.3459 -2.3642  1.5122
  219MOL0     H29564   5.787  10.956   2.947 -0.6637  0.8426 -1.2738
  219MOL0     H29565   5.811  11.116   2.884  1.2604  0.3773 -0.1053
  220MOL0     O29566   9.207   6.415   4.713 -0.0514 -0.6248 -0.0270
  220MOL0     C29567   9.199   6.538   4.696  0.2977  0.2795 -0.1756
  220MOL0     O29568   9.160   6.592   4.573 -0.4247  0.0190 -0.2950
  220MOL0     C29569   9.110   6.513   4.481 -0.5531 -0.4296  0.1683
  220MOL0     C29570   9.193   6.501   4.365 -0.0347  0.4481 -0.4522
  220MOL0     C29571   9.145   6.433   4.250  0.6615  0.8912  0.9689
  220MOL0     C29572   9.012   6.383   4.254  0.6501  0.2803 -0.4735
  220MOL0     O29573   8.953   6.314   4.150 -0.6065 -0.0534 -0.4523
  220MOL0     C29574   8.993   6.344   4.010 -0.4025 -0.7273 -0.8340
  220MOL0     C29575   8.870   6.301   3.922  0.3994  0.5429 -0.3668
  220MOL0     C29576   8.826   6.146   3.923  0.4313  0.0393 -0.2555
  220MOL0     C29577   8.716   6.114   3.822 -0.9301 -0.2317  0.4567
  220MOL0     C29578   8.700   5.957   3.804 -0.0642 -0.3888 -0.3662
  220MOL0     C29579   8.552   5.921   3.780  0.0187 -0.2530  0.5938
  220MOL0     C29580   8.531   5.772   3.761 -0.2632  0.2566  0.8791
  220MOL0     C29581   8.564   5.736   3.608 -0.0014  0.3194 -0.1906
  220MOL0     N29582   8.535   5.591   3.588  0.1230 -0.4475 -0.6871
  220MOL0     C29583   8.435   5.536   3.517 -0.9551  0.1691 -0.0409
  220MOL0     C29584   8.440   5.400   3.529 -0.2139  0.5329 -0.7374
  220MOL0     C29585   8.346   5.300   3.492  0.4130 -0.3573 -0.6025
  220MOL0     C29586   8.370   5.251   3.344  0.2269 -0.6422 -0.3087
  220MOL0     C29587   8.276   5.140   3.307  0.3863  0.0562  0.2805
  220MOL0     C29588   8.301   5.081   3.170 -0.3686 -0.6712  0.1810
  220MOL0     O29589   8.221   4.972   3.135  0.1441  0.0300  0.1545
  220MOL0     C29590   8.236   4.924   3.004 -0.1090  0.0551 -0.5721
  220MOL0     C29591   8.310   4.982   2.905 -0.3872 -0.0596  0.8504
  220MOL0     C29592   8.324   4.922   2.780 -0.1141 -0.4106  0.0830
  220MOL0     C29593   8.244   4.812   2.749 -0.7136 -0.0729 -0.2608
  220MOL0     C29594   8.275   4.748   2.615  1.0274  0.5442  0.1328
  220MOL0     O29595   8.213   4.622   2.598 -0.0540 -0.2651 -0.0847
  220MOL0     C29596   8.226   4.559   2.474 -1.1625 -0.7776  0.2744
  220MOL0     C29597   8.253   4.422   2.467 -0.0589 -0.0564 -0.4378
  220MOL0     C29598   8.260   4.344   2.344 -0.0391  0.2388 -0.3348
  220MOL0     C29599   8.234   4.418   2.218  0.0508 -0.3265 -0.2734
  220MOL0     O29600   8.237   4.361   2.098  0.5558 -0.0879  1.0442
  220MOL0     C29601   8.195   4.418   1.974 -0.3381  0.3259  0.1425
  220MOL0     C29602   8.182   4.309   1.871  0.7641 -0.0450 -0.0629
  220MOL0     C29603   8.318   4.301   1.791  0.0411  0.9788  0.0981
  220MOL0     C29604   8.432   4.252   1.880 -0.1116 -0.2755  0.6477
  220MOL0     C29605   8.565   4.239   1.796 -0.8239  0.6823 -0.3776
  220MOL0     C29606   8.660   4.362   1.812  0.6585 -0.4967 -0.3660
  220MOL0     C29607   8.771   4.356   1.712  0.1555 -0.5792  0.3816
  220MOL0     C29608   8.898   4.282   1.768  0.5847  0.5297  0.0019
  220MOL0    Cl29609   9.010   4.248   1.624  0.5204  0.0356  0.2725
  220MOL0     C29610   8.221   4.561   2.229  0.3605  0.2447 -0.1864
  220MOL0     C29611   8.209   4.627   2.351 -0.8861 -0.0126 -0.0713
  220MOL0     O29612   8.336   4.816   2.531  0.2287 -0.3218 -0.8487
  220MOL0     C29613   8.157   4.751   2.850  0.0504  0.2523  0.2048
  220MOL0     C29614   8.165   4.808   2.977 -0.4725  0.9951 -0.5403
  220MOL0     N29615   8.563   5.374   3.604  1.6513  0.0284 -0.2092
  220MOL0     N29616   8.604   5.491   3.642  0.6823  0.2339  0.3994
  220MOL0     C29617   8.938   6.398   4.368  0.9771 -0.1614 -0.5378
  220MOL0     C29618   8.977   6.454   4.486 -0.8113 -0.5351 -0.3421
  220MOL0     C29619   9.230   6.642   4.798  1.1078 -0.7056  0.0219
  220MOL0     C29620   9.134   6.744   4.811 -0.3886  0.4797  0.6564
  220MOL0     C29621   9.151   6.839   4.908  0.9257  0.2932 -0.1931
  220MOL0     C29622   9.252   6.840   5.002 -0.6358  0.3929  0.5612
  220MOL0     O29623   9.267   6.950   5.087 -0.2953 -0.0148 -0.7747
  220MOL0     C29624   9.357   6.945   5.195 -0.7345 -0.0262  0.0368
  220MOL0     C29625   9.342   7.076   5.277 -0.8426  0.5611 -0.1436
  220MOL0     C29626   9.442   7.191   5.241 -0.3511  0.5898  0.2180
  220MOL0     C29627   9.463   7.303   5.345  0.1866  0.5525 -1.1932
  220MOL0     C29628   9.334   7.364   5.375 -0.1522 -0.3524  0.7543
  220MOL0     C29629   9.231   7.412   5.414  0.1062 -0.1057  0.5952
  220MOL0     C29630   9.354   6.736   4.984  0.1906  0.4867 -0.4568
  220MOL0     C29631   9.339   6.639   4.885  0.1279 -0.1365  0.6322
  220MOL0     C29632   9.445   6.526   4.893 -0.9969  0.3158  0.0859
  220MOL0     H29633   9.278   6.567   4.376 -1.0211  1.6020  0.6898
  220MOL0     H29634   9.211   6.427   4.164 -0.8760  0.0838 -0.2027
  220MOL0     H29635   9.021   6.448   3.991  0.4617  0.1682  4.0236
  220MOL0     H29636   9.058   6.265   3.970 -2.8945 -2.4846 -1.6505
  220MOL0     H29637   8.875   6.336   3.818  0.9279  0.4165 -0.3860
  220MOL0     H29638   8.781   6.349   3.963 -1.5945 -4.9009  2.6753
  220MOL0     H29639   8.786   6.113   4.019 -0.9563  0.6869 -0.5869
  220MOL0     H29640   8.911   6.081   3.900 -0.3128 -1.3422  0.8190
  220MOL0     H29641   8.628   6.153   3.873 -2.7633  1.7323 -3.7414
  220MOL0     H29642   8.735   6.173   3.731  2.7355  0.2141  1.3663
  220MOL0     H29643   8.757   5.922   3.717 -0.2023 -0.1344 -0.5578
  220MOL0     H29644   8.739   5.901   3.890 -0.8854  0.4045  0.5376
  220MOL0     H29645   8.515   5.963   3.874 -0.5598  1.0407 -0.1821
  220MOL0     H29646   8.509   5.994   3.711 -2.3517  1.4990  3.6653
  220MOL0     H29647   8.438   5.727   3.798  1.9123 -2.3046  3.8063
  220MOL0     H29648   8.608   5.725   3.823  1.8828  2.2378 -0.1592
  220MOL0     H29649   8.502   5.791   3.537  0.0425  0.3681 -0.1906
  220MOL0     H29650   8.671   5.746   3.586  0.3086 -2.6514 -0.4455
  220MOL0     H29651   8.356   5.592   3.468 -1.4511 -1.2972 -0.9714
  220MOL0     H29652   8.365   5.218   3.562 -0.8274 -0.8197 -0.7796
  220MOL0     H29653   8.245   5.341   3.496  0.3416 -0.6261  1.0283
  220MOL0     H29654   8.357   5.343   3.286  0.0139  0.9042  2.0351
  220MOL0     H29655   8.475   5.228   3.329  0.5779  0.8057 -0.2700
  220MOL0     H29656   8.174   5.175   3.324 -0.2940 -2.3858  1.7922
  220MOL0     H29657   8.309   5.057   3.370 -0.1694 -3.1341 -3.2824
  220MOL0     H29658   8.409   5.066   3.158 -0.6861 -1.9235 -1.3162
  220MOL0     H29659   8.257   5.161   3.110 -4.2160 -2.3763  0.4702
  220MOL0     H29660   8.366   5.074   2.912  1.9068 -1.2487 -0.7473
  220MOL0     H29661   8.377   4.977   2.703  0.3342 -0.1428  0.5783
  220MOL0     H29662   8.260   4.378   2.566 -2.9864 -0.7994 -0.4758
  220MOL0     H29663   8.266   4.235   2.342 -1.0041  0.1797 -0.7953
  220MOL0     H29664   8.109   4.484   1.987  0.1945  1.3586 -1.3728
  220MOL0     H29665   8.267   4.493   1.941  2.3242 -2.9105 -2.0240
  220MOL0     H29666   8.147   4.215   1.915  2.3321 -0.5798  0.1122
  220MOL0     H29667   8.089   4.342   1.826  0.3147  0.6647  1.3332
  220MOL0     H29668   8.303   4.217   1.721  2.3396  0.4806  0.1419
  220MOL0     H29669   8.336   4.396   1.741 -0.3309  1.3155  0.5971
  220MOL0     H29670   8.410   4.154   1.923 -0.6271 -1.1327 -1.4830
  220MOL0     H29671   8.452   4.323   1.961  1.6974  0.1321 -0.1107
  220MOL0     H29672   8.544   4.233   1.689 -0.5514 -1.3126 -0.3554
  220MOL0     H29673   8.626   4.159   1.840  0.2093  2.5451  1.8024
  220MOL0     H29674   8.592   4.444   1.789 -0.4665 -1.1370  0.5461
  220MOL0     H29675   8.683   4.376   1.918 -2.3266  0.5714  0.2365
  220MOL0     H29676   8.801   4.458   1.687 -1.3012 -0.3776 -0.7051
  220MOL0     H29677   8.751   4.297   1.622 -5.2401  1.4532 -0.0911
  220MOL0     H29678   8.944   4.336   1.851  0.8200  2.9772 -1.6044
  220MOL0     H29679   8.875   4.184   1.811  0.9199  0.3052 -0.3134
  220MOL0     H29680   8.202   4.623   2.143 -2.0296 -2.6328 -1.9373
  220MOL0     H29681   8.188   4.733   2.355 -2.7483 -0.3774  1.4859
  220MOL0     H29682   8.090   4.669   2.825 -1.4133  0.8638  1.9249
  220MOL0     H29683   8.112   4.757   3.056  0.7015  0.7682  0.1210
  220MOL0     H29684   8.836   6.361   4.371  0.3972  1.4208  1.1626
  220MOL0     H29685   8.904   6.443   4.565 -0.3083 -2.0804 -0.0400
  220MOL0     H29686   9.047   6.750   4.746 -0.3576  0.4712  0.6146
  220MOL0     H29687   9.076   6.917   4.905 -1.5719 -1.9625 -1.2092
  220MOL0     H29688   9.459   6.931   5.156 -0.7908 -4.0285  0.9429
  220MOL0     H29689   9.343   6.851   5.249  1.8220 -1.1602 -1.0900
  220MOL0     H29690   9.368   7.051   5.380  0.9642 -3.5155 -1.3564
  220MOL0     H29691   9.246   7.125   5.259 -0.3671  2.0334  1.1748
  220MOL0     H29692   9.410   7.247   5.152  1.6239 -1.3593 -1.8516
  220MOL0     H29693   9.541   7.147   5.224  0.0556  0.6205  2.3114
  220MOL0     H29694   9.496   7.251   5.435 -0.3319  1.4106 -0.4900
  220MOL0     H29695   9.544   7.373   5.323  0.5915 -0.1655 -2.0304
  220MOL0     H29696   9.140   7.436   5.465  0.9031 -0.6403  2.3512
  220MOL0     H29697   9.431   6.721   5.060 -1.0281  1.5711  1.0515
  220MOL0     H29698   9.416   6.470   4.983  2.4797  1.6743  2.2784
  220MOL0     H29699   9.456   6.460   4.808  1.8235 -1.0957  1.4293
  220MOL0     H29700   9.536   6.585   4.909 -0.8601  0.0139  0.4337
  221MOL0     O29701   6.485   5.121   9.046 -0.1629  0.3998 -0.0277
  221MOL0     C29702   6.475   4.998   9.030  0.5102 -0.5204  0.5743
  221MOL0     O29703   6.531   4.898   9.115 -0.3352 -0.0060  0.1629
  221MOL0     C29704   6.620   4.940   9.213  0.6976 -1.0383 -0.1439
  221MOL0     C29705   6.594   4.913   9.349  0.4734  1.3921  0.4144
  221MOL0     C29706   6.695   4.947   9.441  0.8784 -0.9739 -0.8504
  221MOL0     C29707   6.818   5.000   9.409 -0.3362 -0.2155  0.2991
  221MOL0     O29708   6.909   5.029   9.509  0.1280 -0.2469  0.1199
  221MOL0     C29709   6.965   4.929   9.597 -0.5831  0.0844  0.4204
  221MOL0     C29710   7.069   5.011   9.664 -0.4963 -0.3467 -0.1312
  221MOL0     C29711   7.188   5.059   9.582  0.3850  0.4314 -0.5644
  221MOL0     C29712   7.255   5.189   9.641  0.4309 -0.5062  0.6620
  221MOL0     C29713   7.291   5.190   9.790 -0.0561  0.8916  0.2068
  221MOL0     C29714   7.389   5.299   9.834  0.6542 -0.4116  0.2653
  221MOL0     C29715   7.404   5.295   9.990  0.3884 -0.1417  0.5535
  221MOL0     C29716   7.519   5.212  10.033 -0.1583 -0.1046  0.1489
  221MOL0     N29717   7.500   5.066  10.034 -0.0401 -0.3111 -0.1248
  221MOL0     C29718   7.379   4.994  10.047 -0.6520 -0.1240  0.2458
  221MOL0     C29719   7.419   4.874  10.021  0.2216 -0.4548 -0.5649
  221MOL0     C29720   7.316   4.770   9.995 -0.1409  0.6663  0.8999
  221MOL0     C29721   7.309   4.747   9.839 -0.4976 -0.3469  0.1634
  221MOL0     C29722   7.381   4.616   9.789  0.4183  0.0950  0.5344
  221MOL0     C29723   7.325   4.580   9.650  0.0885 -0.8743 -1.0548
  221MOL0     O29724   7.358   4.684   9.564 -0.0504 -0.4227  0.3111
  221MOL0     C29725   7.361   4.649   9.431  0.0318 -0.6811  0.2137
  221MOL0     C29726   7.445   4.558   9.379  0.1511  0.2989  0.0235
  221MOL0     C29727   7.446   4.531   9.241 -0.0290  0.1088 -0.2057
  221MOL0     C29728   7.370   4.609   9.151  0.4231  0.1162 -0.3970
  221MOL0     C29729   7.377   4.592   9.007 -0.3696 -0.0704  1.1847
  221MOL0     O29730   7.307   4.681   8.924 -0.4685  0.7094  1.1289
  221MOL0     C29731   7.337   4.692   8.789 -0.5493 -0.5428  0.6359
  221MOL0     C29732   7.463   4.734   8.745  0.4822  0.6441  0.0134
  221MOL0     C29733   7.493   4.769   8.608  0.7605  0.0629  0.0448
  221MOL0     C29734   7.390   4.781   8.515  0.7357 -0.2218 -0.4065
  221MOL0     O29735   7.424   4.851   8.399  0.0681 -0.2807 -0.3164
  221MOL0     C29736   7.323   4.897   8.310  0.0850 -0.4272 -0.0052
  221MOL0     C29737   7.348   4.839   8.174  0.5149  0.5804 -0.2178
  221MOL0     C29738   7.321   4.687   8.169  0.0812  0.0157  0.0226
  221MOL0     C29739   7.322   4.615   8.028 -0.5218  0.0200 -0.0571
  221MOL0     C29740   7.258   4.480   8.022  0.4427 -0.8369  0.3960
  221MOL0     C29741   7.116   4.492   7.974  0.1131 -0.0661 -0.6096
  221MOL0     C29742   7.042   4.360   7.935 -0.3641  0.5571  0.0397
  221MOL0     C29743   6.902   4.393   7.876 -1.0287 -0.0949  0.7015
  221MOL0    Cl29744   6.790   4.480   7.998  0.5483  0.1553 -0.1340
  221MOL0     C29745   7.259   4.748   8.558  0.1946  0.2623  0.6155
  221MOL0     C29746   7.241   4.684   8.688  0.6911  0.2898 -0.5195
  221MOL0     O29747   7.458   4.509   8.968 -0.8676 -0.2272 -0.0978
  221MOL0     C29748   7.281   4.700   9.209  0.4619  0.0621 -0.1197
  221MOL0     C29749   7.277   4.723   9.346 -0.3863  0.6601 -1.2766
  221MOL0     N29750   7.554   4.869   9.999  0.1949 -0.3217 -0.4586
  221MOL0     N29751   7.604   4.985  10.014 -0.5111  1.1031 -0.2755
  221MOL0     C29752   6.846   5.023   9.269  0.2262  1.0547 -0.2062
  221MOL0     C29753   6.743   4.997   9.177 -0.4112  0.3252 -0.9076
  221MOL0     C29754   6.393   4.956   8.920  0.1484 -1.2192 -0.1654
  221MOL0     C29755   6.271   5.028   8.896 -0.9623 -0.0199  0.4263
  221MOL0     C29756   6.195   5.005   8.779 -0.0228  0.2374  0.2812
  221MOL0     C29757   6.217   4.901   8.698  0.9017 -0.6100  1.1419
  221MOL0     O29758   6.132   4.887   8.591  0.3627  0.5296  0.4048
  221MOL0     C29759   6.178   4.808   8.476 -0.0947 -0.1772  0.4698
  221MOL0     C29760   6.143   4.901   8.352  0.6061 -0.8539  0.0700
  221MOL0     C29761   6.000   4.950   8.328  1.1965  0.6424 -0.2456
  221MOL0     C29762   5.906   4.831   8.275 -0.7155 -0.4447  0.3043
  221MOL0     C29763   5.800   4.880   8.195  0.0489  0.0452  0.1651
  221MOL0     C29764   5.722   4.898   8.106  0.0621 -0.0513  1.4573
  221MOL0     C29765   6.323   4.812   8.732 -0.2317 -0.3362  0.7816
  221MOL0     C29766   6.411   4.845   8.833 -1.2009 -0.2356 -0.6793
  221MOL0     C29767   6.534   4.754   8.836 -0.4506  0.2900  0.4474
  221MOL0     H29768   6.523   4.858   9.410  2.3260  2.0529  3.3350
  221MOL0     H29769   6.683   4.915   9.544  2.9203 -1.9277 -0.8673
  221MOL0     H29770   6.887   4.919   9.672  0.0020  1.5799  1.2796
  221MOL0     H29771   7.002   4.835   9.555  0.7709  1.1194 -0.8152
  221MOL0     H29772   7.111   4.959   9.751 -1.2662  1.9165  1.7120
  221MOL0     H29773   7.017   5.100   9.701 -0.7468 -0.3967 -0.3576
  221MOL0     H29774   7.164   5.072   9.477  3.4672 -1.5022 -1.6459
  221MOL0     H29775   7.260   4.977   9.594 -2.2731 -1.7913  1.6694
  221MOL0     H29776   7.347   5.213   9.586 -0.3003  0.3993 -0.2226
  221MOL0     H29777   7.186   5.273   9.623  2.9096  2.4908  3.7384
  221MOL0     H29778   7.203   5.205   9.854 -0.1518  0.9705  0.0573
  221MOL0     H29779   7.333   5.090   9.804  1.4641  0.9405 -3.1160
  221MOL0     H29780   7.482   5.293   9.777 -0.4203 -1.9227 -1.4572
  221MOL0     H29781   7.351   5.398   9.809  2.3586  0.4301  0.8872
  221MOL0     H29782   7.318   5.256  10.046  0.7008 -0.7460  0.6151
  221MOL0     H29783   7.413   5.398  10.025 -0.4501  0.9826 -2.2818
  221MOL0     H29784   7.600   5.250   9.970 -1.4823  0.8486 -1.0330
  221MOL0     H29785   7.548   5.250  10.131  2.5951  2.7475 -1.5745
  221MOL0     H29786   7.275   5.023  10.047 -1.0211 -1.4183  0.0133
  221MOL0     H29787   7.328   4.678  10.053  3.4242 -0.9921 -2.0401
  221MOL0     H29788   7.218   4.807  10.026 -1.8672  0.8845 -3.9226
  221MOL0     H29789   7.204   4.747   9.806 -0.8496 -3.3495  0.9783
  221MOL0     H29790   7.370   4.828   9.797  1.6508  0.3960  4.2593
  221MOL0     H29791   7.368   4.531   9.856  0.3566  0.0956  0.5240
  221MOL0     H29792   7.488   4.636   9.792  1.1608 -2.9212 -1.7114
  221MOL0     H29793   7.216   4.576   9.656  0.1423 -0.2359  2.2844
  221MOL0     H29794   7.352   4.479   9.618  0.2742 -2.1571  2.6864
  221MOL0     H29795   7.514   4.507   9.445 -2.3161 -3.9772 -0.3384
  221MOL0     H29796   7.521   4.456   9.219 -1.7952 -1.7565 -0.2256
  221MOL0     H29797   7.537   4.728   8.824 -1.3578  1.4802  1.9105
  221MOL0     H29798   7.593   4.799   8.577  1.6702 -0.3516  2.3549
  221MOL0     H29799   7.220   4.891   8.347 -0.4786 -2.2722 -1.6989
  221MOL0     H29800   7.340   5.002   8.287 -3.6551 -0.0119 -1.5360
  221MOL0     H29801   7.281   4.899   8.113  0.3020 -0.5939 -1.1677
  221MOL0     H29802   7.446   4.863   8.130  1.4333  0.2167  1.5366
  221MOL0     H29803   7.409   4.638   8.212  1.9746 -1.4585 -4.8619
  221MOL0     H29804   7.229   4.663   8.223  0.9799 -0.5261  1.3870
  221MOL0     H29805   7.427   4.600   8.004 -0.1552  1.8553  0.2158
  221MOL0     H29806   7.274   4.684   7.957 -0.1693  0.3652  0.0397
  221MOL0     H29807   7.259   4.436   8.122  0.1371  0.2550  0.8876
  221MOL0     H29808   7.312   4.423   7.945 -0.9893 -0.3499 -1.0142
  221MOL0     H29809   7.055   4.543   8.049 -3.1442 -3.5828 -0.5223
  221MOL0     H29810   7.106   4.559   7.888 -3.2669  0.4664  0.0477
  221MOL0     H29811   7.036   4.293   8.021 -3.9267 -0.5012 -0.9085
  221MOL0     H29812   7.107   4.306   7.866  0.2643 -1.6999  2.2486
  221MOL0     H29813   6.918   4.451   7.785 -0.9510  0.0869  0.8302
  221MOL0     H29814   6.854   4.299   7.847 -1.6978  0.8121 -1.3271
  221MOL0     H29815   7.173   4.743   8.491 -0.9141  0.3129  1.9844
  221MOL0     H29816   7.138   4.656   8.707  0.6824  0.1823 -0.7194
  221MOL0     H29817   7.215   4.766   9.153  0.4914  1.2749  1.2191
  221MOL0     H29818   7.197   4.790   9.378 -0.4676  1.7522 -3.5450
  221MOL0     H29819   6.946   5.054   9.241  0.2031  0.8573 -0.5113
  221MOL0     H29820   6.775   5.014   9.074  0.3107  0.8253 -0.6075
  221MOL0     H29821   6.236   5.115   8.951 -0.8494 -0.1894  0.7712
  221MOL0     H29822   6.119   5.077   8.752  0.7601  0.5908 -1.0624
  221MOL0     H29823   6.127   4.711   8.474 -0.5692  0.0279  1.9308
  221MOL0     H29824   6.284   4.782   8.463  0.0061  0.4109  0.0766
  221MOL0     H29825   6.184   4.857   8.261 -1.8638 -0.1173 -1.4937
  221MOL0     H29826   6.208   4.989   8.353 -0.0853 -0.3343 -0.0067
  221MOL0     H29827   6.000   5.040   8.266  1.3229 -0.0841 -1.3195
  221MOL0     H29828   5.956   4.983   8.422 -1.8936 -1.8004 -0.6772
  221MOL0     H29829   5.963   4.771   8.203 -0.9771  0.1148 -0.3749
  221MOL0     H29830   5.872   4.777   8.364  1.6565 -0.9238  1.0124
  221MOL0     H29831   5.654   4.921   8.026  1.3273 -3.2578 -0.7679
  221MOL0     H29832   6.339   4.725   8.671 -2.9543 -0.2730 -0.1445
  221MOL0     H29833   6.514   4.663   8.894  4.1437 -1.1765  0.1848
  221MOL0     H29834   6.566   4.740   8.732  3.0230 -5.0974  1.8075
  221MOL0     H29835   6.613   4.799   8.897 -0.0080  0.9162 -0.5600
  222MOL0     O29836   3.198  10.051   0.812 -0.1509  0.8350 -0.1726
  222MOL0     C29837   3.287  10.062   0.732 -0.3140  0.5229 -1.0636
  222MOL0     O29838   3.292  10.000   0.607  0.0849 -0.1860  1.1538
  222MOL0     C29839   3.183   9.946   0.558  0.7377 -0.1179  0.5929
  222MOL0     C29840   3.161   9.806   0.538 -0.3007 -0.3681  0.0594
  222MOL0     C29841   3.046   9.764   0.486  0.0245  0.3750  0.6141
  222MOL0     C29842   2.937   9.841   0.443 -0.3690  0.0685  0.8464
  222MOL0     O29843   2.822   9.801   0.375  0.2516  0.3129  0.0142
  222MOL0     C29844   2.764   9.891   0.273 -0.9236  0.1937 -0.1746
  222MOL0     C29845   2.623   9.939   0.307  0.6924 -0.2774  0.2126
  222MOL0     C29846   2.536   9.817   0.366 -0.0907 -0.6066  0.1404
  222MOL0     C29847   2.398   9.856   0.413  0.0493  0.2051 -0.3880
  222MOL0     C29848   2.324   9.738   0.469  0.3871 -0.0809 -0.8158
  222MOL0     C29849   2.374   9.707   0.612 -0.7128  0.0334  0.5062
  222MOL0     C29850   2.299   9.597   0.680  0.2565  0.2259  0.2510
  222MOL0     C29851   2.343   9.453   0.638  0.3800  0.5172  0.2086
  222MOL0     N29852   2.275   9.354   0.719  0.3115  0.4225  0.1292
  222MOL0     C29853   2.338   9.239   0.755  0.0001  0.4208  0.1683
  222MOL0     C29854   2.239   9.169   0.819 -0.5064  0.7772 -0.1335
  222MOL0     C29855   2.253   9.041   0.891  0.0211 -1.6216 -0.0936
  222MOL0     C29856   2.181   8.928   0.818  0.4255  0.0483  0.5354
  222MOL0     C29857   2.174   8.800   0.912 -0.4548  0.0942 -0.2003
  222MOL0     C29858   2.309   8.720   0.870 -0.4120  0.3834  0.9849
  222MOL0     O29859   2.322   8.598   0.937 -0.4658  0.5733  0.0059
  222MOL0     C29860   2.218   8.511   0.903 -0.3672  0.1670 -0.2995
  222MOL0     C29861   2.223   8.422   0.792 -0.1094 -0.3922 -0.3728
  222MOL0     C29862   2.134   8.310   0.767 -0.6175 -0.2261 -1.2301
  222MOL0     C29863   2.015   8.299   0.848  0.1271 -0.0897  0.0874
  222MOL0     C29864   1.915   8.194   0.814 -0.1263 -0.8125 -0.6373
  222MOL0     O29865   1.976   8.082   0.760  0.9963 -0.1685  0.0010
  222MOL0     C29866   1.906   7.970   0.734 -0.4156 -0.3503  0.3301
  222MOL0     C29867   1.885   7.928   0.593 -0.4882  0.1840 -0.1135
  222MOL0     C29868   1.824   7.805   0.555  0.2662  0.3933  1.1632
  222MOL0     C29869   1.807   7.709   0.665 -0.1222 -0.7522 -1.0202
  222MOL0     O29870   1.749   7.587   0.665  0.0230 -0.3431  0.5186
  222MOL0     C29871   1.770   7.501   0.546 -0.1849 -0.2078 -0.5654
  222MOL0     C29872   1.780   7.351   0.595 -0.2886  0.3796 -0.0056
  222MOL0     C29873   1.887   7.326   0.707  0.9709  0.1295 -0.0665
  222MOL0     C29874   2.031   7.366   0.655  0.1286  0.2736 -0.0477
  222MOL0     C29875   2.148   7.323   0.744 -0.9017 -0.3295 -0.0183
  222MOL0     C29876   2.257   7.429   0.768 -1.1175 -0.4124 -0.5188
  222MOL0     C29877   2.233   7.492   0.909 -0.0705  0.0294 -0.1173
  222MOL0     C29878   2.110   7.575   0.920  0.7527  0.5058 -0.2713
  222MOL0    Cl29879   2.108   7.677   1.069 -0.1858 -0.0333  0.5270
  222MOL0     C29880   1.826   7.752   0.796  0.1798 -0.9080 -0.2638
  222MOL0     C29881   1.884   7.877   0.832 -1.0268 -0.8461  0.0291
  222MOL0     O29882   1.795   8.214   0.841 -0.7741  0.6694 -0.4182
  222MOL0     C29883   2.009   8.391   0.959  0.6693  0.1942  0.1294
  222MOL0     C29884   2.116   8.479   0.990  0.0432 -0.5456 -0.7171
  222MOL0     N29885   2.123   9.249   0.809 -0.1399  0.5862 -0.0237
  222MOL0     N29886   2.142   9.359   0.742 -0.3020  0.2746  0.2407
  222MOL0     C29887   2.955   9.980   0.470  0.5083  0.1201 -0.4139
  222MOL0     C29888   3.068  10.027   0.541 -0.2906 -0.3461 -0.0181
  222MOL0     C29889   3.401  10.146   0.772 -0.6687 -0.0686 -0.1030
  222MOL0     C29890   3.437  10.252   0.693 -0.1068  0.1398  0.1341
  222MOL0     C29891   3.551  10.333   0.729  0.4989  0.3695 -0.2708
  222MOL0     C29892   3.624  10.305   0.847 -1.1121 -0.3069  0.0486
  222MOL0     O29893   3.721  10.389   0.901  0.3051  0.5254  0.1237
  222MOL0     C29894   3.798  10.451   0.805 -0.6774 -0.1089 -0.3064
  222MOL0     C29895   3.937  10.456   0.864 -1.2808  1.1752 -0.0714
  222MOL0     C29896   3.930  10.549   0.980 -0.3532  0.2490 -0.5417
  222MOL0     C29897   4.068  10.577   1.048 -0.7870 -0.4715  0.2550
  222MOL0     C29898   4.168  10.609   0.945  0.9782  0.8323 -0.2931
  222MOL0     C29899   4.234  10.633   0.852  0.2112  0.1601  1.5712
  222MOL0     C29900   3.578  10.210   0.943 -0.3109  0.2143  0.1525
  222MOL0     C29901   3.477  10.123   0.895  0.1699 -0.5277  0.4699
  222MOL0     C29902   3.427  10.019   0.985  0.9896 -0.2003 -0.2183
  222MOL0     H29903   3.251   9.748   0.557  0.0784  0.5255  1.1338
  222MOL0     H29904   3.027   9.658   0.473  0.9958  0.1694  0.7380
  222MOL0     H29905   2.842   9.957   0.232  1.4561 -3.1970 -1.5307
  222MOL0     H29906   2.753   9.827   0.185  1.8545  2.4202 -2.3950
  222MOL0     H29907   2.572   9.982   0.221 -0.7776 -1.1275  0.6241
  222MOL0     H29908   2.628  10.014   0.387  0.1893  0.6524 -0.6055
  222MOL0     H29909   2.594   9.758   0.438  2.7770  1.1872 -0.4988
  222MOL0     H29910   2.529   9.744   0.284 -0.1670 -1.1260  0.6061
  222MOL0     H29911   2.413   9.926   0.495 -0.0061  1.4062 -1.3661
  222MOL0     H29912   2.345   9.909   0.332 -1.7961 -0.8368  0.0763
  222MOL0     H29913   2.226   9.782   0.487  0.7140 -0.2287  1.6690
  222MOL0     H29914   2.319   9.656   0.396  4.0793 -0.1341 -1.1794
  222MOL0     H29915   2.483   9.702   0.618 -0.5033  1.8574 -0.9555
  222MOL0     H29916   2.362   9.801   0.668  0.9831  0.5419  0.0581
  222MOL0     H29917   2.194   9.614   0.655  0.0207 -0.7504  0.5262
  222MOL0     H29918   2.311   9.604   0.789 -1.0516  0.1812  0.4149
  222MOL0     H29919   2.318   9.432   0.534  0.6184  1.3221 -0.0174
  222MOL0     H29920   2.446   9.440   0.672  0.9995  0.1452 -1.6855
  222MOL0     H29921   2.440   9.203   0.745 -0.4503 -0.9127  0.1521
  222MOL0     H29922   2.355   9.020   0.927  1.0357  2.1323 -0.3633
  222MOL0     H29923   2.205   9.048   0.988 -0.7688 -1.4257 -0.4947
  222MOL0     H29924   2.078   8.960   0.804 -0.7145 -2.3222  2.8131
  222MOL0     H29925   2.237   8.906   0.727 -0.3389  2.0558 -0.4811
  222MOL0     H29926   2.084   8.741   0.888  0.0756 -0.1712 -1.6527
  222MOL0     H29927   2.179   8.826   1.018 -0.5527 -3.7217  0.8961
  222MOL0     H29928   2.393   8.782   0.902  0.6396 -0.6793  0.3555
  222MOL0     H29929   2.318   8.700   0.763  0.1738  3.0225  0.4649
  222MOL0     H29930   2.318   8.429   0.740  1.1962 -3.9875  1.1854
  222MOL0     H29931   2.161   8.233   0.695  0.5537  0.6473 -1.7558
  222MOL0     H29932   1.908   8.003   0.518  2.7776 -1.4428 -0.9125
  222MOL0     H29933   1.814   7.767   0.454  2.1933 -1.7778  1.7040
  222MOL0     H29934   1.693   7.513   0.470 -0.7574  2.8193  0.3426
  222MOL0     H29935   1.859   7.531   0.490  1.4371 -2.3999  0.6598
  222MOL0     H29936   1.677   7.322   0.619 -0.4815 -2.1818 -3.2053
  222MOL0     H29937   1.813   7.291   0.510  2.4692  5.4744 -3.0696
  222MOL0     H29938   1.864   7.388   0.794 -0.7578 -1.5455  0.7468
  222MOL0     H29939   1.886   7.221   0.738  1.4325  0.1425 -0.0007
  222MOL0     H29940   2.036   7.474   0.635  2.1013  0.0580 -0.9455
  222MOL0     H29941   2.051   7.322   0.557  0.7516 -1.6862  0.9104
  222MOL0     H29942   2.191   7.231   0.705  0.1376 -0.3696  1.1491
  222MOL0     H29943   2.122   7.283   0.843 -0.4530 -0.9656 -0.1504
  222MOL0     H29944   2.357   7.385   0.772  0.0193  2.0932  0.5977
  222MOL0     H29945   2.245   7.496   0.682  1.1652  1.1615  0.3027
  222MOL0     H29946   2.319   7.553   0.939  1.6031 -1.3105 -1.9440
  222MOL0     H29947   2.213   7.411   0.980 -1.7550 -3.0254 -3.6818
  222MOL0     H29948   2.091   7.638   0.832 -2.2764 -2.9276 -2.3302
  222MOL0     H29949   2.019   7.515   0.923  1.8322 -1.1630  0.6060
  222MOL0     H29950   1.797   7.687   0.877 -3.4363  0.3050 -0.4096
  222MOL0     H29951   1.914   7.896   0.935 -1.0760 -0.1356 -0.0838
  222MOL0     H29952   1.928   8.380   1.030  2.0900  1.9322  2.1616
  222MOL0     H29953   2.107   8.534   1.083 -2.8029 -0.0230 -1.2037
  222MOL0     H29954   2.882  10.057   0.450  1.7753  1.4928  0.0374
  222MOL0     H29955   3.068  10.127   0.583 -0.7805 -0.4448  0.2212
  222MOL0     H29956   3.372  10.265   0.607 -3.9149 -4.5547  1.8549
  222MOL0     H29957   3.576  10.415   0.663 -0.5758  0.7855 -0.1799
  222MOL0     H29958   3.761  10.552   0.785  3.0239  1.8299  1.4819
  222MOL0     H29959   3.813  10.398   0.710  2.1331 -2.1185  1.1132
  222MOL0     H29960   4.010  10.481   0.786 -1.1222 -0.1657 -0.3761
  222MOL0     H29961   3.967  10.354   0.891  1.3428  1.6364 -0.9944
  222MOL0     H29962   3.858  10.515   1.055  2.8674 -2.6759  1.5385
  222MOL0     H29963   3.896  10.648   0.951  1.3641  1.5929  1.6971
  222MOL0     H29964   4.057  10.667   1.109  0.6835 -0.6370  0.7908
  222MOL0     H29965   4.098  10.490   1.108 -0.1252  0.5412  1.4550
  222MOL0     H29966   4.308  10.645   0.775  0.9145  1.5798  2.4479
  222MOL0     H29967   3.638  10.199   1.033 -0.0995 -1.5838 -0.1558
  222MOL0     H29968   3.336  10.055   1.034 -1.3622 -0.0309 -4.2276
  222MOL0     H29969   3.403   9.929   0.929  0.9431  1.4854 -3.1131
  222MOL0     H29970   3.498  10.003   1.067  2.8957  3.6205 -0.8654
  223MOL0     O29971  10.780  10.558   8.022  0.2686  0.3988  0.7670
  223MOL0     C29972  10.836  10.658   8.053 -0.1802  0.1226 -0.3718
  223MOL0     O29973  10.796  10.787   8.032  0.1835  0.6360 -0.2196
  223MOL0     C29974  10.672  10.804   7.977  0.2664 -0.1628 -1.0457
  223MOL0     C29975  10.557  10.822   8.058 -0.5056 -0.2344 -0.4883
  223MOL0     C29976  10.433  10.829   8.005 -0.3572 -0.0101 -0.5597
  223MOL0     C29977  10.407  10.846   7.863 -1.2686  0.0138  0.1350
  223MOL0     O29978  10.281  10.883   7.816 -0.0645  0.4443 -1.1499
  223MOL0     C29979  10.264  10.907   7.677 -0.5139  0.6865 -0.0606
  223MOL0     C29980  10.137  10.978   7.648  1.4875  0.4314 -0.5684
  223MOL0     C29981  10.137  11.038   7.509 -0.1083  0.8743 -0.0800
  223MOL0     C29982  10.017  11.125   7.499  0.0969  0.2626  0.3409
  223MOL0     C29983  10.003  11.163   7.344  0.0354 -0.1700  0.6643
  223MOL0     C29984   9.896  11.271   7.310 -0.7383 -0.1718 -0.0925
  223MOL0     C29985   9.759  11.269   7.391  0.0820  0.3153 -0.3092
  223MOL0     C29986   9.677  11.146   7.350  0.9891  0.0090  0.2619
  223MOL0     N29987   9.538  11.156   7.408  0.5943 -0.7859 -0.7565
  223MOL0     C29988   9.430  11.205   7.340  0.2032  0.2704 -0.1753
  223MOL0     C29989   9.328  11.218   7.425  0.9329  0.4334 -0.6866
  223MOL0     C29990   9.189  11.280   7.396  0.1811  0.1571  0.2900
  223MOL0     C29991   9.084  11.192   7.465 -0.6375 -0.2537 -0.0778
  223MOL0     C29992   8.941  11.244   7.453  0.0609  0.7935 -0.1182
  223MOL0     C29993   8.853  11.196   7.335  0.0527 -0.0336  0.0143
  223MOL0     O29994   8.861  11.046   7.339  0.8353 -0.2076  0.3404
  223MOL0     C29995   8.799  10.963   7.248 -0.0168  0.7981  1.0301
  223MOL0     C29996   8.859  10.840   7.230 -0.2256 -0.6202  0.0543
  223MOL0     C29997   8.805  10.753   7.135  1.0752 -0.2351  0.5580
  223MOL0     C29998   8.683  10.781   7.071 -0.1714  1.0628  0.5695
  223MOL0     C29999   8.621  10.689   6.965 -0.0025  0.2810 -0.8786
  223MOL0     O30000   8.525  10.741   6.884 -0.3935  0.3451 -0.3903
  223MOL0     C30001   8.458  10.649   6.807 -0.6019  0.5374  1.0575
  223MOL0     C30002   8.412  10.524   6.851 -0.2556 -0.1626  1.0142
  223MOL0     C30003   8.372  10.430   6.752 -0.7878  0.0729 -0.0992
  223MOL0     C30004   8.332  10.482   6.628  0.5193  0.8918 -0.9637
  223MOL0     O30005   8.282  10.392   6.533 -0.3382  0.5624  0.0725
  223MOL0     C30006   8.207  10.443   6.430  0.5981 -0.5419  0.8283
  223MOL0     C30007   8.162  10.320   6.341 -0.1303 -0.5409  0.1288
  223MOL0     C30008   8.064  10.365   6.225 -0.7960  0.0264 -0.2072
  223MOL0     C30009   8.151  10.409   6.108 -0.3700 -0.2068 -0.7078
  223MOL0     C30010   8.055  10.426   5.983  0.3555 -0.1507 -0.5331
  223MOL0     C30011   8.143  10.443   5.863  0.2479 -0.1246  0.3489
  223MOL0     C30012   8.060  10.481   5.735  0.5916  0.1403  0.1684
  223MOL0     C30013   8.166  10.535   5.632 -1.0295  0.2248  0.1428
  223MOL0    Cl30014   8.325  10.435   5.616  0.5376  0.6245  0.3571
  223MOL0     C30015   8.354  10.615   6.590 -0.0220 -0.3968 -0.0296
  223MOL0     C30016   8.420  10.698   6.682  0.2234  1.0851 -0.6843
  223MOL0     O30017   8.657  10.574   6.971  0.2741 -0.1620  0.0995
  223MOL0     C30018   8.625  10.908   7.093  0.4515  0.8470 -1.3444
  223MOL0     C30019   8.673  10.992   7.193 -0.3331 -0.0436 -0.5248
  223MOL0     N30020   9.383  11.184   7.553 -0.1511 -0.3201  0.9960
  223MOL0     N30021   9.504  11.132   7.539  0.3637  0.1466  0.1628
  223MOL0     C30022  10.523  10.815   7.785  1.0013 -0.1735  1.0871
  223MOL0     C30023  10.648  10.780   7.844  0.0322 -0.7571 -0.0419
  223MOL0     C30024  10.972  10.644   8.103 -0.3407  0.5097  0.3119
  223MOL0     C30025  11.061  10.745   8.060  0.2414 -0.1548  0.1380
  223MOL0     C30026  11.192  10.747   8.104  0.3968 -0.0150  0.4621
  223MOL0     C30027  11.245  10.649   8.193 -0.0366 -0.1720  0.0274
  223MOL0     O30028  11.365  10.646   8.252  0.0814 -0.1767 -0.8660
  223MOL0     C30029  11.464  10.743   8.218 -0.1486  0.4398  0.6078
  223MOL0     C30030  11.540  10.698   8.090  0.3227  0.8763 -0.5757
  223MOL0     C30031  11.561  10.543   8.084 -0.6353  1.3374 -0.7517
  223MOL0     C30032  11.628  10.498   7.953 -0.2825 -0.1725 -0.2719
  223MOL0     C30033  11.600  10.568   7.833  0.5680  0.2539  0.7181
  223MOL0     C30034  11.572  10.627   7.734  0.1080 -0.7138 -0.9712
  223MOL0     C30035  11.152  10.548   8.234  0.5200  0.0409  0.4379
  223MOL0     C30036  11.021  10.539   8.184  0.6668 -0.5214 -0.4855
  223MOL0     C30037  10.939  10.422   8.222 -0.4772  0.0151  0.2230
  223MOL0     H30038  10.570  10.825   8.166 -0.9250  0.1411 -0.4494
  223MOL0     H30039  10.348  10.841   8.072 -1.3060 -2.1344 -1.2951
  223MOL0     H30040  10.352  10.965   7.645  0.8798 -1.8143 -1.0329
  223MOL0     H30041  10.263  10.810   7.628 -1.7753  0.5696  0.1835
  223MOL0     H30042  10.126  11.063   7.717  2.9143  0.2006 -0.0130
  223MOL0     H30043  10.060  10.905   7.673  0.7148  1.0578 -1.0899
  223MOL0     H30044  10.142  10.966   7.427 -1.7332 -0.5062  0.9731
  223MOL0     H30045  10.224  11.104   7.502 -2.0345  3.4412 -1.7197
  223MOL0     H30046   9.934  11.062   7.530 -0.9290  0.6373 -1.5176
  223MOL0     H30047  10.016  11.217   7.558  0.5359  1.1571 -0.9993
  223MOL0     H30048  10.094  11.215   7.315 -1.7590  1.9343 -1.7383
  223MOL0     H30049   9.981  11.073   7.287  3.7390 -0.1717 -1.0285
  223MOL0     H30050   9.937  11.370   7.332  2.5087 -1.2534 -0.7208
  223MOL0     H30051   9.889  11.272   7.201 -3.0803 -3.4052 -0.1474
  223MOL0     H30052   9.692  11.356   7.388 -0.6253  0.2766  4.6663
  223MOL0     H30053   9.783  11.264   7.498 -1.5460 -1.0095  0.0434
  223MOL0     H30054   9.673  11.151   7.241  1.9708 -1.5459  0.1289
  223MOL0     H30055   9.724  11.049   7.366 -0.2663 -0.7946 -0.6482
  223MOL0     H30056   9.432  11.232   7.235  1.6381 -2.0524 -0.8194
  223MOL0     H30057   9.177  11.387   7.413 -6.6199 -0.5977  3.4521
  223MOL0     H30058   9.192  11.278   7.286  1.2699  1.6923  0.2619
  223MOL0     H30059   9.093  11.090   7.429 -2.2703  1.1226 -5.1290
  223MOL0     H30060   9.116  11.195   7.570  0.6916 -0.7876 -0.4561
  223MOL0     H30061   8.940  11.353   7.444 -1.7986  0.8547  0.4624
  223MOL0     H30062   8.883  11.209   7.539 -1.0884 -0.4897 -1.3607
  223MOL0     H30063   8.875  11.245   7.240 -1.0064 -1.2577 -0.8956
  223MOL0     H30064   8.750  11.216   7.366  0.5948  0.9883  1.2397
  223MOL0     H30065   8.944  10.801   7.285  1.7173  1.3167 -1.4000
  223MOL0     H30066   8.845  10.652   7.131 -0.0559 -0.6544 -0.8657
  223MOL0     H30067   8.430  10.491   6.953 -3.1719  1.0531  2.0005
  223MOL0     H30068   8.333  10.330   6.765 -1.4417  0.6582  3.4846
  223MOL0     H30069   8.117  10.488   6.473  2.1852 -0.6371  4.5769
  223MOL0     H30070   8.270  10.509   6.369  1.2517 -3.1573 -1.5673
  223MOL0     H30071   8.246  10.254   6.320 -0.0659  0.0777 -1.6862
  223MOL0     H30072   8.097  10.257   6.402  0.2543 -0.3203  0.7836
  223MOL0     H30073   8.016  10.270   6.201  0.6920 -1.3951  2.0176
  223MOL0     H30074   7.986  10.437   6.251 -0.3489  2.0154 -3.8231
  223MOL0     H30075   8.236  10.340   6.096 -1.1758 -1.3559 -0.0073
  223MOL0     H30076   8.185  10.510   6.134 -0.5915 -0.4641  0.6692
  223MOL0     H30077   7.991  10.512   6.002 -1.3996 -1.8380  1.6642
  223MOL0     H30078   7.986  10.346   5.958 -2.2913  2.1329 -1.0107
  223MOL0     H30079   8.222  10.518   5.880  0.9899 -0.8859  0.3228
  223MOL0     H30080   8.198  10.351   5.846  1.4244  0.5594  0.2962
  223MOL0     H30081   7.983  10.556   5.754 -0.4529 -1.0474  0.7735
  223MOL0     H30082   7.995  10.404   5.693 -1.9839  2.7043 -0.9127
  223MOL0     H30083   8.127  10.542   5.530 -0.6469 -0.3338 -0.0457
  223MOL0     H30084   8.203  10.632   5.666  3.0544 -0.6301 -1.3361
  223MOL0     H30085   8.342  10.661   6.493  1.3800  1.1474  0.4943
  223MOL0     H30086   8.449  10.799   6.655 -0.6295  2.1925  2.1459
  223MOL0     H30087   8.528  10.925   7.046  0.8956  0.9118 -2.2657
  223MOL0     H30088   8.629  11.080   7.237  2.7082  2.3773 -1.8725
  223MOL0     H30089  10.511  10.799   7.678 -1.2108  1.1694  1.0700
  223MOL0     H30090  10.733  10.742   7.789  2.2025  3.4703 -0.0231
  223MOL0     H30091  11.041  10.823   7.987  0.1529  0.1478  0.4804
  223MOL0     H30092  11.268  10.818   8.072  1.7029 -2.1629 -1.4954
  223MOL0     H30093  11.539  10.742   8.298  0.0883  0.9402  0.3958
  223MOL0     H30094  11.429  10.846   8.206 -0.6888  0.0919 -1.1874
  223MOL0     H30095  11.635  10.752   8.098  0.4533  0.3574  3.2833
  223MOL0     H30096  11.486  10.721   7.998  0.7118 -1.4869 -1.4717
  223MOL0     H30097  11.465  10.490   8.089  0.0189  0.0911 -1.0744
  223MOL0     H30098  11.620  10.524   8.174  2.7377  3.2194 -2.3890
  223MOL0     H30099  11.731  10.528   7.974 -1.1038  1.1470  2.2894
  223MOL0     H30100  11.616  10.390   7.938  0.8018 -0.0995 -1.9540
  223MOL0     H30101  11.568  10.679   7.641  0.3247  0.0613 -0.5563
  223MOL0     H30102  11.199  10.473   8.297 -0.7073 -1.2482 -0.1142
  223MOL0     H30103  10.841  10.460   8.253 -0.5016  1.0545 -1.0288
  223MOL0     H30104  10.931  10.371   8.126  2.9557  1.2991 -0.8953
  223MOL0     H30105  10.992  10.359   8.294 -0.5257  0.7514  0.9221
  224MOL0     O30106   8.142   4.230  10.790  0.4191  0.3286  0.1766
  224MOL0     C30107   8.258   4.243  10.814  0.6679  0.3095 -1.2944
  224MOL0     O30108   8.320   4.195  10.932  0.5396  0.0067 -0.0274
  224MOL0     C30109   8.240   4.137  11.034 -0.9253  0.2937 -0.4125
  224MOL0     C30110   8.246   4.178  11.165 -1.0331  0.5796 -1.1533
  224MOL0     C30111   8.176   4.112  11.262 -0.7694 -0.2001 -0.2845
  224MOL0     C30112   8.092   4.008  11.241 -0.3215  0.2145  1.4101
  224MOL0     O30113   8.017   3.930  11.331  0.4853  0.3644  0.7294
  224MOL0     C30114   8.021   3.952  11.467 -0.0895  0.0244 -0.2051
  224MOL0     C30115   7.887   3.989  11.522 -0.1820  0.6338 -0.7564
  224MOL0     C30116   7.802   4.105  11.459 -0.3137 -0.1797  1.0266
  224MOL0     C30117   7.710   4.186  11.563 -0.2190 -0.7279  0.3379
  224MOL0     C30118   7.626   4.310  11.507 -0.4115  0.6054  0.3095
  224MOL0     C30119   7.516   4.366  11.606 -0.2384 -0.3675  0.5989
  224MOL0     C30120   7.404   4.266  11.639  0.7710 -0.1183 -0.1105
  224MOL0     C30121   7.280   4.326  11.702  1.0705  0.5174 -0.3512
  224MOL0     N30122   7.221   4.411  11.603  0.5287 -0.1129  0.8037
  224MOL0     C30123   7.177   4.541  11.622  0.3075  0.6709 -0.9641
  224MOL0     C30124   7.114   4.576  11.508  0.2093 -0.2526 -0.0693
  224MOL0     C30125   7.040   4.703  11.492  0.7050 -0.0012  0.9049
  224MOL0     C30126   7.073   4.807  11.602 -0.3825 -0.4460 -0.0774
  224MOL0     C30127   7.063   4.954  11.559  0.4924  0.1589  1.4114
  224MOL0     C30128   6.920   4.986  11.509 -0.6774  0.4336 -0.7013
  224MOL0     O30129   6.926   5.108  11.436 -0.0312  0.3042 -0.2025
  224MOL0     C30130   6.824   5.118  11.341  0.6501  0.4530  1.1986
  224MOL0     C30131   6.848   5.077  11.205 -0.4273  0.7026 -0.6672
  224MOL0     C30132   6.741   5.062  11.118 -0.2798 -0.6940  0.7503
  224MOL0     C30133   6.625   5.134  11.148  0.8785  0.3298 -0.0509
  224MOL0     C30134   6.523   5.155  11.044  0.1567  0.1299  0.1797
  224MOL0     O30135   6.432   5.258  11.062 -0.3375 -0.7373 -0.2617
  224MOL0     C30136   6.343   5.294  10.960  0.1278  0.3028 -0.1151
  224MOL0     C30137   6.215   5.336  10.994  0.0535  0.2649 -0.1159
  224MOL0     C30138   6.127   5.386  10.901 -0.7363  0.3968  0.5056
  224MOL0     C30139   6.153   5.374  10.763 -0.1904 -0.6512 -0.5213
  224MOL0     O30140   6.067   5.417  10.668  0.0165  0.1927  0.5896
  224MOL0     C30141   6.116   5.445  10.527 -0.3199 -0.4590 -0.2625
  224MOL0     C30142   6.011   5.537  10.449  0.9617  0.4855 -0.8468
  224MOL0     C30143   5.870   5.485  10.460 -0.1026 -0.0213  0.3622
  224MOL0     C30144   5.777   5.548  10.351  0.0514  0.3288 -0.6543
  224MOL0     C30145   5.748   5.697  10.360 -0.4989 -0.4180 -0.6102
  224MOL0     C30146   5.655   5.739  10.240  0.2781  0.3557 -0.9540
  224MOL0     C30147   5.711   5.864  10.165 -0.5991  0.6356 -0.4714
  224MOL0     C30148   5.609   5.918  10.065  0.4905 -0.3674 -0.8549
  224MOL0    Cl30149   5.477   6.012  10.161  0.1119 -0.1877  0.2389
  224MOL0     C30150   6.278   5.326  10.723  1.1296  0.0133 -0.3341
  224MOL0     C30151   6.381   5.294  10.828 -0.0718 -0.7884 -0.5546
  224MOL0     O30152   6.508   5.060  10.971 -0.5217  0.4602  0.1067
  224MOL0     C30153   6.591   5.178  11.281  0.2211 -0.9359 -0.7406
  224MOL0     C30154   6.697   5.173  11.379 -0.0296  0.3196  0.0300
  224MOL0     N30155   7.120   4.463  11.421 -0.1791  0.2792 -0.0587
  224MOL0     N30156   7.174   4.367  11.481  0.6350 -1.2371  0.0128
  224MOL0     C30157   8.094   3.960  11.105  0.6449  0.2167 -0.0009
  224MOL0     C30158   8.163   4.022  11.000 -1.2074 -0.5174  0.9078
  224MOL0     C30159   8.346   4.324  10.727  0.4346  0.4620 -0.5100
  224MOL0     C30160   8.276   4.389  10.621  0.6474 -0.1955  0.2852
  224MOL0     C30161   8.346   4.472  10.533 -0.3957 -1.0264  0.4538
  224MOL0     C30162   8.483   4.497  10.553 -0.2754 -0.0657 -0.3282
  224MOL0     O30163   8.546   4.569  10.451 -0.2359  0.2293  0.4427
  224MOL0     C30164   8.573   4.701  10.484  0.0684 -1.1186 -0.8158
  224MOL0     C30165   8.609   4.773  10.353 -0.8399 -0.4315  0.0346
  224MOL0     C30166   8.754   4.745  10.310 -0.2664  0.3330  0.0021
  224MOL0     C30167   8.771   4.726  10.157 -0.5737  0.4759  0.4041
  224MOL0     C30168   8.688   4.811  10.071  0.5013  1.0250 -0.1441
  224MOL0     C30169   8.606   4.879  10.012  0.1114 -0.2500 -0.3555
  224MOL0     C30170   8.552   4.420  10.647  0.3678 -0.1567 -1.0102
  224MOL0     C30171   8.483   4.335  10.741 -0.9114 -0.9748 -1.0161
  224MOL0     C30172   8.579   4.257  10.835  0.0326 -0.2005  0.9795
  224MOL0     H30173   8.312   4.258  11.197  0.3638 -0.5877 -0.9885
  224MOL0     H30174   8.190   4.144  11.365  0.3278 -2.1356  0.2309
  224MOL0     H30175   8.066   3.870  11.524 -0.2487 -0.1734 -0.3647
  224MOL0     H30176   8.078   4.045  11.482 -0.8785  0.2446  1.6230
  224MOL0     H30177   7.905   4.015  11.627  2.3487  1.4247 -1.3069
  224MOL0     H30178   7.824   3.900  11.527 -0.4837  0.9154  1.2133
  224MOL0     H30179   7.755   4.080  11.363  1.1719 -3.0968  0.9478
  224MOL0     H30180   7.885   4.170  11.431 -0.3717  0.2119  1.7384
  224MOL0     H30181   7.641   4.113  11.607  0.2167 -0.5095  1.4064
  224MOL0     H30182   7.772   4.215  11.648  1.5743 -3.4355  0.1089
  224MOL0     H30183   7.690   4.387  11.462 -3.2314  3.6678  1.1641
  224MOL0     H30184   7.577   4.271  11.417  2.7343 -0.2314 -1.1882
  224MOL0     H30185   7.551   4.419  11.696 -0.4206 -0.4554  0.7208
  224MOL0     H30186   7.467   4.439  11.541 -1.5906 -1.7813 -0.0162
  224MOL0     H30187   7.444   4.193  11.711  0.4829  0.3239  0.5063
  224MOL0     H30188   7.387   4.205  11.550 -0.8076 -0.1646  0.2025
  224MOL0     H30189   7.202   4.252  11.725 -2.6502  4.4207  0.9290
  224MOL0     H30190   7.299   4.379  11.796  2.8656  0.5917 -0.7282
  224MOL0     H30191   7.182   4.589  11.719 -0.2864 -0.0114 -0.5843
  224MOL0     H30192   7.049   4.738  11.389 -1.9215  1.4575  1.0981
  224MOL0     H30193   6.933   4.682  11.496  0.7058 -0.5360 -0.9689
  224MOL0     H30194   6.998   4.790  11.680 -4.0760 -2.7483 -3.7579
  224MOL0     H30195   7.177   4.790  11.630 -0.5697 -3.2852 -0.7478
  224MOL0     H30196   7.139   4.971  11.482 -0.7657 -0.7786 -0.0935
  224MOL0     H30197   7.094   5.015  11.644  1.0475  1.3952  0.3545
  224MOL0     H30198   6.853   4.994  11.595  1.4730 -0.3097  1.1491
  224MOL0     H30199   6.887   4.907  11.441  1.1591 -1.2865  0.2832
  224MOL0     H30200   6.951   5.054  11.182 -0.1661  1.3376 -0.1543
  224MOL0     H30201   6.761   5.014  11.023  0.5078  1.0159  0.0139
  224MOL0     H30202   6.194   5.356  11.099  2.0384  6.1969 -0.4875
  224MOL0     H30203   6.027   5.419  10.927 -0.4448  2.0708 -0.3323
  224MOL0     H30204   6.192   5.523  10.537 -0.1806 -0.6879  0.5335
  224MOL0     H30205   6.137   5.349  10.480  1.8237 -0.4823  0.6319
  224MOL0     H30206   6.005   5.630  10.506  2.3605  1.5186 -2.3095
  224MOL0     H30207   6.038   5.546  10.343 -2.2289 -1.4839 -1.9740
  224MOL0     H30208   5.869   5.376  10.449  1.5768  0.0939 -1.3760
  224MOL0     H30209   5.825   5.513  10.556  0.4678  0.0362  0.6137
  224MOL0     H30210   5.681   5.496  10.354 -0.0214  0.4930  2.4720
  224MOL0     H30211   5.822   5.532  10.252 -1.6386  0.2652 -1.4502
  224MOL0     H30212   5.846   5.746  10.351  0.4738 -2.1745  0.0071
  224MOL0     H30213   5.715   5.719  10.462  2.8842 -3.2782  1.3366
  224MOL0     H30214   5.657   5.658  10.166 -1.5186  1.7208 -2.6246
  224MOL0     H30215   5.553   5.757  10.276  2.1341  2.6088  4.1800
  224MOL0     H30216   5.807   5.833  10.123  0.4458  1.7320  0.9712
  224MOL0     H30217   5.734   5.948  10.232 -0.2370 -1.4600  2.1582
  224MOL0     H30218   5.650   5.991   9.993 -1.1140 -0.5975 -2.0526
  224MOL0     H30219   5.570   5.832  10.010 -1.0894 -2.1628  2.7951
  224MOL0     H30220   6.314   5.324  10.620 -0.3626  1.8492 -0.9767
  224MOL0     H30221   6.483   5.275  10.799  0.2277 -0.6374  0.3688
  224MOL0     H30222   6.490   5.208  11.310  0.4173 -2.6066  2.0687
  224MOL0     H30223   6.674   5.198  11.482 -0.2480 -1.9405  0.5980
  224MOL0     H30224   8.053   3.859  11.108  2.6682 -0.6342  2.1827
  224MOL0     H30225   8.170   3.976  10.902  3.1780  1.5626  0.0116
  224MOL0     H30226   8.171   4.377  10.594  1.1688  1.8492 -3.3740
  224MOL0     H30227   8.294   4.517  10.449  1.1343 -1.5453 -0.8302
  224MOL0     H30228   8.652   4.694  10.559 -0.2512 -4.6489 -0.6352
  224MOL0     H30229   8.485   4.752  10.522 -0.9142 -2.1847 -1.5902
  224MOL0     H30230   8.592   4.880  10.366  1.9187 -0.1708  2.3711
  224MOL0     H30231   8.545   4.739  10.271 -0.4823  1.5714 -1.1166
  224MOL0     H30232   8.793   4.651  10.352 -0.0061 -0.4357 -1.8486
  224MOL0     H30233   8.831   4.819  10.333 -0.4910  1.2060 -1.9006
  224MOL0     H30234   8.876   4.738  10.131 -0.7439 -0.2987 -0.6855
  224MOL0     H30235   8.732   4.628  10.128 -1.5133  0.9160  0.1321
  224MOL0     H30236   8.531   4.935   9.961 -1.3795  0.0377  1.9979
  224MOL0     H30237   8.652   4.447  10.680 -0.6548  2.2955  0.3782
  224MOL0     H30238   8.538   4.203  10.920  1.4031 -0.8180  1.2783
  224MOL0     H30239   8.629   4.183  10.772 -0.1885 -0.8211  1.5242
  224MOL0     H30240   8.661   4.317  10.875  1.9139  0.6954 -3.5421
  225MOL0     O30241   7.879  10.992   4.601 -0.3703 -0.1060 -0.3596
  225MOL0     C30242   7.992  11.019   4.639  0.7450 -0.3689 -0.3901
  225MOL0     O30243   8.035  11.002   4.771 -0.1836  0.5133  0.4601
  225MOL0     C30244   7.955  10.935   4.868 -1.1815  0.7093  0.2300
  225MOL0     C30245   7.846  10.999   4.928  0.2919  0.0219 -0.0811
  225MOL0     C30246   7.794  10.940   5.046  0.4590  0.7014 -0.7346
  225MOL0     C30247   7.835  10.816   5.090  0.0693 -0.0865  0.0936
  225MOL0     O30248   7.780  10.754   5.199 -0.6325  0.3796 -0.2321
  225MOL0     C30249   7.735  10.614   5.175 -0.4722 -0.3564 -1.2259
  225MOL0     C30250   7.747  10.531   5.305 -0.0737  0.5629 -0.1362
  225MOL0     C30251   7.648  10.574   5.414  0.1445 -0.9736  0.2831
  225MOL0     C30252   7.639  10.491   5.544 -0.6895  0.0720  0.0292
  225MOL0     C30253   7.546  10.559   5.643 -0.3721 -0.2695  0.5938
  225MOL0     C30254   7.583  10.508   5.789 -0.0215 -0.6803 -0.3533
  225MOL0     C30255   7.709  10.565   5.863  0.0198 -0.7254  0.6401
  225MOL0     C30256   7.664  10.651   5.982 -0.7474 -0.5750  0.3559
  225MOL0     N30257   7.646  10.585   6.105 -0.4434  0.2513  0.4453
  225MOL0     C30258   7.680  10.637   6.224  0.1698  0.6669 -1.6794
  225MOL0     C30259   7.655  10.544   6.318 -0.0775  0.4212  0.3638
  225MOL0     C30260   7.683  10.544   6.470  0.4466  0.9363 -0.3507
  225MOL0     C30261   7.813  10.462   6.495 -0.4859  0.5930  0.5746
  225MOL0     C30262   7.841  10.425   6.643  0.4357  0.9701 -0.1493
  225MOL0     C30263   7.937  10.309   6.659 -0.4711 -0.1350 -0.1394
  225MOL0     O30264   7.912  10.245   6.782  0.1104 -0.6832  0.5496
  225MOL0     C30265   8.021  10.166   6.823  0.8722  0.8338 -0.0625
  225MOL0     C30266   8.117  10.110   6.750  0.4804 -1.6148  0.2447
  225MOL0     C30267   8.215  10.025   6.812  0.7098  0.4708  1.0018
  225MOL0     C30268   8.207  10.000   6.952 -0.4582  0.8201 -0.6403
  225MOL0     C30269   8.297   9.897   7.014  0.3385 -1.1489 -0.6262
  225MOL0     O30270   8.362   9.808   6.932 -0.1374  0.5274 -0.2433
  225MOL0     C30271   8.488   9.773   6.971  1.1252  0.5049  0.5482
  225MOL0     C30272   8.581   9.851   6.909  0.0094  0.5235  0.5627
  225MOL0     C30273   8.718   9.852   6.956 -0.2340  0.4004  0.1135
  225MOL0     C30274   8.757   9.772   7.056  0.6066  0.1700  0.3124
  225MOL0     O30275   8.887   9.737   7.087 -0.7068  0.0932  0.8487
  225MOL0     C30276   8.974   9.855   7.090  0.3228  0.4378 -0.5733
  225MOL0     C30277   9.094   9.814   7.163 -0.4492 -0.2050 -0.0752
  225MOL0     C30278   9.193   9.939   7.172  0.4638  0.6313  0.6320
  225MOL0     C30279   9.211   9.992   7.313  0.4667 -0.6286 -0.5606
  225MOL0     C30280   9.329  10.085   7.335 -0.0209 -0.1602 -0.0950
  225MOL0     C30281   9.315  10.212   7.251 -0.7583 -0.4059 -0.1909
  225MOL0     C30282   9.227  10.327   7.315 -0.7120 -0.2426 -0.1552
  225MOL0     C30283   9.088  10.349   7.261  0.2747 -0.1951  0.6881
  225MOL0    Cl30284   9.022  10.503   7.340  0.6040  0.0783 -0.2130
  225MOL0     C30285   8.665   9.685   7.106 -0.0870  0.2339  0.6086
  225MOL0     C30286   8.529   9.683   7.066  1.2763 -0.1035 -0.2149
  225MOL0     O30287   8.310   9.913   7.136 -0.5719 -0.0532  0.9125
  225MOL0     C30288   8.106  10.053   7.026  0.4706 -0.5986 -0.2702
  225MOL0     C30289   8.011  10.139   6.962 -0.4598 -0.6013  0.0115
  225MOL0     N30290   7.595  10.433   6.256 -0.2425  0.2453 -0.3938
  225MOL0     N30291   7.584  10.460   6.128 -0.6822  0.8071 -0.0275
  225MOL0     C30292   7.948  10.761   5.028 -0.3943 -0.4088  0.0711
  225MOL0     C30293   8.017  10.827   4.920 -0.0977 -0.2665 -0.6433
  225MOL0     C30294   8.100  11.071   4.549  0.5098  0.7608  0.5022
  225MOL0     C30295   8.215  11.111   4.616  0.1965  0.8499  0.1440
  225MOL0     C30296   8.339  11.121   4.555  0.0073  0.2077 -0.6983
  225MOL0     C30297   8.342  11.130   4.421 -0.0864  0.3049  0.7746
  225MOL0     O30298   8.457  11.136   4.350 -0.4590  0.1695 -0.1560
  225MOL0     C30299   8.548  11.024   4.365 -0.0062 -1.2008 -0.3044
  225MOL0     C30300   8.681  11.040   4.284  0.2858 -0.2133 -0.1351
  225MOL0     C30301   8.745  11.187   4.289 -0.5546  0.2631  0.5559
  225MOL0     C30302   8.891  11.197   4.260 -1.1565  1.0403  0.4078
  225MOL0     C30303   8.911  11.172   4.110 -0.1936  0.3572  0.2443
  225MOL0     C30304   8.935  11.135   3.996 -0.9226 -0.6950  0.7357
  225MOL0     C30305   8.220  11.104   4.345 -0.2941 -0.3865 -0.1528
  225MOL0     C30306   8.096  11.081   4.409 -0.2722  0.4130  0.0447
  225MOL0     C30307   7.972  11.043   4.332 -0.1291 -0.1796  0.0975
  225MOL0     H30308   7.812  11.094   4.889  0.7456  0.2044 -0.0433
  225MOL0     H30309   7.736  11.006   5.111  1.1667  1.0437 -0.4464
  225MOL0     H30310   7.631  10.634   5.146 -0.3736  1.3071 -0.5755
  225MOL0     H30311   7.782  10.565   5.089 -2.6097 -1.1805 -1.9920
  225MOL0     H30312   7.848  10.544   5.342 -1.2991  0.5733  3.5595
  225MOL0     H30313   7.717  10.430   5.276  1.1413 -0.4280  1.9075
  225MOL0     H30314   7.543  10.570   5.385 -0.1138 -2.8048  1.3181
  225MOL0     H30315   7.661  10.679   5.443 -2.5096 -0.8383  1.2317
  225MOL0     H30316   7.607  10.389   5.521 -3.9694  0.4889  2.1857
  225MOL0     H30317   7.742  10.481   5.580 -0.8017  1.0120  0.6357
  225MOL0     H30318   7.556  10.668   5.640  0.9810 -0.4068 -0.3937
  225MOL0     H30319   7.444  10.533   5.611  0.3115 -1.4476 -0.7459
  225MOL0     H30320   7.492  10.518   5.849  0.8225 -2.0472  1.2526
  225MOL0     H30321   7.578  10.399   5.791 -0.8396 -0.7392 -2.7716
  225MOL0     H30322   7.759  10.636   5.796 -0.5490 -0.1900  0.7814
  225MOL0     H30323   7.774  10.481   5.892  0.8084 -0.4497 -0.2464
  225MOL0     H30324   7.740  10.731   5.987  2.0915 -2.7473 -3.0294
  225MOL0     H30325   7.564  10.690   5.963 -1.3869 -2.8576 -1.3244
  225MOL0     H30326   7.721  10.735   6.248  2.9356 -0.5908 -0.8236
  225MOL0     H30327   7.698  10.643   6.515 -1.7030 -0.1105  3.0666
  225MOL0     H30328   7.608  10.478   6.514  0.5171 -0.0229 -1.6176
  225MOL0     H30329   7.794  10.361   6.456  2.5563 -0.9213  2.5551
  225MOL0     H30330   7.896  10.508   6.441 -0.3765 -1.1904 -0.8670
  225MOL0     H30331   7.745  10.400   6.688  0.1653  0.4361 -1.0053
  225MOL0     H30332   7.867  10.503   6.715 -2.3208 -0.9007  3.1944
  225MOL0     H30333   8.042  10.335   6.645 -0.1068 -1.0381  0.8587
  225MOL0     H30334   7.905  10.233   6.586  0.9550 -3.1443  2.1406
  225MOL0     H30335   8.114  10.118   6.642  2.2731  0.8578  0.2978
  225MOL0     H30336   8.283   9.975   6.744 -0.9849  1.5105 -1.5901
  225MOL0     H30337   8.549   9.917   6.829  3.5574  0.3792 -1.1636
  225MOL0     H30338   8.784   9.927   6.915 -0.3074 -0.5897 -1.9473
  225MOL0     H30339   9.006   9.884   6.990  1.5515 -0.5919 -0.5079
  225MOL0     H30340   8.921   9.935   7.142 -2.5966 -2.2902  1.0641
  225MOL0     H30341   9.064   9.783   7.263 -3.8779  1.9893 -0.2716
  225MOL0     H30342   9.137   9.731   7.107 -2.5402 -1.0147 -0.5658
  225MOL0     H30343   9.291   9.914   7.131  1.0490 -2.3481  3.3799
  225MOL0     H30344   9.147  10.021   7.115  1.0901  0.4303 -0.1705
  225MOL0     H30345   9.230   9.909   7.383 -1.6774  1.3571  2.6359
  225MOL0     H30346   9.118  10.039   7.345  1.2271 -1.6697  3.9260
  225MOL0     H30347   9.418  10.036   7.294 -1.4928  0.6548 -4.8885
  225MOL0     H30348   9.343  10.097   7.442  1.8593  3.7453 -0.6184
  225MOL0     H30349   9.417  10.242   7.228  0.7552 -4.9430 -0.3657
  225MOL0     H30350   9.274  10.186   7.153 -4.4608 -0.4197  1.1991
  225MOL0     H30351   9.282  10.421   7.322  1.4283 -1.4865  0.7051
  225MOL0     H30352   9.216  10.309   7.422  1.5170 -0.6760  0.0475
  225MOL0     H30353   9.095  10.357   7.152  3.8751 -2.4336  0.5775
  225MOL0     H30354   9.022  10.266   7.284  0.8662 -1.4287 -1.7602
  225MOL0     H30355   8.689   9.614   7.185  2.4176 -0.8227 -0.9754
  225MOL0     H30356   8.453   9.626   7.119  1.5137  0.2130  0.4775
  225MOL0     H30357   8.104  10.019   7.129  0.8094  1.3927  0.4288
  225MOL0     H30358   7.928  10.173   7.023 -1.6683 -1.7568 -0.9239
  225MOL0     H30359   7.981  10.669   5.076 -0.6926 -0.1277  0.8396
  225MOL0     H30360   8.105  10.775   4.883  1.1982  0.0992  1.7758
  225MOL0     H30361   8.221  11.121   4.724  0.0789  3.4339 -0.0249
  225MOL0     H30362   8.431  11.133   4.611  0.2684  0.7661 -1.2355
  225MOL0     H30363   8.509  10.922   4.355  0.6430 -1.8595  2.7413
  225MOL0     H30364   8.576  11.032   4.471 -1.9566 -1.9223  0.3051
  225MOL0     H30365   8.648  11.019   4.182  0.0462 -3.5084  0.5081
  225MOL0     H30366   8.758  10.967   4.314  1.5635 -0.4128 -3.4328
  225MOL0     H30367   8.740  11.223   4.392 -2.7298  2.8441 -0.3173
  225MOL0     H30368   8.688  11.261   4.232  0.0002 -0.9149 -1.6425
  225MOL0     H30369   8.930  11.295   4.289  0.2502  0.2362  1.3605
  225MOL0     H30370   8.947  11.126   4.323 -0.1714  1.3889 -0.0596
  225MOL0     H30371   8.939  11.102   3.894 -2.8729  1.0700  0.0065
  225MOL0     H30372   8.225  11.104   4.236  1.3812 -1.6230 -0.1233
  225MOL0     H30373   7.876  11.083   4.367 -1.5682 -1.4481 -2.0809
  225MOL0     H30374   7.975  11.040   4.222  1.7803  2.4976 -0.0063
  225MOL0     H30375   7.961  10.936   4.353 -2.4913 -0.4682 -2.0906
  226MOL0     O30376   4.062   1.467   0.964  0.2167 -0.6767 -0.7120
  226MOL0     C30377   3.959   1.479   0.900 -0.2821 -0.3147  1.4161
  226MOL0     O30378   3.839   1.520   0.937 -0.5158  0.7751  0.3402
  226MOL0     C30379   3.793   1.552   1.067 -0.5871  0.1637 -0.4004
  226MOL0     C30380   3.685   1.644   1.077  0.3827  0.3572 -0.0835
  226MOL0     C30381   3.647   1.697   1.202 -0.1526 -0.1602  0.3614
  226MOL0     C30382   3.720   1.664   1.316  0.0949  0.5265 -0.3059
  226MOL0     O30383   3.702   1.711   1.447  0.4534 -0.1564  0.3570
  226MOL0     C30384   3.620   1.828   1.474 -0.4982 -0.1924  0.4066
  226MOL0     C30385   3.599   1.860   1.624  0.2657  0.2331  0.0027
  226MOL0     C30386   3.516   1.992   1.628 -0.3641 -0.2683  0.0430
  226MOL0     C30387   3.522   2.040   1.777 -0.4784 -0.2271  0.1526
  226MOL0     C30388   3.473   2.180   1.793 -0.1100 -0.4483  0.5432
  226MOL0     C30389   3.462   2.210   1.938 -1.1727  0.3535  0.2341
  226MOL0     C30390   3.430   2.358   1.961 -0.0561 -0.2100  0.5943
  226MOL0     C30391   3.529   2.468   1.905 -0.6064 -0.0110  0.2599
  226MOL0     N30392   3.666   2.454   1.972 -0.4523 -0.2425  0.3283
  226MOL0     C30393   3.690   2.446   2.102 -0.2250 -0.5108 -0.4715
  226MOL0     C30394   3.825   2.404   2.104  1.3688  0.4150  0.4276
  226MOL0     C30395   3.905   2.395   2.230  1.0889  0.0489 -0.1851
  226MOL0     C30396   4.018   2.499   2.211 -0.5664 -0.5116  0.1762
  226MOL0     C30397   4.030   2.600   2.327  0.4416 -0.2827  0.9021
  226MOL0     C30398   4.165   2.670   2.307 -0.5090 -0.9943 -0.1184
  226MOL0     O30399   4.269   2.582   2.362  0.1496 -1.5380 -0.3132
  226MOL0     C30400   4.392   2.619   2.317  0.5405  0.3306 -0.1968
  226MOL0     C30401   4.480   2.526   2.276 -0.3125 -0.0505 -0.8772
  226MOL0     C30402   4.604   2.559   2.223  0.7152  0.2456  0.3038
  226MOL0     C30403   4.634   2.689   2.191  0.3875 -0.8742  0.2952
  226MOL0     C30404   4.767   2.732   2.133 -0.0036  0.5828  0.4444
  226MOL0     O30405   4.782   2.861   2.104 -0.1906 -0.5196  0.6772
  226MOL0     C30406   4.911   2.889   2.069 -0.0523  0.1027 -0.3231
  226MOL0     C30407   4.970   2.862   1.941  0.2098 -0.4637 -0.2962
  226MOL0     C30408   5.096   2.914   1.912 -0.0182  1.0017  0.1891
  226MOL0     C30409   5.173   2.971   2.009 -0.8323  0.4692  0.3181
  226MOL0     O30410   5.311   2.987   1.987 -0.0861 -0.4168  0.4447
  226MOL0     C30411   5.353   3.022   1.854 -0.0116  0.8622  0.8722
  226MOL0     C30412   5.404   2.893   1.786 -0.0796  0.5876 -0.5084
  226MOL0     C30413   5.490   2.920   1.661 -0.3541 -0.2874  0.2308
  226MOL0     C30414   5.546   2.790   1.619  0.2234 -0.0978 -0.5394
  226MOL0     C30415   5.645   2.815   1.502 -0.8701 -0.8688 -0.4121
  226MOL0     C30416   5.787   2.835   1.553 -0.4429  0.0820 -0.7590
  226MOL0     C30417   5.873   2.711   1.576 -0.2080 -1.3541  0.1094
  226MOL0     C30418   6.016   2.740   1.649  0.6475  0.3650 -0.3989
  226MOL0    Cl30419   5.984   2.798   1.823 -0.7148  0.2203  0.1080
  226MOL0     C30420   5.116   2.994   2.135 -0.3774 -0.5863  0.5883
  226MOL0     C30421   4.988   2.953   2.161 -0.2054  0.1135 -0.0234
  226MOL0     O30422   4.850   2.639   2.122 -0.1676 -0.0303  0.4908
  226MOL0     C30423   4.548   2.784   2.240  0.4409  0.2103  0.4117
  226MOL0     C30424   4.432   2.751   2.306  0.4270 -0.5382  0.2721
  226MOL0     N30425   3.870   2.391   1.972 -0.3167 -0.4045 -0.4588
  226MOL0     N30426   3.772   2.418   1.898  0.3152  0.7566 -0.2052
  226MOL0     C30427   3.829   1.580   1.303 -1.4830 -0.2524  0.5181
  226MOL0     C30428   3.859   1.514   1.181 -0.6120  0.2874  0.1935
  226MOL0     C30429   3.978   1.438   0.755 -0.6763  0.3720  0.2018
  226MOL0     C30430   4.094   1.357   0.728 -0.1478  0.0860 -0.2338
  226MOL0     C30431   4.122   1.323   0.598 -0.0949  0.2971  0.0903
  226MOL0     C30432   4.031   1.341   0.496  0.6932 -0.2215  0.6819
  226MOL0     O30433   4.065   1.270   0.383  0.0286 -0.0221  0.4903
  226MOL0     C30434   4.055   1.337   0.261 -0.0972 -0.0648  0.3848
  226MOL0     C30435   4.139   1.467   0.262 -0.2536 -0.9186 -0.3437
  226MOL0     C30436   4.130   1.553   0.132 -0.3592  0.3034 -0.0004
  226MOL0     C30437   4.170   1.480   0.006  0.2037  0.1522 -0.0683
  226MOL0     C30438   4.296   1.408   0.018 -0.3511 -0.0379 -0.2880
  226MOL0     C30439   4.403   1.350   0.028  0.2906 -0.4541 -0.4124
  226MOL0     C30440   3.917   1.408   0.520  0.2441  0.1456  1.0991
  226MOL0     C30441   3.882   1.464   0.647 -0.1658 -0.4408  0.9645
  226MOL0     C30442   3.748   1.528   0.652  0.0092 -0.6209 -0.5791
  226MOL0     H30443   3.654   1.688   0.983 -2.2097 -2.8643 -0.9255
  226MOL0     H30444   3.564   1.767   1.199  0.5233  0.6456  0.0224
  226MOL0     H30445   3.688   1.910   1.449  2.4620 -2.7507 -0.5170
  226MOL0     H30446   3.525   1.835   1.420 -0.1331  3.7663 -0.0448
  226MOL0     H30447   3.698   1.876   1.668 -0.0785  0.2796  0.7683
  226MOL0     H30448   3.540   1.792   1.685  2.1047 -1.3062  0.1338
  226MOL0     H30449   3.412   1.975   1.600 -0.8444  0.7449  1.1171
  226MOL0     H30450   3.565   2.070   1.569  0.5609  0.2863  1.4916
  226MOL0     H30451   3.475   1.963   1.839  2.6503 -1.7688  0.8174
  226MOL0     H30452   3.624   2.043   1.816 -0.7395  0.8277  0.7712
  226MOL0     H30453   3.539   2.246   1.737  0.0010 -0.1367  1.0365
  226MOL0     H30454   3.373   2.203   1.754 -0.2182  3.4062  2.6319
  226MOL0     H30455   3.379   2.147   1.971  0.3078 -2.4567 -1.0280
  226MOL0     H30456   3.553   2.191   1.995 -0.8228 -1.0787 -0.7247
  226MOL0     H30457   3.430   2.374   2.069  1.4106  2.4869  0.2913
  226MOL0     H30458   3.332   2.371   1.915 -0.3043 -0.4430  1.0542
  226MOL0     H30459   3.531   2.474   1.796  1.4502  0.5727  0.3045
  226MOL0     H30460   3.496   2.570   1.927 -1.9714 -0.2761 -0.4327
  226MOL0     H30461   3.633   2.486   2.185 -3.0006 -1.2454 -1.9235
  226MOL0     H30462   3.834   2.421   2.309  2.0138 -1.8799  1.3403
  226MOL0     H30463   3.942   2.294   2.251  1.8230 -0.0822 -1.8930
  226MOL0     H30464   4.112   2.445   2.198 -0.4447 -0.3911  0.5400
  226MOL0     H30465   4.010   2.553   2.116  3.7136 -2.1285 -1.3390
  226MOL0     H30466   4.013   2.569   2.431 -3.0585  1.2827  0.9225
  226MOL0     H30467   3.948   2.662   2.290  1.0202 -1.5929 -3.0526
  226MOL0     H30468   4.161   2.767   2.359  0.2964 -0.3837 -1.1477
  226MOL0     H30469   4.174   2.696   2.202  2.3319  1.9199  0.6729
  226MOL0     H30470   4.464   2.424   2.309 -0.8544  1.3432  3.8568
  226MOL0     H30471   4.669   2.477   2.195 -2.8300 -2.3466 -1.1095
  226MOL0     H30472   4.910   2.812   1.866 -1.1493  0.1832  0.3368
  226MOL0     H30473   5.119   2.900   1.807 -0.0103  0.7330  0.2269
  226MOL0     H30474   5.275   3.064   1.791 -0.1754 -2.5540 -1.5002
  226MOL0     H30475   5.432   3.094   1.875 -0.7002  2.1386 -0.7093
  226MOL0     H30476   5.467   2.836   1.856  0.9476 -0.9868 -2.5808
  226MOL0     H30477   5.320   2.829   1.758 -1.5615  1.5704  1.4734
  226MOL0     H30478   5.432   2.973   1.585  1.1414  2.0546  0.6201
  226MOL0     H30479   5.571   2.988   1.687  0.2713 -0.7771 -0.4001
  226MOL0     H30480   5.464   2.724   1.590 -0.9110  2.7351 -4.6386
  226MOL0     H30481   5.602   2.753   1.706 -0.1633 -1.3517 -0.7977
  226MOL0     H30482   5.604   2.890   1.434  0.1237 -3.1880 -3.8601
  226MOL0     H30483   5.654   2.726   1.439 -1.0966 -1.1372 -0.0695
  226MOL0     H30484   5.846   2.893   1.481  0.3955 -0.2685 -0.3705
  226MOL0     H30485   5.782   2.884   1.650 -2.3806 -0.2959 -0.6327
  226MOL0     H30486   5.879   2.652   1.484  0.5489 -4.1494  1.8106
  226MOL0     H30487   5.818   2.656   1.653  1.0291 -1.8300  0.6817
  226MOL0     H30488   6.087   2.657   1.653 -0.3050 -0.4321  0.6005
  226MOL0     H30489   6.085   2.802   1.592  2.1058 -0.3291  0.5320
  226MOL0     H30490   5.177   3.047   2.207 -0.0648 -0.2475  0.0892
  226MOL0     H30491   4.952   2.975   2.262 -1.2161  1.3967 -0.6261
  226MOL0     H30492   4.576   2.888   2.229 -2.9027  1.2141  0.1519
  226MOL0     H30493   4.368   2.835   2.328  1.3110  0.6863 -1.5749
  226MOL0     H30494   3.901   1.563   1.383 -2.1589 -0.0100  1.1881
  226MOL0     H30495   3.953   1.459   1.177 -1.7541 -1.7635 -0.4099
  226MOL0     H30496   4.174   1.355   0.801 -0.0533 -0.1773 -0.3437
  226MOL0     H30497   4.208   1.260   0.579 -0.2113 -0.5020  1.9685
  226MOL0     H30498   3.952   1.370   0.244  0.1259 -0.1419 -1.3471
  226MOL0     H30499   4.075   1.269   0.177 -0.6044 -0.6150  0.7065
  226MOL0     H30500   4.245   1.443   0.280  1.0328  2.5277 -2.5437
  226MOL0     H30501   4.108   1.532   0.344  0.0037 -2.2266  0.8410
  226MOL0     H30502   4.188   1.646   0.140 -0.3014  0.2191  0.5735
  226MOL0     H30503   4.025   1.582   0.126  0.3528  3.0052 -0.7784
  226MOL0     H30504   4.099   1.406  -0.030 -3.2371  2.1885  1.9751
  226MOL0     H30505   4.171   1.549  -0.078  3.1942 -1.4348 -1.4937
  226MOL0     H30506   4.500   1.305   0.022  2.0604  2.7442  1.3340
  226MOL0     H30507   3.843   1.405   0.441 -0.4409  0.9204  1.6981
  226MOL0     H30508   3.672   1.459   0.689 -0.3906  0.8345  1.4708
  226MOL0     H30509   3.735   1.606   0.727 -0.9474  1.7213 -3.0413
  226MOL0     H30510   3.730   1.570   0.553  2.5689  0.8530 -0.4990
  227MOL0     O30511   5.927   0.569   4.540 -0.1595 -0.3362 -0.0329
  227MOL0     C30512   6.003   0.647   4.600  0.5758 -0.5318 -0.3890
  227MOL0     O30513   6.136   0.633   4.623 -0.2933 -0.0690  0.1913
  227MOL0     C30514   6.190   0.512   4.620  0.7501 -0.4833  0.0725
  227MOL0     C30515   6.322   0.505   4.565  0.3566 -0.4196  0.5156
  227MOL0     C30516   6.382   0.373   4.550  0.0843 -0.4885 -0.5861
  227MOL0     C30517   6.319   0.256   4.592 -0.9311 -0.9725 -0.7396
  227MOL0     O30518   6.368   0.129   4.563 -0.5286  0.9305 -0.3232
  227MOL0     C30519   6.505   0.119   4.527 -0.3570  0.3557 -0.7662
  227MOL0     C30520   6.559  -0.026   4.520 -0.0198  0.7003 -1.0062
  227MOL0     C30521   6.715  -0.010   4.521 -0.2166  0.3943  0.0525
  227MOL0     C30522   6.778   0.040   4.387 -0.7269  0.4498  0.1509
  227MOL0     C30523   6.935   0.003   4.375  1.1988  1.4210 -0.2943
  227MOL0     C30524   7.019   0.029   4.500 -0.0667  0.0660 -0.7860
  227MOL0     C30525   7.160  -0.014   4.484 -1.4425  0.5510  0.4584
  227MOL0     C30526   7.161  -0.173   4.499  0.3830 -0.2236  0.4110
  227MOL0     N30527   7.299  -0.230   4.502 -0.3714  0.7654  0.3406
  227MOL0     C30528   7.332  -0.350   4.443 -0.3981  0.2262 -1.2988
  227MOL0     C30529   7.455  -0.388   4.499  0.1735  0.6592  0.6028
  227MOL0     C30530   7.518  -0.522   4.464 -0.0766 -1.0713  0.3607
  227MOL0     C30531   7.442  -0.640   4.526  0.0723 -0.3866  0.7300
  227MOL0     C30532   7.519  -0.774   4.530  0.7685  0.1224 -0.6219
  227MOL0     C30533   7.626  -0.771   4.650 -0.0545  0.7782  0.5894
  227MOL0     O30534   7.684  -0.902   4.674 -0.6134  0.3156  0.0258
  227MOL0     C30535   7.618  -0.987   4.765 -0.0497  0.2914  0.4626
  227MOL0     C30536   7.489  -0.965   4.820  0.2716  0.3295  0.7254
  227MOL0     C30537   7.438  -1.057   4.905 -0.1055  1.4687 -0.0619
  227MOL0     C30538   7.521  -1.158   4.958 -0.0749 -0.3478 -0.1731
  227MOL0     C30539   7.471  -1.237   5.078  0.4956 -0.0199  0.8137
  227MOL0     O30540   7.340  -1.219   5.107 -0.6531 -0.0338 -0.2484
  227MOL0     C30541   7.296  -1.279   5.224  0.1074 -0.7356  0.8141
  227MOL0     C30542   7.205  -1.387   5.228  0.1101 -0.4194 -0.7004
  227MOL0     C30543   7.163  -1.442   5.356  0.1807 -0.3638 -0.1483
  227MOL0     C30544   7.212  -1.393   5.477 -0.4472 -0.0205 -0.1291
  227MOL0     O30545   7.180  -1.457   5.592 -0.4571  0.4768  0.3654
  227MOL0     C30546   7.054  -1.528   5.611  0.0647  0.3276 -0.5122
  227MOL0     C30547   7.046  -1.565   5.763 -0.9040 -1.1384 -0.0036
  227MOL0     C30548   7.073  -1.720   5.771 -0.4318  1.3544  0.2962
  227MOL0     C30549   7.070  -1.795   5.903 -0.9625 -0.5099 -0.1542
  227MOL0     C30550   7.104  -1.945   5.875 -0.3535  0.7466  0.1557
  227MOL0     C30551   7.073  -2.034   5.999  0.0647 -0.4465  0.3520
  227MOL0     C30552   7.088  -2.177   5.959  0.3109 -0.3906 -0.4966
  227MOL0     C30553   6.954  -2.251   5.951  0.2429 -0.2062 -1.5491
  227MOL0    Cl30554   6.859  -2.190   5.816 -0.3987 -0.2317 -0.8850
  227MOL0     C30555   7.316  -1.301   5.470 -0.8965  1.1472  0.7258
  227MOL0     C30556   7.343  -1.237   5.348 -0.6042 -0.0908 -0.2581
  227MOL0     O30557   7.557  -1.296   5.140  0.4800 -0.8262  0.1004
  227MOL0     C30558   7.646  -1.182   4.891  0.2503 -0.4642  0.2370
  227MOL0     C30559   7.689  -1.102   4.789  0.0135  0.0671 -0.5957
  227MOL0     N30560   7.495  -0.304   4.596 -0.6112  0.1546  0.3927
  227MOL0     N30561   7.399  -0.206   4.593 -0.2800 -0.4583 -0.0671
  227MOL0     C30562   6.194   0.264   4.645  0.1698 -0.3254 -0.1034
  227MOL0     C30563   6.127   0.386   4.652 -1.5050 -0.7147 -1.3903
  227MOL0     C30564   5.931   0.754   4.666  0.8182 -0.7478  0.3848
  227MOL0     C30565   5.926   0.764   4.804  0.4806 -0.0665  0.4102
  227MOL0     C30566   5.867   0.869   4.871 -0.0312 -0.4720  1.1573
  227MOL0     C30567   5.801   0.968   4.785  0.2471 -0.1466  0.6589
  227MOL0     O30568   5.740   1.079   4.852  0.3801 -0.1710 -0.3703
  227MOL0     C30569   5.715   1.202   4.783  0.3277 -0.5565  0.0433
  227MOL0     C30570   5.617   1.302   4.848 -0.1507  0.3231 -0.4909
  227MOL0     C30571   5.648   1.347   4.993 -0.2575 -0.1440 -0.2084
  227MOL0     C30572   5.546   1.459   5.028  1.0960 -0.9604 -0.1021
  227MOL0     C30573   5.558   1.500   5.171  0.0789  0.3115 -0.7988
  227MOL0     C30574   5.561   1.498   5.295  0.1784 -1.1586  0.7420
  227MOL0     C30575   5.802   0.958   4.646 -0.4145 -0.3308 -0.0601
  227MOL0     C30576   5.873   0.854   4.585  0.4660 -0.6379  0.2844
  227MOL0     C30577   5.862   0.851   4.431  0.0052 -0.6416 -0.6691
  227MOL0     H30578   6.371   0.598   4.539 -2.6222  1.2823  0.4590
  227MOL0     H30579   6.489   0.378   4.530  0.7684  0.4912  2.7029
  227MOL0     H30580   6.526   0.167   4.430  0.5529 -1.0818 -1.3155
  227MOL0     H30581   6.553   0.167   4.613 -4.7927  0.2428  2.0851
  227MOL0     H30582   6.520  -0.080   4.434  1.3122 -1.4333 -0.3489
  227MOL0     H30583   6.524  -0.083   4.607 -3.7137  0.1578 -2.6755
  227MOL0     H30584   6.751  -0.111   4.543  0.8071  0.7431  0.0340
  227MOL0     H30585   6.750   0.052   4.604 -1.0491 -0.9526  1.4594
  227MOL0     H30586   6.727  -0.018   4.309 -2.2381 -0.0470  1.4505
  227MOL0     H30587   6.757   0.147   4.380 -3.3106 -0.0887 -3.9486
  227MOL0     H30588   6.931  -0.102   4.344 -1.1609  1.5937 -0.7732
  227MOL0     H30589   6.975   0.049   4.285 -1.7073  2.8745 -0.9680
  227MOL0     H30590   7.022   0.136   4.524  2.1868  0.4746 -2.5164
  227MOL0     H30591   6.969  -0.028   4.579  0.5282  2.8343  1.7685
  227MOL0     H30592   7.219   0.019   4.569  0.4339 -1.2911 -0.0510
  227MOL0     H30593   7.198   0.033   4.392 -1.7771 -2.6086 -1.4283
  227MOL0     H30594   7.110  -0.190   4.594 -2.0643  0.7034 -0.6695
  227MOL0     H30595   7.103  -0.224   4.422  0.1647 -0.4914  0.7466
  227MOL0     H30596   7.271  -0.397   4.367 -1.3289 -0.6300 -0.0720
  227MOL0     H30597   7.514  -0.546   4.357 -1.0602 -2.1594  0.6205
  227MOL0     H30598   7.623  -0.522   4.494  0.0456  4.0537  0.7508
  227MOL0     H30599   7.407  -0.617   4.627  2.3333 -1.0498  1.7381
  227MOL0     H30600   7.355  -0.651   4.462 -0.6248 -2.4478  1.9565
  227MOL0     H30601   7.559  -0.804   4.432 -2.5305  0.9734 -2.3689
  227MOL0     H30602   7.436  -0.841   4.554  0.9499 -0.6071 -1.9247
  227MOL0     H30603   7.576  -0.720   4.733 -2.4863  0.6137 -0.6697
  227MOL0     H30604   7.705  -0.699   4.630 -0.0867  1.2600  2.0420
  227MOL0     H30605   7.423  -0.885   4.786  0.9516  1.0226  1.0009
  227MOL0     H30606   7.335  -1.037   4.931 -0.4603 -0.3796  0.0661
  227MOL0     H30607   7.182  -1.438   5.135  0.3820 -2.1911  0.1558
  227MOL0     H30608   7.089  -1.521   5.349 -0.3499  0.1656 -0.5650
  227MOL0     H30609   6.969  -1.464   5.585  1.0212  1.1326 -1.7844
  227MOL0     H30610   7.055  -1.621   5.553  4.2388 -0.4037  0.3665
  227MOL0     H30611   7.112  -1.505   5.826 -0.1435  0.1470 -1.9400
  227MOL0     H30612   6.945  -1.540   5.796  0.3344  2.0604  1.7052
  227MOL0     H30613   7.002  -1.773   5.706 -1.9260  1.2653  1.9167
  227MOL0     H30614   7.172  -1.744   5.731 -1.2062 -0.7706 -0.4618
  227MOL0     H30615   6.968  -1.779   5.941 -0.9072  1.1115 -0.5843
  227MOL0     H30616   7.142  -1.762   5.977 -0.3556 -3.3242  0.6148
  227MOL0     H30617   7.212  -1.954   5.861 -0.5416 -0.7396 -0.5539
  227MOL0     H30618   7.047  -1.974   5.786  3.7310 -2.8038 -1.7035
  227MOL0     H30619   7.146  -2.014   6.078 -0.2892 -1.7261  1.0326
  227MOL0     H30620   6.977  -2.009   6.046 -0.2568 -1.6190  0.3488
  227MOL0     H30621   7.126  -2.238   6.041  0.9740 -0.9964 -1.2318
  227MOL0     H30622   7.148  -2.187   5.868  1.2001  2.1708 -0.2751
  227MOL0     H30623   6.978  -2.356   5.937  1.1663 -1.0317  3.8978
  227MOL0     H30624   6.889  -2.240   6.038 -2.1219 -0.3694 -3.2165
  227MOL0     H30625   7.371  -1.273   5.559  1.2290  2.6903 -0.9441
  227MOL0     H30626   7.415  -1.156   5.346 -3.4766  2.7404  1.4337
  227MOL0     H30627   7.706  -1.268   4.919 -0.5197 -0.8660  0.6737
  227MOL0     H30628   7.779  -1.131   4.737 -0.9010 -1.2565 -1.5104
  227MOL0     H30629   6.126   0.183   4.670  0.3197 -0.3164  0.3404
  227MOL0     H30630   6.027   0.398   4.693 -2.4744 -1.8240 -3.3473
  227MOL0     H30631   5.962   0.678   4.860 -1.2469 -1.4623 -0.5234
  227MOL0     H30632   5.861   0.880   4.979  5.4166  1.5498  1.5358
  227MOL0     H30633   5.663   1.175   4.691 -0.1897  0.8306 -0.1066
  227MOL0     H30634   5.809   1.251   4.757  1.9920 -2.2079  2.4987
  227MOL0     H30635   5.516   1.261   4.844 -0.1377 -0.1627  2.3287
  227MOL0     H30636   5.604   1.387   4.779 -3.2834 -0.1893 -0.7035
  227MOL0     H30637   5.752   1.378   5.006 -1.3467  2.7908  2.6721
  227MOL0     H30638   5.630   1.266   5.064  2.2512  0.6792  1.5290
  227MOL0     H30639   5.566   1.554   4.978  1.3878 -0.4900  0.8888
  227MOL0     H30640   5.444   1.426   5.007  0.6925  1.3261 -2.1369
  227MOL0     H30641   5.564   1.505   5.402  0.7726 -1.2144  0.7291
  227MOL0     H30642   5.749   1.022   4.577  2.2029  2.3597  0.2410
  227MOL0     H30643   5.868   0.948   4.382 -0.2259  1.0741  2.4837
  227MOL0     H30644   5.940   0.786   4.390 -0.7630 -2.7228  1.0122
  227MOL0     H30645   5.777   0.790   4.398 -0.9132 -0.1626  0.7155
  228MOL0     O30646  10.657   8.031   0.974  0.3638 -0.7740 -0.8748
  228MOL0     C30647  10.639   8.155   0.961  0.0693  0.3788 -0.0169
  228MOL0     O30648  10.736   8.247   0.909 -0.1451 -0.0806 -0.0993
  228MOL0     C30649  10.871   8.235   0.889  0.1430  0.5902  0.1510
  228MOL0     C30650  10.954   8.144   0.951 -0.1874 -0.0460  0.3507
  228MOL0     C30651  11.095   8.154   0.939  0.6633 -0.3126 -0.7098
  228MOL0     C30652  11.149   8.263   0.868  0.0773  0.2012 -0.3971
  228MOL0     O30653  11.294   8.255   0.860  0.6578 -0.3262  1.4679
  228MOL0     C30654  11.357   8.343   0.776  0.2267  1.0542  0.0116
  228MOL0     C30655  11.337   8.301   0.628  0.5427  0.6474 -0.2223
  228MOL0     C30656  11.382   8.157   0.596  0.0467  0.4198 -0.7821
  228MOL0     C30657  11.539   8.161   0.607 -0.4231  0.3284 -0.0265
  228MOL0     C30658  11.622   8.026   0.581 -0.5918  0.8731  1.4338
  228MOL0     C30659  11.774   8.053   0.602 -0.7703  0.7367 -0.2798
  228MOL0     C30660  11.811   8.061   0.754 -0.1479 -0.1980 -0.6376
  228MOL0     C30661  11.959   8.104   0.779 -0.0309 -0.3408 -0.2732
  228MOL0     N30662  12.039   7.982   0.796  0.3695  0.4138  0.3128
  228MOL0     C30663  12.169   7.984   0.845  0.0973  0.0438  0.3195
  228MOL0     C30664  12.206   7.852   0.847  0.6824  0.4345 -0.2105
  228MOL0     C30665  12.337   7.794   0.893 -0.4648 -0.3776  0.9254
  228MOL0     C30666  12.376   7.655   0.855 -0.4782  0.2275 -0.2877
  228MOL0     C30667  12.524   7.620   0.898  0.5478  0.3555  0.4717
  228MOL0     C30668  12.547   7.468   0.938 -0.0806  0.1981 -0.1140
  228MOL0     O30669  12.527   7.411   0.817 -0.6722  0.0746  0.3148
  228MOL0     C30670  12.549   7.273   0.806 -0.5544 -0.3121  0.0026
  228MOL0     C30671  12.459   7.199   0.735  0.3996  0.5493  0.2648
  228MOL0     C30672  12.472   7.056   0.730 -0.3453  0.0026  0.0535
  228MOL0     C30673  12.563   6.985   0.810  0.6744  0.4406  0.2339
  228MOL0     C30674  12.570   6.841   0.826  0.6101  1.0330 -0.0445
  228MOL0     O30675  12.683   6.790   0.878  0.4449 -0.2246 -0.5185
  228MOL0     C30676  12.693   6.656   0.892  0.9645 -1.0001  0.5055
  228MOL0     C30677  12.751   6.582   0.790 -1.5808 -0.1218 -0.6996
  228MOL0     C30678  12.770   6.443   0.802  0.1608 -0.3458 -0.2082
  228MOL0     C30679  12.737   6.376   0.925 -0.8356  0.5990  0.2347
  228MOL0     O30680  12.774   6.244   0.937 -0.3178  0.1246  0.2306
  228MOL0     C30681  12.684   6.163   1.011  0.8277  0.4153  0.4381
  228MOL0     C30682  12.733   6.022   1.023 -0.4704 -0.3255 -0.4227
  228MOL0     C30683  12.831   5.989   1.145  0.4224  0.1586 -0.0771
  228MOL0     C30684  12.859   5.844   1.186  0.3367 -0.1612  0.2423
  228MOL0     C30685  12.991   5.837   1.274  0.4135  0.0587  0.1888
  228MOL0     C30686  12.948   5.877   1.418 -0.1635 -0.0529 -0.2284
  228MOL0     C30687  13.056   5.841   1.528  0.8715 -0.5101  0.5301
  228MOL0     C30688  12.995   5.828   1.664 -0.1876 -0.0098  0.1619
  228MOL0    Cl30689  13.102   5.910   1.775 -0.2679 -0.0605  0.1340
  228MOL0     C30690  12.671   6.453   1.018  0.0639  0.5495  0.1918
  228MOL0     C30691  12.640   6.585   1.001 -0.4935  0.2039  0.1683
  228MOL0     O30692  12.470   6.775   0.787  0.3465 -0.3477 -0.1638
  228MOL0     C30693  12.644   7.059   0.894  0.4758 -0.0791  0.3087
  228MOL0     C30694  12.633   7.202   0.895  0.8978 -0.6793 -0.6440
  228MOL0     N30695  12.090   7.774   0.823 -0.0539 -0.2273 -0.5530
  228MOL0     N30696  11.999   7.854   0.779  0.4769  0.8451  0.0184
  228MOL0     C30697  11.075   8.360   0.821 -0.6819  0.7454 -0.1371
  228MOL0     C30698  10.941   8.343   0.826 -0.2398  0.4825  0.5783
  228MOL0     C30699  10.516   8.214   1.017 -0.2633  0.8567 -0.5540
  228MOL0     C30700  10.518   8.345   1.055 -0.0561  0.5127 -0.1428
  228MOL0     C30701  10.407   8.401   1.128 -1.0458  0.3596 -0.0305
  228MOL0     C30702  10.292   8.323   1.138 -1.0949 -0.3282 -0.6165
  228MOL0     O30703  10.200   8.373   1.224 -0.2843 -0.4176 -0.2483
  228MOL0     C30704  10.146   8.501   1.176  1.1280  1.1796  0.7812
  228MOL0     C30705  10.007   8.523   1.240 -0.2956  0.1236 -0.3240
  228MOL0     C30706   9.899   8.430   1.186  1.2826  0.2748  0.4516
  228MOL0     C30707   9.911   8.279   1.218  0.0231  0.4438  0.7994
  228MOL0     C30708   9.801   8.207   1.153  0.2317  0.4267 -0.1298
  228MOL0     C30709   9.731   8.149   1.074 -0.5867  0.1491 -0.4260
  228MOL0     C30710  10.271   8.201   1.079 -0.4182 -0.1672 -0.4388
  228MOL0     C30711  10.389   8.147   1.011 -0.5858  0.1755 -0.9105
  228MOL0     C30712  10.374   8.005   0.949  0.4687  0.5277 -0.1294
  228MOL0     H30713  10.919   8.065   1.017 -0.3525 -1.5208 -1.4126
  228MOL0     H30714  11.160   8.089   0.997  1.9373 -0.1053 -1.8530
  228MOL0     H30715  11.321   8.444   0.796 -0.2213  0.4226  2.9989
  228MOL0     H30716  11.463   8.345   0.805  1.4341 -3.1823 -3.1166
  228MOL0     H30717  11.401   8.367   0.569  4.7608 -3.6832 -1.1079
  228MOL0     H30718  11.236   8.316   0.588  0.5955 -2.2013 -1.7106
  228MOL0     H30719  11.346   8.139   0.494 -0.4528  0.2105 -0.5722
  228MOL0     H30720  11.339   8.084   0.665 -1.1539  1.0206 -0.8643
  228MOL0     H30721  11.578   8.241   0.543 -0.3751  0.7011  0.4688
  228MOL0     H30722  11.573   8.201   0.703  1.3476 -1.6185  0.2199
  228MOL0     H30723  11.590   7.940   0.642  2.7572 -2.1696 -0.6837
  228MOL0     H30724  11.614   8.004   0.474 -3.8638  5.5350  0.4094
  228MOL0     H30725  11.827   7.967   0.562  0.0946  1.7344 -1.3235
  228MOL0     H30726  11.802   8.146   0.551 -0.4963  0.2086 -1.1003
  228MOL0     H30727  11.781   7.977   0.818 -0.1743  0.5269  0.3257
  228MOL0     H30728  11.757   8.146   0.799  0.1408  0.7980 -2.1097
  228MOL0     H30729  11.987   8.168   0.695 -1.9839  1.5040  0.3689
  228MOL0     H30730  11.968   8.162   0.871 -2.5609  1.0980 -0.8205
  228MOL0     H30731  12.239   8.064   0.868  1.8050 -1.1970 -0.2644
  228MOL0     H30732  12.406   7.863   0.844 -2.4916  0.6687 -0.6122
  228MOL0     H30733  12.344   7.809   1.001  0.3416 -1.8387  1.1174
  228MOL0     H30734  12.309   7.580   0.899 -1.0833  2.3259  2.6690
  228MOL0     H30735  12.381   7.643   0.747  0.0801 -1.7508 -0.0813
  228MOL0     H30736  12.556   7.672   0.989 -2.0196  3.3331 -0.1591
  228MOL0     H30737  12.595   7.645   0.819 -1.1791 -1.5124 -1.7927
  228MOL0     H30738  12.478   7.443   1.020 -1.0929 -0.4260 -1.1333
  228MOL0     H30739  12.652   7.452   0.963  1.0366  2.0924 -3.1009
  228MOL0     H30740  12.367   7.233   0.689 -0.0321  0.6634  1.1998
  228MOL0     H30741  12.404   7.005   0.661  2.2845 -2.3689 -0.9684
  228MOL0     H30742  12.791   6.638   0.706 -1.8904 -0.8635 -1.3461
  228MOL0     H30743  12.808   6.392   0.714  1.0631  0.9895 -0.6236
  228MOL0     H30744  12.671   6.205   1.111 -1.3420  1.5466 -0.2696
  228MOL0     H30745  12.585   6.164   0.964  1.6520  0.2061 -1.3639
  228MOL0     H30746  12.646   5.956   1.015 -1.0098  0.5453 -2.7486
  228MOL0     H30747  12.792   6.005   0.932 -0.1473  0.6836 -0.4188
  228MOL0     H30748  12.933   6.027   1.129  0.7130 -1.1500 -1.7743
  228MOL0     H30749  12.779   6.027   1.233  2.5515  0.5934  1.0564
  228MOL0     H30750  12.888   5.778   1.104  2.8396  1.9377 -0.7083
  228MOL0     H30751  12.769   5.792   1.221  0.5107 -0.5562  0.1085
  228MOL0     H30752  13.070   5.899   1.229 -1.9058  3.9259  1.0680
  228MOL0     H30753  13.029   5.734   1.276  0.1262 -0.1996 -2.7011
  228MOL0     H30754  12.939   5.986   1.427 -2.3593 -0.1469 -0.5862
  228MOL0     H30755  12.848   5.839   1.442 -0.0253 -0.6626 -0.6115
  228MOL0     H30756  13.139   5.910   1.542 -1.5738  2.1909  3.0579
  228MOL0     H30757  13.106   5.745   1.508  1.7210 -0.1734  0.9973
  228MOL0     H30758  12.889   5.854   1.668  0.2499  2.5714 -1.8755
  228MOL0     H30759  12.991   5.724   1.697  3.2346 -0.0653  0.7990
  228MOL0     H30760  12.632   6.413   1.111 -0.1239 -0.0303 -0.1327
  228MOL0     H30761  12.589   6.639   1.080  0.1681 -1.0555  1.4964
  228MOL0     H30762  12.716   7.012   0.960  1.9941  2.7440  0.8239
  228MOL0     H30763  12.695   7.260   0.962  1.3548  0.0427 -1.6670
  228MOL0     H30764  11.103   8.454   0.774 -1.2893  0.0504 -1.9931
  228MOL0     H30765  10.890   8.431   0.788 -0.0353  0.8371  1.1048
  228MOL0     H30766  10.607   8.406   1.042 -0.7436  2.5469  3.4487
  228MOL0     H30767  10.413   8.500   1.171 -2.3354  1.5664 -2.4041
  228MOL0     H30768  10.139   8.509   1.067  0.3975 -1.9681  0.5088
  228MOL0     H30769  10.205   8.584   1.216  3.9886 -0.1131 -0.4231
  228MOL0     H30770   9.978   8.625   1.217  1.1006  0.0284 -2.8264
  228MOL0     H30771  10.012   8.524   1.350 -1.3302 -1.3808 -0.2263
  228MOL0     H30772   9.884   8.445   1.079 -0.1612  0.0668  0.6012
  228MOL0     H30773   9.812   8.467   1.240 -0.5352  0.2840 -2.2922
  228MOL0     H30774  10.002   8.243   1.169 -3.1026  0.6375 -6.2042
  228MOL0     H30775   9.899   8.264   1.326  1.7639 -3.0513  0.6315
  228MOL0     H30776   9.648   8.108   1.020  0.2334 -1.8774 -0.2646
  228MOL0     H30777  10.175   8.158   1.106 -0.4884  1.2869  1.8437
  228MOL0     H30778  10.439   7.932   0.998  1.9534  1.5438 -0.5233
  228MOL0     H30779  10.271   7.969   0.940  0.2454 -0.8761  5.0318
  228MOL0     H30780  10.401   8.009   0.843 -0.6860  0.7698 -0.4289
  229MOL0     O30781   4.312   9.424   6.574  0.5076  0.9263  1.0017
  229MOL0     C30782   4.417   9.416   6.628  0.2648 -0.4554 -0.6532
  229MOL0     O30783   4.453   9.335   6.739  0.2839  0.5810  0.2361
  229MOL0     C30784   4.369   9.250   6.802  0.7407  0.3682 -0.4990
  229MOL0     C30785   4.228   9.236   6.783 -0.6522  0.0581 -0.2544
  229MOL0     C30786   4.173   9.141   6.869  0.4878  0.4835  0.2664
  229MOL0     C30787   4.238   9.065   6.972  0.2970 -0.0205  0.9038
  229MOL0     O30788   4.173   8.986   7.066 -0.0204  1.1995  0.3708
  229MOL0     C30789   4.046   9.020   7.105 -0.5258  0.3812 -0.8639
  229MOL0     C30790   3.978   8.913   7.190 -0.2918 -0.5302 -0.3480
  229MOL0     C30791   4.039   8.919   7.333 -0.1226 -0.3982 -0.0202
  229MOL0     C30792   3.960   8.813   7.417 -0.8861  1.0047  0.6257
  229MOL0     C30793   3.997   8.801   7.561 -0.2866 -0.0092  1.2176
  229MOL0     C30794   3.913   8.694   7.637 -0.3247  0.1508 -0.9316
  229MOL0     C30795   3.967   8.674   7.780 -0.6503 -0.2167 -0.0324
  229MOL0     C30796   4.014   8.806   7.844 -0.3200  0.1816  0.7558
  229MOL0     N30797   4.060   8.774   7.983 -0.5973 -0.5391 -0.6349
  229MOL0     C30798   4.003   8.792   8.102 -0.0122  0.0641 -0.6516
  229MOL0     C30799   4.083   8.738   8.201  0.3070  0.8386  0.7704
  229MOL0     C30800   4.070   8.721   8.355 -0.5957 -1.0894 -0.1509
  229MOL0     C30801   3.961   8.621   8.394  0.9910 -0.2927  0.1270
  229MOL0     C30802   3.964   8.487   8.313 -0.8373  0.9172 -0.1031
  229MOL0     C30803   3.866   8.379   8.372 -0.7278  0.2614  0.8364
  229MOL0     O30804   3.916   8.330   8.494 -0.6122  0.6993  0.8561
  229MOL0     C30805   3.865   8.209   8.528  0.0462 -0.4024  0.4717
  229MOL0     C30806   3.757   8.140   8.466 -0.3625 -1.1918 -0.0761
  229MOL0     C30807   3.715   8.019   8.507 -0.3891 -0.4132  0.7337
  229MOL0     C30808   3.767   7.975   8.623 -0.2737  0.2924 -0.0150
  229MOL0     C30809   3.713   7.851   8.679 -0.0604 -0.6230  1.0974
  229MOL0     O30810   3.573   7.840   8.671  0.0022  0.0073 -0.7058
  229MOL0     C30811   3.516   7.718   8.677 -0.3837 -0.2566  0.4294
  229MOL0     C30812   3.582   7.602   8.640  0.2203  0.0116  0.6319
  229MOL0     C30813   3.533   7.477   8.661  0.0220  1.1669 -0.9057
  229MOL0     C30814   3.406   7.468   8.718 -0.5440 -0.3194  0.0044
  229MOL0     O30815   3.324   7.356   8.739  0.5184  0.1696 -0.3909
  229MOL0     C30816   3.392   7.223   8.742 -0.0886 -0.5140  0.6444
  229MOL0     C30817   3.275   7.123   8.763 -0.0002 -0.6550 -0.4382
  229MOL0     C30818   3.210   7.120   8.900 -0.0044  0.4567 -0.8426
  229MOL0     C30819   3.303   7.059   9.003 -0.9829 -0.2715 -0.0757
  229MOL0     C30820   3.255   7.111   9.142  0.4622  0.0635 -0.6630
  229MOL0     C30821   3.266   7.259   9.164 -0.8398  0.1054 -0.0795
  229MOL0     C30822   3.206   7.293   9.304  1.8574 -0.0624  0.9926
  229MOL0     C30823   3.321   7.322   9.413  0.0227 -0.8784  0.3868
  229MOL0    Cl30824   3.357   7.499   9.390  0.5549  0.1227 -0.1627
  229MOL0     C30825   3.343   7.585   8.773  0.9957  0.3388  0.2186
  229MOL0     C30826   3.402   7.714   8.760  0.3724  0.3569 -0.1606
  229MOL0     O30827   3.794   7.771   8.735  0.6111 -0.2141 -1.2639
  229MOL0     C30828   3.858   8.039   8.697 -0.5043 -0.5482 -0.3607
  229MOL0     C30829   3.909   8.156   8.649  0.5649 -0.0658 -0.0300
  229MOL0     N30830   4.182   8.676   8.128  0.4328 -0.0424 -1.1423
  229MOL0     N30831   4.175   8.708   8.004 -0.4486 -0.4819 -0.1440
  229MOL0     C30832   4.375   9.092   6.982  0.0247  1.2108  1.4057
  229MOL0     C30833   4.434   9.180   6.893  0.1697  0.8278  0.2399
  229MOL0     C30834   4.522   9.502   6.579  0.1247  1.1802  0.0889
  229MOL0     C30835   4.642   9.438   6.551 -0.5418  0.9150  0.7300
  229MOL0     C30836   4.743   9.507   6.476  0.6832 -0.2434  0.2944
  229MOL0     C30837   4.743   9.642   6.441 -0.9157  0.5624 -0.0932
  229MOL0     O30838   4.851   9.700   6.378 -0.5585  0.2980  0.9586
  229MOL0     C30839   4.821   9.785   6.262  0.5617 -0.8651 -0.2479
  229MOL0     C30840   4.945   9.808   6.168 -0.0397 -0.0291  0.2978
  229MOL0     C30841   4.893   9.850   6.036 -0.0591 -0.4831  0.5042
  229MOL0     C30842   4.994   9.907   5.932  0.2119  0.2732 -0.4951
  229MOL0     C30843   4.948   9.921   5.790  0.5311 -0.3441 -0.5698
  229MOL0     C30844   4.893   9.920   5.681 -0.7475 -0.2562  0.1968
  229MOL0     C30845   4.621   9.705   6.486 -0.0694 -0.5317 -0.5654
  229MOL0     C30846   4.510   9.629   6.532  0.0418 -0.7259  0.2412
  229MOL0     C30847   4.388   9.712   6.567  0.1573 -0.2509  0.5433
  229MOL0     H30848   4.164   9.276   6.704  0.5327 -0.7940 -1.6989
  229MOL0     H30849   4.067   9.141   6.850  0.7517  2.9585 -1.8456
  229MOL0     H30850   4.051   9.111   7.165  1.5085 -1.2002  1.5789
  229MOL0     H30851   3.976   9.040   7.023 -0.7917  1.4045 -0.3971
  229MOL0     H30852   4.010   8.819   7.145 -1.3171 -0.7605 -0.6275
  229MOL0     H30853   3.868   8.910   7.186 -0.2526 -0.7283 -2.1733
  229MOL0     H30854   4.031   9.020   7.374  1.1617  0.2867 -1.3817
  229MOL0     H30855   4.141   8.880   7.325  0.7536  1.7813 -0.0304
  229MOL0     H30856   3.853   8.831   7.401 -1.1076  0.3439  1.2726
  229MOL0     H30857   3.973   8.720   7.361  3.1463  0.7189  1.7531
  229MOL0     H30858   4.106   8.794   7.567 -0.2676  0.7182  1.8975
  229MOL0     H30859   3.967   8.893   7.613 -0.4931 -1.0506  3.0179
  229MOL0     H30860   3.806   8.716   7.631 -1.2034 -3.7711 -3.8824
  229MOL0     H30861   3.921   8.602   7.579  1.1631 -0.4522  0.1690
  229MOL0     H30862   4.052   8.607   7.764  0.4494  1.4720 -1.7795
  229MOL0     H30863   3.892   8.625   7.842  0.3439  0.4530  1.7879
  229MOL0     H30864   4.099   8.852   7.793  0.0417  0.0047  1.2014
  229MOL0     H30865   3.937   8.883   7.841  0.2414  0.7465  0.7009
  229MOL0     H30866   3.904   8.835   8.119  0.4567  0.2090  2.2738
  229MOL0     H30867   4.168   8.687   8.393 -0.4305 -0.5184 -0.0558
  229MOL0     H30868   4.054   8.821   8.395 -1.2845 -1.2458 -0.0160
  229MOL0     H30869   3.953   8.597   8.500 -1.6774 -0.0923  0.0277
  229MOL0     H30870   3.873   8.679   8.365  2.2135  1.0138 -1.0892
  229MOL0     H30871   4.065   8.445   8.308 -0.7918  1.1693 -3.0889
  229MOL0     H30872   3.937   8.507   8.209  0.3693  1.1785 -0.3806
  229MOL0     H30873   3.849   8.299   8.299  1.0633 -0.3400  1.0299
  229MOL0     H30874   3.773   8.435   8.386 -0.6398  1.4696 -2.5996
  229MOL0     H30875   3.710   8.191   8.383 -1.3301  0.1143  1.2234
  229MOL0     H30876   3.634   7.984   8.444  0.5177  2.1546 -2.1025
  229MOL0     H30877   3.683   7.598   8.600 -0.2095 -3.3508 -0.4437
  229MOL0     H30878   3.577   7.382   8.632 -2.4262 -0.0294 -1.0057
  229MOL0     H30879   3.430   7.216   8.639  0.9512  1.9697  0.7704
  229MOL0     H30880   3.476   7.212   8.811  1.4314 -0.5953 -1.1357
  229MOL0     H30881   3.204   7.146   8.683  1.0137 -0.3370 -1.2614
  229MOL0     H30882   3.300   7.023   8.724 -1.1498  0.0575 -3.3210
  229MOL0     H30883   3.186   7.220   8.937  0.1324 -0.6037  2.4090
  229MOL0     H30884   3.114   7.067   8.899  0.1711  0.1180 -2.2959
  229MOL0     H30885   3.407   7.091   8.995  0.5069 -2.3981  5.8338
  229MOL0     H30886   3.315   6.950   9.000  4.3003 -0.0149  1.9638
  229MOL0     H30887   3.316   7.057   9.215  1.4055  1.6331 -0.2608
  229MOL0     H30888   3.149   7.084   9.150  0.4166  0.7709  2.4974
  229MOL0     H30889   3.373   7.283   9.166 -1.3693  2.8261  2.0886
  229MOL0     H30890   3.210   7.326   9.098  2.1900  2.5151 -0.4304
  229MOL0     H30891   3.132   7.218   9.332 -1.6561  2.1485 -1.6299
  229MOL0     H30892   3.140   7.380   9.302 -1.2918 -2.2219  3.0315
  229MOL0     H30893   3.277   7.311   9.512  1.3029  0.0872  1.0897
  229MOL0     H30894   3.403   7.253   9.391 -0.0843 -1.6169  2.1580
  229MOL0     H30895   3.247   7.584   8.825  0.2513  2.3813 -0.9828
  229MOL0     H30896   3.362   7.811   8.790  0.0859  0.7896 -1.8201
  229MOL0     H30897   3.892   7.998   8.792 -0.1961  1.8661  0.6620
  229MOL0     H30898   3.980   8.208   8.712  1.2904 -1.0784  0.0172
  229MOL0     H30899   4.424   9.037   7.062 -2.1476 -0.8570  1.4194
  229MOL0     H30900   4.534   9.199   6.928  0.8281 -3.9396  1.6011
  229MOL0     H30901   4.662   9.337   6.583  0.1403  0.5071 -0.8658
  229MOL0     H30902   4.836   9.457   6.451  0.4675 -0.8831  0.7446
  229MOL0     H30903   4.788   9.885   6.292  1.6907 -0.4495 -0.3497
  229MOL0     H30904   4.736   9.736   6.214 -0.4632 -0.1018  0.7361
  229MOL0     H30905   4.998   9.712   6.168  0.5716  0.2943 -0.8785
  229MOL0     H30906   5.009   9.889   6.205 -0.0199  0.7203 -1.3166
  229MOL0     H30907   4.813   9.923   6.053  3.0784  4.8869 -4.1702
  229MOL0     H30908   4.834   9.768   5.993 -1.0264  0.1233  0.6497
  229MOL0     H30909   5.030  10.006   5.963  0.5284 -0.0830  0.2879
  229MOL0     H30910   5.085   9.847   5.940 -0.1062 -0.0693  0.8094
  229MOL0     H30911   4.837   9.920   5.590  1.9111  1.9820 -1.5959
  229MOL0     H30912   4.614   9.813   6.484 -1.0003 -0.5683  0.0880
  229MOL0     H30913   4.423   9.808   6.606  0.1882 -0.9150  2.2428
  229MOL0     H30914   4.331   9.735   6.476  0.5249  1.1068  0.6364
  229MOL0     H30915   4.320   9.672   6.643 -0.9249  2.3629  1.0404
  230MOL0     O30916   6.998   0.228   4.072 -0.2549  0.8061 -0.6319
  230MOL0     C30917   7.087   0.207   3.995  0.6340  0.3848  0.6582
  230MOL0     O30918   7.060   0.181   3.866 -0.0998 -0.2408 -0.0174
  230MOL0     C30919   6.957   0.245   3.811  0.9361  0.2682 -0.6740
  230MOL0     C30920   6.915   0.374   3.844  0.8908 -1.0038 -0.2942
  230MOL0     C30921   6.808   0.444   3.778 -0.1557  0.2596  0.6460
  230MOL0     C30922   6.742   0.370   3.669  0.5680 -0.4586 -0.3145
  230MOL0     O30923   6.623   0.406   3.612  0.2050 -0.7804  0.1289
  230MOL0     C30924   6.555   0.511   3.680 -0.2262 -0.0303  0.1548
  230MOL0     C30925   6.428   0.543   3.600 -0.0787 -0.3835 -0.9593
  230MOL0     C30926   6.325   0.646   3.663 -0.5882 -0.2449 -0.0088
  230MOL0     C30927   6.363   0.798   3.651 -0.0026  0.2939 -0.1829
  230MOL0     C30928   6.293   0.883   3.760 -0.5735  0.1846 -0.6102
  230MOL0     C30929   6.366   0.870   3.895 -0.1393  0.4053  0.2210
  230MOL0     C30930   6.309   0.958   4.000  0.1183  0.3015 -0.7993
  230MOL0     C30931   6.168   0.921   4.047  0.6891  1.0084 -0.2991
  230MOL0     N30932   6.179   0.800   4.137 -0.0003  0.4135 -0.3097
  230MOL0     C30933   6.112   0.679   4.127 -0.2541 -0.2803 -0.1677
  230MOL0     C30934   6.142   0.615   4.243  0.2625  0.1148 -0.1820
  230MOL0     C30935   6.092   0.475   4.269  0.2169  0.1653  0.2951
  230MOL0     C30936   6.166   0.371   4.180 -0.1558  1.2069 -0.2338
  230MOL0     C30937   6.084   0.254   4.163 -0.7259  0.4844  1.1491
  230MOL0     C30938   6.096   0.163   4.289 -0.3194  0.4019 -0.1448
  230MOL0     O30939   6.004   0.049   4.270  0.2981  0.6293  0.9836
  230MOL0     C30940   6.005  -0.057   4.359 -1.3052 -0.6498 -0.5623
  230MOL0     C30941   5.900  -0.147   4.354  0.2564 -0.0402  0.3168
  230MOL0     C30942   5.888  -0.255   4.445  0.1171 -0.3303 -0.4669
  230MOL0     C30943   5.987  -0.277   4.541 -0.0797  0.1207  0.8473
  230MOL0     C30944   5.975  -0.387   4.638  0.9450 -0.8170 -0.3536
  230MOL0     O30945   6.068  -0.386   4.748  0.4305  0.0886  0.2084
  230MOL0     C30946   6.056  -0.503   4.827  0.1703 -0.6756  0.3572
  230MOL0     C30947   6.010  -0.494   4.957  0.7569  0.7942  0.3901
  230MOL0     C30948   5.975  -0.614   5.027  0.9674 -0.7851  0.5166
  230MOL0     C30949   6.006  -0.735   4.987 -0.6432 -0.0283  0.9794
  230MOL0     O30950   5.995  -0.850   5.057 -0.0639  1.6008  0.2719
  230MOL0     C30951   5.910  -0.862   5.166  0.1711  0.2731  0.6730
  230MOL0     C30952   5.990  -0.849   5.297  0.1906 -0.3516 -0.6320
  230MOL0     C30953   5.919  -0.878   5.431 -0.4828  0.0822 -0.8084
  230MOL0     C30954   5.790  -0.801   5.453  0.5281  0.1751  0.4811
  230MOL0     C30955   5.747  -0.808   5.598  0.0940  0.2544  0.3395
  230MOL0     C30956   5.592  -0.806   5.603  0.2850 -0.4299 -0.6629
  230MOL0     C30957   5.550  -0.764   5.750 -0.1429  0.2100  0.9381
  230MOL0     C30958   5.402  -0.786   5.781  0.1057  0.4336 -0.0274
  230MOL0    Cl30959   5.296  -0.683   5.669  0.1541  0.0214  0.7434
  230MOL0     C30960   6.071  -0.746   4.858 -0.0454 -0.5932  1.3111
  230MOL0     C30961   6.093  -0.635   4.778  0.4011  0.3850  0.2628
  230MOL0     O30962   5.898  -0.483   4.611 -0.0594  0.7014  0.5371
  230MOL0     C30963   6.096  -0.178   4.556  0.6061  0.4678 -0.5747
  230MOL0     C30964   6.104  -0.079   4.461  1.4142 -0.4643  1.1195
  230MOL0     N30965   6.237   0.689   4.311  0.1612  0.2816 -0.2073
  230MOL0     N30966   6.257   0.799   4.248 -0.0437 -0.2388 -0.6969
  230MOL0     C30967   6.786   0.234   3.641 -0.3974  0.0617 -0.9706
  230MOL0     C30968   6.894   0.182   3.714  0.4546 -0.4991 -0.1957
  230MOL0     C30969   7.214   0.173   4.053  0.3061 -0.0323  0.3854
  230MOL0     C30970   7.288   0.070   3.984 -0.2431 -0.4519  0.2696
  230MOL0     C30971   7.420   0.039   4.013 -0.0032  1.0694 -0.5056
  230MOL0     C30972   7.477   0.080   4.128 -0.2458 -0.0122  0.0648
  230MOL0     O30973   7.586   0.016   4.177 -0.0178  0.1324 -0.6499
  230MOL0     C30974   7.561  -0.063   4.304  1.2702 -0.3022  1.1387
  230MOL0     C30975   7.691  -0.125   4.354 -0.8224 -0.4600 -0.6535
  230MOL0     C30976   7.821  -0.028   4.366 -0.1589  0.0480 -0.5661
  230MOL0     C30977   7.944  -0.114   4.393 -0.0519  0.4776  0.9296
  230MOL0     C30978   8.060  -0.024   4.399 -0.2526 -0.6638 -1.3193
  230MOL0     C30979   8.146   0.061   4.430  0.1357 -1.0376 -0.2487
  230MOL0     C30980   7.411   0.189   4.202 -0.4367  1.2333  0.2137
  230MOL0     C30981   7.282   0.235   4.164  0.3848  0.2366  1.5775
  230MOL0     C30982   7.209   0.339   4.242 -0.5307 -0.2205  0.1264
  230MOL0     H30983   6.968   0.427   3.922  1.1212 -3.9979  1.7632
  230MOL0     H30984   6.781   0.541   3.818 -5.6640 -0.8612  0.4482
  230MOL0     H30985   6.513   0.481   3.776 -1.3529  2.0870  0.3792
  230MOL0     H30986   6.612   0.604   3.686  0.7470 -0.7374  3.9286
  230MOL0     H30987   6.374   0.452   3.571 -1.2591 -0.0361  0.0670
  230MOL0     H30988   6.454   0.591   3.505  1.4494  2.3683  0.7144
  230MOL0     H30989   6.289   0.620   3.763  0.5093 -0.5115  0.3316
  230MOL0     H30990   6.246   0.638   3.588 -2.1244  1.9354  1.2892
  230MOL0     H30991   6.472   0.808   3.657 -0.0721  0.1188  2.4034
  230MOL0     H30992   6.329   0.823   3.550 -1.6631 -0.7572  0.0729
  230MOL0     H30993   6.286   0.984   3.717  1.5574  1.3876  1.6204
  230MOL0     H30994   6.198   0.832   3.774  0.4257 -1.0890  2.3041
  230MOL0     H30995   6.369   0.762   3.915 -2.9906 -0.0251 -1.1759
  230MOL0     H30996   6.468   0.896   3.864  0.2825 -0.4984  0.8239
  230MOL0     H30997   6.291   1.060   3.965  0.1695  0.8814  0.7722
  230MOL0     H30998   6.374   0.969   4.088  1.5210  1.2071 -1.8962
  230MOL0     H30999   6.131   1.005   4.105  1.3815  2.0359 -1.2995
  230MOL0     H31000   6.103   0.902   3.961  2.4909  3.7911 -2.4735
  230MOL0     H31001   6.039   0.657   4.050 -2.2531  3.0251  0.5584
  230MOL0     H31002   6.114   0.446   4.372 -1.6153 -0.4442  0.5592
  230MOL0     H31003   5.983   0.481   4.260  0.1614 -0.0132  0.8009
  230MOL0     H31004   6.191   0.425   4.088 -1.5732  0.7436 -0.9263
  230MOL0     H31005   6.257   0.328   4.224  0.0085  2.0069  0.2260
  230MOL0     H31006   6.122   0.204   4.073 -1.2953  2.6919 -0.4019
  230MOL0     H31007   5.978   0.273   4.144 -0.2786  1.0743 -1.0351
  230MOL0     H31008   6.081   0.219   4.382 -2.8011  0.7977 -0.6942
  230MOL0     H31009   6.198   0.126   4.300 -1.2534 -2.1121  0.8451
  230MOL0     H31010   5.814  -0.131   4.291  0.5462  2.6150  0.4729
  230MOL0     H31011   5.794  -0.311   4.450  0.1568 -0.3070  0.6191
  230MOL0     H31012   5.970  -0.401   4.997 -0.5371  0.1316  0.6981
  230MOL0     H31013   5.921  -0.603   5.121  0.8572 -0.2056  0.3881
  230MOL0     H31014   5.823  -0.795   5.167 -2.3956 -2.8647  0.8250
  230MOL0     H31015   5.862  -0.959   5.156 -1.9089  1.3797 -0.9546
  230MOL0     H31016   6.081  -0.909   5.289  0.4278 -0.0871 -0.0170
  230MOL0     H31017   6.014  -0.743   5.310  3.5430 -1.1158  0.3540
  230MOL0     H31018   5.883  -0.981   5.447 -0.6655 -0.1996 -2.8188
  230MOL0     H31019   5.993  -0.866   5.510 -0.3913 -3.6239 -0.1541
  230MOL0     H31020   5.712  -0.848   5.392  1.4116 -1.6782  0.7312
  230MOL0     H31021   5.793  -0.694   5.429 -1.0883  0.1034 -0.2146
  230MOL0     H31022   5.790  -0.733   5.665 -0.2803 -2.4588  3.8909
  230MOL0     H31023   5.770  -0.909   5.634  2.1197  0.0850 -1.2130
  230MOL0     H31024   5.554  -0.736   5.528  0.9820  0.5003 -0.1672
  230MOL0     H31025   5.551  -0.900   5.565  3.1735 -1.8750 -0.5073
  230MOL0     H31026   5.578  -0.663   5.780 -2.3365  0.2306  3.3440
  230MOL0     H31027   5.605  -0.828   5.819 -0.9718  1.0399  2.4484
  230MOL0     H31028   5.378  -0.892   5.768 -1.7357  0.8089  0.1075
  230MOL0     H31029   5.375  -0.765   5.885 -2.6182 -2.4971  0.0132
  230MOL0     H31030   6.100  -0.846   4.830 -0.4674 -0.4123  0.1948
  230MOL0     H31031   6.139  -0.632   4.680 -1.6159  1.1960 -0.7084
  230MOL0     H31032   6.174  -0.181   4.632  0.2306  0.8076 -0.1754
  230MOL0     H31033   6.188  -0.012   4.451  2.5355 -1.7864  1.4870
  230MOL0     H31034   6.742   0.173   3.562  0.8627 -0.2175 -1.4784
  230MOL0     H31035   6.920   0.079   3.690 -1.2310 -0.5936 -1.8730
  230MOL0     H31036   7.246   0.022   3.897  1.0737  2.1523 -1.9734
  230MOL0     H31037   7.469  -0.043   3.961 -1.2354 -0.0155 -0.0381
  230MOL0     H31038   7.498  -0.149   4.281  0.7437  0.8520 -2.2576
  230MOL0     H31039   7.511  -0.002   4.380 -0.5071  0.4974 -0.5951
  230MOL0     H31040   7.712  -0.216   4.298  4.3148 -0.1211  0.2957
  230MOL0     H31041   7.662  -0.149   4.457  0.3734 -1.2827 -0.4894
  230MOL0     H31042   7.811   0.047   4.445  1.5193  4.5478 -4.1792
  230MOL0     H31043   7.836   0.037   4.279  1.0653  2.1167  1.1010
  230MOL0     H31044   7.926  -0.164   4.489 -0.5754  0.4700  0.8308
  230MOL0     H31045   7.961  -0.187   4.314 -1.2552  0.2877  0.8271
  230MOL0     H31046   8.225   0.123   4.468  0.1976 -0.8724 -0.6471
  230MOL0     H31047   7.468   0.227   4.286 -0.2163  1.7180 -0.1545
  230MOL0     H31048   7.143   0.293   4.317  1.4313 -2.0086  0.8543
  230MOL0     H31049   7.282   0.413   4.275 -1.3403 -0.0106  1.5620
  230MOL0     H31050   7.141   0.397   4.178 -0.5437  0.9925  1.1932
  231MOL0     O31051   6.406   4.613   4.724  0.3159 -0.4979  0.2865
  231MOL0     C31052   6.299   4.613   4.785 -0.5704  0.4362 -1.1348
  231MOL0     O31053   6.220   4.719   4.801  0.1666 -0.7636  0.4461
  231MOL0     C31054   6.223   4.825   4.712 -0.0453  0.2003  0.3486
  231MOL0     C31055   6.245   4.794   4.574 -0.5966 -0.9116 -0.0381
  231MOL0     C31056   6.253   4.899   4.475  0.1082  0.3374 -0.0433
  231MOL0     C31057   6.241   5.032   4.511 -0.2192  0.4725  0.5080
  231MOL0     O31058   6.218   5.117   4.406  0.4861  0.2678 -0.0361
  231MOL0     C31059   6.319   5.147   4.313  0.6585  0.1670 -0.2125
  231MOL0     C31060   6.253   5.240   4.219  0.1625  0.9672 -0.0080
  231MOL0     C31061   6.190   5.184   4.086 -0.2823  0.3636  0.1953
  231MOL0     C31062   6.299   5.121   3.990  0.3747 -0.2248 -0.0756
  231MOL0     C31063   6.364   5.213   3.880 -0.0718  1.5106 -0.1031
  231MOL0     C31064   6.486   5.143   3.822  0.3210 -0.1929 -0.2613
  231MOL0     C31065   6.488   5.184   3.671 -0.2715 -0.2796 -0.4334
  231MOL0     C31066   6.609   5.125   3.610  0.0852  0.9586  0.5695
  231MOL0     N31067   6.611   5.138   3.462 -0.0717 -0.4631 -0.5160
  231MOL0     C31068   6.544   5.219   3.384  0.4409  0.1447 -0.5891
  231MOL0     C31069   6.575   5.190   3.262 -0.9810 -0.1494 -0.0681
  231MOL0     C31070   6.492   5.234   3.139 -0.4077 -1.2025 -0.0210
  231MOL0     C31071   6.517   5.390   3.118 -1.3189  0.2939  0.6191
  231MOL0     C31072   6.436   5.460   3.011  0.0871 -0.4638 -0.1789
  231MOL0     C31073   6.286   5.487   3.056  1.0423  0.6598  0.0666
  231MOL0     O31074   6.202   5.553   2.959 -0.1393 -0.5016 -0.6289
  231MOL0     C31075   6.074   5.562   2.997  0.6941 -0.6894 -0.1623
  231MOL0     C31076   6.004   5.684   3.007  0.4872 -0.3237  1.1488
  231MOL0     C31077   5.866   5.690   3.024  0.9272  1.0350 -0.7191
  231MOL0     C31078   5.791   5.570   3.047  0.2858  0.6454 -1.7745
  231MOL0     C31079   5.641   5.575   3.060 -0.1768  0.9260  0.7712
  231MOL0     O31080   5.597   5.697   3.092  0.2085  0.3323 -0.3112
  231MOL0     C31081   5.472   5.730   3.133 -0.4696 -0.3720  0.5931
  231MOL0     C31082   5.441   5.745   3.267  1.2051 -0.6846 -0.3622
  231MOL0     C31083   5.310   5.789   3.307  0.7153  0.0619  0.0167
  231MOL0     C31084   5.217   5.823   3.206  0.4014  0.5717  1.4536
  231MOL0     O31085   5.086   5.876   3.218 -0.1516  0.5800  0.6541
  231MOL0     C31086   5.045   5.928   3.347 -0.6152 -0.3843  0.1642
  231MOL0     C31087   4.904   5.976   3.353  1.1974  0.7084 -1.0108
  231MOL0     C31088   4.884   6.098   3.274  0.4751  0.0582 -0.0875
  231MOL0     C31089   4.905   6.084   3.115  0.0545 -0.3206 -1.0486
  231MOL0     C31090   4.830   6.186   3.032 -0.4876  0.0810  0.1085
  231MOL0     C31091   4.890   6.324   3.073  0.4890 -0.2841 -0.5303
  231MOL0     C31092   5.029   6.343   3.024 -0.5491  0.2906 -0.2587
  231MOL0     C31093   5.091   6.486   3.030 -0.2563 -0.4196 -0.3401
  231MOL0    Cl31094   5.002   6.578   2.917  0.0748  0.0574 -1.0703
  231MOL0     C31095   5.248   5.785   3.075 -0.0015  1.0024 -0.3040
  231MOL0     C31096   5.379   5.745   3.035  1.2998 -0.4176  0.6066
  231MOL0     O31097   5.582   5.464   3.063 -0.5792 -0.2057  0.0996
  231MOL0     C31098   5.862   5.455   3.062  0.1462 -0.6933 -0.6571
  231MOL0     C31099   5.997   5.442   3.027 -0.2514  0.1962 -0.5257
  231MOL0     N31100   6.675   5.085   3.268  0.6166  0.1274 -0.1117
  231MOL0     N31101   6.697   5.059   3.387  0.3830  0.2689  0.0102
  231MOL0     C31102   6.223   5.055   4.647 -0.1740 -0.3719 -0.2329
  231MOL0     C31103   6.211   4.960   4.746 -0.6278 -1.4141 -0.0604
  231MOL0     C31104   6.274   4.500   4.865 -0.4128  0.8960  0.1623
  231MOL0     C31105   6.370   4.404   4.881 -0.6958 -0.2119 -1.0960
  231MOL0     C31106   6.352   4.290   4.959  0.7667  0.0141  1.1497
  231MOL0     C31107   6.230   4.255   4.999  0.6344 -0.3627  0.4119
  231MOL0     O31108   6.202   4.133   5.045  0.2109  0.5146  0.3889
  231MOL0     C31109   6.197   4.029   4.937 -0.3050  0.6715  0.3573
  231MOL0     C31110   6.201   3.897   5.022  0.3722  0.2363 -0.5627
  231MOL0     C31111   6.206   3.788   4.923  0.0411  0.2734  0.3966
  231MOL0     C31112   6.204   3.658   4.993  0.0885 -0.7531  0.0246
  231MOL0     C31113   6.205   3.549   4.893  0.1111 -0.5599  0.3324
  231MOL0     C31114   6.203   3.466   4.809 -0.8691  0.0314 -0.4824
  231MOL0     C31115   6.128   4.339   4.964  0.7480 -0.9797  0.0119
  231MOL0     C31116   6.145   4.459   4.900  0.2752  0.1505 -1.3739
  231MOL0     C31117   6.007   4.520   4.864  0.3338  0.4579  0.1157
  231MOL0     H31118   6.228   4.690   4.549 -1.4843 -0.9296  0.5907
  231MOL0     H31119   6.263   4.861   4.374 -2.3523  1.9652 -1.0012
  231MOL0     H31120   6.407   5.186   4.364  0.5766  0.2593 -0.1411
  231MOL0     H31121   6.338   5.056   4.257  1.4206  1.0108 -1.3718
  231MOL0     H31122   6.338   5.300   4.184 -2.1219  3.1614 -2.3256
  231MOL0     H31123   6.181   5.309   4.264 -1.1613  0.0408 -0.6335
  231MOL0     H31124   6.143   5.270   4.037 -0.9277 -0.3020 -0.3709
  231MOL0     H31125   6.114   5.108   4.107  0.0975 -1.0577 -3.0882
  231MOL0     H31126   6.374   5.073   4.055 -1.9743  0.1636  3.1534
  231MOL0     H31127   6.253   5.033   3.942 -1.2445 -0.1096  1.1848
  231MOL0     H31128   6.278   5.218   3.812 -2.4538 -1.5080  2.3738
  231MOL0     H31129   6.384   5.309   3.929  1.4675  1.3665 -0.3946
  231MOL0     H31130   6.580   5.173   3.871  2.3508 -5.0373 -0.6653
  231MOL0     H31131   6.472   5.036   3.838 -1.7895  0.5546  4.9324
  231MOL0     H31132   6.491   5.293   3.672  1.2540 -0.2398  2.8375
  231MOL0     H31133   6.399   5.146   3.619 -0.0240 -1.0079 -0.3364
  231MOL0     H31134   6.702   5.161   3.654  0.6034 -0.6405  0.8129
  231MOL0     H31135   6.619   5.023   3.646  0.3877  0.8878  0.2862
  231MOL0     H31136   6.458   5.281   3.405 -2.4112 -3.6579 -0.0105
  231MOL0     H31137   6.537   5.173   3.061 -1.0385 -4.1926  1.8245
  231MOL0     H31138   6.384   5.217   3.136 -1.1780  2.4831  0.8941
  231MOL0     H31139   6.516   5.441   3.215  5.1616 -0.7226  1.6619
  231MOL0     H31140   6.620   5.395   3.081 -1.6558 -0.4679 -0.4972
  231MOL0     H31141   6.432   5.393   2.925 -2.5539 -0.0842 -0.4261
  231MOL0     H31142   6.483   5.552   2.975  0.3634 -0.8587 -0.8583
  231MOL0     H31143   6.280   5.549   3.146  4.4246  0.9129  0.2166
  231MOL0     H31144   6.252   5.386   3.082  2.4148 -0.0720 -0.8402
  231MOL0     H31145   6.061   5.777   3.004  0.3343 -0.2375 -1.8473
  231MOL0     H31146   5.825   5.791   3.029  1.6984  1.2896  1.2127
  231MOL0     H31147   5.508   5.730   3.351  3.5108  2.2104 -1.5432
  231MOL0     H31148   5.293   5.809   3.412 -0.6275  2.1538 -0.5395
  231MOL0     H31149   5.063   5.851   3.423  0.2962 -0.9713 -0.6166
  231MOL0     H31150   5.120   6.007   3.359 -1.5898  0.2389  2.8087
  231MOL0     H31151   4.838   5.900   3.310 -0.6637  3.0303 -2.4760
  231MOL0     H31152   4.875   5.997   3.457  2.4568 -0.8217 -0.3076
  231MOL0     H31153   4.779   6.116   3.295  0.3859 -0.7330  0.1803
  231MOL0     H31154   4.944   6.181   3.311 -2.4906  3.3142 -1.9857
  231MOL0     H31155   4.861   5.992   3.075  0.7057 -1.0349 -0.1902
  231MOL0     H31156   5.011   6.092   3.090 -0.5242  2.8221 -3.0193
  231MOL0     H31157   4.728   6.189   3.071  0.3966  1.7125  2.5729
  231MOL0     H31158   4.839   6.167   2.925 -0.3943 -0.3516  0.1900
  231MOL0     H31159   4.830   6.411   3.044  1.9665  0.7873 -0.4990
  231MOL0     H31160   4.880   6.329   3.182  1.2841 -0.8429 -0.4246
  231MOL0     H31161   5.023   6.312   2.919  3.4978  2.7359 -1.4167
  231MOL0     H31162   5.097   6.276   3.076  0.0297 -0.4914 -1.9444
  231MOL0     H31163   5.086   6.527   3.131 -1.6506  2.5797 -1.5046
  231MOL0     H31164   5.196   6.469   3.005  0.6802  0.4960  2.5501
  231MOL0     H31165   5.167   5.791   3.004 -2.9149 -0.3629  2.6398
  231MOL0     H31166   5.410   5.719   2.934  0.0910 -5.0061  1.1981
  231MOL0     H31167   5.810   5.365   3.094  0.6241 -0.6735  0.2266
  231MOL0     H31168   6.048   5.347   3.034 -0.8589 -0.0095  1.9138
  231MOL0     H31169   6.241   5.159   4.674  3.3400 -0.5954 -1.1334
  231MOL0     H31170   6.188   4.991   4.848 -0.1741  0.7092 -0.5419
  231MOL0     H31171   6.474   4.427   4.857  0.5390 -0.4265  3.1914
  231MOL0     H31172   6.430   4.216   4.973 -0.3110 -1.5638 -0.7116
  231MOL0     H31173   6.289   4.031   4.878 -0.4834  1.1758  0.0946
  231MOL0     H31174   6.105   4.029   4.878  0.1416 -1.2511 -0.4240
  231MOL0     H31175   6.111   3.880   5.083  0.0911  0.7474 -0.8220
  231MOL0     H31176   6.295   3.888   5.077  1.4232  0.5194 -2.2383
  231MOL0     H31177   6.295   3.808   4.862 -0.4176  1.8032  0.1744
  231MOL0     H31178   6.125   3.796   4.849  0.3921  2.9646  0.1999
  231MOL0     H31179   6.302   3.660   5.042 -1.1649  2.6110  2.7938
  231MOL0     H31180   6.123   3.659   5.067  0.8164  4.0971  1.0643
  231MOL0     H31181   6.197   3.381   4.744  1.5076 -1.1900  0.7252
  231MOL0     H31182   6.024   4.316   4.986  0.8925 -2.2373 -0.4950
  231MOL0     H31183   5.930   4.450   4.831  0.0932  0.8526 -0.1732
  231MOL0     H31184   5.957   4.574   4.945 -2.2547 -1.6535  0.0613
  231MOL0     H31185   6.022   4.591   4.782  0.2730  2.0451  1.4098
  232MOL0     O31186  11.027   8.148  10.258  0.9717  0.1011 -0.3213
  232MOL0     C31187  11.078   8.030  10.243  0.1486 -0.8021  0.0764
  232MOL0     O31188  11.213   7.996  10.258 -0.4297  0.2370  0.0042
  232MOL0     C31189  11.289   8.108  10.280  0.6314  0.9500 -0.0259
  232MOL0     C31190  11.365   8.116  10.399  0.7957  0.1008 -0.1432
  232MOL0     C31191  11.450   8.231  10.419 -0.2893 -0.1538 -0.6945
  232MOL0     C31192  11.472   8.328  10.315  1.0250  0.4699 -0.3796
  232MOL0     O31193  11.556   8.437  10.327 -0.3228  0.2096 -0.1828
  232MOL0     C31194  11.608   8.508  10.217 -0.2808  0.3533  0.4975
  232MOL0     C31195  11.742   8.571  10.248 -0.5238  0.7358  0.1908
  232MOL0     C31196  11.770   8.679  10.137  0.0911  0.0954  0.5962
  232MOL0     C31197  11.925   8.699  10.134 -0.3033 -0.3129 -0.2322
  232MOL0     C31198  11.953   8.834  10.070  0.6301 -0.2515  0.2422
  232MOL0     C31199  11.917   8.843   9.922 -0.4010 -0.1233  0.0771
  232MOL0     C31200  11.938   8.986   9.867  0.1219  0.1629  0.8492
  232MOL0     C31201  11.896   8.988   9.714  0.2234 -0.4472 -0.7895
  232MOL0     N31202  11.964   9.078   9.626 -0.9805 -0.0188 -0.5347
  232MOL0     C31203  11.913   9.155   9.532  0.1540  1.1541  0.1696
  232MOL0     C31204  12.019   9.216   9.463  1.0870  0.0097 -0.9428
  232MOL0     C31205  12.013   9.316   9.351 -0.9149 -0.1125  0.5121
  232MOL0     C31206  11.900   9.425   9.351  0.6111 -0.3884  1.0602
  232MOL0     C31207  11.882   9.477   9.208 -0.4615  1.0388  0.1435
  232MOL0     C31208  11.791   9.393   9.127  0.2396  0.5613  0.4940
  232MOL0     O31209  11.665   9.382   9.190  0.3069  0.5111 -0.0545
  232MOL0     C31210  11.559   9.379   9.100 -0.5181 -0.4847 -0.0756
  232MOL0     C31211  11.469   9.275   9.105 -0.1260 -0.3149  0.4352
  232MOL0     C31212  11.367   9.259   9.019  0.6730 -0.1490 -0.4767
  232MOL0     C31213  11.339   9.362   8.933 -0.4541 -0.0800  0.1539
  232MOL0     C31214  11.238   9.344   8.833  0.2200 -0.9475  0.8549
  232MOL0     O31215  11.210   9.451   8.741 -0.2377  0.0537  0.4575
  232MOL0     C31216  11.109   9.425   8.647 -0.3314 -0.4022 -0.6219
  232MOL0     C31217  11.128   9.432   8.509  0.6227  0.3255  0.6913
  232MOL0     C31218  11.025   9.409   8.407  0.2297 -0.3211  0.4326
  232MOL0     C31219  10.901   9.384   8.458  1.3242  0.5653 -0.5315
  232MOL0     O31220  10.793   9.358   8.381  0.8392 -0.2932  0.1904
  232MOL0     C31221  10.779   9.422   8.248 -0.2786  0.6832 -0.2478
  232MOL0     C31222  10.706   9.337   8.148 -0.1187  0.1757 -0.1005
  232MOL0     C31223  10.690   9.421   8.012  0.0341 -0.3044 -1.3465
  232MOL0     C31224  10.608   9.360   7.905 -0.8549 -0.1459 -0.9981
  232MOL0     C31225  10.563   9.445   7.787 -0.2767 -0.2728 -0.0374
  232MOL0     C31226  10.511   9.336   7.685  0.0233 -0.0035 -0.5656
  232MOL0     C31227  10.460   9.396   7.551 -0.1948  0.4143 -0.9563
  232MOL0     C31228  10.574   9.446   7.469  0.6609 -0.3308  0.6297
  232MOL0    Cl31229  10.728   9.344   7.460  0.3941  0.4110 -0.1109
  232MOL0     C31230  10.877   9.379   8.595  0.5351  0.2117  0.6910
  232MOL0     C31231  10.975   9.410   8.685  0.0272  0.9258 -0.2537
  232MOL0     O31232  11.184   9.237   8.838 -0.2402 -0.2187  0.7602
  232MOL0     C31233  11.424   9.475   8.927 -0.4398 -0.8855  0.3479
  232MOL0     C31234  11.544   9.486   9.006  0.6033  0.8788 -0.1087
  232MOL0     N31235  12.131   9.157   9.519 -0.1078 -0.9617  0.2768
  232MOL0     N31236  12.096   9.085   9.616 -0.4559 -0.7463  0.1072
  232MOL0     C31237  11.387   8.311  10.203  0.8497  0.4118  0.6625
  232MOL0     C31238  11.304   8.199  10.187  0.2370 -1.4176  0.2683
  232MOL0     C31239  10.996   7.919  10.203  0.1167 -0.4886  0.5737
  232MOL0     C31240  11.043   7.818  10.123  0.1622  1.0610  0.4210
  232MOL0     C31241  10.976   7.704  10.082  0.1177 -0.0768 -0.2378
  232MOL0     C31242  10.839   7.692  10.123 -0.6380  0.4319 -0.2624
  232MOL0     O31243  10.782   7.578  10.087  0.3328 -0.1295  0.3129
  232MOL0     C31244  10.641   7.569  10.067  0.8743 -0.5308 -0.2665
  232MOL0     C31245  10.615   7.421  10.090  0.1162 -0.0459 -0.1994
  232MOL0     C31246  10.467   7.397  10.116 -0.1922 -0.5376  0.1813
  232MOL0     C31247  10.405   7.264  10.071  0.2397  0.2637 -0.1769
  232MOL0     C31248  10.414   7.151  10.170  0.4304 -0.5536  0.6225
  232MOL0     C31249  10.425   7.059  10.253 -0.3190 -0.1434  0.2596
  232MOL0     C31250  10.785   7.803  10.192 -0.4382 -0.7133 -0.6957
  232MOL0     C31251  10.862   7.915  10.236  0.3288 -0.5314 -1.1970
  232MOL0     C31252  10.785   8.028  10.311 -0.1122 -0.0067 -0.1905
  232MOL0     H31253  11.364   8.036  10.472  1.2913  1.5768  1.5478
  232MOL0     H31254  11.504   8.243  10.512 -3.3713  1.2769  1.0798
  232MOL0     H31255  11.632   8.446  10.129  1.4795 -1.0069  1.8587
  232MOL0     H31256  11.536   8.587  10.196 -0.0760  0.8784  1.6892
  232MOL0     H31257  11.817   8.492  10.257 -0.5761  0.8139  1.5118
  232MOL0     H31258  11.731   8.621  10.345  1.3616  1.1632  0.2072
  232MOL0     H31259  11.716   8.772  10.156 -1.6456 -0.3513 -1.6013
  232MOL0     H31260  11.739   8.638  10.040  3.4023  0.5251 -0.7947
  232MOL0     H31261  11.974   8.704  10.231 -2.3445 -0.4974  0.8448
  232MOL0     H31262  11.986   8.624  10.081 -0.2008 -1.1381  1.0245
  232MOL0     H31263  11.909   8.914  10.129  1.4842  1.5840 -1.5088
  232MOL0     H31264  12.059   8.857  10.071  0.0484  2.7705  0.1171
  232MOL0     H31265  11.962   8.760   9.867 -1.0937 -1.9907  2.1827
  232MOL0     H31266  11.811   8.823   9.903 -0.3244  0.2459 -0.7913
  232MOL0     H31267  12.046   9.004   9.870 -0.2396  3.1647 -0.8286
  232MOL0     H31268  11.890   9.064   9.927  0.5276 -0.7008  2.3576
  232MOL0     H31269  11.918   8.889   9.673  2.0560  0.0055 -0.9790
  232MOL0     H31270  11.790   9.014   9.705 -0.1467 -1.3038  0.6766
  232MOL0     H31271  11.807   9.172   9.517  0.3801  0.8398 -2.1720
  232MOL0     H31272  12.109   9.368   9.344 -1.7397  1.2560 -2.3336
  232MOL0     H31273  12.000   9.244   9.269  1.1606  0.5788 -0.4997
  232MOL0     H31274  11.798   9.403   9.382 -0.5799 -1.1655 -2.8503
  232MOL0     H31275  11.943   9.505   9.411 -0.7542  1.0023  0.2543
  232MOL0     H31276  11.982   9.502   9.169  0.8940 -2.5473  0.8969
  232MOL0     H31277  11.829   9.571   9.225 -1.5209  0.2607  1.2545
  232MOL0     H31278  11.843   9.297   9.114 -1.2857 -0.4909  1.7858
  232MOL0     H31279  11.776   9.433   9.027 -2.1774  3.1981  1.7576
  232MOL0     H31280  11.486   9.197   9.178 -1.4101 -0.3521  0.7120
  232MOL0     H31281  11.318   9.163   9.013  1.8102 -1.1163  3.2459
  232MOL0     H31282  11.229   9.458   8.479  0.2423  2.7395  1.3352
  232MOL0     H31283  11.040   9.435   8.303  1.0485  2.0184  1.0808
  232MOL0     H31284  10.724   9.516   8.259  3.5039  3.0789 -0.0208
  232MOL0     H31285  10.868   9.459   8.196 -2.5965  3.0468 -2.8375
  232MOL0     H31286  10.747   9.236   8.135 -1.8664 -0.7451  1.0487
  232MOL0     H31287  10.607   9.325   8.192 -1.0170 -0.8331 -2.2391
  232MOL0     H31288  10.629   9.508   8.038 -0.1496 -1.3852  2.3686
  232MOL0     H31289  10.786   9.463   7.981  0.3751 -0.2724 -0.3022
  232MOL0     H31290  10.520   9.311   7.949  2.9195 -4.9032  2.4357
  232MOL0     H31291  10.665   9.279   7.858 -2.7252 -0.1949 -3.3453
  232MOL0     H31292  10.647   9.496   7.739  1.9302 -1.8339  1.9115
  232MOL0     H31293  10.484   9.515   7.814  3.1462  3.1619  2.0396
  232MOL0     H31294  10.579   9.252   7.671 -0.7257 -0.3854 -2.0730
  232MOL0     H31295  10.421   9.291   7.728 -1.2888  2.8085 -0.1548
  232MOL0     H31296  10.386   9.476   7.556 -1.3588 -0.6548 -0.4135
  232MOL0     H31297  10.412   9.310   7.503  0.4693 -0.6613  0.2386
  232MOL0     H31298  10.536   9.467   7.369  0.3184 -2.2494  0.3388
  232MOL0     H31299  10.607   9.542   7.511  1.5881 -1.1672  1.9191
  232MOL0     H31300  10.785   9.345   8.641  0.7751 -0.5053  0.6554
  232MOL0     H31301  10.947   9.415   8.789 -1.6491 -0.8303 -0.5539
  232MOL0     H31302  11.400   9.557   8.860  4.2922  0.4060 -0.1266
  232MOL0     H31303  11.618   9.565   9.003  0.2511  1.2288  0.2734
  232MOL0     H31304  11.383   8.380  10.119  2.5664 -1.8689 -1.4362
  232MOL0     H31305  11.249   8.182  10.095 -2.4664 -0.9679  1.6825
  232MOL0     H31306  11.149   7.812  10.102  0.1857  1.3911  0.4415
  232MOL0     H31307  11.024   7.622  10.029 -2.0529 -2.2003  0.8746
  232MOL0     H31308  10.604   7.615   9.975  1.9962  0.9865 -0.0167
  232MOL0     H31309  10.593   7.618  10.152  3.1954  1.0086  0.2784
  232MOL0     H31310  10.676   7.383  10.172  1.9271 -1.2215 -1.9841
  232MOL0     H31311  10.646   7.366  10.000 -0.1439  0.5708 -0.6764
  232MOL0     H31312  10.423   7.474  10.052 -0.6411 -1.0461 -0.1256
  232MOL0     H31313  10.446   7.418  10.221  2.6675 -1.6801  1.0777
  232MOL0     H31314  10.298   7.281  10.056  0.0782  0.4799  1.1187
  232MOL0     H31315  10.444   7.240   9.972 -0.3047 -0.7670 -0.1517
  232MOL0     H31316  10.442   7.002  10.343 -0.9176  0.6870  0.9129
  232MOL0     H31317  10.678   7.802  10.215 -0.3509  0.3737 -0.1858
  232MOL0     H31318  10.844   8.070  10.392  0.1950 -0.5490 -0.1321
  232MOL0     H31319  10.750   8.105  10.240 -1.4701  1.5810  2.0686
  232MOL0     H31320  10.700   7.973  10.351  0.0487 -0.8949 -1.0403
  233MOL0     O31321   0.193   8.671   9.725 -0.2849  1.1586 -0.3376
  233MOL0     C31322   0.168   8.599   9.633 -0.1147 -0.2331  0.6225
  233MOL0     O31323   0.088   8.637   9.525  0.3492  0.1556  0.0877
  233MOL0     C31324   0.036   8.762   9.530 -0.2722  0.0387 -0.0129
  233MOL0     C31325   0.108   8.854   9.458  1.3446  0.9955  0.2829
  233MOL0     C31326   0.071   8.987   9.450 -0.1416 -0.6986  0.0314
  233MOL0     C31327  -0.044   9.030   9.520  0.2049 -0.1752  0.3652
  233MOL0     O31328  -0.066   9.169   9.517  0.1934 -0.3160  0.2416
  233MOL0     C31329  -0.169   9.228   9.594  0.6536 -0.0278 -0.5627
  233MOL0     C31330  -0.212   9.361   9.528 -0.1558  0.4722 -0.1342
  233MOL0     C31331  -0.250   9.343   9.376 -0.1278 -0.8690 -1.2827
  233MOL0     C31332  -0.358   9.242   9.347  0.4577 -0.5117  0.0103
  233MOL0     C31333  -0.503   9.289   9.404  0.6414 -0.2152  0.9888
  233MOL0     C31334  -0.554   9.181   9.508  0.2542  0.0781  0.4268
  233MOL0     C31335  -0.696   9.202   9.553 -0.0919 -0.1082  0.9528
  233MOL0     C31336  -0.792   9.182   9.431 -0.7048  0.0787 -0.7258
  233MOL0     N31337  -0.876   9.289   9.385 -0.1299 -0.8232 -0.3257
  233MOL0     C31338  -0.845   9.417   9.382  0.1585 -0.1593  0.0392
  233MOL0     C31339  -0.957   9.482   9.334 -0.3253  0.2894  0.4084
  233MOL0     C31340  -1.004   9.623   9.316 -0.2831  0.4713  0.0156
  233MOL0     C31341  -0.991   9.670   9.169 -0.2942 -0.1458 -0.4145
  233MOL0     C31342  -0.979   9.821   9.166  0.1145 -0.2003 -0.0539
  233MOL0     C31343  -1.025   9.873   9.029 -0.1893  0.1022 -1.4932
  233MOL0     O31344  -0.938   9.832   8.926 -0.2418  0.1388 -0.4954
  233MOL0     C31345  -0.938   9.899   8.805 -0.1708 -1.2653  1.5227
  233MOL0     C31346  -0.889   9.820   8.697 -0.5472  0.0644 -0.2679
  233MOL0     C31347  -0.867   9.875   8.574  1.0218 -0.0512  0.0981
  233MOL0     C31348  -0.901  10.008   8.541 -1.4622 -0.4784 -0.5307
  233MOL0     C31349  -0.887  10.060   8.402 -0.0505  1.0345 -0.3950
  233MOL0     O31350  -0.860   9.962   8.309  0.5692  0.0340  0.1777
  233MOL0     C31351  -0.814   9.979   8.177 -0.3657 -0.8150 -0.1380
  233MOL0     C31352  -0.808  10.107   8.109 -0.6141 -0.7294 -0.0293
  233MOL0     C31353  -0.792  10.105   7.963  0.3513 -0.1508 -1.0764
  233MOL0     C31354  -0.764   9.978   7.895 -0.7804  0.1994  0.5916
  233MOL0     O31355  -0.753   9.971   7.764  0.4736  0.1973  1.0548
  233MOL0     C31356  -0.851  10.039   7.688  0.2038 -0.3251  0.9744
  233MOL0     C31357  -0.864   9.982   7.539 -0.1163  0.0319  0.2296
  233MOL0     C31358  -0.956  10.078   7.461  0.3893 -0.2885 -0.7190
  233MOL0     C31359  -0.940  10.021   7.314 -0.5029 -0.8185 -0.5107
  233MOL0     C31360  -1.018  10.117   7.221 -0.5758  0.3056 -0.1057
  233MOL0     C31361  -1.015  10.077   7.072  0.8466 -0.4922 -0.6902
  233MOL0     C31362  -1.072  10.174   6.975 -0.4762 -0.0468 -0.6140
  233MOL0     C31363  -0.991  10.176   6.845 -0.5061 -0.1631 -0.2381
  233MOL0    Cl31364  -1.003  10.014   6.757 -0.6191 -0.3048 -0.1954
  233MOL0     C31365  -0.755   9.862   7.972  0.1640 -0.2307  0.6726
  233MOL0     C31366  -0.792   9.863   8.101  0.1393  0.0514 -0.9446
  233MOL0     O31367  -0.890  10.182   8.384 -0.3123 -0.4258  0.1373
  233MOL0     C31368  -0.962  10.089   8.643 -0.9806 -0.7544 -0.2992
  233MOL0     C31369  -0.983  10.035   8.775 -0.0393 -0.1196  0.9549
  233MOL0     N31370  -1.052   9.388   9.313 -1.0458 -0.2471 -0.7002
  233MOL0     N31371  -1.007   9.274   9.348  0.2999  0.2751 -0.1092
  233MOL0     C31372  -0.119   8.926   9.587 -0.3409  0.5116  1.2549
  233MOL0     C31373  -0.078   8.787   9.591  0.1016 -0.9707 -0.2945
  233MOL0     C31374   0.224   8.452   9.631  0.4690  0.3574  1.2637
  233MOL0     C31375   0.162   8.363   9.534  0.0512 -0.2203 -0.5774
  233MOL0     C31376   0.184   8.227   9.520 -0.6315  0.2189  0.5782
  233MOL0     C31377   0.283   8.169   9.598  0.2927  0.8937  0.0589
  233MOL0     O31378   0.288   8.035   9.584 -0.1780  0.2247  0.6130
  233MOL0     C31379   0.388   7.956   9.654 -0.7361 -0.9953  0.3703
  233MOL0     C31380   0.411   7.819   9.584 -0.4781  0.0148  1.0192
  233MOL0     C31381   0.552   7.750   9.633 -0.2563 -0.1894 -0.2240
  233MOL0     C31382   0.592   7.628   9.560  0.1363 -0.3627 -0.4580
  233MOL0     C31383   0.733   7.597   9.598  0.5411 -0.1438  0.0757
  233MOL0     C31384   0.850   7.581   9.619 -0.5439  0.6393  0.8703
  233MOL0     C31385   0.352   8.250   9.692  0.7461  0.8837 -0.8153
  233MOL0     C31386   0.314   8.389   9.717  0.9351  0.0779  0.0073
  233MOL0     C31387   0.383   8.455   9.840 -0.2508  0.1720  0.6751
  233MOL0     H31388   0.179   8.809   9.388  2.1950  1.2096  0.9906
  233MOL0     H31389   0.116   9.054   9.377 -1.0001 -0.0878  0.0385
  233MOL0     H31390  -0.256   9.163   9.609  0.0039  1.1860  1.2406
  233MOL0     H31391  -0.145   9.246   9.699  1.6923 -4.8572  0.2712
  233MOL0     H31392  -0.133   9.436   9.537  0.6065 -0.5369  2.5118
  233MOL0     H31393  -0.296   9.401   9.586 -0.4448 -0.8509  0.3957
  233MOL0     H31394  -0.158   9.298   9.335  0.2010 -3.1077  1.5628
  233MOL0     H31395  -0.266   9.437   9.323  0.3262  0.4759  0.8784
  233MOL0     H31396  -0.362   9.231   9.238  2.7207 -0.3991 -0.1208
  233MOL0     H31397  -0.325   9.144   9.382  2.5946  0.1572  0.0106
  233MOL0     H31398  -0.483   9.387   9.448  0.3876 -0.1598  0.9844
  233MOL0     H31399  -0.574   9.288   9.321 -2.5705 -1.0128  3.4982
  233MOL0     H31400  -0.539   9.081   9.465  0.4475  0.5643 -0.6780
  233MOL0     H31401  -0.499   9.175   9.602 -0.8881 -2.6319  1.0027
  233MOL0     H31402  -0.715   9.297   9.603  2.1083  0.5039  0.7371
  233MOL0     H31403  -0.716   9.126   9.629  3.8288 -2.3769  0.0152
  233MOL0     H31404  -0.731   9.152   9.345  0.3736 -1.5855  0.5599
  233MOL0     H31405  -0.855   9.095   9.453  0.1411  0.3217  3.5085
  233MOL0     H31406  -0.761   9.469   9.427 -1.3870  2.0085  0.5853
  233MOL0     H31407  -1.111   9.630   9.333 -0.1330  0.2115  1.1006
  233MOL0     H31408  -0.950   9.690   9.383  0.6866 -0.8677  0.6338
  233MOL0     H31409  -0.908   9.619   9.119  2.2731  3.1200  0.1699
  233MOL0     H31410  -1.083   9.634   9.122 -1.5399  0.7664  1.2089
  233MOL0     H31411  -0.877   9.855   9.186 -0.0740  0.8914 -0.8297
  233MOL0     H31412  -1.041   9.863   9.246  1.1923  1.6616 -0.1400
  233MOL0     H31413  -1.020   9.982   9.027  0.2004  0.1318 -0.2299
  233MOL0     H31414  -1.123   9.833   9.004 -0.8623 -0.6457  1.8128
  233MOL0     H31415  -0.868   9.716   8.717  1.5867  0.5143  0.0463
  233MOL0     H31416  -0.819   9.809   8.503 -0.0339  1.2275 -1.8913
  233MOL0     H31417  -0.844  10.204   8.141  0.2781 -0.4687  0.2106
  233MOL0     H31418  -0.788  10.197   7.906  2.6869 -0.0231 -0.8182
  233MOL0     H31419  -0.952  10.030   7.729 -1.1676 -1.2659 -2.2879
  233MOL0     H31420  -0.819  10.144   7.688  1.6986 -0.7504  0.1655
  233MOL0     H31421  -0.771   9.981   7.480 -0.3331  1.3765 -0.1723
  233MOL0     H31422  -0.892   9.877   7.534 -0.2252  0.0508 -4.1555
  233MOL0     H31423  -1.061  10.059   7.484  0.0953  0.1083 -1.6888
  233MOL0     H31424  -0.932  10.184   7.469  0.2207 -0.3669  1.6331
  233MOL0     H31425  -0.986   9.922   7.305 -1.1530 -0.6297  0.4964
  233MOL0     H31426  -0.836  10.026   7.281 -0.8247  0.9265 -1.4040
  233MOL0     H31427  -0.975  10.218   7.225  4.1263 -1.3678 -1.7767
  233MOL0     H31428  -1.123  10.108   7.250 -0.2845 -0.4007  0.7774
  233MOL0     H31429  -0.920  10.032   7.040  0.2022 -2.8477  0.5295
  233MOL0     H31430  -1.077   9.988   7.065 -0.0078 -0.0053  0.3751
  233MOL0     H31431  -1.079  10.277   7.008 -1.8378 -0.4997  0.6397
  233MOL0     H31432  -1.177  10.141   6.965 -0.4956  0.1614 -1.1376
  233MOL0     H31433  -1.030  10.253   6.778 -1.2858  1.8202  2.3288
  233MOL0     H31434  -0.889  10.200   6.876 -1.0447 -1.6753  3.2036
  233MOL0     H31435  -0.732   9.762   7.937  1.3384  0.2196  0.1187
  233MOL0     H31436  -0.792   9.768   8.153  2.5501 -0.0192 -0.9639
  233MOL0     H31437  -1.001  10.185   8.611  0.4343 -0.1404 -0.2656
  233MOL0     H31438  -1.036  10.094   8.850 -2.7710 -0.3969 -0.6080
  233MOL0     H31439  -0.212   8.961   9.630 -1.4656  1.1822 -1.5000
  233MOL0     H31440  -0.141   8.709   9.632  2.2582 -2.8393 -0.3957
  233MOL0     H31441   0.080   8.399   9.473 -0.2188 -0.7326 -0.5236
  233MOL0     H31442   0.125   8.166   9.451 -0.8637 -0.3180  1.2459
  233MOL0     H31443   0.356   7.939   9.758 -3.1881  0.1046 -0.1412
  233MOL0     H31444   0.481   8.014   9.653 -1.6059  0.4223 -0.0014
  233MOL0     H31445   0.421   7.852   9.481 -1.4592  1.6920  1.4178
  233MOL0     H31446   0.331   7.751   9.615 -0.0403  0.4714  3.3371
  233MOL0     H31447   0.559   7.736   9.741  0.2163 -2.2273 -0.4753
  233MOL0     H31448   0.631   7.822   9.608 -1.3798  1.5218  0.9661
  233MOL0     H31449   0.527   7.545   9.588  1.4662 -2.1117 -2.2322
  233MOL0     H31450   0.587   7.633   9.451 -1.8036 -1.1635 -0.4403
  233MOL0     H31451   0.954   7.558   9.624 -0.7101 -0.0625  1.2092
  233MOL0     H31452   0.421   8.191   9.751  1.8201  1.3057 -1.6172
  233MOL0     H31453   0.303   8.489   9.906  0.0635  2.6858 -0.1117
  233MOL0     H31454   0.445   8.384   9.895  1.8129  1.2501 -0.1282
  233MOL0     H31455   0.447   8.538   9.808 -0.7082  0.8218  1.4106
  234MOL0     O31456   5.494  10.899   4.005 -0.0390  0.0081 -0.0858
  234MOL0     C31457   5.607  10.876   4.057 -0.2404 -0.1436 -0.2771
  234MOL0     O31458   5.667  10.971   4.128 -0.5964 -0.0531  0.2341
  234MOL0     C31459   5.611  11.094   4.144 -0.7443  0.7811 -0.1139
  234MOL0     C31460   5.628  11.190   4.042  0.0031 -0.6749 -0.0825
  234MOL0     C31461   5.580  11.319   4.053 -0.2138 -0.3757 -0.3524
  234MOL0     C31462   5.487  11.348   4.154 -0.2439 -0.0278  0.3174
  234MOL0     O31463   5.425  11.470   4.167  0.5670  0.9357  0.2760
  234MOL0     C31464   5.493  11.595   4.144 -0.0166 -0.0863  0.0612
  234MOL0     C31465   5.573  11.631   4.273 -0.1380  0.0779  0.0699
  234MOL0     C31466   5.481  11.652   4.395  0.0316 -0.7600 -0.9322
  234MOL0     C31467   5.407  11.791   4.378 -0.6763  0.0213  0.8912
  234MOL0     C31468   5.301  11.810   4.476  0.1443  0.1256  0.1036
  234MOL0     C31469   5.233  11.952   4.475  0.1556 -0.0587  0.2392
  234MOL0     C31470   5.122  11.973   4.585 -1.0540 -0.0545  0.2551
  234MOL0     C31471   5.070  12.115   4.591  0.0333 -1.4103  0.3160
  234MOL0     N31472   4.938  12.121   4.663 -0.0861  0.0598 -0.3523
  234MOL0     C31473   4.809  12.123   4.614 -0.7602 -0.6098  0.3669
  234MOL0     C31474   4.724  12.121   4.721 -0.4409 -0.1018 -0.0367
  234MOL0     C31475   4.577  12.126   4.715 -0.1435 -0.4341  0.2911
  234MOL0     C31476   4.533  12.267   4.756 -0.3765 -0.5180 -0.2816
  234MOL0     C31477   4.387  12.301   4.738  1.4596  0.0855  0.7586
  234MOL0     C31478   4.347  12.451   4.745 -0.3679  0.6278 -1.1488
  234MOL0     O31479   4.208  12.475   4.769 -0.6648  0.2294  0.6454
  234MOL0     C31480   4.111  12.496   4.675 -1.4949 -0.1296  0.0912
  234MOL0     C31481   3.987  12.478   4.712  0.4440  1.2342  0.3423
  234MOL0     C31482   3.879  12.483   4.621  0.3445  0.2183  0.2110
  234MOL0     C31483   3.904  12.520   4.480 -0.3112 -0.4975 -0.1925
  234MOL0     C31484   3.799  12.550   4.378 -0.5522  0.5987 -0.6882
  234MOL0     O31485   3.846  12.609   4.273 -0.0100 -0.2387  0.2671
  234MOL0     C31486   3.756  12.686   4.193 -0.4399 -0.5707 -0.6409
  234MOL0     C31487   3.679  12.629   4.092 -0.3785 -1.4790 -0.1024
  234MOL0     C31488   3.601  12.723   4.018  0.6535 -0.1069  0.5320
  234MOL0     C31489   3.595  12.860   4.040  0.2977  0.4836  0.6515
  234MOL0     O31490   3.513  12.929   3.952 -0.4614  0.0494 -0.3157
  234MOL0     C31491   3.584  13.039   3.886  0.5540  0.3349 -0.6331
  234MOL0     C31492   3.496  13.077   3.774 -0.4063 -0.1002  0.8837
  234MOL0     C31493   3.363  13.147   3.839  0.0430  0.0303  0.3440
  234MOL0     C31494   3.374  13.296   3.897 -0.0398  0.0244  0.4232
  234MOL0     C31495   3.229  13.329   3.947 -0.4816  0.0780 -0.1357
  234MOL0     C31496   3.232  13.477   3.949  0.0813 -0.3261 -0.0755
  234MOL0     C31497   3.109  13.537   4.021 -0.2747  0.3405  0.2918
  234MOL0     C31498   2.973  13.494   3.968  0.3033  0.2941 -0.3441
  234MOL0    Cl31499   2.968  13.452   3.789  0.3891  0.4112  0.6196
  234MOL0     C31500   3.675  12.914   4.141 -0.3862  0.8814 -0.6276
  234MOL0     C31501   3.750  12.828   4.217 -0.7449  0.0169  0.3679
  234MOL0     O31502   3.685  12.507   4.390  0.3561 -0.9341 -0.6075
  234MOL0     C31503   4.039  12.536   4.444  1.0376 -0.2764 -0.3232
  234MOL0     C31504   4.142  12.526   4.541  0.4927  0.3278 -0.5107
  234MOL0     N31505   4.799  12.109   4.835 -0.0382 -1.2769  0.1375
  234MOL0     N31506   4.928  12.116   4.803  0.3590 -1.0203 -0.7611
  234MOL0     C31507   5.468  11.256   4.258  0.0739 -0.0276  0.0288
  234MOL0     C31508   5.531  11.120   4.254  0.6004 -1.2145  0.0671
  234MOL0     C31509   5.658  10.740   4.077 -0.1779 -0.0613  1.1071
  234MOL0     C31510   5.802  10.726   4.072 -0.6406  0.0098  1.2586
  234MOL0     C31511   5.863  10.601   4.085  0.2396 -0.3301 -0.6217
  234MOL0     C31512   5.791  10.488   4.101  0.5770  0.7225 -0.8614
  234MOL0     O31513   5.859  10.372   4.133 -0.4070  0.0905 -0.2075
  234MOL0     C31514   5.993  10.355   4.081  0.2930 -0.3720  0.4098
  234MOL0     C31515   6.038  10.214   4.101  0.4262 -0.0722  0.3892
  234MOL0     C31516   5.954  10.123   4.005  0.7404 -0.1331  0.7452
  234MOL0     C31517   5.971  10.146   3.847 -0.2011 -0.2634 -0.4164
  234MOL0     C31518   5.899  10.043   3.774 -0.2238 -0.4799 -0.9563
  234MOL0     C31519   5.849   9.951   3.710  0.0488 -0.5314  0.2753
  234MOL0     C31520   5.649  10.490   4.110 -0.5640  0.0559  0.3388
  234MOL0     C31521   5.585  10.614   4.081 -0.9938  0.7705  0.0152
  234MOL0     C31522   5.434  10.612   4.066  0.2010  0.4838  0.6321
  234MOL0     H31523   5.689  11.162   3.957 -0.7180 -2.2850 -0.1010
  234MOL0     H31524   5.589  11.391   3.972  4.1190 -1.9892 -1.5544
  234MOL0     H31525   5.562  11.591   4.059  2.5600 -2.4435  2.0663
  234MOL0     H31526   5.418  11.672   4.122  0.0254  0.0082  0.2517
  234MOL0     H31527   5.630  11.724   4.258  0.6011 -0.3084  0.3956
  234MOL0     H31528   5.644  11.550   4.295  1.2969  0.5250 -2.4775
  234MOL0     H31529   5.536  11.650   4.489 -0.9568 -1.1506 -0.3529
  234MOL0     H31530   5.416  11.564   4.395  2.5184 -3.0162  4.2388
  234MOL0     H31531   5.478  11.874   4.387 -0.6377  0.1112 -0.1404
  234MOL0     H31532   5.368  11.824   4.281  3.7248  0.0218 -1.1273
  234MOL0     H31533   5.221  11.737   4.457  1.4657 -1.0375 -1.2675
  234MOL0     H31534   5.342  11.787   4.574 -2.7141  2.8653  2.1553
  234MOL0     H31535   5.314  12.022   4.491  0.8157  0.2877 -3.7380
  234MOL0     H31536   5.201  11.989   4.378  0.0715  2.4477  1.1636
  234MOL0     H31537   5.153  11.947   4.687  1.1934  1.8375  0.1520
  234MOL0     H31538   5.034  11.917   4.553  0.2224 -1.2989 -1.2623
  234MOL0     H31539   5.150  12.174   4.636 -0.0952 -0.2860 -0.8432
  234MOL0     H31540   5.061  12.148   4.487 -0.4239 -6.0803 -1.3522
  234MOL0     H31541   4.775  12.129   4.511  0.9214 -0.2807 -0.2014
  234MOL0     H31542   4.544  12.091   4.617  1.8663  0.2993 -0.7091
  234MOL0     H31543   4.525  12.063   4.787 -1.5124 -2.6950 -2.4887
  234MOL0     H31544   4.560  12.295   4.859  4.2245 -0.2102 -1.3403
  234MOL0     H31545   4.590  12.343   4.702 -1.0355  1.0177  1.0800
  234MOL0     H31546   4.316  12.234   4.786  2.0093 -2.7893 -2.0591
  234MOL0     H31547   4.369  12.271   4.634 -0.6460 -2.2158  1.7000
  234MOL0     H31548   4.386  12.510   4.662  2.6183 -0.4469 -0.6222
  234MOL0     H31549   4.405  12.477   4.834  0.0728 -3.7354  0.0993
  234MOL0     H31550   3.972  12.446   4.815  0.6587  1.1551  0.3499
  234MOL0     H31551   3.775  12.459   4.642 -0.3278 -1.7753 -4.1860
  234MOL0     H31552   3.691  12.522   4.079  2.3441 -1.6019  2.2115
  234MOL0     H31553   3.530  12.677   3.949  3.6877 -1.2219 -2.1132
  234MOL0     H31554   3.589  13.122   3.958 -0.7282  0.7129 -0.9473
  234MOL0     H31555   3.687  13.016   3.857  0.6703  1.0924 -0.8462
  234MOL0     H31556   3.546  13.135   3.696 -1.6260  0.8151  0.7526
  234MOL0     H31557   3.471  12.981   3.727  4.4742 -1.6652  0.9570
  234MOL0     H31558   3.279  13.143   3.769  0.2270 -4.6553  0.0720
  234MOL0     H31559   3.318  13.081   3.915 -3.0071 -1.0613 -2.1607
  234MOL0     H31560   3.390  13.369   3.817 -1.8823  2.8868  2.4712
  234MOL0     H31561   3.457  13.308   3.966 -1.3385  2.3374  1.6779
  234MOL0     H31562   3.212  13.284   4.046 -0.7203  4.0571  1.8155
  234MOL0     H31563   3.147  13.295   3.883 -0.1085  0.1241 -0.6496
  234MOL0     H31564   3.319  13.516   4.003 -2.5484  6.3289  0.3252
  234MOL0     H31565   3.233  13.529   3.852  0.8823 -1.4708 -0.6960
  234MOL0     H31566   3.126  13.645   4.009 -0.4979  0.3066 -0.3468
  234MOL0     H31567   3.119  13.527   4.130 -0.8698  1.5809  0.4757
  234MOL0     H31568   2.936  13.413   4.031  0.4970 -1.1182 -1.9705
  234MOL0     H31569   2.910  13.582   3.983 -0.6434 -0.5004  0.4295
  234MOL0     H31570   3.672  13.021   4.156 -1.5653  0.8435 -0.4517
  234MOL0     H31571   3.801  12.872   4.302 -2.7847  0.7620  1.2668
  234MOL0     H31572   4.070  12.561   4.343  2.5706  0.3505  0.2836
  234MOL0     H31573   4.244  12.527   4.506  1.5221 -2.2968  2.0633
  234MOL0     H31574   5.423  11.292   4.349  0.4095  1.0886 -0.2357
  234MOL0     H31575   5.534  11.056   4.341 -0.8518 -1.6421 -0.1611
  234MOL0     H31576   5.852  10.822   4.062 -0.9035 -0.0464 -1.0655
  234MOL0     H31577   5.971  10.602   4.079  0.2717 -1.2279 -0.4460
  234MOL0     H31578   6.069  10.415   4.132  0.5669  2.4643 -2.9537
  234MOL0     H31579   6.003  10.382   3.976 -1.8332  3.3877  0.9720
  234MOL0     H31580   6.043  10.184   4.206 -0.2684  1.2596  0.8255
  234MOL0     H31581   6.142  10.215   4.066  0.2688  0.0344 -0.0800
  234MOL0     H31582   5.850  10.139   4.036  0.4172 -0.4214 -0.1597
  234MOL0     H31583   5.982  10.019   4.024 -0.9081 -0.9540 -0.9352
  234MOL0     H31584   5.915  10.233   3.810 -0.4369 -1.1894 -2.3828
  234MOL0     H31585   6.075  10.162   3.820 -0.2056  2.1503  0.6631
  234MOL0     H31586   5.806   9.879   3.644  0.4739  0.5917 -1.2842
  234MOL0     H31587   5.593  10.397   4.106 -0.5874 -0.0856  2.6545
  234MOL0     H31588   5.398  10.509   4.064 -0.9595  0.8830  0.5022
  234MOL0     H31589   5.392  10.667   4.151 -1.1714 -0.1154  0.3661
  234MOL0     H31590   5.399  10.671   3.981 -0.9470  0.8016  1.2977
  235MOL0     O31591  11.468   0.849   1.914 -0.0168 -0.5232 -0.6437
  235MOL0     C31592  11.365   0.905   1.940  0.0079  0.3835 -0.7532
  235MOL0     O31593  11.288   0.961   1.845 -0.2723  0.0636 -0.4477
  235MOL0     C31594  11.296   0.952   1.703 -0.0639  0.1883  0.8643
  235MOL0     C31595  11.369   0.854   1.619  1.0751 -0.1457 -0.3873
  235MOL0     C31596  11.354   0.859   1.485 -0.2891  0.1156 -0.5788
  235MOL0     C31597  11.266   0.955   1.418 -0.4987 -0.1451 -0.1431
  235MOL0     O31598  11.254   0.965   1.283 -0.6433  0.6052  1.0465
  235MOL0     C31599  11.181   1.079   1.234  0.8246  0.3717  1.6193
  235MOL0     C31600  11.165   1.073   1.077 -0.1204 -0.7509  0.3446
  235MOL0     C31601  11.287   1.131   1.007  0.0054  0.0636 -0.0310
  235MOL0     C31602  11.256   1.208   0.876 -1.5009 -0.6571 -0.2570
  235MOL0     C31603  11.331   1.143   0.761  0.4366 -0.2932 -0.0187
  235MOL0     C31604  11.292   1.225   0.635 -0.7024  0.8162 -0.2409
  235MOL0     C31605  11.354   1.162   0.507 -0.0943  0.1087  0.2419
  235MOL0     C31606  11.273   1.186   0.371 -0.0554  0.1685  0.1077
  235MOL0     N31607  11.263   1.321   0.326  0.2708 -0.0405  0.7092
  235MOL0     C31608  11.263   1.443   0.391 -0.0680  1.0197  0.1294
  235MOL0     C31609  11.215   1.535   0.309  0.3937  0.7775  0.2530
  235MOL0     C31610  11.174   1.684   0.329 -0.4791 -0.0944 -0.2491
  235MOL0     C31611  11.094   1.716   0.454  0.6476  0.5302  0.2026
  235MOL0     C31612  10.967   1.627   0.460 -0.4151  0.8229 -0.9603
  235MOL0     C31613  10.967   1.537   0.584  0.9715  0.5622  0.1972
  235MOL0     O31614  10.940   1.622   0.689  0.3742 -0.1519 -0.1382
  235MOL0     C31615  10.905   1.574   0.813  0.5166 -0.8246  0.0633
  235MOL0     C31616  10.874   1.681   0.899 -0.4677  0.7246  0.4862
  235MOL0     C31617  10.857   1.642   1.035  0.0103 -0.7008 -0.2165
  235MOL0     C31618  10.877   1.517   1.089  0.6503  0.2696  0.4233
  235MOL0     C31619  10.867   1.495   1.232 -0.7976  0.9255  0.3113
  235MOL0     O31620  10.893   1.357   1.251  0.6812 -0.2871 -0.2116
  235MOL0     C31621  10.886   1.304   1.371 -0.0717  0.3309 -1.2474
  235MOL0     C31622  10.821   1.181   1.378 -0.0310 -0.1383 -0.3820
  235MOL0     C31623  10.811   1.110   1.500  0.8460 -0.1272 -0.8686
  235MOL0     C31624  10.875   1.163   1.618 -0.5021  0.2683 -0.1142
  235MOL0     O31625  10.886   1.107   1.739  0.4298  0.3816 -0.6962
  235MOL0     C31626  10.804   0.989   1.765 -0.1565  0.3912 -0.5649
  235MOL0     C31627  10.883   0.858   1.726 -0.5522 -0.4796  0.7457
  235MOL0     C31628  10.873   0.750   1.833 -0.1532  0.2342  0.2577
  235MOL0     C31629  10.936   0.787   1.967  0.6744  0.1012 -0.5099
  235MOL0     C31630  10.924   0.670   2.076  0.3895 -0.7889 -0.3339
  235MOL0     C31631  10.958   0.529   2.033 -0.0721  0.1369  0.0183
  235MOL0     C31632  10.949   0.448   2.165 -0.0370  0.0230 -0.5380
  235MOL0     C31633  10.817   0.379   2.199  0.3195 -0.2270  0.4077
  235MOL0    Cl31634  10.679   0.495   2.217 -0.3361  0.0094 -0.6550
  235MOL0     C31635  10.943   1.280   1.604 -0.7207  0.8264  0.9756
  235MOL0     C31636  10.944   1.358   1.489  0.2128 -0.4813 -0.2273
  235MOL0     O31637  10.817   1.568   1.316  0.1939 -0.6231  0.5044
  235MOL0     C31638  10.888   1.407   1.002  0.4940 -0.4998  0.2224
  235MOL0     C31639  10.910   1.446   0.872 -0.2549 -0.2502  0.2438
  235MOL0     N31640  11.196   1.467   0.190  0.6975  0.5018  0.2736
  235MOL0     N31641  11.228   1.343   0.193 -0.1100 -0.0367 -0.3287
  235MOL0     C31642  11.189   1.041   1.505 -0.5608  0.0812  0.4356
  235MOL0     C31643  11.213   1.042   1.640 -0.0525 -0.5579 -1.1043
  235MOL0     C31644  11.309   0.899   2.072 -0.0673 -0.2238 -0.4367
  235MOL0     C31645  11.341   0.789   2.153  0.7351  0.4787 -0.7157
  235MOL0     C31646  11.283   0.777   2.280  0.1233 -1.0133 -0.7518
  235MOL0     C31647  11.187   0.869   2.326  0.9142 -0.2765 -1.0084
  235MOL0     O31648  11.149   0.851   2.460  0.2917  0.0941  0.6518
  235MOL0     C31649  11.026   0.914   2.491  1.1721 -0.1700 -0.0662
  235MOL0     C31650  10.962   0.859   2.623 -0.8694  0.2820 -0.4994
  235MOL0     C31651  10.964   0.700   2.639  0.1956 -0.4635  0.0718
  235MOL0     C31652  10.864   0.624   2.550  1.1043  0.3821 -0.3117
  235MOL0     C31653  10.724   0.652   2.591  0.8919  0.6910 -0.5659
  235MOL0     C31654  10.605   0.669   2.633 -0.4901 -0.1631  0.1322
  235MOL0     C31655  11.167   0.981   2.259 -0.9865 -0.3816 -0.4537
  235MOL0     C31656  11.215   0.994   2.129  0.4431  0.3980 -0.0255
  235MOL0     C31657  11.152   1.100   2.053  0.4624  1.4259  0.4559
  235MOL0     H31658  11.442   0.793   1.672 -1.0600 -1.1424  1.5698
  235MOL0     H31659  11.410   0.790   1.423  0.4417  2.2386 -2.3969
  235MOL0     H31660  11.079   1.070   1.272  0.6020  0.9414  1.1772
  235MOL0     H31661  11.219   1.177   1.266  0.0044 -0.2925  5.0130
  235MOL0     H31662  11.079   1.134   1.050  1.0580  1.1030  0.5653
  235MOL0     H31663  11.142   0.970   1.049 -3.1172  0.4890 -2.2660
  235MOL0     H31664  11.347   1.043   0.985  1.5501  0.5664  1.9083
  235MOL0     H31665  11.344   1.196   1.074  0.1213  3.6471 -3.2491
  235MOL0     H31666  11.149   1.213   0.852 -1.4711 -0.3009 -0.3114
  235MOL0     H31667  11.288   1.311   0.894 -1.3780 -1.0036  1.7108
  235MOL0     H31668  11.434   1.160   0.793 -0.4408 -0.7314  3.4499
  235MOL0     H31669  11.322   1.035   0.745 -1.4276  0.2466 -3.9927
  235MOL0     H31670  11.184   1.234   0.626 -0.9519  0.3942  1.8547
  235MOL0     H31671  11.327   1.326   0.657  0.7137 -0.4302  4.1479
  235MOL0     H31672  11.365   1.054   0.506  1.7946  0.2395  1.0936
  235MOL0     H31673  11.456   1.203   0.503 -0.1672  0.3254  0.5415
  235MOL0     H31674  11.313   1.121   0.291 -1.0999 -1.0874  0.5771
  235MOL0     H31675  11.175   1.142   0.387 -1.3942  3.3595  1.3599
  235MOL0     H31676  11.287   1.447   0.497 -3.1122  0.6430  0.9261
  235MOL0     H31677  11.265   1.745   0.332  0.9237 -2.0651  3.0597
  235MOL0     H31678  11.130   1.718   0.235 -3.4747 -0.4654  0.9273
  235MOL0     H31679  11.148   1.720   0.549 -1.7564 -1.3834  1.7845
  235MOL0     H31680  11.077   1.823   0.442  2.8284  0.9003  0.1143
  235MOL0     H31681  10.958   1.566   0.370 -0.1672 -4.6351  2.2837
  235MOL0     H31682  10.882   1.694   0.472  2.9192  5.5750 -1.1954
  235MOL0     H31683  11.061   1.481   0.594 -0.1861 -1.2217  2.1193
  235MOL0     H31684  10.884   1.467   0.566 -0.6186  3.0166 -3.0572
  235MOL0     H31685  10.865   1.788   0.882  3.4119  1.1797  0.3651
  235MOL0     H31686  10.817   1.709   1.110  0.9577 -1.0860  0.6423
  235MOL0     H31687  10.787   1.139   1.284 -1.7323 -1.6096  0.8394
  235MOL0     H31688  10.757   1.017   1.508  0.4236 -0.2959 -4.1672
  235MOL0     H31689  10.771   0.992   1.869 -0.7888  0.0149 -0.7490
  235MOL0     H31690  10.710   0.989   1.710  1.1129  0.6978 -2.8481
  235MOL0     H31691  10.842   0.833   1.627  0.5831  1.4058 -0.2645
  235MOL0     H31692  10.988   0.873   1.698 -0.6450 -0.0081  0.6338
  235MOL0     H31693  10.768   0.721   1.838 -1.0752  3.0521 -0.5301
  235MOL0     H31694  10.926   0.657   1.812 -0.4200  0.0720  0.3071
  235MOL0     H31695  10.889   0.875   2.013 -0.8740 -1.8289  1.8355
  235MOL0     H31696  11.044   0.801   1.957  0.6906 -0.8235 -1.8558
  235MOL0     H31697  10.820   0.684   2.108  0.2180 -2.9331  0.2030
  235MOL0     H31698  10.993   0.690   2.158 -0.1339 -2.5637  0.5952
  235MOL0     H31699  10.891   0.482   1.960  1.4647 -1.1035 -0.6488
  235MOL0     H31700  11.065   0.536   2.011 -0.2513  0.1486 -0.8986
  235MOL0     H31701  10.962   0.520   2.246 -1.9373  0.5111 -0.6240
  235MOL0     H31702  11.029   0.374   2.159  0.8672  0.9400 -0.1726
  235MOL0     H31703  10.787   0.309   2.120  1.4540 -1.3497  0.9285
  235MOL0     H31704  10.820   0.314   2.288 -0.4454 -0.9011 -0.0388
  235MOL0     H31705  11.001   1.309   1.691 -0.5534  1.1469  0.7582
  235MOL0     H31706  10.983   1.457   1.469 -0.7618  0.1585  0.9370
  235MOL0     H31707  10.898   1.304   1.034  5.3494 -0.4429 -0.4095
  235MOL0     H31708  10.927   1.368   0.798  2.1695 -1.6031  2.0866
  235MOL0     H31709  11.122   1.114   1.459  0.8169  1.5681  0.6926
  235MOL0     H31710  11.145   1.109   1.691 -2.2708 -1.3155 -2.9141
  235MOL0     H31711  11.412   0.714   2.120 -0.4020 -0.6264 -0.7184
  235MOL0     H31712  11.314   0.695   2.344  0.8594  1.7185  2.7367
  235MOL0     H31713  10.949   0.888   2.418  0.3736 -1.0507  1.0531
  235MOL0     H31714  11.020   1.023   2.497 -1.7584  0.1295 -4.1688
  235MOL0     H31715  10.856   0.886   2.619 -1.7118 -2.4843  0.8516
  235MOL0     H31716  11.016   0.885   2.714  0.6106 -2.2754 -0.5533
  235MOL0     H31717  10.947   0.694   2.746 -2.7322 -1.1061 -0.3321
  235MOL0     H31718  11.064   0.676   2.601 -0.6419  0.4794 -3.0850
  235MOL0     H31719  10.871   0.633   2.441  0.0989 -1.7621 -0.6045
  235MOL0     H31720  10.887   0.518   2.564  0.1072 -0.2606 -2.7997
  235MOL0     H31721  10.509   0.693   2.675 -2.3373 -2.5746 -2.2798
  235MOL0     H31722  11.101   1.061   2.293 -0.2584 -0.3220  0.8840
  235MOL0     H31723  11.221   1.163   1.997 -0.4550  0.1013 -2.3343
  235MOL0     H31724  11.079   1.051   1.988 -0.2568  4.1062 -0.9088
  235MOL0     H31725  11.092   1.173   2.109 -1.7688 -0.2761  0.4201
  236MOL0     O31726   3.529   3.359   7.080 -0.1338  0.2930  0.1960
  236MOL0     C31727   3.599   3.378   6.987 -0.3248 -0.0647 -1.4770
  236MOL0     O31728   3.577   3.480   6.897  1.7956 -0.1058  0.5182
  236MOL0     C31729   3.459   3.545   6.903  0.2141  0.1215  0.7344
  236MOL0     C31730   3.392   3.532   6.787  0.3273 -0.7519  0.6700
  236MOL0     C31731   3.270   3.600   6.771 -0.2709 -0.1545 -0.3370
  236MOL0     C31732   3.218   3.686   6.873  0.7193  0.8924 -0.5428
  236MOL0     O31733   3.094   3.734   6.850 -0.0053 -0.8508  0.4297
  236MOL0     C31734   3.088   3.869   6.891  0.2285  1.0562  0.3448
  236MOL0     C31735   2.973   3.939   6.812  0.8055  0.4601  0.2824
  236MOL0     C31736   2.926   4.054   6.901  0.3783  0.9237 -0.1682
  236MOL0     C31737   2.840   4.164   6.837  0.2460  0.7536 -0.4118
  236MOL0     C31738   2.735   4.236   6.925 -0.0439  0.5966 -0.1475
  236MOL0     C31739   2.739   4.378   6.937  0.4820  0.7187  0.3946
  236MOL0     C31740   2.871   4.420   7.005  0.8526  0.6008 -0.1347
  236MOL0     C31741   2.916   4.562   6.969  0.4865 -0.3970 -0.3425
  236MOL0     N31742   2.824   4.664   7.031  0.0911 -0.5613  0.4691
  236MOL0     C31743   2.811   4.687   7.167  0.2598 -0.2230  0.2588
  236MOL0     C31744   2.711   4.781   7.184  0.1400  0.9033  0.5350
  236MOL0     C31745   2.646   4.840   7.309  0.9903 -0.4750 -0.5275
  236MOL0     C31746   2.529   4.753   7.367 -0.3782  0.3898  0.2345
  236MOL0     C31747   2.450   4.832   7.471 -0.0299  0.1692  0.7386
  236MOL0     C31748   2.351   4.740   7.548 -0.0816 -0.3761  0.3439
  236MOL0     O31749   2.400   4.623   7.613  0.4359  0.2321  0.0559
  236MOL0     C31750   2.420   4.631   7.747  0.7931  0.7533 -0.1459
  236MOL0     C31751   2.384   4.518   7.827 -0.3848  0.5119  0.5013
  236MOL0     C31752   2.425   4.507   7.957  0.3440  0.3116 -0.4036
  236MOL0     C31753   2.508   4.604   8.017 -0.1010 -0.4602  0.2515
  236MOL0     C31754   2.553   4.579   8.153 -0.0737 -0.5401 -0.3056
  236MOL0     O31755   2.653   4.658   8.200 -0.1899  1.2360 -0.7001
  236MOL0     C31756   2.727   4.622   8.319 -0.5393 -0.2984  0.3169
  236MOL0     C31757   2.765   4.489   8.345  0.1951 -0.9428  0.2653
  236MOL0     C31758   2.837   4.452   8.461  0.1985 -0.2510  0.9063
  236MOL0     C31759   2.876   4.550   8.557  0.3695 -0.3479 -0.0860
  236MOL0     O31760   2.953   4.525   8.663  0.4309 -0.9007 -0.7648
  236MOL0     C31761   2.875   4.496   8.778 -0.2221  0.0341  0.1842
  236MOL0     C31762   2.959   4.498   8.911 -0.5886 -0.2187 -0.9124
  236MOL0     C31763   3.072   4.405   8.905  0.0904  0.1906  0.4772
  236MOL0     C31764   3.126   4.369   9.046  0.9639  0.5646 -0.3509
  236MOL0     C31765   3.266   4.299   9.031 -0.6121 -0.3154 -0.3820
  236MOL0     C31766   3.351   4.294   9.164  0.2444  0.1681 -0.1610
  236MOL0     C31767   3.492   4.265   9.123  0.2266 -0.5307 -0.4971
  236MOL0     C31768   3.590   4.293   9.229 -0.1876  0.2149 -0.9083
  236MOL0    Cl31769   3.547   4.212   9.374 -0.2430  0.3319  0.2775
  236MOL0     C31770   2.842   4.685   8.524  0.0484  0.2505 -0.1685
  236MOL0     C31771   2.768   4.716   8.406  0.3244  0.6952 -0.3413
  236MOL0     O31772   2.500   4.491   8.214  0.2942  0.4268  0.1042
  236MOL0     C31773   2.537   4.718   7.945  0.2745  0.0255  0.3839
  236MOL0     C31774   2.488   4.736   7.814  0.4153  0.0150  0.4186
  236MOL0     N31775   2.665   4.803   7.046 -0.9602 -0.6651  0.9077
  236MOL0     N31776   2.728   4.741   6.961 -0.7490 -0.0213 -0.3638
  236MOL0     C31777   3.291   3.696   6.992 -0.9139 -0.3311  0.6163
  236MOL0     C31778   3.410   3.629   7.008  0.1000 -0.8025  0.5599
  236MOL0     C31779   3.719   3.286   6.964 -0.1942  0.6416 -0.2880
  236MOL0     C31780   3.787   3.298   6.846  0.3492 -0.7387 -0.5835
  236MOL0     C31781   3.910   3.238   6.819 -0.2152 -0.0963  0.6706
  236MOL0     C31782   3.958   3.143   6.917 -0.5455 -0.2189  0.8860
  236MOL0     O31783   4.076   3.072   6.883 -0.5243 -0.5090  0.0520
  236MOL0     C31784   4.130   3.007   6.994  0.4208 -0.0831  0.8097
  236MOL0     C31785   4.273   2.967   6.949  0.8675  0.1578 -0.8607
  236MOL0     C31786   4.257   2.872   6.823 -0.2607 -1.2006 -0.3111
  236MOL0     C31787   4.393   2.864   6.759 -0.3493  0.7785 -0.3905
  236MOL0     C31788   4.394   2.770   6.648  0.3088 -1.1036  0.0574
  236MOL0     C31789   4.394   2.692   6.555  0.4189 -0.3627  0.7700
  236MOL0     C31790   3.884   3.121   7.030  0.1209  0.1142 -0.1143
  236MOL0     C31791   3.774   3.200   7.062 -0.3054  0.1062  0.2752
  236MOL0     C31792   3.712   3.163   7.193 -0.1689  0.0424  0.1572
  236MOL0     H31793   3.436   3.487   6.699  0.2997  0.4611  0.0103
  236MOL0     H31794   3.225   3.612   6.673  0.5070  0.8902 -0.5769
  236MOL0     H31795   3.058   3.878   6.996  1.3772  0.2286  0.7600
  236MOL0     H31796   3.176   3.933   6.875  0.7075 -0.2759 -3.6156
  236MOL0     H31797   2.892   3.866   6.801 -0.0668  0.9861  2.6142
  236MOL0     H31798   2.999   3.985   6.716  0.2586 -0.1288 -0.1527
  236MOL0     H31799   3.008   4.092   6.962  1.3285  0.1605 -0.9391
  236MOL0     H31800   2.861   4.002   6.972 -0.7521  1.0672 -1.0758
  236MOL0     H31801   2.905   4.243   6.800 -0.9198  2.0780  0.2990
  236MOL0     H31802   2.807   4.127   6.739  3.9376  2.0426 -2.3093
  236MOL0     H31803   2.634   4.215   6.891  0.7560  0.4353 -2.5690
  236MOL0     H31804   2.747   4.193   7.026  0.2008 -2.4178 -1.3567
  236MOL0     H31805   2.723   4.418   6.836  0.5735 -0.7926 -0.2361
  236MOL0     H31806   2.662   4.398   7.012 -1.5893 -0.9386 -1.1678
  236MOL0     H31807   2.946   4.360   6.953 -1.1937  0.9806 -3.9443
  236MOL0     H31808   2.861   4.402   7.112 -0.6211 -0.5229 -0.4278
  236MOL0     H31809   3.009   4.577   7.023 -0.8182  0.8736  1.6967
  236MOL0     H31810   2.936   4.595   6.867  2.2738  1.6598  0.6079
  236MOL0     H31811   2.865   4.631   7.243  1.8824  0.7113 -0.1731
  236MOL0     H31812   2.729   4.850   7.379  1.4501  0.4816 -1.1978
  236MOL0     H31813   2.594   4.935   7.291 -0.7244 -0.5554  3.1643
  236MOL0     H31814   2.457   4.708   7.297 -1.8251 -2.7126  3.3874
  236MOL0     H31815   2.582   4.665   7.403  0.5394  0.9029  0.1692
  236MOL0     H31816   2.388   4.907   7.421  0.6674  0.0053 -0.4053
  236MOL0     H31817   2.519   4.875   7.544  0.4261  1.2877 -0.3253
  236MOL0     H31818   2.283   4.697   7.472  0.2348  1.3301 -0.9590
  236MOL0     H31819   2.293   4.803   7.615  1.7347  2.4661 -0.6013
  236MOL0     H31820   2.328   4.442   7.774 -0.6478  1.5227 -0.7063
  236MOL0     H31821   2.393   4.417   8.010 -0.2992  0.8952  0.2204
  236MOL0     H31822   2.746   4.402   8.284  1.8299 -1.9840  1.1617
  236MOL0     H31823   2.852   4.347   8.485 -2.0297 -0.2769  2.5009
  236MOL0     H31824   2.783   4.553   8.784  1.0874  2.3642 -0.4941
  236MOL0     H31825   2.837   4.393   8.777  0.5344 -0.4512  4.6115
  236MOL0     H31826   2.994   4.598   8.938 -0.1974 -0.6674  0.2969
  236MOL0     H31827   2.891   4.467   8.990  0.2497 -1.0650 -0.5067
  236MOL0     H31828   3.043   4.313   8.853  1.4241  0.3048 -0.5221
  236MOL0     H31829   3.159   4.433   8.846  0.5643 -0.0398  1.0568
  236MOL0     H31830   3.068   4.299   9.106  1.5252 -0.0131 -0.4745
  236MOL0     H31831   3.141   4.462   9.103  1.0146  0.2492  0.1542
  236MOL0     H31832   3.316   4.367   8.962  0.3106  1.6686  2.0815
  236MOL0     H31833   3.271   4.200   8.983  0.3091 -1.1159  1.2646
  236MOL0     H31834   3.341   4.392   9.212  2.4564  1.4437 -2.1023
  236MOL0     H31835   3.302   4.220   9.229 -2.2432  0.3549 -1.6978
  236MOL0     H31836   3.514   4.313   9.027  3.1866  0.6687  0.6719
  236MOL0     H31837   3.503   4.159   9.100 -0.3209 -1.1372  1.7264
  236MOL0     H31838   3.695   4.277   9.203  0.7946  1.3427  1.9436
  236MOL0     H31839   3.592   4.401   9.247  0.8390  0.2342 -1.0630
  236MOL0     H31840   2.877   4.770   8.582  0.4683 -0.1968  0.2471
  236MOL0     H31841   2.740   4.821   8.399 -0.0681  0.7875  2.0397
  236MOL0     H31842   2.608   4.790   7.985 -1.2488  0.6975  1.9859
  236MOL0     H31843   2.501   4.833   7.766  1.3250  1.0107  2.5289
  236MOL0     H31844   3.256   3.765   7.068 -0.1904 -1.2903  1.8523
  236MOL0     H31845   3.466   3.637   7.101  0.5429  1.6909  0.1506
  236MOL0     H31846   3.748   3.367   6.772 -0.3345  1.9893  2.1291
  236MOL0     H31847   3.971   3.248   6.730 -2.3542 -2.4789 -1.2214
  236MOL0     H31848   4.080   2.912   7.015 -2.5673  0.6180 -2.2826
  236MOL0     H31849   4.140   3.075   7.079 -2.8553  1.3807  0.1713
  236MOL0     H31850   4.334   2.923   7.028 -2.5452  1.4976  2.8056
  236MOL0     H31851   4.335   3.055   6.930  3.0485 -1.3439 -1.1661
  236MOL0     H31852   4.183   2.910   6.753  1.2709 -1.7109 -2.3001
  236MOL0     H31853   4.230   2.768   6.847  0.5965 -1.1596  0.9756
  236MOL0     H31854   4.429   2.964   6.731  0.1343  0.7339  0.0744
  236MOL0     H31855   4.458   2.809   6.826 -3.2337 -1.3935  0.8451
  236MOL0     H31856   4.382   2.642   6.461  3.4775  0.9082 -0.4276
  236MOL0     H31857   3.921   3.053   7.105 -0.5939 -0.3539 -0.1732
  236MOL0     H31858   3.698   3.252   7.256 -2.4217 -0.7663  0.8711
  236MOL0     H31859   3.609   3.131   7.179 -0.1370  0.6681 -1.7314
  236MOL0     H31860   3.758   3.083   7.252 -1.6787  0.2090  1.6416
  237MOL0     O31861   8.433   9.793   5.333 -0.3305 -0.8054 -0.7861
  237MOL0     C31862   8.392   9.904   5.359 -1.2102 -0.1067  1.5337
  237MOL0     O31863   8.385  10.011   5.267  0.8798  0.5448  0.1016
  237MOL0     C31864   8.455  10.022   5.149 -1.3253  0.4556 -0.7425
  237MOL0     C31865   8.422  10.124   5.072  0.2786 -0.0598  0.7351
  237MOL0     C31866   8.474  10.146   4.945  0.2874  0.9674 -0.2298
  237MOL0     C31867   8.577  10.072   4.894  0.8623  0.0185  0.0888
  237MOL0     O31868   8.614  10.101   4.768 -0.1979 -0.3090  0.0327
  237MOL0     C31869   8.754  10.089   4.736  0.7926  0.2167 -1.0834
  237MOL0     C31870   8.779  10.193   4.623 -0.1838 -0.4799 -0.5379
  237MOL0     C31871   8.701  10.160   4.498 -0.3607 -1.0068  0.6793
  237MOL0     C31872   8.715  10.256   4.385 -0.2703 -0.5899  1.4031
  237MOL0     C31873   8.618  10.221   4.261  0.5382 -0.0254 -0.2750
  237MOL0     C31874   8.621  10.324   4.150 -0.5184  0.2101  0.1194
  237MOL0     C31875   8.534  10.437   4.169 -0.2726  0.0947  0.0877
  237MOL0     C31876   8.555  10.537   4.059 -0.8309 -0.1595  0.0202
  237MOL0     N31877   8.472  10.656   4.083  0.2867 -0.3084 -0.5434
  237MOL0     C31878   8.502  10.778   4.027  0.0627 -0.4305  0.0613
  237MOL0     C31879   8.400  10.859   4.047  0.6405  0.1977 -0.1302
  237MOL0     C31880   8.393  11.005   4.024 -0.8996  0.1711  0.1543
  237MOL0     C31881   8.433  11.042   3.882  1.0272  0.2097 -0.8050
  237MOL0     C31882   8.388  11.176   3.838  0.2468  0.2877  0.6657
  237MOL0     C31883   8.243  11.175   3.775 -0.2695  0.0553 -0.2732
  237MOL0     O31884   8.225  11.317   3.735  0.9576 -0.5908  0.4840
  237MOL0     C31885   8.185  11.362   3.605 -0.6456  0.5955 -0.6061
  237MOL0     C31886   8.241  11.478   3.555 -0.1429  0.1077  0.3589
  237MOL0     C31887   8.221  11.513   3.420 -0.3258  0.7338 -0.4221
  237MOL0     C31888   8.156  11.430   3.336 -0.5737  0.0030 -1.2132
  237MOL0     C31889   8.134  11.463   3.193  0.5581 -0.7692 -0.9009
  237MOL0     O31890   8.014  11.416   3.140  0.4546  0.2341 -1.9043
  237MOL0     C31891   7.992  11.444   3.012 -0.6676 -0.4084 -0.3356
  237MOL0     C31892   7.866  11.490   2.979  0.2544 -0.3593  0.5599
  237MOL0     C31893   7.825  11.505   2.846 -0.7625 -0.3758 -0.1272
  237MOL0     C31894   7.906  11.473   2.738  0.1094  0.1197 -0.0300
  237MOL0     O31895   7.869  11.500   2.605  0.3660 -0.2148  0.8082
  237MOL0     C31896   7.913  11.407   2.504 -0.7953  0.1350 -0.4731
  237MOL0     C31897   7.858  11.440   2.362 -0.7463 -0.2296 -0.1456
  237MOL0     C31898   7.937  11.557   2.291  0.5163  1.1578  0.1149
  237MOL0     C31899   7.955  11.696   2.355 -1.1321 -0.1034  0.2226
  237MOL0     C31900   8.045  11.780   2.261  0.3992 -0.0725  0.7009
  237MOL0     C31901   7.986  11.858   2.150 -0.0579 -0.2604  0.5801
  237MOL0     C31902   8.099  11.926   2.072  0.0382 -0.0221 -0.2405
  237MOL0     C31903   8.084  11.871   1.929  0.2371 -0.0900 -0.1665
  237MOL0    Cl31904   8.229  11.946   1.828  0.1794 -0.0639 -0.2411
  237MOL0     C31905   8.028  11.416   2.767  0.3633 -1.1364  0.5513
  237MOL0     C31906   8.072  11.398   2.905 -0.2333  0.2843  1.6582
  237MOL0     O31907   8.220  11.526   3.126  0.2192 -0.6406 -0.3390
  237MOL0     C31908   8.087  11.319   3.387 -0.0785 -0.1175 -0.1407
  237MOL0     C31909   8.104  11.283   3.522  0.4271 -0.7813  0.6020
  237MOL0     N31910   8.304  10.785   4.116  0.5566  0.3556  0.8193
  237MOL0     N31911   8.352  10.666   4.138  0.5806  0.2826  0.8635
  237MOL0     C31912   8.619   9.965   4.975 -0.2295 -0.7110 -0.3136
  237MOL0     C31913   8.561   9.937   5.100 -0.1757 -0.0052 -0.4853
  237MOL0     C31914   8.348   9.930   5.496  0.0727  0.6743 -0.7165
  237MOL0     C31915   8.356  10.061   5.552 -0.3869 -0.4833  1.0432
  237MOL0     C31916   8.320  10.085   5.680  1.2397  0.2042  0.2476
  237MOL0     C31917   8.263   9.992   5.767 -0.0008 -0.2515  1.1400
  237MOL0     O31918   8.217  10.030   5.894  0.7489 -0.3934  0.3236
  237MOL0     C31919   8.123   9.946   5.966  0.4323 -0.3072 -0.2134
  237MOL0     C31920   8.070  10.017   6.082 -0.5083 -0.0783  0.2252
  237MOL0     C31921   7.960   9.938   6.156 -0.1377  0.1161 -0.3850
  237MOL0     C31922   7.908  10.015   6.276 -0.2639 -0.2599 -0.3007
  237MOL0     C31923   7.817   9.946   6.362 -0.6327  0.0920 -0.0142
  237MOL0     C31924   7.748   9.875   6.425  0.5933 -0.5873 -0.3104
  237MOL0     C31925   8.253   9.866   5.705  0.1109  0.0262  0.5500
  237MOL0     C31926   8.289   9.829   5.575 -0.3882  0.2877 -0.3079
  237MOL0     C31927   8.270   9.685   5.535 -1.1201 -0.0113  0.3138
  237MOL0     H31928   8.338  10.184   5.105 -0.8071 -2.7665  3.3610
  237MOL0     H31929   8.436  10.234   4.893 -0.1603  0.3511 -0.9724
  237MOL0     H31930   8.827  10.128   4.808  0.7069 -0.3060 -0.7044
  237MOL0     H31931   8.775   9.983   4.716  1.0065  0.1321 -0.4405
  237MOL0     H31932   8.883  10.184   4.590 -0.1329  1.0045 -0.8879
  237MOL0     H31933   8.769  10.297   4.655  1.6755  0.0799 -1.6112
  237MOL0     H31934   8.595  10.161   4.522 -0.5431 -2.2994  0.0127
  237MOL0     H31935   8.717  10.055   4.471  2.2016 -0.6702  0.6431
  237MOL0     H31936   8.694  10.353   4.432 -3.4310 -0.2182 -0.4972
  237MOL0     H31937   8.813  10.242   4.339 -0.2414  0.4915  1.1050
  237MOL0     H31938   8.641  10.119   4.227  0.3194 -0.1435 -0.0758
  237MOL0     H31939   8.513  10.218   4.292  0.8107  1.0961  0.8302
  237MOL0     H31940   8.726  10.347   4.166 -0.9085  2.3213  0.0400
  237MOL0     H31941   8.616  10.285   4.048  0.3585  0.2039  0.0728
  237MOL0     H31942   8.543  10.476   4.270  1.9538  1.0967 -0.4479
  237MOL0     H31943   8.430  10.406   4.154 -0.0654 -1.9564  2.3821
  237MOL0     H31944   8.663  10.548   4.075 -1.1954  1.0066  2.0610
  237MOL0     H31945   8.538  10.505   3.956  2.6923  2.7289 -1.6830
  237MOL0     H31946   8.590  10.800   3.967 -1.2123 -0.3797 -1.8916
  237MOL0     H31947   8.288  11.028   4.042 -1.6998 -1.0387 -2.5411
  237MOL0     H31948   8.453  11.066   4.092  0.2174 -0.7206  0.0043
  237MOL0     H31949   8.542  11.030   3.883  1.3299  2.5658  0.2141
  237MOL0     H31950   8.390  10.970   3.811 -1.1091  1.7712 -1.1746
  237MOL0     H31951   8.462  11.209   3.765  0.9176  1.3162  1.7611
  237MOL0     H31952   8.397  11.256   3.913  0.0805  2.5987 -1.6454
  237MOL0     H31953   8.160  11.135   3.835 -0.1448 -0.6426 -0.5579
  237MOL0     H31954   8.242  11.124   3.679 -1.3625  0.9685 -0.7777
  237MOL0     H31955   8.290  11.559   3.608 -1.8939  0.5800  1.3418
  237MOL0     H31956   8.264  11.604   3.380 -1.7916  0.9785 -1.5392
  237MOL0     H31957   7.802  11.509   3.065 -0.3216  1.1063 -0.1605
  237MOL0     H31958   7.727  11.545   2.822 -2.4556 -4.4492 -0.8027
  237MOL0     H31959   8.022  11.406   2.495 -0.1334 -3.1674  4.3778
  237MOL0     H31960   7.882  11.306   2.533 -0.4665 -0.5813 -2.4445
  237MOL0     H31961   7.876  11.351   2.301  0.2062  0.9908 -1.7009
  237MOL0     H31962   7.753  11.468   2.351 -0.4172  0.4133 -1.8723
  237MOL0     H31963   8.039  11.521   2.277  0.7888  1.3409  1.5008
  237MOL0     H31964   7.894  11.568   2.191  0.6927  1.4361  0.0686
  237MOL0     H31965   8.000  11.697   2.454  1.6332  3.3599 -0.8514
  237MOL0     H31966   7.852  11.728   2.370 -2.0494 -2.1669 -1.1917
  237MOL0     H31967   8.123  11.715   2.218 -2.7057 -2.8052 -1.3519
  237MOL0     H31968   8.078  11.854   2.334 -0.5158 -1.5879  2.7459
  237MOL0     H31969   7.934  11.791   2.081  1.2491 -0.4641 -0.2402
  237MOL0     H31970   7.920  11.928   2.202  3.5411  2.8935  1.3887
  237MOL0     H31971   8.200  11.893   2.099 -0.1214  0.5989  1.1916
  237MOL0     H31972   8.079  12.033   2.082 -3.6818 -0.7181  1.5096
  237MOL0     H31973   8.091  11.762   1.930  2.4609 -0.0020 -0.3424
  237MOL0     H31974   7.989  11.899   1.884 -0.4179 -2.6089 -0.4782
  237MOL0     H31975   8.090  11.369   2.691  1.8871  2.0653 -0.3658
  237MOL0     H31976   8.166  11.345   2.918  0.5194  1.7689  2.6977
  237MOL0     H31977   8.011  11.273   3.324  0.3617  3.7654 -3.9888
  237MOL0     H31978   8.041  11.202   3.557 -2.8262  0.9660 -0.8077
  237MOL0     H31979   8.696   9.897   4.941 -1.3320 -1.7428 -0.8424
  237MOL0     H31980   8.585   9.848   5.157 -0.2657  1.0982  1.3533
  237MOL0     H31981   8.400  10.140   5.492 -0.6798 -0.2908  1.0771
  237MOL0     H31982   8.334  10.187   5.714  2.5615 -0.3748  1.5642
  237MOL0     H31983   8.156   9.842   5.981 -0.0392 -0.5572 -0.8621
  237MOL0     H31984   8.039   9.937   5.897 -0.4936  0.5163  0.7692
  237MOL0     H31985   8.029  10.113   6.048  2.1601  1.1109  0.1611
  237MOL0     H31986   8.148  10.050   6.151 -2.0693  4.6463  0.0982
  237MOL0     H31987   7.999   9.843   6.193  2.3396  1.7328  1.4607
  237MOL0     H31988   7.884   9.917   6.079 -0.6390  0.5948 -0.0264
  237MOL0     H31989   7.987  10.043   6.346 -1.4562  0.6166  0.7259
  237MOL0     H31990   7.859  10.105   6.239 -0.0384 -0.3199 -0.7560
  237MOL0     H31991   7.683   9.805   6.474  1.4351 -1.3488 -0.2432
  237MOL0     H31992   8.198   9.794   5.765 -0.4394  1.5626  1.9762
  237MOL0     H31993   8.365   9.634   5.520 -2.2596 -2.0505 -0.4058
  237MOL0     H31994   8.208   9.628   5.605  0.5023  0.3721  2.1544
  237MOL0     H31995   8.219   9.693   5.438  1.7790  2.4021 -1.1964
  238MOL0     O31996   8.236   3.640   9.450 -0.0519  0.4880 -0.1840
  238MOL0     C31997   8.219   3.730   9.366  0.1146  0.0715  0.3097
  238MOL0     O31998   8.099   3.762   9.310 -1.1831  0.2320  0.1878
  238MOL0     C31999   7.986   3.733   9.381 -0.0811  0.6021 -0.8996
  238MOL0     C32000   7.971   3.735   9.518  0.0764  0.0011 -0.8849
  238MOL0     C32001   7.851   3.675   9.576 -0.1241 -0.1998 -0.5992
  238MOL0     C32002   7.741   3.635   9.499  0.6046  0.5463  0.0821
  238MOL0     O32003   7.623   3.597   9.554 -0.1289 -0.6790  0.0153
  238MOL0     C32004   7.511   3.580   9.471  0.7403  0.2263  0.4180
  238MOL0     C32005   7.393   3.531   9.565  0.2992 -0.0674  0.0982
  238MOL0     C32006   7.272   3.475   9.491  0.1798  0.1691  0.3480
  238MOL0     C32007   7.171   3.587   9.455 -0.3016  0.1182  0.6823
  238MOL0     C32008   7.035   3.523   9.404 -0.1733 -0.8832  0.4240
  238MOL0     C32009   6.944   3.472   9.509  0.0726  0.0271 -0.6586
  238MOL0     C32010   6.825   3.385   9.450  0.0416 -0.5637 -0.1171
  238MOL0     C32011   6.868   3.264   9.362 -0.1382  0.6257 -0.2930
  238MOL0     N32012   6.899   3.137   9.432 -0.3878 -0.3874 -0.5812
  238MOL0     C32013   7.015   3.095   9.475 -0.7813  0.2158  0.1788
  238MOL0     C32014   6.992   2.964   9.509 -0.7919 -0.0171 -0.7026
  238MOL0     C32015   7.109   2.875   9.557 -0.0761  0.2577  0.4950
  238MOL0     C32016   7.074   2.730   9.545 -0.6219  0.7799  0.2386
  238MOL0     C32017   6.993   2.702   9.674  0.2264  0.0416 -0.0409
  238MOL0     C32018   6.966   2.559   9.691 -0.8168 -1.7003  0.5064
  238MOL0     O32019   6.884   2.533   9.809 -0.2930  0.3672  0.6321
  238MOL0     C32020   6.850   2.403   9.841 -0.1381  0.5408 -0.5071
  238MOL0     C32021   6.921   2.327   9.938 -0.3991 -1.1077  0.3646
  238MOL0     C32022   6.892   2.193   9.966 -0.6519  0.7792 -0.1471
  238MOL0     C32023   6.789   2.121   9.897  0.1234 -0.9428  0.4948
  238MOL0     C32024   6.778   1.977   9.896 -0.4304  0.4571 -0.6562
  238MOL0     O32025   6.692   1.919   9.814 -0.0459 -0.1608  0.4129
  238MOL0     C32026   6.682   1.778   9.827  0.6920  0.1114 -0.8259
  238MOL0     C32027   6.780   1.706   9.765 -0.4943 -0.2342  0.4763
  238MOL0     C32028   6.779   1.564   9.789 -0.6348  0.2170  1.3253
  238MOL0     C32029   6.668   1.506   9.850  0.5251  1.0184 -0.3460
  238MOL0     O32030   6.653   1.377   9.879  0.4048  0.7148  0.2724
  238MOL0     C32031   6.685   1.281   9.775 -0.5698  0.0431 -0.5873
  238MOL0     C32032   6.604   1.155   9.803 -0.1851  0.4499 -0.1598
  238MOL0     C32033   6.602   1.098   9.942  0.6096 -0.3685 -1.1712
  238MOL0     C32034   6.574   0.949   9.968  0.6395  0.1605  0.7536
  238MOL0     C32035   6.464   0.897   9.876  0.4450 -0.4549 -0.6159
  238MOL0     C32036   6.332   0.933   9.942 -0.8258  0.4673 -0.1795
  238MOL0     C32037   6.205   0.922   9.856 -0.1949 -0.1739 -0.5390
  238MOL0     C32038   6.063   0.912   9.927 -0.2932  0.2484  0.4559
  238MOL0    Cl32039   5.992   1.071   9.963 -0.2860  0.4025  0.0613
  238MOL0     C32040   6.572   1.583   9.914 -0.4004  0.0095 -0.7572
  238MOL0     C32041   6.574   1.720   9.902  0.3357  0.0855 -0.7020
  238MOL0     O32042   6.875   1.915   9.951  0.6108 -0.7019 -0.3336
  238MOL0     C32043   6.704   2.199   9.806  0.3881 -0.5378  0.0053
  238MOL0     C32044   6.739   2.341   9.780 -0.3941  0.5470  0.0212
  238MOL0     N32045   6.857   2.928   9.489  0.3506  0.6397 -0.1486
  238MOL0     N32046   6.809   3.035   9.438 -0.0598 -0.1672 -0.0912
  238MOL0     C32047   7.767   3.632   9.368  0.8140  0.0508  0.0221
  238MOL0     C32048   7.878   3.683   9.309  0.2852  1.1633 -0.7422
  238MOL0     C32049   8.341   3.788   9.302 -0.5325  0.4062  0.0432
  238MOL0     C32050   8.344   3.798   9.165  0.4387  1.2128 -0.2607
  238MOL0     C32051   8.441   3.868   9.089  0.0721 -1.0715 -0.8587
  238MOL0     C32052   8.546   3.927   9.162  1.0185 -0.1131 -0.8364
  238MOL0     O32053   8.650   3.979   9.093 -0.4985  0.2413 -0.7134
  238MOL0     C32054   8.689   3.965   8.956  0.3703  0.8223  0.7164
  238MOL0     C32055   8.639   4.069   8.858  0.0684 -0.3460 -0.4788
  238MOL0     C32056   8.687   4.212   8.910 -1.1574  0.2706 -0.2419
  238MOL0     C32057   8.681   4.329   8.816 -0.1493 -0.3193  0.4270
  238MOL0     C32058   8.777   4.303   8.709  0.2458 -0.0958 -0.6936
  238MOL0     C32059   8.850   4.293   8.613  0.2829 -0.0743  0.0295
  238MOL0     C32060   8.543   3.934   9.296 -0.0669 -0.1366 -0.6222
  238MOL0     C32061   8.443   3.861   9.373 -0.5988 -0.2443  0.5531
  238MOL0     C32062   8.433   3.878   9.522 -0.1297 -0.2796  0.6146
  238MOL0     H32063   8.039   3.798   9.573  1.8463 -0.3028 -2.5976
  238MOL0     H32064   7.860   3.672   9.684  0.4185  2.4730 -0.4949
  238MOL0     H32065   7.478   3.667   9.413 -1.0008 -2.0922 -2.3177
  238MOL0     H32066   7.543   3.502   9.401  2.4182 -0.9520  2.3851
  238MOL0     H32067   7.350   3.617   9.618  0.4925  1.2274 -1.7490
  238MOL0     H32068   7.434   3.453   9.630 -2.5820 -0.9728  0.9600
  238MOL0     H32069   7.212   3.412   9.559 -1.8816  3.0476  1.4156
  238MOL0     H32070   7.314   3.411   9.413 -0.5482 -0.8663  0.7691
  238MOL0     H32071   7.149   3.647   9.544  2.5823  1.2524  0.7491
  238MOL0     H32072   7.207   3.658   9.379 -1.7258  1.0142  0.7882
  238MOL0     H32073   6.986   3.596   9.337  1.9871 -0.5512 -0.8878
  238MOL0     H32074   7.066   3.446   9.332  1.3877  0.8368 -0.8474
  238MOL0     H32075   6.993   3.404   9.579  1.4916 -0.9815 -2.5414
  238MOL0     H32076   6.903   3.554   9.568 -0.9060 -0.8503 -0.0798
  238MOL0     H32077   6.758   3.447   9.390  1.7761 -1.1668 -2.8269
  238MOL0     H32078   6.770   3.337   9.532 -0.7721 -1.9148 -1.4140
  238MOL0     H32079   6.778   3.245   9.304 -2.0794  0.1539  2.6633
  238MOL0     H32080   6.949   3.292   9.293 -0.2339  3.2312  0.5310
  238MOL0     H32081   7.100   3.163   9.473  0.5088 -1.2364  1.9583
  238MOL0     H32082   7.201   2.895   9.500  0.5241 -0.5456  1.1506
  238MOL0     H32083   7.141   2.902   9.658 -0.9897 -0.4144  0.9797
  238MOL0     H32084   7.014   2.719   9.454  0.8112 -1.7283 -0.4886
  238MOL0     H32085   7.159   2.662   9.542 -0.1021  1.4193  0.4072
  238MOL0     H32086   6.901   2.760   9.678  1.5765  2.2333  1.9584
  238MOL0     H32087   7.059   2.738   9.754  2.6269  1.8212 -2.6199
  238MOL0     H32088   7.061   2.506   9.706  1.4389  2.1682  1.2495
  238MOL0     H32089   6.910   2.527   9.602 -1.9361  3.5138 -1.0127
  238MOL0     H32090   6.995   2.384   9.995 -2.8197  1.1001  1.5092
  238MOL0     H32091   6.959   2.143  10.035 -0.5672  1.1454  0.0368
  238MOL0     H32092   6.868   1.753   9.721  0.1088  0.5921  2.4740
  238MOL0     H32093   6.864   1.506   9.753 -0.9100  0.5952  0.0070
  238MOL0     H32094   6.658   1.317   9.675 -1.3935 -0.6833 -0.6441
  238MOL0     H32095   6.791   1.258   9.783  0.1533  3.0672 -0.4595
  238MOL0     H32096   6.508   1.189   9.765 -0.8603  1.6287  2.3639
  238MOL0     H32097   6.644   1.073   9.742  2.1844  0.6533  0.9829
  238MOL0     H32098   6.697   1.108   9.995 -0.8593  3.1050  1.1384
  238MOL0     H32099   6.532   1.155  10.003  3.1635  2.3259 -0.5431
  238MOL0     H32100   6.559   0.927  10.074 -0.4354  4.9307  1.8011
  238MOL0     H32101   6.670   0.901   9.944  2.8451  4.0829  0.9051
  238MOL0     H32102   6.468   0.788   9.885  2.2172 -0.3325  0.6067
  238MOL0     H32103   6.478   0.942   9.777  1.3630 -0.6621 -0.5897
  238MOL0     H32104   6.326   0.852  10.015  3.0144  1.1961  1.1725
  238MOL0     H32105   6.339   1.032   9.987  3.1528 -0.5477  1.8956
  238MOL0     H32106   6.210   0.842   9.781  2.4272  0.2511 -0.8835
  238MOL0     H32107   6.192   1.015   9.799  1.7474  0.7317  0.4156
  238MOL0     H32108   5.997   0.860   9.857  0.8384  0.1330 -0.5585
  238MOL0     H32109   6.069   0.850  10.017  0.5299  3.2375  2.6131
  238MOL0     H32110   6.490   1.531   9.963 -0.2073  2.2423  2.1780
  238MOL0     H32111   6.479   1.763   9.931  0.2827  0.0320 -0.7957
  238MOL0     H32112   6.621   2.155   9.752 -1.7601  2.0836  0.9221
  238MOL0     H32113   6.687   2.404   9.709 -2.8772 -1.5523 -0.1836
  238MOL0     H32114   7.701   3.595   9.291 -0.3261  0.2479  0.8865
  238MOL0     H32115   7.890   3.674   9.202 -0.2903 -0.0557 -0.7176
  238MOL0     H32116   8.266   3.740   9.117  2.5594  0.7278 -3.4259
  238MOL0     H32117   8.432   3.862   8.981  1.8130 -2.6478 -0.9757
  238MOL0     H32118   8.634   3.875   8.925 -3.0734  2.7688  0.7911
  238MOL0     H32119   8.798   3.958   8.961  0.4477 -0.1463 -1.1257
  238MOL0     H32120   8.529   4.071   8.855  0.0909  0.7594 -0.8370
  238MOL0     H32121   8.687   4.050   8.762  2.6451 -2.1542  1.0401
  238MOL0     H32122   8.790   4.206   8.945 -0.3853 -2.1894 -2.6452
  238MOL0     H32123   8.614   4.226   8.991 -2.9607 -0.0342 -1.7356
  238MOL0     H32124   8.580   4.331   8.773 -0.3165 -1.6921  0.6931
  238MOL0     H32125   8.699   4.418   8.877  2.7295  0.7050 -1.6954
  238MOL0     H32126   8.915   4.287   8.528  0.6571  0.0734  0.3025
  238MOL0     H32127   8.637   3.968   9.338  0.0100  0.6722 -1.4206
  238MOL0     H32128   8.338   3.915   9.564  1.6481  4.1693  1.2424
  238MOL0     H32129   8.447   3.786   9.580 -0.2114 -0.4081  0.4329
  238MOL0     H32130   8.505   3.948   9.565 -1.8993  2.2030 -0.2527
  239MOL0     O32131  11.134   5.533   0.359  0.0763  0.1567  0.1314
  239MOL0     C32132  11.153   5.648   0.345  0.4131 -0.8214 -0.5850
  239MOL0     O32133  11.240   5.722   0.423 -0.2195 -0.7896  0.0059
  239MOL0     C32134  11.312   5.659   0.519  0.5272 -0.2944 -0.1202
  239MOL0     C32135  11.272   5.668   0.649  0.7161 -1.0215 -0.7238
  239MOL0     C32136  11.351   5.603   0.752 -0.5836  1.3220  0.3085
  239MOL0     C32137  11.466   5.532   0.719 -1.1733  0.4478 -0.4284
  239MOL0     O32138  11.556   5.471   0.811  0.1998 -0.6004  0.5822
  239MOL0     C32139  11.668   5.390   0.774 -0.7620 -0.0712 -0.3264
  239MOL0     C32140  11.803   5.480   0.763  0.3016  0.7623  0.7457
  239MOL0     C32141  11.823   5.569   0.893 -0.6779  0.2307  0.9180
  239MOL0     C32142  11.878   5.708   0.847 -0.3819  0.4304  0.3474
  239MOL0     C32143  12.023   5.698   0.805  1.0101  0.1728  0.0295
  239MOL0     C32144  12.083   5.829   0.772 -0.0206 -0.0423  1.0544
  239MOL0     C32145  12.238   5.832   0.766  0.3881  1.3364 -0.1596
  239MOL0     C32146  12.292   5.806   0.909 -0.1278  0.6795 -1.6043
  239MOL0     N32147  12.425   5.746   0.919  0.7721 -0.5286  0.5649
  239MOL0     C32148  12.514   5.734   0.818 -0.5911 -0.1525  0.0067
  239MOL0     C32149  12.627   5.715   0.881 -0.1578  0.2131 -0.2493
  239MOL0     C32150  12.761   5.692   0.812 -0.3981  1.0883  1.5295
  239MOL0     C32151  12.775   5.555   0.754 -1.0591  0.4003  0.5419
  239MOL0     C32152  12.825   5.467   0.867 -0.6021  0.1232  0.2452
  239MOL0     C32153  12.875   5.331   0.833  0.2087 -0.1218  0.0335
  239MOL0     O32154  13.018   5.324   0.813 -0.0323  0.8731 -0.6348
  239MOL0     C32155  13.060   5.204   0.760  0.1640 -0.6334 -0.2433
  239MOL0     C32156  12.982   5.100   0.718 -0.2090 -0.7741 -0.6690
  239MOL0     C32157  13.038   4.974   0.693 -0.7728  0.6216  0.1222
  239MOL0     C32158  13.177   4.950   0.712 -0.1460  0.1744  0.2894
  239MOL0     C32159  13.223   4.808   0.707 -0.4830  0.4654  0.0257
  239MOL0     O32160  13.133   4.714   0.675  0.2930  0.1180  0.1424
  239MOL0     C32161  13.138   4.596   0.730  0.2589 -0.2768 -0.5319
  239MOL0     C32162  13.014   4.552   0.788  0.6619  0.0647  0.5439
  239MOL0     C32163  13.007   4.427   0.851  0.8503  0.8979 -0.1267
  239MOL0     C32164  13.120   4.348   0.856  0.1879  0.5770  0.6497
  239MOL0     O32165  13.118   4.226   0.923  0.2504 -0.0249 -0.2876
  239MOL0     C32166  13.212   4.127   0.886  0.6359  0.1040  0.7227
  239MOL0     C32167  13.172   3.990   0.937  0.4390  0.2153 -0.1265
  239MOL0     C32168  13.020   3.951   0.921  0.0129  0.1461  0.1008
  239MOL0     C32169  12.971   3.841   1.026 -0.8559 -1.0635 -0.3547
  239MOL0     C32170  12.932   3.911   1.160 -0.8052 -0.2879 -0.3287
  239MOL0     C32171  12.902   3.802   1.271 -0.2928  0.0476  0.4279
  239MOL0     C32172  12.768   3.725   1.249  0.1994  0.8341  0.7660
  239MOL0     C32173  12.752   3.616   1.356 -1.1568 -1.4154  0.1181
  239MOL0    Cl32174  12.737   3.684   1.519  0.0262 -0.2312  0.4366
  239MOL0     C32175  13.244   4.390   0.793  0.2634  0.3352 -0.6756
  239MOL0     C32176  13.254   4.517   0.732  0.0091 -0.5072  0.2936
  239MOL0     O32177  13.341   4.786   0.727  0.4409 -0.4715 -1.0212
  239MOL0     C32178  13.259   5.056   0.750  0.6641 -0.3918 -0.3097
  239MOL0     C32179  13.198   5.182   0.769  0.2927  0.2992 -0.1974
  239MOL0     N32180  12.607   5.687   1.013 -0.1572  0.6607 -0.2158
  239MOL0     N32181  12.485   5.722   1.044  0.0365  0.2495  0.4500
  239MOL0     C32182  11.500   5.524   0.583 -0.4068  0.3202  0.8026
  239MOL0     C32183  11.429   5.588   0.480  0.3238 -0.6145 -0.2742
  239MOL0     C32184  11.065   5.721   0.242 -0.6958  1.0240 -0.1254
  239MOL0     C32185  11.033   5.855   0.281 -0.5231 -0.3589  1.3193
  239MOL0     C32186  10.942   5.921   0.199 -0.2363  0.1042  0.2825
  239MOL0     C32187  10.890   5.868   0.077 -0.9655  0.8531 -1.1837
  239MOL0     O32188  10.799   5.924   0.000 -0.3006  0.4300 -0.4931
  239MOL0     C32189  10.666   5.899   0.042  0.2306  0.6645  0.5457
  239MOL0     C32190  10.547   5.943  -0.043 -0.4505 -0.8842 -0.8892
  239MOL0     C32191  10.575   6.090  -0.101  0.2455 -0.2349  0.2216
  239MOL0     C32192  10.444   6.179  -0.109  0.6789 -0.6179  0.7632
  239MOL0     C32193  10.380   6.138  -0.238  1.0886 -0.0642 -0.1383
  239MOL0     C32194  10.327   6.090  -0.333  0.1542 -0.7050 -0.3288
  239MOL0     C32195  10.925   5.738   0.044 -0.9775 -0.7224  0.2416
  239MOL0     C32196  10.999   5.655   0.129  0.2048 -0.2624 -0.5289
  239MOL0     C32197  11.022   5.510   0.089  0.1512 -0.5540 -0.4380
  239MOL0     H32198  11.176   5.712   0.674  1.4998  0.3534 -0.0289
  239MOL0     H32199  11.313   5.586   0.852 -1.1144 -1.5325 -0.3138
  239MOL0     H32200  11.667   5.323   0.860 -1.0332 -1.6455 -1.5095
  239MOL0     H32201  11.650   5.324   0.689  4.2405 -3.0111  0.5046
  239MOL0     H32202  11.802   5.541   0.672 -0.5178  1.3857  1.1591
  239MOL0     H32203  11.879   5.401   0.756 -0.0480  0.5802 -2.1413
  239MOL0     H32204  11.891   5.515   0.960  0.4208 -0.5887 -0.7732
  239MOL0     H32205  11.730   5.581   0.948 -1.6315  1.2628 -0.8334
  239MOL0     H32206  11.803   5.745   0.777 -1.5203  0.7247  1.6721
  239MOL0     H32207  11.877   5.776   0.933 -0.1361  4.0797 -2.3119
  239MOL0     H32208  12.086   5.636   0.871 -0.8144 -3.6481 -1.5120
  239MOL0     H32209  12.017   5.643   0.711  1.1648  0.0174  0.1092
  239MOL0     H32210  12.059   5.846   0.667  3.4573  0.9635  0.3195
  239MOL0     H32211  12.038   5.910   0.830 -1.9487 -0.0078 -0.3675
  239MOL0     H32212  12.280   5.930   0.743 -0.3900  1.5929 -0.5124
  239MOL0     H32213  12.279   5.757   0.697 -1.6697 -1.9913  1.9217
  239MOL0     H32214  12.293   5.897   0.970  3.1212  0.2266 -0.7790
  239MOL0     H32215  12.234   5.738   0.972  3.2495 -1.1885 -0.2332
  239MOL0     H32216  12.503   5.742   0.711  2.0526 -0.6751 -0.3704
  239MOL0     H32217  12.755   5.755   0.723 -1.8174  0.6157  1.2746
  239MOL0     H32218  12.844   5.728   0.873  0.6667 -1.0132  1.4324
  239MOL0     H32219  12.679   5.515   0.721 -2.2883  1.9492  2.0692
  239MOL0     H32220  12.850   5.559   0.674  3.7492 -0.0873  4.5045
  239MOL0     H32221  12.742   5.471   0.938 -0.8438 -0.7485  0.0307
  239MOL0     H32222  12.908   5.512   0.923  1.6836 -1.4332 -1.6576
  239MOL0     H32223  12.821   5.305   0.741 -0.6831  1.2587  0.1268
  239MOL0     H32224  12.837   5.257   0.904 -1.4931  0.2261 -0.4775
  239MOL0     H32225  12.874   5.108   0.716 -0.2024 -0.7133 -0.7911
  239MOL0     H32226  12.977   4.892   0.656 -1.2988  2.2287 -2.9695
  239MOL0     H32227  12.936   4.628   0.788 -0.3835 -0.9450 -1.0836
  239MOL0     H32228  12.926   4.379   0.905  2.1475 -0.0077  1.0849
  239MOL0     H32229  13.209   4.121   0.776 -3.3802 -1.5852  0.7587
  239MOL0     H32230  13.314   4.154   0.915  0.6469 -0.8033  1.5315
  239MOL0     H32231  13.241   3.924   0.884 -0.5069  0.5707 -1.8990
  239MOL0     H32232  13.193   3.985   1.044  0.5700 -0.0999 -0.1653
  239MOL0     H32233  12.956   4.039   0.931  0.6464  0.8419 -1.5260
  239MOL0     H32234  13.008   3.919   0.817 -0.9998  0.2435  0.1802
  239MOL0     H32235  13.054   3.771   1.038  1.8876  1.7563 -1.2872
  239MOL0     H32236  12.884   3.788   0.988 -0.2952 -1.2311 -1.4641
  239MOL0     H32237  12.845   3.976   1.149  1.3680  3.2563  1.5052
  239MOL0     H32238  13.007   3.983   1.194 -0.0500 -2.2342  2.4555
  239MOL0     H32239  12.978   3.724   1.266 -0.3566  0.0490 -1.8234
  239MOL0     H32240  12.908   3.854   1.367 -0.8186  0.1509  0.4103
  239MOL0     H32241  12.782   3.673   1.154 -3.4785 -0.5809  0.8085
  239MOL0     H32242  12.675   3.783   1.243 -0.8283 -0.7293  0.7878
  239MOL0     H32243  12.657   3.574   1.325 -1.7665  1.1724 -1.8861
  239MOL0     H32244  12.825   3.535   1.346  1.0358  0.3929  0.4837
  239MOL0     H32245  13.338   4.335   0.792  0.9709  1.5044 -0.7508
  239MOL0     H32246  13.337   4.547   0.668 -2.1646 -1.7339 -3.3933
  239MOL0     H32247  13.364   5.046   0.772  0.4405  1.0661  1.6768
  239MOL0     H32248  13.250   5.271   0.804  1.9660 -0.6154 -0.2190
  239MOL0     H32249  11.583   5.472   0.536 -1.6633 -0.7457 -0.3362
  239MOL0     H32250  11.446   5.596   0.373 -0.5212 -0.1795 -0.3750
  239MOL0     H32251  11.075   5.898   0.372 -1.5671 -0.7124  1.9903
  239MOL0     H32252  10.892   6.015   0.223 -0.0020 -0.1859  2.0042
  239MOL0     H32253  10.652   5.954   0.136 -3.6683  1.7376 -0.4505
  239MOL0     H32254  10.668   5.791   0.053  1.4536  0.4933 -1.0065
  239MOL0     H32255  10.456   5.938   0.016 -0.8227  1.9111 -1.0824
  239MOL0     H32256  10.543   5.881  -0.133  3.9048 -3.8358  0.6026
  239MOL0     H32257  10.626   6.083  -0.198 -1.1716  1.0136 -0.6511
  239MOL0     H32258  10.648   6.136  -0.033 -1.5989  1.5059  1.1421
  239MOL0     H32259  10.378   6.176  -0.022 -2.6238 -0.5531 -1.5777
  239MOL0     H32260  10.477   6.282  -0.125  0.3810 -0.2913  2.1420
  239MOL0     H32261  10.263   6.054  -0.411  0.6517 -0.8980 -0.6502
  239MOL0     H32262  10.875   5.710  -0.048  0.5228  3.7327 -2.2644
  239MOL0     H32263  10.987   5.482  -0.011  0.2377 -0.7688 -0.4103
  239MOL0     H32264  11.130   5.492   0.080 -0.3629 -4.4790 -0.5106
  239MOL0     H32265  10.983   5.445   0.169 -2.4059  0.8119 -0.4817
  240MOL0     O32266   6.265   3.213   0.614 -0.0192  0.7490  0.0996
  240MOL0     C32267   6.295   3.104   0.565  0.2313 -0.1215 -0.0612
  240MOL0     O32268   6.361   3.009   0.645  0.3698  0.0054  0.5555
  240MOL0     C32269   6.385   2.887   0.581 -0.2805 -0.5248 -0.6259
  240MOL0     C32270   6.278   2.797   0.582 -0.0544 -0.0614  0.5763
  240MOL0     C32271   6.288   2.668   0.527 -0.1246  0.3867 -0.0328
  240MOL0     C32272   6.415   2.626   0.492  0.8085  0.2250 -0.5117
  240MOL0     O32273   6.412   2.495   0.451 -0.0048  0.2494 -0.0046
  240MOL0     C32274   6.540   2.440   0.423  0.4035  0.5357  0.5374
  240MOL0     C32275   6.539   2.297   0.373  0.9225 -0.2957  0.7848
  240MOL0     C32276   6.461   2.184   0.454 -0.1163 -1.3697  0.4313
  240MOL0     C32277   6.490   2.200   0.604  0.2527  0.4247  1.4738
  240MOL0     C32278   6.630   2.150   0.656  0.4216 -0.0080 -0.7411
  240MOL0     C32279   6.648   2.220   0.803  0.3530  0.2043 -0.1561
  240MOL0     C32280   6.787   2.196   0.860  0.4186 -0.9886  0.1316
  240MOL0     C32281   6.901   2.301   0.814 -0.5125 -0.0799  0.2484
  240MOL0     N32282   6.855   2.437   0.836 -0.5707  0.1319 -0.0856
  240MOL0     C32283   6.879   2.516   0.947  0.2197  0.0440  0.4255
  240MOL0     C32284   6.828   2.638   0.914  0.3763  0.3067 -0.2306
  240MOL0     C32285   6.816   2.751   1.017 -0.2418  0.2622 -0.4059
  240MOL0     C32286   6.749   2.874   0.957  0.7246  0.3747  0.1458
  240MOL0     C32287   6.597   2.864   0.929 -0.5471  0.5381  0.0566
  240MOL0     C32288   6.535   3.000   0.910  0.6801  0.6570  0.4523
  240MOL0     O32289   6.558   3.062   1.040 -0.8571  0.0603 -0.0478
  240MOL0     C32290   6.482   3.176   1.068 -0.0148 -0.6831 -0.1850
  240MOL0     C32291   6.510   3.251   1.182 -0.4572 -0.6450 -0.0340
  240MOL0     C32292   6.446   3.357   1.232  0.8839 -0.3229 -0.6804
  240MOL0     C32293   6.335   3.412   1.164  0.0551  0.3111 -0.6884
  240MOL0     C32294   6.250   3.520   1.224 -0.0188  0.0918 -0.3539
  240MOL0     O32295   6.302   3.591   1.327 -0.1940 -0.6530  0.2520
  240MOL0     C32296   6.219   3.680   1.384  0.1552 -0.3465 -0.6057
  240MOL0     C32297   6.201   3.805   1.321 -0.4585 -0.3624 -0.7503
  240MOL0     C32298   6.101   3.894   1.367  0.5449  0.5663 -0.9255
  240MOL0     C32299   6.012   3.861   1.468  0.9869  0.3842  0.0089
  240MOL0     O32300   5.911   3.952   1.492 -0.2363 -0.4052  0.4464
  240MOL0     C32301   5.782   3.904   1.503 -0.2412 -0.0330  0.1825
  240MOL0     C32302   5.681   4.011   1.447  0.5367 -0.4369 -0.5690
  240MOL0     C32303   5.535   3.978   1.494 -0.2473 -0.4289 -0.6886
  240MOL0     C32304   5.500   3.834   1.449 -0.6487 -0.7939  0.4997
  240MOL0     C32305   5.355   3.800   1.434 -0.1724 -0.7353 -0.0690
  240MOL0     C32306   5.279   3.807   1.569 -0.3425 -0.1946  0.3187
  240MOL0     C32307   5.294   3.688   1.659 -0.4137  0.0162  0.4127
  240MOL0     C32308   5.230   3.686   1.795 -0.9156 -0.2442 -0.0152
  240MOL0    Cl32309   5.067   3.751   1.785 -0.4370  0.5011 -0.1822
  240MOL0     C32310   6.022   3.731   1.527 -0.0232 -1.3109  0.4794
  240MOL0     C32311   6.124   3.640   1.479 -0.2559  0.1048  0.1873
  240MOL0     O32312   6.141   3.532   1.173  0.3862  0.4087 -0.6136
  240MOL0     C32313   6.303   3.357   1.041 -0.5301  0.4462  0.8533
  240MOL0     C32314   6.378   3.242   0.992  0.8088  0.4442  0.9569
  240MOL0     N32315   6.775   2.631   0.789  0.1147  0.2658 -0.1434
  240MOL0     N32316   6.794   2.515   0.741  0.4470  0.1482  0.3666
  240MOL0     C32317   6.528   2.711   0.515  0.0038 -0.5575 -0.5369
  240MOL0     C32318   6.512   2.838   0.564  0.9333  0.7702  0.2725
  240MOL0     C32319   6.280   3.095   0.418 -0.0662  0.5919 -1.1373
  240MOL0     C32320   6.153   3.056   0.376  0.1460 -0.8962  0.2766
  240MOL0     C32321   6.136   3.022   0.241 -0.5560  0.3533 -0.8339
  240MOL0     C32322   6.237   3.026   0.147 -0.9677  0.1173  0.9724
  240MOL0     O32323   6.213   2.991   0.020 -0.0001  0.1580  0.0695
  240MOL0     C32324   6.081   2.940  -0.020 -0.9291 -0.0449  1.8611
  240MOL0     C32325   6.087   2.923  -0.175  0.3225 -1.1495 -0.2175
  240MOL0     C32326   5.945   2.924  -0.223 -0.2005 -0.1944 -0.2536
  240MOL0     C32327   5.880   2.793  -0.237  0.9781 -0.0648 -0.2343
  240MOL0     C32328   5.856   2.718  -0.110  0.4780 -0.2345  0.5191
  240MOL0     C32329   5.842   2.675  -0.003 -0.8667  0.0038 -0.4142
  240MOL0     C32330   6.363   3.061   0.192 -0.5961 -0.4140  0.1402
  240MOL0     C32331   6.388   3.103   0.326 -0.3652 -0.2122 -1.2384
  240MOL0     C32332   6.535   3.137   0.370  0.0626  0.9919  0.0285
  240MOL0     H32333   6.178   2.826   0.615 -0.6383  0.8784 -1.8051
  240MOL0     H32334   6.202   2.602   0.515  0.9803 -1.1458  0.3039
  240MOL0     H32335   6.598   2.495   0.348 -1.8789  0.5911 -1.2789
  240MOL0     H32336   6.597   2.442   0.517  1.9496  1.2254 -0.3702
  240MOL0     H32337   6.645   2.267   0.370  1.1432  0.5365 -1.3206
  240MOL0     H32338   6.507   2.298   0.269 -0.2926 -0.0823  1.1535
  240MOL0     H32339   6.506   2.088   0.425 -0.6709 -1.3737 -0.4364
  240MOL0     H32340   6.355   2.194   0.429  0.4837  0.0131 -1.8568
  240MOL0     H32341   6.477   2.304   0.635 -0.0354  0.2580  1.9258
  240MOL0     H32342   6.408   2.144   0.650 -1.8043  2.6004  0.6478
  240MOL0     H32343   6.627   2.042   0.670 -0.1413  0.3006  2.1616
  240MOL0     H32344   6.705   2.178   0.581  0.5705 -0.2880 -0.6966
  240MOL0     H32345   6.620   2.325   0.796 -1.4679 -0.3723 -3.9226
  240MOL0     H32346   6.585   2.173   0.880 -1.6189 -1.9657 -2.8666
  240MOL0     H32347   6.819   2.101   0.816 -3.7277 -2.9771  0.9584
  240MOL0     H32348   6.780   2.177   0.968  0.2684  0.7601  0.4669
  240MOL0     H32349   6.991   2.287   0.876 -1.9495 -1.9892  2.0275
  240MOL0     H32350   6.919   2.296   0.706  1.7952 -0.1473  0.5864
  240MOL0     H32351   6.925   2.490   1.042 -0.3245  3.9012  1.9197
  240MOL0     H32352   6.752   2.729   1.103  3.0955 -2.8085  1.5503
  240MOL0     H32353   6.914   2.767   1.063 -0.3644  3.9754 -1.1196
  240MOL0     H32354   6.766   2.952   1.031 -1.0857 -0.3184  1.3593
  240MOL0     H32355   6.801   2.898   0.863  3.5697  1.2018  1.8282
  240MOL0     H32356   6.550   2.828   1.021  0.8406  0.4575  0.7643
  240MOL0     H32357   6.578   2.809   0.837 -2.5074 -0.5188  1.0373
  240MOL0     H32358   6.430   2.970   0.898 -0.1199  3.4482 -0.2708
  240MOL0     H32359   6.586   3.059   0.833  1.3736 -1.8104 -1.0993
  240MOL0     H32360   6.587   3.206   1.243  1.0491  1.7915 -0.0163
  240MOL0     H32361   6.472   3.393   1.331  0.8690 -0.7844 -0.5068
  240MOL0     H32362   6.271   3.831   1.243  0.6842 -0.4767  0.2045
  240MOL0     H32363   6.097   3.996   1.330 -0.1671  1.2463  0.8992
  240MOL0     H32364   5.771   3.808   1.451  1.1937 -0.5623  0.8098
  240MOL0     H32365   5.751   3.886   1.606  2.1237 -0.6057  0.8565
  240MOL0     H32366   5.701   4.111   1.488 -0.2764 -0.3580 -0.3413
  240MOL0     H32367   5.696   4.012   1.339  1.3791  2.1151 -0.4924
  240MOL0     H32368   5.529   3.982   1.603  0.2725 -2.1573 -0.5679
  240MOL0     H32369   5.467   4.044   1.439 -0.4864 -0.9933 -1.0741
  240MOL0     H32370   5.539   3.759   1.518 -0.5175 -2.8833 -1.6835
  240MOL0     H32371   5.551   3.826   1.352 -0.3521 -0.8605  0.6613
  240MOL0     H32372   5.334   3.713   1.371  1.7451 -1.5659  0.3621
  240MOL0     H32373   5.321   3.871   1.359  2.3460  0.3445 -0.3010
  240MOL0     H32374   5.306   3.896   1.626  0.4544 -0.6853  0.7195
  240MOL0     H32375   5.175   3.813   1.537 -0.0282 -1.0083 -0.9402
  240MOL0     H32376   5.400   3.674   1.680 -0.0400  1.7705 -0.1165
  240MOL0     H32377   5.250   3.601   1.609 -0.8132 -0.3729  1.4051
  240MOL0     H32378   5.240   3.597   1.857 -0.4392  1.0461  1.8402
  240MOL0     H32379   5.285   3.762   1.851  1.4691 -1.6993 -0.2855
  240MOL0     H32380   5.955   3.688   1.601 -0.7662 -1.5486 -0.3118
  240MOL0     H32381   6.125   3.538   1.518  2.9126  0.7868  2.2730
  240MOL0     H32382   6.226   3.391   0.972  1.1357 -0.6997 -1.6992
  240MOL0     H32383   6.368   3.199   0.893  1.2606 -1.5842  1.7507
  240MOL0     H32384   6.635   2.695   0.507 -0.2868 -1.9236 -2.4131
  240MOL0     H32385   6.598   2.896   0.596  0.6787  0.2560  1.9774
  240MOL0     H32386   6.067   3.050   0.442 -1.1993  1.7018 -1.0822
  240MOL0     H32387   6.036   2.991   0.216 -0.0554 -0.1690 -2.2981
  240MOL0     H32388   5.996   3.005   0.003 -2.1026 -0.4221 -1.0656
  240MOL0     H32389   6.063   2.843   0.029  1.3333 -2.3839 -1.5161
  240MOL0     H32390   6.141   2.839  -0.219 -1.2969 -0.9984 -2.7504
  240MOL0     H32391   6.134   3.007  -0.227  2.7820 -1.5070  1.3220
  240MOL0     H32392   5.952   2.970  -0.322 -1.6248 -2.0470 -1.2955
  240MOL0     H32393   5.883   2.985  -0.157 -2.0383 -3.7045  1.5612
  240MOL0     H32394   5.781   2.815  -0.278  1.2712 -0.9694 -1.5251
  240MOL0     H32395   5.922   2.722  -0.310  0.0560  0.3141 -1.1719
  240MOL0     H32396   5.825   2.630   0.093  1.5645  1.2188  0.6807
  240MOL0     H32397   6.424   3.083   0.104 -4.6900  2.8167 -2.3034
  240MOL0     H32398   6.542   3.155   0.477 -1.8651 -1.6355  0.7008
  240MOL0     H32399   6.601   3.053   0.347 -0.8375  0.0174  0.9286
  240MOL0     H32400   6.577   3.212   0.302 -2.3187  0.1224 -2.6262
  241MOL0     O32401   7.212   9.160   0.776 -0.8814 -0.7141  0.2478
  241MOL0     C32402   7.276   9.056   0.796 -0.0087 -0.9089 -0.0327
  241MOL0     O32403   7.305   9.008   0.920  0.2094 -0.7235  0.0482
  241MOL0     C32404   7.275   9.086   1.027 -0.2583  0.3574  0.1423
  241MOL0     C32405   7.385   9.170   1.064  0.7250  1.0095 -0.0567
  241MOL0     C32406   7.385   9.233   1.187 -0.7491 -0.2977  0.0662
  241MOL0     C32407   7.276   9.240   1.275  0.0733 -0.0453 -0.0197
  241MOL0     O32408   7.280   9.301   1.395 -0.1837  0.6158  0.2425
  241MOL0     C32409   7.272   9.440   1.385  0.1952 -0.4624  0.3549
  241MOL0     C32410   7.146   9.487   1.449  0.0942  0.6719  0.5026
  241MOL0     C32411   7.123   9.638   1.461 -1.0012 -0.1487  0.2280
  241MOL0     C32412   6.973   9.683   1.461 -0.2619  0.0767  0.2914
  241MOL0     C32413   6.963   9.823   1.404 -0.8730  0.9818 -0.5309
  241MOL0     C32414   6.827   9.882   1.404 -0.6420 -0.6735  0.6510
  241MOL0     C32415   6.836  10.034   1.390  0.0152  0.1397  0.2458
  241MOL0     C32416   6.689  10.095   1.394 -0.1486  0.4736 -0.4984
  241MOL0     N32417   6.689  10.242   1.394 -0.6927  0.6770  0.4587
  241MOL0     C32418   6.651  10.317   1.291 -0.5097  0.0247 -0.5178
  241MOL0     C32419   6.656  10.446   1.327 -0.4898  0.3754 -0.2138
  241MOL0     C32420   6.615  10.567   1.248 -0.6920  0.1737 -0.3349
  241MOL0     C32421   6.741  10.637   1.197  0.1609 -0.1290 -0.1597
  241MOL0     C32422   6.796  10.578   1.070  0.6494  0.3843 -0.0867
  241MOL0     C32423   6.954  10.609   1.051 -0.4597 -1.1606 -0.2425
  241MOL0     O32424   6.997  10.557   0.928 -0.1242  0.1515  0.2359
  241MOL0     C32425   7.127  10.579   0.878  0.7929 -0.3720  0.3485
  241MOL0     C32426   7.167  10.497   0.769  0.9302 -0.2588 -0.1662
  241MOL0     C32427   7.293  10.499   0.729  0.2145  0.7544 -0.3048
  241MOL0     C32428   7.385  10.591   0.790 -0.0004 -0.7790  0.6150
  241MOL0     C32429   7.532  10.594   0.751  0.3743 -0.1700 -0.4617
  241MOL0     O32430   7.606  10.686   0.815  0.5206 -0.3232  0.4531
  241MOL0     C32431   7.738  10.691   0.783 -0.6914 -0.1462 -0.1438
  241MOL0     C32432   7.793  10.820   0.796  0.4700  0.4384  0.6013
  241MOL0     C32433   7.936  10.841   0.793  0.4307  0.3632  0.2619
  241MOL0     C32434   8.023  10.730   0.786  0.9346 -0.7836 -0.4757
  241MOL0     O32435   8.163  10.736   0.751 -0.0649  0.4719 -0.2313
  241MOL0     C32436   8.227  10.860   0.761 -0.5894 -0.1274  0.4995
  241MOL0     C32437   8.275  10.879   0.905 -0.2746  0.3785  0.2491
  241MOL0     C32438   8.378  10.777   0.958 -0.4939  1.0050  0.2381
  241MOL0     C32439   8.321  10.698   1.083 -0.0056 -0.3076 -0.8531
  241MOL0     C32440   8.433  10.606   1.141  0.3860  0.4700 -0.1064
  241MOL0     C32441   8.498  10.643   1.266  0.5717 -0.1119 -0.6475
  241MOL0     C32442   8.579  10.515   1.315  0.3162 -1.0484 -0.5476
  241MOL0     C32443   8.680  10.541   1.429 -0.6323 -0.4184 -0.2854
  241MOL0    Cl32444   8.579  10.610   1.549 -0.2120 -0.0531  0.1361
  241MOL0     C32445   7.958  10.607   0.763  0.3732  1.0919 -0.7891
  241MOL0     C32446   7.816  10.578   0.757  0.0126 -0.2648 -0.1155
  241MOL0     O32447   7.573  10.520   0.659 -0.0719  0.0277 -0.7102
  241MOL0     C32448   7.336  10.677   0.890 -0.0569 -0.8189 -0.7682
  241MOL0     C32449   7.206  10.667   0.940 -0.7547  0.5318  1.4673
  241MOL0     N32450   6.697  10.449   1.464 -0.2087 -0.2861 -0.2608
  241MOL0     N32451   6.717  10.323   1.497  0.1958 -0.0462  0.2133
  241MOL0     C32452   7.175   9.145   1.248 -0.3154 -0.2758  0.8926
  241MOL0     C32453   7.177   9.068   1.125  1.0611  1.0230 -0.1435
  241MOL0     C32454   7.303   8.972   0.679  0.4421 -0.0230  0.5609
  241MOL0     C32455   7.331   9.030   0.554 -0.4619 -0.1301  0.2058
  241MOL0     C32456   7.348   8.943   0.441  0.3103 -0.4514 -0.2427
  241MOL0     C32457   7.339   8.801   0.458 -0.6698 -0.2632  0.6836
  241MOL0     O32458   7.335   8.714   0.348 -0.5414 -0.0891 -0.0184
  241MOL0     C32459   7.225   8.731   0.252 -0.3665  0.4966  0.0710
  241MOL0     C32460   7.246   8.636   0.132  0.4209  0.0828 -0.5970
  241MOL0     C32461   7.136   8.660   0.028 -0.2480 -0.2060  0.3797
  241MOL0     C32462   6.994   8.621   0.082  0.3953 -0.2839 -0.3946
  241MOL0     C32463   6.902   8.637  -0.027  0.1770  0.0664 -0.0810
  241MOL0     C32464   6.805   8.635  -0.094  0.5041 -0.3344  0.1864
  241MOL0     C32465   7.302   8.746   0.578 -0.0368  0.6314  1.0778
  241MOL0     C32466   7.287   8.829   0.685 -0.4204  0.1792  0.6415
  241MOL0     C32467   7.253   8.756   0.813 -0.3134  0.2450  0.7292
  241MOL0     H32468   7.458   9.205   0.992 -0.2081  0.7231 -1.1662
  241MOL0     H32469   7.477   9.286   1.210 -0.6953 -0.3648  0.0027
  241MOL0     H32470   7.356   9.483   1.439 -0.8646 -1.3833  2.9462
  241MOL0     H32471   7.270   9.482   1.285  1.6658 -1.0706  0.0513
  241MOL0     H32472   7.140   9.432   1.543 -0.7368 -0.8394 -0.3942
  241MOL0     H32473   7.069   9.450   1.382  1.3784 -1.0145 -0.1108
  241MOL0     H32474   7.180   9.689   1.382  0.1197  1.0792  1.7614
  241MOL0     H32475   7.181   9.659   1.552  1.7076  2.8445 -1.9304
  241MOL0     H32476   6.913   9.622   1.392  0.7600  1.4222 -1.9085
  241MOL0     H32477   6.923   9.679   1.558  0.1759  0.5886  0.5372
  241MOL0     H32478   7.032   9.883   1.464  1.4699 -2.5646  0.6721
  241MOL0     H32479   6.996   9.808   1.301  0.4485 -3.6562  0.3461
  241MOL0     H32480   6.779   9.834   1.318  2.4898 -1.1401 -0.9833
  241MOL0     H32481   6.782   9.854   1.500 -0.0269 -2.8526  0.3634
  241MOL0     H32482   6.883  10.065   1.297 -0.5872 -0.6108 -0.3192
  241MOL0     H32483   6.888  10.079   1.476 -0.1389  1.6602 -0.4242
  241MOL0     H32484   6.626  10.057   1.313 -0.9012  1.6856 -0.4947
  241MOL0     H32485   6.644  10.075   1.492 -2.1280  2.9331 -0.8072
  241MOL0     H32486   6.617  10.268   1.201 -0.7818 -0.7541 -0.0084
  241MOL0     H32487   6.544  10.548   1.167 -2.0016 -1.2323  1.0760
  241MOL0     H32488   6.554  10.636   1.306 -1.1240 -2.7223  3.0209
  241MOL0     H32489   6.725  10.742   1.173  1.1177 -0.1107 -0.7779
  241MOL0     H32490   6.816  10.633   1.277  0.5643 -0.4637 -0.5477
  241MOL0     H32491   6.729  10.603   0.987  0.8015  0.0290 -0.3174
  241MOL0     H32492   6.787  10.470   1.084  0.3645  0.5526  1.1572
  241MOL0     H32493   7.016  10.561   1.127  0.7992  1.1165  0.2738
  241MOL0     H32494   6.961  10.718   1.055 -0.1687 -0.9856 -3.1471
  241MOL0     H32495   7.091  10.430   0.731 -0.0802 -0.7287  2.4807
  241MOL0     H32496   7.327  10.436   0.647  0.5692  0.0203  0.3935
  241MOL0     H32497   7.727  10.906   0.798  1.8336  1.8162 -3.2203
  241MOL0     H32498   7.976  10.942   0.798  1.6270 -0.0709 -0.1889
  241MOL0     H32499   8.305  10.861   0.684  0.7731 -0.9290  1.8177
  241MOL0     H32500   8.167  10.948   0.737  1.6185  0.8851 -1.7971
  241MOL0     H32501   8.322  10.977   0.909  2.7762 -0.7562 -2.4451
  241MOL0     H32502   8.190  10.882   0.972 -0.0236  0.7956  0.5519
  241MOL0     H32503   8.379  10.711   0.871 -0.5048  2.0204 -0.5614
  241MOL0     H32504   8.471  10.820   0.994  0.7052 -2.7126  2.0744
  241MOL0     H32505   8.234  10.645   1.044  0.4588 -0.6893 -1.4001
  241MOL0     H32506   8.278  10.768   1.155  1.4081 -0.6279  0.3419
  241MOL0     H32507   8.520  10.591   1.075 -0.1168  0.9858 -0.8990
  241MOL0     H32508   8.379  10.511   1.145 -1.2357  1.3486 -0.4021
  241MOL0     H32509   8.557  10.733   1.246 -0.8331  2.1363  3.9589
  241MOL0     H32510   8.418  10.674   1.334 -0.5856  3.2426 -3.2327
  241MOL0     H32511   8.645  10.468   1.242  2.7478 -0.0735  0.8664
  241MOL0     H32512   8.503  10.447   1.354 -0.2531  0.2197  0.6485
  241MOL0     H32513   8.725  10.451   1.473 -1.1739  0.7574  2.9552
  241MOL0     H32514   8.763  10.607   1.403  3.5882 -4.8545  0.3349
  241MOL0     H32515   8.032  10.528   0.752 -1.5711 -0.9547  0.1166
  241MOL0     H32516   7.773  10.483   0.728  0.6495 -0.8113  0.6774
  241MOL0     H32517   7.397  10.747   0.946 -0.9979 -0.2334 -0.4376
  241MOL0     H32518   7.177  10.746   1.009  0.2609  2.2514 -0.0014
  241MOL0     H32519   7.101   9.129   1.326  0.4609 -0.2007  1.6548
  241MOL0     H32520   7.102   8.990   1.115  1.7841  0.3438 -0.3841
  241MOL0     H32521   7.337   9.137   0.537 -1.4289 -0.4842 -2.9661
  241MOL0     H32522   7.373   8.971   0.339 -3.0051 -0.8446 -1.2824
  241MOL0     H32523   7.209   8.838   0.231  0.3013 -0.1584 -5.1590
  241MOL0     H32524   7.133   8.705   0.305  1.2706 -1.2523  2.2321
  241MOL0     H32525   7.243   8.530   0.160 -1.4688 -0.2278 -1.8454
  241MOL0     H32526   7.346   8.644   0.089  2.0653  0.4132  2.9553
  241MOL0     H32527   7.165   8.596  -0.055 -3.4842 -0.8144 -0.4152
  241MOL0     H32528   7.140   8.764  -0.007  1.9009 -0.7124 -1.0593
  241MOL0     H32529   6.998   8.522   0.128  2.5198 -0.0435  0.0011
  241MOL0     H32530   6.971   8.698   0.157 -1.4272  0.9375 -2.0982
  241MOL0     H32531   6.723   8.649  -0.162  2.1705  2.0378 -1.5532
  241MOL0     H32532   7.302   8.638   0.586  0.3725  0.4345 -1.0121
  241MOL0     H32533   7.184   8.818   0.870  0.2549 -0.2526  1.9985
  241MOL0     H32534   7.205   8.658   0.806 -3.2581  1.5687  1.0638
  241MOL0     H32535   7.341   8.752   0.878 -0.1457  1.0902  0.5639
  242MOL0     O32536   2.903   3.425   6.738  0.2643  0.2319  1.1232
  242MOL0     C32537   2.979   3.463   6.650  0.8854 -0.9748  0.4094
  242MOL0     O32538   2.959   3.582   6.575  0.1912 -0.1741 -0.2423
  242MOL0     C32539   2.841   3.658   6.572  0.9163  0.2658 -0.2367
  242MOL0     C32540   2.728   3.661   6.660  0.4502  0.3299  0.4061
  242MOL0     C32541   2.624   3.760   6.652  0.4955  0.2619 -0.3858
  242MOL0     C32542   2.645   3.867   6.569  1.2598  0.1597  0.1704
  242MOL0     O32543   2.536   3.952   6.559 -0.4056 -0.3034  0.2102
  242MOL0     C32544   2.543   4.080   6.489 -0.7172 -0.5571  0.0730
  242MOL0     C32545   2.412   4.133   6.522  1.1754  0.5873  1.0128
  242MOL0     C32546   2.375   4.258   6.447  0.0547 -0.6526  1.7852
  242MOL0     C32547   2.339   4.245   6.294  0.3203 -0.9067 -0.7172
  242MOL0     C32548   2.393   4.358   6.211 -0.0670 -0.1054 -2.2295
  242MOL0     C32549   2.362   4.360   6.063 -0.0450 -0.3438 -1.2394
  242MOL0     C32550   2.387   4.493   6.001 -0.1676  0.4611  0.2721
  242MOL0     C32551   2.358   4.501   5.849  0.2266 -0.2927  0.7607
  242MOL0     N32552   2.462   4.423   5.783  0.4278 -0.2067  0.2374
  242MOL0     C32553   2.433   4.314   5.690  0.7384 -0.5832 -0.5619
  242MOL0     C32554   2.554   4.276   5.633  0.0665  0.2006  0.2544
  242MOL0     C32555   2.589   4.176   5.520 -0.5848 -0.3362 -0.5398
  242MOL0     C32556   2.476   4.064   5.534  1.1269 -0.5044 -1.0938
  242MOL0     C32557   2.479   3.954   5.422 -0.7288 -0.7121 -1.2780
  242MOL0     C32558   2.618   3.890   5.396  0.7515 -0.0893  0.6169
  242MOL0     O32559   2.639   3.819   5.521 -0.2266 -0.0632 -0.0383
  242MOL0     C32560   2.755   3.752   5.533  0.5579 -0.0434  0.2731
  242MOL0     C32561   2.864   3.756   5.446  0.4354 -0.9804  0.2782
  242MOL0     C32562   2.982   3.687   5.477 -0.1390 -0.6537  0.3021
  242MOL0     C32563   2.995   3.613   5.595 -1.0073  0.7765 -0.2690
  242MOL0     C32564   3.122   3.550   5.625 -0.6272 -0.4007  0.1648
  242MOL0     O32565   3.198   3.511   5.517 -0.1423 -0.1232 -0.1467
  242MOL0     C32566   3.326   3.475   5.547  0.6719  0.6933  0.1639
  242MOL0     C32567   3.426   3.555   5.599  0.0318 -0.7575 -0.3025
  242MOL0     C32568   3.550   3.512   5.650 -0.2180  0.4741 -0.1274
  242MOL0     C32569   3.583   3.382   5.626 -0.1797  0.9024 -0.2099
  242MOL0     O32570   3.683   3.311   5.679 -0.1655 -0.5801 -0.6901
  242MOL0     C32571   3.764   3.384   5.783 -0.2619  0.6042 -0.1186
  242MOL0     C32572   3.888   3.298   5.791  0.8948 -0.1745 -0.6192
  242MOL0     C32573   3.979   3.294   5.671 -0.2918  0.0576  0.2331
  242MOL0     C32574   4.111   3.225   5.705 -0.2654  0.9041 -0.3418
  242MOL0     C32575   4.230   3.264   5.626 -0.4220 -0.6031  1.4251
  242MOL0     C32576   4.246   3.185   5.502  0.0105 -0.0378 -0.2810
  242MOL0     C32577   4.352   3.245   5.413 -0.4683  0.2154 -0.4958
  242MOL0     C32578   4.380   3.149   5.297 -0.3232 -0.3964  0.5053
  242MOL0    Cl32579   4.529   3.202   5.209 -0.0953 -0.4322 -0.5112
  242MOL0     C32580   3.497   3.305   5.550 -0.6313  0.6038 -0.2070
  242MOL0     C32581   3.369   3.353   5.501 -0.3414 -0.8106 -0.0837
  242MOL0     O32582   3.146   3.539   5.746 -0.9011  0.3166 -0.1637
  242MOL0     C32583   2.889   3.619   5.684  0.6574 -0.3400 -0.3668
  242MOL0     C32584   2.766   3.682   5.657 -0.1658 -0.0805 -0.4346
  242MOL0     N32585   2.658   4.354   5.686 -0.3135 -0.0851 -0.5368
  242MOL0     N32586   2.604   4.434   5.778  0.3323  0.0564  0.5483
  242MOL0     C32587   2.764   3.880   6.492  0.3148 -0.6722 -0.6529
  242MOL0     C32588   2.847   3.771   6.493 -0.5635  0.2672  0.6761
  242MOL0     C32589   3.080   3.363   6.603  0.2750  0.6201  0.4160
  242MOL0     C32590   3.108   3.356   6.460 -0.0239 -0.5985 -0.0892
  242MOL0     C32591   3.204   3.278   6.402 -0.3772  0.0321 -0.0838
  242MOL0     C32592   3.281   3.197   6.485 -0.2084 -1.0047 -0.5962
  242MOL0     O32593   3.371   3.120   6.427  0.0833 -0.7228  0.6372
  242MOL0     C32594   3.314   3.008   6.344 -0.0212  0.2641 -0.2038
  242MOL0     C32595   3.287   2.884   6.424  0.6958  0.4581  1.1338
  242MOL0     C32596   3.213   2.776   6.346  0.7014  0.3576 -0.7239
  242MOL0     C32597   3.314   2.678   6.283  0.7124 -0.2862 -0.1795
  242MOL0     C32598   3.252   2.614   6.174  0.1575  0.6916 -0.3501
  242MOL0     C32599   3.231   2.550   6.076  0.2510  0.2685 -0.0218
  242MOL0     C32600   3.258   3.193   6.621 -0.6478  0.0033  0.9652
  242MOL0     C32601   3.155   3.270   6.679  0.9046 -0.0043  0.3464
  242MOL0     C32602   3.134   3.259   6.833  0.4698 -1.1258  0.0171
  242MOL0     H32603   2.706   3.593   6.742 -0.6466  1.3432  0.9911
  242MOL0     H32604   2.533   3.753   6.711  1.4208  0.1788  1.0949
  242MOL0     H32605   2.623   4.141   6.534 -2.0339  1.2997  0.0120
  242MOL0     H32606   2.556   4.078   6.381 -1.3667 -0.6294 -0.0073
  242MOL0     H32607   2.410   4.169   6.625 -0.4145  4.1151 -0.0761
  242MOL0     H32608   2.339   4.054   6.502  2.3091 -0.2816  0.2155
  242MOL0     H32609   2.460   4.326   6.452  0.1085 -0.5482 -0.1280
  242MOL0     H32610   2.291   4.312   6.492 -0.5119 -2.6712  3.2984
  242MOL0     H32611   2.382   4.159   6.240  0.7606 -0.2784 -1.3882
  242MOL0     H32612   2.230   4.240   6.293 -0.0710  0.4919  4.7370
  242MOL0     H32613   2.349   4.444   6.262 -1.1826 -0.8915 -1.8236
  242MOL0     H32614   2.502   4.359   6.219 -0.2420  1.0320  2.4686
  242MOL0     H32615   2.415   4.272   6.027 -1.3149 -1.4177 -0.5882
  242MOL0     H32616   2.255   4.345   6.044  0.5466 -2.3315 -3.4835
  242MOL0     H32617   2.489   4.525   6.026  1.1664 -0.8331 -2.9308
  242MOL0     H32618   2.307   4.564   6.023 -1.9115 -0.4092 -2.7401
  242MOL0     H32619   2.253   4.478   5.827 -0.8098  3.7055  0.6026
  242MOL0     H32620   2.360   4.602   5.806 -1.6135 -0.5938 -0.1363
  242MOL0     H32621   2.336   4.282   5.653  0.7315  0.0887 -1.1300
  242MOL0     H32622   2.587   4.228   5.424  0.6482  2.7941  0.9924
  242MOL0     H32623   2.693   4.144   5.532 -0.7220 -0.1491  1.4727
  242MOL0     H32624   2.481   4.016   5.632 -0.0440  2.8681  0.7891
  242MOL0     H32625   2.380   4.116   5.538  2.0050  1.1133  1.6560
  242MOL0     H32626   2.450   4.005   5.331  0.6888 -0.5126 -1.6504
  242MOL0     H32627   2.410   3.869   5.428 -0.4549 -0.9156 -0.9613
  242MOL0     H32628   2.699   3.963   5.386 -0.2436  0.8316 -1.5636
  242MOL0     H32629   2.619   3.831   5.305  1.8085 -1.2699  1.3724
  242MOL0     H32630   2.860   3.814   5.355 -0.4579  1.4874  1.7900
  242MOL0     H32631   3.053   3.693   5.395 -0.6529 -1.9173 -0.2735
  242MOL0     H32632   3.400   3.661   5.593  1.7269 -0.1268  2.0559
  242MOL0     H32633   3.611   3.588   5.697  3.8709 -0.9200 -2.6539
  242MOL0     H32634   3.782   3.490   5.760 -0.8625  0.9916  1.1038
  242MOL0     H32635   3.720   3.373   5.882  0.6307 -4.4950 -0.0329
  242MOL0     H32636   3.940   3.331   5.881 -1.4837  0.0685  0.7406
  242MOL0     H32637   3.850   3.199   5.820 -0.0895 -0.3589 -2.3921
  242MOL0     H32638   3.923   3.235   5.599 -2.6049  0.5450  1.5425
  242MOL0     H32639   3.995   3.396   5.634 -0.4573 -0.0174 -0.0493
  242MOL0     H32640   4.116   3.117   5.723  1.3778  1.4192  3.3984
  242MOL0     H32641   4.135   3.264   5.805 -0.6782  2.1903 -0.7348
  242MOL0     H32642   4.324   3.259   5.682 -0.3964 -2.6953  1.2960
  242MOL0     H32643   4.228   3.368   5.594  2.9825 -0.9134 -0.3317
  242MOL0     H32644   4.280   3.085   5.529 -1.0250 -0.9032 -2.0281
  242MOL0     H32645   4.153   3.172   5.446  0.4763  0.9116 -1.3068
  242MOL0     H32646   4.448   3.259   5.463 -0.2007 -2.8721  0.0800
  242MOL0     H32647   4.319   3.335   5.361 -0.5946  1.9462  2.3563
  242MOL0     H32648   4.406   3.051   5.338  3.5606  0.3972  0.3296
  242MOL0     H32649   4.290   3.151   5.235  0.0270  2.6505 -0.0658
  242MOL0     H32650   3.511   3.198   5.532 -2.5135  0.3795 -0.5646
  242MOL0     H32651   3.298   3.285   5.456 -0.5823 -1.8739  1.8077
  242MOL0     H32652   2.893   3.588   5.788 -2.9083  1.5409  0.4667
  242MOL0     H32653   2.684   3.675   5.728 -0.4046 -1.0890 -0.7990
  242MOL0     H32654   2.786   3.960   6.421  0.2490 -3.2592 -3.8159
  242MOL0     H32655   2.944   3.769   6.443 -0.7369 -1.8721  0.3501
  242MOL0     H32656   3.061   3.419   6.385 -0.2141 -1.2371 -0.5242
  242MOL0     H32657   3.230   3.270   6.297  2.7301 -3.0210  0.7272
  242MOL0     H32658   3.396   2.993   6.273  2.0423  1.0890  1.8560
  242MOL0     H32659   3.221   3.038   6.296 -2.8252 -1.3283  3.7704
  242MOL0     H32660   3.225   2.910   6.511  1.4547 -2.3433  2.6207
  242MOL0     H32661   3.374   2.840   6.473 -0.8488 -0.8063  2.8843
  242MOL0     H32662   3.148   2.824   6.273  2.7292  1.4646 -1.9119
  242MOL0     H32663   3.163   2.714   6.421 -2.0335  0.7412 -2.1336
  242MOL0     H32664   3.399   2.731   6.240 -1.5906  1.2829 -3.2351
  242MOL0     H32665   3.350   2.600   6.350  0.1883 -0.9656 -0.6657
  242MOL0     H32666   3.239   2.497   5.984  3.2717  1.3765 -0.5003
  242MOL0     H32667   3.321   3.134   6.687 -1.8200 -1.3258  0.9503
  242MOL0     H32668   3.137   3.152   6.858 -0.6830 -0.9817  0.8620
  242MOL0     H32669   3.209   3.324   6.879 -0.7323  2.6448 -2.9222
  242MOL0     H32670   3.031   3.278   6.866  0.1597 -3.7626  0.8060
  243MOL0     O32671  10.079   2.244   4.471  0.7331  0.1818 -1.7642
  243MOL0     C32672   9.991   2.165   4.443 -0.4572  0.8764 -0.9710
  243MOL0     O32673   9.900   2.111   4.537 -0.1346  0.4172 -0.1039
  243MOL0     C32674   9.936   2.137   4.667 -0.0265 -0.1736 -0.4356
  243MOL0     C32675   9.979   2.034   4.746 -0.4468  0.5184 -0.3385
  243MOL0     C32676  10.019   2.047   4.879  0.4920  0.0134  0.3524
  243MOL0     C32677  10.004   2.170   4.939  0.8995  0.4190 -0.5348
  243MOL0     O32678  10.048   2.203   5.064  0.3786 -0.1567  0.2175
  243MOL0     C32679  10.103   2.092   5.139 -0.1310  0.2046  0.0722
  243MOL0     C32680  10.181   2.159   5.244  0.4296 -0.2068  0.3372
  243MOL0     C32681  10.318   2.208   5.207 -0.2691  0.6301 -0.5257
  243MOL0     C32682  10.436   2.143   5.279  0.3480  1.0093 -0.3135
  243MOL0     C32683  10.467   2.178   5.428  1.0753  0.3524 -0.8812
  243MOL0     C32684  10.579   2.106   5.496 -0.2209 -0.6531 -0.0295
  243MOL0     C32685  10.586   2.159   5.642  0.5126  0.2751  0.8947
  243MOL0     C32686  10.687   2.071   5.720 -1.0533  0.5735  0.3787
  243MOL0     N32687  10.823   2.082   5.665 -0.5379  0.6650  1.0126
  243MOL0     C32688  10.889   2.190   5.627  0.2558 -0.2010 -0.3562
  243MOL0     C32689  11.006   2.142   5.591  0.4036 -0.5151 -0.3968
  243MOL0     C32690  11.121   2.225   5.538  0.4564 -0.6061  0.3813
  243MOL0     C32691  11.205   2.156   5.431  0.1842 -0.4020  0.0954
  243MOL0     C32692  11.125   2.123   5.306  0.9957  0.3372  0.0382
  243MOL0     C32693  11.218   2.068   5.207  0.6972 -0.0153 -0.3595
  243MOL0     O32694  11.175   2.047   5.070 -0.0307  0.9265 -0.4225
  243MOL0     C32695  11.129   2.159   5.005  0.0095 -0.1150 -0.4996
  243MOL0     C32696  10.998   2.197   5.004 -0.5070  0.1328  0.0457
  243MOL0     C32697  10.949   2.307   4.932 -0.3714 -1.1416  0.2477
  243MOL0     C32698  11.037   2.379   4.845  0.2124 -0.3706  0.1911
  243MOL0     C32699  10.981   2.490   4.756 -0.5497 -0.1023  0.1235
  243MOL0     O32700  10.863   2.525   4.792  0.0647 -0.6891  0.1945
  243MOL0     C32701  10.809   2.640   4.746  0.4003  0.6475  0.8619
  243MOL0     C32702  10.673   2.617   4.722 -0.3778 -1.1346 -0.0197
  243MOL0     C32703  10.593   2.732   4.676  0.5423  0.2193  0.2104
  243MOL0     C32704  10.648   2.856   4.652 -0.3993 -0.1669 -0.0233
  243MOL0     O32705  10.581   2.967   4.605  0.0976 -0.1874 -0.1274
  243MOL0     C32706  10.467   3.024   4.669 -0.5656  0.6050 -0.8733
  243MOL0     C32707  10.410   3.144   4.579 -0.0585  0.2632 -1.1816
  243MOL0     C32708  10.345   3.101   4.440  0.0806 -1.2940  0.6484
  243MOL0     C32709  10.438   3.015   4.351 -0.4672  0.0868  0.3973
  243MOL0     C32710  10.568   3.096   4.322  0.1847  0.0659  0.2532
  243MOL0     C32711  10.638   3.044   4.202 -0.1100 -0.5246 -0.3872
  243MOL0     C32712  10.732   3.148   4.141 -0.6378 -0.1634  0.3042
  243MOL0     C32713  10.833   3.206   4.238  0.1982  0.5046 -0.0644
  243MOL0    Cl32714  10.929   3.083   4.332 -0.2332  0.0200  0.1850
  243MOL0     C32715  10.787   2.871   4.677  0.2546  0.6819 -1.2091
  243MOL0     C32716  10.864   2.771   4.730 -0.7753  0.0702  0.0260
  243MOL0     O32717  11.049   2.542   4.662  0.5208 -0.8414  0.3298
  243MOL0     C32718  11.176   2.346   4.843  0.4802  0.1824 -0.3961
  243MOL0     C32719  11.217   2.243   4.925  0.4338  0.5163 -0.6683
  243MOL0     N32720  11.021   2.003   5.624 -0.7679  0.4177  0.1003
  243MOL0     N32721  10.904   1.970   5.657 -0.0586 -0.0639 -0.3715
  243MOL0     C32722   9.978   2.283   4.858 -0.0358 -0.9212 -0.2044
  243MOL0     C32723   9.945   2.264   4.725  0.6276  0.3458  0.2020
  243MOL0     C32724   9.965   2.130   4.299 -0.2953  0.2724  0.3738
  243MOL0     C32725   9.881   2.020   4.279 -0.3950 -0.4599 -0.4996
  243MOL0     C32726   9.845   1.978   4.151 -0.4942  0.0605 -0.5849
  243MOL0     C32727   9.888   2.048   4.041  0.5137  0.4013 -0.5368
  243MOL0     O32728   9.862   2.003   3.911  0.5015  0.1045 -0.7861
  243MOL0     C32729   9.776   2.099   3.834  0.0988  0.2853 -0.7646
  243MOL0     C32730   9.642   2.034   3.816  1.2248  0.0516  0.0485
  243MOL0     C32731   9.641   1.911   3.728  0.3959 -0.4069  0.3630
  243MOL0     C32732   9.668   1.952   3.581 -1.0910  0.1992  0.1956
  243MOL0     C32733   9.554   2.017   3.518 -0.8265  0.4972  0.2399
  243MOL0     C32734   9.460   2.067   3.455 -0.8635 -0.6067 -0.2959
  243MOL0     C32735   9.970   2.162   4.061 -0.1958 -1.1062  0.6471
  243MOL0     C32736  10.011   2.196   4.182  0.9897  0.3165 -1.3618
  243MOL0     C32737  10.109   2.307   4.209  0.4029 -0.4223 -0.1515
  243MOL0     H32738   9.967   1.935   4.704 -3.0889  2.4015 -4.6687
  243MOL0     H32739  10.045   1.959   4.936 -0.7607 -0.6199 -0.0122
  243MOL0     H32740  10.016   2.041   5.180 -3.4400  3.4894 -2.1843
  243MOL0     H32741  10.170   2.026   5.083 -1.9628 -1.5530 -0.1254
  243MOL0     H32742  10.189   2.091   5.330  0.5026  0.3068  0.7423
  243MOL0     H32743  10.133   2.255   5.267  0.3876 -0.2091  0.2625
  243MOL0     H32744  10.344   2.312   5.231 -0.1641 -0.1231  3.2506
  243MOL0     H32745  10.326   2.189   5.100  0.4555 -2.7846  0.0116
  243MOL0     H32746  10.415   2.036   5.265 -0.6802  1.0976  0.4079
  243MOL0     H32747  10.523   2.154   5.215  1.9346 -1.4660  1.2629
  243MOL0     H32748  10.489   2.286   5.428 -1.3624  0.9022 -0.1742
  243MOL0     H32749  10.379   2.161   5.490  1.3614  1.0674 -0.2677
  243MOL0     H32750  10.558   2.000   5.480  1.8710 -0.9992 -0.8905
  243MOL0     H32751  10.669   2.130   5.439 -0.6442 -1.4935 -1.0943
  243MOL0     H32752  10.488   2.152   5.690  0.9492 -2.2129  1.5922
  243MOL0     H32753  10.605   2.267   5.644  2.4525  0.0006  0.0601
  243MOL0     H32754  10.705   2.096   5.825  1.0704  0.2856  0.1159
  243MOL0     H32755  10.652   1.968   5.713  0.8959 -0.0039 -1.7972
  243MOL0     H32756  10.859   2.294   5.632 -2.4245 -0.8717 -0.8971
  243MOL0     H32757  11.087   2.312   5.481 -1.4809  0.2464  2.7217
  243MOL0     H32758  11.185   2.277   5.610  0.5170 -0.4787  0.2365
  243MOL0     H32759  11.283   2.231   5.416 -1.6451  1.4843 -0.3671
  243MOL0     H32760  11.254   2.066   5.471  0.9852  1.3676  3.4368
  243MOL0     H32761  11.082   2.212   5.259 -0.4853  0.8754  2.2329
  243MOL0     H32762  11.040   2.054   5.315  0.6632  0.0121 -3.8540
  243MOL0     H32763  11.255   1.974   5.249  0.4526 -0.0669 -0.2586
  243MOL0     H32764  11.304   2.135   5.206  0.4728  0.7047  4.9076
  243MOL0     H32765  10.918   2.133   5.039 -0.3226  0.9465  2.1072
  243MOL0     H32766  10.842   2.320   4.936 -0.4581  0.4684 -3.3684
  243MOL0     H32767  10.633   2.516   4.730  2.0873 -2.0696  1.5425
  243MOL0     H32768  10.487   2.721   4.661  0.8034 -2.1058 -0.2876
  243MOL0     H32769  10.401   2.942   4.697 -0.1661  0.5880  0.0176
  243MOL0     H32770  10.502   3.066   4.763  2.7067  0.5298 -1.9455
  243MOL0     H32771  10.338   3.205   4.634  3.0420  1.4727  1.9507
  243MOL0     H32772  10.496   3.211   4.591 -0.4728  0.6701 -0.4243
  243MOL0     H32773  10.244   3.060   4.453 -2.5101  3.9940 -0.2902
  243MOL0     H32774  10.316   3.194   4.392  1.3532 -0.6090  1.1637
  243MOL0     H32775  10.380   2.987   4.263 -1.6256  2.5069  0.3066
  243MOL0     H32776  10.469   2.918   4.390  0.9271 -1.1022 -3.2605
  243MOL0     H32777  10.626   3.091   4.414  0.1057 -0.6182  0.2758
  243MOL0     H32778  10.535   3.199   4.307  3.5614  1.3410  0.6565
  243MOL0     H32779  10.696   2.953   4.219  1.2652  0.7991  3.0861
  243MOL0     H32780  10.560   3.022   4.129 -0.3739  0.6651 -0.4891
  243MOL0     H32781  10.661   3.222   4.103  0.3048  0.2366 -0.7095
  243MOL0     H32782  10.782   3.103   4.055 -1.2036  3.0766 -1.9258
  243MOL0     H32783  10.906   3.274   4.191  0.8981 -0.5051 -0.4691
  243MOL0     H32784  10.785   3.275   4.308  2.7781  0.3702  1.9980
  243MOL0     H32785  10.833   2.964   4.644  1.0198  0.5342 -0.5873
  243MOL0     H32786  10.966   2.796   4.757 -0.3870  1.0880 -2.1316
  243MOL0     H32787  11.248   2.401   4.783 -0.6522  1.4850 -0.6054
  243MOL0     H32788  11.321   2.212   4.928 -0.5083 -3.2401 -1.6212
  243MOL0     H32789   9.962   2.376   4.912  0.5383 -2.4699  2.8661
  243MOL0     H32790   9.917   2.351   4.666 -2.6731 -1.4480 -1.1481
  243MOL0     H32791   9.844   1.953   4.356  0.6910 -1.7770 -1.0790
  243MOL0     H32792   9.770   1.900   4.147  1.0746 -1.4693 -1.5534
  243MOL0     H32793   9.810   2.127   3.734 -1.8895  0.7101 -1.3560
  243MOL0     H32794   9.784   2.198   3.880  2.4833  0.1655 -0.7781
  243MOL0     H32795   9.569   2.101   3.770  0.7836  1.4780  2.6156
  243MOL0     H32796   9.604   2.002   3.914 -1.3875 -1.2187 -1.2676
  243MOL0     H32797   9.544   1.861   3.731 -0.1881  0.4404 -2.1294
  243MOL0     H32798   9.722   1.846   3.762  4.0348  3.3647 -0.2624
  243MOL0     H32799   9.751   2.023   3.576 -1.4670  0.5686 -3.5140
  243MOL0     H32800   9.710   1.861   3.538  1.2426 -0.9700  4.3085
  243MOL0     H32801   9.376   2.100   3.398  0.8609  1.2823 -1.9058
  243MOL0     H32802  10.008   2.213   3.973 -0.6255 -2.4498 -0.3574
  243MOL0     H32803  10.061   2.388   4.264  0.2286 -0.6142 -0.0173
  243MOL0     H32804  10.195   2.264   4.263  0.2234  0.3178  0.7357
  243MOL0     H32805  10.150   2.346   4.115 -1.3210  1.2876 -0.2392
  244MOL0     O32806   8.342  11.116   1.150 -0.1738 -0.3549 -0.2606
  244MOL0     C32807   8.223  11.095   1.179  0.6219  0.1053 -0.8612
  244MOL0     O32808   8.176  11.060   1.305 -0.2594  0.3685  0.0145
  244MOL0     C32809   8.277  11.037   1.393 -0.4534  0.0231  0.1597
  244MOL0     C32810   8.274  10.910   1.443  0.2005  0.1423 -0.6693
  244MOL0     C32811   8.374  10.875   1.542  0.5970  0.3863 -0.2308
  244MOL0     C32812   8.466  10.967   1.594  1.1439 -1.1665 -0.4218
  244MOL0     O32813   8.549  10.927   1.693 -0.0765  0.8690 -0.3816
  244MOL0     C32814   8.670  11.000   1.716  0.2852 -0.7549 -0.0488
  244MOL0     C32815   8.797  10.909   1.750  0.0052  0.8766 -0.3442
  244MOL0     C32816   8.778  10.846   1.892  0.6799  0.9255 -0.3849
  244MOL0     C32817   8.868  10.743   1.900 -0.9506 -0.6750 -0.3667
  244MOL0     C32818   8.856  10.679   2.043  0.2415  0.3282 -0.3999
  244MOL0     C32819   8.941  10.561   2.068 -0.0561  0.5371 -0.0383
  244MOL0     C32820   8.915  10.509   2.214  1.0019 -0.9186  1.0867
  244MOL0     C32821   9.037  10.434   2.264  0.4669  0.3250 -0.3388
  244MOL0     N32822   9.069  10.325   2.177 -0.0807  0.0092  0.1285
  244MOL0     C32823   9.014  10.199   2.178  0.5510  0.0316  0.5467
  244MOL0     C32824   9.073  10.134   2.080 -0.0820  0.9107 -0.9848
  244MOL0     C32825   9.060   9.996   2.044 -0.4535 -0.3755  0.3249
  244MOL0     C32826   8.983   9.971   1.908  0.8632 -0.0400 -0.2071
  244MOL0     C32827   8.834   9.961   1.925 -0.0108 -0.0520 -0.1639
  244MOL0     C32828   8.756   9.902   1.816  0.2808  0.3857 -0.4418
  244MOL0     O32829   8.790   9.966   1.687  0.5101 -0.3804 -0.6610
  244MOL0     C32830   8.682   9.993   1.601 -0.0465  0.9479 -0.3568
  244MOL0     C32831   8.560  10.033   1.644  0.3132 -0.0994 -0.1414
  244MOL0     C32832   8.473  10.094   1.549 -0.6823  0.2892  0.0553
  244MOL0     C32833   8.507  10.097   1.411  0.8710  0.8867 -1.0464
  244MOL0     C32834   8.405  10.148   1.323  0.1984 -1.0283 -0.6674
  244MOL0     O32835   8.280  10.159   1.372  0.2309  0.1276 -0.7339
  244MOL0     C32836   8.220  10.278   1.332 -0.9326 -0.3132  0.5057
  244MOL0     C32837   8.240  10.403   1.390 -0.5857 -1.1479 -0.1806
  244MOL0     C32838   8.169  10.514   1.348  0.4552 -0.4160 -1.3460
  244MOL0     C32839   8.077  10.508   1.243 -0.5488  0.4579 -0.4436
  244MOL0     O32840   8.016  10.630   1.218 -0.3381  0.7873 -0.2635
  244MOL0     C32841   7.947  10.634   1.098  0.0429  0.2669  0.1117
  244MOL0     C32842   7.795  10.595   1.125 -0.8900  0.2783  0.1495
  244MOL0     C32843   7.726  10.703   1.200  0.4140  0.2255  0.2495
  244MOL0     C32844   7.578  10.671   1.209 -0.4314  0.2758  0.0308
  244MOL0     C32845   7.497  10.792   1.242  0.9099 -1.0241 -0.1044
  244MOL0     C32846   7.354  10.746   1.296 -0.5110 -0.3473  0.2159
  244MOL0     C32847   7.270  10.841   1.371 -0.6893  0.3076  0.2948
  244MOL0     C32848   7.296  10.986   1.336  0.3633 -0.5515  0.1841
  244MOL0    Cl32849   7.250  11.004   1.172  0.1707  0.1431  0.1390
  244MOL0     C32850   8.061  10.381   1.185  0.3716  0.2549  0.0135
  244MOL0     C32851   8.119  10.267   1.227  0.1070 -0.3631 -0.0515
  244MOL0     O32852   8.452  10.215   1.232 -0.0600  0.2364 -0.2587
  244MOL0     C32853   8.620  10.031   1.358 -0.9158 -0.4167 -0.2256
  244MOL0     C32854   8.709   9.981   1.460  0.5633  0.4179 -0.0453
  244MOL0     N32855   9.171  10.216   2.028  0.1123 -1.0892 -0.2389
  244MOL0     N32856   9.162  10.338   2.086  0.2308  0.1799  0.1456
  244MOL0     C32857   8.466  11.100   1.538 -0.4704  0.1923 -0.2707
  244MOL0     C32858   8.375  11.131   1.438  0.3171 -0.7093  0.7077
  244MOL0     C32859   8.113  11.131   1.089  0.8118  0.3735 -0.2506
  244MOL0     C32860   7.989  11.063   1.104  0.4575 -0.3446  0.0193
  244MOL0     C32861   7.875  11.084   1.023 -0.5063  0.8837 -0.5336
  244MOL0     C32862   7.883  11.184   0.922 -0.3108 -0.1117  0.3323
  244MOL0     O32863   7.767  11.209   0.860  0.2542  0.0291  0.5042
  244MOL0     C32864   7.765  11.322   0.763  0.3276 -0.3069 -0.9099
  244MOL0     C32865   7.631  11.349   0.714  0.4402  0.7430 -0.0981
  244MOL0     C32866   7.541  11.378   0.838  0.2499  0.6546 -0.3223
  244MOL0     C32867   7.412  11.457   0.805  0.1818 -0.7635  0.6522
  244MOL0     C32868   7.337  11.503   0.924 -0.6225  0.1687 -0.5672
  244MOL0     C32869   7.276  11.534   1.017 -0.2415 -0.7605 -0.7960
  244MOL0     C32870   8.009  11.254   0.908  0.5157 -0.2974  0.6084
  244MOL0     C32871   8.122  11.224   0.986 -0.1362 -0.3728  1.0576
  244MOL0     C32872   8.248  11.294   0.959 -0.1759 -0.1973 -0.0272
  244MOL0     H32873   8.203  10.835   1.410  2.5823 -1.3119 -2.8455
  244MOL0     H32874   8.387  10.779   1.591  1.3683  0.1461 -0.8692
  244MOL0     H32875   8.711  11.052   1.629 -1.5439 -1.6435 -1.5037
  244MOL0     H32876   8.660  11.077   1.793  0.0504  1.1885 -1.9288
  244MOL0     H32877   8.892  10.962   1.747 -0.4355  1.9369  1.8129
  244MOL0     H32878   8.801  10.832   1.672  0.1867 -0.8154  1.2616
  244MOL0     H32879   8.673  10.819   1.898 -0.0870  3.2295 -1.8794
  244MOL0     H32880   8.784  10.910   1.981  0.3148  0.2795  0.1173
  244MOL0     H32881   8.851  10.665   1.825 -1.4594 -0.3330 -0.6093
  244MOL0     H32882   8.971  10.777   1.886 -0.2415 -2.5866 -0.1423
  244MOL0     H32883   8.886  10.753   2.117 -1.1440 -1.6299  2.2693
  244MOL0     H32884   8.750  10.669   2.064  0.7602 -2.1088  1.4997
  244MOL0     H32885   8.924  10.471   2.007  1.0237 -0.9887  1.7986
  244MOL0     H32886   9.047  10.588   2.058 -0.0064  0.0058 -1.0866
  244MOL0     H32887   8.832  10.439   2.201  1.0890 -0.4906 -2.7035
  244MOL0     H32888   8.898  10.589   2.287  1.0292 -0.1741  0.2803
  244MOL0     H32889   9.118  10.506   2.276 -1.0573  1.7513  2.2180
  244MOL0     H32890   9.003  10.399   2.362 -2.3550  2.7381 -0.3278
  244MOL0     H32891   8.945  10.161   2.252  0.5666 -0.2067  0.4382
  244MOL0     H32892   9.158   9.950   2.029  0.1927  1.4816 -1.6893
  244MOL0     H32893   9.020   9.936   2.126  1.1061  2.9421  3.8513
  244MOL0     H32894   9.006  10.052   1.837  1.2339 -1.9060 -2.3366
  244MOL0     H32895   9.026   9.882   1.861  1.3380 -1.3571  2.5462
  244MOL0     H32896   8.803  10.059   1.961 -5.7777 -2.0201  1.3888
  244MOL0     H32897   8.820   9.890   2.008  2.0832 -0.7532 -0.3347
  244MOL0     H32898   8.650   9.897   1.841  0.8317 -0.8706  1.9336
  244MOL0     H32899   8.787   9.798   1.806  1.1871  0.5685  0.3273
  244MOL0     H32900   8.536  10.052   1.749 -1.3677  2.7797 -0.9286
  244MOL0     H32901   8.398  10.155   1.598  1.7839  4.3056 -0.7250
  244MOL0     H32902   8.314  10.416   1.469 -0.1239 -0.8016 -0.6613
  244MOL0     H32903   8.191  10.611   1.391 -0.7354  1.3560 -4.4108
  244MOL0     H32904   7.953  10.738   1.064  0.3594  0.8144  1.7813
  244MOL0     H32905   8.001  10.572   1.025  2.4185  0.8739  1.2615
  244MOL0     H32906   7.749  10.570   1.029  2.6821 -0.6210 -1.5108
  244MOL0     H32907   7.791  10.505   1.187  2.4430  0.5401  0.9336
  244MOL0     H32908   7.764  10.725   1.300 -1.0730 -1.9232  1.3577
  244MOL0     H32909   7.729  10.794   1.139 -0.5007 -1.8512 -3.1468
  244MOL0     H32910   7.581  10.591   1.283  0.2599 -0.3743 -0.6885
  244MOL0     H32911   7.551  10.621   1.116 -1.4028 -0.6751  0.8022
  244MOL0     H32912   7.487  10.852   1.152  0.4002 -3.1886 -1.5671
  244MOL0     H32913   7.547  10.844   1.324  0.0789  1.3977 -1.0661
  244MOL0     H32914   7.308  10.712   1.203 -1.0200 -1.9286  1.0102
  244MOL0     H32915   7.374  10.654   1.351  0.1570 -1.2272 -1.4325
  244MOL0     H32916   7.285  10.816   1.477 -1.3886 -2.1429 -0.1103
  244MOL0     H32917   7.167  10.813   1.348 -0.0954 -1.1464 -0.7714
  244MOL0     H32918   7.235  11.039   1.410  0.1556  0.1349 -0.4660
  244MOL0     H32919   7.402  11.011   1.344 -0.3253  2.3183  1.5506
  244MOL0     H32920   7.993  10.374   1.100  0.1089  0.6190  0.1928
  244MOL0     H32921   8.087  10.176   1.177 -0.4601 -0.0949 -0.1849
  244MOL0     H32922   8.643  10.024   1.252  2.0284 -0.3074  0.3235
  244MOL0     H32923   8.799   9.928   1.431 -0.0756 -1.4636  1.1552
  244MOL0     H32924   8.538  11.167   1.584 -0.0024 -1.2376  1.1677
  244MOL0     H32925   8.389  11.231   1.399  0.8144 -0.5618  1.2455
  244MOL0     H32926   7.980  10.984   1.178 -0.3598 -0.0382  0.2648
  244MOL0     H32927   7.788  11.019   1.027 -0.0147  0.1125 -1.6526
  244MOL0     H32928   7.841  11.319   0.685  0.5471  1.8310 -0.8322
  244MOL0     H32929   7.801  11.413   0.812 -0.9766 -0.3782  0.2453
  244MOL0     H32930   7.581  11.265   0.665 -0.0076 -1.1551  3.3040
  244MOL0     H32931   7.646  11.439   0.654 -2.3725  1.6877  0.4560
  244MOL0     H32932   7.593  11.443   0.910 -2.1236  0.4775  1.6813
  244MOL0     H32933   7.510  11.286   0.889 -0.2853  1.3213  0.5972
  244MOL0     H32934   7.446  11.543   0.747  2.0634 -2.7052 -1.2929
  244MOL0     H32935   7.347  11.405   0.734  2.6798  0.2277 -2.6363
  244MOL0     H32936   7.219  11.562   1.103  0.0086 -1.7606 -0.2969
  244MOL0     H32937   8.016  11.329   0.830 -0.4454  0.2847  1.0642
  244MOL0     H32938   8.327  11.221   0.939  0.5472 -0.0691  2.1438
  244MOL0     H32939   8.239  11.352   0.866 -0.5297  0.8726  0.6629
  244MOL0     H32940   8.269  11.351   1.050  3.0632  2.0176 -1.9279
  245MOL0     O32941   9.175   9.996   2.396 -1.0463 -0.0972  0.9423
  245MOL0     C32942   9.147   9.890   2.434 -0.5763  0.4492 -0.0595
  245MOL0     O32943   9.041   9.865   2.505  0.0653 -0.5320  0.2103
  245MOL0     C32944   8.938   9.947   2.501  0.4750 -0.6181  0.5489
  245MOL0     C32945   8.907  10.031   2.608  0.5586  0.1687 -0.1751
  245MOL0     C32946   8.791  10.115   2.600 -0.6846  1.3447 -0.8841
  245MOL0     C32947   8.720  10.123   2.482  0.0049  0.4021  0.5522
  245MOL0     O32948   8.607  10.204   2.464  0.0277  0.5627 -0.1404
  245MOL0     C32949   8.590  10.314   2.559 -0.3824 -1.1634  0.7469
  245MOL0     C32950   8.474  10.401   2.496  0.6055  0.1982  0.2954
  245MOL0     C32951   8.427  10.520   2.575 -0.3392 -0.1780 -0.0062
  245MOL0     C32952   8.291  10.554   2.546 -0.2612  0.0813  0.8280
  245MOL0     C32953   8.216  10.622   2.664  0.0177  0.4616  0.7119
  245MOL0     C32954   8.090  10.675   2.613  0.5042 -0.1630 -0.5767
  245MOL0     C32955   8.015  10.756   2.712  0.1471  0.2729 -0.3023
  245MOL0     C32956   7.883  10.791   2.641  0.4269 -0.4549  0.7215
  245MOL0     N32957   7.908  10.888   2.545 -0.8268 -0.2627  0.3885
  245MOL0     C32958   7.843  10.896   2.429 -0.8253  0.3898 -0.2305
  245MOL0     C32959   7.888  11.006   2.371  1.1001  0.0418 -0.0871
  245MOL0     C32960   7.841  11.052   2.230 -0.6095  0.6204  0.1548
  245MOL0     C32961   7.765  10.949   2.147  0.2213 -1.0173 -0.9787
  245MOL0     C32962   7.711  11.017   2.027 -0.2285 -0.2044 -0.2439
  245MOL0     C32963   7.798  11.028   1.900 -0.4439  0.1599 -0.3578
  245MOL0     O32964   7.742  11.112   1.798  0.0763  0.6600  0.6222
  245MOL0     C32965   7.721  11.242   1.809 -0.8209 -0.3606  0.0371
  245MOL0     C32966   7.812  11.331   1.866  0.0943 -0.3081  0.0476
  245MOL0     C32967   7.796  11.468   1.853  0.0329 -0.7600 -0.0231
  245MOL0     C32968   7.680  11.521   1.786  0.5102 -0.5701 -0.5607
  245MOL0     C32969   7.643  11.664   1.790  0.9595 -0.0985  0.9370
  245MOL0     O32970   7.715  11.750   1.874  0.6923 -0.2239 -0.9045
  245MOL0     C32971   7.705  11.890   1.866  0.1795  0.1689 -0.1891
  245MOL0     C32972   7.702  11.957   1.986 -0.0484 -0.0891 -0.4803
  245MOL0     C32973   7.704  12.097   1.992  0.0818 -0.6863  0.0589
  245MOL0     C32974   7.715  12.173   1.876 -0.0444  0.3674 -0.1097
  245MOL0     O32975   7.716  12.304   1.853  0.4151 -0.7994  0.2659
  245MOL0     C32976   7.711  12.383   1.973 -0.1695 -0.4258  0.0193
  245MOL0     C32977   7.675  12.525   1.938  0.0514  0.4239 -0.5400
  245MOL0     C32978   7.682  12.600   2.076  1.4167 -0.0121  0.0242
  245MOL0     C32979   7.597  12.739   2.079 -1.2809  0.3694  0.2095
  245MOL0     C32980   7.614  12.821   2.204 -0.3115  0.2545  0.0800
  245MOL0     C32981   7.552  12.761   2.323 -0.5386  0.2218  0.7830
  245MOL0     C32982   7.395  12.756   2.301 -0.1349  0.2428  0.1458
  245MOL0     C32983   7.312  12.753   2.438 -1.7634 -0.2999  0.6377
  245MOL0    Cl32984   7.385  12.623   2.536  0.7964 -0.2018 -0.6079
  245MOL0     C32985   7.726  12.095   1.758 -0.2596 -0.8307  0.0887
  245MOL0     C32986   7.719  11.952   1.751 -0.0582 -0.5352  0.4785
  245MOL0     O32987   7.565  11.700   1.700  0.0488  0.3891  0.3807
  245MOL0     C32988   7.606  11.435   1.715  1.6281  0.4524 -0.5927
  245MOL0     C32989   7.624  11.297   1.730 -0.2447  0.2110  0.0632
  245MOL0     N32990   7.962  11.080   2.460 -0.2183 -0.3011  0.0194
  245MOL0     N32991   7.968  11.010   2.565 -0.3368 -0.6793 -0.1378
  245MOL0     C32992   8.748  10.040   2.378  0.3258  0.1775 -0.1599
  245MOL0     C32993   8.858   9.953   2.392  0.8657 -0.0848 -0.1009
  245MOL0     C32994   9.255   9.786   2.425 -0.8406 -0.0967 -0.7141
  245MOL0     C32995   9.257   9.679   2.520 -0.8975 -1.0742 -0.6399
  245MOL0     C32996   9.351   9.581   2.514  0.7806 -0.0020  0.5659
  245MOL0     C32997   9.454   9.589   2.418  0.4101 -0.3655 -0.2100
  245MOL0     O32998   9.541   9.489   2.421 -0.3634 -0.7802 -0.1613
  245MOL0     C32999   9.637   9.460   2.312 -0.5803 -1.1296  0.1314
  245MOL0     C33000   9.569   9.437   2.172 -0.4160 -1.0644 -0.7060
  245MOL0     C33001   9.440   9.356   2.189 -0.0870  0.3552  0.2100
  245MOL0     C33002   9.379   9.296   2.051 -0.3456  0.0564  0.6086
  245MOL0     C33003   9.358   9.405   1.956  0.2667 -0.3796 -0.0925
  245MOL0     C33004   9.337   9.503   1.881  0.9871  0.6435 -0.0342
  245MOL0     C33005   9.470   9.704   2.346  0.0978 -0.5446  0.3765
  245MOL0     C33006   9.367   9.800   2.343  0.3198 -0.5657 -0.1542
  245MOL0     C33007   9.399   9.914   2.253  0.3861 -0.2287  0.5425
  245MOL0     H33008   8.980  10.025   2.689 -0.8301 -0.9318  1.0475
  245MOL0     H33009   8.765  10.171   2.689  2.2312 -0.3099  1.2001
  245MOL0     H33010   8.561  10.272   2.656 -3.8804 -2.2137 -0.5945
  245MOL0     H33011   8.681  10.374   2.572 -0.3417 -1.5848  2.8584
  245MOL0     H33012   8.393  10.328   2.485  0.7719  0.1389 -0.5949
  245MOL0     H33013   8.502  10.430   2.394  3.2676 -1.8326  0.3101
  245MOL0     H33014   8.507  10.594   2.567  1.5261 -2.2166 -1.2576
  245MOL0     H33015   8.430  10.481   2.677  2.0024 -1.7977 -0.6169
  245MOL0     H33016   8.302  10.638   2.477 -0.7631 -0.4733  0.0443
  245MOL0     H33017   8.226  10.477   2.503  2.3567 -2.6648  1.4870
  245MOL0     H33018   8.194  10.555   2.748  1.8142  1.7862  2.3193
  245MOL0     H33019   8.271  10.706   2.705 -0.6679  1.5463 -0.5153
  245MOL0     H33020   8.111  10.728   2.519 -0.0769 -1.1169 -1.2613
  245MOL0     H33021   8.025  10.590   2.591  1.5263 -1.4828  1.2682
  245MOL0     H33022   8.077  10.844   2.734 -0.5549  0.9902 -1.1291
  245MOL0     H33023   7.992  10.707   2.808  1.4049 -0.6179 -0.4306
  245MOL0     H33024   7.839  10.702   2.594 -1.9053  1.1627 -0.3483
  245MOL0     H33025   7.803  10.825   2.707  0.1491  0.9554 -0.3100
  245MOL0     H33026   7.779  10.824   2.379 -2.3946  1.1993  0.5383
  245MOL0     H33027   7.787  11.147   2.237 -0.4157  0.8008 -0.7698
  245MOL0     H33028   7.927  11.078   2.168 -0.2896 -2.5866 -0.9148
  245MOL0     H33029   7.840  10.875   2.116 -3.4341 -4.3880 -2.8127
  245MOL0     H33030   7.682  10.906   2.205 -0.7672  1.6774 -0.2417
  245MOL0     H33031   7.679  11.116   2.060 -1.0449 -0.4748 -0.2044
  245MOL0     H33032   7.610  10.979   2.009 -0.5174 -0.4399  1.6983
  245MOL0     H33033   7.818  10.934   1.848  1.4853  0.6565 -0.5807
  245MOL0     H33034   7.894  11.066   1.936 -0.6461  1.9419 -1.5453
  245MOL0     H33035   7.893  11.284   1.920  1.2439 -0.3162 -1.6015
  245MOL0     H33036   7.875  11.526   1.899  0.4013 -1.0166 -0.3243
  245MOL0     H33037   7.705  11.904   2.081  1.7112 -0.0570 -0.4915
  245MOL0     H33038   7.697  12.141   2.091 -1.4511  4.2959 -1.9289
  245MOL0     H33039   7.637  12.346   2.044 -1.3456  2.6966  0.6021
  245MOL0     H33040   7.809  12.377   2.021 -0.3494  1.5295  0.7496
  245MOL0     H33041   7.746  12.589   1.884 -0.0015  2.6319  1.8106
  245MOL0     H33042   7.573  12.538   1.901 -0.0212 -1.5063 -1.1031
  245MOL0     H33043   7.643  12.538   2.157 -0.5634  1.5840  0.3762
  245MOL0     H33044   7.786  12.624   2.101  1.4297  1.3923 -1.2162
  245MOL0     H33045   7.490  12.730   2.061 -1.6352 -1.7552  2.6975
  245MOL0     H33046   7.629  12.803   1.997  2.7077  1.1057  2.0835
  245MOL0     H33047   7.567  12.918   2.187  2.8515  2.0379  0.6703
  245MOL0     H33048   7.719  12.845   2.225 -0.4814 -0.9526  2.6682
  245MOL0     H33049   7.613  12.675   2.353  2.1288  1.8542  0.2929
  245MOL0     H33050   7.581  12.832   2.400 -1.6287 -1.7009  3.0955
  245MOL0     H33051   7.369  12.669   2.241 -1.8042  1.3375 -0.8022
  245MOL0     H33052   7.359  12.842   2.244  1.3202  0.0943 -1.0423
  245MOL0     H33053   7.333  12.849   2.486  0.3153 -1.7489  2.9207
  245MOL0     H33054   7.204  12.750   2.423 -1.6569  1.4970 -0.9598
  245MOL0     H33055   7.746  12.145   1.664 -0.4376 -2.4738 -0.8463
  245MOL0     H33056   7.728  11.887   1.664  1.2877  0.1297  0.0809
  245MOL0     H33057   7.529  11.465   1.645 -0.8337 -0.9111  1.3422
  245MOL0     H33058   7.551  11.229   1.687 -0.8735  0.9305 -0.0267
  245MOL0     H33059   8.687  10.053   2.289  1.1346  2.5835 -0.4268
  245MOL0     H33060   8.857   9.880   2.312 -0.0004 -0.6419  0.4073
  245MOL0     H33061   9.175   9.655   2.587 -1.1384  0.0854 -0.5038
  245MOL0     H33062   9.338   9.497   2.581 -0.3486  0.5112  1.0131
  245MOL0     H33063   9.684   9.364   2.338 -0.6648 -1.2284 -0.0820
  245MOL0     H33064   9.711   9.540   2.306 -2.5019  0.9774  2.2899
  245MOL0     H33065   9.631   9.373   2.109  1.2399 -0.1797 -0.0381
  245MOL0     H33066   9.554   9.534   2.124  2.0155 -0.4538 -0.3568
  245MOL0     H33067   9.372   9.418   2.249  1.3622  4.0818 -1.6569
  245MOL0     H33068   9.460   9.268   2.251 -2.3151  0.0488  0.5795
  245MOL0     H33069   9.447   9.217   2.017 -1.7932 -1.3691  0.8500
  245MOL0     H33070   9.280   9.250   2.059 -0.4065 -0.1067 -0.9034
  245MOL0     H33071   9.315   9.598   1.834 -1.9166  0.9094  1.6484
  245MOL0     H33072   9.568   9.714   2.301  1.2379  0.4088  2.8988
  245MOL0     H33073   9.488   9.898   2.190  2.2047  1.4783  2.5265
  245MOL0     H33074   9.322   9.941   2.180  1.9329  2.7896 -0.1587
  245MOL0     H33075   9.408  10.012   2.301 -3.7095  0.8242 -0.4629
  246MOL0     O33076   5.933   7.003  10.249  0.9194 -0.0704  0.2513
  246MOL0     C33077   5.926   6.945  10.354  0.7310  0.1236 -0.5790
  246MOL0     O33078   5.854   6.829  10.373  0.2125 -0.7839  0.1155
  246MOL0     C33079   5.874   6.734  10.278  1.0289  0.1505 -0.7822
  246MOL0     C33080   5.773   6.638  10.271 -0.6929  0.0879  0.2481
  246MOL0     C33081   5.790   6.524  10.198 -1.0688  0.7115  0.1031
  246MOL0     C33082   5.908   6.504  10.122  0.9729  0.1202  0.0910
  246MOL0     O33083   5.931   6.400  10.050  0.3066  0.2035  0.3858
  246MOL0     C33084   5.825   6.327   9.988 -0.7469 -1.0494  0.2533
  246MOL0     C33085   5.880   6.228   9.888 -0.4770 -0.5423 -0.3429
  246MOL0     C33086   5.980   6.131   9.936 -0.2314  0.4459 -0.4771
  246MOL0     C33087   6.064   6.075   9.825 -0.7025 -0.0233  0.3207
  246MOL0     C33088   6.004   5.951   9.750 -0.1693 -1.1867  0.5905
  246MOL0     C33089   5.893   6.002   9.656  0.6965 -0.0565 -0.2604
  246MOL0     C33090   5.857   5.907   9.548 -0.6938 -0.0673  0.3954
  246MOL0     C33091   5.950   5.924   9.432  0.1267  0.0590  0.9228
  246MOL0     N33092   5.882   6.033   9.352  0.6347  1.4095  0.4677
  246MOL0     C33093   5.773   6.022   9.260  0.1302  0.5422  0.3668
  246MOL0     C33094   5.774   6.146   9.209  0.1497  0.3399 -0.0900
  246MOL0     C33095   5.687   6.194   9.098  0.5680  0.5455  0.8084
  246MOL0     C33096   5.767   6.192   8.962  0.1792  0.0753  0.6987
  246MOL0     C33097   5.682   6.221   8.842  0.5696  0.2406  0.3038
  246MOL0     C33098   5.756   6.195   8.710 -0.2350 -0.7354 -0.5481
  246MOL0     O33099   5.876   6.284   8.699  0.6524 -0.2437  0.4612
  246MOL0     C33100   5.952   6.281   8.586 -0.5063  0.2787 -0.5901
  246MOL0     C33101   6.065   6.356   8.590  0.3331 -0.6321  0.0563
  246MOL0     C33102   6.164   6.363   8.491  0.3551  0.5851 -0.3311
  246MOL0     C33103   6.137   6.294   8.370  0.7214 -1.1037 -0.3219
  246MOL0     C33104   6.235   6.282   8.261 -0.4573 -0.2562  0.0058
  246MOL0     O33105   6.293   6.404   8.240  0.2325 -0.5168  0.2247
  246MOL0     C33106   6.407   6.426   8.167 -0.3833 -0.2523  1.2471
  246MOL0     C33107   6.461   6.348   8.057 -0.1741 -0.4636  0.0025
  246MOL0     C33108   6.580   6.396   8.000  0.5844 -0.7124  0.3692
  246MOL0     C33109   6.661   6.500   8.036  0.3892 -0.9257 -0.3727
  246MOL0     O33110   6.773   6.539   7.976  0.0857  0.2326  0.4749
  246MOL0     C33111   6.874   6.617   8.048 -1.0053 -0.1201  0.7536
  246MOL0     C33112   6.998   6.660   7.964  1.1808  0.6754  0.2363
  246MOL0     C33113   6.953   6.760   7.853  0.1749 -0.8378 -0.1239
  246MOL0     C33114   7.056   6.781   7.739  0.2384 -0.1879 -0.1033
  246MOL0     C33115   7.005   6.843   7.598 -0.4324  0.6139 -0.1864
  246MOL0     C33116   6.885   6.774   7.554  0.4600  0.0390  1.5792
  246MOL0     C33117   6.881   6.759   7.396  0.1424 -0.2770 -0.0709
  246MOL0     C33118   6.863   6.892   7.316  0.8065  0.0843 -0.8403
  246MOL0    Cl33119   6.879   6.866   7.140  0.8282 -0.3711 -0.0054
  246MOL0     C33120   6.614   6.564   8.159 -0.0104  0.0436 -0.3403
  246MOL0     C33121   6.482   6.533   8.211  0.2183  0.9745  0.0633
  246MOL0     O33122   6.250   6.180   8.193  0.2943 -0.5704 -0.2326
  246MOL0     C33123   6.015   6.215   8.358 -0.9283 -0.5284 -1.0993
  246MOL0     C33124   5.920   6.208   8.461 -0.5488 -1.1990 -0.2927
  246MOL0     N33125   5.865   6.226   9.271  1.2793 -0.2744 -0.0579
  246MOL0     N33126   5.927   6.160   9.353 -0.5037 -0.2826 -0.5741
  246MOL0     C33127   6.001   6.601  10.128  0.2409 -0.6736  0.0403
  246MOL0     C33128   5.995   6.715  10.208 -0.1140 -0.5757  0.0504
  246MOL0     C33129   6.011   6.978  10.471  0.1022 -0.7184 -0.0150
  246MOL0     C33130   5.985   6.918  10.603 -0.0869  0.6774  1.3865
  246MOL0     C33131   6.049   6.945  10.715  0.3866 -0.2669 -0.7340
  246MOL0     C33132   6.152   7.039  10.713  0.2493 -0.0073 -0.1616
  246MOL0     O33133   6.217   7.051  10.836  0.0196 -0.8763 -0.4377
  246MOL0     C33134   6.308   7.161  10.838 -0.4581 -0.1021  0.9162
  246MOL0     C33135   6.343   7.187  10.987  0.6635 -0.4537 -0.3085
  246MOL0     C33136   6.402   7.318  11.032  0.5107  0.1991  0.8577
  246MOL0     C33137   6.531   7.347  10.962 -0.4549  0.0048 -0.2177
  246MOL0     C33138   6.505   7.405  10.834  0.1478 -0.1459  0.4164
  246MOL0     C33139   6.470   7.453  10.730 -0.4522 -0.0808 -0.4208
  246MOL0     C33140   6.190   7.095  10.584  0.5409  0.0931 -1.3356
  246MOL0     C33141   6.121   7.067  10.466 -0.8157 -0.1366  0.8655
  246MOL0     C33142   6.161   7.144  10.341 -0.2766 -0.4974  0.0438
  246MOL0     H33143   5.692   6.654  10.341 -0.8094 -0.2335  0.1904
  246MOL0     H33144   5.719   6.442  10.207 -2.2419  1.8576  2.1615
  246MOL0     H33145   5.750   6.277  10.049  0.0865  0.1023  2.3412
  246MOL0     H33146   5.778   6.403   9.926 -1.4125 -1.0931  0.6949
  246MOL0     H33147   5.923   6.269   9.796  2.4165 -0.0058  1.1361
  246MOL0     H33148   5.788   6.177   9.856 -1.3761  0.1284  1.0823
  246MOL0     H33149   5.921   6.050   9.980  1.6011 -0.4403  0.4768
  246MOL0     H33150   6.047   6.173  10.011  1.2208  0.1629 -1.5632
  246MOL0     H33151   6.091   6.152   9.751  0.7131 -2.7377 -2.1899
  246MOL0     H33152   6.159   6.041   9.868 -1.0956  0.1848  1.3879
  246MOL0     H33153   6.091   5.908   9.699  1.3289  2.8555 -0.6885
  246MOL0     H33154   5.977   5.875   9.824  1.8347 -1.6453  0.9270
  246MOL0     H33155   5.802   6.019   9.715 -1.8071 -0.4591 -3.6871
  246MOL0     H33156   5.912   6.100   9.611 -0.9224  1.3169  1.8569
  246MOL0     H33157   5.754   5.887   9.518 -0.6728  3.6557 -3.1475
  246MOL0     H33158   5.869   5.807   9.590  1.1705  0.2124  0.6464
  246MOL0     H33159   6.052   5.948   9.463 -0.0572  1.8582  0.3033
  246MOL0     H33160   5.949   5.825   9.387 -0.3051  0.5323 -0.1617
  246MOL0     H33161   5.710   5.939   9.231  2.2894 -1.0347 -0.0150
  246MOL0     H33162   5.598   6.131   9.092 -0.7048  2.3571 -4.3209
  246MOL0     H33163   5.649   6.293   9.126 -3.3056 -0.4024 -0.5143
  246MOL0     H33164   5.835   6.277   8.974 -0.1783  0.9188 -2.4427
  246MOL0     H33165   5.814   6.094   8.956 -2.2884 -1.0991 -1.8676
  246MOL0     H33166   5.638   6.320   8.831  0.9288  0.1695 -2.5077
  246MOL0     H33167   5.607   6.142   8.833  2.4069 -1.4806 -0.9910
  246MOL0     H33168   5.676   6.208   8.636 -2.4078  0.6829  1.8835
  246MOL0     H33169   5.781   6.089   8.707 -0.2300 -0.7200 -1.0983
  246MOL0     H33170   6.067   6.412   8.683  2.0950 -0.6626  0.0769
  246MOL0     H33171   6.250   6.421   8.524  1.8129 -2.0765  0.9472
  246MOL0     H33172   6.398   6.274   8.008 -3.5555  2.0690  0.1419
  246MOL0     H33173   6.617   6.346   7.911 -2.1751 -1.0669 -0.6714
  246MOL0     H33174   6.837   6.710   8.092 -0.4689  1.0019 -1.0332
  246MOL0     H33175   6.903   6.548   8.127  0.6912  0.0459  0.3220
  246MOL0     H33176   7.073   6.692   8.037  0.7872 -1.3279  1.5981
  246MOL0     H33177   7.027   6.572   7.906 -1.4622 -1.9092  2.5188
  246MOL0     H33178   6.852   6.742   7.816  0.0619 -0.6966  0.1162
  246MOL0     H33179   6.933   6.856   7.901  0.7802  0.0288 -1.5353
  246MOL0     H33180   7.070   6.674   7.720  1.4249 -0.5282  2.2263
  246MOL0     H33181   7.153   6.823   7.769  0.1116  2.2665 -2.7403
  246MOL0     H33182   7.090   6.825   7.532  1.2242  0.0043  1.9931
  246MOL0     H33183   6.977   6.947   7.613  0.8253  0.7768  1.3745
  246MOL0     H33184   6.889   6.672   7.593 -0.6567 -0.6949 -0.1119
  246MOL0     H33185   6.801   6.824   7.603  1.4056  0.8357  2.4344
  246MOL0     H33186   6.792   6.699   7.375 -2.0074  2.0656  1.8198
  246MOL0     H33187   6.971   6.713   7.352  1.4183  0.2423  1.8779
  246MOL0     H33188   6.762   6.926   7.338  0.0790 -3.7017  3.2049
  246MOL0     H33189   6.934   6.965   7.357 -0.0194 -0.1335  1.0660
  246MOL0     H33190   6.677   6.635   8.211 -0.5022 -0.0607  0.4143
  246MOL0     H33191   6.446   6.602   8.287 -0.6526  0.5627  0.0410
  246MOL0     H33192   6.013   6.144   8.276 -0.8272  0.0306 -1.5873
  246MOL0     H33193   5.830   6.149   8.448 -1.0333 -0.4078 -0.5950
  246MOL0     H33194   6.091   6.581  10.071  1.1340  0.9301  0.8251
  246MOL0     H33195   6.079   6.784  10.214 -0.9852  0.4375  0.9130
  246MOL0     H33196   5.919   6.833  10.592  2.4515 -1.0534 -3.6545
  246MOL0     H33197   6.023   6.911  10.815 -1.8645  3.8181  0.3147
  246MOL0     H33198   6.263   7.252  10.799 -1.6316  0.4597  3.3881
  246MOL0     H33199   6.400   7.144  10.782 -0.4822  2.2713  0.0475
  246MOL0     H33200   6.405   7.105  11.025  0.5790 -2.1944 -3.4970
  246MOL0     H33201   6.255   7.180  11.051  0.0942  1.4996 -0.8329
  246MOL0     H33202   6.418   7.311  11.140 -1.5039  0.3970  1.1921
  246MOL0     H33203   6.335   7.403  11.019 -0.3835 -0.4277  1.2597
  246MOL0     H33204   6.590   7.417  11.023  0.4237 -2.0806  1.4661
  246MOL0     H33205   6.592   7.257  10.952 -0.0287  0.5170 -2.9778
  246MOL0     H33206   6.455   7.481  10.628  0.6416 -1.4012 -0.9786
  246MOL0     H33207   6.271   7.166  10.575  2.4145 -2.1005 -2.9724
  246MOL0     H33208   6.239   7.215  10.371 -4.2175  3.0927  3.2426
  246MOL0     H33209   6.198   7.076  10.264 -4.9531  0.2817 -3.3083
  246MOL0     H33210   6.084   7.208  10.296 -0.1097 -1.4426 -1.6622
  247MOL0     O33211   2.875   9.547   6.420  0.4730  0.0974  0.5749
  247MOL0     C33212   2.818   9.481   6.508 -0.6320 -0.3393 -0.4300
  247MOL0     O33213   2.810   9.349   6.519  0.2531 -0.2294  0.4225
  247MOL0     C33214   2.862   9.268   6.420 -0.6314 -0.4204 -0.5264
  247MOL0     C33215   2.776   9.213   6.324 -0.4681  0.5930  0.2387
  247MOL0     C33216   2.837   9.130   6.231  0.7065  0.4569 -0.5895
  247MOL0     C33217   2.969   9.106   6.231 -1.1219  0.8162 -0.3329
  247MOL0     O33218   3.044   9.024   6.146 -0.1418  0.0461  0.3521
  247MOL0     C33219   2.972   8.946   6.040 -0.5037 -0.4318 -0.0513
  247MOL0     C33220   3.077   8.846   5.988 -0.4410  0.5036  0.0928
  247MOL0     C33221   3.022   8.744   5.889  0.7747 -0.5339 -0.3913
  247MOL0     C33222   3.126   8.659   5.813  0.5919  0.9053 -0.2384
  247MOL0     C33223   3.071   8.600   5.689  0.2085  0.5761  0.6908
  247MOL0     C33224   3.183   8.515   5.607  0.8413 -0.6946 -0.4960
  247MOL0     C33225   3.238   8.385   5.672  0.5791  0.1057  0.2513
  247MOL0     C33226   3.377   8.407   5.728  0.2702 -0.6449  1.0044
  247MOL0     N33227   3.487   8.368   5.637  1.0514  0.3935 -0.7257
  247MOL0     C33228   3.502   8.248   5.580 -0.3845  0.1979 -0.6677
  247MOL0     C33229   3.625   8.238   5.538 -0.1392 -0.7387 -0.2820
  247MOL0     C33230   3.697   8.131   5.451 -1.1843 -0.3258 -1.1805
  247MOL0     C33231   3.816   8.075   5.536  1.1439  0.1005 -0.3093
  247MOL0     C33232   3.898   7.972   5.462  0.1024 -0.6709  0.0635
  247MOL0     C33233   3.995   8.025   5.358 -0.4557  0.3595  0.1331
  247MOL0     O33234   4.081   7.930   5.285 -0.0742  1.4505 -0.1198
  247MOL0     C33235   4.197   7.980   5.232 -0.8557  0.2700 -0.6783
  247MOL0     C33236   4.204   8.027   5.100 -0.5978 -0.8372 -0.0349
  247MOL0     C33237   4.314   8.091   5.045  0.2554  0.0112 -0.0116
  247MOL0     C33238   4.429   8.108   5.129  0.6809  0.1193  0.5234
  247MOL0     C33239   4.550   8.163   5.065  0.4662 -0.0694 -0.9595
  247MOL0     O33240   4.652   8.176   5.150  0.1688 -0.3634 -0.7465
  247MOL0     C33241   4.771   8.197   5.101  1.1190 -0.5152 -0.0675
  247MOL0     C33242   4.846   8.085   5.072  0.1159 -0.2150  0.0601
  247MOL0     C33243   4.980   8.108   5.030 -0.5255 -0.0543 -0.4132
  247MOL0     C33244   5.031   8.237   5.011  0.1795 -0.1583  0.4314
  247MOL0     O33245   5.162   8.266   4.980  0.4801  0.0882 -0.9062
  247MOL0     C33246   5.244   8.161   4.922  0.2376 -0.2351  0.1431
  247MOL0     C33247   5.386   8.216   4.899 -0.6233 -0.4307  0.6183
  247MOL0     C33248   5.395   8.339   4.803 -0.0014  0.3896  0.5022
  247MOL0     C33249   5.353   8.323   4.653  0.5111  0.6297  0.8895
  247MOL0     C33250   5.432   8.208   4.578  0.0052 -0.1848 -0.4141
  247MOL0     C33251   5.379   8.162   4.447  0.7147  0.5305  0.1141
  247MOL0     C33252   5.464   8.060   4.371  0.2609  0.7688 -0.1759
  247MOL0     C33253   5.382   7.997   4.261 -0.0733  0.0451 -0.0188
  247MOL0    Cl33254   5.452   7.846   4.166  0.3264 -0.2297  0.3080
  247MOL0     C33255   4.948   8.343   5.038 -0.1819  1.6914 -0.5795
  247MOL0     C33256   4.814   8.329   5.074 -0.9130 -0.0173  0.3434
  247MOL0     O33257   4.554   8.185   4.947 -0.6532  0.0407  0.4947
  247MOL0     C33258   4.427   8.052   5.258 -0.5130  0.2040  0.4659
  247MOL0     C33259   4.309   7.993   5.317  0.6777 -0.6201  0.2196
  247MOL0     N33260   3.683   8.342   5.606 -0.3147  0.7098  0.4856
  247MOL0     N33261   3.603   8.422   5.665 -0.0450  0.1338 -0.7220
  247MOL0     C33262   3.058   9.175   6.316  0.5775  0.2774  0.4917
  247MOL0     C33263   2.998   9.251   6.414 -0.5192  0.3862 -0.0504
  247MOL0     C33264   2.761   9.561   6.614  0.2272 -0.0250 -0.2541
  247MOL0     C33265   2.748   9.494   6.740  0.2556  0.1379 -1.0950
  247MOL0     C33266   2.689   9.551   6.852  0.2850 -0.0156  0.2240
  247MOL0     C33267   2.653   9.687   6.847  0.9093 -0.0000  0.4253
  247MOL0     O33268   2.605   9.755   6.950  0.3751 -0.3423  0.2938
  247MOL0     C33269   2.489   9.829   6.924 -0.8355 -0.6318  0.0705
  247MOL0     C33270   2.366   9.731   6.912  0.0413  0.0229  0.2436
  247MOL0     C33271   2.289   9.711   7.036  0.4485 -0.3450 -0.0081
  247MOL0     C33272   2.181   9.600   7.024 -0.2894  0.3604 -0.5953
  247MOL0     C33273   2.081   9.604   6.920  0.7151  0.0231 -0.3104
  247MOL0     C33274   2.003   9.598   6.823  0.4430  0.1817 -0.2660
  247MOL0     C33275   2.658   9.749   6.723 -0.7179  0.1326 -0.2822
  247MOL0     C33276   2.705   9.689   6.600 -1.1456  1.0408  0.7837
  247MOL0     C33277   2.714   9.783   6.485 -0.1401 -0.5885  0.1921
  247MOL0     H33278   2.669   9.218   6.339 -0.3603  0.1132  1.2322
  247MOL0     H33279   2.775   9.077   6.160  0.7517 -1.3868  0.6887
  247MOL0     H33280   2.883   8.901   6.086 -1.8857  2.3084  0.1281
  247MOL0     H33281   2.938   9.020   5.967  1.2410  0.3193 -0.1378
  247MOL0     H33282   3.114   8.784   6.070 -0.6154 -0.6986 -0.7166
  247MOL0     H33283   3.161   8.905   5.950 -0.9050  1.3544  0.3646
  247MOL0     H33284   2.969   8.799   5.811 -0.0915 -0.0735  0.4960
  247MOL0     H33285   2.948   8.677   5.934  0.3877  0.4553  0.4839
  247MOL0     H33286   3.216   8.719   5.799 -1.1951  3.5260 -1.3434
  247MOL0     H33287   3.126   8.566   5.871 -1.3729  1.0133  0.0263
  247MOL0     H33288   2.986   8.532   5.698  2.2738 -3.0101 -3.1611
  247MOL0     H33289   3.033   8.685   5.631 -3.5266 -0.9862  0.5235
  247MOL0     H33290   3.144   8.499   5.506  3.0113  3.3101 -2.2226
  247MOL0     H33291   3.267   8.586   5.601  0.1567  0.2826  0.8734
  247MOL0     H33292   3.236   8.307   5.596  0.3629  0.4073 -0.0570
  247MOL0     H33293   3.167   8.351   5.748  0.1608  1.2506  0.3939
  247MOL0     H33294   3.391   8.513   5.752 -0.3058  0.5054 -2.9989
  247MOL0     H33295   3.390   8.342   5.815 -2.4836 -2.3837  0.2621
  247MOL0     H33296   3.413   8.188   5.575  0.1406 -0.5720 -0.9229
  247MOL0     H33297   3.614   8.064   5.425 -0.8270 -1.0828 -0.4169
  247MOL0     H33298   3.746   8.181   5.367 -0.5607 -1.5303 -1.5567
  247MOL0     H33299   3.870   8.159   5.581  3.2185 -1.6491  0.6548
  247MOL0     H33300   3.782   8.012   5.619 -1.7719  1.2908 -0.4840
  247MOL0     H33301   3.836   7.905   5.401  2.2917 -0.5263 -2.5039
  247MOL0     H33302   3.956   7.909   5.530  0.8314 -0.3310 -0.2348
  247MOL0     H33303   4.063   8.094   5.410 -0.1551 -1.2911  2.0371
  247MOL0     H33304   3.934   8.081   5.287 -1.6129  0.2595  1.0263
  247MOL0     H33305   4.116   8.009   5.038 -1.5879 -2.0950  1.6203
  247MOL0     H33306   4.311   8.145   4.951  3.6991  1.2503  0.4743
  247MOL0     H33307   4.811   7.983   5.081 -0.5437 -0.0434 -0.5409
  247MOL0     H33308   5.052   8.030   5.007 -1.2264 -0.9920  0.4752
  247MOL0     H33309   5.252   8.073   4.986 -2.1200 -0.0287  0.8239
  247MOL0     H33310   5.193   8.139   4.828 -0.2062  1.1094  0.0376
  247MOL0     H33311   5.438   8.244   4.991 -0.8503 -1.8631  1.2129
  247MOL0     H33312   5.443   8.136   4.852 -0.1414  1.0187 -1.3719
  247MOL0     H33313   5.333   8.415   4.851  1.0934  0.9796  0.9917
  247MOL0     H33314   5.500   8.366   4.795  0.7832 -2.8147 -4.3405
  247MOL0     H33315   5.352   8.423   4.608  3.4311  0.7942  1.0347
  247MOL0     H33316   5.247   8.293   4.654  0.5892  0.2898 -0.1572
  247MOL0     H33317   5.439   8.121   4.643 -2.6714  1.0335  1.7243
  247MOL0     H33318   5.534   8.245   4.560  0.2703  0.4359  2.0129
  247MOL0     H33319   5.275   8.132   4.465  1.3452 -2.3081 -0.3944
  247MOL0     H33320   5.366   8.248   4.382 -1.1835  0.4233  0.2889
  247MOL0     H33321   5.512   7.980   4.429 -0.5021  0.0638 -0.4902
  247MOL0     H33322   5.545   8.121   4.331  0.1155  1.6247  0.7870
  247MOL0     H33323   5.284   7.977   4.304 -0.5971  1.5504 -0.4492
  247MOL0     H33324   5.364   8.079   4.191 -1.4318 -0.4550 -0.2899
  247MOL0     H33325   5.003   8.436   5.037  2.3628  0.2916 -2.5928
  247MOL0     H33326   4.760   8.422   5.089  1.3615  2.0212 -2.8587
  247MOL0     H33327   4.520   8.052   5.315  0.0318 -1.0745 -0.3843
  247MOL0     H33328   4.307   7.951   5.417 -0.5251 -2.9410 -0.7206
  247MOL0     H33329   3.164   9.170   6.294  0.5383  2.3901 -0.4291
  247MOL0     H33330   3.061   9.296   6.490  0.6063 -2.5584  0.8726
  247MOL0     H33331   2.784   9.393   6.751  2.2728  0.8147 -1.0776
  247MOL0     H33332   2.692   9.508   6.952 -2.8951  1.4896  1.1011
  247MOL0     H33333   2.489   9.901   6.842  0.9814  0.9895  1.4066
  247MOL0     H33334   2.475   9.899   7.007  3.6660  1.3154 -0.5089
  247MOL0     H33335   2.391   9.632   6.874  0.0161  0.0693  0.1025
  247MOL0     H33336   2.295   9.787   6.850 -2.8629  0.5045  3.6786
  247MOL0     H33337   2.250   9.807   7.071  1.3191 -0.3766  1.1175
  247MOL0     H33338   2.372   9.681   7.101  2.3936  1.4632 -1.4854
  247MOL0     H33339   2.240   9.512   6.998  0.6311  0.9751 -0.6474
  247MOL0     H33340   2.133   9.587   7.121  2.0634  1.5029  0.8040
  247MOL0     H33341   1.946   9.586   6.733  1.1159  0.8179 -0.7942
  247MOL0     H33342   2.646   9.857   6.722 -2.4206 -0.0223  0.4657
  247MOL0     H33343   2.816   9.817   6.465 -0.6608  0.3032 -1.0393
  247MOL0     H33344   2.672   9.729   6.399  0.1447  0.0230 -0.3355
  247MOL0     H33345   2.650   9.869   6.508  0.3935 -0.5411  1.5699
  248MOL0     O33346  11.459   8.346   6.332  0.1567 -0.3157  0.8265
  248MOL0     C33347  11.353   8.412   6.338 -0.3961 -0.3164  0.2292
  248MOL0     O33348  11.296   8.457   6.455  0.1915 -0.3009  0.4783
  248MOL0     C33349  11.324   8.391   6.575 -0.5348 -0.5880 -0.0945
  248MOL0     C33350  11.345   8.252   6.581  0.6195  0.6283 -0.2888
  248MOL0     C33351  11.370   8.187   6.707 -1.4886  0.9952  0.4552
  248MOL0     C33352  11.379   8.261   6.821 -0.3506 -0.8537 -1.2435
  248MOL0     O33353  11.412   8.212   6.942  0.1411 -0.0529 -0.1296
  248MOL0     C33354  11.333   8.088   6.972 -1.2166 -0.4987 -0.3103
  248MOL0     C33355  11.448   7.987   6.985 -0.0287 -0.1022  0.0653
  248MOL0     C33356  11.520   8.008   7.121  1.1725 -0.2717  0.9802
  248MOL0     C33357  11.628   7.907   7.133  0.2249 -0.9193  0.2867
  248MOL0     C33358  11.668   7.881   7.276 -1.1689  0.0860  0.4844
  248MOL0     C33359  11.759   7.765   7.287 -0.5696  0.7372  0.3998
  248MOL0     C33360  11.911   7.790   7.266 -0.1630 -0.2359 -0.4939
  248MOL0     C33361  11.953   7.797   7.113 -0.0425  0.4921 -0.4086
  248MOL0     N33362  11.959   7.664   7.053  0.8667 -0.4498  0.0958
  248MOL0     C33363  11.870   7.601   6.974  0.0898 -0.5604  0.5861
  248MOL0     C33364  11.925   7.479   6.938  0.3829 -0.5033  0.4920
  248MOL0     C33365  11.858   7.363   6.865 -1.0484 -0.2422  0.0868
  248MOL0     C33366  11.798   7.407   6.732  0.1749  0.0065 -0.5098
  248MOL0     C33367  11.703   7.303   6.668 -0.1856  0.1728 -0.5311
  248MOL0     C33368  11.640   7.340   6.543  0.5038  0.7276  0.1883
  248MOL0     O33369  11.517   7.266   6.526 -0.1649 -0.9067  0.0880
  248MOL0     C33370  11.455   7.278   6.402  0.3077  0.2054  0.5384
  248MOL0     C33371  11.339   7.190   6.387 -0.3170 -0.1050 -0.0178
  248MOL0     C33372  11.256   7.218   6.276 -0.2225  0.1337 -0.2846
  248MOL0     C33373  11.296   7.308   6.165 -0.3259 -0.5207 -0.0906
  248MOL0     C33374  11.212   7.330   6.046 -0.0405  0.1273  0.2831
  248MOL0     O33375  11.082   7.282   6.056 -0.1824 -0.8742  0.2826
  248MOL0     C33376  10.975   7.323   5.979 -0.2913 -0.4580  0.2256
  248MOL0     C33377  10.856   7.287   6.038  0.5498 -0.4741  0.2539
  248MOL0     C33378  10.737   7.311   5.971  0.4971 -0.2268 -0.2633
  248MOL0     C33379  10.724   7.374   5.848 -0.1759 -0.2394 -0.5310
  248MOL0     O33380  10.603   7.400   5.791  0.4230  0.6846  0.2167
  248MOL0     C33381  10.509   7.487   5.861 -0.0527 -0.4618  0.1382
  248MOL0     C33382  10.378   7.447   5.813  0.8755  0.5178  0.6017
  248MOL0     C33383  10.321   7.324   5.887 -0.1040  0.3902 -0.0709
  248MOL0     C33384  10.176   7.295   5.847  0.6859  0.3388 -0.5392
  248MOL0     C33385  10.111   7.183   5.937  0.8074  1.1550  0.1878
  248MOL0     C33386  10.080   7.236   6.071  0.5421  0.5340 -1.1151
  248MOL0     C33387  10.001   7.134   6.162 -0.0208 -0.2010 -0.0810
  248MOL0     C33388   9.961   7.192   6.301  0.5015  0.5579 -0.1012
  248MOL0    Cl33389  10.103   7.237   6.410 -0.6423 -0.1645 -0.1012
  248MOL0     C33390  10.844   7.419   5.788 -0.3924 -1.2393  0.0587
  248MOL0     C33391  10.974   7.394   5.854  0.8572  0.3529 -0.2330
  248MOL0     O33392  11.254   7.395   5.953  0.8562  0.1830  0.1313
  248MOL0     C33393  11.429   7.371   6.176  0.2210  0.4814  0.0123
  248MOL0     C33394  11.500   7.362   6.296  0.9323 -0.3173 -0.0788
  248MOL0     N33395  12.057   7.481   6.996 -0.1851  1.3833  0.0020
  248MOL0     N33396  12.070   7.589   7.067 -0.2510  0.2722 -0.5991
  248MOL0     C33397  11.364   8.400   6.813 -0.4179  0.9508  0.7648
  248MOL0     C33398  11.330   8.461   6.691  0.5522  0.0378 -0.4440
  248MOL0     C33399  11.284   8.442   6.211 -0.0050 -0.5796 -0.2633
  248MOL0     C33400  11.167   8.527   6.213  0.6282 -1.0940  0.7953
  248MOL0     C33401  11.109   8.593   6.099 -0.0025  0.2318  0.8329
  248MOL0     C33402  11.160   8.553   5.968  0.9003 -0.6548 -0.3201
  248MOL0     O33403  11.117   8.588   5.849 -0.0610 -0.6235  0.4102
  248MOL0     C33404  11.003   8.681   5.832  0.4434 -0.3979  1.0060
  248MOL0     C33405  10.999   8.739   5.689  1.0122  0.2816  0.9820
  248MOL0     C33406  11.066   8.873   5.668  0.7296  0.5588 -0.6617
  248MOL0     C33407  11.026   8.952   5.526 -0.3872  0.7895 -0.8803
  248MOL0     C33408  10.887   8.948   5.495  0.8362  0.4374 -0.3990
  248MOL0     C33409  10.762   8.945   5.486  0.2703 -0.6831  0.7454
  248MOL0     C33410  11.255   8.454   5.961  0.2366 -0.1557 -0.5540
  248MOL0     C33411  11.318   8.404   6.079 -0.0282  0.1275  0.0641
  248MOL0     C33412  11.436   8.316   6.055 -0.2045 -0.0754 -0.1869
  248MOL0     H33413  11.329   8.189   6.495 -0.9498 -0.3228  0.6478
  248MOL0     H33414  11.390   8.081   6.709  0.7984  1.3756  2.8000
  248MOL0     H33415  11.286   8.104   7.069  2.0479  0.3669  1.2561
  248MOL0     H33416  11.262   8.057   6.895 -4.9450  0.8994  2.2949
  248MOL0     H33417  11.520   7.973   6.904 -0.7645 -0.7169 -0.4948
  248MOL0     H33418  11.406   7.886   6.987 -0.0038 -0.1098  0.1995
  248MOL0     H33419  11.446   8.008   7.203 -3.6507  1.3928 -2.8798
  248MOL0     H33420  11.564   8.108   7.122 -0.6499  1.0504 -5.3529
  248MOL0     H33421  11.588   7.817   7.085 -1.8752  0.7679 -1.2964
  248MOL0     H33422  11.703   7.955   7.070 -1.7535  0.1328 -1.3816
  248MOL0     H33423  11.712   7.970   7.322 -1.4264  0.6203 -0.2625
  248MOL0     H33424  11.580   7.866   7.338 -1.5009  1.7613  0.4738
  248MOL0     H33425  11.740   7.729   7.388  1.9829 -0.3021  0.6074
  248MOL0     H33426  11.732   7.680   7.225 -0.6761 -0.3978  1.9419
  248MOL0     H33427  11.973   7.718   7.320  2.2195  2.6757  0.9260
  248MOL0     H33428  11.940   7.884   7.313  0.6968 -0.4915 -0.5068
  248MOL0     H33429  11.890   7.861   7.050  1.1857  2.5627  0.3693
  248MOL0     H33430  12.056   7.830   7.101  0.2912 -0.6232 -0.7239
  248MOL0     H33431  11.782   7.649   6.932  1.1155 -0.0776 -1.0858
  248MOL0     H33432  11.927   7.283   6.837  0.6666  1.0430  0.4962
  248MOL0     H33433  11.781   7.321   6.931 -0.5751  1.2842  1.6907
  248MOL0     H33434  11.727   7.487   6.757 -2.2469 -2.2949  0.4601
  248MOL0     H33435  11.880   7.437   6.667  0.8159 -0.0508  0.2622
  248MOL0     H33436  11.621   7.290   6.740 -1.0772  0.2330 -1.5110
  248MOL0     H33437  11.749   7.205   6.654 -1.3963 -0.3291 -1.2071
  248MOL0     H33438  11.710   7.312   6.464 -0.4457  0.7432 -0.6732
  248MOL0     H33439  11.635   7.449   6.530 -1.5337  0.3409 -3.4818
  248MOL0     H33440  11.305   7.130   6.470 -1.1516  2.1964  1.4154
  248MOL0     H33441  11.174   7.148   6.268  1.7919 -2.3554 -0.7128
  248MOL0     H33442  10.850   7.232   6.131 -0.4512 -2.6067 -0.9926
  248MOL0     H33443  10.642   7.294   6.021 -0.0060  4.8243  1.1364
  248MOL0     H33444  10.498   7.482   5.970 -2.6146  0.8376  0.0136
  248MOL0     H33445  10.522   7.591   5.828 -3.1296 -0.2924 -0.8177
  248MOL0     H33446  10.318   7.534   5.844 -2.5074 -2.4668  3.2856
  248MOL0     H33447  10.376   7.433   5.705 -1.0538 -0.7356  0.7469
  248MOL0     H33448  10.388   7.242   5.858  0.5076  0.6363  0.6162
  248MOL0     H33449  10.326   7.345   5.994  0.6570  0.3820 -0.1017
  248MOL0     H33450  10.181   7.257   5.745 -0.4098  0.3790 -0.6114
  248MOL0     H33451  10.110   7.380   5.862  1.7985  0.8444  2.0418
  248MOL0     H33452  10.173   7.093   5.940 -0.6083 -0.5359 -5.9950
  248MOL0     H33453  10.019   7.149   5.889  0.7538 -1.2821  1.8365
  248MOL0     H33454  10.174   7.267   6.116 -1.0016  3.4729  0.3913
  248MOL0     H33455  10.029   7.332   6.059  1.7226  1.1766 -1.1734
  248MOL0     H33456  10.063   7.048   6.188 -0.9683  0.1910  4.2614
  248MOL0     H33457   9.909   7.106   6.109 -0.1612 -0.1093  0.1147
  248MOL0     H33458   9.887   7.270   6.281  1.1335  1.8404  2.1772
  248MOL0     H33459   9.918   7.108   6.356  0.8173  0.2836 -0.2715
  248MOL0     H33460  10.848   7.466   5.691 -1.0104 -1.5386 -0.1190
  248MOL0     H33461  11.068   7.428   5.811  0.9853  3.8325  2.3687
  248MOL0     H33462  11.474   7.424   6.093  2.1174 -0.3083  0.4717
  248MOL0     H33463  11.583   7.431   6.306 -0.6587  1.6702 -0.0175
  248MOL0     H33464  11.373   8.461   6.902  2.5943  2.2099 -0.2439
  248MOL0     H33465  11.320   8.568   6.706  0.8132  0.4333 -2.6842
  248MOL0     H33466  11.126   8.564   6.307 -1.4353 -1.7027  0.1677
  248MOL0     H33467  11.032   8.670   6.103  0.7667  1.0040  0.9720
  248MOL0     H33468  11.016   8.766   5.900  2.2955  0.3075 -0.1618
  248MOL0     H33469  10.902   8.641   5.851 -1.2228  3.1070  0.3698
  248MOL0     H33470  10.894   8.742   5.659  1.1698  0.2393  0.4242
  248MOL0     H33471  11.045   8.669   5.620  1.6289  0.3719  1.2887
  248MOL0     H33472  11.174   8.874   5.685  1.2650 -5.1740 -2.0271
  248MOL0     H33473  11.028   8.940   5.746  0.0879  1.1167 -1.4250
  248MOL0     H33474  11.074   9.050   5.521  3.7721 -1.0732 -1.5104
  248MOL0     H33475  11.093   8.903   5.455  2.0434  1.4909  0.8125
  248MOL0     H33476  10.656   8.953   5.472  0.3170  2.7299  1.4398
  248MOL0     H33477  11.280   8.397   5.872 -0.0174 -1.0830 -0.0510
  248MOL0     H33478  11.439   8.233   6.126  3.7111  0.9162  1.0982
  248MOL0     H33479  11.440   8.282   5.951  0.7496  1.2742 -0.6332
  248MOL0     H33480  11.522   8.377   6.087 -1.4071  1.1414  0.8562
  249MOL0     O33481   3.953   1.042   8.907  0.9053 -0.7750  0.4270
  249MOL0     C33482   3.989   1.040   9.024  0.7073  0.4903 -0.1836
  249MOL0     O33483   4.112   1.078   9.073  0.4238 -0.5955 -0.1637
  249MOL0     C33484   4.224   1.102   8.995  0.4671  0.3531 -0.6620
  249MOL0     C33485   4.212   1.193   8.889  0.2329 -0.6753  1.0867
  249MOL0     C33486   4.312   1.203   8.794  0.6194 -0.2982 -0.1036
  249MOL0     C33487   4.429   1.125   8.803  0.5590  0.5701  0.0884
  249MOL0     O33488   4.526   1.122   8.700 -0.0391 -0.0823 -0.7113
  249MOL0     C33489   4.533   1.005   8.614  0.3458  0.1010  0.0220
  249MOL0     C33490   4.671   0.999   8.548 -0.6903  0.0804  0.4051
  249MOL0     C33491   4.782   0.944   8.643  1.1103 -0.1505  0.4027
  249MOL0     C33492   4.789   0.794   8.694 -1.0907 -0.2072 -0.2679
  249MOL0     C33493   4.918   0.714   8.711 -0.0884 -0.0999  0.3485
  249MOL0     C33494   5.030   0.789   8.786  0.7918  0.9848 -0.1730
  249MOL0     C33495   4.979   0.802   8.933  0.9205  0.0947  1.1258
  249MOL0     C33496   5.082   0.857   9.032  0.3518 -0.0347 -0.0560
  249MOL0     N33497   5.197   0.773   9.050  0.1059 -0.6514 -0.2511
  249MOL0     C33498   5.332   0.807   9.027  0.5976 -0.5218  0.3258
  249MOL0     C33499   5.399   0.693   9.065  0.4575 -1.2929  0.0489
  249MOL0     C33500   5.538   0.663   9.035  0.4271  0.5448 -1.4291
  249MOL0     C33501   5.567   0.681   8.882 -0.2103 -0.4847  0.4726
  249MOL0     C33502   5.470   0.581   8.804 -0.2243 -1.6318 -0.5367
  249MOL0     C33503   5.503   0.600   8.651 -0.3687  0.9699  0.3001
  249MOL0     O33504   5.422   0.511   8.567 -0.0113  0.4146  0.4675
  249MOL0     C33505   5.501   0.412   8.511  0.4089  0.7787 -0.2980
  249MOL0     C33506   5.493   0.283   8.573  0.0037  0.2381 -0.4450
  249MOL0     C33507   5.584   0.180   8.518  0.9280  0.7668  0.3087
  249MOL0     C33508   5.651   0.210   8.395  0.7224  0.1040 -0.5227
  249MOL0     C33509   5.732   0.102   8.334  0.0318 -0.0514  0.2276
  249MOL0     O33510   5.786   0.124   8.213  0.6724 -0.4219 -0.0473
  249MOL0     C33511   5.850   0.026   8.148  0.0803 -0.0137  0.0290
  249MOL0     C33512   5.837  -0.113   8.151  0.9932  0.2948  0.3169
  249MOL0     C33513   5.910  -0.195   8.057  0.1351 -0.2194 -0.1540
  249MOL0     C33514   5.990  -0.140   7.958  0.2783 -0.5823  0.6719
  249MOL0     O33515   6.089  -0.213   7.894 -0.4712  0.2253  0.5558
  249MOL0     C33516   6.102  -0.360   7.904 -0.3271 -0.6468  0.4543
  249MOL0     C33517   6.225  -0.411   7.840 -0.9155 -0.2862 -0.5654
  249MOL0     C33518   6.348  -0.347   7.906  0.7193  0.2949 -0.0279
  249MOL0     C33519   6.474  -0.435   7.868  0.8348  0.4844 -0.1503
  249MOL0     C33520   6.494  -0.436   7.722  0.3220 -0.5170 -0.2284
  249MOL0     C33521   6.647  -0.423   7.695 -0.3155  0.1698  0.0488
  249MOL0     C33522   6.710  -0.565   7.703 -0.3339 -0.3594  0.6174
  249MOL0     C33523   6.654  -0.651   7.588 -0.2673  1.5949 -0.1050
  249MOL0    Cl33524   6.759  -0.781   7.525  0.0928 -0.0387  0.0895
  249MOL0     C33525   6.001  -0.000   7.953  0.2968  0.1929 -0.1228
  249MOL0     C33526   5.939   0.078   8.054 -0.5412 -0.7457  0.3277
  249MOL0     O33527   5.745  -0.005   8.400 -0.0541 -0.7052  0.3383
  249MOL0     C33528   5.653   0.336   8.343 -0.8398 -0.0302 -0.7832
  249MOL0     C33529   5.573   0.435   8.391  0.1013  0.1688 -0.0526
  249MOL0     N33530   5.312   0.599   9.107  0.3860  0.3056 -0.4670
  249MOL0     N33531   5.191   0.640   9.089  0.5374  0.5335 -0.1073
  249MOL0     C33532   4.444   1.036   8.912  0.2231 -0.3901  0.0975
  249MOL0     C33533   4.342   1.021   9.007  0.0432 -0.9375 -0.4675
  249MOL0     C33534   3.900   0.958   9.118 -0.8726  0.0106  0.0155
  249MOL0     C33535   3.929   0.974   9.258  0.4569  0.7958 -1.0784
  249MOL0     C33536   3.852   0.897   9.363  0.0960  0.3491  0.1608
  249MOL0     C33537   3.760   0.807   9.328 -0.2998 -0.0163  0.3902
  249MOL0     O33538   3.696   0.737   9.414 -1.1875 -0.4707 -0.1317
  249MOL0     C33539   3.584   0.822   9.453 -0.0398 -0.5433 -0.0543
  249MOL0     C33540   3.508   0.752   9.563 -0.5588  0.2020 -0.2424
  249MOL0     C33541   3.566   0.774   9.703 -0.3670 -0.4905 -0.2520
  249MOL0     C33542   3.482   0.700   9.812  0.5357 -0.9443  0.0087
  249MOL0     C33543   3.549   0.695   9.942 -0.5220  0.8582  0.9600
  249MOL0     C33544   3.603   0.670  10.044  0.6998  0.4977 -0.4724
  249MOL0     C33545   3.735   0.789   9.190 -0.4848  0.2597 -0.0060
  249MOL0     C33546   3.800   0.860   9.084 -0.6617  0.5470  0.0411
  249MOL0     C33547   3.774   0.812   8.949  0.6902  0.5256  0.5377
  249MOL0     H33548   4.122   1.252   8.885 -1.9821 -3.6647  2.8787
  249MOL0     H33549   4.302   1.283   8.721  2.5872  1.9428  1.8745
  249MOL0     H33550   4.505   0.910   8.660 -0.5841  0.7579  0.8957
  249MOL0     H33551   4.452   1.018   8.542 -1.8632  0.2866  2.3635
  249MOL0     H33552   4.699   1.094   8.503  3.0372 -2.1724 -2.6969
  249MOL0     H33553   4.660   0.927   8.465  0.9529  0.1443  0.0997
  249MOL0     H33554   4.769   1.015   8.725 -1.7787 -1.3564  1.1125
  249MOL0     H33555   4.875   0.964   8.589 -0.5976  3.5070 -1.4539
  249MOL0     H33556   4.745   0.798   8.793 -0.7040  1.7116 -0.1385
  249MOL0     H33557   4.722   0.734   8.631  0.5969 -2.0263 -0.4603
  249MOL0     H33558   4.895   0.617   8.756  1.1366 -1.4320 -1.6738
  249MOL0     H33559   4.953   0.686   8.611 -1.9355 -0.2621 -0.2819
  249MOL0     H33560   5.126   0.738   8.773  0.8601  1.0689  0.0010
  249MOL0     H33561   5.035   0.891   8.749  3.7411  2.0834  2.7446
  249MOL0     H33562   4.947   0.700   8.959  1.4998 -0.8964 -1.6719
  249MOL0     H33563   4.887   0.860   8.939  0.6437 -0.4062  1.8340
  249MOL0     H33564   5.111   0.962   9.017 -1.5946  0.3553 -1.3935
  249MOL0     H33565   5.036   0.862   9.131 -0.1485 -0.0829 -0.2862
  249MOL0     H33566   5.374   0.904   9.001  2.0274 -1.7919 -2.6946
  249MOL0     H33567   5.594   0.714   9.113  1.6707 -2.6250 -0.0827
  249MOL0     H33568   5.549   0.556   9.051 -2.2144  0.2025 -1.5892
  249MOL0     H33569   5.574   0.787   8.854  1.5076 -0.2908  1.5208
  249MOL0     H33570   5.665   0.642   8.853 -0.2413 -0.3539  0.1895
  249MOL0     H33571   5.364   0.600   8.826 -0.8545 -1.8928 -3.0766
  249MOL0     H33572   5.479   0.480   8.846 -0.7899 -1.2368  0.5847
  249MOL0     H33573   5.608   0.576   8.633 -1.0857 -0.5299 -2.7103
  249MOL0     H33574   5.489   0.706   8.628  0.8690  0.8150 -1.4488
  249MOL0     H33575   5.433   0.263   8.660 -1.2396  3.5762 -0.3703
  249MOL0     H33576   5.586   0.087   8.574  0.1184  0.6480  0.1431
  249MOL0     H33577   5.780  -0.165   8.227 -1.0106 -0.2499 -1.4998
  249MOL0     H33578   5.902  -0.300   8.082  1.3864  0.0146  1.3562
  249MOL0     H33579   6.111  -0.395   8.007  1.4921  0.2716  0.6431
  249MOL0     H33580   6.016  -0.410   7.859 -0.0732 -2.9955  2.3629
  249MOL0     H33581   6.235  -0.517   7.867 -1.0791 -0.3743 -0.8508
  249MOL0     H33582   6.224  -0.388   7.734 -0.0963  1.9600 -0.1256
  249MOL0     H33583   6.369  -0.246   7.871  2.6678 -0.1185 -0.1400
  249MOL0     H33584   6.332  -0.332   8.013 -2.0509  1.0714 -0.4578
  249MOL0     H33585   6.472  -0.539   7.902  5.3382  0.2965  0.0787
  249MOL0     H33586   6.559  -0.389   7.919  2.2283 -0.7800 -1.2665
  249MOL0     H33587   6.448  -0.350   7.672  2.1095  1.3067  1.1180
  249MOL0     H33588   6.454  -0.527   7.675 -0.0791 -1.5972  2.0851
  249MOL0     H33589   6.654  -0.378   7.596  0.1324 -1.1650 -0.5386
  249MOL0     H33590   6.694  -0.352   7.764  1.9276 -2.2202  1.1542
  249MOL0     H33591   6.693  -0.621   7.795  2.5707  0.6255  1.8801
  249MOL0     H33592   6.819  -0.559   7.694 -0.4546 -1.0478 -2.2089
  249MOL0     H33593   6.561  -0.696   7.623  0.0818  1.2055  0.3442
  249MOL0     H33594   6.643  -0.591   7.497  3.1828  0.5869 -1.3487
  249MOL0     H33595   6.073   0.042   7.883  0.5660  1.4247  0.8680
  249MOL0     H33596   5.962   0.184   8.069 -2.3786 -0.3164  0.4114
  249MOL0     H33597   5.706   0.343   8.249 -0.1684 -3.9021 -0.8674
  249MOL0     H33598   5.586   0.532   8.344 -1.7710 -0.2553 -1.5770
  249MOL0     H33599   4.522   0.960   8.911 -0.2582 -0.9502 -2.3950
  249MOL0     H33600   4.340   0.947   9.086 -3.6359  0.1350  0.6430
  249MOL0     H33601   4.005   1.040   9.296 -0.8028  1.0308  1.2155
  249MOL0     H33602   3.898   0.895   9.461  2.6645  1.0101 -0.9186
  249MOL0     H33603   3.517   0.849   9.371 -0.9693 -2.3244  0.0843
  249MOL0     H33604   3.619   0.921   9.483 -4.0200  0.7907  0.7829
  249MOL0     H33605   3.498   0.645   9.542 -1.3220  0.1688  0.2387
  249MOL0     H33606   3.406   0.789   9.557 -0.6674 -0.3679 -3.4934
  249MOL0     H33607   3.561   0.883   9.711  0.2821  0.2653 -6.1162
  249MOL0     H33608   3.670   0.740   9.708  0.3186  1.5745  1.2126
  249MOL0     H33609   3.380   0.741   9.813 -0.7221 -3.7216 -1.9928
  249MOL0     H33610   3.459   0.598   9.781  0.9567 -1.2551  0.6994
  249MOL0     H33611   3.650   0.638  10.135  2.0363 -0.8890 -1.5963
  249MOL0     H33612   3.684   0.695   9.173  0.0672 -0.9064  3.8090
  249MOL0     H33613   3.864   0.752   8.935  0.1709 -0.6680  2.0235
  249MOL0     H33614   3.698   0.733   8.948 -0.8539  1.9681  0.1954
  249MOL0     H33615   3.760   0.890   8.873 -1.3667 -0.1267  0.1882
  250MOL0     O33616   6.689   9.607   8.853  0.6929  1.3691  0.5153
  250MOL0     C33617   6.775   9.553   8.922 -0.0640  0.8203 -0.0718
  250MOL0     O33618   6.825   9.611   9.038  0.6201 -0.3673  0.0697
  250MOL0     C33619   6.830   9.746   9.051  0.9605  0.2198 -1.1807
  250MOL0     C33620   6.904   9.828   8.961  0.0767 -0.2558 -0.9570
  250MOL0     C33621   6.910   9.969   8.974  0.7546 -1.0462 -0.9116
  250MOL0     C33622   6.847  10.038   9.082 -0.0171  0.1340 -0.2823
  250MOL0     O33623   6.820  10.172   9.095  1.0392 -0.7466  0.0381
  250MOL0     C33624   6.901  10.260   9.013  0.2331 -0.4622  0.6800
  250MOL0     C33625   6.820  10.398   9.006 -0.1280 -1.0463 -0.1966
  250MOL0     C33626   6.886  10.511   8.929 -0.6134 -0.4915  0.4258
  250MOL0     C33627   6.858  10.659   8.971  0.1915 -0.6247 -0.1185
  250MOL0     C33628   6.966  10.699   9.060  0.2471 -1.0564 -0.3212
  250MOL0     C33629   6.973  10.846   9.103  0.0439  0.6286  0.3314
  250MOL0     C33630   7.089  10.872   9.199  0.2953  1.3103 -0.0259
  250MOL0     C33631   7.053  10.982   9.295 -0.4187 -0.2064  1.0716
  250MOL0     N33632   7.108  11.116   9.265  0.2042 -0.2377  0.0225
  250MOL0     C33633   7.078  11.200   9.154  0.7923 -0.0678  0.1639
  250MOL0     C33634   7.140  11.320   9.182  0.0814 -0.6936 -0.8717
  250MOL0     C33635   7.153  11.435   9.090  0.1538 -0.7556  0.8140
  250MOL0     C33636   7.241  11.554   9.135  0.0897  0.5170  0.1839
  250MOL0     C33637   7.249  11.668   9.042  0.1293  0.3589  0.7235
  250MOL0     C33638   7.330  11.776   9.117 -0.3572  0.0675 -0.0217
  250MOL0     O33639   7.344  11.878   9.022  0.6475  0.0314 -0.3417
  250MOL0     C33640   7.430  11.984   9.050  0.7471 -0.3546  0.0756
  250MOL0     C33641   7.417  12.092   8.967  0.9980 -0.5124  0.8290
  250MOL0     C33642   7.489  12.214   8.996  0.2373  0.9886 -1.5661
  250MOL0     C33643   7.593  12.220   9.098 -0.9750  0.2954 -0.1049
  250MOL0     C33644   7.679  12.344   9.108 -1.2993  0.5680 -0.5762
  250MOL0     O33645   7.788  12.345   9.194  0.5535  0.0644  0.4714
  250MOL0     C33646   7.895  12.429   9.164 -0.6667 -0.4156  0.5666
  250MOL0     C33647   7.939  12.490   9.039 -0.0852  0.5465 -0.1289
  250MOL0     C33648   8.054  12.574   9.039  0.5571 -0.0752 -0.0027
  250MOL0     C33649   8.139  12.579   9.152 -0.8432  0.0654 -0.2327
  250MOL0     O33650   8.247  12.659   9.169  0.0580  0.1730  0.7588
  250MOL0     C33651   8.277  12.751   9.066 -0.2349  0.5304  0.9066
  250MOL0     C33652   8.385  12.845   9.125  0.4809  0.5549 -0.4680
  250MOL0     C33653   8.447  12.939   9.024  0.1825  0.5489 -0.9703
  250MOL0     C33654   8.591  12.893   8.979 -0.4939 -0.5636 -0.0785
  250MOL0     C33655   8.640  13.021   8.895  0.6278  0.1065 -0.4474
  250MOL0     C33656   8.797  13.024   8.885 -0.3276 -0.5925 -0.0811
  250MOL0     C33657   8.844  12.905   8.830 -0.3261 -0.0322 -0.7008
  250MOL0     C33658   8.837  12.886   8.683 -0.1512 -0.2414  0.2661
  250MOL0    Cl33659   8.932  13.024   8.617  0.0583  0.1472  0.0844
  250MOL0     C33660   8.097  12.517   9.267  1.0001  0.7473 -0.1216
  250MOL0     C33661   7.985  12.437   9.269  0.7017  0.2699 -0.4189
  250MOL0     O33662   7.651  12.437   9.041  0.0738  0.1008  0.2407
  250MOL0     C33663   7.609  12.101   9.178  0.2517  0.7900  0.3315
  250MOL0     C33664   7.515  11.990   9.161  0.1254 -0.0386 -0.5021
  250MOL0     N33665   7.183  11.312   9.317  0.3941  0.0112 -0.4180
  250MOL0     N33666   7.160  11.189   9.361  0.0020 -0.4937  0.0466
  250MOL0     C33667   6.785   9.950   9.172 -0.6947 -0.7231  0.3124
  250MOL0     C33668   6.782   9.812   9.169  0.4912  1.2140 -0.3098
  250MOL0     C33669   6.829   9.425   8.873 -0.6341  0.5160 -0.2123
  250MOL0     C33670   6.818   9.382   8.736  0.7561  1.1239  0.0438
  250MOL0     C33671   6.866   9.254   8.708 -0.4044  0.0688 -0.1225
  250MOL0     C33672   6.911   9.163   8.806  1.0996  0.1189  0.0439
  250MOL0     O33673   6.969   9.045   8.773  0.5015  0.6256  0.6521
  250MOL0     C33674   6.971   9.000   8.636  0.0282  0.8552  0.7921
  250MOL0     C33675   7.039   8.864   8.632  0.6367  0.6797  0.6531
  250MOL0     C33676   7.185   8.869   8.672  0.4120  0.7152  0.0171
  250MOL0     C33677   7.221   8.724   8.687 -0.3334  0.3791  0.0883
  250MOL0     C33678   7.358   8.729   8.720  0.5198 -0.1895  0.0974
  250MOL0     C33679   7.481   8.723   8.723  0.6631  0.5657  0.4967
  250MOL0     C33680   6.924   9.207   8.934  1.2149  0.8320 -0.3901
  250MOL0     C33681   6.903   9.337   8.965 -0.6649  0.2390  0.6485
  250MOL0     C33682   6.953   9.382   9.094 -0.7092 -0.2906  0.2494
  250MOL0     H33683   6.957   9.780   8.879  0.0575  0.0850 -1.1697
  250MOL0     H33684   6.970  10.030   8.907  2.0302  3.1369  3.4948
  250MOL0     H33685   6.997  10.287   9.056  0.7934 -3.0544  1.2224
  250MOL0     H33686   6.923  10.221   8.913 -1.1158 -0.8135  0.4868
  250MOL0     H33687   6.815  10.439   9.108  0.3569  0.9056 -0.9158
  250MOL0     H33688   6.718  10.374   8.975  0.3934 -0.0954 -2.8614
  250MOL0     H33689   6.847  10.507   8.826  2.4773  0.7723 -0.9243
  250MOL0     H33690   6.992  10.503   8.905 -0.1916  1.9137  1.2229
  250MOL0     H33691   6.866  10.728   8.887 -2.0948 -1.1207 -0.8152
  250MOL0     H33692   6.755  10.673   9.005  0.4585  1.5605 -0.0993
  250MOL0     H33693   6.946  10.644   9.153 -0.2804  1.3401  1.0465
  250MOL0     H33694   7.058  10.667   9.010  0.7588 -0.2322  0.0876
  250MOL0     H33695   7.000  10.910   9.019  1.7430  0.9781  1.1100
  250MOL0     H33696   6.878  10.877   9.148  0.2379  2.7271 -0.5977
  250MOL0     H33697   7.188  10.875   9.153  0.9829 -1.8455  0.9708
  250MOL0     H33698   7.095  10.784   9.264  0.9584  1.9944  0.8793
  250MOL0     H33699   6.945  10.984   9.314 -1.1770  1.2975 -2.5666
  250MOL0     H33700   7.090  10.954   9.395 -1.5034 -0.9965  1.2665
  250MOL0     H33701   7.027  11.165   9.064 -1.1922  2.4338  0.2073
  250MOL0     H33702   7.179  11.400   8.990 -0.4132 -3.8954  1.6711
  250MOL0     H33703   7.053  11.478   9.080 -0.5902 -2.2863  1.3072
  250MOL0     H33704   7.206  11.588   9.233  0.9410  1.6377  0.1189
  250MOL0     H33705   7.339  11.508   9.155 -0.8053 -0.0732  3.8943
  250MOL0     H33706   7.147  11.706   9.026  0.2370  0.3463 -0.0049
  250MOL0     H33707   7.284  11.648   8.940  2.3481  1.3956  1.2254
  250MOL0     H33708   7.425  11.735   9.152  0.8187  2.0028 -0.7932
  250MOL0     H33709   7.280  11.809   9.208  1.7040 -1.1033  1.6310
  250MOL0     H33710   7.342  12.095   8.888  0.4775 -1.8812  1.2401
  250MOL0     H33711   7.463  12.309   8.950  0.6794  3.2037  2.3150
  250MOL0     H33712   7.874  12.486   8.953 -2.9874 -1.9039  1.9378
  250MOL0     H33713   8.069  12.639   8.953 -1.7824 -0.2982 -0.6584
  250MOL0     H33714   8.309  12.707   8.971  0.7549 -0.0851  1.5113
  250MOL0     H33715   8.198  12.826   9.053  2.3032  3.4765  1.1301
  250MOL0     H33716   8.356  12.887   9.221 -1.0633 -4.3482  1.5003
  250MOL0     H33717   8.457  12.774   9.166 -1.4766 -1.0800  0.3036
  250MOL0     H33718   8.376  12.954   8.942 -0.4318  1.6343 -0.2717
  250MOL0     H33719   8.464  13.030   9.082 -1.3484 -0.1585  0.6970
  250MOL0     H33720   8.589  12.803   8.917 -3.0873 -0.2912 -0.5002
  250MOL0     H33721   8.656  12.872   9.065 -0.5797  0.6704  0.3014
  250MOL0     H33722   8.612  13.116   8.942  0.1003 -0.4078  0.3032
  250MOL0     H33723   8.599  13.021   8.794  1.7698 -3.9130 -1.0792
  250MOL0     H33724   8.820  13.101   8.811 -0.3323 -0.5247 -0.0109
  250MOL0     H33725   8.827  13.047   8.987 -0.5128 -0.9713  0.0611
  250MOL0     H33726   8.800  12.817   8.876  1.2023  0.3404  1.6238
  250MOL0     H33727   8.949  12.904   8.861 -1.1654 -0.9739  2.4091
  250MOL0     H33728   8.884  12.790   8.660 -1.3281 -0.8313  0.2813
  250MOL0     H33729   8.730  12.892   8.665  0.1194  0.5307 -1.2272
  250MOL0     H33730   8.161  12.534   9.353 -0.9914 -0.5558  1.6900
  250MOL0     H33731   7.962  12.388   9.363 -1.0322 -0.7108 -1.3125
  250MOL0     H33732   7.681  12.100   9.259  0.7628 -0.6823 -0.1137
  250MOL0     H33733   7.525  11.909   9.232  1.5856  0.1647 -0.4337
  250MOL0     H33734   6.749   9.994   9.264  0.1723 -0.4709  0.5374
  250MOL0     H33735   6.727   9.744   9.233 -3.1835  0.8078 -3.4767
  250MOL0     H33736   6.786   9.439   8.649 -4.2803 -1.2315 -0.0032
  250MOL0     H33737   6.858   9.229   8.603 -0.6198 -1.8489  0.3248
  250MOL0     H33738   7.019   9.077   8.575  0.7444  1.5755  2.2082
  250MOL0     H33739   6.874   8.982   8.588  1.6395 -0.4256 -2.2825
  250MOL0     H33740   7.027   8.826   8.530  1.3708  3.0675 -0.4063
  250MOL0     H33741   6.977   8.805   8.700 -2.8405 -0.1016 -2.8645
  250MOL0     H33742   7.196   8.922   8.767 -2.0733  1.9363 -0.2879
  250MOL0     H33743   7.246   8.912   8.592 -1.2073  1.4737 -0.8736
  250MOL0     H33744   7.164   8.676   8.767  0.4648 -0.5832  0.0985
  250MOL0     H33745   7.213   8.660   8.599  1.8509 -1.6263  1.2417
  250MOL0     H33746   7.586   8.740   8.731  0.4046  2.3869  0.3416
  250MOL0     H33747   6.969   9.135   9.001 -1.8332  0.0204  0.9605
  250MOL0     H33748   6.866   9.395   9.159 -0.0260 -1.2506  1.4111
  250MOL0     H33749   7.028   9.312   9.134 -1.2040 -1.0966 -0.1942
  250MOL0     H33750   7.008   9.475   9.084  1.7245 -1.6266  0.4692
  251MOL0     O33751   1.196   8.710   5.011 -0.0814 -0.3557  0.3038
  251MOL0     C33752   1.305   8.750   5.048  0.9218 -0.5402 -0.1234
  251MOL0     O33753   1.319   8.870   5.114  0.1387 -0.3581  0.3420
  251MOL0     C33754   1.210   8.910   5.195 -0.6207 -0.4095  0.7603
  251MOL0     C33755   1.190   9.047   5.204 -0.1837 -0.5632 -0.1098
  251MOL0     C33756   1.097   9.098   5.303 -0.1574  0.6886 -0.3504
  251MOL0     C33757   1.022   9.009   5.381 -0.3956  0.6072 -0.5497
  251MOL0     O33758   0.944   9.048   5.492 -0.8752  0.0267 -0.1514
  251MOL0     C33759   0.811   9.077   5.456  0.3531  0.6508 -0.0909
  251MOL0     C33760   0.718   9.006   5.548  0.0017  0.1875  0.2660
  251MOL0     C33761   0.750   9.015   5.704 -0.3815  0.0190  0.3574
  251MOL0     C33762   0.666   8.912   5.790 -0.1796  0.5768  0.5717
  251MOL0     C33763   0.696   8.908   5.937  0.3474 -0.2543 -0.6802
  251MOL0     C33764   0.618   8.809   6.017 -0.9564 -0.4750 -0.2044
  251MOL0     C33765   0.666   8.776   6.160 -1.4341 -0.3819  0.6356
  251MOL0     C33766   0.547   8.742   6.249  0.4470 -1.1121 -0.5710
  251MOL0     N33767   0.449   8.646   6.203 -0.1231 -0.4548  0.7371
  251MOL0     C33768   0.488   8.511   6.173 -1.0976 -1.2284 -0.8081
  251MOL0     C33769   0.375   8.458   6.120  0.4716  0.2226  0.0672
  251MOL0     C33770   0.348   8.327   6.058 -0.1857  0.2779  0.1996
  251MOL0     C33771   0.281   8.352   5.921 -0.8447 -0.0165  0.5207
  251MOL0     C33772   0.231   8.216   5.865  0.4812  0.3006 -0.0361
  251MOL0     C33773   0.188   8.228   5.715  0.1542 -0.2523 -0.3861
  251MOL0     O33774   0.123   8.351   5.690 -0.1188 -0.1000  0.3535
  251MOL0     C33775   0.007   8.363   5.610 -0.7026  1.0639  0.1025
  251MOL0     C33776  -0.046   8.486   5.596  0.2135 -0.1283  0.4270
  251MOL0     C33777  -0.156   8.513   5.526  0.2926  0.4555 -0.3776
  251MOL0     C33778  -0.220   8.409   5.455  0.1714 -0.6510 -0.0707
  251MOL0     C33779  -0.327   8.442   5.362  1.2606 -0.0237  1.5973
  251MOL0     O33780  -0.406   8.546   5.384  0.4037 -0.1467  0.5887
  251MOL0     C33781  -0.508   8.566   5.300  0.0108  0.1848  0.8005
  251MOL0     C33782  -0.639   8.565   5.344  0.5246  0.5748 -0.1814
  251MOL0     C33783  -0.750   8.572   5.269 -0.5339 -0.2586  0.7192
  251MOL0     C33784  -0.729   8.586   5.129 -0.2318  0.5560 -0.0912
  251MOL0     O33785  -0.848   8.604   5.068 -0.6959  0.1971 -0.2921
  251MOL0     C33786  -0.854   8.752   5.041 -0.7231 -0.3074  0.0625
  251MOL0     C33787  -0.936   8.829   5.145 -0.2482 -0.1740  0.0999
  251MOL0     C33788  -1.080   8.770   5.157 -0.9173  0.4721 -1.0667
  251MOL0     C33789  -1.178   8.831   5.064 -0.7012  0.7375 -0.9929
  251MOL0     C33790  -1.309   8.747   5.060 -0.0717  0.1034  0.0556
  251MOL0     C33791  -1.427   8.852   5.052 -0.5212  0.5045 -0.2862
  251MOL0     C33792  -1.432   8.905   4.908  0.1323  0.3881 -0.3772
  251MOL0     C33793  -1.457   8.802   4.796  0.5682 -0.1208 -0.1013
  251MOL0    Cl33794  -1.476   8.862   4.629 -0.5021  0.6623 -0.1971
  251MOL0     C33795  -0.596   8.604   5.072  0.8493  0.5792  0.4682
  251MOL0     C33796  -0.488   8.604   5.161  0.1338 -0.0885  0.0930
  251MOL0     O33797  -0.343   8.367   5.265  0.6674  0.1677 -0.1326
  251MOL0     C33798  -0.171   8.277   5.468 -0.7164 -0.1780  0.4115
  251MOL0     C33799  -0.060   8.254   5.549 -1.0349 -0.7349  0.5403
  251MOL0     N33800   0.272   8.553   6.124  0.0567  0.1213  0.4922
  251MOL0     N33801   0.321   8.661   6.165 -0.6765  0.1771  0.2773
  251MOL0     C33802   1.039   8.864   5.365 -0.5350 -0.5606 -0.3473
  251MOL0     C33803   1.132   8.819   5.273 -1.0846 -0.1670  0.6089
  251MOL0     C33804   1.427   8.681   4.997  0.8706 -0.4001 -1.2500
  251MOL0     C33805   1.542   8.765   4.985 -0.7506  1.0527  0.1451
  251MOL0     C33806   1.659   8.705   4.935  0.4512  0.0414  0.4712
  251MOL0     C33807   1.676   8.562   4.907 -0.9141 -0.6020 -0.0796
  251MOL0     O33808   1.792   8.506   4.867  0.1200  0.4658 -0.2371
  251MOL0     C33809   1.884   8.589   4.807 -0.3832 -0.3019 -0.2469
  251MOL0     C33810   2.001   8.512   4.756  0.0611  1.0012 -0.6389
  251MOL0     C33811   2.074   8.606   4.654 -0.4281  0.0959  1.5770
  251MOL0     C33812   2.132   8.533   4.535  0.7182 -0.4859  0.4921
  251MOL0     C33813   2.249   8.451   4.575  0.0783 -0.1011 -0.9389
  251MOL0     C33814   2.343   8.378   4.603 -0.1488 -0.3249  0.1383
  251MOL0     C33815   1.557   8.484   4.915  0.4616  0.8086 -1.0391
  251MOL0     C33816   1.435   8.543   4.958 -0.2788 -0.2436 -0.2774
  251MOL0     C33817   1.305   8.465   4.963 -0.0501  0.8498  1.2152
  251MOL0     H33818   1.249   9.121   5.150  0.3991 -0.5818  0.4849
  251MOL0     H33819   1.088   9.202   5.335  0.0115  0.2050  1.3765
  251MOL0     H33820   0.794   9.185   5.464 -1.6876  0.4206 -0.8521
  251MOL0     H33821   0.785   9.055   5.352 -0.5273 -1.6157  0.5652
  251MOL0     H33822   0.707   8.900   5.524  1.0879  0.2570 -0.5831
  251MOL0     H33823   0.624   9.060   5.533 -0.6982 -1.2364 -0.7110
  251MOL0     H33824   0.747   9.118   5.741  0.0004  1.1375 -2.4800
  251MOL0     H33825   0.856   8.989   5.707 -0.9812 -3.2274 -1.7239
  251MOL0     H33826   0.560   8.935   5.771 -0.1181  0.0490 -0.4790
  251MOL0     H33827   0.671   8.811   5.749 -1.5674  0.7534 -0.1082
  251MOL0     H33828   0.800   8.881   5.955 -0.0758 -0.3913  2.0861
  251MOL0     H33829   0.682   9.010   5.975 -1.4571  0.7216 -3.6507
  251MOL0     H33830   0.515   8.844   6.028 -1.1662 -0.2266 -2.5311
  251MOL0     H33831   0.623   8.715   5.961  2.0144 -0.0022 -0.9477
  251MOL0     H33832   0.727   8.862   6.191 -0.2124 -0.9922  0.0054
  251MOL0     H33833   0.732   8.689   6.151 -1.7170 -0.6939  1.4500
  251MOL0     H33834   0.582   8.712   6.349 -1.3181 -0.1527  0.3730
  251MOL0     H33835   0.492   8.836   6.262  1.0663 -1.1212  3.9380
  251MOL0     H33836   0.582   8.457   6.174  1.1759  2.3512  1.1192
  251MOL0     H33837   0.444   8.276   6.047 -0.5285 -0.9786  2.4624
  251MOL0     H33838   0.292   8.260   6.124  4.4485 -1.2937  3.0164
  251MOL0     H33839   0.194   8.418   5.924 -0.9030 -0.0689 -0.0778
  251MOL0     H33840   0.353   8.395   5.851 -0.6041 -1.0118  0.1356
  251MOL0     H33841   0.150   8.185   5.931  2.4781  1.6448  3.2650
  251MOL0     H33842   0.313   8.145   5.875  0.4642  0.6065  3.4116
  251MOL0     H33843   0.140   8.138   5.674 -0.6365  0.4831 -1.1143
  251MOL0     H33844   0.287   8.229   5.668 -1.3331 -1.2244 -3.8665
  251MOL0     H33845  -0.006   8.570   5.652 -1.0392  0.6096  0.2356
  251MOL0     H33846  -0.210   8.606   5.533 -2.2943 -0.9430 -0.5955
  251MOL0     H33847  -0.652   8.541   5.449  0.7662 -0.2311 -0.3294
  251MOL0     H33848  -0.849   8.563   5.313 -0.4926  0.5327  1.0005
  251MOL0     H33849  -0.756   8.798   5.027  1.2472 -4.4825 -1.7539
  251MOL0     H33850  -0.907   8.760   4.946 -1.3118 -0.8402  0.3392
  251MOL0     H33851  -0.881   8.808   5.237  0.6782  0.9421 -0.1746
  251MOL0     H33852  -0.932   8.937   5.127  1.0085 -0.6784 -3.3916
  251MOL0     H33853  -1.073   8.666   5.125  2.1327  0.8396 -2.0013
  251MOL0     H33854  -1.116   8.766   5.260  2.1687 -0.8463  0.1036
  251MOL0     H33855  -1.130   8.839   4.966  0.7970  1.7300 -0.2087
  251MOL0     H33856  -1.196   8.933   5.098 -0.6849  0.1998  0.7083
  251MOL0     H33857  -1.314   8.685   5.149 -0.3999 -1.4739 -1.0150
  251MOL0     H33858  -1.315   8.677   4.976 -1.4228  1.0979 -0.7295
  251MOL0     H33859  -1.531   8.826   5.073  0.1444 -1.9391  0.2762
  251MOL0     H33860  -1.401   8.928   5.126 -3.2195 -0.2793  1.6252
  251MOL0     H33861  -1.340   8.948   4.867  1.3610 -0.5954  1.2456
  251MOL0     H33862  -1.503   8.988   4.913 -0.2404  0.5951 -4.9408
  251MOL0     H33863  -1.382   8.722   4.793 -0.3322 -1.0345  1.0180
  251MOL0     H33864  -1.553   8.753   4.813  0.8427 -1.0914 -1.2080
  251MOL0     H33865  -0.579   8.625   4.967 -0.2167  3.5300  0.7724
  251MOL0     H33866  -0.385   8.609   5.128  0.9716 -1.6747  2.2217
  251MOL0     H33867  -0.204   8.187   5.418  2.5700 -1.9164  1.0772
  251MOL0     H33868  -0.016   8.157   5.572 -0.8239 -1.0190 -0.9979
  251MOL0     H33869   0.981   8.800   5.430 -0.8604  0.8725  0.8257
  251MOL0     H33870   1.156   8.714   5.268 -1.7345 -0.3421  0.9144
  251MOL0     H33871   1.534   8.868   5.019 -5.3272 -0.6442  5.9190
  251MOL0     H33872   1.733   8.782   4.916  0.7602 -0.0041  1.4268
  251MOL0     H33873   1.920   8.664   4.878 -0.3942 -0.0324 -0.5231
  251MOL0     H33874   1.835   8.652   4.732 -0.7515 -0.0468  0.2057
  251MOL0     H33875   1.979   8.415   4.709  3.3051 -0.0586 -0.2101
  251MOL0     H33876   2.075   8.502   4.836 -0.8816  1.8643  0.3716
  251MOL0     H33877   2.139   8.678   4.705 -0.5427  1.2643  0.1341
  251MOL0     H33878   2.005   8.673   4.602 -0.3039 -1.8144 -1.2385
  251MOL0     H33879   2.068   8.452   4.499  2.8140 -3.2947  2.6282
  251MOL0     H33880   2.173   8.605   4.463  3.4432  1.9110  4.0694
  251MOL0     H33881   2.433   8.322   4.621 -0.6950 -0.9016  1.2042
  251MOL0     H33882   1.567   8.380   4.886 -0.0236  0.9416 -1.7046
  251MOL0     H33883   1.271   8.450   5.066  2.1902 -1.2422  1.7218
  251MOL0     H33884   1.225   8.516   4.908 -0.8022  1.8243  3.1193
  251MOL0     H33885   1.308   8.371   4.908 -2.6882  0.4750  1.5514
  252MOL0     O33886  10.336   3.119   3.644 -0.1668  0.7673 -0.3017
  252MOL0     C33887  10.226   3.150   3.696  0.5638  0.3955 -0.6607
  252MOL0     O33888  10.155   3.263   3.680  0.8152  0.4899 -0.3776
  252MOL0     C33889  10.199   3.371   3.609 -0.3728  0.3079 -0.3565
  252MOL0     C33890  10.170   3.498   3.666 -0.1699 -0.6697 -0.1294
  252MOL0     C33891  10.192   3.614   3.590 -0.2709  0.2862 -0.3011
  252MOL0     C33892  10.246   3.601   3.456 -0.2633 -1.2974 -0.6520
  252MOL0     O33893  10.270   3.712   3.376  0.6084  0.6057 -0.5186
  252MOL0     C33894  10.239   3.838   3.421  0.2469 -0.6249  1.1514
  252MOL0     C33895  10.284   3.949   3.319  0.1937  0.2069 -0.4909
  252MOL0     C33896  10.378   4.053   3.392  0.2750 -0.6166  0.6401
  252MOL0     C33897  10.388   4.179   3.298  0.1488  0.6976 -0.7263
  252MOL0     C33898  10.476   4.294   3.366 -0.4404  0.0640 -0.2415
  252MOL0     C33899  10.371   4.385   3.433 -0.0724 -0.6407 -0.1381
  252MOL0     C33900  10.428   4.519   3.466 -0.4247 -1.0676  0.3611
  252MOL0     C33901  10.546   4.513   3.560 -0.1675  0.4044 -0.3715
  252MOL0     N33902  10.582   4.640   3.615  0.5181 -0.4499 -0.9702
  252MOL0     C33903  10.513   4.702   3.720  0.1342  0.1178 -0.0333
  252MOL0     C33904  10.592   4.804   3.751 -0.3297  0.0939 -0.0323
  252MOL0     C33905  10.572   4.880   3.875 -0.0943  0.2877 -0.5782
  252MOL0     C33906  10.516   4.811   4.000  1.2883 -0.3146 -0.4858
  252MOL0     C33907  10.590   4.688   4.041 -0.0662 -0.3576  0.6227
  252MOL0     C33908  10.509   4.599   4.134  0.6859  0.5536 -0.1178
  252MOL0     O33909  10.393   4.534   4.086  0.2480 -0.2699 -0.2518
  252MOL0     C33910  10.407   4.414   4.012  0.5315  1.2346 -0.7306
  252MOL0     C33911  10.286   4.372   3.951 -0.6361 -0.1650 -0.6673
  252MOL0     C33912  10.286   4.253   3.875  0.4916 -0.3649  0.4189
  252MOL0     C33913  10.402   4.187   3.847 -0.4892 -0.1595 -0.1509
  252MOL0     C33914  10.402   4.071   3.762  0.2173 -0.0246  0.9478
  252MOL0     O33915  10.514   4.042   3.692 -0.2937  0.5846  0.2492
  252MOL0     C33916  10.552   3.916   3.683 -0.5844  1.0586 -0.1555
  252MOL0     C33917  10.653   3.902   3.583  0.1371  0.3869  0.4494
  252MOL0     C33918  10.709   3.778   3.560 -0.4233  0.1013 -0.2246
  252MOL0     C33919  10.660   3.662   3.626 -1.1263  0.1678  0.5480
  252MOL0     O33920  10.729   3.539   3.600  0.7286 -0.2977  0.1252
  252MOL0     C33921  10.630   3.447   3.557  0.4558  0.1089 -0.1863
  252MOL0     C33922  10.693   3.309   3.537  0.2841  0.0570  0.4214
  252MOL0     C33923  10.745   3.248   3.663  1.1118 -0.1281 -0.0544
  252MOL0     C33924  10.825   3.127   3.627  0.1553  0.1553  0.4778
  252MOL0     C33925  10.842   3.031   3.736  0.9267 -0.2525 -0.8983
  252MOL0     C33926  10.972   2.937   3.699  0.3227  0.1072 -0.5080
  252MOL0     C33927  10.976   2.866   3.561  1.1932  1.1329 -0.3095
  252MOL0     C33928  11.098   2.781   3.556  0.7560 -0.7605  0.6757
  252MOL0    Cl33929  11.087   2.667   3.400 -0.0455 -0.5746 -0.4133
  252MOL0     C33930  10.569   3.680   3.734 -0.8081 -0.4390 -0.6130
  252MOL0     C33931  10.514   3.803   3.752  0.1931  0.4763 -0.2968
  252MOL0     O33932  10.306   3.993   3.765  0.4838  0.3977  0.2496
  252MOL0     C33933  10.524   4.219   3.915  1.2033 -0.5844  0.1758
  252MOL0     C33934  10.524   4.335   3.998 -0.1222  0.9268 -0.4407
  252MOL0     N33935  10.705   4.800   3.675 -0.1976 -0.2413  0.3049
  252MOL0     N33936  10.702   4.701   3.597 -0.5789 -0.3375  0.1539
  252MOL0     C33937  10.284   3.476   3.405  0.1585  0.6728  0.0299
  252MOL0     C33938  10.263   3.364   3.485  0.9423  0.2326  1.0301
  252MOL0     C33939  10.139   3.045   3.755  0.2354  0.1976  0.4597
  252MOL0     C33940  10.003   3.039   3.714 -0.1995 -0.5390  0.1726
  252MOL0     C33941   9.927   2.922   3.754 -0.0783  0.6729  0.4153
  252MOL0     C33942   9.974   2.827   3.846  0.5553  0.4459  0.1287
  252MOL0     O33943   9.876   2.741   3.879 -0.0395  0.4937 -0.2941
  252MOL0     C33944   9.892   2.601   3.846 -0.6000 -0.2731 -0.7429
  252MOL0     C33945   9.772   2.527   3.882 -0.0858 -0.2437 -0.0323
  252MOL0     C33946   9.754   2.501   4.024  0.8193  0.9920 -0.5154
  252MOL0     C33947   9.632   2.411   4.051  0.4406  0.5913 -1.1371
  252MOL0     C33948   9.645   2.344   4.186  0.3430  0.7244 -0.3752
  252MOL0     C33949   9.648   2.296   4.297  0.0191  0.5356  0.9913
  252MOL0     C33950  10.104   2.843   3.889 -0.3569 -0.4562  0.7328
  252MOL0     C33951  10.189   2.951   3.844  0.5750  0.6906 -0.1722
  252MOL0     C33952  10.336   2.954   3.899 -0.5641  0.3265 -0.1260
  252MOL0     H33953  10.129   3.497   3.767  1.6572 -5.1304  0.8327
  252MOL0     H33954  10.149   3.706   3.628 -1.3081 -0.7506  1.1708
  252MOL0     H33955  10.132   3.842   3.446  0.4429  1.7884  1.8980
  252MOL0     H33956  10.296   3.862   3.511  1.9169  1.7557 -0.4126
  252MOL0     H33957  10.195   4.004   3.286 -0.3916 -0.2998  0.2102
  252MOL0     H33958  10.332   3.901   3.234 -1.2040 -2.9043  0.3232
  252MOL0     H33959  10.476   4.008   3.412  0.8360  0.1400 -0.3539
  252MOL0     H33960  10.335   4.085   3.488 -2.4901 -5.0940  1.2073
  252MOL0     H33961  10.430   4.141   3.205  2.0909  1.8778 -0.3750
  252MOL0     H33962  10.290   4.217   3.266 -1.0182 -1.4248  0.1273
  252MOL0     H33963  10.557   4.251   3.426  0.2150  2.7954  0.9958
  252MOL0     H33964  10.524   4.350   3.284 -1.0779  1.1749  0.1207
  252MOL0     H33965  10.277   4.393   3.377 -1.8713 -0.9476  2.6573
  252MOL0     H33966  10.326   4.343   3.523  0.4398 -1.3596 -0.2077
  252MOL0     H33967  10.358   4.584   3.518  2.5008  0.7582  2.3384
  252MOL0     H33968  10.462   4.570   3.376  0.6747  1.0336  1.8732
  252MOL0     H33969  10.530   4.442   3.641 -2.3254  2.0717  0.7792
  252MOL0     H33970  10.624   4.478   3.492  2.2411 -3.3019  3.7884
  252MOL0     H33971  10.426   4.669   3.775 -0.5862 -0.3937 -1.4129
  252MOL0     H33972  10.658   4.937   3.908 -0.9306  0.5342  1.3021
  252MOL0     H33973  10.500   4.955   3.840 -2.4357 -0.2939  2.5905
  252MOL0     H33974  10.516   4.889   4.077 -2.7846 -1.6552  1.1088
  252MOL0     H33975  10.414   4.775   3.989  0.7656  0.5229  1.2353
  252MOL0     H33976  10.681   4.712   4.097  0.9192  0.7166 -1.3230
  252MOL0     H33977  10.627   4.619   3.965 -2.3673 -0.2374 -0.7167
  252MOL0     H33978  10.476   4.662   4.216  2.9160 -0.2391  1.4679
  252MOL0     H33979  10.563   4.517   4.181 -4.5829 -3.6252 -0.3564
  252MOL0     H33980  10.192   4.423   3.963  0.7073  3.2585 -3.0620
  252MOL0     H33981  10.200   4.216   3.819  1.1081  2.3435 -2.6286
  252MOL0     H33982  10.693   3.985   3.527  1.2243 -2.0336 -2.6465
  252MOL0     H33983  10.777   3.769   3.475  0.8525  0.8635  0.6715
  252MOL0     H33984  10.557   3.436   3.638  1.1146 -0.8146  0.3045
  252MOL0     H33985  10.571   3.485   3.473  0.5070 -1.2769 -0.8987
  252MOL0     H33986  10.616   3.236   3.512  0.5312 -0.6990  1.7348
  252MOL0     H33987  10.768   3.307   3.458 -1.5500 -2.8765 -1.4280
  252MOL0     H33988  10.806   3.316   3.723  2.9723 -1.6546 -0.1020
  252MOL0     H33989  10.670   3.203   3.728  1.6336 -2.2893 -0.8775
  252MOL0     H33990  10.920   3.162   3.586 -1.3749  2.6016 -1.3236
  252MOL0     H33991  10.781   3.064   3.549  3.8805 -2.1629  0.0077
  252MOL0     H33992  10.761   2.958   3.743  0.0213  0.8586  0.9681
  252MOL0     H33993  10.876   3.083   3.826  2.0382  1.4546 -2.2401
  252MOL0     H33994  11.062   2.998   3.704 -0.6512  1.5357  0.6239
  252MOL0     H33995  10.974   2.863   3.778  1.3967 -1.7431 -2.1788
  252MOL0     H33996  10.953   2.924   3.470 -0.1882  1.4522  0.2155
  252MOL0     H33997  10.895   2.794   3.574 -0.9141  3.4603  0.2275
  252MOL0     H33998  11.182   2.852   3.555 -0.2196  0.4385  1.5333
  252MOL0     H33999  11.114   2.712   3.639 -1.8764 -0.7597  1.2547
  252MOL0     H34000  10.536   3.599   3.798 -1.2177  0.8113  0.8500
  252MOL0     H34001  10.441   3.797   3.831  0.0584 -0.4629 -0.4836
  252MOL0     H34002  10.611   4.159   3.891  3.6514  3.0518 -0.9077
  252MOL0     H34003  10.614   4.357   4.054 -0.1924  1.3002 -0.4743
  252MOL0     H34004  10.318   3.465   3.303 -1.1762 -0.3422 -0.3277
  252MOL0     H34005  10.301   3.266   3.455 -0.9992 -0.5088  0.8552
  252MOL0     H34006   9.958   3.106   3.642 -1.0291 -2.1602 -0.8734
  252MOL0     H34007   9.827   2.919   3.712 -0.0932 -0.1285  0.4859
  252MOL0     H34008   9.967   2.540   3.897 -0.4865  0.0549 -0.5123
  252MOL0     H34009   9.908   2.605   3.738  1.9895 -0.6623 -0.4167
  252MOL0     H34010   9.787   2.437   3.821  0.4557 -1.1143  1.3363
  252MOL0     H34011   9.694   2.591   3.839 -0.1208  2.3461  3.4778
  252MOL0     H34012   9.742   2.594   4.082  1.7124  0.0964  1.1803
  252MOL0     H34013   9.840   2.445   4.063  1.2624  1.4386 -0.8368
  252MOL0     H34014   9.549   2.483   4.047  0.3527  0.8553  2.2712
  252MOL0     H34015   9.606   2.337   3.975 -1.7243 -0.5192  0.5583
  252MOL0     H34016   9.669   2.257   4.395 -2.8208  1.7996  2.2066
  252MOL0     H34017  10.138   2.778   3.969  0.1036 -1.4111 -0.2100
  252MOL0     H34018  10.369   3.054   3.927 -0.1466  0.2969 -0.5078
  252MOL0     H34019  10.357   2.900   3.991 -0.2768  1.5642  0.5591
  252MOL0     H34020  10.397   2.922   3.814  2.3932  0.3348  1.8482
  253MOL0     O34021   0.473   4.696   7.253 -0.1940  0.3622  0.9377
  253MOL0     C34022   0.406   4.614   7.189  0.2728  0.0449 -1.3564
  253MOL0     O34023   0.456   4.523   7.113  0.3290 -0.0011  0.5604
  253MOL0     C34024   0.562   4.453   7.175  0.7729 -0.0434  0.1563
  253MOL0     C34025   0.691   4.493   7.154  0.2017 -0.1816  0.1152
  253MOL0     C34026   0.795   4.429   7.219 -1.5213 -0.2523 -0.5970
  253MOL0     C34027   0.771   4.329   7.317 -0.1037 -0.8408  1.0622
  253MOL0     O34028   0.885   4.291   7.384 -0.6634  0.2731  0.0373
  253MOL0     C34029   0.874   4.153   7.423  0.1404  1.0579  0.2717
  253MOL0     C34030   1.010   4.098   7.478  1.0180 -0.1306 -0.1736
  253MOL0     C34031   1.093   4.030   7.368  0.2359  0.4290  0.3530
  253MOL0     C34032   1.242   4.009   7.400 -0.9290  0.1964 -0.2158
  253MOL0     C34033   1.260   3.936   7.530  0.0132 -0.2687 -0.3703
  253MOL0     C34034   1.199   3.793   7.544  0.4950 -0.9904  0.6579
  253MOL0     C34035   1.238   3.740   7.679 -0.4216  0.0061  0.1643
  253MOL0     C34036   1.183   3.604   7.709  0.3559 -0.0009 -0.4993
  253MOL0     N34037   1.217   3.502   7.603  0.1684 -0.1284  0.6997
  253MOL0     C34038   1.342   3.465   7.544  0.5021  0.1696 -0.4419
  253MOL0     C34039   1.320   3.359   7.466  0.0787  0.3750 -0.1660
  253MOL0     C34040   1.417   3.294   7.372  0.4800  1.0681  0.7684
  253MOL0     C34041   1.433   3.372   7.234 -0.2206 -0.1620 -0.3492
  253MOL0     C34042   1.319   3.322   7.146 -0.5740 -0.1519 -0.1443
  253MOL0     C34043   1.327   3.404   7.010  0.3868 -0.0770 -0.3117
  253MOL0     O34044   1.312   3.541   7.033 -0.8745 -0.3545  0.7562
  253MOL0     C34045   1.190   3.589   7.061  0.3142 -0.5577  0.9894
  253MOL0     C34046   1.151   3.607   7.193 -0.4081  0.3061  0.4379
  253MOL0     C34047   1.039   3.677   7.218 -0.4019  1.2778  0.4410
  253MOL0     C34048   0.968   3.742   7.117 -0.3553  0.2544  0.7271
  253MOL0     C34049   0.847   3.821   7.146 -0.2362  0.3894 -0.1977
  253MOL0     O34050   0.816   3.930   7.071  0.2270  0.7544 -0.5789
  253MOL0     C34051   0.691   3.980   7.054  0.6021 -0.5561  0.7749
  253MOL0     C34052   0.568   3.929   7.097 -1.1833  0.3636 -0.4124
  253MOL0     C34053   0.446   3.977   7.047 -0.4110  0.0521  1.0889
  253MOL0     C34054   0.451   4.106   6.977 -0.4336  0.1842 -0.2058
  253MOL0     O34055   0.342   4.187   6.950  0.3997  0.3059 -0.7223
  253MOL0     C34056   0.230   4.110   6.887  0.5988  0.1085  0.1893
  253MOL0     C34057   0.250   4.095   6.729 -0.2749 -0.2662  0.3038
  253MOL0     C34058   0.297   4.225   6.660  0.1532 -0.0434 -0.3859
  253MOL0     C34059   0.192   4.335   6.684  0.2392  0.0916  0.1923
  253MOL0     C34060   0.047   4.318   6.637 -0.2727  0.2358 -0.2530
  253MOL0     C34061  -0.035   4.458   6.641 -0.4951  0.0280  1.3787
  253MOL0     C34062  -0.172   4.448   6.578  0.8461 -0.1295 -0.8477
  253MOL0     C34063  -0.259   4.565   6.617  0.0144  0.3843 -0.2446
  253MOL0    Cl34064  -0.272   4.591   6.796  0.4926 -0.1726 -0.1649
  253MOL0     C34065   0.577   4.154   6.929  0.5768  0.0408  0.5969
  253MOL0     C34066   0.686   4.092   6.980 -0.0708  0.5761  0.3502
  253MOL0     O34067   0.782   3.777   7.241  0.0322 -0.4992  0.9925
  253MOL0     C34068   1.012   3.733   6.986 -0.2876  0.5794 -0.2660
  253MOL0     C34069   1.120   3.658   6.956  0.1303 -0.0032 -0.0437
  253MOL0     N34070   1.183   3.318   7.484 -0.5870 -0.1882 -0.2272
  253MOL0     N34071   1.128   3.406   7.559 -0.0815  0.1625  0.5898
  253MOL0     C34072   0.639   4.283   7.331  0.0489  0.2895 -0.4700
  253MOL0     C34073   0.535   4.355   7.269  1.2688  0.0637 -0.8569
  253MOL0     C34074   0.267   4.651   7.175 -0.4694 -1.0576 -0.4943
  253MOL0     C34075   0.209   4.636   7.045 -0.5087  1.8575 -0.5813
  253MOL0     C34076   0.077   4.666   7.029  0.4800  0.4515  0.1906
  253MOL0     C34077  -0.013   4.695   7.131 -0.3227 -1.8963  0.0491
  253MOL0     O34078  -0.149   4.704   7.105 -0.5962  0.1413  0.2025
  253MOL0     C34079  -0.250   4.755   7.197  0.4880  1.0164  0.3378
  253MOL0     C34080  -0.384   4.743   7.118 -0.4078 -0.1131 -0.4692
  253MOL0     C34081  -0.467   4.870   7.142 -0.3275  0.1040  0.2270
  253MOL0     C34082  -0.591   4.881   7.051 -0.2732  0.4882  0.7645
  253MOL0     C34083  -0.558   4.862   6.908  0.7102 -0.3762  0.8881
  253MOL0     C34084  -0.514   4.841   6.792 -0.2804 -0.6521  0.0280
  253MOL0     C34085   0.040   4.709   7.259  0.3551 -0.1856 -0.0270
  253MOL0     C34086   0.183   4.690   7.278  0.7214 -0.3544  0.3077
  253MOL0     C34087   0.249   4.698   7.422  0.7265  0.0182  0.0065
  253MOL0     H34088   0.710   4.580   7.091 -0.5441  1.4784  2.0914
  253MOL0     H34089   0.889   4.459   7.174 -1.7296  1.5319  0.1135
  253MOL0     H34090   0.806   4.155   7.508 -0.8383  0.8072 -0.4841
  253MOL0     H34091   0.836   4.091   7.341  0.6734  2.7732 -1.3315
  253MOL0     H34092   0.983   4.027   7.557  0.0348 -0.5797 -0.8924
  253MOL0     H34093   1.062   4.172   7.539 -0.6299  0.3897  0.6566
  253MOL0     H34094   1.075   4.103   7.289  0.0871  1.0683  0.9715
  253MOL0     H34095   1.056   3.932   7.337  1.3431  0.6927 -2.1183
  253MOL0     H34096   1.292   3.954   7.321  4.3718 -0.4496  3.0720
  253MOL0     H34097   1.275   4.113   7.409 -4.0978  1.2689  0.4107
  253MOL0     H34098   1.366   3.930   7.554  0.6489  1.6256 -2.3624
  253MOL0     H34099   1.204   3.998   7.601  0.5708  1.1251 -1.1192
  253MOL0     H34100   1.092   3.806   7.523  0.1092 -1.4878  2.1726
  253MOL0     H34101   1.240   3.731   7.465 -2.2789 -0.6513 -1.1720
  253MOL0     H34102   1.185   3.803   7.750 -0.6699 -0.4913  0.4310
  253MOL0     H34103   1.346   3.744   7.693 -0.5152  0.2181  0.8674
  253MOL0     H34104   1.214   3.572   7.809 -0.7638  0.5017  0.0259
  253MOL0     H34105   1.075   3.614   7.700  0.5282  0.0892 -6.4129
  253MOL0     H34106   1.434   3.515   7.574  1.0092  0.5119 -2.4228
  253MOL0     H34107   1.507   3.268   7.428 -0.5409  0.9840  2.4436
  253MOL0     H34108   1.372   3.198   7.346  2.6648 -0.6254  2.7727
  253MOL0     H34109   1.434   3.480   7.249  3.2578  0.0075 -0.9329
  253MOL0     H34110   1.526   3.346   7.183  0.1682 -1.3491  0.8914
  253MOL0     H34111   1.222   3.340   7.194 -0.6260 -1.2621  0.1959
  253MOL0     H34112   1.322   3.214   7.129  0.7672 -0.3608  1.1651
  253MOL0     H34113   1.261   3.363   6.933  1.6897 -1.0878 -0.9482
  253MOL0     H34114   1.426   3.388   6.967 -0.0899 -2.1321 -0.7534
  253MOL0     H34115   1.216   3.572   7.272 -3.6147 -0.1891  3.0956
  253MOL0     H34116   1.017   3.684   7.325  0.9530  0.7556  0.7677
  253MOL0     H34117   0.577   3.837   7.153 -0.3177  0.0190 -1.1030
  253MOL0     H34118   0.347   3.937   7.064 -2.4999  2.7023 -3.0216
  253MOL0     H34119   0.214   4.010   6.928  2.5741 -0.2693  0.1313
  253MOL0     H34120   0.140   4.171   6.901 -1.5991 -2.8897 -0.0823
  253MOL0     H34121   0.322   4.017   6.703 -1.0667 -0.1517 -2.4963
  253MOL0     H34122   0.159   4.053   6.685  0.7757  1.5573 -4.0607
  253MOL0     H34123   0.398   4.252   6.693 -0.8337  0.2426  2.8105
  253MOL0     H34124   0.287   4.209   6.552 -0.0241 -2.2735 -0.0978
  253MOL0     H34125   0.235   4.414   6.621 -1.8021 -0.2527 -1.7914
  253MOL0     H34126   0.200   4.380   6.783  1.6041 -1.4501  0.8215
  253MOL0     H34127  -0.009   4.248   6.700 -0.9830  1.9548  1.1453
  253MOL0     H34128   0.047   4.274   6.537 -0.6770 -0.3990  0.0169
  253MOL0     H34129  -0.047   4.495   6.744  2.6975  1.1281  1.4582
  253MOL0     H34130   0.026   4.535   6.594  0.3447 -2.3816 -1.8106
  253MOL0     H34131  -0.230   4.361   6.610  0.9293 -0.5237 -1.7305
  253MOL0     H34132  -0.172   4.449   6.468 -3.8768  3.2102 -1.1305
  253MOL0     H34133  -0.211   4.657   6.582  0.1068  1.2085  1.9156
  253MOL0     H34134  -0.356   4.555   6.567  0.2454 -2.2797 -0.2988
  253MOL0     H34135   0.574   4.255   6.887 -0.1545 -0.3383 -0.3119
  253MOL0     H34136   0.782   4.140   6.960 -0.2451  0.2995 -1.2774
  253MOL0     H34137   0.976   3.792   6.903  2.0361  1.9331 -0.4180
  253MOL0     H34138   1.151   3.662   6.852  0.5242  3.3937  0.1033
  253MOL0     H34139   0.612   4.194   7.387  0.9433  0.7863  0.7986
  253MOL0     H34140   0.434   4.323   7.291  1.5232  1.4335  3.1802
  253MOL0     H34141   0.272   4.614   6.960  0.9257  5.6059 -0.6475
  253MOL0     H34142   0.021   4.668   6.935 -1.7758 -1.3858  1.3860
  253MOL0     H34143  -0.219   4.849   7.244 -1.6406  0.2506  3.6987
  253MOL0     H34144  -0.251   4.673   7.270 -0.7180  2.1212  1.6173
  253MOL0     H34145  -0.443   4.661   7.161  1.1291 -1.1128 -0.1800
  253MOL0     H34146  -0.374   4.702   7.017 -1.0335 -1.1117 -0.1457
  253MOL0     H34147  -0.404   4.958   7.132  0.1151 -0.1075  1.0424
  253MOL0     H34148  -0.499   4.875   7.247  1.0288 -0.9031  0.7203
  253MOL0     H34149  -0.677   4.822   7.085  0.4746  0.5923  2.9357
  253MOL0     H34150  -0.626   4.984   7.062  2.3375  1.5013  0.2713
  253MOL0     H34151  -0.462   4.835   6.699 -0.1111  1.6089 -0.0912
  253MOL0     H34152  -0.026   4.735   7.342 -1.6179 -0.9229 -1.3000
  253MOL0     H34153   0.315   4.613   7.442  1.0858  0.7675  2.3407
  253MOL0     H34154   0.307   4.791   7.417 -0.1105  0.5036 -0.7798
  253MOL0     H34155   0.170   4.695   7.498 -0.7987  0.3031 -1.5078
  254MOL0     O34156  11.538  10.264   5.671  0.5790 -0.0496  0.0485
  254MOL0     C34157  11.432  10.290   5.620 -0.8008  0.4042  1.1427
  254MOL0     O34158  11.316  10.228   5.659  0.0880  0.2119 -0.5898
  254MOL0     C34159  11.311  10.107   5.730 -0.4924  0.8937  0.4852
  254MOL0     C34160  11.225  10.100   5.837  0.0883  0.2166  1.1849
  254MOL0     C34161  11.220   9.985   5.910 -0.3699  0.6559 -0.1668
  254MOL0     C34162  11.302   9.866   5.888  0.2583  0.0260 -0.1891
  254MOL0     O34163  11.300   9.751   5.966  0.3596  0.1357 -0.4301
  254MOL0     C34164  11.185   9.742   6.065 -0.7833  1.0534 -0.0535
  254MOL0     C34165  11.059   9.713   5.974  0.1153 -0.4043  0.1600
  254MOL0     C34166  10.921   9.727   6.044 -0.2795  0.6839 -0.3527
  254MOL0     C34167  10.893   9.611   6.145  0.3831  0.3401  0.4319
  254MOL0     C34168  10.757   9.634   6.228  0.1444 -0.7868  0.8626
  254MOL0     C34169  10.786   9.737   6.336 -0.1069 -0.2583  0.6554
  254MOL0     C34170  10.682   9.721   6.444 -0.3383 -0.5750 -0.4251
  254MOL0     C34171  10.540   9.727   6.393 -0.3040 -0.2023  0.0386
  254MOL0     N34172  10.443   9.712   6.509  0.3074  0.4874  0.4372
  254MOL0     C34173  10.388   9.818   6.562  0.4516  0.6280 -0.0691
  254MOL0     C34174  10.307   9.770   6.664 -0.6477  0.2245  0.2752
  254MOL0     C34175  10.222   9.849   6.758 -0.6633  1.1959 -0.8793
  254MOL0     C34176  10.167   9.974   6.690  0.2474  0.0544 -0.1062
  254MOL0     C34177  10.084  10.062   6.781 -0.4740  0.7191 -0.4378
  254MOL0     C34178  10.043  10.196   6.735 -0.3390  0.1251 -0.6411
  254MOL0     O34179  10.118  10.286   6.667 -0.4447 -0.9736 -1.0128
  254MOL0     C34180  10.179  10.394   6.723 -0.1138 -0.4593  0.5727
  254MOL0     C34181  10.187  10.402   6.860  0.8717 -0.8190  1.2850
  254MOL0     C34182  10.252  10.507   6.922 -1.0533  0.5781 -0.3085
  254MOL0     C34183  10.310  10.606   6.838 -0.7834  0.1562  0.8904
  254MOL0     C34184  10.388  10.721   6.899 -0.9040 -0.0108  0.1739
  254MOL0     O34185  10.408  10.835   6.818 -0.1764 -0.0564 -0.2623
  254MOL0     C34186  10.457  10.945   6.877  0.4864  0.8620 -0.1479
  254MOL0     C34187  10.564  10.958   6.965 -0.1387  0.3478  0.5397
  254MOL0     C34188  10.618  11.079   7.007  0.4345  0.2653  0.3493
  254MOL0     C34189  10.561  11.197   6.949 -0.6524 -0.7811  1.2986
  254MOL0     O34190  10.593  11.324   6.975 -0.5098 -0.4015  0.3493
  254MOL0     C34191  10.703  11.330   7.070  0.7049  0.1989 -0.0283
  254MOL0     C34192  10.700  11.483   7.077  0.0386 -1.3028  0.2162
  254MOL0     C34193  10.763  11.556   6.959  0.1547 -0.1176 -0.4477
  254MOL0     C34194  10.744  11.708   6.984  0.2300  0.3496 -0.2357
  254MOL0     C34195  10.764  11.796   6.865  0.0618 -0.1664  0.1108
  254MOL0     C34196  10.708  11.936   6.894 -1.1043  0.5850 -0.6470
  254MOL0     C34197  10.566  11.956   6.869  0.2864  0.1149 -0.2792
  254MOL0     C34198  10.529  12.103   6.891 -0.1857 -0.3456 -0.5398
  254MOL0    Cl34199  10.381  12.128   6.983  0.0724  0.0226 -0.2642
  254MOL0     C34200  10.460  11.184   6.853  0.2220  0.5468 -0.3089
  254MOL0     C34201  10.403  11.058   6.825 -0.5804 -0.0257  0.1511
  254MOL0     O34202  10.405  10.710   7.015  0.0925  0.1339 -1.1663
  254MOL0     C34203  10.295  10.596   6.696  0.7331 -0.2922  0.0329
  254MOL0     C34204  10.231  10.490   6.640 -0.1653 -0.8570 -0.3118
  254MOL0     N34205  10.318   9.632   6.663  1.2299 -0.1118  0.2614
  254MOL0     N34206  10.393   9.601   6.566  0.1706  0.5403  0.9811
  254MOL0     C34207  11.377   9.871   5.766  0.3763 -0.3169 -0.1729
  254MOL0     C34208  11.377   9.987   5.690  0.5264 -0.0969  0.0367
  254MOL0     C34209  11.434  10.396   5.524  0.2050  0.0353  0.0582
  254MOL0     C34210  11.302  10.438   5.478  0.9040 -0.1518  0.3637
  254MOL0     C34211  11.282  10.535   5.380 -0.1341  0.0797  0.2252
  254MOL0     C34212  11.403  10.589   5.314 -0.0946  1.0018  0.0892
  254MOL0     O34213  11.382  10.685   5.227 -0.2129  0.6560  0.4879
  254MOL0     C34214  11.502  10.760   5.182 -0.0633  1.4047  0.0386
  254MOL0     C34215  11.459  10.903   5.131  0.1104  0.1877  0.1518
  254MOL0     C34216  11.342  10.909   5.032 -0.4018  0.6707 -0.2664
  254MOL0     C34217  11.354  10.809   4.916 -0.7017  0.1819  0.5770
  254MOL0     C34218  11.483  10.820   4.844  0.7002 -0.1178  0.7730
  254MOL0     C34219  11.586  10.813   4.783 -0.8625  0.1804 -0.2644
  254MOL0     C34220  11.531  10.527   5.346 -0.9375 -0.8266 -0.8933
  254MOL0     C34221  11.552  10.440   5.460 -0.2995  0.1902 -0.4849
  254MOL0     C34222  11.697  10.395   5.481 -0.3015  0.3380 -0.2944
  254MOL0     H34223  11.178  10.189   5.879  3.9425  1.9109  2.3050
  254MOL0     H34224  11.162   9.990   6.001  0.1192  2.0140  0.0950
  254MOL0     H34225  11.189   9.651   6.125  0.9817  1.6246  0.7587
  254MOL0     H34226  11.179   9.825   6.137 -0.3098 -0.2399  1.5411
  254MOL0     H34227  11.059   9.614   5.929 -0.9176 -0.3179 -0.0604
  254MOL0     H34228  11.066   9.788   5.895  4.8309 -0.4188  0.3031
  254MOL0     H34229  10.844   9.728   5.966  0.8558  2.9329 -1.5488
  254MOL0     H34230  10.924   9.822   6.098  0.2683  0.4862 -0.0303
  254MOL0     H34231  10.899   9.514   6.096 -0.9286  1.1077 -1.3677
  254MOL0     H34232  10.969   9.610   6.224 -0.5188 -3.0488  1.3970
  254MOL0     H34233  10.682   9.680   6.163  2.9940 -0.1454 -2.2736
  254MOL0     H34234  10.716   9.541   6.268  0.0255  0.3335  3.4975
  254MOL0     H34235  10.884   9.731   6.385 -0.0092  0.9751  0.6388
  254MOL0     H34236  10.787   9.833   6.285  1.2126 -0.5701  0.0379
  254MOL0     H34237  10.688   9.797   6.522 -1.6436 -1.9070  1.0564
  254MOL0     H34238  10.701   9.625   6.494  1.7703  1.2295  2.5883
  254MOL0     H34239  10.516   9.822   6.345 -0.2827 -0.5172 -0.6076
  254MOL0     H34240  10.511   9.640   6.333  1.2703 -0.9342  0.2997
  254MOL0     H34241  10.392   9.920   6.525  0.7942  1.3589  1.8873
  254MOL0     H34242  10.142   9.787   6.798  0.5071  1.7125  2.5560
  254MOL0     H34243  10.295   9.883   6.832 -2.1735 -1.3376  1.9735
  254MOL0     H34244  10.243  10.032   6.638 -0.5271  0.0701 -1.2572
  254MOL0     H34245  10.099   9.935   6.614 -0.5515  1.5920 -0.2175
  254MOL0     H34246  10.140  10.090   6.871 -0.9112 -1.3063  0.5118
  254MOL0     H34247   9.993  10.005   6.800  0.0736  0.0616  0.3035
  254MOL0     H34248   9.991  10.249   6.816  1.5373  1.1241 -0.0409
  254MOL0     H34249   9.963  10.180   6.662 -5.0828  1.4705  3.6180
  254MOL0     H34250  10.152  10.326   6.929 -0.2108 -0.7244  0.8526
  254MOL0     H34251  10.244  10.521   7.029 -0.0637 -0.6684 -0.0568
  254MOL0     H34252  10.619  10.869   6.997  0.1310  0.1064 -0.5670
  254MOL0     H34253  10.709  11.087   7.066  1.3001  0.4537 -0.9740
  254MOL0     H34254  10.679  11.304   7.173  1.2610  1.4575  0.4347
  254MOL0     H34255  10.791  11.276   7.033  2.0431  2.6782 -0.6562
  254MOL0     H34256  10.595  11.507   7.093 -0.5530 -3.6490  0.2637
  254MOL0     H34257  10.752  11.507   7.170  0.9125 -0.9064 -0.3595
  254MOL0     H34258  10.865  11.517   6.963 -0.2494 -1.1536  0.0719
  254MOL0     H34259  10.706  11.533   6.869 -1.1850 -0.2962  0.4198
  254MOL0     H34260  10.814  11.739   7.062  0.2685  1.6540 -0.7616
  254MOL0     H34261  10.648  11.713   7.036 -0.0757 -1.8848 -0.4473
  254MOL0     H34262  10.706  11.757   6.781 -0.0971 -1.3492  0.7406
  254MOL0     H34263  10.870  11.802   6.841 -0.1573  2.5414 -0.4254
  254MOL0     H34264  10.715  11.966   6.999  1.6274 -0.2143 -0.5343
  254MOL0     H34265  10.769  11.998   6.829 -0.3621  1.4502  0.8329
  254MOL0     H34266  10.512  11.897   6.943 -2.0977  0.8807 -1.3305
  254MOL0     H34267  10.527  11.925   6.772 -0.5087 -0.2145  0.1378
  254MOL0     H34268  10.611  12.150   6.947 -0.3819 -2.3157  1.5612
  254MOL0     H34269  10.512  12.154   6.796  0.0078  0.5711 -0.0904
  254MOL0     H34270  10.418  11.272   6.805 -0.3544 -0.1813 -1.1671
  254MOL0     H34271  10.324  11.049   6.751  1.8314 -1.8068 -2.4433
  254MOL0     H34272  10.338  10.679   6.640  3.3782 -1.2197  0.5161
  254MOL0     H34273  10.211  10.489   6.533 -1.5837 -0.8004 -0.0552
  254MOL0     H34274  11.444   9.787   5.748 -1.1284 -0.9168 -4.0789
  254MOL0     H34275  11.442   9.993   5.603  2.4874 -1.0588  1.3550
  254MOL0     H34276  11.211  10.394   5.519  2.0993 -2.8791  0.3340
  254MOL0     H34277  11.180  10.565   5.357 -0.1021 -1.0441 -1.5158
  254MOL0     H34278  11.541  10.703   5.097  1.5548  1.9395  0.3972
  254MOL0     H34279  11.585  10.772   5.252  1.1449  2.4480 -1.4961
  254MOL0     H34280  11.539  10.956   5.079  0.6095  1.1362  1.8332
  254MOL0     H34281  11.412  10.953   5.216 -0.0218 -1.8532  1.3637
  254MOL0     H34282  11.325  11.006   4.984  0.6359  1.4990  0.9760
  254MOL0     H34283  11.253  10.890   5.092  0.0601  1.9396  0.8776
  254MOL0     H34284  11.344  10.705   4.949 -0.9035  0.2951  0.8789
  254MOL0     H34285  11.280  10.831   4.839  0.6825  2.8959 -0.1053
  254MOL0     H34286  11.682  10.790   4.743 -1.7104 -2.4168 -1.0236
  254MOL0     H34287  11.626  10.553   5.301 -0.3663 -0.7645  0.2964
  254MOL0     H34288  11.773  10.430   5.411  1.1107 -0.1458  0.9442
  254MOL0     H34289  11.720  10.442   5.577 -0.1041  0.0394 -0.1936
  254MOL0     H34290  11.716  10.288   5.468  1.1008  0.6829 -1.4380
  255MOL0     O34291   8.116  11.480   1.817  0.7034  0.3287 -0.9929
  255MOL0     C34292   8.154  11.403   1.730 -0.2737 -0.8282  0.0555
  255MOL0     O34293   8.257  11.315   1.749  0.2669 -0.0485  0.9532
  255MOL0     C34294   8.305  11.307   1.872 -0.4061  0.4851  0.6435
  255MOL0     C34295   8.433  11.351   1.888  1.1112  0.7440 -0.0548
  255MOL0     C34296   8.488  11.357   2.012  0.4788  0.1575  1.1076
  255MOL0     C34297   8.424  11.323   2.129  0.2659 -1.3204 -0.1136
  255MOL0     O34298   8.482  11.330   2.259  0.2950  0.7707  1.0139
  255MOL0     C34299   8.407  11.321   2.381 -0.9573  0.2156  0.3816
  255MOL0     C34300   8.428  11.191   2.456  0.6974 -0.3254 -0.3895
  255MOL0     C34301   8.549  11.180   2.539 -0.0811 -0.4343  0.6099
  255MOL0     C34302   8.537  11.068   2.645 -0.1815 -0.1315 -0.1782
  255MOL0     C34303   8.662  11.077   2.733  0.0919  0.6107 -0.1296
  255MOL0     C34304   8.654  10.971   2.850 -0.7115  0.1521 -0.1879
  255MOL0     C34305   8.684  10.832   2.807 -0.4600  0.2308  0.8732
  255MOL0     C34306   8.691  10.726   2.925  0.9744 -0.4862 -0.1707
  255MOL0     N34307   8.778  10.609   2.894  0.1046  0.7180 -0.0719
  255MOL0     C34308   8.912  10.600   2.927  0.6344  0.5094  0.1745
  255MOL0     C34309   8.956  10.515   2.826 -0.3368  1.2629  0.0291
  255MOL0     C34310   9.093  10.457   2.819  0.5497 -0.1181  0.0767
  255MOL0     C34311   9.140  10.440   2.672  0.8027  0.1927 -0.5486
  255MOL0     C34312   9.284  10.393   2.646 -0.8048 -1.3462 -1.2535
  255MOL0     C34313   9.320  10.376   2.495 -0.1766  0.4585 -0.4083
  255MOL0     O34314   9.449  10.314   2.495 -0.9467  0.5783  0.0368
  255MOL0     C34315   9.518  10.325   2.372 -0.6839  0.5098 -0.4352
  255MOL0     C34316   9.644  10.370   2.357 -0.3653 -0.9076  0.5452
  255MOL0     C34317   9.711  10.390   2.240  0.3156 -0.2457 -0.3680
  255MOL0     C34318   9.653  10.356   2.119 -1.6827 -0.5941 -0.1664
  255MOL0     C34319   9.724  10.370   1.990 -0.1756  0.9828  0.5720
  255MOL0     O34320   9.837  10.450   1.986  1.2445  0.3491  0.1658
  255MOL0     C34321   9.920  10.440   1.876  0.4574  0.0700 -1.3300
  255MOL0     C34322   9.971  10.559   1.826 -0.4786 -0.2597  0.8141
  255MOL0     C34323  10.065  10.558   1.713 -0.1995  0.1013 -1.7293
  255MOL0     C34324  10.099  10.433   1.649  0.3043 -0.0973  0.4044
  255MOL0     O34325  10.186  10.413   1.556  0.1507 -0.5251 -0.2004
  255MOL0     C34326  10.278  10.525   1.519 -0.1974  0.3150 -0.1743
  255MOL0     C34327  10.211  10.615   1.411  0.2509  0.0895 -0.2980
  255MOL0     C34328  10.160  10.520   1.299 -0.7010 -0.5102 -0.1685
  255MOL0     C34329  10.116  10.606   1.171 -1.0076  0.0475  0.2037
  255MOL0     C34330  10.073  10.525   1.042  0.0427 -0.0616 -1.2101
  255MOL0     C34331  10.199  10.455   0.974 -0.2366 -0.3531  0.9063
  255MOL0     C34332  10.159  10.320   0.924 -0.9275 -0.4354 -1.2728
  255MOL0     C34333  10.269  10.227   0.888 -0.0586  0.0727 -0.0199
  255MOL0    Cl34334  10.207  10.077   0.809  0.4728  0.0347  0.1080
  255MOL0     C34335  10.042  10.314   1.706 -0.1886 -0.6164  0.4527
  255MOL0     C34336   9.966  10.316   1.824  0.6809 -1.0830 -0.7178
  255MOL0     O34337   9.697  10.282   1.910 -0.0950  0.2995 -0.1845
  255MOL0     C34338   9.525  10.297   2.129 -0.2985 -0.2846 -0.4749
  255MOL0     C34339   9.460  10.293   2.254  0.5397 -1.0532 -0.3297
  255MOL0     N34340   8.855  10.463   2.744  0.1079 -0.5952 -0.2892
  255MOL0     N34341   8.748  10.519   2.796  0.1738 -0.7089 -0.6436
  255MOL0     C34342   8.298  11.262   2.112 -0.0486  0.2516 -0.2247
  255MOL0     C34343   8.237  11.254   1.982 -1.0540  0.3000 -0.8975
  255MOL0     C34344   8.076  11.383   1.606 -0.6630 -0.7244  0.4807
  255MOL0     C34345   8.048  11.252   1.561  0.4400 -0.1733 -0.1939
  255MOL0     C34346   7.983  11.226   1.441 -0.8777  0.3354 -0.0874
  255MOL0     C34347   7.938  11.330   1.364 -0.5083 -0.1943 -0.1952
  255MOL0     O34348   7.871  11.285   1.256  0.5035  0.4440 -0.7476
  255MOL0     C34349   7.768  11.369   1.210 -0.2064 -0.2374  0.9592
  255MOL0     C34350   7.672  11.439   1.303  0.4622  0.2318 -0.1390
  255MOL0     C34351   7.524  11.418   1.267  0.5293  1.5884 -0.0060
  255MOL0     C34352   7.425  11.461   1.380  0.8959 -0.1731 -0.3332
  255MOL0     C34353   7.395  11.344   1.465  0.0526  1.0806 -0.0406
  255MOL0     C34354   7.369  11.233   1.515 -0.3352 -0.5323  0.3601
  255MOL0     C34355   7.958  11.467   1.403 -0.8704  0.1602 -0.2380
  255MOL0     C34356   8.030  11.492   1.524  0.1396  0.1913 -0.2762
  255MOL0     C34357   8.059  11.636   1.558  0.0952  0.0060  0.1203
  255MOL0     H34358   8.499  11.384   1.808 -1.1086  0.9335 -1.8896
  255MOL0     H34359   8.594  11.382   2.015  0.5784 -0.0120 -0.3790
  255MOL0     H34360   8.431  11.404   2.448 -1.0216  0.1901  0.4373
  255MOL0     H34361   8.300  11.322   2.359 -0.7269 -1.4359 -1.0110
  255MOL0     H34362   8.420  11.103   2.391 -1.4356 -0.6283  0.2039
  255MOL0     H34363   8.345  11.189   2.527  0.2785  2.1380 -0.7043
  255MOL0     H34364   8.562  11.277   2.588  0.6468 -0.8943  1.3478
  255MOL0     H34365   8.632  11.168   2.470 -1.7013 -0.3080 -1.4595
  255MOL0     H34366   8.458  11.101   2.712  2.1732  5.7349  0.2894
  255MOL0     H34367   8.524  10.971   2.594 -0.8563  1.4371 -3.2354
  255MOL0     H34368   8.742  11.043   2.666  0.7498  0.1270  0.8716
  255MOL0     H34369   8.685  11.176   2.774  1.8087 -0.1419  0.8560
  255MOL0     H34370   8.726  10.997   2.928  1.0293 -2.0064 -0.9803
  255MOL0     H34371   8.556  10.963   2.897 -0.3053 -2.5830  0.3796
  255MOL0     H34372   8.786  10.829   2.768 -1.1782 -2.5705 -1.0934
  255MOL0     H34373   8.626  10.806   2.718  0.9525  1.3274 -0.4145
  255MOL0     H34374   8.712  10.780   3.018 -4.3804 -0.0460  1.1137
  255MOL0     H34375   8.591  10.690   2.950 -0.7804  3.2116 -1.1586
  255MOL0     H34376   8.965  10.645   3.011 -0.9030 -1.7952  2.5431
  255MOL0     H34377   9.160  10.524   2.874  1.5385  0.0212 -1.2493
  255MOL0     H34378   9.098  10.362   2.873  1.2536 -0.7074 -0.9956
  255MOL0     H34379   9.075  10.361   2.634  1.1461 -0.2223 -0.2778
  255MOL0     H34380   9.124  10.539   2.627  1.1097  0.1483 -0.7603
  255MOL0     H34381   9.308  10.303   2.704  1.6809  0.4472  0.7722
  255MOL0     H34382   9.356  10.464   2.688 -0.8034 -1.9507 -0.1711
  255MOL0     H34383   9.314  10.472   2.443  0.6615  0.5206 -0.4146
  255MOL0     H34384   9.241  10.310   2.458 -1.9740  1.1627  1.9357
  255MOL0     H34385   9.695  10.392   2.450 -0.6761 -0.4080  0.5977
  255MOL0     H34386   9.812  10.429   2.237  0.5264 -0.6760  0.6819
  255MOL0     H34387   9.951  10.657   1.868  3.0396  0.6278  0.7405
  255MOL0     H34388  10.115  10.649   1.680  0.4771  0.7133  0.7682
  255MOL0     H34389  10.305  10.591   1.601 -0.6408  1.5712 -1.0127
  255MOL0     H34390  10.368  10.482   1.475  0.3899  1.3417  0.0085
  255MOL0     H34391  10.125  10.659   1.462  0.4499  0.9650 -0.6950
  255MOL0     H34392  10.274  10.693   1.367 -1.5707  0.7785 -1.8245
  255MOL0     H34393  10.230  10.443   1.268 -0.9281 -1.2546  1.0820
  255MOL0     H34394  10.068  10.473   1.336 -1.9306  1.3076 -0.7665
  255MOL0     H34395  10.184  10.689   1.150 -2.5540  1.7098  1.3824
  255MOL0     H34396  10.022  10.650   1.208 -1.4272 -2.9004  3.0642
  255MOL0     H34397  10.023  10.584   0.964  0.9675  2.1205 -0.2309
  255MOL0     H34398  10.002  10.447   1.069  1.0069 -0.7937 -0.7224
  255MOL0     H34399  10.243  10.527   0.903  0.1790 -1.6825 -0.2257
  255MOL0     H34400  10.271  10.431   1.052 -0.0598  0.3547  0.9666
  255MOL0     H34401  10.098  10.325   0.833 -0.8079 -0.2251 -1.3422
  255MOL0     H34402  10.091  10.280   1.000 -0.8208 -0.0597 -0.9758
  255MOL0     H34403  10.331  10.291   0.825 -0.2839  1.2918  0.9592
  255MOL0     H34404  10.324  10.197   0.977 -1.1018  0.9895  0.9741
  255MOL0     H34405  10.080  10.226   1.656  0.2145  0.3176 -0.9258
  255MOL0     H34406   9.920  10.230   1.873 -2.1325  1.1336  0.8777
  255MOL0     H34407   9.471  10.248   2.047 -3.6684  2.0475  0.1244
  255MOL0     H34408   9.359  10.253   2.251  0.1286 -0.0267 -2.3531
  255MOL0     H34409   8.238  11.220   2.193 -0.7556 -0.8034 -1.2560
  255MOL0     H34410   8.136  11.216   1.969 -2.2077  3.5159 -2.3017
  255MOL0     H34411   8.092  11.167   1.613 -0.7292 -1.0577 -0.6187
  255MOL0     H34412   7.960  11.122   1.419  0.7696 -0.5026  1.8203
  255MOL0     H34413   7.711  11.311   1.138  2.6668 -2.7628  0.5512
  255MOL0     H34414   7.832  11.437   1.153 -0.8505  1.0060  1.6738
  255MOL0     H34415   7.693  11.545   1.285  1.6203 -0.3157 -2.2890
  255MOL0     H34416   7.686  11.393   1.401  2.6600 -3.4411 -1.9647
  255MOL0     H34417   7.495  11.313   1.251 -2.8113  2.2523  0.9031
  255MOL0     H34418   7.509  11.476   1.176  1.2268  1.0593 -0.4718
  255MOL0     H34419   7.460  11.538   1.450 -0.2989 -1.2774  1.5867
  255MOL0     H34420   7.338  11.505   1.331  1.6293  0.8689 -0.7308
  255MOL0     H34421   7.377  11.134   1.556  3.4113 -0.6619 -0.3375
  255MOL0     H34422   7.922  11.535   1.327  0.6174 -0.6314 -1.7197
  255MOL0     H34423   8.045  11.694   1.467 -0.4585  0.4152  0.4602
  255MOL0     H34424   7.994  11.679   1.635  0.8155  2.0508 -0.3416
  255MOL0     H34425   8.164  11.648   1.589 -0.0075  0.4158  0.3198
  256MOL0     O34426   0.565   1.515  11.064 -0.7043  0.8564 -0.2033
  256MOL0     C34427   0.495   1.608  11.107  1.2017 -0.6882  0.5610
  256MOL0     O34428   0.363   1.592  11.126 -0.8849 -0.9864 -0.2174
  256MOL0     C34429   0.312   1.463  11.126  0.3497 -0.4517 -0.1624
  256MOL0     C34430   0.209   1.429  11.034  0.2889  0.3981  0.2454
  256MOL0     C34431   0.148   1.310  11.055 -0.4797  0.8180  0.7240
  256MOL0     C34432   0.189   1.215  11.148  0.7450  0.3707 -0.4640
  256MOL0     O34433   0.122   1.090  11.140 -0.5893 -1.2030  0.3075
  256MOL0     C34434   0.163   0.977  11.221 -0.4227  0.0424 -0.0656
  256MOL0     C34435   0.060   0.868  11.225 -0.1418  0.0709  0.0259
  256MOL0     C34436   0.026   0.798  11.095  0.5804 -0.3502  0.1889
  256MOL0     C34437   0.150   0.734  11.035 -1.7929 -0.5950 -0.0857
  256MOL0     C34438   0.204   0.775  10.894  0.1087  0.1225  0.4979
  256MOL0     C34439   0.299   0.896  10.889  1.1726 -0.5038  0.4871
  256MOL0     C34440   0.427   0.862  10.947  0.8065  0.5625  0.0524
  256MOL0     C34441   0.513   0.978  10.967 -0.7821  0.9244 -0.0720
  256MOL0     N34442   0.549   1.050  10.852 -0.2165  0.4593  0.1661
  256MOL0     C34443   0.595   1.177  10.861 -0.1654 -1.3233 -0.9647
  256MOL0     C34444   0.637   1.212  10.741  1.0070 -0.5301  0.1475
  256MOL0     C34445   0.728   1.321  10.697  0.7126 -0.3344  0.4776
  256MOL0     C34446   0.879   1.302  10.700 -1.3609  0.2197  0.0612
  256MOL0     C34447   0.913   1.196  10.596 -0.2722 -0.8000  0.2429
  256MOL0     C34448   1.042   1.124  10.636 -0.5433 -0.1669  0.3318
  256MOL0     O34449   1.141   1.231  10.636 -0.1012 -0.1422  0.2107
  256MOL0     C34450   1.229   1.251  10.525 -0.0141 -0.9885 -0.0772
  256MOL0     C34451   1.354   1.303  10.544  0.0834 -0.3328  0.2637
  256MOL0     C34452   1.447   1.303  10.434  0.5883 -0.6446  0.2433
  256MOL0     C34453   1.407   1.268  10.297  0.4406 -0.8577 -0.0490
  256MOL0     C34454   1.498   1.281  10.176  0.3650 -0.1233 -0.1557
  256MOL0     O34455   1.598   1.381  10.180 -0.4889 -0.0075  0.0473
  256MOL0     C34456   1.673   1.413  10.074  0.5425 -0.9471  0.0098
  256MOL0     C34457   1.731   1.541  10.087  0.9199 -0.5471 -0.3471
  256MOL0     C34458   1.808   1.591   9.982  0.7380  0.6822 -0.2458
  256MOL0     C34459   1.814   1.526   9.858  0.2905 -0.2279 -0.4308
  256MOL0     O34460   1.875   1.588   9.761 -0.1630  0.3023 -0.4205
  256MOL0     C34461   1.919   1.517   9.642  0.2068 -0.4238  0.4343
  256MOL0     C34462   2.018   1.605   9.563 -0.6267  0.6467  0.1070
  256MOL0     C34463   2.025   1.594   9.410  0.2911 -0.6869  0.6745
  256MOL0     C34464   2.043   1.730   9.335  0.4301  0.4789 -0.6389
  256MOL0     C34465   2.063   1.718   9.194  0.0290  0.6378 -0.5047
  256MOL0     C34466   2.112   1.851   9.127  0.7479  0.4136  0.2451
  256MOL0     C34467   2.104   1.845   8.980 -0.6586  0.7366 -0.4078
  256MOL0     C34468   2.167   1.968   8.920  0.2877 -0.5578  0.3542
  256MOL0    Cl34469   2.136   1.971   8.743 -0.1504 -0.1854  0.3040
  256MOL0     C34470   1.764   1.393   9.854 -0.7041 -0.3233  0.3135
  256MOL0     C34471   1.694   1.332   9.960  0.1948 -0.3373  0.2711
  256MOL0     O34472   1.461   1.217  10.082 -0.4559 -0.7715  0.1682
  256MOL0     C34473   1.275   1.219  10.287  1.0724  0.2690  0.1693
  256MOL0     C34474   1.190   1.201  10.399  0.2892  0.0768 -1.0755
  256MOL0     N34475   0.609   1.102  10.657 -0.2500  0.3637  0.0884
  256MOL0     N34476   0.565   1.006  10.727  0.4131  0.3731 -0.3412
  256MOL0     C34477   0.292   1.246  11.233 -0.3169  0.5832  0.1976
  256MOL0     C34478   0.349   1.372  11.223 -0.5135 -1.1296  0.2332
  256MOL0     C34479   0.545   1.747  11.135 -0.4921  0.2056 -0.4392
  256MOL0     C34480   0.481   1.817  11.241  0.2407 -0.8399 -0.3254
  256MOL0     C34481   0.499   1.955  11.255  0.7267 -0.1359 -0.6103
  256MOL0     C34482   0.596   2.019  11.181 -0.4350  0.4894  1.0211
  256MOL0     O34483   0.623   2.153  11.214  0.2148 -0.1043 -0.7729
  256MOL0     C34484   0.697   2.225  11.112 -0.3551 -1.3849  0.7565
  256MOL0     C34485   0.685   2.374  11.146 -0.1393 -1.2833  0.1559
  256MOL0     C34486   0.773   2.469  11.064  0.1342  0.1825  0.2879
  256MOL0     C34487   0.735   2.615  11.111  0.1218 -0.2565 -0.7986
  256MOL0     C34488   0.850   2.704  11.098 -0.5948  0.1042 -0.9653
  256MOL0     C34489   0.942   2.783  11.078  0.3940 -1.2764 -0.1353
  256MOL0     C34490   0.669   1.948  11.083 -0.0335  0.8111  0.2395
  256MOL0     C34491   0.632   1.818  11.054 -0.5651  0.2385  0.3289
  256MOL0     C34492   0.702   1.761  10.930  0.2735 -0.8878 -0.2476
  256MOL0     H34493   0.172   1.498  10.959  1.1726 -0.7295 -1.2985
  256MOL0     H34494   0.073   1.284  10.981 -1.1149  1.6800  1.0432
  256MOL0     H34495   0.243   0.935  11.159 -0.6271  2.6140 -2.2824
  256MOL0     H34496   0.200   0.999  11.321 -0.6724 -2.1224  0.5533
  256MOL0     H34497  -0.033   0.903  11.270 -0.3418  1.5786 -1.4940
  256MOL0     H34498   0.082   0.795  11.304 -4.3813  0.2361  1.6069
  256MOL0     H34499  -0.019   0.853  11.012 -0.9407 -0.0006  1.2026
  256MOL0     H34500  -0.050   0.723  11.118 -0.5289 -0.1766 -2.5741
  256MOL0     H34501   0.232   0.722  11.106 -1.0351  3.5060 -0.0135
  256MOL0     H34502   0.123   0.629  11.022 -3.5965 -0.6204  2.9018
  256MOL0     H34503   0.250   0.688  10.846 -2.7203  0.6346 -3.6732
  256MOL0     H34504   0.127   0.792  10.818 -0.5413  0.3857  1.2003
  256MOL0     H34505   0.309   0.915  10.782  0.9481  3.2368  0.9951
  256MOL0     H34506   0.250   0.984  10.933  1.9359 -0.1100  0.5792
  256MOL0     H34507   0.473   0.791  10.877  0.8034 -2.9705  3.2999
  256MOL0     H34508   0.424   0.807  11.042 -0.1946 -0.0291 -0.3118
  256MOL0     H34509   0.468   1.052  11.033 -0.8451  1.4562 -0.7038
  256MOL0     H34510   0.605   0.943  11.014 -2.3217 -0.6660  1.9465
  256MOL0     H34511   0.603   1.231  10.955  0.1993  0.2539 -1.8582
  256MOL0     H34512   0.691   1.342  10.596  2.1608 -2.2353 -0.5184
  256MOL0     H34513   0.704   1.419  10.739  2.1473  1.3810 -2.3891
  256MOL0     H34514   0.908   1.398  10.656 -4.5201  0.6329 -1.3921
  256MOL0     H34515   0.917   1.301  10.803 -1.8296  3.1809  0.3654
  256MOL0     H34516   0.912   1.221  10.490  0.6581  2.4052  0.8888
  256MOL0     H34517   0.839   1.115  10.601 -0.2466 -1.0328 -2.1042
  256MOL0     H34518   1.082   1.049  10.567  0.1469 -0.2883  0.8575
  256MOL0     H34519   1.034   1.071  10.731  0.0774 -0.5599  0.1621
  256MOL0     H34520   1.382   1.323  10.647  2.5500  0.2674 -0.4525
  256MOL0     H34521   1.549   1.329  10.459 -0.0478  2.2819  0.1668
  256MOL0     H34522   1.718   1.595  10.180 -1.3185 -2.2030  0.3971
  256MOL0     H34523   1.841   1.695   9.988  0.0119  0.8543  1.2219
  256MOL0     H34524   1.962   1.421   9.672  0.2841  0.0302  1.8146
  256MOL0     H34525   1.829   1.494   9.585  1.4968  0.5934 -2.1999
  256MOL0     H34526   2.004   1.703   9.609  2.0983 -0.5045  3.9346
  256MOL0     H34527   2.116   1.580   9.604 -1.1267  0.0636  0.9838
  256MOL0     H34528   2.107   1.525   9.388  1.6586  1.9534 -3.8496
  256MOL0     H34529   1.931   1.552   9.373  0.2471  1.2718 -1.7157
  256MOL0     H34530   2.132   1.778   9.377 -0.1221  0.3661  0.7119
  256MOL0     H34531   1.950   1.781   9.360  0.2125 -0.9795  1.8610
  256MOL0     H34532   1.967   1.694   9.148 -0.9405 -0.6638  2.0460
  256MOL0     H34533   2.128   1.631   9.182  2.1677  2.3137 -1.8750
  256MOL0     H34534   2.057   1.937   9.165  3.6634  2.8749 -0.6800
  256MOL0     H34535   2.217   1.864   9.157  0.0374 -1.4202  4.2647
  256MOL0     H34536   2.000   1.848   8.947 -0.2615 -0.2930 -1.8698
  256MOL0     H34537   2.152   1.753   8.945 -0.3767  0.9567 -0.5966
  256MOL0     H34538   2.147   2.066   8.965  3.5375 -0.9759  3.1708
  256MOL0     H34539   2.273   1.952   8.941  0.5072  0.7254  0.2907
  256MOL0     H34540   1.783   1.325   9.772  1.9340  0.0198  0.5589
  256MOL0     H34541   1.670   1.226   9.955 -0.8644 -0.0912 -0.0965
  256MOL0     H34542   1.247   1.182  10.188  0.3631 -2.4095  1.2672
  256MOL0     H34543   1.088   1.174  10.377 -0.3401  0.1653  1.4784
  256MOL0     H34544   0.337   1.167  11.292 -1.1035  1.1734  1.6171
  256MOL0     H34545   0.434   1.393  11.287 -1.8938 -2.5779  2.6743
  256MOL0     H34546   0.419   1.766  11.314  1.2861 -1.3867  0.1879
  256MOL0     H34547   0.444   2.008  11.333 -3.0458 -1.4948 -2.1127
  256MOL0     H34548   0.646   2.216  11.016  0.4291 -1.5970  0.3534
  256MOL0     H34549   0.798   2.183  11.118  0.1344 -0.7619 -1.9186
  256MOL0     H34550   0.718   2.384  11.249 -0.0840 -0.8186  0.0972
  256MOL0     H34551   0.581   2.409  11.142 -0.1452 -1.1247  1.4346
  256MOL0     H34552   0.752   2.457  10.957 -0.8565 -0.5610  0.5478
  256MOL0     H34553   0.882   2.459  11.073  0.0224  0.2806  2.2629
  256MOL0     H34554   0.654   2.642  11.042 -1.0313 -0.7781  0.3167
  256MOL0     H34555   0.696   2.621  11.213  3.1558  1.1935  0.3957
  256MOL0     H34556   1.032   2.838  11.066  0.0482  0.3340  3.3955
  256MOL0     H34557   0.748   1.983  11.016  0.1884 -1.3100 -0.6974
  256MOL0     H34558   0.624   1.714  10.871  0.8106 -0.1658 -1.5938
  256MOL0     H34559   0.735   1.827  10.850 -1.4807 -1.2062 -1.2754
  256MOL0     H34560   0.771   1.677  10.943  0.3410 -0.7518  0.3191
  257MOL0     O34561   3.541   6.128  10.069 -0.3443 -0.1121 -0.4157
  257MOL0     C34562   3.462   6.037  10.099  0.3584  0.0458  0.0232
  257MOL0     O34563   3.338   6.054  10.133  0.8152  0.0113  0.4585
  257MOL0     C34564   3.280   6.178  10.113  0.1010 -0.6145  0.2956
  257MOL0     C34565   3.274   6.231   9.990 -0.1779 -0.5507  0.2401
  257MOL0     C34566   3.215   6.359   9.967 -0.2080  0.3714  0.4770
  257MOL0     C34567   3.154   6.432  10.065 -0.0978  0.7636 -0.1227
  257MOL0     O34568   3.113   6.554  10.034  0.4560 -1.3089 -0.1877
  257MOL0     C34569   3.057   6.620  10.148  0.7929 -0.0784 -0.3481
  257MOL0     C34570   3.031   6.767  10.115  0.0229  0.9969  0.8123
  257MOL0     C34571   2.994   6.860  10.235  0.3908 -0.6666  0.2822
  257MOL0     C34572   3.100   6.966  10.274  0.1616 -0.2499  0.5933
  257MOL0     C34573   3.076   7.029  10.415  0.3332  0.3819 -1.1200
  257MOL0     C34574   3.186   7.132  10.453 -0.8597  0.0282 -0.9098
  257MOL0     C34575   3.331   7.089  10.436 -0.5263  0.6162  0.4631
  257MOL0     C34576   3.438   7.199  10.476 -0.0271  0.5959  0.0456
  257MOL0     N34577   3.571   7.152  10.461 -0.4738 -0.5088 -0.2310
  257MOL0     C34578   3.625   7.037  10.523 -1.3927  0.8765 -0.1324
  257MOL0     C34579   3.732   6.986  10.457 -0.0949 -0.8524  0.6037
  257MOL0     C34580   3.814   6.865  10.479  0.0565  0.9808 -0.0514
  257MOL0     C34581   3.963   6.899  10.481  0.9602  0.3964 -0.9716
  257MOL0     C34582   4.001   6.932  10.628 -0.3932 -0.7747  0.2888
  257MOL0     C34583   3.933   7.058  10.689 -0.6904 -0.0904  0.2722
  257MOL0     O34584   3.942   7.043  10.828  0.5237 -0.8970 -1.1500
  257MOL0     C34585   3.978   7.144  10.914  0.2393 -0.6512  0.5603
  257MOL0     C34586   4.005   7.098  11.038  0.0524  0.2155  0.1596
  257MOL0     C34587   4.054   7.182  11.138 -0.9546  0.0510  0.4626
  257MOL0     C34588   4.102   7.313  11.110  0.5852 -0.4430  0.8166
  257MOL0     C34589   4.156   7.405  11.209  0.4759  0.2891 -0.1413
  257MOL0     O34590   4.257   7.475  11.165 -0.2248 -0.0586  0.0381
  257MOL0     C34591   4.318   7.554  11.252 -0.0086  0.2825  0.3143
  257MOL0     C34592   4.262   7.650  11.330 -0.3089  0.3370  0.2392
  257MOL0     C34593   4.331   7.729  11.412 -0.5108 -0.1553  0.3051
  257MOL0     C34594   4.471   7.740  11.398 -0.3042 -0.2234 -0.6292
  257MOL0     O34595   4.534   7.842  11.474  0.3454 -0.2209  0.3348
  257MOL0     C34596   4.675   7.852  11.484  0.4813  0.5867  0.2971
  257MOL0     C34597   4.751   7.723  11.533 -0.0935 -0.8570  0.1747
  257MOL0     C34598   4.723   7.703  11.678 -0.6509  1.0312 -0.6168
  257MOL0     C34599   4.767   7.565  11.732  0.3495  0.1996  0.2283
  257MOL0     C34600   4.714   7.569  11.868 -0.8201 -0.9091  1.3791
  257MOL0     C34601   4.744   7.434  11.938  0.2521 -0.0501 -0.3807
  257MOL0     C34602   4.697   7.440  12.082 -0.9485 -0.1503 -0.2557
  257MOL0     C34603   4.807   7.477  12.181 -0.1017  1.2004 -0.1920
  257MOL0    Cl34604   4.881   7.642  12.172  0.1848  0.0541 -0.0327
  257MOL0     C34605   4.532   7.668  11.289 -0.2377  0.1589 -0.0022
  257MOL0     C34606   4.458   7.564  11.225  0.5777 -0.1824  0.7374
  257MOL0     O34607   4.100   7.410  11.317  1.0408  0.9249 -0.4296
  257MOL0     C34608   4.078   7.358  10.978  0.4450  0.5748 -0.6235
  257MOL0     C34609   4.028   7.267  10.877 -0.8895  0.3318  0.7595
  257MOL0     N34610   3.749   7.072  10.354 -0.0899 -0.6457 -0.1021
  257MOL0     N34611   3.660   7.173  10.354  0.1134 -0.3527  0.0648
  257MOL0     C34612   3.139   6.365  10.188 -0.3241  0.7508 -0.6511
  257MOL0     C34613   3.198   6.237  10.216  0.2943  0.3943  0.1369
  257MOL0     C34614   3.515   5.898  10.075 -0.2473 -1.2224  0.0675
  257MOL0     C34615   3.421   5.810  10.030 -0.0508  0.0973  0.5207
  257MOL0     C34616   3.461   5.679   9.988  0.7402 -0.9555  0.5172
  257MOL0     C34617   3.582   5.636  10.025 -0.6298  0.4359 -0.1836
  257MOL0     O34618   3.633   5.513   9.992  0.8159 -0.0092 -0.1597
  257MOL0     C34619   3.553   5.397  10.011  0.1424 -0.7774 -1.0023
  257MOL0     C34620   3.598   5.338  10.149  0.3492  0.1732 -0.2436
  257MOL0     C34621   3.544   5.197  10.174 -0.2400  0.1791 -0.3338
  257MOL0     C34622   3.390   5.190  10.204 -0.2399 -0.1305 -0.4589
  257MOL0     C34623   3.373   5.234  10.341 -0.3241 -0.4614  0.3492
  257MOL0     C34624   3.376   5.265  10.461  0.6277  0.4228 -0.3766
  257MOL0     C34625   3.679   5.719  10.082  0.9591  0.2998 -0.0683
  257MOL0     C34626   3.648   5.847  10.112  0.2346 -0.1223 -0.0387
  257MOL0     C34627   3.747   5.928  10.187 -0.1683 -0.2574 -0.2901
  257MOL0     H34628   3.306   6.180   9.899 -1.3066  3.7605 -2.9341
  257MOL0     H34629   3.207   6.400   9.866  1.5254  0.4383  0.3377
  257MOL0     H34630   2.972   6.570  10.194  1.7443  0.8526  2.6332
  257MOL0     H34631   3.129   6.625  10.230 -2.1260  0.8406  2.3661
  257MOL0     H34632   2.954   6.770  10.037  0.6296 -0.2290  0.1419
  257MOL0     H34633   3.120   6.813  10.070 -0.9549  1.0839 -1.1463
  257MOL0     H34634   2.972   6.809  10.329 -0.9163  0.2474  0.5002
  257MOL0     H34635   2.903   6.909  10.200  1.0629 -0.3779 -1.1629
  257MOL0     H34636   3.201   6.926  10.257 -0.2719 -2.3519  2.4702
  257MOL0     H34637   3.088   7.047  10.202 -0.9904  2.5911  3.7463
  257MOL0     H34638   2.978   7.077  10.419 -0.1834 -0.6882 -0.6381
  257MOL0     H34639   3.079   6.948  10.488 -0.3783 -0.4965 -2.0358
  257MOL0     H34640   3.169   7.217  10.387  0.0685  0.1377 -1.0281
  257MOL0     H34641   3.167   7.170  10.554 -0.1621  0.9872 -1.1246
  257MOL0     H34642   3.348   7.039  10.340 -0.2948  0.5594  0.5335
  257MOL0     H34643   3.344   7.008  10.508  1.0261  0.4025 -0.0231
  257MOL0     H34644   3.439   7.287  10.410  3.5721  0.7531  0.1018
  257MOL0     H34645   3.423   7.234  10.579 -2.2032  1.3548 -0.4830
  257MOL0     H34646   3.592   6.982  10.610  0.6368 -0.3242 -0.0686
  257MOL0     H34647   3.787   6.819  10.575  1.2760  0.0146 -0.1557
  257MOL0     H34648   3.795   6.798  10.395  1.9734  1.2888 -0.7898
  257MOL0     H34649   4.019   6.807  10.458 -1.9260 -1.9012  0.4831
  257MOL0     H34650   3.996   6.963  10.399 -3.4617  2.6652 -1.2680
  257MOL0     H34651   4.107   6.956  10.624 -1.0104  2.2350 -1.0246
  257MOL0     H34652   3.977   6.846  10.691  1.5259 -1.5443  0.0414
  257MOL0     H34653   3.827   7.069  10.664 -1.0869 -0.8828  1.4805
  257MOL0     H34654   3.995   7.141  10.655  4.1152 -2.5015  2.2609
  257MOL0     H34655   3.976   6.994  11.053  2.9421 -0.5961  0.6162
  257MOL0     H34656   4.085   7.153  11.238  2.4727  1.5395 -0.0337
  257MOL0     H34657   4.155   7.659  11.342 -0.3265 -0.6185  0.9434
  257MOL0     H34658   4.279   7.787  11.488  1.7521  0.0316  1.8012
  257MOL0     H34659   4.707   7.881  11.384  0.7066  3.6489  1.1702
  257MOL0     H34660   4.681   7.941  11.547 -1.0880  0.1707  1.0888
  257MOL0     H34661   4.726   7.636  11.472 -0.4530 -2.8421  2.9923
  257MOL0     H34662   4.858   7.745  11.526 -0.3551  0.9145  1.2448
  257MOL0     H34663   4.793   7.766  11.735  1.8360 -1.2244 -0.9674
  257MOL0     H34664   4.618   7.718  11.704 -0.4456 -0.9891  1.8206
  257MOL0     H34665   4.876   7.556  11.725  0.5972 -2.1701  4.1000
  257MOL0     H34666   4.726   7.494  11.660 -0.8347 -2.1469  2.9871
  257MOL0     H34667   4.608   7.597  11.867 -0.8582 -1.0730  0.4983
  257MOL0     H34668   4.769   7.644  11.927  1.1061  1.7581 -3.2638
  257MOL0     H34669   4.695   7.360  11.874 -2.2048  0.9504  0.2321
  257MOL0     H34670   4.850   7.409  11.948 -0.3636 -2.2170  1.7623
  257MOL0     H34671   4.654   7.342  12.106 -1.6380  0.0101 -0.8162
  257MOL0     H34672   4.618   7.515  12.088  0.5980  1.5178  0.0489
  257MOL0     H34673   4.767   7.453  12.280  2.3895  0.8841  0.8192
  257MOL0     H34674   4.894   7.415  12.157 -0.1060  1.9870 -2.4871
  257MOL0     H34675   4.639   7.683  11.277 -0.0828  0.3470  1.4445
  257MOL0     H34676   4.504   7.513  11.142 -0.9784 -1.8400  0.8374
  257MOL0     H34677   4.108   7.452  10.934  0.3790  0.1486 -1.6058
  257MOL0     H34678   4.028   7.301  10.774  1.2958  0.1799  0.6796
  257MOL0     H34679   3.074   6.405  10.265  0.3942  0.4525  0.1110
  257MOL0     H34680   3.175   6.191  10.311  1.4131  0.6754  0.5654
  257MOL0     H34681   3.321   5.842  10.004 -0.1120 -1.1896 -0.9335
  257MOL0     H34682   3.394   5.606   9.943  0.6168 -0.3357 -0.3192
  257MOL0     H34683   3.591   5.324   9.939  3.4262 -0.7013  0.4635
  257MOL0     H34684   3.444   5.396  10.023  0.4229 -3.4667  4.5726
  257MOL0     H34685   3.559   5.395  10.234 -1.0019 -1.8789  0.6059
  257MOL0     H34686   3.707   5.334  10.155  0.5153 -1.7040 -2.7900
  257MOL0     H34687   3.593   5.146  10.257 -0.5542  2.7108  1.5199
  257MOL0     H34688   3.553   5.140  10.081  1.1466  1.8904 -1.3219
  257MOL0     H34689   3.331   5.262  10.147 -0.0564 -0.0808 -0.5888
  257MOL0     H34690   3.357   5.086  10.194  4.5924 -2.1014  0.9073
  257MOL0     H34691   3.378   5.301  10.562  1.0994  2.8634 -1.1904
  257MOL0     H34692   3.780   5.694  10.115  1.8640  3.2540 -0.3602
  257MOL0     H34693   3.699   5.976  10.273 -1.3835 -5.0061  2.0526
  257MOL0     H34694   3.822   5.865  10.237 -2.9072 -2.0961  1.8552
  257MOL0     H34695   3.788   6.008  10.126  1.0966 -0.8152 -0.2097
  258MOL0     O34696   5.792  11.220   0.666  1.2376 -0.4645 -0.0836
  258MOL0     C34697   5.817  11.286   0.770 -0.4226 -0.1375  0.0306
  258MOL0     O34698   5.933  11.287   0.841  0.0652  0.5948 -0.1062
  258MOL0     C34699   6.051  11.238   0.796  0.6426 -1.2066  0.5479
  258MOL0     C34700   6.153  11.320   0.825 -0.0184 -0.5631  0.8569
  258MOL0     C34701   6.277  11.286   0.781  0.5093  0.1760 -0.4232
  258MOL0     C34702   6.303  11.171   0.710  0.0046  0.1097 -0.4131
  258MOL0     O34703   6.435  11.166   0.686 -0.7701  0.3112  0.0465
  258MOL0     C34704   6.488  11.038   0.641  0.1227 -0.2308 -0.3323
  258MOL0     C34705   6.631  11.055   0.597 -1.2625  0.4114 -1.0412
  258MOL0     C34706   6.712  10.929   0.586 -0.5570 -0.1073 -0.1291
  258MOL0     C34707   6.723  10.885   0.437  0.1030 -0.3171 -0.2717
  258MOL0     C34708   6.790  10.740   0.433 -0.1150  0.1488 -0.5934
  258MOL0     C34709   6.947  10.728   0.450  0.4621  0.1509 -1.0707
  258MOL0     C34710   7.007  10.582   0.430 -0.3876 -0.7845 -0.1732
  258MOL0     C34711   7.144  10.591   0.371 -0.0708 -0.2620  0.7332
  258MOL0     N34712   7.207  10.458   0.340  0.7150 -0.7266 -0.2717
  258MOL0     C34713   7.155  10.340   0.300  0.7945 -0.3401  1.8336
  258MOL0     C34714   7.257  10.284   0.236 -0.1729  0.1626 -0.6507
  258MOL0     C34715   7.253  10.154   0.163  0.8183  0.4500 -0.5571
  258MOL0     C34716   7.388  10.089   0.137  0.2122 -0.3081 -0.2840
  258MOL0     C34717   7.443  10.017   0.258  1.2229  0.4420  0.3637
  258MOL0     C34718   7.494  10.100   0.370 -0.0979 -0.1580 -0.2156
  258MOL0     O34719   7.577  10.025   0.455 -0.4533 -0.1866  0.1623
  258MOL0     C34720   7.607  10.071   0.582 -0.3701  0.1384 -0.0286
  258MOL0     C34721   7.677   9.981   0.662  0.5292  0.0600 -0.3230
  258MOL0     C34722   7.716  10.019   0.791 -0.3660 -0.4921 -0.5832
  258MOL0     C34723   7.690  10.147   0.832 -0.2571  0.7750  0.6081
  258MOL0     C34724   7.728  10.192   0.965  0.2585 -0.2385 -0.3936
  258MOL0     O34725   7.719  10.114   1.075  0.2788 -0.0263 -0.3950
  258MOL0     C34726   7.777  10.143   1.194 -0.3676  0.6566 -0.3310
  258MOL0     C34727   7.740  10.246   1.278  0.3313  0.4507  0.6205
  258MOL0     C34728   7.785  10.243   1.414  0.2217  0.7495 -0.3924
  258MOL0     C34729   7.857  10.140   1.478  1.1149 -0.5305  0.5976
  258MOL0     O34730   7.890  10.161   1.608  0.1939 -0.1024 -0.8802
  258MOL0     C34731   7.949  10.059   1.694  0.0260 -0.6821  0.4428
  258MOL0     C34732   7.940  10.128   1.832  0.3270  0.6184  0.5612
  258MOL0     C34733   8.015  10.256   1.863  0.3424 -0.5690 -0.3078
  258MOL0     C34734   8.159  10.249   1.817  0.0330  0.5992 -1.0844
  258MOL0     C34735   8.221  10.381   1.860 -0.0905 -0.1992  0.8034
  258MOL0     C34736   8.378  10.362   1.840 -0.4406 -0.4325  0.2540
  258MOL0     C34737   8.459  10.471   1.892 -0.4903 -0.4749  0.6959
  258MOL0     C34738   8.499  10.428   2.035 -0.6221  1.1241 -0.0408
  258MOL0    Cl34739   8.594  10.275   2.012 -0.2336  0.2443  0.3676
  258MOL0     C34740   7.884  10.026   1.393  0.1000  0.5232  0.5612
  258MOL0     C34741   7.846  10.037   1.257 -0.3853 -0.4375 -0.3066
  258MOL0     O34742   7.779  10.310   0.964  0.8805  0.9785  0.7840
  258MOL0     C34743   7.626  10.234   0.756  0.5056  0.5672  0.4547
  258MOL0     C34744   7.574  10.198   0.632 -1.3921  0.4988 -0.7032
  258MOL0     N34745   7.371  10.352   0.250  0.3151  0.0268 -0.1451
  258MOL0     N34746   7.345  10.456   0.326 -0.2566 -0.0564 -0.5959
  258MOL0     C34747   6.199  11.099   0.666 -0.2329  0.9872  0.2243
  258MOL0     C34748   6.070  11.133   0.711 -0.6998 -0.0541  0.0650
  258MOL0     C34749   5.700  11.372   0.821  0.6053  1.3341  1.1346
  258MOL0     C34750   5.727  11.421   0.948  0.3910  0.6489 -1.3693
  258MOL0     C34751   5.629  11.504   1.012 -0.2016  0.2917 -0.4245
  258MOL0     C34752   5.505  11.536   0.959 -0.1438 -0.4081 -0.0967
  258MOL0     O34753   5.410  11.608   1.027 -0.0765  0.7173  0.2745
  258MOL0     C34754   5.459  11.733   1.054 -0.1522 -0.1451 -0.3998
  258MOL0     C34755   5.339  11.811   1.103 -0.3511 -1.6871  0.3146
  258MOL0     C34756   5.268  11.775   1.223  0.8485  0.8824 -0.2112
  258MOL0     C34757   5.376  11.763   1.335  0.0661  0.2679 -0.9901
  258MOL0     C34758   5.332  11.830   1.456 -0.4099 -0.1310 -0.0298
  258MOL0     C34759   5.299  11.893   1.554  0.0743 -0.0613 -0.2874
  258MOL0     C34760   5.474  11.467   0.845 -0.1327  0.6120  0.5380
  258MOL0     C34761   5.576  11.400   0.766  0.0151  0.3919  0.1886
  258MOL0     C34762   5.542  11.372   0.620  1.1012  0.1092  0.2747
  258MOL0     H34763   6.155  11.413   0.880 -0.9079 -0.4931  0.7974
  258MOL0     H34764   6.354  11.358   0.805 -0.2336  0.4736  1.2409
  258MOL0     H34765   6.475  10.959   0.715 -1.6523 -1.4446 -1.8456
  258MOL0     H34766   6.436  11.011   0.548 -0.1336  0.7727 -0.4914
  258MOL0     H34767   6.677  11.123   0.669 -0.5373 -1.3529  0.2567
  258MOL0     H34768   6.634  11.107   0.501 -1.1610 -0.7416 -1.6825
  258MOL0     H34769   6.676  10.846   0.648  0.1737 -1.4892 -1.4894
  258MOL0     H34770   6.813  10.954   0.619 -0.4519  0.7464 -1.0536
  258MOL0     H34771   6.624  10.876   0.393 -0.5664  1.2320  0.8734
  258MOL0     H34772   6.781  10.951   0.372  0.0887 -0.5815 -0.5554
  258MOL0     H34773   6.735  10.673   0.501  1.4155 -3.2860 -2.4469
  258MOL0     H34774   6.782  10.704   0.330  1.2297  0.3431 -0.7906
  258MOL0     H34775   6.986  10.790   0.370  0.3505 -0.5045 -1.6373
  258MOL0     H34776   6.992  10.770   0.540  1.1361 -0.8964 -0.8976
  258MOL0     H34777   6.941  10.538   0.355 -2.7024  2.9080 -0.5467
  258MOL0     H34778   6.999  10.523   0.522  1.8447  0.2976  0.7749
  258MOL0     H34779   7.146  10.642   0.274  1.3767 -1.0499  0.3075
  258MOL0     H34780   7.208  10.658   0.430  0.7060  0.8764 -1.2819
  258MOL0     H34781   7.051  10.308   0.310  0.5748 -0.5331 -0.6094
  258MOL0     H34782   7.175  10.092   0.207  1.6055  0.6473  1.2268
  258MOL0     H34783   7.209  10.183   0.067 -0.5363  0.9173  0.1847
  258MOL0     H34784   7.363  10.010   0.065  0.8414 -0.0710 -0.7726
  258MOL0     H34785   7.462  10.162   0.104 -0.4130  0.6895  0.4575
  258MOL0     H34786   7.526   9.955   0.221  1.2633  0.4887  0.3745
  258MOL0     H34787   7.365   9.952   0.298  1.8181  1.1407  2.8432
  258MOL0     H34788   7.409  10.149   0.417 -0.2127 -0.6688  0.1153
  258MOL0     H34789   7.553  10.184   0.333 -0.5580  0.6515  0.8385
  258MOL0     H34790   7.708   9.882   0.628 -0.2244 -0.4432  0.4011
  258MOL0     H34791   7.782   9.959   0.851  1.4871  1.4339 -0.5869
  258MOL0     H34792   7.673  10.325   1.244  2.3684  1.3149 -1.6618
  258MOL0     H34793   7.768  10.333   1.473 -2.2102  1.1926 -1.6450
  258MOL0     H34794   7.887   9.969   1.700  1.1334 -1.4325  4.9415
  258MOL0     H34795   8.051  10.028   1.667 -1.5636 -3.2242 -3.3455
  258MOL0     H34796   7.834  10.136   1.857 -0.2929 -1.4008 -1.0779
  258MOL0     H34797   7.984  10.055   1.900 -5.2104 -0.9666  3.0023
  258MOL0     H34798   7.975  10.340   1.806  2.3087 -2.0599 -4.2369
  258MOL0     H34799   8.007  10.283   1.969 -1.4940 -2.0501 -0.0014
  258MOL0     H34800   8.169  10.236   1.709  0.4904  0.5452 -1.0378
  258MOL0     H34801   8.219  10.164   1.851  0.4475  1.0325 -0.7175
  258MOL0     H34802   8.198  10.421   1.960  3.5887  1.5603  1.0942
  258MOL0     H34803   8.179  10.448   1.784  0.5291 -1.8583 -1.0520
  258MOL0     H34804   8.413  10.259   1.854  0.0099 -0.2498  0.4934
  258MOL0     H34805   8.417  10.366   1.737  0.8401 -0.3594  0.7313
  258MOL0     H34806   8.409  10.569   1.887 -2.3281 -1.4199 -1.0061
  258MOL0     H34807   8.556  10.479   1.842 -0.3422 -0.6959  0.9436
  258MOL0     H34808   8.573  10.497   2.076 -0.4531 -0.6663  2.9053
  258MOL0     H34809   8.412  10.434   2.101  0.0865  0.8333  0.9395
  258MOL0     H34810   7.931   9.935   1.430  0.8725  0.4665 -0.5232
  258MOL0     H34811   7.849   9.950   1.192  2.5136 -1.8579  1.4942
  258MOL0     H34812   7.604  10.336   0.786  1.3212  0.6261  0.8733
  258MOL0     H34813   7.510  10.275   0.590  0.4028  4.2261  2.8116
  258MOL0     H34814   6.202  11.000   0.623 -0.1547  0.5655  1.1701
  258MOL0     H34815   5.996  11.059   0.683 -0.0534 -0.4875 -0.5555
  258MOL0     H34816   5.813  11.402   1.011 -0.5287  3.2868  0.8981
  258MOL0     H34817   5.652  11.557   1.104  0.4799  0.1544 -0.5115
  258MOL0     H34818   5.499  11.778   0.963  0.6720 -0.1007 -0.0308
  258MOL0     H34819   5.540  11.728   1.128  1.1953 -1.7744 -1.9060
  258MOL0     H34820   5.267  11.813   1.021  0.6058  5.1857 -1.0228
  258MOL0     H34821   5.371  11.915   1.115  0.5168 -2.0404  1.2316
  258MOL0     H34822   5.209  11.683   1.215  0.3088  1.2203 -0.1556
  258MOL0     H34823   5.205  11.861   1.244 -0.6276 -0.4862  1.2602
  258MOL0     H34824   5.389  11.660   1.372  0.4500  0.8645  0.6075
  258MOL0     H34825   5.468  11.814   1.306  0.7220 -1.6704 -2.5419
  258MOL0     H34826   5.274  11.940   1.647  1.3344  2.6616 -1.1998
  258MOL0     H34827   5.378  11.502   0.809 -0.7089 -0.3524  1.0754
  258MOL0     H34828   5.459  11.437   0.593  0.2753  0.9787  4.2364
  258MOL0     H34829   5.631  11.385   0.558  3.0080 -1.6825  2.4533
  258MOL0     H34830   5.514  11.267   0.611  0.3048  0.4614 -2.1041
  259MOL0     O34831   5.453  10.124   2.319 -0.1952  0.4842 -0.8644
  259MOL0     C34832   5.515  10.133   2.215 -0.4654 -0.7003 -0.5606
  259MOL0     O34833   5.575  10.248   2.174 -0.0045  0.3352  0.6233
  259MOL0     C34834   5.577  10.371   2.240  0.9136  0.3719 -0.3151
  259MOL0     C34835   5.531  10.489   2.175  0.6825  0.0205  0.8314
  259MOL0     C34836   5.516  10.608   2.245 -0.4024 -0.2083 -0.2552
  259MOL0     C34837   5.550  10.618   2.381 -0.1611 -1.2337  0.5202
  259MOL0     O34838   5.532  10.740   2.441 -0.8021  0.2437 -0.2406
  259MOL0     C34839   5.605  10.761   2.559  0.7933 -0.2217  0.2473
  259MOL0     C34840   5.620  10.908   2.601  0.0702 -0.1389  1.0830
  259MOL0     C34841   5.705  10.983   2.502  0.0452  0.1480 -0.6931
  259MOL0     C34842   5.633  11.002   2.367  0.1461 -0.0120  0.8728
  259MOL0     C34843   5.702  11.124   2.293 -0.2384  0.2649  0.2060
  259MOL0     C34844   5.628  11.147   2.154 -0.0181  0.0760 -0.3333
  259MOL0     C34845   5.667  11.040   2.059 -0.3006 -0.4209  0.8261
  259MOL0     C34846   5.811  11.034   2.015 -0.4193  0.8670 -0.2762
  259MOL0     N34847   5.870  11.157   1.958 -0.8303 -0.5660  0.1846
  259MOL0     C34848   5.824  11.212   1.842 -0.3676  0.7204  0.3089
  259MOL0     C34849   5.898  11.316   1.817  0.1253 -0.7187 -0.4905
  259MOL0     C34850   5.908  11.405   1.697  0.1164 -0.1150  0.5182
  259MOL0     C34851   6.029  11.373   1.621 -0.8735  0.2620  0.4003
  259MOL0     C34852   6.042  11.230   1.567 -0.0703 -0.4060  1.1156
  259MOL0     C34853   6.164  11.221   1.485  0.0420 -0.8328  0.8592
  259MOL0     O34854   6.182  11.113   1.398  0.1669  0.6301 -0.4360
  259MOL0     C34855   6.293  11.102   1.328 -0.5796  0.3492  0.7871
  259MOL0     C34856   6.303  11.104   1.187  0.5315  0.2737 -0.7742
  259MOL0     C34857   6.430  11.098   1.126 -0.2186 -0.8450 -0.8364
  259MOL0     C34858   6.542  11.103   1.205  0.1118  0.2727 -0.6761
  259MOL0     C34859   6.674  11.116   1.144 -0.4166 -0.5828 -0.8231
  259MOL0     O34860   6.687  11.072   1.009  0.4264 -0.4744  0.1807
  259MOL0     C34861   6.808  11.077   0.954 -0.4557 -0.7197  0.8151
  259MOL0     C34862   6.893  11.192   0.958  0.4463  0.3390  0.5075
  259MOL0     C34863   7.013  11.194   0.895 -0.0505  0.3869 -0.3504
  259MOL0     C34864   7.069  11.080   0.840 -0.5897  0.0570  0.4266
  259MOL0     O34865   7.188  11.096   0.780 -0.5204  0.3558  0.0467
  259MOL0     C34866   7.245  10.984   0.720  0.6391  0.7647 -0.2264
  259MOL0     C34867   7.368  11.026   0.646 -0.1559  0.1727 -0.9396
  259MOL0     C34868   7.415  10.912   0.564  0.8264 -0.7932  0.2576
  259MOL0     C34869   7.553  10.935   0.499 -0.1692  0.2119 -0.9948
  259MOL0     C34870   7.626  10.822   0.433  0.6446 -0.2795  0.6696
  259MOL0     C34871   7.747  10.853   0.350 -0.3535 -0.3775 -0.1898
  259MOL0     C34872   7.861  10.875   0.452 -0.3259  0.2719  0.3591
  259MOL0     C34873   7.997  10.897   0.384  1.0921  0.2158 -0.9946
  259MOL0    Cl34874   8.100  11.040   0.457 -0.2157 -0.1067 -0.1163
  259MOL0     C34875   6.983  10.961   0.848 -0.9428  0.2725 -0.2280
  259MOL0     C34876   6.858  10.957   0.905  1.1644  0.7763 -0.5090
  259MOL0     O34877   6.774  11.150   1.213  0.7710  0.1468 -0.5025
  259MOL0     C34878   6.535  11.082   1.346  0.3778 -1.3203 -0.5262
  259MOL0     C34879   6.409  11.080   1.407 -0.3900 -0.2253  0.6482
  259MOL0     N34880   5.987  11.330   1.931  0.1146  0.2525 -0.2919
  259MOL0     N34881   5.971  11.235   2.016 -0.1446 -0.0785  0.9618
  259MOL0     C34882   5.584  10.495   2.450  0.1117  0.9135 -0.2459
  259MOL0     C34883   5.595  10.377   2.376  0.4553  0.6754  0.0220
  259MOL0     C34884   5.493  10.022   2.122  0.1811  0.2456  1.3985
  259MOL0     C34885   5.455   9.896   2.180 -0.8946  0.4752  0.3730
  259MOL0     C34886   5.472   9.771   2.115  0.1892 -0.4918 -0.6879
  259MOL0     C34887   5.490   9.769   1.978  0.8642 -0.0894  0.9247
  259MOL0     O34888   5.513   9.657   1.907  0.0526  0.2317 -0.0423
  259MOL0     C34889   5.545   9.534   1.976  0.0492  0.2010 -0.6570
  259MOL0     C34890   5.606   9.422   1.892 -0.3209  0.0153 -0.2055
  259MOL0     C34891   5.515   9.311   1.868 -0.2808  0.5542 -0.0673
  259MOL0     C34892   5.570   9.210   1.771  0.5130  0.2106 -0.7964
  259MOL0     C34893   5.517   9.075   1.793 -1.4900  1.9462  0.3385
  259MOL0     C34894   5.477   8.961   1.818 -0.2186 -0.1365  0.9224
  259MOL0     C34895   5.500   9.891   1.916  0.4324 -0.1368 -0.4037
  259MOL0     C34896   5.494  10.020   1.981  0.7630 -0.9594  0.4287
  259MOL0     C34897   5.495  10.138   1.883 -0.0219  0.9022 -0.3111
  259MOL0     H34898   5.500  10.489   2.071 -0.7462  0.2708  1.2309
  259MOL0     H34899   5.467  10.698   2.209  0.3295  0.2001 -0.2525
  259MOL0     H34900   5.553  10.712   2.641  0.8326  0.1035  0.4684
  259MOL0     H34901   5.709  10.727   2.555  0.8953 -0.8401  4.1273
  259MOL0     H34902   5.662  10.917   2.702 -0.7913 -0.2850  1.4614
  259MOL0     H34903   5.521  10.953   2.613  0.1278 -0.0006  1.0386
  259MOL0     H34904   5.799  10.929   2.493 -0.5760 -1.2089  0.6581
  259MOL0     H34905   5.720  11.083   2.545 -3.2568  1.1203 -1.4593
  259MOL0     H34906   5.654  10.911   2.310  1.4353 -0.5785  2.1550
  259MOL0     H34907   5.530  11.032   2.386  0.5676  1.6471  0.6851
  259MOL0     H34908   5.682  11.205   2.363 -2.1855  0.7062 -0.7852
  259MOL0     H34909   5.809  11.109   2.276 -0.4207  2.2212 -4.0148
  259MOL0     H34910   5.521  11.136   2.174  0.5985  0.4023  4.2717
  259MOL0     H34911   5.640  11.248   2.115  0.0597 -0.0527 -0.6477
  259MOL0     H34912   5.600  11.054   1.974  0.0921 -2.5445  0.1170
  259MOL0     H34913   5.637  10.944   2.102  0.7184 -1.6355 -1.0716
  259MOL0     H34914   5.878  10.986   2.087  0.5532 -2.6830 -3.2529
  259MOL0     H34915   5.810  10.963   1.932  3.4858  0.6106 -0.2843
  259MOL0     H34916   5.750  11.164   1.779  0.2174 -0.7572  0.6901
  259MOL0     H34917   5.821  11.394   1.632 -1.4905 -2.0302  2.8322
  259MOL0     H34918   5.906  11.499   1.753 -0.0004  0.0920  0.1635
  259MOL0     H34919   6.043  11.451   1.546 -1.3603 -0.9132 -0.9478
  259MOL0     H34920   6.105  11.381   1.699  0.6320  2.6657 -1.1640
  259MOL0     H34921   5.953  11.205   1.508 -2.1632  3.7684  2.1328
  259MOL0     H34922   6.063  11.157   1.646  0.3923 -0.3487  1.0529
  259MOL0     H34923   6.245  11.230   1.558  2.5191 -0.6466 -1.7070
  259MOL0     H34924   6.186  11.308   1.423 -1.9045 -2.9411 -3.2238
  259MOL0     H34925   6.204  11.097   1.143  0.4888 -2.8258 -0.4186
  259MOL0     H34926   6.435  11.099   1.018 -1.4408 -1.2906 -0.9093
  259MOL0     H34927   6.863  11.287   1.002  0.1340  0.6943 -0.4415
  259MOL0     H34928   7.078  11.278   0.872  3.1238 -1.0384  2.5320
  259MOL0     H34929   7.271  10.910   0.795  0.8690  1.0200 -0.0555
  259MOL0     H34930   7.172  10.950   0.645  0.8616  4.4224 -2.3605
  259MOL0     H34931   7.335  11.113   0.587 -1.2442  0.0150 -0.5887
  259MOL0     H34932   7.450  11.051   0.713  0.2314 -0.7521 -1.0574
  259MOL0     H34933   7.438  10.832   0.635  0.9673 -0.3045  0.7766
  259MOL0     H34934   7.338  10.869   0.500  0.6765 -0.4864  0.2312
  259MOL0     H34935   7.632  10.964   0.570  0.2225 -2.1539 -0.4022
  259MOL0     H34936   7.549  11.017   0.427 -2.5978  0.6333 -0.4810
  259MOL0     H34937   7.560  10.795   0.350 -0.5297  3.8841  0.0004
  259MOL0     H34938   7.649  10.750   0.512 -3.3853  0.6123  2.9754
  259MOL0     H34939   7.772  10.781   0.271  1.1134 -0.3843  0.2406
  259MOL0     H34940   7.741  10.953   0.306  4.9428  0.4500  0.3061
  259MOL0     H34941   7.872  10.783   0.509  0.6675  0.2537  0.1456
  259MOL0     H34942   7.830  10.953   0.522 -0.6055 -1.2257  1.9752
  259MOL0     H34943   8.053  10.805   0.365  0.3344 -0.6227  0.6182
  259MOL0     H34944   7.962  10.933   0.287  0.5911 -2.7254 -2.0144
  259MOL0     H34945   7.017  10.865   0.809 -4.5969 -1.2237 -0.0696
  259MOL0     H34946   6.800  10.865   0.902  0.6580  1.0868 -0.4019
  259MOL0     H34947   6.630  11.082   1.397  1.0877  1.6610 -1.6574
  259MOL0     H34948   6.408  11.077   1.516 -2.9140 -0.5403  0.6746
  259MOL0     H34949   5.597  10.497   2.558  0.5537  1.9328 -0.3139
  259MOL0     H34950   5.623  10.283   2.423  4.6737  0.8883 -1.6250
  259MOL0     H34951   5.441   9.877   2.286  0.3372 -1.4421  0.2420
  259MOL0     H34952   5.449   9.678   2.166  2.5622 -0.8230 -0.1197
  259MOL0     H34953   5.456   9.486   2.020  0.0601  0.9679  0.2274
  259MOL0     H34954   5.618   9.575   2.047 -3.7139  3.4993  1.7774
  259MOL0     H34955   5.693   9.384   1.946  0.2562 -3.6869 -3.2637
  259MOL0     H34956   5.637   9.456   1.793 -0.0375  0.3402 -0.0051
  259MOL0     H34957   5.417   9.347   1.836 -0.6076 -0.5112 -0.3291
  259MOL0     H34958   5.490   9.267   1.965  3.8243 -1.0741  0.4881
  259MOL0     H34959   5.536   9.242   1.672 -1.7522 -2.5154 -1.0080
  259MOL0     H34960   5.679   9.207   1.784  0.2671 -1.3946  1.3869
  259MOL0     H34961   5.438   8.866   1.848 -2.1203  0.5780  0.8589
  259MOL0     H34962   5.521   9.880   1.810 -1.0002  2.0740 -0.9883
  259MOL0     H34963   5.585  10.139   1.820 -0.6437  0.7750 -1.2306
  259MOL0     H34964   5.404  10.148   1.822 -1.4153  2.1059  1.8449
  259MOL0     H34965   5.502  10.231   1.941  0.0667 -0.1678  1.4446
  260MOL0     O34966   7.713   7.365   2.420 -0.1224 -1.5781  0.0305
  260MOL0     C34967   7.695   7.474   2.475  0.7544 -0.4033 -0.0951
  260MOL0     O34968   7.630   7.579   2.426  0.1533  0.5349  0.1023
  260MOL0     C34969   7.578   7.577   2.304 -0.2258  0.7433 -0.1857
  260MOL0     C34970   7.634   7.654   2.203  0.1140  0.2904  0.8067
  260MOL0     C34971   7.577   7.657   2.079  1.0015 -0.2641 -0.8919
  260MOL0     C34972   7.470   7.567   2.046 -0.5315 -0.4458  0.7550
  260MOL0     O34973   7.422   7.573   1.919  0.0373 -0.7593 -0.0656
  260MOL0     C34974   7.273   7.573   1.912  0.4175 -1.6351  0.0265
  260MOL0     C34975   7.228   7.470   1.816 -0.5226  0.3425 -0.9733
  260MOL0     C34976   7.094   7.404   1.851 -0.0753  0.1641  0.8401
  260MOL0     C34977   7.064   7.286   1.755  0.1606 -0.0540 -0.5019
  260MOL0     C34978   6.941   7.214   1.783  0.5810  0.6163 -0.1481
  260MOL0     C34979   6.819   7.302   1.762 -0.2555 -1.0517  0.4977
  260MOL0     C34980   6.709   7.261   1.850  0.5054 -0.0767 -0.1247
  260MOL0     C34981   6.723   7.302   1.998 -0.9168 -0.3044 -0.4223
  260MOL0     N34982   6.641   7.224   2.087 -0.0665  0.3951  0.8539
  260MOL0     C34983   6.614   7.268   2.215 -0.5144  0.0248  1.3854
  260MOL0     C34984   6.561   7.157   2.276  0.8713  0.6641  0.4442
  260MOL0     C34985   6.496   7.160   2.416 -0.9261  0.3169  0.3941
  260MOL0     C34986   6.369   7.253   2.423  0.2543 -0.1789  0.2156
  260MOL0     C34987   6.290   7.254   2.563  0.5319  0.3656  0.4255
  260MOL0     C34988   6.383   7.263   2.688  0.5240 -0.9528  0.2273
  260MOL0     O34989   6.302   7.274   2.806  0.3717 -0.6700  1.0211
  260MOL0     C34990   6.326   7.378   2.895 -0.2340 -0.2444  0.2534
  260MOL0     C34991   6.251   7.492   2.879 -0.3059 -0.6640  0.9795
  260MOL0     C34992   6.243   7.597   2.977  0.0405 -0.0698  0.1700
  260MOL0     C34993   6.320   7.580   3.090 -0.3473 -0.6405  0.0902
  260MOL0     C34994   6.315   7.678   3.201 -0.2139  0.3074  0.8007
  260MOL0     O34995   6.429   7.693   3.269 -0.6116 -0.0336  0.6213
  260MOL0     C34996   6.416   7.783   3.378 -0.8305  0.9014  0.2601
  260MOL0     C34997   6.356   7.745   3.506 -0.8137 -0.0925  0.9630
  260MOL0     C34998   6.352   7.838   3.610 -0.6829  0.4335 -0.0617
  260MOL0     C34999   6.385   7.972   3.588  0.7953 -0.9691 -0.2167
  260MOL0     O35000   6.390   8.072   3.683  0.3658 -0.2108 -0.9073
  260MOL0     C35001   6.333   8.053   3.815  0.7342  1.3862 -0.5216
  260MOL0     C35002   6.318   8.193   3.879 -0.4537  0.1498  0.0209
  260MOL0     C35003   6.212   8.201   3.996 -0.1911  0.4126  0.0894
  260MOL0     C35004   6.196   8.350   4.020 -1.0817  1.1075  0.5195
  260MOL0     C35005   6.079   8.368   4.120 -1.0214 -0.8590  0.1186
  260MOL0     C35006   6.062   8.516   4.189  0.2011  0.0548  0.4701
  260MOL0     C35007   5.968   8.522   4.313  0.1134 -1.0628  0.0555
  260MOL0     C35008   6.006   8.423   4.417  0.0935 -0.0460  0.1193
  260MOL0    Cl35009   5.912   8.267   4.376  0.1099 -0.3398  0.6193
  260MOL0     C35010   6.438   8.005   3.465  0.8454  0.0291  1.0414
  260MOL0     C35011   6.465   7.910   3.367 -0.3539 -0.6967  0.3343
  260MOL0     O35012   6.202   7.707   3.246 -0.4117 -0.3125  0.1676
  260MOL0     C35013   6.411   7.466   3.104  0.0907 -1.0132 -0.8380
  260MOL0     C35014   6.408   7.363   3.008  0.2919  0.1501  0.6604
  260MOL0     N35015   6.570   7.046   2.185  0.4193 -0.8969 -1.4216
  260MOL0     N35016   6.623   7.086   2.073  0.3566 -0.8817 -0.3116
  260MOL0     C35017   7.417   7.480   2.145  0.3392 -1.3503  0.2344
  260MOL0     C35018   7.469   7.489   2.276  0.3699 -0.6008  0.5667
  260MOL0     C35019   7.729   7.479   2.616  0.0621 -0.6704  0.6727
  260MOL0     C35020   7.770   7.601   2.669 -0.4070 -0.0787  0.1108
  260MOL0     C35021   7.797   7.620   2.802  0.8241 -0.1602  0.5850
  260MOL0     C35022   7.784   7.508   2.891  0.1690 -0.3174  0.2903
  260MOL0     O35023   7.795   7.514   3.032  0.3131  0.0845  0.1583
  260MOL0     C35024   7.798   7.646   3.087 -0.3713  0.4327  0.5246
  260MOL0     C35025   7.936   7.698   3.107  0.9263  1.0050  0.0102
  260MOL0     C35026   8.028   7.607   3.191 -0.7208  0.0723  0.8744
  260MOL0     C35027   8.164   7.670   3.222  0.0112  0.4769  0.0921
  260MOL0     C35028   8.223   7.603   3.339  0.6970 -0.3735 -0.6219
  260MOL0     C35029   8.279   7.581   3.441 -0.0560 -0.7167 -0.2638
  260MOL0     C35030   7.752   7.387   2.831 -0.1148 -0.3330 -0.2784
  260MOL0     C35031   7.719   7.368   2.700  0.9263  0.3493  0.0054
  260MOL0     C35032   7.673   7.221   2.665  0.0614 -0.6020 -0.0852
  260MOL0     H35033   7.707   7.733   2.218 -1.2262  1.4638  1.4888
  260MOL0     H35034   7.630   7.723   2.011 -1.0691  2.3987 -0.0908
  260MOL0     H35035   7.226   7.558   2.010 -1.0660  2.2316  0.0978
  260MOL0     H35036   7.242   7.668   1.867  0.6733 -1.8195 -0.5438
  260MOL0     H35037   7.293   7.383   1.823 -1.7906 -0.5107  1.0535
  260MOL0     H35038   7.231   7.506   1.712  2.0134  0.8807 -0.7941
  260MOL0     H35039   7.020   7.484   1.858  2.1287  2.2093  2.8598
  260MOL0     H35040   7.108   7.356   1.949 -1.9998  2.0893  2.1390
  260MOL0     H35041   7.061   7.324   1.652  1.1765 -1.9204 -1.2890
  260MOL0     H35042   7.153   7.221   1.755 -0.3490 -0.7704 -1.3196
  260MOL0     H35043   6.933   7.127   1.717  2.0782 -2.0317  2.8492
  260MOL0     H35044   6.935   7.178   1.887 -2.0842 -2.1792 -1.1295
  260MOL0     H35045   6.826   7.410   1.778 -0.2335 -1.0121  0.2205
  260MOL0     H35046   6.780   7.309   1.660  0.4957  0.0080  0.2785
  260MOL0     H35047   6.693   7.153   1.835  3.1608 -0.6833  0.7561
  260MOL0     H35048   6.631   7.326   1.810  0.3229  0.4494  1.0598
  260MOL0     H35049   6.828   7.289   2.024 -0.1306  0.2215 -3.0460
  260MOL0     H35050   6.694   7.407   2.009 -0.4250 -0.3220  1.2679
  260MOL0     H35051   6.612   7.370   2.249 -1.6188  0.3301  0.4746
  260MOL0     H35052   6.458   7.058   2.430 -0.9135  0.2279 -0.2363
  260MOL0     H35053   6.564   7.188   2.498 -1.3333 -2.4570  1.8181
  260MOL0     H35054   6.407   7.353   2.397  2.7065 -1.5010 -1.8154
  260MOL0     H35055   6.297   7.221   2.346 -1.0521 -2.8185  2.3711
  260MOL0     H35056   6.231   7.162   2.571 -1.4594  1.6055  0.8017
  260MOL0     H35057   6.223   7.340   2.557 -1.0354 -0.8023  0.5179
  260MOL0     H35058   6.452   7.347   2.675 -0.8661  0.1161 -0.5070
  260MOL0     H35059   6.433   7.165   2.696 -1.0924 -1.8684 -0.4681
  260MOL0     H35060   6.190   7.506   2.790 -0.4356  2.2399  1.4144
  260MOL0     H35061   6.173   7.680   2.981 -1.6652 -1.4881  1.7432
  260MOL0     H35062   6.324   7.643   3.527 -1.3335 -0.0867  0.2404
  260MOL0     H35063   6.344   7.804   3.713  1.6128 -0.8107 -0.2220
  260MOL0     H35064   6.231   8.014   3.820  2.0840 -2.5605 -0.3743
  260MOL0     H35065   6.394   7.988   3.878  0.3745  1.4496 -0.1027
  260MOL0     H35066   6.416   8.216   3.921 -0.3534 -2.2794  1.2615
  260MOL0     H35067   6.297   8.264   3.798  2.2571 -0.0115 -0.9237
  260MOL0     H35068   6.118   8.162   3.958  0.4043 -1.4961  0.4807
  260MOL0     H35069   6.245   8.135   4.076  1.4782 -3.7442 -3.6089
  260MOL0     H35070   6.191   8.420   3.936  0.8714  0.6468 -0.0174
  260MOL0     H35071   6.286   8.377   4.075  0.2678 -3.6140  1.0998
  260MOL0     H35072   6.096   8.296   4.200 -0.8465  0.4643  1.2991
  260MOL0     H35073   5.987   8.351   4.063 -0.3310 -0.2997 -1.2128
  260MOL0     H35074   6.158   8.563   4.214  0.2924 -0.3414  0.8677
  260MOL0     H35075   6.013   8.576   4.112 -1.6742 -1.7557  0.1604
  260MOL0     H35076   5.862   8.506   4.295 -0.7349  3.7156 -0.3988
  260MOL0     H35077   5.989   8.623   4.347 -2.8505 -0.8405  1.4882
  260MOL0     H35078   6.115   8.418   4.416  0.0618 -2.3809  1.3231
  260MOL0     H35079   5.989   8.466   4.516  0.1787  0.5038 -0.1033
  260MOL0     H35080   6.483   8.104   3.461  2.2317 -0.5172  2.2493
  260MOL0     H35081   6.524   7.944   3.282  0.5173 -2.8186  0.0242
  260MOL0     H35082   6.479   7.457   3.189  1.5516  0.4034 -1.7891
  260MOL0     H35083   6.474   7.280   3.029  0.2182  0.2783  1.4384
  260MOL0     H35084   7.346   7.400   2.129 -0.1745 -1.3756  2.3257
  260MOL0     H35085   7.424   7.425   2.351 -1.4523 -0.6372 -0.5262
  260MOL0     H35086   7.776   7.691   2.608  2.3899 -0.3092 -0.1035
  260MOL0     H35087   7.830   7.718   2.833 -1.2846  1.1981 -1.1224
  260MOL0     H35088   7.756   7.632   3.187  0.2866 -2.5415  0.4885
  260MOL0     H35089   7.727   7.712   3.037  1.7591  0.4258 -2.8501
  260MOL0     H35090   7.931   7.799   3.148 -2.5444  1.2674 -0.7347
  260MOL0     H35091   7.977   7.721   3.008 -0.1211  2.5597 -0.0905
  260MOL0     H35092   8.046   7.509   3.145  1.8982  0.8482  0.0795
  260MOL0     H35093   7.980   7.587   3.288 -1.8426  0.1739  0.3542
  260MOL0     H35094   8.227   7.665   3.133 -4.5737  1.3041 -3.6470
  260MOL0     H35095   8.167   7.776   3.249  0.6218 -0.0317  2.2150
  260MOL0     H35096   8.337   7.548   3.525  0.9864  1.8012  0.0817
  260MOL0     H35097   7.738   7.300   2.895  0.2757  0.8890  1.5641
  260MOL0     H35098   7.575   7.223   2.616  0.6978  0.1470 -1.3988
  260MOL0     H35099   7.746   7.178   2.596 -2.7599 -2.4476 -2.1339
  260MOL0     H35100   7.673   7.160   2.755  1.2359 -1.0649 -0.3804
  261MOL0     O35101   9.293   1.873   5.982  0.3362  0.4700 -1.3644
  261MOL0     C35102   9.355   1.903   6.083  0.3304  0.3282  0.9970
  261MOL0     O35103   9.361   1.832   6.198  0.1654 -0.5797 -0.2140
  261MOL0     C35104   9.301   1.707   6.233  0.1279  0.8397  0.4818
  261MOL0     C35105   9.312   1.667   6.362  0.0394  0.4603  0.1089
  261MOL0     C35106   9.268   1.540   6.407 -0.8664  0.6498  0.3147
  261MOL0     C35107   9.219   1.447   6.319 -0.5227  1.5176  0.0823
  261MOL0     O35108   9.173   1.318   6.354 -0.8863 -0.2987 -0.4332
  261MOL0     C35109   9.218   1.269   6.484 -0.2949  0.0706 -0.2405
  261MOL0     C35110   9.371   1.245   6.506 -0.3584  0.2025  0.2839
  261MOL0     C35111   9.390   1.187   6.648  0.1354 -0.6721 -0.4912
  261MOL0     C35112   9.541   1.197   6.679 -0.1116  0.0660 -1.0822
  261MOL0     C35113   9.588   1.189   6.828  0.0161  0.0182 -0.8656
  261MOL0     C35114   9.549   1.059   6.897 -0.2457 -0.0628  0.3179
  261MOL0     C35115   9.573   1.073   7.047  0.1121 -0.4377 -0.1134
  261MOL0     C35116   9.716   1.101   7.098  0.4712  1.2192  0.1819
  261MOL0     N35117   9.721   1.085   7.246  0.7527 -0.5917  0.1498
  261MOL0     C35118   9.813   1.017   7.323 -0.0321 -0.0417 -0.4788
  261MOL0     C35119   9.791   1.057   7.450  0.0747 -0.2305  0.8204
  261MOL0     C35120   9.876   1.025   7.566 -0.3493  0.0328  1.1647
  261MOL0     C35121   9.874   0.882   7.618  0.1490 -0.1180  0.2891
  261MOL0     C35122  10.019   0.818   7.593 -0.1913 -0.0711 -0.1480
  261MOL0     C35123  10.012   0.673   7.648 -0.1553 -0.1648 -0.0174
  261MOL0     O35124   9.942   0.660   7.774  0.2452 -0.4595  0.2919
  261MOL0     C35125  10.004   0.693   7.891 -0.4884 -0.9314 -0.1627
  261MOL0     C35126   9.916   0.748   7.994  0.1972 -0.4113 -0.0481
  261MOL0     C35127   9.964   0.763   8.119 -0.1843  0.6843  0.3291
  261MOL0     C35128  10.101   0.740   8.151 -0.0593 -0.3800 -0.6967
  261MOL0     C35129  10.146   0.778   8.294 -0.0072  0.0921 -0.0763
  261MOL0     O35130  10.047   0.827   8.381  0.4869  0.4000  0.4203
  261MOL0     C35131  10.084   0.893   8.497 -1.3566 -0.2212 -1.0041
  261MOL0     C35132  10.199   0.866   8.578  0.3722  0.5563 -0.1740
  261MOL0     C35133  10.228   0.923   8.695 -0.7680 -0.1128  0.2874
  261MOL0     C35134  10.153   1.041   8.724  0.2008 -1.0863  0.1837
  261MOL0     O35135  10.214   1.111   8.817 -0.2865 -0.6489 -0.4721
  261MOL0     C35136  10.177   1.252   8.851 -0.4700  0.0036 -0.2168
  261MOL0     C35137  10.275   1.299   8.961 -0.3540 -0.3422  0.5167
  261MOL0     C35138  10.227   1.434   9.016  0.7501 -0.0413 -1.1921
  261MOL0     C35139  10.105   1.400   9.114 -0.5183 -0.0194  0.1291
  261MOL0     C35140  10.105   1.477   9.247 -0.5309  0.5064  0.8351
  261MOL0     C35141  10.119   1.633   9.238  0.6821 -0.3532 -0.7904
  261MOL0     C35142   9.991   1.689   9.169  0.0402 -0.5427  0.4260
  261MOL0     C35143   9.988   1.839   9.154  0.5185 -0.0840  0.7906
  261MOL0    Cl35144   9.878   1.878   9.014  0.0829 -0.2309  0.0259
  261MOL0     C35145  10.042   1.081   8.651 -0.7738 -1.2198  0.3266
  261MOL0     C35146  10.011   1.009   8.540 -0.5238 -0.5024  0.2924
  261MOL0     O35147  10.268   0.767   8.318  0.4173 -0.0774  1.0842
  261MOL0     C35148  10.192   0.702   8.052  0.8196  0.9848  0.9118
  261MOL0     C35149  10.139   0.678   7.924 -0.0391  0.2511  0.2870
  261MOL0     N35150   9.700   1.162   7.447  0.1565  0.3427 -0.0909
  261MOL0     N35151   9.657   1.175   7.330  0.7802 -1.0391  0.1580
  261MOL0     C35152   9.190   1.494   6.186 -0.5015  0.1556 -0.0450
  261MOL0     C35153   9.235   1.618   6.145  0.2676  0.8571  1.5948
  261MOL0     C35154   9.404   2.045   6.079 -0.3596  0.0302  0.2508
  261MOL0     C35155   9.529   2.063   6.141  0.0961  0.3983 -0.3273
  261MOL0     C35156   9.590   2.185   6.144 -1.0337 -0.6662  0.6543
  261MOL0     C35157   9.537   2.302   6.083  0.6064 -0.3293  0.7541
  261MOL0     O35158   9.611   2.415   6.072  0.0148  0.2019  0.0645
  261MOL0     C35159   9.572   2.539   6.008  0.4275 -0.4811  0.6496
  261MOL0     C35160   9.474   2.618   6.096  0.6904  0.4306 -0.2596
  261MOL0     C35161   9.429   2.735   6.014  0.3565 -0.3001  0.3034
  261MOL0     C35162   9.340   2.838   6.084 -0.2645  1.2237  0.0357
  261MOL0     C35163   9.204   2.794   6.109  0.8326  0.7867 -0.2048
  261MOL0     C35164   9.086   2.798   6.146 -0.0667  0.6633 -0.6957
  261MOL0     C35165   9.415   2.281   6.007 -0.8851  0.2337 -0.1850
  261MOL0     C35166   9.345   2.162   6.012  0.8317  0.1097 -0.2293
  261MOL0     C35167   9.212   2.158   5.943 -0.0224 -0.5833  0.2484
  261MOL0     H35168   9.370   1.732   6.428 -4.1094  0.7652  3.9565
  261MOL0     H35169   9.297   1.521   6.510  0.6487  0.3416 -0.1509
  261MOL0     H35170   9.190   1.339   6.563  1.8727  0.7954 -0.0297
  261MOL0     H35171   9.176   1.174   6.519  1.3944 -0.6255  0.0132
  261MOL0     H35172   9.429   1.338   6.495  1.7921 -1.2314 -1.1690
  261MOL0     H35173   9.411   1.177   6.431 -0.3105 -1.6281  1.8838
  261MOL0     H35174   9.346   1.088   6.659 -1.4573  0.1133  0.7218
  261MOL0     H35175   9.334   1.253   6.715 -0.6399 -0.6891 -1.1206
  261MOL0     H35176   9.599   1.112   6.640  0.5899  0.7790 -1.6214
  261MOL0     H35177   9.588   1.286   6.637 -0.7774  0.5537 -0.7991
  261MOL0     H35178   9.693   1.218   6.827 -0.5226  2.1618 -1.3601
  261MOL0     H35179   9.540   1.266   6.889 -0.2558 -0.6494 -0.2295
  261MOL0     H35180   9.443   1.051   6.875 -0.6719  4.4525 -0.3360
  261MOL0     H35181   9.609   0.972   6.869  2.1969  1.1538  1.3868
  261MOL0     H35182   9.537   0.976   7.083 -2.5209  0.9553  1.3026
  261MOL0     H35183   9.506   1.146   7.093 -1.0039 -0.8244 -1.0812
  261MOL0     H35184   9.797   1.043   7.053  1.4532  2.4281  0.3273
  261MOL0     H35185   9.731   1.207   7.075  3.8936  0.8780  0.3029
  261MOL0     H35186   9.879   0.939   7.286 -0.6394  1.3783 -5.2395
  261MOL0     H35187   9.974   1.070   7.549 -0.3995 -0.3252 -0.1779
  261MOL0     H35188   9.831   1.086   7.645 -0.3723  1.0691  0.3698
  261MOL0     H35189   9.859   0.898   7.725 -2.0890 -1.1297  0.1844
  261MOL0     H35190   9.796   0.818   7.574 -2.5917  1.6233  2.2886
  261MOL0     H35191  10.089   0.877   7.653 -2.4266  0.3177  2.3235
  261MOL0     H35192  10.048   0.809   7.488  0.0047  1.3198 -0.2301
  261MOL0     H35193  10.113   0.630   7.645 -0.4491 -0.8120 -1.1611
  261MOL0     H35194   9.967   0.618   7.566  0.7435  1.1122 -1.4250
  261MOL0     H35195   9.808   0.747   7.984  0.2565 -0.9265 -0.7339
  261MOL0     H35196   9.896   0.799   8.195 -1.7648  1.0949 -1.2192
  261MOL0     H35197  10.254   0.776   8.553 -1.9382 -1.9620  2.8796
  261MOL0     H35198  10.314   0.890   8.752 -0.9910  1.5680  1.6634
  261MOL0     H35199  10.189   1.310   8.759 -0.2097 -0.0619 -0.2258
  261MOL0     H35200  10.073   1.249   8.885 -0.1532  0.4926  0.8534
  261MOL0     H35201  10.274   1.218   9.034 -2.7142 -2.0758 -1.2917
  261MOL0     H35202  10.377   1.307   8.923 -0.8577  0.5435 -0.7287
  261MOL0     H35203  10.304   1.468   9.086 -1.8764 -0.6115  2.2507
  261MOL0     H35204  10.197   1.506   8.940 -0.4457 -3.0920 -3.8532
  261MOL0     H35205  10.101   1.294   9.141  1.5150  0.3780  2.3136
  261MOL0     H35206  10.012   1.412   9.058  0.1107 -2.9036 -1.8012
  261MOL0     H35207  10.190   1.437   9.304  0.5499 -0.3566 -1.2653
  261MOL0     H35208  10.022   1.451   9.313 -0.0725 -0.1083  1.1766
  261MOL0     H35209  10.132   1.669   9.340  1.3446 -2.6653  0.0087
  261MOL0     H35210  10.210   1.661   9.183  1.4936  3.5185  2.0986
  261MOL0     H35211   9.904   1.661   9.228 -1.1807  0.4843 -0.8140
  261MOL0     H35212   9.972   1.650   9.069 -3.4093  1.2450  0.2390
  261MOL0     H35213   9.961   1.892   9.245 -0.8554  1.7354 -0.5888
  261MOL0     H35214  10.089   1.874   9.129  1.4355 -2.1214  1.3738
  261MOL0     H35215   9.986   1.172   8.667  1.6422  0.5719 -0.6843
  261MOL0     H35216   9.925   1.039   8.481  1.1248 -0.0352 -1.9787
  261MOL0     H35217  10.299   0.690   8.068  0.6647  0.0194  1.2868
  261MOL0     H35218  10.205   0.642   7.845 -0.5747 -2.5164  0.9840
  261MOL0     H35219   9.140   1.421   6.123  0.5674 -0.6377  0.0074
  261MOL0     H35220   9.217   1.649   6.043  4.2731  1.9066  1.0382
  261MOL0     H35221   9.586   1.978   6.178  0.2818  0.2326 -0.9812
  261MOL0     H35222   9.694   2.182   6.175  0.5527  4.2379 -2.8785
  261MOL0     H35223   9.536   2.528   5.905  2.1653  3.7653 -0.5968
  261MOL0     H35224   9.667   2.591   5.998  0.2638 -0.3116 -0.1291
  261MOL0     H35225   9.522   2.662   6.184 -0.4680  4.3044 -1.3992
  261MOL0     H35226   9.394   2.550   6.130  0.0886  0.7457 -1.0164
  261MOL0     H35227   9.375   2.703   5.924 -0.1655  2.6275 -0.5272
  261MOL0     H35228   9.521   2.792   5.993  0.1468  1.7464  4.1540
  261MOL0     H35229   9.393   2.882   6.169  4.9755 -2.1493 -1.0623
  261MOL0     H35230   9.329   2.920   6.012 -2.5910 -0.6342 -1.8892
  261MOL0     H35231   8.987   2.794   6.187  0.7319  0.5892  1.3459
  261MOL0     H35232   9.384   2.368   5.950  3.3781  2.4040  0.3659
  261MOL0     H35233   9.164   2.256   5.934  0.3321 -0.2424  1.8193
  261MOL0     H35234   9.222   2.134   5.837 -1.9050 -2.7567  0.4970
  261MOL0     H35235   9.147   2.084   5.991 -1.0061 -1.2115 -1.9100
  262MOL0     O35236   7.675   3.572   1.160  0.5292  0.9647  0.4415
  262MOL0     C35237   7.776   3.636   1.133  0.6506 -0.2921 -0.6671
  262MOL0     O35238   7.867   3.688   1.223 -0.0328  1.1178  0.2534
  262MOL0     C35239   7.818   3.702   1.348  0.0506  0.0916  0.8628
  262MOL0     C35240   7.721   3.803   1.381 -0.0615 -0.5881  0.6659
  262MOL0     C35241   7.673   3.816   1.513  0.8374  0.2010 -0.3343
  262MOL0     C35242   7.727   3.741   1.622 -0.6899 -0.4278 -0.0626
  262MOL0     O35243   7.678   3.743   1.754 -0.5699  0.3903  0.0539
  262MOL0     C35244   7.545   3.790   1.775 -0.2190 -0.4547  0.2481
  262MOL0     C35245   7.515   3.771   1.920 -0.2029 -0.0510 -0.2378
  262MOL0     C35246   7.372   3.806   1.949  1.5054  0.0649 -0.1370
  262MOL0     C35247   7.328   3.807   2.098  0.4611  0.1924 -0.1467
  262MOL0     C35248   7.217   3.913   2.126  0.3116 -0.3454  0.1540
  262MOL0     C35249   7.071   3.878   2.069  0.4009 -0.2616  0.5465
  262MOL0     C35250   6.983   4.007   2.074 -0.0297 -0.4811  0.7909
  262MOL0     C35251   6.874   3.994   1.961 -0.2066 -0.6063  0.4111
  262MOL0     N35252   6.776   4.106   1.966  0.4635  0.4010 -0.0525
  262MOL0     C35253   6.734   4.166   2.089 -0.8857  0.2066 -0.5624
  262MOL0     C35254   6.648   4.261   2.053  0.4486 -0.1210 -0.6007
  262MOL0     C35255   6.571   4.348   2.144 -0.6618  0.0461  0.6925
  262MOL0     C35256   6.446   4.275   2.200  0.8817  0.2814 -0.6321
  262MOL0     C35257   6.346   4.218   2.098 -0.1738  0.3075 -0.2790
  262MOL0     C35258   6.305   4.328   2.004 -0.1133  0.5743  0.4782
  262MOL0     O35259   6.229   4.251   1.915  0.2039 -0.4204 -0.1461
  262MOL0     C35260   6.089   4.248   1.924 -0.7603 -0.7400 -0.1956
  262MOL0     C35261   6.020   4.170   1.833  0.5805  0.0480  0.9725
  262MOL0     C35262   5.879   4.147   1.846 -0.1227 -0.7759 -0.3744
  262MOL0     C35263   5.811   4.196   1.961 -0.0954  0.1122 -0.6436
  262MOL0     C35264   5.666   4.184   1.975  0.0117  0.9450  0.5491
  262MOL0     O35265   5.624   4.071   1.917 -0.4744 -0.9567 -0.8417
  262MOL0     C35266   5.498   4.036   1.960  0.6484 -0.0177  0.6987
  262MOL0     C35267   5.479   3.999   2.097 -0.7155  0.0965  1.0318
  262MOL0     C35268   5.361   3.953   2.137  0.2883 -0.8393 -0.1986
  262MOL0     C35269   5.247   3.951   2.046 -0.2532 -0.0827 -0.2007
  262MOL0     O35270   5.125   3.909   2.081  0.7966  0.3251  0.4366
  262MOL0     C35271   5.114   3.840   2.210  0.0658  0.0187  0.9752
  262MOL0     C35272   5.001   3.732   2.201 -0.7688 -0.2121 -0.1276
  262MOL0     C35273   4.853   3.785   2.202 -0.2066 -0.3882  0.1594
  262MOL0     C35274   4.799   3.815   2.060 -0.1727  0.1657 -0.0417
  262MOL0     C35275   4.660   3.768   2.027  0.7567 -0.7495 -0.9856
  262MOL0     C35276   4.560   3.883   2.069 -0.4043 -0.3832 -0.3765
  262MOL0     C35277   4.572   3.960   2.205  0.7497  0.2761  0.0583
  262MOL0     C35278   4.486   4.087   2.210  0.2020  0.2097  0.0237
  262MOL0    Cl35279   4.559   4.227   2.119 -0.6336 -0.1032 -0.1270
  262MOL0     C35280   5.267   3.997   1.911 -0.2097  0.0708 -0.0409
  262MOL0     C35281   5.394   4.026   1.869  0.8940 -0.0976 -0.0441
  262MOL0     O35282   5.591   4.261   2.031  0.0469 -0.3883 -0.0494
  262MOL0     C35283   5.877   4.280   2.052 -0.5477  0.4189  0.2772
  262MOL0     C35284   6.015   4.301   2.032  0.0192 -0.3352  0.2737
  262MOL0     N35285   6.636   4.263   1.915 -0.3328 -0.4791 -0.0047
  262MOL0     N35286   6.725   4.188   1.862 -0.1910 -0.6061 -0.3243
  262MOL0     C35287   7.832   3.655   1.591  0.1471 -0.4008  0.1583
  262MOL0     C35288   7.871   3.637   1.456  0.5793  0.2898  0.1172
  262MOL0     C35289   7.804   3.657   0.987  0.4357 -0.1982  0.0513
  262MOL0     C35290   7.938   3.652   0.953 -1.0195  0.3091 -0.5818
  262MOL0     C35291   7.985   3.685   0.826  0.1557  0.3878 -0.0700
  262MOL0     C35292   7.897   3.721   0.724  0.1665 -0.4096 -0.6081
  262MOL0     O35293   7.939   3.743   0.593  0.0421  0.4788 -0.2882
  262MOL0     C35294   7.880   3.842   0.513 -0.8933  0.6069  0.0332
  262MOL0     C35295   7.977   3.890   0.408  0.4371  0.3717 -0.3822
  262MOL0     C35296   8.112   3.936   0.471  0.0089  1.4527  1.2584
  262MOL0     C35297   8.226   3.956   0.359  0.3987 -0.9521  0.0247
  262MOL0     C35298   8.189   4.073   0.280  0.6534  0.1176  0.8249
  262MOL0     C35299   8.179   4.176   0.216  0.5360 -0.5427  0.2315
  262MOL0     C35300   7.758   3.731   0.752  0.4087 -0.2786  0.1186
  262MOL0     C35301   7.711   3.696   0.887  1.2745 -1.7146  0.0969
  262MOL0     C35302   7.565   3.723   0.931 -0.2578 -0.8525  1.1103
  262MOL0     H35303   7.688   3.869   1.302 -0.7269 -1.6064  0.0784
  262MOL0     H35304   7.584   3.867   1.549  1.0988 -0.4250  1.2462
  262MOL0     H35305   7.526   3.894   1.745  3.3762 -0.8912 -4.7737
  262MOL0     H35306   7.481   3.727   1.712 -0.2208  1.5804 -1.9311
  262MOL0     H35307   7.584   3.828   1.984  2.5567 -1.2634 -1.9593
  262MOL0     H35308   7.523   3.663   1.937 -1.6869 -0.4314 -1.7150
  262MOL0     H35309   7.296   3.753   1.891  0.8647  2.6648 -1.8668
  262MOL0     H35310   7.359   3.909   1.914 -1.0358 -0.7787 -1.9625
  262MOL0     H35311   7.299   3.706   2.129  0.8699 -0.9246 -3.0404
  262MOL0     H35312   7.417   3.840   2.152  2.7968 -1.6673 -2.5534
  262MOL0     H35313   7.211   3.939   2.232 -0.1287  0.3585 -0.0381
  262MOL0     H35314   7.244   4.007   2.079  1.3322 -0.3465  0.7160
  262MOL0     H35315   7.087   3.844   1.966  1.9118  2.8638 -0.3979
  262MOL0     H35316   7.027   3.788   2.112  1.1901 -0.1245  1.6709
  262MOL0     H35317   7.040   4.100   2.065 -1.5183  0.4327  0.2796
  262MOL0     H35318   6.950   4.000   2.178 -0.5765 -3.2964  0.5110
  262MOL0     H35319   6.921   3.996   1.862 -1.7714  2.4569 -0.4047
  262MOL0     H35320   6.815   3.901   1.962  0.2764 -0.9764 -1.5790
  262MOL0     H35321   6.758   4.142   2.192 -0.9459  0.2857 -0.5295
  262MOL0     H35322   6.635   4.390   2.222  0.2725  0.2257 -0.1475
  262MOL0     H35323   6.542   4.439   2.089  1.4228 -0.2534 -1.0449
  262MOL0     H35324   6.480   4.193   2.264  2.8361  0.2272 -1.6585
  262MOL0     H35325   6.398   4.350   2.264 -1.0026 -0.8226 -0.6739
  262MOL0     H35326   6.254   4.188   2.150 -1.9804  3.9524 -1.0941
  262MOL0     H35327   6.379   4.132   2.039 -1.2059  1.4767 -2.6983
  262MOL0     H35328   6.393   4.363   1.949  0.4748 -1.8571 -0.2820
  262MOL0     H35329   6.256   4.410   2.056  0.2077 -0.5243  2.5985
  262MOL0     H35330   6.081   4.128   1.754 -1.1275 -1.7099  0.4842
  262MOL0     H35331   5.835   4.086   1.768  2.4879 -1.3875 -1.4730
  262MOL0     H35332   5.566   4.017   2.159 -0.5978 -2.2186  1.6113
  262MOL0     H35333   5.359   3.930   2.244 -2.2447  2.2412  0.5459
  262MOL0     H35334   5.206   3.789   2.240  0.6416  1.4814  1.8051
  262MOL0     H35335   5.083   3.912   2.286 -0.5060 -1.0862  1.8198
  262MOL0     H35336   5.020   3.681   2.105  0.8119 -0.9763  0.5514
  262MOL0     H35337   5.007   3.660   2.283 -3.1001 -1.5960 -1.0789
  262MOL0     H35338   4.787   3.704   2.236  2.7628 -1.7779  3.2727
  262MOL0     H35339   4.852   3.877   2.260  1.0987 -0.4177  0.2603
  262MOL0     H35340   4.869   3.758   1.998 -0.8947 -0.7359 -0.0613
  262MOL0     H35341   4.807   3.920   2.032  2.5246  0.2278  0.7169
  262MOL0     H35342   4.632   3.673   2.074 -3.5948  0.4387 -0.7826
  262MOL0     H35343   4.656   3.756   1.918  3.0036 -0.5415 -1.1323
  262MOL0     H35344   4.558   3.963   1.994 -0.5025 -1.9090 -2.0848
  262MOL0     H35345   4.460   3.840   2.073 -2.0382  2.9618 -1.5849
  262MOL0     H35346   4.674   3.998   2.217  0.1825  1.7382  0.4598
  262MOL0     H35347   4.546   3.899   2.292 -2.0877  1.2196 -0.0322
  262MOL0     H35348   4.389   4.047   2.178  0.4335  0.4578 -1.0192
  262MOL0     H35349   4.474   4.126   2.312  0.7063  1.2935 -0.3097
  262MOL0     H35350   5.184   4.004   1.841 -1.6150 -0.2080  1.5524
  262MOL0     H35351   5.414   4.065   1.770  2.2959  1.6292  0.8680
  262MOL0     H35352   5.828   4.306   2.145  1.9424  1.2178  1.4566
  262MOL0     H35353   6.071   4.353   2.109  0.7510  1.8967 -1.6712
  262MOL0     H35354   7.881   3.600   1.671 -1.7525 -2.1514  0.2122
  262MOL0     H35355   7.954   3.569   1.437 -0.5811 -0.8643 -1.0861
  262MOL0     H35356   8.014   3.645   1.031 -2.5217  1.7276  1.1090
  262MOL0     H35357   8.093   3.690   0.819  0.2871  0.5168  1.7191
  262MOL0     H35358   7.842   3.922   0.577 -2.0565  0.0559  0.0644
  262MOL0     H35359   7.791   3.799   0.466 -3.4040  1.1916  3.7878
  262MOL0     H35360   7.933   3.969   0.347  1.0275  0.2631 -0.9560
  262MOL0     H35361   7.998   3.812   0.334  0.2986  0.4625 -0.5164
  262MOL0     H35362   8.156   3.857   0.533 -0.9221  0.4408  0.6437
  262MOL0     H35363   8.085   4.027   0.525 -2.6327 -0.0519  2.6861
  262MOL0     H35364   8.322   3.976   0.408  0.3026 -0.0544 -0.1291
  262MOL0     H35365   8.231   3.864   0.300  0.8594 -0.2865 -1.0005
  262MOL0     H35366   8.164   4.272   0.172 -0.9177 -0.2974  1.1909
  262MOL0     H35367   7.681   3.756   0.680 -0.9189 -0.5809  1.3815
  262MOL0     H35368   7.510   3.628   0.928 -0.8262 -0.6196  2.8088
  262MOL0     H35369   7.559   3.749   1.038 -1.8774 -2.0697  1.3492
  262MOL0     H35370   7.518   3.799   0.868  1.2523  1.7611  2.9320
  263MOL0     O35371   8.345   0.283   7.016 -0.1251  0.4563  0.5264
  263MOL0     C35372   8.227   0.323   7.029 -1.2294  0.2235  1.0318
  263MOL0     O35373   8.131   0.263   7.105 -0.3383 -0.9095  0.3532
  263MOL0     C35374   8.162   0.185   7.204 -0.2599  0.5149 -0.3912
  263MOL0     C35375   8.095   0.059   7.186 -0.1366 -0.4468  0.0342
  263MOL0     C35376   8.122  -0.044   7.276 -0.1467 -0.0318 -0.8583
  263MOL0     C35377   8.217  -0.027   7.384 -0.2365 -0.8850  0.1227
  263MOL0     O35378   8.245  -0.130   7.465  0.3762 -0.1524 -0.5026
  263MOL0     C35379   8.378  -0.182   7.465  0.3203  1.1982 -0.3612
  263MOL0     C35380   8.388  -0.291   7.570 -0.4623  0.7172  0.8694
  263MOL0     C35381   8.534  -0.326   7.598  1.2714  0.3513  0.0910
  263MOL0     C35382   8.570  -0.461   7.556 -0.5060 -0.0110  0.4993
  263MOL0     C35383   8.521  -0.578   7.648  0.3695 -0.0037 -0.2063
  263MOL0     C35384   8.559  -0.716   7.599 -0.3035  0.0763 -0.3365
  263MOL0     C35385   8.712  -0.728   7.594  0.0085  0.0890 -0.8566
  263MOL0     C35386   8.755  -0.871   7.558  0.5009  0.4031  0.2807
  263MOL0     N35387   8.713  -0.967   7.663  0.1784  0.2055  0.3454
  263MOL0     C35388   8.759  -0.976   7.792 -0.2255  0.6428 -0.0215
  263MOL0     C35389   8.704  -1.095   7.837 -0.9633 -0.0948 -1.7828
  263MOL0     C35390   8.741  -1.163   7.963 -0.5005 -0.1119  0.8547
  263MOL0     C35391   8.675  -1.101   8.083 -0.2129  1.9403  0.3560
  263MOL0     C35392   8.727  -0.969   8.123 -0.3217 -0.5785  1.1278
  263MOL0     C35393   8.696  -0.943   8.270  0.0001  1.5136 -0.2553
  263MOL0     O35394   8.759  -1.029   8.358  0.2254  0.3831 -0.1039
  263MOL0     C35395   8.708  -1.040   8.486 -0.1119 -0.5690  1.1811
  263MOL0     C35396   8.763  -1.134   8.557 -0.7607  0.1211  0.4886
  263MOL0     C35397   8.716  -1.150   8.693 -0.1520 -0.1413 -0.5928
  263MOL0     C35398   8.632  -1.053   8.761 -0.7718  0.3666 -0.4315
  263MOL0     C35399   8.596  -1.074   8.902 -0.8605  0.5204  0.3141
  263MOL0     O35400   8.591  -1.202   8.940  0.1845  0.2771 -0.3202
  263MOL0     C35401   8.530  -1.245   9.055 -0.1428 -0.6329 -1.0448
  263MOL0     C35402   8.428  -1.176   9.121 -0.4965  0.7345  0.0042
  263MOL0     C35403   8.377  -1.221   9.239 -0.3330 -0.1276  0.4003
  263MOL0     C35404   8.435  -1.327   9.301 -0.4834  0.2896 -0.1815
  263MOL0     O35405   8.363  -1.354   9.409  0.3645  0.0491 -0.0730
  263MOL0     C35406   8.428  -1.410   9.527 -0.4091  0.2307 -0.5370
  263MOL0     C35407   8.340  -1.524   9.585  0.4588 -0.0790  0.5567
  263MOL0     C35408   8.381  -1.588   9.720  0.8585  0.3599 -0.0419
  263MOL0     C35409   8.270  -1.664   9.794  0.9492 -0.0401  0.5087
  263MOL0     C35410   8.308  -1.681   9.941 -0.5313 -0.2396  0.4108
  263MOL0     C35411   8.191  -1.691  10.042 -0.4713 -0.0644 -0.2940
  263MOL0     C35412   8.231  -1.748  10.175 -0.1468 -0.4094  0.5284
  263MOL0     C35413   8.116  -1.739  10.275 -0.2897  0.2788 -0.2398
  263MOL0    Cl35414   8.160  -1.825  10.428  0.0345  0.5116  0.7654
  263MOL0     C35415   8.539  -1.405   9.245  0.4400 -0.5487 -0.4832
  263MOL0     C35416   8.592  -1.361   9.121  0.0175  0.2881  0.1599
  263MOL0     O35417   8.553  -0.970   8.963 -0.8270 -0.1163  0.0255
  263MOL0     C35418   8.587  -0.949   8.680  0.2506 -0.3800 -0.8609
  263MOL0     C35419   8.630  -0.938   8.546 -0.1564  0.0868 -0.1617
  263MOL0     N35420   8.620  -1.142   7.744  0.4397  0.0808 -0.7170
  263MOL0     N35421   8.635  -1.076   7.637  0.5763 -0.7546 -0.1368
  263MOL0     C35422   8.270   0.101   7.408 -0.6479 -0.3552  0.2710
  263MOL0     C35423   8.241   0.206   7.318 -0.1737 -0.4820  0.1022
  263MOL0     C35424   8.196   0.454   6.958 -0.6428 -0.3286 -0.9963
  263MOL0     C35425   8.306   0.532   6.927  0.6404 -0.2117 -0.2322
  263MOL0     C35426   8.304   0.661   6.882  0.7943  0.7251  0.0766
  263MOL0     C35427   8.179   0.711   6.845 -0.4265  1.0045 -0.3528
  263MOL0     O35428   8.173   0.848   6.807 -0.4385  0.3440  0.5615
  263MOL0     C35429   8.054   0.899   6.740 -0.4087  0.2863  0.9157
  263MOL0     C35430   8.072   1.024   6.658  0.6121 -0.3231  0.6602
  263MOL0     C35431   7.938   1.078   6.594 -0.8991  0.4072 -0.3288
  263MOL0     C35432   7.954   1.201   6.492  0.6607 -1.3652  0.8021
  263MOL0     C35433   8.055   1.301   6.525  0.2924  0.7571  0.0405
  263MOL0     C35434   8.144   1.376   6.537  0.4128 -1.0060  0.6835
  263MOL0     C35435   8.069   0.635   6.882  0.1678  0.6767 -0.7457
  263MOL0     C35436   8.071   0.508   6.938  0.1310  0.8798  0.3246
  263MOL0     C35437   7.946   0.438   6.975  0.1330 -0.3908 -1.0793
  263MOL0     H35438   8.020   0.050   7.108 -0.1475  1.9821 -0.3036
  263MOL0     H35439   8.069  -0.138   7.277 -0.2336 -0.0226  1.8951
  263MOL0     H35440   8.392  -0.240   7.373 -0.7448 -2.9850  1.8665
  263MOL0     H35441   8.445  -0.097   7.484  2.1343 -0.5088  1.4613
  263MOL0     H35442   8.323  -0.378   7.554  0.9523 -0.5813  1.8778
  263MOL0     H35443   8.340  -0.250   7.660 -1.8980 -1.2452  1.0600
  263MOL0     H35444   8.555  -0.317   7.705  2.0269 -3.4504  0.3891
  263MOL0     H35445   8.591  -0.246   7.549  1.8632 -2.0304 -3.5324
  263MOL0     H35446   8.510  -0.477   7.466  0.8856  0.2923 -0.5164
  263MOL0     H35447   8.675  -0.480   7.537 -0.4110  1.0291 -0.1121
  263MOL0     H35448   8.569  -0.559   7.745 -0.6076 -2.2000  0.7998
  263MOL0     H35449   8.414  -0.568   7.665  0.1152 -3.9221  1.6303
  263MOL0     H35450   8.510  -0.793   7.660 -2.0917  2.4562  1.3787
  263MOL0     H35451   8.514  -0.723   7.500  0.4280 -1.3868 -0.5947
  263MOL0     H35452   8.760  -0.706   7.690 -1.4873 -0.1946 -0.0009
  263MOL0     H35453   8.751  -0.661   7.517  1.0922 -0.3420 -0.7067
  263MOL0     H35454   8.698  -0.903   7.470  0.6876 -2.8029  1.2184
  263MOL0     H35455   8.860  -0.885   7.533 -0.1533 -3.4283 -0.9376
  263MOL0     H35456   8.833  -0.918   7.846 -2.8680  1.9445  2.4459
  263MOL0     H35457   8.725  -1.270   7.945  0.1730 -0.3140  1.3711
  263MOL0     H35458   8.849  -1.155   7.980  0.2931 -0.9800 -2.7594
  263MOL0     H35459   8.567  -1.095   8.064  0.2630  3.2074 -2.4411
  263MOL0     H35460   8.688  -1.179   8.159 -1.3486  1.5567  0.1866
  263MOL0     H35461   8.684  -0.890   8.061  0.2276 -1.6988 -0.7462
  263MOL0     H35462   8.835  -0.969   8.109 -0.3729  1.0824  0.5059
  263MOL0     H35463   8.588  -0.945   8.282  0.0846  0.9435  0.4649
  263MOL0     H35464   8.728  -0.842   8.296  2.2345  1.0561 -0.9405
  263MOL0     H35465   8.836  -1.203   8.514 -1.0674 -0.7689  1.3339
  263MOL0     H35466   8.763  -1.230   8.749  2.9209  0.0121 -2.6857
  263MOL0     H35467   8.389  -1.089   9.070  0.0462  0.5453 -0.7429
  263MOL0     H35468   8.290  -1.165   9.271 -1.9493  0.5639 -4.4038
  263MOL0     H35469   8.526  -1.457   9.514 -0.2275  0.7166 -0.9718
  263MOL0     H35470   8.451  -1.332   9.601  2.7028 -2.3083  1.4538
  263MOL0     H35471   8.245  -1.475   9.605 -0.7518 -0.5573 -3.1627
  263MOL0     H35472   8.332  -1.608   9.514  1.5503  0.2289  0.0468
  263MOL0     H35473   8.465  -1.656   9.703 -1.1328 -1.6722 -2.5692
  263MOL0     H35474   8.404  -1.504   9.785 -0.0338  3.4278 -3.3954
  263MOL0     H35475   8.264  -1.763   9.747  2.0595  0.6694 -1.2322
  263MOL0     H35476   8.189  -1.592   9.785  0.4678 -0.7871 -1.9258
  263MOL0     H35477   8.359  -1.593   9.981 -1.4399  1.0226 -1.0896
  263MOL0     H35478   8.373  -1.769   9.946 -0.3744 -0.2368 -1.0016
  263MOL0     H35479   8.144  -1.594  10.064 -2.4196 -0.4689 -2.2366
  263MOL0     H35480   8.123  -1.762   9.994  3.6071 -2.5722 -2.9652
  263MOL0     H35481   8.297  -1.679  10.228 -1.5453  1.1187  0.3882
  263MOL0     H35482   8.272  -1.848  10.170  0.4975 -0.1091 -0.3645
  263MOL0     H35483   8.093  -1.634  10.297  0.7754  0.0564  2.3677
  263MOL0     H35484   8.031  -1.789  10.228  0.6599 -3.5657  1.7497
  263MOL0     H35485   8.593  -1.486   9.293 -0.6150 -1.9327 -1.5323
  263MOL0     H35486   8.683  -1.395   9.071 -1.2226  2.4263 -4.0496
  263MOL0     H35487   8.520  -0.884   8.736  0.4204 -1.5437  0.7547
  263MOL0     H35488   8.612  -0.855   8.478 -0.0337 -0.7844 -1.2896
  263MOL0     H35489   8.305   0.104   7.511 -1.0519  0.9157  0.3767
  263MOL0     H35490   8.259   0.311   7.343 -3.0094  0.1034 -0.0159
  263MOL0     H35491   8.404   0.486   6.930  0.7523  0.0849  1.1371
  263MOL0     H35492   8.400   0.708   6.860  0.3891  0.8887 -1.4856
  263MOL0     H35493   7.969   0.915   6.806 -3.0498 -0.6882 -1.9993
  263MOL0     H35494   8.029   0.824   6.664  2.1259  0.8742 -0.6331
  263MOL0     H35495   8.144   0.999   6.579  1.3136 -0.7911  1.4285
  263MOL0     H35496   8.118   1.100   6.722  1.7143  0.4399 -0.9722
  263MOL0     H35497   7.876   1.115   6.676 -1.4294 -3.3945  1.2330
  263MOL0     H35498   7.882   1.001   6.539 -0.4463  1.1707 -1.8969
  263MOL0     H35499   7.969   1.179   6.386  1.3906  2.2023  0.0297
  263MOL0     H35500   7.856   1.251   6.495 -0.5157 -3.5932  1.2900
  263MOL0     H35501   8.222   1.447   6.518 -2.1386  1.9774  0.6680
  263MOL0     H35502   7.972   0.677   6.857  0.6909  1.2318 -1.9156
  263MOL0     H35503   7.960   0.329   6.975 -0.9301 -0.5471 -0.0924
  263MOL0     H35504   7.915   0.453   7.079 -2.9554 -1.5560 -1.7395
  263MOL0     H35505   7.863   0.474   6.913  0.4742  3.8970  0.6010
  264MOL0     O35506  10.947   0.833   5.849 -0.3690 -0.5375  0.2676
  264MOL0     C35507  10.992   0.824   5.961  0.1663  0.2352 -0.9635
  264MOL0     O35508  11.078   0.920   6.015 -0.0474 -0.7132 -0.0491
  264MOL0     C35509  11.162   1.005   5.943  0.0660  0.0725 -1.1096
  264MOL0     C35510  11.219   1.120   5.994  0.1854  0.4051  0.2220
  264MOL0     C35511  11.286   1.212   5.916 -0.8614 -0.3368  0.2043
  264MOL0     C35512  11.306   1.196   5.781  0.1033 -0.8464  0.4714
  264MOL0     O35513  11.390   1.271   5.695  0.3358  0.2465 -0.0268
  264MOL0     C35514  11.466   1.381   5.760  0.1227  0.3877  0.8426
  264MOL0     C35515  11.600   1.317   5.796 -0.0083 -0.2719 -0.8154
  264MOL0     C35516  11.711   1.343   5.697  0.2140 -0.7433  0.0321
  264MOL0     C35517  11.849   1.300   5.731 -0.5289  0.4083 -0.2916
  264MOL0     C35518  11.914   1.394   5.837  0.7566 -0.2495  0.1681
  264MOL0     C35519  11.950   1.533   5.783  0.5921  0.4415 -0.5056
  264MOL0     C35520  12.026   1.531   5.654  0.3844 -0.8121  0.0245
  264MOL0     C35521  12.102   1.658   5.618 -0.3337 -0.4545  0.1684
  264MOL0     N35522  12.183   1.645   5.488  0.6279 -0.1524  0.2505
  264MOL0     C35523  12.150   1.642   5.354 -0.1904 -0.2475 -0.3309
  264MOL0     C35524  12.264   1.610   5.295 -0.7935 -1.1262 -1.0050
  264MOL0     C35525  12.294   1.614   5.156  0.5093  0.4429  0.0444
  264MOL0     C35526  12.261   1.745   5.096  0.9344 -0.6944  0.7045
  264MOL0     C35527  12.369   1.861   5.139  0.1983 -0.1926 -0.2433
  264MOL0     C35528  12.282   1.972   5.205 -1.2204  0.2053  0.5734
  264MOL0     O35529  12.195   2.016   5.106  0.3156  0.1537 -0.0172
  264MOL0     C35530  12.091   2.101   5.148 -0.7031  0.6182  0.5283
  264MOL0     C35531  11.978   2.072   5.078  0.2260  1.2196 -0.2034
  264MOL0     C35532  11.853   2.123   5.124  0.0159  0.7599  0.9981
  264MOL0     C35533  11.838   2.185   5.250 -0.2734 -0.0858 -0.7520
  264MOL0     C35534  11.711   2.231   5.305 -1.2191  1.2355  0.3408
  264MOL0     O35535  11.716   2.317   5.411  0.5041 -0.1088  0.0818
  264MOL0     C35536  11.601   2.368   5.475 -0.2771 -0.6301 -0.5225
  264MOL0     C35537  11.493   2.431   5.409 -0.9190  0.2259  0.6316
  264MOL0     C35538  11.395   2.484   5.486 -0.1072 -0.2957  0.3218
  264MOL0     C35539  11.400   2.484   5.634 -0.3657 -0.2932  0.6369
  264MOL0     O35540  11.332   2.553   5.720 -0.1893  0.0499  1.0643
  264MOL0     C35541  11.208   2.598   5.681  1.3444 -0.6515 -0.7833
  264MOL0     C35542  11.127   2.610   5.824 -0.8061 -0.2793  0.6502
  264MOL0     C35543  11.156   2.509   5.930  0.3945  0.0427 -0.4204
  264MOL0     C35544  11.067   2.539   6.056 -0.6473  0.1599 -0.0578
  264MOL0     C35545  11.114   2.465   6.189  0.6498 -0.5921 -0.6052
  264MOL0     C35546  11.242   2.505   6.259 -0.3540  0.1623  0.6523
  264MOL0     C35547  11.253   2.421   6.392 -0.5753  0.0137  0.1724
  264MOL0     C35548  11.386   2.433   6.453 -0.7273  0.0683 -0.2555
  264MOL0    Cl35549  11.386   2.328   6.605 -0.0200 -0.0081  0.1290
  264MOL0     C35550  11.504   2.409   5.689 -0.2510  0.1496  0.1852
  264MOL0     C35551  11.610   2.362   5.611  0.4297 -0.1321 -0.2055
  264MOL0     O35552  11.609   2.182   5.253 -0.2354  0.8245 -0.1128
  264MOL0     C35553  11.956   2.208   5.320 -0.5700 -0.6439  0.0654
  264MOL0     C35554  12.080   2.167   5.265 -0.2494 -0.4861 -0.0872
  264MOL0     N35555  12.363   1.589   5.390 -0.0518 -0.2095 -0.4411
  264MOL0     N35556  12.315   1.611   5.503  0.1454 -0.3612  0.0478
  264MOL0     C35557  11.265   1.074   5.729 -0.0179  0.1051 -0.2236
  264MOL0     C35558  11.192   0.987   5.811  0.4239  0.4991  0.4146
  264MOL0     C35559  10.962   0.706   6.050 -0.3820 -0.7065  0.4659
  264MOL0     C35560  11.030   0.705   6.181  0.4842  1.1312  0.8616
  264MOL0     C35561  11.000   0.609   6.283  0.4187  0.4704  0.7008
  264MOL0     C35562  10.897   0.516   6.264 -0.3722 -0.1508  1.3993
  264MOL0     O35563  10.879   0.438   6.370  0.4695 -0.6053  1.1273
  264MOL0     C35564  10.787   0.327   6.360 -0.5023  0.0959  0.0522
  264MOL0     C35565  10.767   0.252   6.496  0.8727  0.0361  0.4239
  264MOL0     C35566  10.863   0.133   6.513  0.1258 -1.0882  0.0195
  264MOL0     C35567  10.813  -0.007   6.458 -0.3749 -0.1656 -0.1773
  264MOL0     C35568  10.702  -0.066   6.520 -0.2690 -1.0067  0.2773
  264MOL0     C35569  10.612  -0.136   6.562 -0.0534  0.2822 -0.4724
  264MOL0     C35570  10.824   0.527   6.138 -0.2774 -0.3106 -0.8962
  264MOL0     C35571  10.859   0.614   6.036 -0.5806 -0.2072 -0.4208
  264MOL0     C35572  10.775   0.616   5.912 -0.6838 -0.2994 -0.7191
  264MOL0     H35573  11.227   1.133   6.101  2.7171  2.7115 -0.1313
  264MOL0     H35574  11.338   1.294   5.964 -1.6055  1.5118 -1.9743
  264MOL0     H35575  11.486   1.457   5.684  2.4866 -1.2937 -0.3426
  264MOL0     H35576  11.415   1.435   5.841  0.1108 -0.3411  1.3298
  264MOL0     H35577  11.592   1.215   5.835  0.2606  0.6765  1.9450
  264MOL0     H35578  11.633   1.366   5.888 -0.4639 -2.7755  0.7791
  264MOL0     H35579  11.712   1.444   5.657  0.6808 -0.3227  1.0672
  264MOL0     H35580  11.677   1.275   5.618 -1.1023 -2.1510  1.7101
  264MOL0     H35581  11.836   1.202   5.779  1.3639 -0.4297 -1.3931
  264MOL0     H35582  11.910   1.304   5.640  3.3000 -1.4243  1.9215
  264MOL0     H35583  11.853   1.407   5.927 -1.9566  1.9029 -1.8187
  264MOL0     H35584  12.008   1.345   5.864  1.3676  0.5296 -0.5256
  264MOL0     H35585  11.852   1.579   5.773 -1.1718 -2.8251  0.5515
  264MOL0     H35586  12.029   1.576   5.846  1.3821  0.2768 -1.3686
  264MOL0     H35587  11.959   1.504   5.572  1.5870 -0.2494 -1.1810
  264MOL0     H35588  12.103   1.453   5.657  2.1360  0.6880 -2.2846
  264MOL0     H35589  12.025   1.735   5.610 -2.2319 -2.0004  2.3332
  264MOL0     H35590  12.170   1.682   5.700  0.5872  1.9349 -1.1943
  264MOL0     H35591  12.066   1.661   5.288  1.5573 -2.8006 -3.5647
  264MOL0     H35592  12.393   1.581   5.123 -0.6626 -1.1535 -2.0995
  264MOL0     H35593  12.230   1.539   5.108 -1.8555  3.2816 -1.5796
  264MOL0     H35594  12.258   1.729   4.987 -1.6629 -3.6813  1.0715
  264MOL0     H35595  12.158   1.770   5.123  0.1453 -2.1806 -0.7617
  264MOL0     H35596  12.419   1.910   5.054 -2.2833  2.4133 -0.3367
  264MOL0     H35597  12.440   1.826   5.214 -1.8325  1.2343  2.4873
  264MOL0     H35598  12.337   2.060   5.240 -0.4637 -0.0537  0.0506
  264MOL0     H35599  12.226   1.939   5.293 -0.4151 -0.4559  0.8546
  264MOL0     H35600  11.993   2.000   4.998  1.3120  0.3535  0.7441
  264MOL0     H35601  11.764   2.102   5.066  0.2526  0.8168  0.6091
  264MOL0     H35602  11.490   2.439   5.301 -0.6733  3.1354  0.7613
  264MOL0     H35603  11.314   2.532   5.432 -0.0355 -0.3275  0.1838
  264MOL0     H35604  11.214   2.694   5.630  1.5761 -0.7607 -0.9579
  264MOL0     H35605  11.158   2.523   5.619  0.6365 -0.8522  0.0090
  264MOL0     H35606  11.164   2.705   5.864  2.3850 -1.0789 -0.0629
  264MOL0     H35607  11.027   2.621   5.783  0.5731  1.2891 -2.6928
  264MOL0     H35608  11.153   2.406   5.892 -0.6518  0.7991 -2.5534
  264MOL0     H35609  11.261   2.525   5.955  0.2260  2.9983 -1.2778
  264MOL0     H35610  10.961   2.516   6.039 -0.7596 -0.3225  1.2071
  264MOL0     H35611  11.078   2.646   6.074  2.7566  0.1714 -1.4393
  264MOL0     H35612  11.105   2.356   6.178 -3.5642 -0.5912  0.8237
  264MOL0     H35613  11.029   2.475   6.258  0.4922 -3.7175 -0.1857
  264MOL0     H35614  11.332   2.479   6.203  0.1675 -1.0903  2.0069
  264MOL0     H35615  11.238   2.612   6.283 -3.1903  0.7179 -1.7156
  264MOL0     H35616  11.236   2.314   6.375  0.1909  0.0641 -1.0225
  264MOL0     H35617  11.172   2.462   6.453 -0.7177  1.3355 -0.8719
  264MOL0     H35618  11.457   2.404   6.375  0.0104 -2.3108  1.1791
  264MOL0     H35619  11.401   2.539   6.476  1.5104 -0.5512  1.5094
  264MOL0     H35620  11.512   2.409   5.797  3.2095  3.6941  0.1774
  264MOL0     H35621  11.700   2.317   5.651  0.4559  0.3592  0.2954
  264MOL0     H35622  11.955   2.264   5.413 -1.2389  0.8886 -0.8355
  264MOL0     H35623  12.171   2.179   5.322 -0.1555  0.5255 -0.4270
  264MOL0     H35624  11.264   1.061   5.621 -0.4183  5.0173 -1.0575
  264MOL0     H35625  11.160   0.895   5.762  0.2607 -0.2086  1.7901
  264MOL0     H35626  11.098   0.785   6.208 -0.1866  1.0669  2.8712
  264MOL0     H35627  11.069   0.605   6.367 -0.7083 -0.0153  1.6176
  264MOL0     H35628  10.808   0.258   6.277  0.1615  1.6644 -1.1448
  264MOL0     H35629  10.697   0.387   6.341  0.5991  1.7595 -0.0915
  264MOL0     H35630  10.668   0.205   6.495  1.0925 -0.5998  2.4785
  264MOL0     H35631  10.768   0.329   6.574 -0.7717  0.1723  0.3321
  264MOL0     H35632  10.885   0.118   6.620  0.4345 -1.7990 -0.1348
  264MOL0     H35633  10.954   0.165   6.462 -0.8932 -0.1818 -1.2934
  264MOL0     H35634  10.777   0.016   6.357 -1.9083  0.3818  0.4655
  264MOL0     H35635  10.896  -0.078   6.460  0.6042  0.9522  1.9656
  264MOL0     H35636  10.539  -0.203   6.603 -0.9956  0.8137 -1.2299
  264MOL0     H35637  10.731   0.471   6.125  0.4581 -1.0586 -3.7667
  264MOL0     H35638  10.713   0.526   5.924 -3.3471  1.2880 -1.7111
  264MOL0     H35639  10.713   0.706   5.912  0.5930  0.6934  2.4588
  264MOL0     H35640  10.836   0.611   5.821 -0.1583  2.6372 -0.6283
  265MOL0     O35641   7.995   7.056   5.481  0.3939  0.5772  0.7462
  265MOL0     C35642   8.081   7.130   5.533 -0.2820  0.4520 -0.5485
  265MOL0     O35643   8.220   7.100   5.534  0.7223 -0.7984 -0.1769
  265MOL0     C35644   8.240   6.969   5.558 -0.7178 -0.6477  1.4619
  265MOL0     C35645   8.165   6.884   5.645  0.7816 -0.1622  0.3719
  265MOL0     C35646   8.208   6.752   5.677  0.6666 -0.4834  0.4327
  265MOL0     C35647   8.321   6.702   5.621  0.1021 -0.0408  1.0632
  265MOL0     O35648   8.392   6.604   5.678  0.4691 -0.1305  0.2945
  265MOL0     C35649   8.318   6.485   5.728  0.8334  0.4344  0.9511
  265MOL0     C35650   8.366   6.355   5.664 -0.7725  0.2769 -0.4280
  265MOL0     C35651   8.475   6.297   5.757  0.2331  0.1409  1.0114
  265MOL0     C35652   8.561   6.189   5.672 -0.2469  0.2374 -1.5365
  265MOL0     C35653   8.675   6.130   5.755 -0.1862  0.8247 -0.0150
  265MOL0     C35654   8.696   5.993   5.695 -0.8348  0.5941 -0.8151
  265MOL0     C35655   8.834   5.922   5.728 -0.3995  0.1826  0.5090
  265MOL0     C35656   8.938   5.946   5.616  0.0568  0.8949 -0.1123
  265MOL0     N35657   8.980   6.089   5.609 -0.5772  0.2996  0.7557
  265MOL0     C35658   8.959   6.166   5.495  0.3579 -0.4492  0.2052
  265MOL0     C35659   9.023   6.277   5.534  0.0506  0.2620  0.4467
  265MOL0     C35660   9.031   6.388   5.434 -0.1247 -0.6603  0.2743
  265MOL0     C35661   9.177   6.444   5.420  0.9268 -1.0257  0.1243
  265MOL0     C35662   9.199   6.503   5.281  0.8917  0.5458 -0.4115
  265MOL0     C35663   9.109   6.629   5.247  0.6459  0.4919  1.0600
  265MOL0     O35664   8.970   6.595   5.245  0.6273  0.6889  0.2655
  265MOL0     C35665   8.873   6.698   5.223  0.6383 -0.0833 -0.7363
  265MOL0     C35666   8.739   6.681   5.267  0.1022  0.5204 -0.8523
  265MOL0     C35667   8.630   6.766   5.223  0.4100  0.0894 -1.4006
  265MOL0     C35668   8.654   6.881   5.153  1.0465 -0.2686 -0.2402
  265MOL0     C35669   8.543   6.972   5.107  0.2643 -0.2727  0.9002
  265MOL0     O35670   8.415   6.925   5.141 -0.3808 -0.1060 -0.3789
  265MOL0     C35671   8.306   7.002   5.101  1.0940  0.7782 -1.1702
  265MOL0     C35672   8.292   7.068   4.978 -0.1539  0.2117 -0.1239
  265MOL0     C35673   8.176   7.135   4.949  0.4957  1.3185 -0.3741
  265MOL0     C35674   8.063   7.131   5.030 -0.0999 -0.2667 -0.6857
  265MOL0     O35675   7.948   7.197   4.997 -0.2580 -0.2957  0.7034
  265MOL0     C35676   7.823   7.179   5.077  1.0122  0.4691  0.0045
  265MOL0     C35677   7.765   7.035   5.072  0.3054  0.7144 -0.1050
  265MOL0     C35678   7.741   6.995   4.917  0.0830  0.3458 -0.4710
  265MOL0     C35679   7.688   6.847   4.902  0.3875 -0.6793  0.1801
  265MOL0     C35680   7.811   6.745   4.927  0.1899 -0.4488  0.7900
  265MOL0     C35681   7.770   6.615   4.862 -0.6116  0.4776 -1.2071
  265MOL0     C35682   7.817   6.591   4.723  0.2330 -0.5390  0.4227
  265MOL0     C35683   7.801   6.446   4.672 -0.0421 -0.2260  0.3577
  265MOL0    Cl35684   7.898   6.318   4.764  0.1603  0.0019 -0.1208
  265MOL0     C35685   8.072   7.076   5.157  0.1055  0.1164  0.3668
  265MOL0     C35686   8.189   7.010   5.190 -1.0113 -0.6910  0.4083
  265MOL0     O35687   8.569   7.077   5.047  0.1063  0.4875 -0.4525
  265MOL0     C35688   8.791   6.903   5.110 -0.8329 -0.1650 -0.4626
  265MOL0     C35689   8.896   6.817   5.151 -0.0412 -0.4881 -0.3011
  265MOL0     N35690   9.077   6.264   5.659  0.9749  0.1659 -0.7546
  265MOL0     N35691   9.048   6.150   5.699 -0.9132 -0.0224  0.4458
  265MOL0     C35692   8.397   6.779   5.529  0.3473  0.0966 -0.6965
  265MOL0     C35693   8.355   6.910   5.509  0.1646  0.0270  1.1287
  265MOL0     C35694   8.060   7.276   5.553  0.1415  0.5166 -0.3932
  265MOL0     C35695   7.994   7.347   5.457 -0.2984 -0.4283 -0.5369
  265MOL0     C35696   7.977   7.482   5.470  0.5550  0.0781 -0.2384
  265MOL0     C35697   8.022   7.568   5.571 -0.0217  0.0398  0.0554
  265MOL0     O35698   8.017   7.700   5.595 -0.6181 -0.2646  0.5367
  265MOL0     C35699   7.946   7.778   5.503  0.5628  0.1262 -0.3802
  265MOL0     C35700   8.040   7.805   5.379 -0.0913 -0.2304 -0.5548
  265MOL0     C35701   7.983   7.902   5.275  0.5223  0.3414  0.3484
  265MOL0     C35702   7.876   7.835   5.185  0.4505 -0.0246  0.1928
  265MOL0     C35703   7.907   7.697   5.132  0.8220 -0.7382  1.1160
  265MOL0     C35704   7.933   7.596   5.065  0.5375  0.6418  0.3359
  265MOL0     C35705   8.079   7.488   5.678 -0.1398  0.6094  0.9656
  265MOL0     C35706   8.107   7.350   5.660 -0.5568 -0.4035 -0.1617
  265MOL0     C35707   8.152   7.277   5.780 -1.4005  0.1678 -0.6123
  265MOL0     H35708   8.077   6.908   5.704 -0.6521 -3.7121 -0.0241
  265MOL0     H35709   8.156   6.695   5.753  0.8934 -2.6202 -0.9258
  265MOL0     H35710   8.326   6.479   5.837 -2.5307  0.8430  1.3322
  265MOL0     H35711   8.211   6.493   5.706  0.9037  0.2924  0.5600
  265MOL0     H35712   8.399   6.392   5.566 -3.2209  3.2828 -0.2981
  265MOL0     H35713   8.286   6.281   5.660  0.9188 -1.6981  0.8459
  265MOL0     H35714   8.426   6.246   5.841 -0.1643 -1.6002 -0.2335
  265MOL0     H35715   8.546   6.374   5.787  1.9665 -0.5374 -1.1177
  265MOL0     H35716   8.488   6.112   5.645  2.9311 -3.8478  0.5063
  265MOL0     H35717   8.610   6.232   5.584  0.0743  3.5103  0.0764
  265MOL0     H35718   8.765   6.191   5.749 -0.2398  0.9963  0.7659
  265MOL0     H35719   8.653   6.129   5.862  1.0865 -3.0662  0.3373
  265MOL0     H35720   8.621   5.925   5.735 -2.7586  2.9022 -0.2995
  265MOL0     H35721   8.685   6.001   5.587  2.4040  0.4903 -1.2711
  265MOL0     H35722   8.814   5.815   5.735 -1.2509  0.3470  0.7145
  265MOL0     H35723   8.881   5.939   5.825  0.2326 -0.4501  0.3242
  265MOL0     H35724   9.025   5.890   5.651  0.2419 -0.5322 -2.6144
  265MOL0     H35725   8.904   5.910   5.518  2.5854 -1.7465 -0.1445
  265MOL0     H35726   8.918   6.146   5.397  2.6091 -0.0259 -0.8992
  265MOL0     H35727   9.009   6.344   5.337 -0.2167  1.9042 -0.9516
  265MOL0     H35728   8.951   6.460   5.448  1.0070  0.5785  0.6374
  265MOL0     H35729   9.185   6.504   5.511 -1.5022 -0.2704 -0.0834
  265MOL0     H35730   9.248   6.362   5.432  1.6320 -0.1539  2.6919
  265MOL0     H35731   9.177   6.433   5.200 -0.7186  0.8568 -0.2661
  265MOL0     H35732   9.301   6.542   5.274  0.5063  1.3459 -2.3168
  265MOL0     H35733   9.141   6.670   5.150 -0.6512 -0.4576  0.1882
  265MOL0     H35734   9.114   6.714   5.315  1.1304  1.2019  0.1722
  265MOL0     H35735   8.708   6.593   5.322 -1.0868  2.2740  1.5355
  265MOL0     H35736   8.529   6.766   5.262  0.1945  1.4335 -1.9422
  265MOL0     H35737   8.370   7.054   4.904  1.2715  4.0303  0.3963
  265MOL0     H35738   8.181   7.180   4.851 -0.1844  3.7258  0.6161
  265MOL0     H35739   7.842   7.229   5.172  1.0938  1.6705 -0.6298
  265MOL0     H35740   7.734   7.222   5.032 -0.7806 -1.4042  1.5506
  265MOL0     H35741   7.824   6.954   5.117 -0.7559 -1.1240 -1.8541
  265MOL0     H35742   7.666   7.049   5.116 -0.5970 -1.0045 -1.4430
  265MOL0     H35743   7.663   7.063   4.881 -2.4131 -1.3210  1.4224
  265MOL0     H35744   7.830   7.008   4.855  0.7845 -0.4616  0.3386
  265MOL0     H35745   7.633   6.828   4.809 -1.3670  3.7610  0.0831
  265MOL0     H35746   7.610   6.830   4.977 -0.0691 -1.4680 -0.4506
  265MOL0     H35747   7.827   6.741   5.035  1.3943  2.7037  0.8470
  265MOL0     H35748   7.902   6.777   4.874  0.0908  0.0523  0.9099
  265MOL0     H35749   7.824   6.541   4.920 -4.3996 -0.6239  1.2756
  265MOL0     H35750   7.664   6.598   4.880 -0.1675 -0.0235  1.1718
  265MOL0     H35751   7.922   6.622   4.719 -0.2622  2.1982  4.1438
  265MOL0     H35752   7.764   6.660   4.657  0.1465  0.0810  1.1332
  265MOL0     H35753   7.695   6.422   4.664  0.4783 -2.7066 -0.1040
  265MOL0     H35754   7.828   6.453   4.566 -0.5792  6.3349  0.2658
  265MOL0     H35755   8.001   7.069   5.240  2.9508 -2.3924  2.8295
  265MOL0     H35756   8.216   6.976   5.289  0.4393 -0.4784  0.1033
  265MOL0     H35757   8.825   6.979   5.040 -1.0719 -0.1954 -0.6136
  265MOL0     H35758   8.997   6.841   5.120 -0.6911 -0.1618 -2.3814
  265MOL0     H35759   8.485   6.728   5.491  1.7172 -0.8496  3.2027
  265MOL0     H35760   8.420   6.969   5.445  1.7971 -2.0811  0.7296
  265MOL0     H35761   7.940   7.309   5.371 -1.4325  3.9363 -1.9923
  265MOL0     H35762   7.908   7.529   5.400 -0.3390  0.8516  1.1122
  265MOL0     H35763   7.892   7.866   5.537  0.2355 -0.0725 -0.3765
  265MOL0     H35764   7.858   7.725   5.463 -1.3662  2.8086  0.0486
  265MOL0     H35765   8.070   7.713   5.328 -0.6975 -0.1614 -1.0513
  265MOL0     H35766   8.127   7.851   5.426 -1.5134  0.1170  1.9140
  265MOL0     H35767   8.066   7.952   5.225  3.1423 -1.4812  2.5253
  265MOL0     H35768   7.919   7.980   5.316 -0.3786 -0.5453  0.6841
  265MOL0     H35769   7.784   7.842   5.244  1.2775 -1.7910  1.7957
  265MOL0     H35770   7.856   7.888   5.091 -2.9505 -3.2035 -1.1165
  265MOL0     H35771   7.936   7.511   5.001  0.3876  1.0522 -0.2273
  265MOL0     H35772   8.122   7.538   5.764  0.5083  1.4711  0.1676
  265MOL0     H35773   8.072   7.216   5.824  0.4552 -1.6603  0.4106
  265MOL0     H35774   8.234   7.206   5.764 -3.2322 -2.6410  1.4413
  265MOL0     H35775   8.187   7.347   5.857 -1.4564 -1.5790  1.0764
  266MOL0     O35776  11.413   7.105   0.987 -0.4899  0.7594 -0.1676
  266MOL0     C35777  11.385   7.223   0.972  1.2985 -0.2215 -0.0965
  266MOL0     O35778  11.299   7.268   0.878 -0.0248  0.2707 -0.0108
  266MOL0     C35779  11.261   7.169   0.780  0.1280  0.7814 -1.6054
  266MOL0     C35780  11.318   7.183   0.651 -0.1559  0.9527  0.4800
  266MOL0     C35781  11.270   7.095   0.550  0.7356 -0.4035  1.1283
  266MOL0     C35782  11.153   7.011   0.562  0.3086  0.2782  0.0968
  266MOL0     O35783  11.094   6.934   0.459 -0.2306 -0.1385  0.1747
  266MOL0     C35784  11.186   6.861   0.371  0.1876 -0.2688  0.3249
  266MOL0     C35785  11.173   6.895   0.216  1.0909  0.1757  0.5533
  266MOL0     C35786  11.171   6.763   0.141  0.8301 -0.2334  0.0914
  266MOL0     C35787  11.042   6.679   0.172 -0.2775  0.9121 -0.3153
  266MOL0     C35788  11.072   6.531   0.168  0.0588  0.7152 -0.3131
  266MOL0     C35789  11.073   6.486   0.014  0.3696  0.9555 -1.2081
  266MOL0     C35790  11.111   6.334   0.015  0.3681 -0.1388 -0.3620
  266MOL0     C35791  11.118   6.282  -0.131 -0.4007 -0.1904  0.3512
  266MOL0     N35792  11.247   6.330  -0.186 -0.3502  0.3635  0.5044
  266MOL0     C35793  11.358   6.253  -0.181  0.3465  0.0496 -0.1057
  266MOL0     C35794  11.440   6.287  -0.279 -0.9250 -0.4142  0.1202
  266MOL0     C35795  11.584   6.232  -0.303  0.0104  0.0803  0.7258
  266MOL0     C35796  11.575   6.078  -0.288  0.1300  0.1189 -0.5380
  266MOL0     C35797  11.684   6.000  -0.374  1.5379 -0.8668  0.6377
  266MOL0     C35798  11.659   5.857  -0.370 -0.5597  0.2112  0.1339
  266MOL0     O35799  11.732   5.792  -0.473  0.0263 -0.4330  0.0145
  266MOL0     C35800  11.714   5.663  -0.492 -0.8769  1.1221 -0.3336
  266MOL0     C35801  11.594   5.587  -0.481 -0.1826 -0.8907 -0.1274
  266MOL0     C35802  11.594   5.449  -0.511 -0.1956  0.8346 -0.5838
  266MOL0     C35803  11.702   5.391  -0.573  0.3030 -0.0488 -0.9931
  266MOL0     C35804  11.701   5.246  -0.601  0.4658  0.2086 -0.2581
  266MOL0     O35805  11.820   5.195  -0.660 -0.7910  0.2084  0.1106
  266MOL0     C35806  11.814   5.065  -0.683 -0.8645  0.5332  0.1282
  266MOL0     C35807  11.749   5.014  -0.797  0.2832  0.1065  0.3334
  266MOL0     C35808  11.762   4.882  -0.836  0.0950 -0.0762 -0.3590
  266MOL0     C35809  11.842   4.800  -0.758 -0.7846  1.1017 -0.2863
  266MOL0     O35810  11.870   4.666  -0.789  0.9554  0.0147 -0.2620
  266MOL0     C35811  11.799   4.605  -0.906 -0.7505  0.1074  0.4086
  266MOL0     C35812  11.856   4.468  -0.932 -0.1821 -0.6570  0.3434
  266MOL0     C35813  11.798   4.370  -0.831  0.4870  1.0462 -1.2541
  266MOL0     C35814  11.848   4.231  -0.863 -1.3043 -0.4472 -0.5553
  266MOL0     C35815  11.771   4.132  -0.781  0.5902  0.1699  1.1154
  266MOL0     C35816  11.815   3.992  -0.803  0.7347  0.1773 -0.8110
  266MOL0     C35817  11.746   3.896  -0.701  0.0651  0.1641 -0.5125
  266MOL0     C35818  11.827   3.866  -0.578 -0.3587 -0.0240  0.0416
  266MOL0    Cl35819  11.997   3.811  -0.631  0.1228  0.0811  0.1428
  266MOL0     C35820  11.917   4.845  -0.649  0.4198  0.4727 -0.1306
  266MOL0     C35821  11.907   4.978  -0.611  0.1439  1.5203 -0.4823
  266MOL0     O35822  11.600   5.184  -0.567  0.5068 -0.3547  0.3286
  266MOL0     C35823  11.809   5.470  -0.595 -0.9934 -0.1973  0.3483
  266MOL0     C35824  11.824   5.596  -0.557  0.7527 -0.1617  0.0824
  266MOL0     N35825  11.386   6.410  -0.333 -0.0280  0.9409  0.1924
  266MOL0     N35826  11.276   6.438  -0.267  1.0458  0.2106  0.4453
  266MOL0     C35827  11.104   6.988   0.692  0.1220 -0.2861 -0.1659
  266MOL0     C35828  11.164   7.061   0.807  0.5967 -1.0106  0.5545
  266MOL0     C35829  11.453   7.321   1.062 -0.1329 -0.4191  0.0114
  266MOL0     C35830  11.522   7.418   1.014 -0.0026 -0.7632  0.2813
  266MOL0     C35831  11.607   7.507   1.084 -0.6202 -0.2152  0.6149
  266MOL0     C35832  11.604   7.492   1.223 -0.0980  0.3802 -0.5139
  266MOL0     O35833  11.648   7.582   1.314 -0.3655 -0.2848 -0.1690
  266MOL0     C35834  11.798   7.600   1.312  0.9019 -0.4847  0.5446
  266MOL0     C35835  11.837   7.750   1.281  0.6408 -0.2477  0.2880
  266MOL0     C35836  11.986   7.772   1.308 -1.1800 -0.9206 -0.2065
  266MOL0     C35837  12.069   7.759   1.176  0.0487  0.5297  0.8408
  266MOL0     C35838  12.206   7.716   1.214  0.6149  0.3482  0.4430
  266MOL0     C35839  12.315   7.687   1.251 -0.4936  0.3820 -0.4638
  266MOL0     C35840  11.520   7.395   1.272 -0.5540 -0.6046 -0.6888
  266MOL0     C35841  11.444   7.310   1.204  0.3464  0.6393 -0.3368
  266MOL0     C35842  11.349   7.225   1.277 -0.1392  0.5349  0.5346
  266MOL0     H35843  11.393   7.258   0.626  0.1262  1.0343  1.5337
  266MOL0     H35844  11.299   7.122   0.449 -0.6779  0.4876  0.9388
  266MOL0     H35845  11.290   6.889   0.392 -0.4983  3.6206 -0.8332
  266MOL0     H35846  11.167   6.754   0.385  0.5925 -0.8086 -2.6589
  266MOL0     H35847  11.257   6.956   0.181  1.8747 -2.0081 -1.7615
  266MOL0     H35848  11.076   6.940   0.191 -0.2497 -3.1776 -0.9081
  266MOL0     H35849  11.261   6.703   0.156 -0.2859 -1.8411  0.8118
  266MOL0     H35850  11.159   6.781   0.034 -1.1313 -0.1677  0.2848
  266MOL0     H35851  10.998   6.696   0.271 -1.2344  1.0222 -0.7420
  266MOL0     H35852  10.954   6.702   0.111  0.0004 -1.7790 -1.9312
  266MOL0     H35853  11.171   6.514   0.211  1.0334  0.3093 -2.5762
  266MOL0     H35854  10.995   6.484   0.230  0.9774  1.2913  1.3171
  266MOL0     H35855  10.971   6.486  -0.025 -1.2262 -0.4576  2.5062
  266MOL0     H35856  11.139   6.552  -0.044 -1.2762  2.4018 -1.5055
  266MOL0     H35857  11.044   6.280   0.082  2.7409 -0.9692  1.5017
  266MOL0     H35858  11.210   6.319   0.060  0.1902 -1.1872 -0.3169
  266MOL0     H35859  11.099   6.175  -0.120  0.0319 -0.0567  2.9293
  266MOL0     H35860  11.034   6.312  -0.195 -1.5030 -2.3846  0.6889
  266MOL0     H35861  11.369   6.164  -0.119 -0.2294 -1.7251 -2.4310
  266MOL0     H35862  11.617   6.270  -0.400  2.3277  0.1583  1.4825
  266MOL0     H35863  11.659   6.277  -0.236  2.5061 -0.3537 -1.6192
  266MOL0     H35864  11.601   6.044  -0.187  1.9839 -0.5474 -1.2093
  266MOL0     H35865  11.482   6.040  -0.332 -0.3291  1.0509 -0.4013
  266MOL0     H35866  11.776   6.046  -0.337 -0.4525  4.3669 -0.0891
  266MOL0     H35867  11.673   6.037  -0.476 -0.7581 -1.0083  0.7864
  266MOL0     H35868  11.551   5.839  -0.371 -0.6882  0.8457  1.1581
  266MOL0     H35869  11.691   5.818  -0.273  0.8727  0.3424 -0.2759
  266MOL0     H35870  11.503   5.626  -0.436 -1.2325  0.8274 -3.4220
  266MOL0     H35871  11.501   5.394  -0.495  1.1184 -1.1095  0.6998
  266MOL0     H35872  11.684   5.067  -0.867  1.2189  2.2864  1.0259
  266MOL0     H35873  11.706   4.846  -0.922 -1.2696  1.2649 -0.0724
  266MOL0     H35874  11.693   4.599  -0.880 -0.5966 -3.4136  0.7801
  266MOL0     H35875  11.820   4.658  -0.999  2.6517 -2.6149 -0.6099
  266MOL0     H35876  11.824   4.439  -1.032  3.8557 -3.0205 -0.4583
  266MOL0     H35877  11.965   4.470  -0.929 -0.1146 -1.2148 -1.0088
  266MOL0     H35878  11.842   4.387  -0.732  1.9246  0.6554 -1.7925
  266MOL0     H35879  11.689   4.374  -0.822  0.6314  1.0396  1.1773
  266MOL0     H35880  11.955   4.236  -0.838 -1.0512  0.6827 -1.7359
  266MOL0     H35881  11.841   4.202  -0.969 -1.0950  0.2221 -0.7602
  266MOL0     H35882  11.662   4.143  -0.784  0.4265 -1.3682 -1.1867
  266MOL0     H35883  11.788   4.148  -0.674 -1.5626  0.3644  1.4893
  266MOL0     H35884  11.779   3.961  -0.902 -1.3235  0.6388 -0.2502
  266MOL0     H35885  11.922   3.978  -0.791  0.4939  0.0039  1.6313
  266MOL0     H35886  11.729   3.796  -0.741 -1.9780  1.6943 -4.0235
  266MOL0     H35887  11.652   3.938  -0.664  0.6763  0.0588  1.2524
  266MOL0     H35888  11.852   3.954  -0.517  0.4759 -2.2147  3.1269
  266MOL0     H35889  11.781   3.793  -0.510 -0.7455  0.3065  0.1364
  266MOL0     H35890  11.966   4.783  -0.574  2.7509  2.9361  0.5538
  266MOL0     H35891  11.955   5.014  -0.520  1.2762  1.9601 -1.2246
  266MOL0     H35892  11.894   5.425  -0.646 -1.2719  0.5447 -0.8150
  266MOL0     H35893  11.917   5.645  -0.584 -0.1341  1.2928 -0.4513
  266MOL0     H35894  11.042   6.900   0.698  3.5059 -2.8789 -0.2956
  266MOL0     H35895  11.121   7.042   0.905 -3.0584  0.6409 -0.5325
  266MOL0     H35896  11.546   7.415   0.908  0.2715 -0.4453  0.3313
  266MOL0     H35897  11.669   7.587   1.048  2.4090 -3.2807 -1.6450
  266MOL0     H35898  11.842   7.538   1.233 -0.8747  1.0517 -1.8131
  266MOL0     H35899  11.833   7.558   1.407  2.5412 -4.8812 -1.7207
  266MOL0     H35900  11.776   7.806   1.351  2.2708  0.5938  1.0891
  266MOL0     H35901  11.798   7.783   1.184 -3.0334 -0.9862  1.3572
  266MOL0     H35902  12.013   7.710   1.394 -0.0057  0.9799  0.8700
  266MOL0     H35903  12.004   7.874   1.344  3.2632 -0.5495 -2.7416
  266MOL0     H35904  12.021   7.674   1.128  0.8165 -0.4005  1.6775
  266MOL0     H35905  12.040   7.845   1.115 -0.7397  0.4433  1.0859
  266MOL0     H35906  12.408   7.658   1.294 -0.7643  1.3359  0.8213
  266MOL0     H35907  11.528   7.395   1.380 -0.7936  0.2980 -0.6674
  266MOL0     H35908  11.246   7.248   1.245  0.2679  1.8240  0.0764
  266MOL0     H35909  11.359   7.117   1.263  1.2519  0.9543 -2.6929
  266MOL0     H35910  11.354   7.257   1.381  5.4610  0.3933  0.5762
  267MOL0     O35911   0.823   7.682   5.531 -0.5736  0.1399  0.0979
  267MOL0     C35912   0.902   7.719   5.445  0.6934 -0.0561 -0.7131
  267MOL0     O35913   0.983   7.637   5.373 -1.0707 -0.4775 -0.1895
  267MOL0     C35914   0.987   7.497   5.384 -0.7989  0.9447 -0.3318
  267MOL0     C35915   1.114   7.426   5.373 -1.0137 -0.0582 -0.8371
  267MOL0     C35916   1.113   7.291   5.374 -0.5021  0.0421  0.4285
  267MOL0     C35917   1.003   7.218   5.377  0.5478 -0.3574  0.1644
  267MOL0     O35918   0.999   7.081   5.359 -0.0485  0.9911  0.1045
  267MOL0     C35919   1.125   7.002   5.348  0.6900  0.7924 -0.5061
  267MOL0     C35920   1.103   6.854   5.323  0.0518 -0.6116 -0.0184
  267MOL0     C35921   1.243   6.802   5.294  0.5544  0.6946 -0.3072
  267MOL0     C35922   1.249   6.647   5.260 -0.3559  0.3991  0.0766
  267MOL0     C35923   1.171   6.619   5.130  0.1306  0.0429  0.2467
  267MOL0     C35924   1.139   6.465   5.099 -0.4281 -0.2636 -0.1049
  267MOL0     C35925   1.013   6.423   5.173  0.2516  0.2492  0.4170
  267MOL0     C35926   0.889   6.451   5.082 -0.2939 -0.6522  0.6411
  267MOL0     N35927   0.883   6.354   4.974  0.2878  0.7029 -0.1753
  267MOL0     C35928   0.886   6.371   4.839 -0.5107  0.2451  0.8576
  267MOL0     C35929   0.816   6.262   4.785 -0.6724 -0.4302 -0.4005
  267MOL0     C35930   0.786   6.247   4.644  0.1218  0.0102 -1.1021
  267MOL0     C35931   0.645   6.210   4.615  0.7308 -0.2889  0.6179
  267MOL0     C35932   0.536   6.305   4.669  0.1872 -1.0895 -0.9308
  267MOL0     C35933   0.554   6.444   4.615 -1.0645  0.4406 -0.0127
  267MOL0     O35934   0.468   6.532   4.676  0.5017 -1.3314  0.5428
  267MOL0     C35935   0.432   6.641   4.604  0.8253 -0.2648  0.0407
  267MOL0     C35936   0.353   6.738   4.659  0.4770 -0.7158 -0.1424
  267MOL0     C35937   0.308   6.847   4.586  0.5678  0.4716  0.0301
  267MOL0     C35938   0.352   6.872   4.450  0.4967 -0.1706 -1.2935
  267MOL0     C35939   0.306   6.987   4.371 -0.0819  0.0697  0.3412
  267MOL0     O35940   0.375   7.014   4.254 -0.7627 -1.2181 -0.0310
  267MOL0     C35941   0.336   7.124   4.191  0.0236  0.8882 -0.0659
  267MOL0     C35942   0.398   7.251   4.218 -0.3502  0.6487 -0.6713
  267MOL0     C35943   0.352   7.370   4.153  0.0744 -0.1302 -0.3510
  267MOL0     C35944   0.252   7.364   4.051 -0.3208  0.2305  0.4848
  267MOL0     O35945   0.203   7.474   3.981 -0.1580 -0.3700  0.4468
  267MOL0     C35946   0.084   7.464   3.906 -0.3253  0.9271 -0.7338
  267MOL0     C35947   0.072   7.584   3.815 -0.2591  0.5434  0.1403
  267MOL0     C35948  -0.056   7.574   3.717 -0.2298 -0.8611 -0.0249
  267MOL0     C35949  -0.044   7.701   3.640 -0.6008 -0.8453  0.3491
  267MOL0     C35950  -0.093   7.825   3.718  0.6086  0.5065  0.1117
  267MOL0     C35951  -0.042   7.931   3.633  0.3522 -0.6972 -0.0490
  267MOL0     C35952  -0.091   8.075   3.675 -0.4919 -1.4191 -1.0090
  267MOL0     C35953  -0.240   8.087   3.670 -0.0110 -0.3237  0.4309
  267MOL0    Cl35954  -0.298   8.251   3.643  0.4291 -0.0745 -0.2636
  267MOL0     C35955   0.213   7.233   4.008  0.0775  0.6974 -0.2229
  267MOL0     C35956   0.238   7.123   4.082 -0.1233 -0.2162 -0.4545
  267MOL0     O35957   0.230   7.060   4.429  0.1642 -0.5803 -0.0153
  267MOL0     C35958   0.443   6.773   4.402  0.9750  0.4559 -0.2557
  267MOL0     C35959   0.481   6.657   4.469 -0.8427 -0.0034  0.4143
  267MOL0     N35960   0.791   6.183   4.891 -0.7840 -0.2091 -0.9033
  267MOL0     N35961   0.829   6.232   4.999 -1.0930  0.0729 -0.7025
  267MOL0     C35962   0.875   7.275   5.392  0.0999 -0.1835 -0.7322
  267MOL0     C35963   0.867   7.417   5.409  0.1886 -0.4917 -0.1630
  267MOL0     C35964   0.889   7.860   5.403 -0.7244  0.4499  0.1524
  267MOL0     C35965   0.902   7.886   5.264 -0.6989 -0.3241 -1.1422
  267MOL0     C35966   0.895   8.020   5.221  0.2764  0.6509 -0.2964
  267MOL0     C35967   0.887   8.130   5.311  0.2630 -0.4626 -0.9251
  267MOL0     O35968   0.867   8.262   5.266  0.1688  0.4834  0.7791
  267MOL0     C35969   0.732   8.273   5.213 -0.2713 -0.0805 -0.5053
  267MOL0     C35970   0.741   8.324   5.067 -1.4781 -0.1754  1.1973
  267MOL0     C35971   0.788   8.476   5.055  0.2886 -0.7883 -0.9855
  267MOL0     C35972   0.794   8.550   4.922  0.7094 -0.6018 -0.0894
  267MOL0     C35973   0.880   8.474   4.834  0.0675  0.1155  0.2265
  267MOL0     C35974   0.966   8.411   4.775 -0.7780  0.1201 -0.1521
  267MOL0     C35975   0.873   8.106   5.449  0.0123 -0.0866  0.5465
  267MOL0     C35976   0.881   7.963   5.490  0.3272 -0.2297 -0.5289
  267MOL0     C35977   0.875   7.937   5.637  0.3295 -0.8380  0.1417
  267MOL0     H35978   1.209   7.475   5.356  0.6227 -2.8639 -0.3223
  267MOL0     H35979   1.209   7.241   5.375  1.5220  3.6299  0.2619
  267MOL0     H35980   1.183   7.053   5.271  2.1988 -0.5686 -0.3376
  267MOL0     H35981   1.169   7.009   5.448 -0.4376 -0.0785  0.0801
  267MOL0     H35982   1.030   6.856   5.241 -0.9840 -0.3134  0.8765
  267MOL0     H35983   1.039   6.808   5.400  3.1545 -2.6525  1.5122
  267MOL0     H35984   1.318   6.822   5.371  1.0028  0.7095 -0.7448
  267MOL0     H35985   1.275   6.848   5.201 -0.8485 -2.4289 -2.5213
  267MOL0     H35986   1.350   6.606   5.254  0.0532  1.5506 -1.8309
  267MOL0     H35987   1.202   6.591   5.341  0.8870 -0.7267  0.0536
  267MOL0     H35988   1.071   6.661   5.139 -0.5019 -1.5504  1.2132
  267MOL0     H35989   1.226   6.670   5.050  1.8452  0.1981  1.4674
  267MOL0     H35990   1.124   6.442   4.994  0.2876  0.0151 -0.2778
  267MOL0     H35991   1.228   6.407   5.127 -0.7373 -1.1740 -0.9724
  267MOL0     H35992   0.994   6.466   5.271 -0.5182 -0.6752  0.6860
  267MOL0     H35993   1.003   6.315   5.191 -1.3401 -0.2715 -2.8038
  267MOL0     H35994   0.791   6.446   5.132 -0.0322  0.7243  1.3447
  267MOL0     H35995   0.894   6.556   5.050 -1.4142 -1.5736 -3.1113
  267MOL0     H35996   0.918   6.464   4.791  0.2712  0.7440  2.2838
  267MOL0     H35997   0.805   6.345   4.601 -0.8859  1.7416  2.1173
  267MOL0     H35998   0.857   6.172   4.607  1.9634  2.1924 -2.2004
  267MOL0     H35999   0.628   6.189   4.509 -0.9250  0.6907  0.6463
  267MOL0     H36000   0.644   6.118   4.675  1.8614 -0.3078  0.6245
  267MOL0     H36001   0.545   6.312   4.778 -1.9380  1.8273 -0.8127
  267MOL0     H36002   0.433   6.270   4.658 -0.1927  0.0927 -1.3205
  267MOL0     H36003   0.534   6.426   4.509  3.0372  0.6591 -0.9837
  267MOL0     H36004   0.660   6.467   4.624 -0.6488 -1.6187  1.0324
  267MOL0     H36005   0.321   6.735   4.763 -0.1830  5.1864  0.1681
  267MOL0     H36006   0.238   6.915   4.634 -1.6654 -1.9320  0.4262
  267MOL0     H36007   0.473   7.258   4.296 -1.3930 -0.6548  0.5012
  267MOL0     H36008   0.377   7.472   4.183  0.0166  0.6036 -2.5815
  267MOL0     H36009   0.069   7.381   3.837  0.5847  0.6467 -0.6085
  267MOL0     H36010   0.005   7.465   3.982  1.2381 -0.7972  1.0255
  267MOL0     H36011   0.066   7.675   3.875  0.3620  0.7212 -0.0667
  267MOL0     H36012   0.163   7.585   3.755  0.2716  1.1154  0.9430
  267MOL0     H36013  -0.063   7.482   3.658 -6.5080  0.0366 -1.3216
  267MOL0     H36014  -0.142   7.568   3.784 -0.4213 -0.5287 -0.2381
  267MOL0     H36015  -0.105   7.696   3.550  0.0809 -0.2589 -0.1600
  267MOL0     H36016   0.054   7.725   3.597  0.4794 -1.5700  2.2797
  267MOL0     H36017  -0.064   7.821   3.824  2.2065 -3.4957 -0.2823
  267MOL0     H36018  -0.202   7.820   3.720  0.6599 -1.5866  0.0263
  267MOL0     H36019   0.067   7.931   3.644  0.1523  1.3590  3.8952
  267MOL0     H36020  -0.060   7.931   3.525  0.4500  3.3030 -0.2403
  267MOL0     H36021  -0.035   8.146   3.614  3.3576  0.0575  3.5862
  267MOL0     H36022  -0.045   8.084   3.774  1.7455 -1.0826 -2.0322
  267MOL0     H36023  -0.282   8.023   3.591 -1.7883  2.3776 -0.9960
  267MOL0     H36024  -0.278   8.055   3.767 -0.9344 -3.0241 -0.7115
  267MOL0     H36025   0.169   7.209   3.912 -2.4254 -1.6258  1.3605
  267MOL0     H36026   0.191   7.029   4.053  0.9279  0.1223 -3.5344
  267MOL0     H36027   0.474   6.796   4.301  0.8922  1.8520  0.0112
  267MOL0     H36028   0.558   6.605   4.413  3.0808  4.1424  1.3847
  267MOL0     H36029   0.782   7.220   5.392 -0.6109  0.9502  0.2411
  267MOL0     H36030   0.775   7.470   5.434  1.1643  2.1428 -1.8357
  267MOL0     H36031   0.922   7.812   5.187  1.0655  0.1768 -1.2187
  267MOL0     H36032   0.901   8.031   5.113 -1.6745 -0.5591 -0.5668
  267MOL0     H36033   0.675   8.340   5.278  1.3827 -0.4432  1.4282
  267MOL0     H36034   0.673   8.181   5.213 -2.5390  1.3119 -0.6666
  267MOL0     H36035   0.648   8.321   5.010 -2.0960 -0.6442  2.2002
  267MOL0     H36036   0.815   8.261   5.015  0.3178  0.0420  3.3309
  267MOL0     H36037   0.888   8.482   5.099  0.1145 -2.7095 -0.2101
  267MOL0     H36038   0.707   8.518   5.116  0.2206 -2.9455  0.5221
  267MOL0     H36039   0.695   8.551   4.875  1.0908  2.7201 -1.0274
  267MOL0     H36040   0.819   8.656   4.926  2.6701 -0.9728 -1.2309
  267MOL0     H36041   1.034   8.357   4.713  1.2835  0.0031  2.0830
  267MOL0     H36042   0.845   8.190   5.512 -1.9816 -0.0116 -0.3746
  267MOL0     H36043   0.782   7.903   5.682  2.2715 -1.7248  3.9007
  267MOL0     H36044   0.960   7.873   5.661  0.4384 -0.0654  2.0461
  267MOL0     H36045   0.904   8.030   5.688 -1.0307 -0.8048  0.8939
  268MOL0     O36046   5.738   0.740   5.704 -0.6272 -0.6827 -0.1051
  268MOL0     C36047   5.665   0.736   5.803 -0.8340 -0.6733  0.5878
  268MOL0     O36048   5.529   0.764   5.806 -0.4357 -1.0978  0.3646
  268MOL0     C36049   5.476   0.836   5.694 -0.3493 -0.1149 -0.2382
  268MOL0     C36050   5.389   0.774   5.606  0.5820  0.4404 -0.7321
  268MOL0     C36051   5.320   0.838   5.498  0.0489  0.3817 -0.4269
  268MOL0     C36052   5.344   0.974   5.474 -0.3684  0.2619 -0.4843
  268MOL0     O36053   5.272   1.048   5.387  0.0623  0.1537 -0.4461
  268MOL0     C36054   5.175   0.984   5.307  0.6154 -1.0208 -0.2559
  268MOL0     C36055   5.150   1.050   5.162 -0.3032  0.4371 -0.3954
  268MOL0     C36056   5.159   1.207   5.171 -1.0311 -0.6425  0.8412
  268MOL0     C36057   5.069   1.277   5.091  0.3276  0.1037 -0.3296
  268MOL0     C36058   5.108   1.273   4.939  0.1659 -0.4312 -0.8415
  268MOL0     C36059   4.986   1.304   4.860  0.1972  0.1589 -0.4874
  268MOL0     C36060   5.031   1.288   4.722 -0.4499  0.0463  0.0405
  268MOL0     C36061   4.929   1.344   4.627  0.4601 -0.1547 -0.6715
  268MOL0     N36062   4.962   1.332   4.487 -0.2077 -0.5875  0.6722
  268MOL0     C36063   4.915   1.409   4.384 -0.2722 -0.2037 -0.0443
  268MOL0     C36064   4.959   1.338   4.266 -0.2274 -0.2846 -0.8963
  268MOL0     C36065   4.907   1.371   4.129 -0.4111  0.0210  0.2263
  268MOL0     C36066   4.811   1.499   4.128  0.7876  0.4196 -0.1907
  268MOL0     C36067   4.775   1.558   3.993  0.7851  0.3440  0.7678
  268MOL0     C36068   4.689   1.675   4.020  0.3049 -0.5409 -0.5708
  268MOL0     O36069   4.625   1.719   3.902  0.4944 -0.0637  0.6482
  268MOL0     C36070   4.541   1.825   3.919  0.6373 -0.4560  0.1970
  268MOL0     C36071   4.474   1.851   3.794  0.2004 -0.6394 -0.1492
  268MOL0     C36072   4.365   1.935   3.804 -0.0807 -0.2856  0.0764
  268MOL0     C36073   4.325   2.006   3.919 -0.0226 -0.2947  0.0787
  268MOL0     C36074   4.204   2.099   3.921 -1.1614 -0.9473 -0.2388
  268MOL0     O36075   4.157   2.134   4.042 -0.1661  0.6018 -0.3910
  268MOL0     C36076   4.038   2.195   4.060  0.1559 -0.4740  0.3039
  268MOL0     C36077   4.002   2.256   4.190 -0.7831 -0.1630  0.1804
  268MOL0     C36078   3.878   2.314   4.229  0.2177 -0.2312  0.0843
  268MOL0     C36079   3.784   2.328   4.134  0.0359 -0.1178  0.4393
  268MOL0     O36080   3.665   2.384   4.159  0.6750 -0.3545 -0.0793
  268MOL0     C36081   3.583   2.283   4.210  0.0326  0.9182 -0.5980
  268MOL0     C36082   3.455   2.355   4.236 -0.4922  0.3454 -1.0419
  268MOL0     C36083   3.340   2.256   4.265  0.2075 -1.0903  1.1934
  268MOL0     C36084   3.332   2.193   4.403  0.8531  1.2913 -0.3310
  268MOL0     C36085   3.228   2.074   4.426 -0.6877 -0.1545  0.7670
  268MOL0     C36086   3.085   2.122   4.413 -1.6636 -0.4446 -0.4641
  268MOL0     C36087   2.991   2.006   4.455  0.2587  0.7431  0.4423
  268MOL0     C36088   2.848   2.042   4.493  0.5633  0.1009  0.0037
  268MOL0    Cl36089   2.767   1.885   4.513  0.0571 -0.1243 -0.1127
  268MOL0     C36090   3.811   2.277   4.011 -0.1187  0.8600 -0.7097
  268MOL0     C36091   3.934   2.217   3.964  0.5961  1.1810  0.2993
  268MOL0     O36092   4.159   2.151   3.814 -0.7263  0.2008  0.1110
  268MOL0     C36093   4.398   1.982   4.033  0.8616 -0.0905 -0.4483
  268MOL0     C36094   4.499   1.889   4.034 -0.3968  0.3093 -0.1392
  268MOL0     N36095   5.043   1.237   4.305  1.4645 -0.6186 -0.3237
  268MOL0     N36096   5.037   1.231   4.434  0.2816 -0.4142  0.1795
  268MOL0     C36097   5.449   1.042   5.547 -0.0735 -0.5646 -0.7064
  268MOL0     C36098   5.509   0.964   5.659 -0.4970  0.6387  0.4225
  268MOL0     C36099   5.741   0.690   5.927  0.6159 -0.9215 -0.4848
  268MOL0     C36100   5.850   0.603   5.918  0.2049 -0.3888  0.3330
  268MOL0     C36101   5.912   0.543   6.025  0.8156  0.8861 -0.0501
  268MOL0     C36102   5.866   0.573   6.155  1.1363  0.2487 -0.0027
  268MOL0     O36103   5.919   0.506   6.262  0.1097 -0.1236 -0.6402
  268MOL0     C36104   6.000   0.384   6.241  0.1515 -0.4184  0.4766
  268MOL0     C36105   6.031   0.316   6.373 -0.2820 -0.0371 -0.2968
  268MOL0     C36106   6.161   0.228   6.366  0.4332 -1.0101 -0.7213
  268MOL0     C36107   6.234   0.224   6.498  0.5243 -1.5301 -0.4752
  268MOL0     C36108   6.200   0.113   6.582 -0.6018  0.6642 -0.4644
  268MOL0     C36109   6.198   0.035   6.673  0.0653 -0.6931 -0.2367
  268MOL0     C36110   5.753   0.651   6.160 -0.4789 -0.2275  0.1936
  268MOL0     C36111   5.690   0.708   6.054  0.5571 -0.3586 -0.9366
  268MOL0     C36112   5.562   0.785   6.080 -0.3184 -0.7591 -0.9302
  268MOL0     H36113   5.360   0.671   5.622  1.7740  0.3641  1.3119
  268MOL0     H36114   5.247   0.774   5.450  1.4685 -1.2529 -0.5139
  268MOL0     H36115   5.184   0.875   5.302 -0.3127 -1.0896 -0.7165
  268MOL0     H36116   5.078   1.001   5.355 -0.6957 -1.4276 -2.5998
  268MOL0     H36117   5.054   1.014   5.123 -0.9441 -0.1967  1.6287
  268MOL0     H36118   5.226   1.019   5.091 -1.7943  2.1845 -2.9215
  268MOL0     H36119   5.261   1.230   5.140 -1.3137  0.9783  0.9962
  268MOL0     H36120   5.153   1.242   5.275  0.9138 -0.3730  0.8996
  268MOL0     H36121   4.973   1.230   5.115  1.2038 -1.2874  0.6021
  268MOL0     H36122   5.058   1.377   5.133 -0.9547 -1.1764  2.6933
  268MOL0     H36123   5.200   1.330   4.924  1.3906 -1.1513  2.8011
  268MOL0     H36124   5.152   1.173   4.933 -0.2852 -0.7934  1.0917
  268MOL0     H36125   4.909   1.228   4.882 -0.3420  1.5732  3.2103
  268MOL0     H36126   4.947   1.402   4.889 -1.8372 -0.7946  0.2323
  268MOL0     H36127   5.045   1.182   4.701  0.5719 -0.3662  2.5056
  268MOL0     H36128   5.117   1.348   4.691  1.4798 -2.5367  0.1287
  268MOL0     H36129   4.840   1.286   4.653  0.5177  0.1555  0.2251
  268MOL0     H36130   4.916   1.448   4.656  4.5467 -0.5288  3.7000
  268MOL0     H36131   4.848   1.494   4.399  0.3961  0.6288 -1.5320
  268MOL0     H36132   4.995   1.401   4.072  2.0684 -2.1683  2.5901
  268MOL0     H36133   4.852   1.285   4.089 -1.4889  0.9183 -0.2767
  268MOL0     H36134   4.719   1.472   4.181  0.0064 -0.0403 -1.7294
  268MOL0     H36135   4.869   1.574   4.183  2.4704 -0.0862 -1.1752
  268MOL0     H36136   4.710   1.487   3.941 -0.5994  2.3328 -0.3611
  268MOL0     H36137   4.865   1.572   3.932  0.3978 -2.8191 -0.7272
  268MOL0     H36138   4.752   1.749   4.070  0.7145 -1.9779  1.1111
  268MOL0     H36139   4.608   1.653   4.089  1.2886  1.1879  1.2227
  268MOL0     H36140   4.508   1.821   3.695  1.9457 -1.3086  0.5983
  268MOL0     H36141   4.289   1.931   3.727  0.8279 -1.5147 -0.8040
  268MOL0     H36142   4.076   2.238   4.267  0.3171  2.8585 -0.0382
  268MOL0     H36143   3.848   2.334   4.332 -1.7296 -3.5510  0.3096
  268MOL0     H36144   3.563   2.204   4.137  3.1209  0.9419 -1.6135
  268MOL0     H36145   3.618   2.240   4.304  0.2292 -0.5721 -1.3253
  268MOL0     H36146   3.473   2.439   4.304  3.0841  0.4919 -1.9433
  268MOL0     H36147   3.437   2.417   4.148  0.8105 -2.1697 -3.2169
  268MOL0     H36148   3.246   2.307   4.242  1.0056 -1.3661 -3.7715
  268MOL0     H36149   3.344   2.175   4.192  1.0277  1.0026 -1.2280
  268MOL0     H36150   3.324   2.271   4.479  2.4423  0.7274  0.4595
  268MOL0     H36151   3.432   2.152   4.415  0.6230  0.4227 -1.2793
  268MOL0     H36152   3.248   2.033   4.526 -1.0730  0.0293  0.9184
  268MOL0     H36153   3.230   1.993   4.352  0.8375  0.8216 -0.3076
  268MOL0     H36154   3.069   2.211   4.474  0.2380 -0.2789 -0.1569
  268MOL0     H36155   3.068   2.145   4.307 -0.9212 -0.6744 -0.6400
  268MOL0     H36156   3.037   1.972   4.548 -0.4607  2.3869  1.4368
  268MOL0     H36157   2.992   1.927   4.379 -3.3835 -2.6078  3.5294
  268MOL0     H36158   2.853   2.113   4.575  1.8926  0.5390 -0.4319
  268MOL0     H36159   2.811   2.093   4.404  1.5379 -2.2037 -1.8405
  268MOL0     H36160   3.729   2.275   3.940  1.6048  0.5158 -2.7953
  268MOL0     H36161   3.928   2.179   3.863  1.6246 -1.7515  1.2315
  268MOL0     H36162   4.374   2.027   4.129  1.8985 -0.9699  0.2555
  268MOL0     H36163   4.559   1.864   4.121  2.2605 -4.7475 -2.9319
  268MOL0     H36164   5.481   1.144   5.528  4.2257 -1.7105 -0.7808
  268MOL0     H36165   5.585   1.020   5.712  1.0378  0.7177 -1.7159
  268MOL0     H36166   5.896   0.588   5.820 -1.2852  1.3864 -0.6896
  268MOL0     H36167   5.992   0.486   5.978  1.4946  3.2857 -2.0526
  268MOL0     H36168   6.091   0.417   6.188  0.3736 -2.5146 -0.5442
  268MOL0     H36169   5.954   0.314   6.171  0.2801  0.2825 -0.3324
  268MOL0     H36170   5.949   0.249   6.402  0.4968 -0.4561  1.0329
  268MOL0     H36171   6.035   0.393   6.449  1.6476 -1.1722  0.8489
  268MOL0     H36172   6.223   0.257   6.281  1.6099 -2.6726 -0.4716
  268MOL0     H36173   6.136   0.126   6.335 -0.8518 -0.8947 -0.1176
  268MOL0     H36174   6.341   0.207   6.479  1.3425  1.7873  0.4574
  268MOL0     H36175   6.247   0.316   6.556  1.9481 -2.2342  0.3804
  268MOL0     H36176   6.190  -0.038   6.751  1.8413 -0.9381 -0.2399
  268MOL0     H36177   5.706   0.654   6.258  1.5071 -1.7754  1.2640
  268MOL0     H36178   5.539   0.774   6.187 -3.4026 -0.8639 -1.5124
  268MOL0     H36179   5.556   0.891   6.057  2.7401  0.0755  1.4233
  268MOL0     H36180   5.479   0.729   6.035 -1.8578  0.3812  0.3859
  269MOL0     O36181   9.101   6.082   8.331  0.2462  0.7001 -0.7432
  269MOL0     C36182   9.067   6.027   8.438  0.2743  0.3937  0.9262
  269MOL0     O36183   8.989   6.070   8.536 -0.4625 -0.1295  0.2103
  269MOL0     C36184   8.917   6.185   8.526  1.9111 -0.1260  0.3871
  269MOL0     C36185   8.923   6.266   8.636 -0.9589 -0.4774 -0.7008
  269MOL0     C36186   8.862   6.396   8.631  0.3776  0.3359  0.4402
  269MOL0     C36187   8.797   6.441   8.509  0.5053 -0.2354  0.1794
  269MOL0     O36188   8.729   6.564   8.501 -0.9687  0.6789 -0.8055
  269MOL0     C36189   8.770   6.679   8.570  0.3095  1.0747  1.0302
  269MOL0     C36190   8.730   6.808   8.513  0.0062 -0.3813  0.7207
  269MOL0     C36191   8.753   6.924   8.616 -0.6100  0.7573  0.5657
  269MOL0     C36192   8.767   7.062   8.543  0.4193 -0.7334  0.2026
  269MOL0     C36193   8.643   7.150   8.553 -0.1437  0.1152  0.5806
  269MOL0     C36194   8.639   7.223   8.692 -0.6055 -0.1367 -0.2238
  269MOL0     C36195   8.763   7.318   8.726 -0.1184 -0.1163  0.1399
  269MOL0     C36196   8.734   7.408   8.847 -0.6506 -0.5886 -0.2415
  269MOL0     N36197   8.674   7.362   8.971  0.6068  0.3722 -0.5485
  269MOL0     C36198   8.543   7.326   9.003  0.4275 -0.2501 -0.3723
  269MOL0     C36199   8.558   7.255   9.122 -0.0804 -0.0149 -0.0718
  269MOL0     C36200   8.434   7.204   9.209  0.8580  0.2254 -0.1887
  269MOL0     C36201   8.320   7.157   9.106  1.4313 -0.5178  0.6471
  269MOL0     C36202   8.255   7.021   9.154  0.0047 -0.4640 -0.9156
  269MOL0     C36203   8.167   7.025   9.287  0.0467 -0.3278 -0.9245
  269MOL0     O36204   8.234   7.073   9.407  0.2883  0.2161 -0.4025
  269MOL0     C36205   8.308   6.973   9.472 -0.1810 -0.0205  1.1469
  269MOL0     C36206   8.433   7.018   9.519 -0.1859  0.3970  0.0781
  269MOL0     C36207   8.515   6.933   9.594  0.0340  0.3140  0.2405
  269MOL0     C36208   8.475   6.801   9.635 -0.3467  0.0093  0.1279
  269MOL0     C36209   8.559   6.720   9.729  0.6107 -0.7657 -0.5709
  269MOL0     O36210   8.508   6.597   9.769 -0.2112  0.8236  0.1827
  269MOL0     C36211   8.588   6.494   9.816 -0.2838 -0.2294  0.0501
  269MOL0     C36212   8.527   6.385   9.887 -0.2036 -0.3881 -0.6097
  269MOL0     C36213   8.605   6.282   9.936 -0.9030 -1.0242 -1.5793
  269MOL0     C36214   8.746   6.286   9.933  0.6316 -1.4266 -0.0057
  269MOL0     O36215   8.814   6.187   9.999  0.2943  1.1601  0.4788
  269MOL0     C36216   8.919   6.113   9.932 -0.1174  0.0258  0.0425
  269MOL0     C36217   8.985   6.021  10.041  0.5147 -0.5090 -0.2118
  269MOL0     C36218   9.114   5.945   9.991 -0.4685  0.1556  0.2539
  269MOL0     C36219   9.194   5.889  10.108 -0.6517 -0.2917  0.2865
  269MOL0     C36220   9.334   5.836  10.072  0.0791 -0.2151  0.2658
  269MOL0     C36221   9.414   5.753  10.176 -0.4804 -0.8360  0.5538
  269MOL0     C36222   9.431   5.815  10.316  0.4223  0.4321  0.3549
  269MOL0     C36223   9.567   5.796  10.370 -0.6939  0.4198 -0.7447
  269MOL0    Cl36224   9.699   5.846  10.249 -0.4608  0.6394  0.6241
  269MOL0     C36225   8.808   6.391   9.867  0.4093 -0.3558 -0.6860
  269MOL0     C36226   8.734   6.491   9.803 -0.2826 -0.1500 -0.7448
  269MOL0     O36227   8.665   6.775   9.770  0.1698  0.6255 -0.5321
  269MOL0     C36228   8.353   6.758   9.591 -0.0381  0.3465 -0.3198
  269MOL0     C36229   8.270   6.841   9.518 -0.0956 -0.4531  0.3984
  269MOL0     N36230   8.693   7.233   9.147  0.0642 -0.4257 -0.0232
  269MOL0     N36231   8.755   7.300   9.062 -0.5906 -0.2125 -0.3298
  269MOL0     C36232   8.780   6.350   8.405 -0.2064  0.7328 -1.2853
  269MOL0     C36233   8.850   6.229   8.407  0.3597  0.0022  0.1688
  269MOL0     C36234   9.140   5.901   8.471  1.5187 -0.1389  0.3014
  269MOL0     C36235   9.157   5.812   8.367  0.3594 -0.3054  0.3801
  269MOL0     C36236   9.208   5.684   8.400  0.5086 -0.3572 -0.0631
  269MOL0     C36237   9.262   5.644   8.525  0.4270 -0.4964  0.1377
  269MOL0     O36238   9.318   5.521   8.534 -0.4636 -0.6459  0.3894
  269MOL0     C36239   9.308   5.480   8.675  0.7720 -1.1384  0.2571
  269MOL0     C36240   9.321   5.324   8.665 -0.2275  0.5403 -0.9083
  269MOL0     C36241   9.229   5.262   8.560 -0.0851  0.4736  0.3073
  269MOL0     C36242   9.223   5.110   8.547 -0.3417  0.0029  0.4979
  269MOL0     C36243   9.351   5.041   8.584 -0.6484  0.3227  0.0504
  269MOL0     C36244   9.453   4.973   8.605  0.4073 -0.2826  0.1650
  269MOL0     C36245   9.260   5.745   8.619  0.2210 -0.4288  1.0295
  269MOL0     C36246   9.196   5.870   8.601 -1.0627  0.8708  0.3892
  269MOL0     C36247   9.205   5.972   8.708 -0.1985 -0.0987 -0.5469
  269MOL0     H36248   8.966   6.235   8.730 -1.4092  0.9069 -0.0084
  269MOL0     H36249   8.861   6.449   8.726 -1.7404 -0.7518  1.0803
  269MOL0     H36250   8.732   6.671   8.672  1.4055 -0.3684  1.3513
  269MOL0     H36251   8.878   6.672   8.587  0.2991 -2.3542  0.3385
  269MOL0     H36252   8.626   6.803   8.478  0.9029 -1.6527 -2.0495
  269MOL0     H36253   8.778   6.841   8.420 -3.6596  1.8026 -0.6195
  269MOL0     H36254   8.853   6.912   8.659 -0.4155  2.9611  0.8007
  269MOL0     H36255   8.677   6.922   8.694 -0.0333 -3.0668  1.2289
  269MOL0     H36256   8.848   7.107   8.602 -3.1900  1.2222  4.2570
  269MOL0     H36257   8.793   7.049   8.438  0.5721 -0.8425  0.2546
  269MOL0     H36258   8.639   7.222   8.471  1.0819  0.0921  0.4800
  269MOL0     H36259   8.556   7.084   8.546  0.5894 -0.7126 -2.1746
  269MOL0     H36260   8.551   7.288   8.697 -0.3370  0.2866 -0.8224
  269MOL0     H36261   8.635   7.146   8.769  2.1340 -0.2332 -0.0755
  269MOL0     H36262   8.790   7.391   8.650  1.5746 -0.6982  0.1174
  269MOL0     H36263   8.853   7.258   8.749 -1.3386 -2.4188 -0.7295
  269MOL0     H36264   8.828   7.459   8.870  1.0015 -2.4274 -2.4559
  269MOL0     H36265   8.661   7.486   8.825 -1.7524 -1.5848 -0.2152
  269MOL0     H36266   8.456   7.360   8.947  2.2338  1.7866 -2.1711
  269MOL0     H36267   8.469   7.120   9.271 -0.9766  0.0950  0.7199
  269MOL0     H36268   8.399   7.277   9.283  1.7255  1.5290 -1.0329
  269MOL0     H36269   8.242   7.233   9.098  3.0626  1.0331 -4.9886
  269MOL0     H36270   8.353   7.148   9.002 -1.6770 -1.0268 -0.4042
  269MOL0     H36271   8.328   6.944   9.180 -0.4126 -0.3322  0.7866
  269MOL0     H36272   8.188   6.984   9.076 -0.2089 -1.0668 -0.4607
  269MOL0     H36273   8.118   6.929   9.307 -0.9783  0.1985 -0.8530
  269MOL0     H36274   8.082   7.091   9.269 -2.1014 -3.0470 -1.5289
  269MOL0     H36275   8.462   7.120   9.496 -3.2145  1.6362  1.2622
  269MOL0     H36276   8.614   6.970   9.617 -0.2815  2.6394 -1.7230
  269MOL0     H36277   8.419   6.375   9.892 -0.1104 -2.3377 -1.6388
  269MOL0     H36278   8.555   6.200   9.987  2.7269 -0.8209  3.0525
  269MOL0     H36279   8.880   6.038   9.862 -0.3952 -0.5987  0.8574
  269MOL0     H36280   8.992   6.184   9.892 -0.4037  0.5136  0.3677
  269MOL0     H36281   9.014   6.090  10.121 -4.3891  4.0851 -1.7741
  269MOL0     H36282   8.905   5.964  10.089  0.7990  0.3933  1.4482
  269MOL0     H36283   9.082   5.856   9.936  1.6441 -1.2531  1.1586
  269MOL0     H36284   9.167   6.011   9.921  0.2434 -1.1551 -0.4773
  269MOL0     H36285   9.132   5.814  10.157  0.6196 -1.6113 -0.0459
  269MOL0     H36286   9.211   5.971  10.178 -1.9435  0.4410 -0.2253
  269MOL0     H36287   9.391   5.925  10.044  0.0979  0.1728  1.4967
  269MOL0     H36288   9.311   5.778   9.981  0.9386 -1.2460  0.6793
  269MOL0     H36289   9.367   5.654  10.182 -2.8551  0.1612 -0.3857
  269MOL0     H36290   9.509   5.728  10.127 -0.5947 -0.4570  0.1343
  269MOL0     H36291   9.369   5.770  10.393 -0.3382 -0.1891 -0.5925
  269MOL0     H36292   9.398   5.920  10.317 -0.8802  0.0978  3.5462
  269MOL0     H36293   9.573   5.842  10.468 -1.3712  0.9629 -0.9498
  269MOL0     H36294   9.575   5.688  10.384  1.3477  0.1677 -3.0760
  269MOL0     H36295   8.916   6.396   9.876  0.6885 -1.1422 -2.9040
  269MOL0     H36296   8.780   6.574   9.750 -0.8455 -0.1951 -1.3250
  269MOL0     H36297   8.317   6.660   9.622  0.3877  0.4963  0.6984
  269MOL0     H36298   8.172   6.806   9.489 -1.0366  1.5667  0.9512
  269MOL0     H36299   8.724   6.387   8.319 -0.7588  2.0306 -0.4057
  269MOL0     H36300   8.843   6.156   8.327  4.4380 -2.1427  1.4821
  269MOL0     H36301   9.112   5.827   8.269 -3.7553  1.6453  2.3208
  269MOL0     H36302   9.209   5.621   8.313 -0.7270 -0.1994 -0.2224
  269MOL0     H36303   9.206   5.498   8.708  0.5748  0.2490 -1.0034
  269MOL0     H36304   9.392   5.522   8.731  2.8443 -0.7008 -2.9206
  269MOL0     H36305   9.308   5.271   8.759  0.5498  0.4689 -0.8282
  269MOL0     H36306   9.421   5.295   8.630 -0.3305  0.5672 -1.2268
  269MOL0     H36307   9.267   5.306   8.467 -0.3280  0.5287  0.2322
  269MOL0     H36308   9.131   5.309   8.558 -1.0365 -1.4666 -0.9030
  269MOL0     H36309   9.138   5.073   8.605  2.2040 -0.7730  4.0625
  269MOL0     H36310   9.207   5.093   8.440 -0.7127 -0.5395  0.6384
  269MOL0     H36311   9.549   4.937   8.637  2.3883  3.6066 -0.7393
  269MOL0     H36312   9.324   5.739   8.706  1.6598  3.1827  0.4022
  269MOL0     H36313   9.288   5.949   8.775 -1.2603 -3.0407 -0.0839
  269MOL0     H36314   9.233   6.067   8.662  3.1325  0.2549  1.8886
  269MOL0     H36315   9.108   5.974   8.759 -0.7391 -2.5047 -1.3357
  270MOL0     O36316   2.676   1.159   9.954 -0.0321  0.0786  0.0135
  270MOL0     C36317   2.690   1.274   9.924  0.0221 -0.9130 -0.4051
  270MOL0     O36318   2.645   1.387   9.999  0.1462 -0.1611 -0.2802
  270MOL0     C36319   2.574   1.361  10.112 -0.7409  0.5498  0.0870
  270MOL0     C36320   2.650   1.319  10.225  0.5677 -0.5879  0.3140
  270MOL0     C36321   2.584   1.264  10.334  0.3446 -1.1709  0.2466
  270MOL0     C36322   2.447   1.261  10.328  0.4077  0.4988  1.0585
  270MOL0     O36323   2.381   1.205  10.431 -0.0450  0.2381  0.1575
  270MOL0     C36324   2.313   1.292  10.518  0.1200 -0.2363 -1.1738
  270MOL0     C36325   2.420   1.365  10.604  0.1408  0.5779  0.1679
  270MOL0     C36326   2.345   1.440  10.711  0.0811  0.4495  0.1176
  270MOL0     C36327   2.368   1.381  10.843 -0.7529  0.0034  0.6849
  270MOL0     C36328   2.321   1.455  10.971 -0.3662 -0.6926  0.3133
  270MOL0     C36329   2.175   1.452  11.016  0.1138  0.1798 -0.4284
  270MOL0     C36330   2.118   1.307  11.028  0.2319 -0.2866  0.1818
  270MOL0     C36331   1.968   1.298  11.008 -0.0141  0.4240  0.0152
  270MOL0     N36332   1.945   1.154  10.998  0.2964  0.6793 -0.3504
  270MOL0     C36333   1.937   1.060  11.097  0.1979 -0.2847 -0.2626
  270MOL0     C36334   1.890   0.948  11.048 -1.2003 -0.0347  0.5904
  270MOL0     C36335   1.858   0.823  11.133  0.1320  0.0248  0.4454
  270MOL0     C36336   1.747   0.860  11.238 -1.0530  0.5374 -0.9824
  270MOL0     C36337   1.697   0.750  11.332  0.1780  0.3316  0.5813
  270MOL0     C36338   1.627   0.797  11.460  0.2516 -0.5188 -0.6508
  270MOL0     O36339   1.553   0.690  11.527  0.4245 -0.1170  0.3300
  270MOL0     C36340   1.419   0.685  11.510 -0.3059  0.4952 -1.1203
  270MOL0     C36341   1.374   0.563  11.560  0.1270 -0.3724 -0.1646
  270MOL0     C36342   1.244   0.533  11.570  0.7695 -0.2101 -0.1673
  270MOL0     C36343   1.141   0.623  11.521 -1.2263 -0.1457  0.1669
  270MOL0     C36344   0.999   0.583  11.519  0.3072 -0.0777  0.3679
  270MOL0     O36345   0.970   0.456  11.561  0.4603 -0.8617  0.2673
  270MOL0     C36346   0.857   0.399  11.509  0.3375 -0.3880  0.6601
  270MOL0     C36347   0.805   0.412  11.377  0.0010 -0.5274  0.8062
  270MOL0     C36348   0.688   0.346  11.334 -0.3186 -1.3725 -0.0710
  270MOL0     C36349   0.608   0.273  11.422 -1.0360 -0.1931 -1.1446
  270MOL0     O36350   0.493   0.221  11.365 -0.2324 -0.6879  0.2601
  270MOL0     C36351   0.410   0.140  11.449 -0.5132  0.6343 -0.3845
  270MOL0     C36352   0.267   0.151  11.384 -0.1692 -0.0251  0.0242
  270MOL0     C36353   0.244   0.032  11.278 -0.7267 -1.0017 -0.8799
  270MOL0     C36354   0.130   0.075  11.190  0.6167  0.2463  0.1182
  270MOL0     C36355   0.124  -0.001  11.057 -0.1369 -0.6035 -0.0846
  270MOL0     C36356   0.115  -0.146  11.057 -0.5568  0.1461 -0.3335
  270MOL0     C36357   0.070  -0.217  10.922  0.2581 -0.1096  0.1264
  270MOL0     C36358   0.054  -0.362  10.957 -0.0541 -1.0369  0.2147
  270MOL0    Cl36359  -0.084  -0.377  11.067  0.0260 -0.1123 -0.7110
  270MOL0     C36360   0.649   0.267  11.556  0.7330  0.0581 -0.0347
  270MOL0     C36361   0.768   0.324  11.592  0.0860 -0.3121 -1.1318
  270MOL0     O36362   0.916   0.667  11.482  0.7389 -0.0769 -0.3802
  270MOL0     C36363   1.187   0.744  11.475  0.3485  0.0646  0.3606
  270MOL0     C36364   1.324   0.778  11.465  0.0845  1.0455 -0.3189
  270MOL0     N36365   1.894   0.958  10.911 -0.7389  0.0067 -0.3630
  270MOL0     N36366   1.918   1.083  10.886  0.0440  0.7667  0.2126
  270MOL0     C36367   2.380   1.304  10.216  0.3191  1.4831 -0.3318
  270MOL0     C36368   2.440   1.373  10.111 -0.0755  0.4330 -0.3304
  270MOL0     C36369   2.760   1.307   9.795  0.1425  0.0058 -0.7330
  270MOL0     C36370   2.773   1.448   9.771  0.5921  0.5735 -0.4318
  270MOL0     C36371   2.847   1.482   9.656  0.1206  0.0682  0.0711
  270MOL0     C36372   2.891   1.389   9.563  0.3006 -0.8954  0.2689
  270MOL0     O36373   2.953   1.450   9.460  0.4390 -0.0816  1.1031
  270MOL0     C36374   3.005   1.372   9.365 -0.6118 -0.7615 -0.3354
  270MOL0     C36375   3.032   1.474   9.261 -0.6252 -0.0935 -0.0033
  270MOL0     C36376   3.135   1.584   9.309 -0.1070  0.9344 -0.1144
  270MOL0     C36377   3.199   1.666   9.199  0.3734 -0.4920  0.3114
  270MOL0     C36378   3.253   1.794   9.254  0.7165 -0.6022 -0.4284
  270MOL0     C36379   3.293   1.893   9.307  0.2220 -0.2305  0.6828
  270MOL0     C36380   2.879   1.256   9.597  0.6334 -0.5899  1.0499
  270MOL0     C36381   2.818   1.211   9.711 -0.2301 -0.9976  0.2279
  270MOL0     C36382   2.816   1.054   9.725 -0.1594 -0.1856 -0.3175
  270MOL0     H36383   2.757   1.324  10.237  0.6595 -0.9536 -0.3093
  270MOL0     H36384   2.630   1.232  10.427  1.4972  0.7787  0.3888
  270MOL0     H36385   2.249   1.354  10.454 -3.7717 -2.1205  0.5458
  270MOL0     H36386   2.240   1.239  10.580  1.1124 -0.6605 -0.3408
  270MOL0     H36387   2.480   1.430  10.539 -1.1597  2.0338  0.3692
  270MOL0     H36388   2.487   1.290  10.648 -0.5043 -0.5726 -0.7362
  270MOL0     H36389   2.239   1.450  10.684  0.2122 -0.7898 -0.9780
  270MOL0     H36390   2.389   1.540  10.713 -1.8599  1.3410  2.0014
  270MOL0     H36391   2.343   1.275  10.849  0.5947 -0.6690 -3.0176
  270MOL0     H36392   2.474   1.360  10.859 -1.0174 -0.0017  2.6844
  270MOL0     H36393   2.376   1.423  11.060  0.1138  1.8704  1.0365
  270MOL0     H36394   2.348   1.560  10.954  0.4004 -0.8631  0.4432
  270MOL0     H36395   2.157   1.503  11.111 -2.0092 -0.6138 -0.3582
  270MOL0     H36396   2.115   1.503  10.940 -4.0940 -0.3197  2.2506
  270MOL0     H36397   2.137   1.251  11.119 -1.0866  1.4362  1.5766
  270MOL0     H36398   2.175   1.248  10.955  4.2093  1.4767  1.5359
  270MOL0     H36399   1.916   1.350  11.089 -2.9743 -0.4603 -1.1788
  270MOL0     H36400   1.934   1.350  10.918  0.4085  0.6207 -0.0348
  270MOL0     H36401   1.952   1.073  11.203 -0.2958 -0.4825 -0.1658
  270MOL0     H36402   1.819   0.750  11.061  0.4341  1.5304 -1.3262
  270MOL0     H36403   1.946   0.785  11.185 -0.3994  0.1563  1.4616
  270MOL0     H36404   1.773   0.950  11.295  1.5046 -1.0154  0.4660
  270MOL0     H36405   1.661   0.885  11.175 -0.6320 -0.4252 -1.9636
  270MOL0     H36406   1.779   0.693  11.376 -0.5431 -0.2511  1.1946
  270MOL0     H36407   1.630   0.677  11.287  0.9690 -2.7158  3.8574
  270MOL0     H36408   1.567   0.886  11.442 -0.1800 -1.0690 -2.0333
  270MOL0     H36409   1.702   0.818  11.537 -1.3869 -2.3727  1.5834
  270MOL0     H36410   1.447   0.496  11.604  1.3155  1.5984  0.9858
  270MOL0     H36411   1.209   0.440  11.615 -1.8689  1.7797  2.2979
  270MOL0     H36412   0.869   0.462  11.306  0.3400 -0.9368  0.8177
  270MOL0     H36413   0.652   0.369  11.234  0.7807  3.1295  0.3105
  270MOL0     H36414   0.452   0.039  11.438 -2.0535 -0.3334  1.8999
  270MOL0     H36415   0.397   0.168  11.553 -0.7346  0.5750 -0.3962
  270MOL0     H36416   0.200   0.139  11.470  2.0875 -2.2470  1.6131
  270MOL0     H36417   0.244   0.243  11.328 -1.2188 -1.7631 -2.5620
  270MOL0     H36418   0.331   0.009  11.216  1.8048 -1.8044  2.6304
  270MOL0     H36419   0.223  -0.060  11.335 -2.3510 -0.2334 -0.1716
  270MOL0     H36420   0.133   0.182  11.167  0.8974  0.4425  1.0223
  270MOL0     H36421   0.039   0.059  11.248  2.2850 -3.1745  2.1220
  270MOL0     H36422   0.217   0.028  11.007  1.1786  0.0311  2.5032
  270MOL0     H36423   0.036   0.044  11.011 -0.4350  1.0717  1.9353
  270MOL0     H36424   0.210  -0.187  11.094  0.5211  2.2580 -0.6241
  270MOL0     H36425   0.037  -0.162  11.131  0.3148  0.1747  0.6174
  270MOL0     H36426   0.154  -0.213  10.852  1.1883  0.4715  1.2371
  270MOL0     H36427  -0.016  -0.177  10.867  1.4574  0.3094 -1.5333
  270MOL0     H36428   0.034  -0.414  10.863  1.0351 -1.7547  0.3601
  270MOL0     H36429   0.147  -0.404  10.996  1.9913  1.7565 -1.2863
  270MOL0     H36430   0.591   0.221  11.636 -1.3419 -0.9855 -2.0297
  270MOL0     H36431   0.791   0.324  11.698  1.8200  4.4528 -1.2776
  270MOL0     H36432   1.119   0.823  11.445 -1.3799 -2.0972 -1.6994
  270MOL0     H36433   1.339   0.876  11.420 -0.0815  0.9280 -0.6266
  270MOL0     H36434   2.272   1.294  10.213  0.2028  2.7154 -0.6037
  270MOL0     H36435   2.393   1.419  10.025 -1.9765 -4.5587 -2.3239
  270MOL0     H36436   2.737   1.531   9.832 -0.6896 -1.7197  2.1650
  270MOL0     H36437   2.865   1.584   9.626 -4.3393  0.2510 -2.9141
  270MOL0     H36438   2.926   1.304   9.333 -4.3280  2.3928  1.2222
  270MOL0     H36439   3.101   1.335   9.400  0.6856  1.4371 -1.3540
  270MOL0     H36440   2.938   1.519   9.227 -1.3331 -1.9188 -0.5803
  270MOL0     H36441   3.070   1.419   9.174 -0.1606  0.6251 -0.2639
  270MOL0     H36442   3.211   1.519   9.355 -2.0901 -2.1946 -0.9577
  270MOL0     H36443   3.094   1.652   9.384 -2.3983  0.5588 -0.9495
  270MOL0     H36444   3.289   1.612   9.168 -1.0772 -1.7040 -2.1260
  270MOL0     H36445   3.132   1.685   9.115 -0.5725 -2.1331  0.6376
  270MOL0     H36446   3.330   1.973   9.368 -3.3347  1.6131  0.6829
  270MOL0     H36447   2.921   1.176   9.538 -0.1258 -1.0017  1.0520
  270MOL0     H36448   2.889   1.025   9.802  2.4457 -1.2950 -3.0191
  270MOL0     H36449   2.718   1.019   9.758 -0.7856  2.3393  0.7165
  270MOL0     H36450   2.842   0.997   9.635 -0.1812  1.6498 -1.5272
  271MOL0     O36451   7.696   2.663   4.462  0.0971 -0.1286 -0.3285
  271MOL0     C36452   7.665   2.757   4.393 -0.4374  0.7008 -0.2656
  271MOL0     O36453   7.648   2.755   4.257  0.6221 -0.5995 -0.8058
  271MOL0     C36454   7.610   2.644   4.188 -0.5711  0.6565  0.7978
  271MOL0     C36455   7.612   2.651   4.048 -0.0429 -0.2007  0.4611
  271MOL0     C36456   7.569   2.542   3.968 -0.0895  0.8866  0.3034
  271MOL0     C36457   7.509   2.430   4.023  0.1814 -0.1022  0.1924
  271MOL0     O36458   7.459   2.319   3.954  0.2244 -0.8598 -0.1227
  271MOL0     C36459   7.334   2.323   3.890 -0.4940 -1.4314 -0.2172
  271MOL0     C36460   7.283   2.175   3.876  0.2497 -0.3158  0.7599
  271MOL0     C36461   7.133   2.175   3.875  1.0426 -0.0273 -0.5588
  271MOL0     C36462   7.066   2.201   4.009  0.9415 -0.1281  1.2057
  271MOL0     C36463   6.920   2.138   4.019  0.3378 -0.7295 -0.2494
  271MOL0     C36464   6.868   2.159   4.164 -0.1346 -0.6203  0.3781
  271MOL0     C36465   6.740   2.085   4.188  0.1478 -0.4096 -0.7544
  271MOL0     C36466   6.767   1.937   4.215 -0.2511  0.4350 -0.7334
  271MOL0     N36467   6.646   1.877   4.285  0.3070 -0.0212 -0.0609
  271MOL0     C36468   6.605   1.898   4.413 -0.4133 -0.5885  0.2331
  271MOL0     C36469   6.484   1.852   4.420 -0.3827  0.1671 -0.1295
  271MOL0     C36470   6.402   1.846   4.545 -0.0062 -0.5901  0.6224
  271MOL0     C36471   6.360   1.709   4.584 -1.0115  0.2129 -1.2816
  271MOL0     C36472   6.285   1.709   4.714  0.8525  0.6256 -0.8190
  271MOL0     C36473   6.212   1.575   4.747 -0.0359  0.9516  0.3726
  271MOL0     O36474   6.094   1.587   4.831  0.4481  1.3447  0.2432
  271MOL0     C36475   6.071   1.484   4.914 -0.7694  0.6564  0.8766
  271MOL0     C36476   6.063   1.355   4.884 -0.4030  0.1304 -0.5018
  271MOL0     C36477   6.027   1.258   4.980  0.7126  0.3499  0.3347
  271MOL0     C36478   6.007   1.293   5.114  0.3842  0.2192  0.0460
  271MOL0     C36479   5.984   1.185   5.208 -0.2315 -0.3827 -0.1361
  271MOL0     O36480   6.030   1.062   5.179  0.2081 -0.6213  0.7177
  271MOL0     C36481   6.047   0.974   5.272 -1.0465  0.8660 -0.3370
  271MOL0     C36482   6.168   0.921   5.280 -0.0088  0.4958  0.7380
  271MOL0     C36483   6.208   0.837   5.381 -0.0078 -0.7836  1.1171
  271MOL0     C36484   6.124   0.807   5.486  0.8897 -0.6190  0.6866
  271MOL0     O36485   6.155   0.726   5.585 -0.1679  0.2390  0.1354
  271MOL0     C36486   6.128   0.781   5.715  0.4340 -0.1370  0.7673
  271MOL0     C36487   6.252   0.774   5.808 -0.6988  0.6477  0.2904
  271MOL0     C36488   6.216   0.823   5.948 -0.0326 -0.3623  0.4865
  271MOL0     C36489   6.344   0.850   6.030  0.0382 -0.5282 -1.0043
  271MOL0     C36490   6.310   0.877   6.181 -0.0078 -0.3001  0.2316
  271MOL0     C36491   6.271   0.754   6.258  0.2163 -0.8034  1.2498
  271MOL0     C36492   6.256   0.785   6.401  1.1969  0.7979  0.2192
  271MOL0     C36493   6.217   0.651   6.474 -0.2342  0.1581  0.0914
  271MOL0    Cl36494   6.106   0.685   6.609 -0.0340 -0.2482 -0.3872
  271MOL0     C36495   5.991   0.840   5.469 -0.4612 -0.7277 -0.3446
  271MOL0     C36496   5.951   0.933   5.367 -0.5550 -0.2683  0.5244
  271MOL0     O36497   5.919   1.218   5.311 -0.3828 -0.0585 -0.0282
  271MOL0     C36498   5.999   1.430   5.145  1.4238 -1.4284 -0.1839
  271MOL0     C36499   6.037   1.525   5.043 -0.0239  0.4256 -0.7767
  271MOL0     N36500   6.468   1.779   4.303  0.3088  0.5438 -0.5533
  271MOL0     N36501   6.566   1.793   4.219 -0.8523 -0.3079  0.4930
  271MOL0     C36502   7.479   2.428   4.158 -0.3666 -0.6307 -0.1834
  271MOL0     C36503   7.530   2.532   4.238  0.2145 -0.7002  0.2562
  271MOL0     C36504   7.683   2.892   4.442  1.1237 -1.2777  0.7009
  271MOL0     C36505   7.599   2.991   4.382  0.7148 -0.1458 -0.1254
  271MOL0     C36506   7.614   3.125   4.394  0.0029 -0.6264  0.0484
  271MOL0     C36507   7.720   3.170   4.480 -0.5980  0.3373  0.7540
  271MOL0     O36508   7.756   3.290   4.502  0.3269 -0.4525 -0.1621
  271MOL0     C36509   7.711   3.399   4.425  0.3283  0.0917 -0.5682
  271MOL0     C36510   7.575   3.443   4.479  0.5726 -0.4456 -0.6354
  271MOL0     C36511   7.498   3.541   4.392  0.2838  0.7521 -0.0129
  271MOL0     C36512   7.405   3.472   4.293 -0.0152  0.0794 -0.3909
  271MOL0     C36513   7.338   3.561   4.199 -0.1742  0.3932 -0.0273
  271MOL0     C36514   7.293   3.641   4.116  0.4501 -0.2221 -0.3149
  271MOL0     C36515   7.794   3.075   4.550 -1.2436 -0.2552  0.4214
  271MOL0     C36516   7.780   2.938   4.534  0.0800  1.2922 -0.1546
  271MOL0     C36517   7.879   2.843   4.596 -0.7291 -0.7466 -0.2652
  271MOL0     H36518   7.652   2.733   3.988  0.0917 -0.1788  0.5822
  271MOL0     H36519   7.581   2.532   3.860 -0.1259 -0.2928  0.3949
  271MOL0     H36520   7.266   2.374   3.958  2.4007 -1.3114  2.8782
  271MOL0     H36521   7.339   2.387   3.802 -0.7783  0.9561  1.4142
  271MOL0     H36522   7.323   2.125   3.965  1.4760  1.5000  1.2985
  271MOL0     H36523   7.317   2.122   3.787 -4.4190  0.1597 -1.6016
  271MOL0     H36524   7.107   2.074   3.840  3.6634 -0.7755 -0.5269
  271MOL0     H36525   7.094   2.252   3.808 -0.3144  0.4651  0.7453
  271MOL0     H36526   7.134   2.166   4.088  0.9288 -1.7813  0.5259
  271MOL0     H36527   7.062   2.310   4.020 -4.1219  0.3630 -2.2055
  271MOL0     H36528   6.856   2.170   3.937  2.2829  0.0054 -1.5591
  271MOL0     H36529   6.944   2.032   4.016  1.0126 -0.6472  1.2496
  271MOL0     H36530   6.940   2.122   4.237  0.7329 -0.7681 -0.5246
  271MOL0     H36531   6.843   2.262   4.188  0.2219 -0.6438  0.8682
  271MOL0     H36532   6.695   2.105   4.090 -1.4689  1.6048  0.3282
  271MOL0     H36533   6.671   2.133   4.258  0.7910  0.2422 -0.5613
  271MOL0     H36534   6.797   1.889   4.121  2.8903  1.0317 -0.1247
  271MOL0     H36535   6.853   1.916   4.280 -1.2244 -2.1182 -0.1316
  271MOL0     H36536   6.654   1.935   4.502 -0.1559 -0.1141 -0.1004
  271MOL0     H36537   6.441   1.912   4.623  2.5808  1.5920 -2.2974
  271MOL0     H36538   6.308   1.890   4.512 -1.0430 -2.6084  0.7406
  271MOL0     H36539   6.288   1.667   4.514 -0.2659 -3.1935 -0.2444
  271MOL0     H36540   6.446   1.641   4.596 -1.8683 -0.4108  3.0704
  271MOL0     H36541   6.200   1.769   4.680  2.1114  1.4041 -2.7533
  271MOL0     H36542   6.328   1.750   4.806 -0.8053 -1.8086  1.1983
  271MOL0     H36543   6.284   1.515   4.804 -2.3265 -2.7377 -0.2980
  271MOL0     H36544   6.192   1.541   4.645  2.3466  1.6428 -0.4017
  271MOL0     H36545   6.100   1.334   4.784  0.3005  0.3500 -0.2925
  271MOL0     H36546   6.021   1.152   4.957  1.1662  0.2803  0.5252
  271MOL0     H36547   6.248   0.946   5.211  0.8613 -4.1418 -0.2598
  271MOL0     H36548   6.307   0.793   5.385  0.4988  0.3014  0.8893
  271MOL0     H36549   6.084   0.878   5.693 -2.9169 -1.4951  0.8885
  271MOL0     H36550   6.053   0.714   5.758  1.4431 -1.9331 -0.1609
  271MOL0     H36551   6.281   0.669   5.819 -2.7907  0.1818  2.2443
  271MOL0     H36552   6.329   0.840   5.769 -0.3738  1.3735  2.0627
  271MOL0     H36553   6.152   0.911   5.951 -0.2521 -0.2580 -2.9765
  271MOL0     H36554   6.159   0.737   5.986  2.5756 -2.7783 -0.7052
  271MOL0     H36555   6.404   0.932   5.988 -1.3682  1.0126 -0.1414
  271MOL0     H36556   6.402   0.757   6.027  0.1614 -0.5873  1.6300
  271MOL0     H36557   6.240   0.960   6.192  0.7634  0.4759 -0.5170
  271MOL0     H36558   6.403   0.910   6.229  0.9614 -1.4133 -0.8223
  271MOL0     H36559   6.186   0.704   6.210 -0.2392 -0.4094  1.6345
  271MOL0     H36560   6.358   0.690   6.246 -0.3016 -1.3472  0.2096
  271MOL0     H36561   6.169   0.849   6.417  0.3159  0.0463 -1.3296
  271MOL0     H36562   6.352   0.821   6.438  0.9645  1.4587  0.1973
  271MOL0     H36563   6.161   0.586   6.407 -0.2402 -2.6615  2.6223
  271MOL0     H36564   6.309   0.601   6.505  0.2885 -0.0368 -1.6835
  271MOL0     H36565   5.922   0.801   5.543  1.9856  0.0427  2.5307
  271MOL0     H36566   5.858   0.988   5.358 -0.1399  1.3589  4.3369
  271MOL0     H36567   5.976   1.474   5.242 -0.4881  0.1180 -1.2668
  271MOL0     H36568   6.033   1.631   5.063  0.7000  0.5097 -1.0567
  271MOL0     H36569   7.414   2.352   4.199 -3.2795  1.5544 -0.3917
  271MOL0     H36570   7.495   2.539   4.340 -1.4854  0.4192 -0.3671
  271MOL0     H36571   7.515   2.966   4.318 -1.5939 -0.7383  2.8576
  271MOL0     H36572   7.548   3.194   4.344 -0.5719 -2.5299 -1.9838
  271MOL0     H36573   7.706   3.378   4.318 -0.3453 -0.0865 -0.5018
  271MOL0     H36574   7.784   3.479   4.435 -1.1407  1.9038 -3.2292
  271MOL0     H36575   7.601   3.491   4.574  0.6697  3.0830 -2.3003
  271MOL0     H36576   7.500   3.366   4.502 -0.9511  1.8885  3.3935
  271MOL0     H36577   7.570   3.594   4.329 -0.9548  0.4975 -1.7165
  271MOL0     H36578   7.435   3.610   4.449 -2.2685 -2.1216  0.9572
  271MOL0     H36579   7.460   3.409   4.223 -3.2874 -3.4791 -0.1038
  271MOL0     H36580   7.331   3.411   4.347  1.4969  1.2771  3.4084
  271MOL0     H36581   7.256   3.708   4.041  3.1044 -1.4804 -2.9404
  271MOL0     H36582   7.871   3.106   4.620 -1.7528  0.9187  0.4835
  271MOL0     H36583   7.939   2.791   4.521  0.0672 -2.0516  1.2330
  271MOL0     H36584   7.955   2.907   4.642 -0.8785 -0.1721 -0.8048
  271MOL0     H36585   7.829   2.766   4.656 -3.5814 -1.3942 -3.1886
  272MOL0     O36586   2.471   5.281   9.828 -0.3514  0.1328 -0.4611
  272MOL0     C36587   2.476   5.370   9.915 -0.6815 -0.2167  0.4105
  272MOL0     O36588   2.398   5.363  10.031  0.0301 -0.0722 -0.1637
  272MOL0     C36589   2.312   5.266  10.069  0.1088  0.1572  0.0282
  272MOL0     C36590   2.221   5.204   9.982  0.2488 -0.1860  0.3601
  272MOL0     C36591   2.142   5.102  10.033  1.0492 -0.8566  0.6975
  272MOL0     C36592   2.137   5.073  10.170 -0.2901 -0.0514 -0.7939
  272MOL0     O36593   2.048   4.972  10.203  0.1451 -0.3429  0.1114
  272MOL0     C36594   2.000   4.980  10.336  0.6229 -0.1226 -0.8865
  272MOL0     C36595   1.872   4.894  10.367 -1.1309  0.6583 -0.1196
  272MOL0     C36596   1.846   4.880  10.514 -0.1981  0.2400 -0.1018
  272MOL0     C36597   1.760   4.997  10.562 -0.7298  0.2403 -0.5268
  272MOL0     C36598   1.697   4.994  10.706  0.8205 -0.1815  0.3514
  272MOL0     C36599   1.557   4.928  10.695  0.2500  0.7655  0.1700
  272MOL0     C36600   1.494   4.895  10.831  0.0498 -0.0646  0.9099
  272MOL0     C36601   1.520   4.999  10.937  0.3672 -1.1821  0.3341
  272MOL0     N36602   1.480   4.942  11.065  0.1688  0.6395  0.0448
  272MOL0     C36603   1.540   4.829  11.120 -0.3740  0.3306 -0.4024
  272MOL0     C36604   1.515   4.820  11.255  0.0476 -0.0083 -0.0369
  272MOL0     C36605   1.570   4.712  11.347 -0.4790 -0.5560  0.7127
  272MOL0     C36606   1.544   4.568  11.294  0.7983 -0.4939  0.1075
  272MOL0     C36607   1.394   4.533  11.292 -0.9401  0.3278 -0.0108
  272MOL0     C36608   1.380   4.383  11.255  0.2487  0.9459  0.0216
  272MOL0     O36609   1.397   4.375  11.108 -0.0422 -0.2185 -0.4977
  272MOL0     C36610   1.351   4.261  11.049  1.0258  0.9081  1.1478
  272MOL0     C36611   1.335   4.263  10.911 -0.8885  1.0518  0.2833
  272MOL0     C36612   1.305   4.156  10.832  0.2247 -0.4160  0.2933
  272MOL0     C36613   1.268   4.037  10.888 -0.2288 -0.4980  0.5024
  272MOL0     C36614   1.236   3.913  10.803  1.5316  1.4944  0.6524
  272MOL0     O36615   1.247   3.927  10.670  0.1219  0.1095 -0.7062
  272MOL0     C36616   1.216   3.821  10.586 -0.4808  0.0936 -0.5260
  272MOL0     C36617   1.120   3.857  10.489  0.0510 -0.0888 -0.0332
  272MOL0     C36618   1.058   3.770  10.405  0.2036  0.4413 -0.2995
  272MOL0     C36619   1.086   3.633  10.413  0.2150  0.4833 -0.0748
  272MOL0     O36620   1.025   3.540  10.328  0.1633  0.0998  0.3190
  272MOL0     C36621   0.946   3.435  10.392  0.9689 -0.4504 -0.4451
  272MOL0     C36622   0.998   3.289  10.372  0.0467 -0.4825 -0.3615
  272MOL0     C36623   1.049   3.260  10.233  0.5638  0.5914 -0.0040
  272MOL0     C36624   0.952   3.269  10.116  0.2160 -0.5209  0.1811
  272MOL0     C36625   1.012   3.285   9.977  0.2886  0.1758  0.0258
  272MOL0     C36626   1.123   3.186   9.945 -0.7469  0.5727 -0.0109
  272MOL0     C36627   1.069   3.039   9.925  0.8529  0.9772 -0.8769
  272MOL0     C36628   0.934   3.030   9.860  0.5798  0.2704  0.8165
  272MOL0    Cl36629   0.919   2.847   9.826  0.3739 -0.4085 -0.3288
  272MOL0     C36630   1.182   3.591  10.517  0.3308  0.4545  0.6756
  272MOL0     C36631   1.248   3.687  10.598 -0.3849 -0.5091 -0.2415
  272MOL0     O36632   1.209   3.803  10.860 -0.3620 -0.7430  0.3487
  272MOL0     C36633   1.258   4.033  11.025 -0.2210  0.1896  0.0375
  272MOL0     C36634   1.299   4.141  11.108 -0.5057 -0.7235  0.7527
  272MOL0     N36635   1.413   4.914  11.281 -0.1471  0.4854  0.1120
  272MOL0     N36636   1.407   4.991  11.169 -0.0834 -0.5809  1.1721
  272MOL0     C36637   2.235   5.143  10.259  0.0679  0.4817  0.0763
  272MOL0     C36638   2.319   5.238  10.199  0.1132  0.2776 -0.1452
  272MOL0     C36639   2.538   5.500   9.872 -0.2331 -1.0560  0.8047
  272MOL0     C36640   2.462   5.626   9.886 -0.1485  0.3193  0.1905
  272MOL0     C36641   2.516   5.740   9.838 -0.6976 -0.1044  0.9230
  272MOL0     C36642   2.643   5.756   9.777 -0.1329  0.1279 -0.1619
  272MOL0     O36643   2.680   5.878   9.736  0.8102  0.9066  0.0050
  272MOL0     C36644   2.820   5.918   9.753 -0.2382 -1.3246  0.0393
  272MOL0     C36645   2.841   5.999   9.881 -0.0387  0.1208  1.1897
  272MOL0     C36646   2.758   6.123   9.874 -0.0601  0.2918 -0.5166
  272MOL0     C36647   2.832   6.214   9.966 -1.0607  0.2552 -0.8785
  272MOL0     C36648   2.786   6.347   9.967  0.9669  0.6073  0.4524
  272MOL0     C36649   2.760   6.465   9.967  0.7693  0.7198  1.2198
  272MOL0     C36650   2.711   5.638   9.757 -0.9076  0.3633 -0.4485
  272MOL0     C36651   2.657   5.514   9.797  0.2022  0.2250 -0.1921
  272MOL0     C36652   2.749   5.395   9.778 -0.5115  0.0068  0.2632
  272MOL0     H36653   2.217   5.214   9.874 -3.2945 -0.1648  0.3696
  272MOL0     H36654   2.070   5.068   9.960  1.4204 -0.5889  0.2061
  272MOL0     H36655   2.074   4.933  10.401 -0.9630 -2.2846 -0.5409
  272MOL0     H36656   1.993   5.088  10.353  0.8367 -0.5536  2.5507
  272MOL0     H36657   1.891   4.798  10.318 -2.0875  0.4172 -0.0319
  272MOL0     H36658   1.785   4.926  10.310  1.8700  2.8804 -3.9742
  272MOL0     H36659   1.938   4.866  10.571  0.6532 -2.9169 -2.0222
  272MOL0     H36660   1.793   4.786  10.534  1.3865 -1.0330 -1.6410
  272MOL0     H36661   1.829   5.082  10.562 -0.0076 -0.3343 -1.4554
  272MOL0     H36662   1.684   5.027  10.490 -1.6225 -0.7711 -0.0333
  272MOL0     H36663   1.775   4.947  10.767 -0.0903 -0.5030  1.2863
  272MOL0     H36664   1.692   5.099  10.734  0.5469 -0.1998  0.3721
  272MOL0     H36665   1.484   4.992  10.644  0.1776 -0.1522 -0.8996
  272MOL0     H36666   1.556   4.835  10.637 -1.5912 -0.2708  1.7437
  272MOL0     H36667   1.525   4.795  10.865 -1.9388 -1.2430 -0.5087
  272MOL0     H36668   1.386   4.889  10.814  0.0598 -1.6658  1.1962
  272MOL0     H36669   1.622   5.039  10.934 -1.0387  3.0493  1.2381
  272MOL0     H36670   1.452   5.083  10.923 -0.2505 -1.2577  2.5532
  272MOL0     H36671   1.605   4.753  11.076  0.1497 -0.6205  1.8867
  272MOL0     H36672   1.678   4.727  11.349 -0.6126  0.3677  2.2956
  272MOL0     H36673   1.533   4.719  11.449 -1.9398  0.1244  0.1670
  272MOL0     H36674   1.591   4.552  11.197  0.7155  0.1090 -0.0429
  272MOL0     H36675   1.600   4.504  11.362  2.1645 -0.3440 -0.8351
  272MOL0     H36676   1.336   4.595  11.223 -0.7966  0.0882 -0.3494
  272MOL0     H36677   1.361   4.558  11.393  3.2412  2.2251  1.0951
  272MOL0     H36678   1.274   4.364  11.272 -0.3862  4.3089  0.5620
  272MOL0     H36679   1.445   4.318  11.313 -0.0311  0.1913 -0.4977
  272MOL0     H36680   1.364   4.354  10.859  3.0024  0.4790  1.1052
  272MOL0     H36681   1.290   4.171  10.725 -1.8819  0.8358  0.6938
  272MOL0     H36682   1.093   3.962  10.486  4.1043  1.1394 -2.4720
  272MOL0     H36683   0.985   3.783  10.326  0.1261 -0.5770 -0.4125
  272MOL0     H36684   0.942   3.452  10.500 -3.2226 -0.4748 -0.4320
  272MOL0     H36685   0.843   3.422  10.358  1.6138 -1.1482 -2.3013
  272MOL0     H36686   1.073   3.273  10.449 -0.2732  2.5120  0.7167
  272MOL0     H36687   0.925   3.212  10.397  2.7703 -3.4272 -0.8820
  272MOL0     H36688   1.133   3.330  10.228  1.7846 -0.6260  1.9426
  272MOL0     H36689   1.088   3.158  10.247 -1.2881  0.0142  1.4276
  272MOL0     H36690   0.882   3.352  10.131  0.6442 -0.2115  0.4778
  272MOL0     H36691   0.890   3.180  10.130  0.4361 -0.6425  0.3974
  272MOL0     H36692   1.061   3.382   9.967 -2.1144  1.4632  0.1577
  272MOL0     H36693   0.942   3.271   9.894  2.0381  0.0978 -1.5029
  272MOL0     H36694   1.177   3.216   9.855  0.2451  0.2375  0.4508
  272MOL0     H36695   1.198   3.178  10.025 -1.0473 -3.6287  0.0990
  272MOL0     H36696   1.054   2.993  10.023 -1.1109  1.0631 -1.0957
  272MOL0     H36697   1.140   2.973   9.874  1.8517  0.8829  0.5778
  272MOL0     H36698   0.842   3.055   9.913 -2.0283 -0.4456 -2.9465
  272MOL0     H36699   0.919   3.087   9.768 -1.3156  1.2327  1.6577
  272MOL0     H36700   1.205   3.485  10.526  2.1688  0.5619 -1.6764
  272MOL0     H36701   1.311   3.661  10.683 -2.2974 -2.6636  0.6104
  272MOL0     H36702   1.227   3.939  11.071  1.9361 -1.2033 -1.1571
  272MOL0     H36703   1.297   4.146  11.216 -0.3974  2.5566  0.7015
  272MOL0     H36704   2.232   5.127  10.366  2.1569 -1.2397 -0.0478
  272MOL0     H36705   2.393   5.295  10.254  1.3045  1.3124 -2.6567
  272MOL0     H36706   2.362   5.631   9.928 -0.4284  2.3997 -0.5922
  272MOL0     H36707   2.481   5.843   9.846  1.3759  0.5641  2.6293
  272MOL0     H36708   2.849   5.974   9.663  1.2164  1.7955  2.2710
  272MOL0     H36709   2.881   5.830   9.774  0.2758 -1.4158 -1.6929
  272MOL0     H36710   2.949   6.012   9.877  0.0444 -0.6105 -2.6323
  272MOL0     H36711   2.817   5.952   9.977 -1.6412  1.7615  1.6445
  272MOL0     H36712   2.661   6.092   9.913 -0.2585 -0.4753 -1.5894
  272MOL0     H36713   2.748   6.172   9.777 -0.8038  3.3491  0.9836
  272MOL0     H36714   2.837   6.179  10.069  1.9272  0.9761 -0.6785
  272MOL0     H36715   2.936   6.220   9.931  0.1209 -0.8208  2.1120
  272MOL0     H36716   2.719   6.564   9.963 -1.1556 -0.0261  1.3602
  272MOL0     H36717   2.804   5.647   9.701 -1.4098 -0.9069 -1.5305
  272MOL0     H36718   2.732   5.359   9.676 -0.3667  1.3968 -0.2719
  272MOL0     H36719   2.857   5.416   9.779 -0.6162  0.7767 -1.2978
  272MOL0     H36720   2.734   5.310   9.846  1.7620 -0.6817 -0.0011
  273MOL0     O36721   2.680   4.878  10.870  0.3400  0.5239  0.0615
  273MOL0     C36722   2.785   4.844  10.817 -0.4761 -0.1107 -0.2294
  273MOL0     O36723   2.832   4.721  10.796  0.2982 -0.0227  0.6231
  273MOL0     C36724   2.757   4.609  10.809  0.2859 -0.6516 -0.3622
  273MOL0     C36725   2.640   4.593  10.894  0.4405 -0.1446 -0.6083
  273MOL0     C36726   2.605   4.463  10.920 -0.0143  1.1529 -0.3647
  273MOL0     C36727   2.649   4.350  10.835  0.9644  0.2663 -0.4839
  273MOL0     O36728   2.596   4.219  10.844  0.8679  0.1236  0.3864
  273MOL0     C36729   2.511   4.192  10.950  0.9169  0.2684  0.0562
  273MOL0     C36730   2.469   4.041  10.943 -0.4885  0.0114 -0.4283
  273MOL0     C36731   2.361   4.016  11.048  0.9109  0.3862 -0.4268
  273MOL0     C36732   2.350   3.866  11.073  0.8194  0.0359 -0.1258
  273MOL0     C36733   2.257   3.826  11.193 -0.2886 -0.4286  0.1979
  273MOL0     C36734   2.106   3.827  11.154  0.1745  0.4782  0.8870
  273MOL0     C36735   2.034   3.702  11.219 -0.9034 -0.2914  0.7949
  273MOL0     C36736   1.948   3.743  11.343 -0.8708  0.1312  0.4277
  273MOL0     N36737   2.038   3.741  11.461 -0.4205 -0.0094 -0.0618
  273MOL0     C36738   2.081   3.626  11.523 -0.1174 -0.6428 -0.1896
  273MOL0     C36739   2.062   3.660  11.658  0.0638 -0.7125  0.4937
  273MOL0     C36740   2.083   3.573  11.774  0.0350 -0.2316  0.4942
  273MOL0     C36741   1.960   3.473  11.792 -0.6190 -0.4671  2.1911
  273MOL0     C36742   1.986   3.348  11.881  0.7334  0.4365 -0.2466
  273MOL0     C36743   2.090   3.247  11.842 -0.2416 -0.3720 -0.9810
  273MOL0     O36744   2.097   3.139  11.943  0.7957  0.1211 -0.2676
  273MOL0     C36745   1.976   3.074  11.980 -0.5812 -0.3584  0.1469
  273MOL0     C36746   1.918   3.063  12.110  0.5785 -0.0680  0.1615
  273MOL0     C36747   1.806   2.990  12.144 -0.1035  0.0738  0.1675
  273MOL0     C36748   1.739   2.928  12.036  0.1116  0.0028  0.3561
  273MOL0     C36749   1.630   2.831  12.063 -1.0997 -1.1062 -0.5582
  273MOL0     O36750   1.603   2.721  11.971 -0.0696 -0.4893 -0.4859
  273MOL0     C36751   1.487   2.649  11.998 -0.0958 -0.2746  0.0498
  273MOL0     C36752   1.494   2.518  12.047 -0.4904 -0.5173  0.2931
  273MOL0     C36753   1.371   2.453  12.077  0.1428  0.3851 -0.7224
  273MOL0     C36754   1.251   2.528  12.054 -0.4138  0.0360  0.0134
  273MOL0     O36755   1.125   2.477  12.063  1.2917 -0.0065  0.0906
  273MOL0     C36756   1.111   2.338  12.101  0.0724  0.2490  0.1485
  273MOL0     C36757   0.966   2.314  12.117  0.5723  0.1205 -0.2999
  273MOL0     C36758   0.903   2.235  12.004  0.3036  0.1276 -0.2178
  273MOL0     C36759   0.752   2.192  12.034  1.1259 -1.2051 -0.1380
  273MOL0     C36760   0.740   2.039  12.054 -0.4577  0.1006 -0.7212
  273MOL0     C36761   0.596   1.995  12.060 -0.5402 -0.4248 -0.0882
  273MOL0     C36762   0.584   1.855  12.059 -0.0361  0.2403 -0.6794
  273MOL0     C36763   0.441   1.828  12.091 -0.4266  0.6420 -0.3537
  273MOL0    Cl36764   0.326   1.909  11.983  0.0327  0.3226 -0.0043
  273MOL0     C36765   1.253   2.657  12.005 -0.2884 -0.2110  0.0709
  273MOL0     C36766   1.369   2.722  11.986  0.4102 -0.2562  0.6408
  273MOL0     O36767   1.582   2.844  12.172  0.6315 -0.6276  0.3683
  273MOL0     C36768   1.789   2.943  11.909 -0.7406 -0.6540  1.1245
  273MOL0     C36769   1.907   3.015  11.874 -0.0091  0.0798 -0.4884
  273MOL0     N36770   2.040   3.789  11.666  0.0727 -0.1270  0.2355
  273MOL0     N36771   2.025   3.848  11.545  0.8189  0.2847 -0.7163
  273MOL0     C36772   2.766   4.378  10.769  0.2789 -0.6909  0.6708
  273MOL0     C36773   2.813   4.503  10.739  0.2304 -0.2594  0.0898
  273MOL0     C36774   2.865   4.971  10.782  1.3618 -0.9354 -0.7125
  273MOL0     C36775   2.873   5.002  10.644  0.2160 -0.1487 -0.1132
  273MOL0     C36776   2.951   5.109  10.598 -0.4618  0.3974 -0.2285
  273MOL0     C36777   2.990   5.207  10.687  0.4310 -0.1329 -0.6884
  273MOL0     O36778   3.066   5.305  10.640 -0.2942 -0.7809 -0.3548
  273MOL0     C36779   2.991   5.431  10.661 -0.7861  0.1874  0.9971
  273MOL0     C36780   3.077   5.553  10.651 -0.6824  0.0103 -0.3536
  273MOL0     C36781   3.159   5.598  10.771 -0.9971  0.3780 -0.1183
  273MOL0     C36782   3.093   5.598  10.909 -0.5197  0.4400 -0.7194
  273MOL0     C36783   2.974   5.678  10.907  0.5999 -0.6612  0.3851
  273MOL0     C36784   2.880   5.747  10.916 -0.7634 -1.0726  0.1248
  273MOL0     C36785   2.983   5.184  10.829  0.2778 -0.8260 -0.5691
  273MOL0     C36786   2.924   5.063  10.875 -0.5626  0.5045  0.6700
  273MOL0     C36787   2.903   5.036  11.020 -0.2011 -0.6504  0.1622
  273MOL0     H36788   2.591   4.672  10.949 -0.9412 -1.0551 -0.4969
  273MOL0     H36789   2.520   4.442  10.985 -1.9264 -0.0790 -3.0602
  273MOL0     H36790   2.558   4.221  11.044  1.6685 -3.5833  1.0560
  273MOL0     H36791   2.416   4.245  10.937  0.2454 -0.6961  0.9199
  273MOL0     H36792   2.563   3.997  10.981  1.9614  3.3928 -2.0750
  273MOL0     H36793   2.433   4.006  10.847 -1.9553 -3.5230  1.2146
  273MOL0     H36794   2.269   4.060  11.011  0.2649 -1.1501 -0.7074
  273MOL0     H36795   2.392   4.055  11.146  2.2130 -3.5469  0.9138
  273MOL0     H36796   2.306   3.823  10.982 -0.3811 -0.5745  0.7084
  273MOL0     H36797   2.442   3.820  11.108 -0.2885 -3.0193 -0.9353
  273MOL0     H36798   2.291   3.727  11.225 -0.5340 -0.0364  1.7415
  273MOL0     H36799   2.271   3.900  11.272  1.4108  1.8095 -2.0530
  273MOL0     H36800   2.056   3.922  11.176  1.0153  1.3749 -0.8490
  273MOL0     H36801   2.093   3.830  11.045 -0.2119 -0.9408  0.8732
  273MOL0     H36802   2.111   3.627  11.239  3.6979  2.4966 -4.0809
  273MOL0     H36803   1.976   3.651  11.142  0.2747  1.7676 -1.6244
  273MOL0     H36804   1.883   3.830  11.333 -3.4726 -1.5581  1.6683
  273MOL0     H36805   1.872   3.665  11.340  0.3215 -1.0443 -1.0417
  273MOL0     H36806   2.108   3.526  11.490  2.3358 -1.7512  4.2899
  273MOL0     H36807   2.183   3.531  11.756  0.4383  0.1195  1.8427
  273MOL0     H36808   2.100   3.640  11.858 -1.4286  2.6647 -1.3863
  273MOL0     H36809   1.880   3.522  11.849 -0.5678 -0.5554  2.3409
  273MOL0     H36810   1.916   3.444  11.696  2.0178  1.6180  0.1994
  273MOL0     H36811   1.900   3.281  11.872  1.3064 -0.0593 -2.6221
  273MOL0     H36812   2.007   3.386  11.982 -0.6978  2.0349 -0.4934
  273MOL0     H36813   2.181   3.307  11.843  0.0182 -0.6029 -3.5231
  273MOL0     H36814   2.072   3.198  11.746  0.8944  0.5718 -1.6983
  273MOL0     H36815   1.971   3.114  12.190 -2.7902 -0.5897  2.9656
  273MOL0     H36816   1.790   2.971  12.250  1.6723  0.1434  0.4793
  273MOL0     H36817   1.588   2.468  12.067 -0.6433 -2.6022 -3.3416
  273MOL0     H36818   1.385   2.357  12.126  0.4773  0.3386 -0.9087
  273MOL0     H36819   1.171   2.276  12.033 -1.9585 -0.2644 -1.2730
  273MOL0     H36820   1.150   2.320  12.201  1.4889 -0.1949 -0.4573
  273MOL0     H36821   0.937   2.269  12.213 -3.1431  2.2182 -0.2324
  273MOL0     H36822   0.921   2.412  12.134  2.3739  0.4842  3.4847
  273MOL0     H36823   0.915   2.287  11.908  1.9086 -2.0304 -1.2708
  273MOL0     H36824   0.960   2.142  11.997 -0.7766 -0.4366 -2.0706
  273MOL0     H36825   0.681   2.228  11.959  0.2564  2.6242  2.1930
  273MOL0     H36826   0.733   2.240  12.131 -0.2132 -2.5681  0.3145
  273MOL0     H36827   0.800   2.006  12.139 -0.1453 -2.9959 -2.0226
  273MOL0     H36828   0.786   1.987  11.969  2.2076  0.6183  0.3031
  273MOL0     H36829   0.562   2.025  12.160 -0.4863 -0.9088  0.0782
  273MOL0     H36830   0.545   2.038  11.974 -3.4103 -2.7378  0.2903
  273MOL0     H36831   0.642   1.810  12.140  0.0847 -0.7874 -1.3254
  273MOL0     H36832   0.610   1.813  11.961 -0.2406 -2.3850  0.3133
  273MOL0     H36833   0.407   1.724  12.099  0.9724  0.2972  3.8034
  273MOL0     H36834   0.422   1.861  12.193 -1.3468 -2.3346  0.5394
  273MOL0     H36835   1.163   2.716  11.996  0.1188  0.8074  2.1876
  273MOL0     H36836   1.367   2.824  11.947  3.1044 -0.0318  0.9157
  273MOL0     H36837   1.750   2.887  11.826 -2.1097  0.2983  1.0877
  273MOL0     H36838   1.942   3.024  11.772 -0.6658 -1.3998 -0.8724
  273MOL0     H36839   2.814   4.293  10.722  3.0978 -0.3692  2.7561
  273MOL0     H36840   2.910   4.502  10.689  0.2668 -0.7504  0.1634
  273MOL0     H36841   2.830   4.937  10.569  0.9758  0.4191 -1.0663
  273MOL0     H36842   2.970   5.109  10.491  2.5921 -2.5524  0.1194
  273MOL0     H36843   2.949   5.428  10.762  0.1418 -1.2429  1.3729
  273MOL0     H36844   2.902   5.429  10.598 -0.7341 -2.2376  0.8971
  273MOL0     H36845   3.006   5.634  10.630 -3.2406 -2.6234 -2.8943
  273MOL0     H36846   3.144   5.555  10.565 -0.9154  3.0476 -0.5660
  273MOL0     H36847   3.200   5.696  10.745 -0.0854  0.0156 -0.0781
  273MOL0     H36848   3.245   5.530  10.767 -2.6584 -1.8503  0.1242
  273MOL0     H36849   3.085   5.495  10.942  2.2255  0.2527 -0.4200
  273MOL0     H36850   3.158   5.657  10.974  0.1571  1.2904 -2.1225
  273MOL0     H36851   2.800   5.817  10.914 -1.4048 -1.7977 -1.8525
  273MOL0     H36852   3.020   5.256  10.902 -1.1102 -3.0892  2.5825
  273MOL0     H36853   2.800   5.007  11.042  0.0380 -3.7151 -1.9902
  273MOL0     H36854   2.952   4.941  11.046  2.2266  0.2317 -0.9157
  273MOL0     H36855   2.947   5.112  11.084  1.8952  1.6005 -3.5620
  274MOL0     O36856   7.901   9.302  10.285 -0.4411 -0.3950 -0.4139
  274MOL0     C36857   7.883   9.393  10.203 -0.2952 -0.0302 -0.2778
  274MOL0     O36858   7.769   9.471  10.200  0.0245 -1.0727 -0.4202
  274MOL0     C36859   7.690   9.486  10.322 -0.1385 -0.1227  0.6449
  274MOL0     C36860   7.738   9.565  10.424  0.4554  0.6168 -0.6206
  274MOL0     C36861   7.672   9.578  10.544 -0.0184 -0.3780 -0.3211
  274MOL0     C36862   7.552   9.512  10.564  0.7264  0.1491  0.1251
  274MOL0     O36863   7.479   9.515  10.679 -0.3774  0.0447  0.2712
  274MOL0     C36864   7.437   9.639  10.742  0.8809 -1.2435  0.4866
  274MOL0     C36865   7.288   9.632  10.755  0.0832 -0.1887  0.2019
  274MOL0     C36866   7.255   9.536  10.870  0.7967 -0.6119 -0.1473
  274MOL0     C36867   7.191   9.398  10.828  0.2906 -0.4097 -0.5998
  274MOL0     C36868   7.184   9.301  10.944 -0.2527 -0.6428 -0.1852
  274MOL0     C36869   7.306   9.204  10.947  0.0125 -0.0799  0.3774
  274MOL0     C36870   7.422   9.257  11.032  0.2037 -0.2775 -0.1266
  274MOL0     C36871   7.542   9.294  10.934 -0.7544  0.0820 -0.2672
  274MOL0     N36872   7.651   9.345  11.015 -0.4538  0.2642  0.9605
  274MOL0     C36873   7.775   9.293  11.035 -0.5478  0.7245  0.8060
  274MOL0     C36874   7.839   9.357  11.126  0.2051 -0.0025  0.6425
  274MOL0     C36875   7.974   9.330  11.182  0.1202  0.4810  0.9694
  274MOL0     C36876   8.050   9.461  11.224 -0.3897  0.1486  0.1349
  274MOL0     C36877   8.186   9.428  11.293 -0.1623  0.1130  0.3975
  274MOL0     C36878   8.271   9.330  11.211 -0.5647  0.2792 -0.2275
  274MOL0     O36879   8.233   9.195  11.228 -0.5601  0.0509  0.8154
  274MOL0     C36880   8.286   9.109  11.320  0.3767  0.1839 -0.2856
  274MOL0     C36881   8.296   8.973  11.289 -0.3270 -0.9881 -0.4667
  274MOL0     C36882   8.354   8.877  11.378 -0.5395 -0.7678 -0.6221
  274MOL0     C36883   8.384   8.916  11.507 -0.4762 -0.2323  0.2584
  274MOL0     C36884   8.435   8.822  11.608 -0.1962 -0.4037 -0.4855
  274MOL0     O36885   8.464   8.871  11.735  0.9316 -0.6026 -0.5662
  274MOL0     C36886   8.490   8.785  11.834  0.4681 -0.4568 -0.5159
  274MOL0     C36887   8.395   8.732  11.926 -0.1504 -0.3787  0.7474
  274MOL0     C36888   8.439   8.656  12.030  0.5004 -0.3413  0.2416
  274MOL0     C36889   8.576   8.617  12.040  0.1675 -0.6294  0.0144
  274MOL0     O36890   8.630   8.538  12.145 -0.3579 -0.2714 -0.0452
  274MOL0     C36891   8.546   8.485  12.247  0.5996  0.8982 -0.1239
  274MOL0     C36892   8.496   8.585  12.352 -0.3805 -0.0674  0.1221
  274MOL0     C36893   8.486   8.518  12.492 -0.7299  0.3707  0.8624
  274MOL0     C36894   8.615   8.469  12.548  0.7309 -0.0155  0.0731
  274MOL0     C36895   8.609   8.462  12.691  1.2905 -0.6238  0.3451
  274MOL0     C36896   8.703   8.364  12.763 -0.1544 -0.5325  0.2613
  274MOL0     C36897   8.688   8.346  12.913 -0.4118  0.3596  0.4224
  274MOL0     C36898   8.755   8.215  12.957  0.0259  0.0100  1.3458
  274MOL0    Cl36899   8.665   8.066  12.902  0.1242  0.2371 -0.0929
  274MOL0     C36900   8.659   8.652  11.939  0.5086  0.2188 -0.1164
  274MOL0     C36901   8.619   8.745  11.837  0.0020 -0.2258 -0.2338
  274MOL0     O36902   8.432   8.702  11.579  0.4588  0.0214  0.1838
  274MOL0     C36903   8.378   9.057  11.540  0.7709  0.3165  1.1310
  274MOL0     C36904   8.334   9.149  11.450  0.2490  0.7193 -0.3544
  274MOL0     N36905   7.754   9.464  11.162  0.1970 -0.3121 -0.0418
  274MOL0     N36906   7.646   9.460  11.089 -0.1511 -0.3869 -0.1739
  274MOL0     C36907   7.487   9.450  10.457  0.2821 -0.7456  0.2370
  274MOL0     C36908   7.564   9.430  10.341  0.3839  0.3539  0.3340
  274MOL0     C36909   7.993   9.431  10.106  1.2643 -0.3608 -0.0154
  274MOL0     C36910   7.957   9.504   9.999  0.5041  0.3741  0.5915
  274MOL0     C36911   8.052   9.538   9.907 -0.0897 -0.2162  0.0426
  274MOL0     C36912   8.183   9.497   9.913  0.2784 -0.6544 -0.0442
  274MOL0     O36913   8.273   9.546   9.821  0.0530 -0.1229  0.7412
  274MOL0     C36914   8.407   9.479   9.792 -0.1602  0.0405  0.2024
  274MOL0     C36915   8.479   9.542   9.672 -0.6247  0.6181 -0.7695
  274MOL0     C36916   8.392   9.575   9.553  0.1711  0.0979  0.3634
  274MOL0     C36917   8.477   9.578   9.425  0.0688  0.5776  0.0960
  274MOL0     C36918   8.501   9.437   9.394 -0.5308 -0.7775  1.1513
  274MOL0     C36919   8.527   9.319   9.378  0.5742  0.3130 -0.0207
  274MOL0     C36920   8.214   9.414  10.012 -0.7836 -0.4897 -0.1563
  274MOL0     C36921   8.118   9.371  10.106 -0.4588  0.6538 -0.1488
  274MOL0     C36922   8.177   9.286  10.216  0.7187 -1.1421 -0.3853
  274MOL0     H36923   7.837   9.608  10.409  0.4192 -0.1948 -3.8791
  274MOL0     H36924   7.708   9.633  10.631 -1.8235  1.4172 -0.6432
  274MOL0     H36925   7.478   9.645  10.843  0.1807  4.0408  0.7521
  274MOL0     H36926   7.473   9.723  10.682 -1.6468 -0.0636  0.5172
  274MOL0     H36927   7.245   9.598  10.660 -0.5039  0.5173  0.2002
  274MOL0     H36928   7.265   9.738  10.766  1.1662  0.1887 -1.0221
  274MOL0     H36929   7.183   9.588  10.934  1.9941  0.9319  0.0322
  274MOL0     H36930   7.339   9.526  10.939  1.1895  1.2633 -0.2811
  274MOL0     H36931   7.088   9.421  10.800  0.3213  1.0129  0.3513
  274MOL0     H36932   7.252   9.360  10.746  1.6112  2.5015 -1.0730
  274MOL0     H36933   7.166   9.352  11.040  1.1835 -0.3638 -0.0377
  274MOL0     H36934   7.107   9.231  10.910 -0.1330  0.0435 -1.9354
  274MOL0     H36935   7.267   9.112  10.991 -1.8685 -0.1322 -1.2925
  274MOL0     H36936   7.331   9.173  10.845 -2.1869 -1.5340  0.2078
  274MOL0     H36937   7.458   9.193  11.113 -0.9633  0.2848  0.8609
  274MOL0     H36938   7.402   9.347  11.090  0.2357  1.2099 -2.3184
  274MOL0     H36939   7.574   9.199  10.889  3.4095  1.3320 -0.3528
  274MOL0     H36940   7.519   9.373  10.863  0.4744  0.1010 -0.6708
  274MOL0     H36941   7.800   9.198  10.990  1.9095  2.0006 -0.7575
  274MOL0     H36942   7.959   9.273  11.275  0.3117  0.7437  1.1637
  274MOL0     H36943   8.019   9.271  11.101 -1.4597 -1.7099  1.6078
  274MOL0     H36944   8.077   9.507  11.129  1.3485 -2.4466 -0.7495
  274MOL0     H36945   7.988   9.522  11.290  0.0589 -1.9385  2.6798
  274MOL0     H36946   8.156   9.398  11.394  0.5844  0.8531  0.8516
  274MOL0     H36947   8.242   9.520  11.312 -3.7553  2.1793  1.9506
  274MOL0     H36948   8.372   9.337  11.252 -0.7835  0.2138  0.3395
  274MOL0     H36949   8.258   9.360  11.107 -0.1959 -0.0081 -0.3550
  274MOL0     H36950   8.257   8.941  11.193  2.2531 -0.1806 -1.8798
  274MOL0     H36951   8.349   8.776  11.338  1.6006 -0.0684 -2.8830
  274MOL0     H36952   8.287   8.746  11.924 -0.6151 -2.7971  3.2717
  274MOL0     H36953   8.378   8.638  12.117  2.1928 -0.3957  1.4638
  274MOL0     H36954   8.463   8.435  12.196  1.7185  2.0357 -3.3512
  274MOL0     H36955   8.599   8.401  12.291 -0.1031  0.6259  0.2240
  274MOL0     H36956   8.562   8.671  12.365  2.1773 -2.0279  0.8997
  274MOL0     H36957   8.390   8.606  12.338 -0.9240 -3.6208 -2.6281
  274MOL0     H36958   8.446   8.585  12.568  1.3170  3.0602 -0.2684
  274MOL0     H36959   8.419   8.432  12.478  1.5009 -1.1784 -1.3099
  274MOL0     H36960   8.680   8.552  12.520 -1.4579  2.3111  1.4122
  274MOL0     H36961   8.634   8.377  12.492 -1.3180  0.0134 -0.7591
  274MOL0     H36962   8.515   8.414  12.721  0.6836 -2.1714 -3.4816
  274MOL0     H36963   8.617   8.565  12.728  1.4167  0.1189 -1.6519
  274MOL0     H36964   8.701   8.269  12.708  0.0818  0.1326 -0.9338
  274MOL0     H36965   8.795   8.419  12.740 -0.2072 -0.5659 -0.0399
  274MOL0     H36966   8.580   8.345  12.934 -0.5716  3.3336  0.2738
  274MOL0     H36967   8.727   8.428  12.974  0.3221 -0.2642  0.8112
  274MOL0     H36968   8.854   8.209  12.911 -0.8837  0.9188 -0.8690
  274MOL0     H36969   8.768   8.214  13.066  0.0625  1.9950  1.3943
  274MOL0     H36970   8.759   8.610  11.952 -1.4607 -4.6621  1.7764
  274MOL0     H36971   8.692   8.773  11.762  0.8249  0.0364  0.6472
  274MOL0     H36972   8.390   9.082  11.644 -1.3689  1.2083  1.2067
  274MOL0     H36973   8.333   9.251  11.488  1.8659  0.3204  0.8473
  274MOL0     H36974   7.387   9.414  10.479 -0.0733  0.6840  1.1641
  274MOL0     H36975   7.521   9.372  10.260 -0.4436  0.5614  0.6143
  274MOL0     H36976   7.856   9.542   9.989 -0.2618 -1.3607  1.2583
  274MOL0     H36977   8.030   9.580   9.809  0.4725  2.6356  1.0517
  274MOL0     H36978   8.391   9.376   9.759  2.4781  0.1358 -1.6676
  274MOL0     H36979   8.466   9.475   9.884 -2.9836  3.0085  2.3593
  274MOL0     H36980   8.567   9.485   9.639 -1.0716 -0.6978  0.2218
  274MOL0     H36981   8.518   9.640   9.699 -1.8132  0.6504  0.9755
  274MOL0     H36982   8.349   9.672   9.579  1.2068  0.0016  2.5879
  274MOL0     H36983   8.319   9.493   9.551  3.0320 -2.7064  2.5100
  274MOL0     H36984   8.422   9.626   9.343 -0.7867  3.1681  2.0729
  274MOL0     H36985   8.572   9.628   9.445  1.2355 -1.7822  0.8924
  274MOL0     H36986   8.558   9.216   9.379  1.5064  0.5856  0.0176
  274MOL0     H36987   8.318   9.388  10.025 -0.2533  2.2466  2.0577
  274MOL0     H36988   8.153   9.332  10.312  1.1517 -0.6431 -0.5151
  274MOL0     H36989   8.138   9.184  10.223 -0.1454 -0.7492  0.8658
  274MOL0     H36990   8.285   9.279  10.203  0.7811 -1.2778  0.1731
  275MOL0     O36991   2.121   4.340   3.683  0.1163 -0.4813  0.2446
  275MOL0     C36992   2.030   4.285   3.615  0.2930  0.3759 -0.6787
  275MOL0     O36993   1.927   4.356   3.548 -0.5855  0.9158 -0.0530
  275MOL0     C36994   1.916   4.493   3.543  0.2788  0.1424 -0.5047
  275MOL0     C36995   1.965   4.585   3.633 -0.0950 -0.8885  0.6868
  275MOL0     C36996   1.936   4.721   3.607  0.3969 -0.7535  0.2334
  275MOL0     C36997   1.868   4.754   3.493  1.2734 -0.0497 -0.1839
  275MOL0     O36998   1.828   4.880   3.446 -0.3362  0.0895 -0.0385
  275MOL0     C36999   1.840   4.980   3.534 -0.6765 -0.2792  0.6885
  275MOL0     C37000   1.814   5.125   3.474  0.0540  0.9574 -0.7713
  275MOL0     C37001   1.852   5.237   3.565 -0.7739  0.1574 -0.8438
  275MOL0     C37002   1.752   5.257   3.674  0.2419  0.4362  1.0364
  275MOL0     C37003   1.816   5.296   3.806 -0.1541 -0.2429  0.5316
  275MOL0     C37004   1.845   5.443   3.807 -1.2687 -0.1783  0.4174
  275MOL0     C37005   1.910   5.481   3.944  0.4830 -0.0853 -0.0958
  275MOL0     C37006   2.033   5.405   3.989 -0.3421  0.2085 -0.3997
  275MOL0     N37007   2.137   5.399   3.880  0.2104 -0.9637  0.1746
  275MOL0     C37008   2.149   5.510   3.799  0.2932 -0.3211  1.2092
  275MOL0     C37009   2.222   5.457   3.695 -0.1622  0.5225 -0.3439
  275MOL0     C37010   2.259   5.529   3.574 -0.7945  0.5951 -0.8532
  275MOL0     C37011   2.411   5.550   3.551 -0.1906  0.5123 -0.1310
  275MOL0     C37012   2.482   5.636   3.651 -0.0009  0.5875  0.5145
  275MOL0     C37013   2.621   5.688   3.604 -0.2234  0.4492  0.3295
  275MOL0     O37014   2.598   5.777   3.497  0.3676  0.1196 -0.0760
  275MOL0     C37015   2.574   5.910   3.519  1.3824  0.3024  0.5056
  275MOL0     C37016   2.540   5.970   3.643  0.1489  0.1948 -0.5276
  275MOL0     C37017   2.471   6.091   3.638 -0.4181 -0.5191  0.0880
  275MOL0     C37018   2.445   6.162   3.511 -0.1283  0.6783  0.4107
  275MOL0     C37019   2.370   6.287   3.513 -0.5454 -1.2522 -0.8404
  275MOL0     O37020   2.278   6.313   3.417  0.0467  1.2549  0.0426
  275MOL0     C37021   2.208   6.429   3.415  0.5924 -0.6178 -0.4541
  275MOL0     C37022   2.218   6.519   3.305 -0.5845  0.6818 -0.9524
  275MOL0     C37023   2.145   6.634   3.299 -0.8799 -1.3637 -0.5681
  275MOL0     C37024   2.058   6.680   3.394  0.3258  0.7933 -0.8237
  275MOL0     O37025   2.009   6.808   3.374  0.4706 -0.0428 -0.2599
  275MOL0     C37026   1.966   6.883   3.496 -0.2931 -0.9899  0.6582
  275MOL0     C37027   1.894   7.013   3.452 -0.2562  1.0087  0.4341
  275MOL0     C37028   1.962   7.108   3.365 -0.0979 -0.0277 -0.4600
  275MOL0     C37029   2.049   7.210   3.441  0.5085 -0.0705  1.3233
  275MOL0     C37030   2.104   7.328   3.342 -0.0490 -0.3627 -0.3808
  275MOL0     C37031   2.230   7.287   3.265  0.3305  0.3406  0.1730
  275MOL0     C37032   2.222   7.319   3.113 -0.1242  0.4803  0.5143
  275MOL0     C37033   2.207   7.471   3.081 -0.5367 -0.4917  0.7721
  275MOL0    Cl37034   2.365   7.548   3.096 -0.7371 -0.4775 -0.0460
  275MOL0     C37035   2.048   6.593   3.514  0.2886 -0.3851  0.2568
  275MOL0     C37036   2.122   6.470   3.518  0.3255 -0.5374 -0.0083
  275MOL0     O37037   2.405   6.366   3.601  0.3953  0.1105 -0.0014
  275MOL0     C37038   2.493   6.106   3.398  0.4153 -0.1546 -0.3571
  275MOL0     C37039   2.557   5.980   3.399 -0.0605 -0.9239  0.3073
  275MOL0     N37040   2.236   5.320   3.708  0.2881  0.2458 -0.4527
  275MOL0     N37041   2.178   5.287   3.820  0.0553 -0.4620  0.1402
  275MOL0     C37042   1.814   4.659   3.419  0.4936 -0.2618 -0.2635
  275MOL0     C37043   1.833   4.529   3.443 -0.2099 -0.6429  0.4969
  275MOL0     C37044   2.015   4.141   3.618 -0.1142  0.5750 -0.2233
  275MOL0     C37045   1.900   4.082   3.567 -0.0660  0.5439  0.1218
  275MOL0     C37046   1.885   3.938   3.568  0.3362  0.2529 -0.0569
  275MOL0     C37047   1.992   3.859   3.607  1.6974  0.3222  0.5857
  275MOL0     O37048   1.979   3.726   3.593 -0.6739  0.7929 -0.8302
  275MOL0     C37049   2.046   3.633   3.691  0.0975 -0.0772 -0.1678
  275MOL0     C37050   1.937   3.531   3.742 -0.2374  0.3060  0.0775
  275MOL0     C37051   1.873   3.449   3.630 -0.0224  0.2740  0.7020
  275MOL0     C37052   1.770   3.354   3.694  0.5354  0.7200  0.5887
  275MOL0     C37053   1.710   3.250   3.610  0.2011  0.6216  0.5128
  275MOL0     C37054   1.631   3.176   3.551  0.8075  0.3107 -0.3405
  275MOL0     C37055   2.100   3.923   3.656  0.4124  0.1235  0.3633
  275MOL0     C37056   2.119   4.058   3.673  0.4106 -0.5215 -0.8159
  275MOL0     C37057   2.247   4.099   3.757  0.1708 -0.3717 -0.1617
  275MOL0     H37058   2.013   4.562   3.727  0.2138 -1.0445  0.4942
  275MOL0     H37059   1.961   4.797   3.680 -2.5092 -0.4876  1.0711
  275MOL0     H37060   1.770   4.949   3.613 -1.5133 -1.4216 -0.4676
  275MOL0     H37061   1.943   4.992   3.568  0.4277 -1.8719 -1.8525
  275MOL0     H37062   1.706   5.138   3.469 -0.7773 -2.8056  2.4216
  275MOL0     H37063   1.856   5.126   3.373  0.2821  3.4379 -0.7072
  275MOL0     H37064   1.851   5.323   3.497 -3.5915 -0.8181 -2.1873
  275MOL0     H37065   1.953   5.227   3.606 -1.6061 -1.8024  0.9232
  275MOL0     H37066   1.675   5.327   3.642 -1.8939 -1.1206  2.5263
  275MOL0     H37067   1.691   5.169   3.694 -0.1664  1.4641  5.0293
  275MOL0     H37068   1.750   5.272   3.890  0.7376 -2.3640  0.6873
  275MOL0     H37069   1.907   5.235   3.804  0.4438  0.5918 -1.8046
  275MOL0     H37070   1.912   5.475   3.727  0.5637 -0.0960  1.9068
  275MOL0     H37071   1.755   5.502   3.789 -1.1921 -0.4406 -0.9089
  275MOL0     H37072   1.838   5.473   4.025  2.5810  1.9293  2.1095
  275MOL0     H37073   1.925   5.589   3.936 -1.6326  0.1659 -1.6008
  275MOL0     H37074   2.068   5.449   4.083 -1.2193  1.7853 -0.7775
  275MOL0     H37075   2.007   5.301   4.011  0.7809  0.1588  0.8018
  275MOL0     H37076   2.119   5.614   3.811 -2.5114 -1.0884  1.7251
  275MOL0     H37077   2.219   5.470   3.491  1.7902 -1.7195 -0.5966
  275MOL0     H37078   2.216   5.630   3.568 -0.9170  0.6182  0.2408
  275MOL0     H37079   2.449   5.447   3.544  2.4626  1.3346  0.9858
  275MOL0     H37080   2.433   5.593   3.453  4.6827 -0.8003  0.1552
  275MOL0     H37081   2.488   5.580   3.745  0.3389 -1.3314 -0.6089
  275MOL0     H37082   2.407   5.713   3.675 -0.6459  0.5476 -1.2570
  275MOL0     H37083   2.682   5.606   3.564  3.0032  1.5068  2.6796
  275MOL0     H37084   2.685   5.727   3.684  1.4665 -1.7565  0.1573
  275MOL0     H37085   2.568   5.931   3.741  1.8111 -0.6666 -1.2973
  275MOL0     H37086   2.459   6.153   3.727 -0.0582  0.1350 -0.3142
  275MOL0     H37087   2.281   6.476   3.228  1.4974  0.2140  0.9205
  275MOL0     H37088   2.170   6.693   3.212 -0.2568 -1.2332 -0.3056
  275MOL0     H37089   1.904   6.809   3.548 -0.9314 -4.2131 -4.0171
  275MOL0     H37090   2.045   6.906   3.568 -1.1350  2.5140  0.6350
  275MOL0     H37091   1.803   6.988   3.396  0.4964  1.1861 -0.8874
  275MOL0     H37092   1.853   7.062   3.541  1.9145  4.0939 -0.0985
  275MOL0     H37093   2.020   7.061   3.284  0.4683 -0.6113  0.2689
  275MOL0     H37094   1.876   7.150   3.312 -1.5322 -0.5580  1.3603
  275MOL0     H37095   2.127   7.151   3.490  0.5575 -2.1754 -1.0899
  275MOL0     H37096   1.987   7.253   3.520 -0.8097  0.8504 -0.1400
  275MOL0     H37097   2.122   7.412   3.411 -1.0490 -1.2423  0.9887
  275MOL0     H37098   2.031   7.360   3.266 -0.6095 -1.9590 -0.5448
  275MOL0     H37099   2.320   7.336   3.304  0.8115 -0.2137 -0.2293
  275MOL0     H37100   2.250   7.180   3.270  2.2543  0.4884 -2.1859
  275MOL0     H37101   2.143   7.266   3.061  2.1379 -2.0823 -0.5572
  275MOL0     H37102   2.319   7.282   3.078  0.0008 -0.7795  2.0876
  275MOL0     H37103   2.158   7.490   2.985 -4.7176 -1.5410  2.4772
  275MOL0     H37104   2.130   7.517   3.145 -2.4246 -3.0637  0.5141
  275MOL0     H37105   1.977   6.623   3.591  0.6953  1.1107  0.0724
  275MOL0     H37106   2.107   6.404   3.602  0.1430  2.8729  2.8472
  275MOL0     H37107   2.485   6.139   3.295  2.9800 -0.3206 -0.6738
  275MOL0     H37108   2.612   5.946   3.313  0.5602  3.5485 -1.3357
  275MOL0     H37109   1.745   4.692   3.342  0.0235 -0.8103 -0.0815
  275MOL0     H37110   1.804   4.450   3.374  0.5073 -1.2640  0.8879
  275MOL0     H37111   1.816   4.142   3.534 -0.7364  0.7722  2.0759
  275MOL0     H37112   1.793   3.905   3.521  0.7877  0.2062 -0.9328
  275MOL0     H37113   2.091   3.674   3.782  0.8591 -3.6502  1.2235
  275MOL0     H37114   2.130   3.584   3.640 -1.0599 -1.4142 -0.8410
  275MOL0     H37115   1.859   3.577   3.803 -1.0752 -1.5308  0.4637
  275MOL0     H37116   1.987   3.462   3.811 -2.2368 -2.9630 -1.5265
  275MOL0     H37117   1.937   3.393   3.562 -2.6805 -1.2162 -0.7236
  275MOL0     H37118   1.811   3.527   3.585  1.7277  0.9630 -0.6299
  275MOL0     H37119   1.814   3.301   3.779 -0.4609 -0.4019  0.4340
  275MOL0     H37120   1.689   3.409   3.744 -0.9152 -0.2040 -0.6417
  275MOL0     H37121   1.560   3.110   3.508  0.8132  0.0260  0.0842
  275MOL0     H37122   2.178   3.856   3.688 -0.0689 -1.0707 -0.8815
  275MOL0     H37123   2.320   4.159   3.703  0.8341 -3.0425 -2.4933
  275MOL0     H37124   2.213   4.147   3.849 -2.6436  0.4827 -1.5098
  275MOL0     H37125   2.300   4.009   3.790  1.1404  0.1831 -0.1840
  276MOL0     O37126   1.908   1.465   4.390  0.6066 -0.0896  0.1596
  276MOL0     C37127   1.822   1.533   4.328 -0.3934 -0.5105 -0.0333
  276MOL0     O37128   1.685   1.518   4.333 -0.0593 -0.8877 -0.0163
  276MOL0     C37129   1.622   1.425   4.401 -0.0693 -0.1745 -0.4177
  276MOL0     C37130   1.490   1.439   4.386  0.1245  0.8459  0.2308
  276MOL0     C37131   1.404   1.349   4.449 -0.3881 -0.5366  0.6525
  276MOL0     C37132   1.454   1.253   4.537  0.9582  0.1442  0.3453
  276MOL0     O37133   1.378   1.162   4.613  0.3455 -0.9018  0.4877
  276MOL0     C37134   1.237   1.126   4.590 -0.2674 -0.2678  0.8578
  276MOL0     C37135   1.182   1.068   4.717 -0.0459 -0.4737 -0.1171
  276MOL0     C37136   1.167   1.168   4.828  1.1316 -0.1705  0.6343
  276MOL0     C37137   1.056   1.112   4.914 -0.0441  0.6343  0.5903
  276MOL0     C37138   0.930   1.200   4.915  0.0504 -0.7400  0.6092
  276MOL0     C37139   0.810   1.121   4.984 -0.4492 -0.1718 -0.0875
  276MOL0     C37140   0.690   1.210   4.999  0.4849 -0.0873 -0.5469
  276MOL0     C37141   0.566   1.150   5.076 -0.3052  0.2215  0.5338
  276MOL0     N37142   0.464   1.254   5.073  0.2389  0.3143 -1.0616
  276MOL0     C37143   0.403   1.287   5.195 -0.4115  0.4467  0.5480
  276MOL0     C37144   0.290   1.352   5.159 -0.5029  0.2038  0.4782
  276MOL0     C37145   0.194   1.419   5.257 -0.4934  0.5441  0.7382
  276MOL0     C37146   0.093   1.326   5.322  0.1111 -0.8460 -0.7862
  276MOL0     C37147  -0.016   1.269   5.217  0.7458 -1.0411 -0.6875
  276MOL0     C37148  -0.146   1.225   5.287  0.2492 -0.0887  0.6465
  276MOL0     O37149  -0.242   1.208   5.181  0.8351 -0.4794 -0.3735
  276MOL0     C37150  -0.369   1.180   5.215  0.4482  0.3873  1.3701
  276MOL0     C37151  -0.433   1.182   5.340  0.4423 -0.4569 -0.3844
  276MOL0     C37152  -0.565   1.148   5.360 -0.1483  0.0940 -0.0102
  276MOL0     C37153  -0.637   1.126   5.245  0.2623 -0.2008 -0.7641
  276MOL0     C37154  -0.782   1.116   5.251 -0.0979 -0.0232 -1.0979
  276MOL0     O37155  -0.853   1.168   5.363  0.6788 -0.3971  0.2335
  276MOL0     C37156  -0.988   1.186   5.369 -0.8506  0.1988 -0.4568
  276MOL0     C37157  -1.071   1.241   5.274 -0.2699  0.5701 -0.6586
  276MOL0     C37158  -1.205   1.251   5.291 -0.2424 -0.2271  0.0526
  276MOL0     C37159  -1.257   1.217   5.416  0.4262  0.5132  0.7286
  276MOL0     O37160  -1.400   1.245   5.416  0.1126  0.2448  0.8821
  276MOL0     C37161  -1.476   1.137   5.481  0.0373 -0.9130  0.6129
  276MOL0     C37162  -1.429   0.991   5.457  0.0677  0.5717  0.2009
  276MOL0     C37163  -1.539   0.882   5.455 -0.0025 -0.6915  0.2139
  276MOL0     C37164  -1.630   0.886   5.328 -0.2969  0.9257 -0.3772
  276MOL0     C37165  -1.732   0.772   5.320  0.2641  0.2778  1.2122
  276MOL0     C37166  -1.817   0.781   5.188  0.2759  0.3946  0.3120
  276MOL0     C37167  -1.733   0.752   5.069 -0.1169  0.0203 -0.2275
  276MOL0     C37168  -1.806   0.678   4.953  0.0761  0.2397 -0.2905
  276MOL0    Cl37169  -1.946   0.763   4.882 -0.2563 -0.1285 -0.2766
  276MOL0     C37170  -1.179   1.172   5.518 -0.0183 -0.1038  0.1564
  276MOL0     C37171  -1.044   1.156   5.491  0.1244 -0.0631  0.1426
  276MOL0     O37172  -0.834   1.051   5.157 -0.1110 -0.3891  0.4914
  276MOL0     C37173  -0.581   1.136   5.118  0.2177 -0.5319 -0.8638
  276MOL0     C37174  -0.443   1.152   5.093  0.0968  0.6019  0.5070
  276MOL0     N37175   0.285   1.355   5.020  0.3173  0.8074  0.7384
  276MOL0     N37176   0.389   1.292   4.969  0.0416 -0.0783  0.4872
  276MOL0     C37177   1.589   1.239   4.550 -0.7501  1.0962  0.6245
  276MOL0     C37178   1.676   1.322   4.486  0.3726 -0.7225  0.3098
  276MOL0     C37179   1.884   1.646   4.251 -0.2648 -0.8269  0.2134
  276MOL0     C37180   2.027   1.645   4.214  0.9979  0.1526 -0.3830
  276MOL0     C37181   2.082   1.744   4.126  0.1623 -0.0086 -0.2782
  276MOL0     C37182   2.007   1.851   4.087  0.8890  0.5702 -0.6883
  276MOL0     O37183   2.059   1.959   4.025  1.3337 -0.0398  0.1343
  276MOL0     C37184   2.112   1.936   3.893 -0.4586  0.1645  0.7488
  276MOL0     C37185   2.259   1.957   3.907 -0.3826  0.6424  0.6968
  276MOL0     C37186   2.339   1.877   3.809  0.2868  0.6005  0.2797
  276MOL0     C37187   2.495   1.892   3.820 -0.0646 -0.1150  0.7337
  276MOL0     C37188   2.574   1.843   3.705 -0.4065  0.3893 -0.8637
  276MOL0     C37189   2.645   1.803   3.621 -1.0119  1.0367  0.4521
  276MOL0     C37190   1.873   1.852   4.116  0.9220  0.5213 -0.0874
  276MOL0     C37191   1.811   1.760   4.197 -0.4582 -0.4204 -0.0779
  276MOL0     C37192   1.662   1.781   4.213  0.5780  0.1310 -0.0126
  276MOL0     H37193   1.467   1.523   4.321  0.6660  0.7599 -0.0820
  276MOL0     H37194   1.298   1.355   4.428  0.2246 -0.0796 -3.1942
  276MOL0     H37195   1.188   1.217   4.554  2.1341  1.5334  1.8000
  276MOL0     H37196   1.246   1.047   4.515  0.7361  1.5341 -1.0340
  276MOL0     H37197   1.245   0.989   4.759  2.4173  0.9993 -0.8608
  276MOL0     H37198   1.088   1.025   4.681  0.4606  0.5944 -3.0138
  276MOL0     H37199   1.143   1.270   4.796  4.8572  1.5404  2.6459
  276MOL0     H37200   1.261   1.184   4.882  1.3872  0.1120  0.1157
  276MOL0     H37201   1.028   1.008   4.896 -0.3157 -0.6743  6.5034
  276MOL0     H37202   1.081   1.113   5.020 -2.0492  1.2540  1.0890
  276MOL0     H37203   0.956   1.300   4.952 -1.9228  0.1609 -0.2495
  276MOL0     H37204   0.895   1.225   4.814 -0.6273 -4.0734 -0.1146
  276MOL0     H37205   0.773   1.043   4.917 -1.6363 -0.2121  0.5921
  276MOL0     H37206   0.845   1.075   5.076 -1.5300 -2.9048 -0.9566
  276MOL0     H37207   0.661   1.245   4.900 -1.8419 -3.5647 -1.2739
  276MOL0     H37208   0.737   1.289   5.058 -0.2241  0.5748 -0.8578
  276MOL0     H37209   0.530   1.072   5.008  0.8704 -0.2496  0.4394
  276MOL0     H37210   0.594   1.109   5.174  0.4455 -3.1917 -0.9591
  276MOL0     H37211   0.443   1.263   5.293 -0.7127  0.3352  0.6435
  276MOL0     H37212   0.243   1.469   5.341 -0.5784 -0.9498  1.7219
  276MOL0     H37213   0.140   1.501   5.209 -2.8728 -1.2874  0.1383
  276MOL0     H37214   0.148   1.244   5.368 -1.2664 -1.6685 -0.5660
  276MOL0     H37215   0.056   1.383   5.408  0.4940 -2.3140  0.3843
  276MOL0     H37216   0.027   1.180   5.171 -0.7768 -1.2474 -1.7589
  276MOL0     H37217  -0.041   1.339   5.137 -0.9495 -2.5968 -1.5891
  276MOL0     H37218  -0.178   1.298   5.362  1.6565 -0.2942  1.4809
  276MOL0     H37219  -0.128   1.131   5.339 -0.9097  0.1925  1.5809
  276MOL0     H37220  -0.378   1.203   5.431 -1.2452  3.1780 -0.0508
  276MOL0     H37221  -0.613   1.149   5.457 -1.8219 -0.6728 -0.7880
  276MOL0     H37222  -1.025   1.274   5.182 -1.2192 -0.1050 -1.3946
  276MOL0     H37223  -1.256   1.287   5.202  1.1280 -0.5692 -0.9122
  276MOL0     H37224  -1.490   1.143   5.589 -3.9836 -3.5128  0.4566
  276MOL0     H37225  -1.584   1.143   5.464 -0.5879  0.6868  4.2791
  276MOL0     H37226  -1.387   0.983   5.356 -0.1708 -2.9025  0.2396
  276MOL0     H37227  -1.356   0.963   5.534  0.1579 -0.3448 -0.2071
  276MOL0     H37228  -1.484   0.788   5.465  1.3450  0.3164  5.1584
  276MOL0     H37229  -1.600   0.899   5.544  2.4611  3.4281  1.4084
  276MOL0     H37230  -1.571   0.869   5.237 -1.2343 -1.2116 -0.6364
  276MOL0     H37231  -1.694   0.975   5.324 -1.8535 -0.0412  1.8154
  276MOL0     H37232  -1.814   0.779   5.391  1.3268 -0.5712  2.5787
  276MOL0     H37233  -1.684   0.673   5.323 -0.6427 -0.1462  2.6141
  276MOL0     H37234  -1.892   0.702   5.186  3.0980 -2.5749 -3.1296
  276MOL0     H37235  -1.866   0.878   5.175 -0.7536 -0.2896 -1.1419
  276MOL0     H37236  -1.654   0.679   5.091 -2.8520 -3.2190 -0.3458
  276MOL0     H37237  -1.682   0.844   5.039 -1.8558  1.1738  0.2203
  276MOL0     H37238  -1.732   0.676   4.873  1.9354  3.3412  1.1542
  276MOL0     H37239  -1.837   0.577   4.984 -1.0551  0.1836 -1.5071
  276MOL0     H37240  -1.216   1.156   5.619 -1.2913 -2.0371 -0.5447
  276MOL0     H37241  -0.969   1.126   5.564 -0.5417 -1.0127  0.4447
  276MOL0     H37242  -0.646   1.128   5.032  0.4624 -2.4342 -0.9214
  276MOL0     H37243  -0.412   1.123   4.993  0.3846 -1.0329  1.0416
  276MOL0     H37244   1.631   1.159   4.610  0.5109 -0.5446 -2.2316
  276MOL0     H37245   1.780   1.314   4.512  0.7456  1.3446 -0.3498
  276MOL0     H37246   2.093   1.569   4.254 -2.4583 -3.4589 -0.9081
  276MOL0     H37247   2.190   1.759   4.119 -0.0280  1.5098 -0.3725
  276MOL0     H37248   2.073   2.015   3.828 -1.1447  0.9409  2.0684
  276MOL0     H37249   2.087   1.839   3.849 -2.9359 -0.4957  3.3345
  276MOL0     H37250   2.294   1.934   4.008 -2.6247  3.6235  2.3403
  276MOL0     H37251   2.281   2.064   3.898 -3.1061  1.0971 -1.9454
  276MOL0     H37252   2.311   1.907   3.708  1.1396 -0.8626 -0.4132
  276MOL0     H37253   2.300   1.776   3.816 -1.9168  1.4960  3.1600
  276MOL0     H37254   2.527   1.997   3.816  1.1000 -0.3677  2.4599
  276MOL0     H37255   2.536   1.861   3.917 -1.9842  4.1765  3.2013
  276MOL0     H37256   2.700   1.772   3.534 -0.6889  1.8153  0.3633
  276MOL0     H37257   1.820   1.923   4.053 -0.4958 -1.5065 -1.2829
  276MOL0     H37258   1.600   1.726   4.141 -0.2264  0.9878  0.0011
  276MOL0     H37259   1.615   1.755   4.308  0.3142 -0.1044 -0.2055
  276MOL0     H37260   1.640   1.888   4.212  0.9255  0.2979  2.9877
  277MOL0     O37261   1.877   4.253   2.918  0.2008  0.6846 -0.5169
  277MOL0     C37262   1.805   4.306   3.010 -0.2336  0.6241  0.1140
  277MOL0     O37263   1.857   4.346   3.132  0.1657  0.5256  0.1264
  277MOL0     C37264   1.991   4.323   3.162 -0.7741 -0.7207  0.0624
  277MOL0     C37265   2.082   4.423   3.117  0.6915  0.4285 -0.4323
  277MOL0     C37266   2.216   4.395   3.129 -0.3196 -0.4306 -0.0930
  277MOL0     C37267   2.266   4.282   3.183 -0.3330 -0.2302 -0.3171
  277MOL0     O37268   2.393   4.238   3.196  1.0110 -0.5224 -0.6362
  277MOL0     C37269   2.492   4.303   3.110 -0.8730 -0.3361 -0.3178
  277MOL0     C37270   2.632   4.230   3.119 -0.6744 -0.1555  0.6025
  277MOL0     C37271   2.617   4.093   3.063 -0.3300 -0.5123 -0.5103
  277MOL0     C37272   2.738   4.002   3.121 -0.7234 -1.8296  0.4054
  277MOL0     C37273   2.761   3.873   3.041  0.3752 -0.2339 -0.7142
  277MOL0     C37274   2.874   3.895   2.935  0.3203  0.4359 -0.2740
  277MOL0     C37275   2.899   3.755   2.867  0.0036 -0.5861  0.3407
  277MOL0     C37276   3.003   3.758   2.759  0.5196  0.3473  0.2005
  277MOL0     N37277   3.079   3.635   2.749  0.6750  0.8352  1.2173
  277MOL0     C37278   3.034   3.514   2.787  0.2184 -0.2298 -0.1460
  277MOL0     C37279   3.131   3.416   2.764  0.2600 -0.0451 -0.6146
  277MOL0     C37280   3.138   3.274   2.801  0.2952  0.1726 -0.9231
  277MOL0     C37281   3.244   3.235   2.903 -0.3453  0.0056  0.3032
  277MOL0     C37282   3.235   3.308   3.040  0.1541 -0.2353 -0.1684
  277MOL0     C37283   3.125   3.248   3.122  0.0357  0.0789  0.3579
  277MOL0     O37284   3.178   3.125   3.159  0.1085 -0.3824  0.1878
  277MOL0     C37285   3.237   3.096   3.277  0.6195  0.2037  0.3742
  277MOL0     C37286   3.268   2.966   3.318  0.6242 -0.3580  0.0332
  277MOL0     C37287   3.317   2.945   3.445 -0.3251 -0.3164 -0.1165
  277MOL0     C37288   3.317   3.054   3.543  0.5061  0.1566  0.3084
  277MOL0     C37289   3.360   3.030   3.683 -0.5367 -0.3667 -0.5272
  277MOL0     O37290   3.356   2.897   3.736  0.4146  0.0627 -0.5557
  277MOL0     C37291   3.412   2.870   3.858  0.6956  0.1482  0.1510
  277MOL0     C37292   3.346   2.808   3.965  0.8431 -0.3708 -0.0444
  277MOL0     C37293   3.414   2.788   4.084  0.6512 -0.2293  0.6795
  277MOL0     C37294   3.552   2.811   4.089  0.0433 -0.5370 -0.1112
  277MOL0     O37295   3.629   2.802   4.199  0.2674  0.1538 -0.1350
  277MOL0     C37296   3.569   2.767   4.322  0.4979  0.4576 -0.6709
  277MOL0     C37297   3.678   2.732   4.422  0.1888 -0.3260 -0.1504
  277MOL0     C37298   3.681   2.587   4.476  0.8137 -0.5529 -0.2931
  277MOL0     C37299   3.572   2.562   4.582 -0.1430 -0.2905 -0.5799
  277MOL0     C37300   3.574   2.415   4.642 -0.2529 -1.4739  0.7192
  277MOL0     C37301   3.655   2.394   4.763  0.3745  0.2841 -1.3848
  277MOL0     C37302   3.620   2.248   4.814  0.7477  0.0191 -0.6602
  277MOL0     C37303   3.673   2.210   4.948 -0.7384  0.5065 -0.1877
  277MOL0    Cl37304   3.605   2.320   5.076 -0.4768 -0.3788  0.2370
  277MOL0     C37305   3.624   2.852   3.971  0.2166  0.1507 -0.5942
  277MOL0     C37306   3.545   2.880   3.862 -1.2901 -0.4383 -0.5765
  277MOL0     O37307   3.397   3.128   3.738 -0.5062 -1.1577 -0.6690
  277MOL0     C37308   3.277   3.183   3.502  0.1345  0.3858 -0.8786
  277MOL0     C37309   3.248   3.198   3.371 -1.0474  0.5130 -0.0312
  277MOL0     N37310   3.234   3.488   2.703 -0.4709 -0.3680 -0.5422
  277MOL0     N37311   3.208   3.619   2.699  0.8730  0.3163  0.1392
  277MOL0     C37312   2.177   4.196   3.248  0.7856 -0.3026  1.1278
  277MOL0     C37313   2.040   4.208   3.234 -0.9488 -0.5998 -0.3737
  277MOL0     C37314   1.655   4.333   2.984 -0.9253 -0.9665  0.0024
  277MOL0     C37315   1.606   4.461   3.018  0.3989 -0.1911 -0.2868
  277MOL0     C37316   1.471   4.499   2.989  0.7638 -0.2875 -0.4493
  277MOL0     C37317   1.385   4.412   2.919  0.0717 -0.1979  0.6100
  277MOL0     O37318   1.266   4.445   2.854 -0.1827  0.7204 -1.0230
  277MOL0     C37319   1.224   4.576   2.806 -0.2242 -0.0214  0.0841
  277MOL0     C37320   1.152   4.554   2.664  0.1730 -0.3601 -0.9857
  277MOL0     C37321   1.013   4.486   2.681 -0.5279 -0.6922 -0.2056
  277MOL0     C37322   0.926   4.519   2.561 -0.1527 -0.3545  0.3950
  277MOL0     C37323   0.978   4.480   2.434  1.2324 -0.4070 -0.0553
  277MOL0     C37324   1.030   4.441   2.326  0.0600  0.4417  0.0315
  277MOL0     C37325   1.431   4.283   2.893 -0.2802  0.3000 -0.5163
  277MOL0     C37326   1.568   4.242   2.915  1.4719 -0.2765 -0.0920
  277MOL0     C37327   1.593   4.095   2.871  1.0814  0.3750 -0.2694
  277MOL0     H37328   2.035   4.505   3.062 -0.6912 -0.8514 -1.2257
  277MOL0     H37329   2.284   4.466   3.082  0.1320  0.3227  1.6214
  277MOL0     H37330   2.465   4.289   3.005  1.1398 -0.9275 -0.7938
  277MOL0     H37331   2.516   4.408   3.127  5.3273 -1.0872 -1.8113
  277MOL0     H37332   2.654   4.232   3.226 -1.7808 -0.6835  0.8530
  277MOL0     H37333   2.707   4.278   3.056 -1.2588 -1.9995 -1.6475
  277MOL0     H37334   2.625   4.102   2.954 -0.7003  1.5882 -0.4172
  277MOL0     H37335   2.513   4.070   3.087 -0.4176 -0.2358 -0.6288
  277MOL0     H37336   2.827   4.065   3.128 -2.7649  1.4273 -0.6634
  277MOL0     H37337   2.711   3.964   3.220 -1.4408 -2.2211  0.0762
  277MOL0     H37338   2.776   3.784   3.103  0.6257 -0.3560 -0.9483
  277MOL0     H37339   2.672   3.859   2.980 -0.3326  2.4086 -0.4224
  277MOL0     H37340   2.838   3.975   2.869 -3.1399  1.3761  2.4380
  277MOL0     H37341   2.970   3.928   2.975  0.7317 -1.1177  0.0999
  277MOL0     H37342   2.806   3.716   2.824 -0.3403  0.7437 -0.1613
  277MOL0     H37343   2.941   3.686   2.941 -2.4355  0.2469  2.6735
  277MOL0     H37344   2.956   3.794   2.667  0.8776  2.6449  0.8676
  277MOL0     H37345   3.077   3.835   2.783  0.0286  0.7912  0.3003
  277MOL0     H37346   2.945   3.485   2.842 -0.1646  2.3974  0.7710
  277MOL0     H37347   3.039   3.248   2.840  0.4355  0.1583 -0.5778
  277MOL0     H37348   3.146   3.221   2.705 -1.2777  1.4491 -1.8138
  277MOL0     H37349   3.243   3.128   2.927 -3.1238 -0.7164 -2.3747
  277MOL0     H37350   3.332   3.261   2.844  0.4079  1.9872  2.1614
  277MOL0     H37351   3.201   3.410   3.020 -4.5974 -1.0432  2.1762
  277MOL0     H37352   3.325   3.296   3.100 -0.5777 -1.7341  0.6920
  277MOL0     H37353   3.037   3.237   3.058 -0.9083  1.9004  1.2764
  277MOL0     H37354   3.089   3.317   3.199  0.0094  0.6325 -0.1378
  277MOL0     H37355   3.257   2.890   3.241 -2.9050  0.2428 -0.2516
  277MOL0     H37356   3.370   2.856   3.477  2.0788  0.8588 -0.5845
  277MOL0     H37357   3.241   2.783   3.964 -0.0342  2.7211 -1.7410
  277MOL0     H37358   3.339   2.764   4.159  1.8998 -0.8409  1.7726
  277MOL0     H37359   3.491   2.838   4.349  0.7133  0.7489 -0.8099
  277MOL0     H37360   3.517   2.673   4.299 -0.0915  1.3803 -3.5321
  277MOL0     H37361   3.775   2.739   4.372 -0.0164 -1.7218 -0.7961
  277MOL0     H37362   3.667   2.792   4.513  3.0137  2.1988 -1.3152
  277MOL0     H37363   3.673   2.525   4.386 -0.4614  1.4106 -1.6321
  277MOL0     H37364   3.779   2.564   4.519  1.0552 -0.8776 -1.0068
  277MOL0     H37365   3.472   2.581   4.543 -0.5409  3.4219  1.7238
  277MOL0     H37366   3.598   2.631   4.663 -3.3822  0.9128 -0.4388
  277MOL0     H37367   3.603   2.342   4.565  1.1496  0.8418 -1.0922
  277MOL0     H37368   3.474   2.381   4.669 -0.1420 -1.8452  0.6721
  277MOL0     H37369   3.760   2.415   4.739  0.6675 -1.1389 -1.4806
  277MOL0     H37370   3.610   2.466   4.832 -0.0336 -2.3095  1.2547
  277MOL0     H37371   3.661   2.167   4.753 -1.2472 -1.9278  0.4396
  277MOL0     H37372   3.513   2.232   4.828  0.8807 -0.0358  0.3826
  277MOL0     H37373   3.653   2.105   4.967 -2.4254  1.0637  1.4840
  277MOL0     H37374   3.780   2.227   4.938 -0.8645  0.7607 -1.2238
  277MOL0     H37375   3.729   2.877   3.975  0.7003 -1.7011 -0.8493
  277MOL0     H37376   3.593   2.919   3.773 -1.0647  1.5754  0.3765
  277MOL0     H37377   3.277   3.266   3.573  1.0617 -0.3402 -0.0011
  277MOL0     H37378   3.234   3.302   3.346  1.9256  1.1793  0.6838
  277MOL0     H37379   2.235   4.117   3.294  0.6257 -1.6496 -0.8734
  277MOL0     H37380   1.977   4.134   3.282 -0.2856 -1.5969 -1.0078
  277MOL0     H37381   1.667   4.536   3.066 -0.2334 -1.0735  2.0711
  277MOL0     H37382   1.433   4.600   2.988  2.5097  0.3924 -1.4065
  277MOL0     H37383   1.315   4.635   2.792 -1.0641  1.6054  1.1322
  277MOL0     H37384   1.159   4.631   2.874 -0.3308  1.4746 -1.1582
  277MOL0     H37385   1.217   4.499   2.596 -0.3824 -2.0108 -0.2386
  277MOL0     H37386   1.149   4.652   2.615  0.5700 -0.7438 -1.7876
  277MOL0     H37387   0.963   4.523   2.770  2.3284 -1.3271  1.8117
  277MOL0     H37388   1.036   4.379   2.690  1.4264 -0.3101 -0.1356
  277MOL0     H37389   0.824   4.480   2.563 -0.5282  0.5728  2.8792
  277MOL0     H37390   0.913   4.627   2.569  1.0392 -0.3220  2.8177
  277MOL0     H37391   1.066   4.404   2.232  4.1216  0.3426  1.4113
  277MOL0     H37392   1.356   4.217   2.851  1.5245  0.1774 -3.8744
  277MOL0     H37393   1.643   4.087   2.774  0.3300  0.9860 -0.7150
  277MOL0     H37394   1.656   4.051   2.948  3.2688  1.5813 -1.2737
  277MOL0     H37395   1.493   4.050   2.866  2.1229 -2.4155  1.7183
  278MOL0     O37396   3.608  10.005   3.638 -0.4199 -0.0135  0.6866
  278MOL0     C37397   3.617  10.112   3.582 -0.2876  0.3920  0.6039
  278MOL0     O37398   3.694  10.131   3.479 -0.7149  0.0317  0.7484
  278MOL0     C37399   3.728  10.018   3.400  0.5435 -0.4966  0.0426
  278MOL0     C37400   3.861   9.972   3.400  0.5572 -0.3593  0.1948
  278MOL0     C37401   3.896   9.867   3.309  0.1877  0.7313  0.8861
  278MOL0     C37402   3.801   9.806   3.232  0.1602 -0.0251  0.6168
  278MOL0     O37403   3.849   9.704   3.150  0.4155 -0.3757 -0.2348
  278MOL0     C37404   3.754   9.649   3.044 -0.2478 -0.3211  0.6468
  278MOL0     C37405   3.856   9.576   2.955  0.1976  1.1137  0.1384
  278MOL0     C37406   3.787   9.505   2.837  0.3245  0.0836 -0.1095
  278MOL0     C37407   3.713   9.371   2.859 -0.1355 -0.1623 -0.1405
  278MOL0     C37408   3.700   9.288   2.733 -0.1878 -0.1788 -1.4198
  278MOL0     C37409   3.624   9.342   2.619 -0.3230  0.1099 -0.2966
  278MOL0     C37410   3.617   9.249   2.491 -0.3101 -0.3735  1.1948
  278MOL0     C37411   3.517   9.130   2.493  0.9490  0.1888 -0.2308
  278MOL0     N37412   3.379   9.173   2.525  0.8122 -0.5565  0.0708
  278MOL0     C37413   3.296   9.232   2.435  0.6213 -0.2142  0.0232
  278MOL0     C37414   3.175   9.196   2.473  0.2160  0.3252  1.1114
  278MOL0     C37415   3.049   9.237   2.398 -0.4975  0.1005 -0.5212
  278MOL0     C37416   3.080   9.239   2.245 -0.2226  0.5140 -0.0521
  278MOL0     C37417   2.951   9.227   2.157 -0.3177 -0.6391  0.5038
  278MOL0     C37418   2.871   9.365   2.153  0.5738  0.6818  0.2545
  278MOL0     O37419   2.956   9.459   2.096  0.2630 -0.3165  0.9663
  278MOL0     C37420   2.940   9.598   2.107  0.4732  0.7757  1.4467
  278MOL0     C37421   2.846   9.665   2.186 -0.7169  0.8706 -0.3703
  278MOL0     C37422   2.845   9.804   2.204 -0.5469  0.4815  0.3611
  278MOL0     C37423   2.935   9.887   2.135 -0.4902 -0.1262  0.9147
  278MOL0     C37424   2.948  10.032   2.146  0.6906 -0.1167 -0.8747
  278MOL0     O37425   2.824  10.081   2.181 -0.3372 -0.2234 -0.0393
  278MOL0     C37426   2.790  10.217   2.153 -0.0405 -0.5470  0.6177
  278MOL0     C37427   2.862  10.295   2.060 -1.0596  0.2830  0.7869
  278MOL0     C37428   2.820  10.427   2.033  0.7305  0.5879 -0.4884
  278MOL0     C37429   2.693  10.474   2.083 -0.5185  0.1429 -0.8222
  278MOL0     O37430   2.637  10.601   2.065 -0.4875 -0.4244  0.0419
  278MOL0     C37431   2.709  10.686   1.977 -0.6588  0.2025 -0.1064
  278MOL0     C37432   2.643  10.820   1.959  0.1261 -0.5824  0.1035
  278MOL0     C37433   2.656  10.894   2.088 -0.0755 -0.6127 -1.3263
  278MOL0     C37434   2.527  10.912   2.167  1.0286 -0.2306  0.0532
  278MOL0     C37435   2.535  10.984   2.305  0.5027 -0.0584  1.1133
  278MOL0     C37436   2.543  11.138   2.292 -1.3059 -0.6071 -0.0010
  278MOL0     C37437   2.412  11.202   2.294  0.1396 -0.0566  0.0913
  278MOL0     C37438   2.360  11.217   2.437 -0.1596 -0.8462  0.1814
  278MOL0    Cl37439   2.207  11.312   2.413  0.5069  0.0453  0.6253
  278MOL0     C37440   2.615  10.392   2.177  0.6647  0.3625  0.7023
  278MOL0     C37441   2.667  10.264   2.210  0.0232 -0.7888 -0.2684
  278MOL0     O37442   3.051  10.096   2.136 -0.7982 -0.0780  0.6183
  278MOL0     C37443   3.034   9.821   2.049  0.4228  1.2381 -0.1468
  278MOL0     C37444   3.031   9.673   2.038  0.0984  0.7848 -0.3190
  278MOL0     N37445   3.169   9.141   2.601  0.0938 -0.4959 -0.6463
  278MOL0     N37446   3.298   9.130   2.628  0.0498 -0.5695  0.3684
  278MOL0     C37447   3.666   9.848   3.242  0.2591  0.3632 -0.1806
  278MOL0     C37448   3.635   9.955   3.318  0.6518 -0.0338 -0.3271
  278MOL0     C37449   3.541  10.230   3.637  0.5569  0.2114 -0.7425
  278MOL0     C37450   3.574  10.346   3.580 -0.0743 -0.0561  1.3133
  278MOL0     C37451   3.501  10.466   3.602 -0.3292  0.5621 -0.5105
  278MOL0     C37452   3.396  10.460   3.694  1.1089 -0.5060 -0.6573
  278MOL0     O37453   3.330  10.583   3.710  0.1234 -0.2791 -0.6618
  278MOL0     C37454   3.230  10.611   3.807 -0.0099 -1.0497 -0.5761
  278MOL0     C37455   3.180  10.757   3.809  0.4971  0.1697 -0.1094
  278MOL0     C37456   3.144  10.805   3.660  0.2071 -0.8160 -0.1176
  278MOL0     C37457   3.005  10.871   3.642  0.0833  0.0809  0.6748
  278MOL0     C37458   2.909  10.768   3.681 -0.6784 -0.6439 -0.1605
  278MOL0     C37459   2.834  10.677   3.707  0.6989  0.2548 -0.5140
  278MOL0     C37460   3.370  10.347   3.759  0.6565  0.0906 -0.2995
  278MOL0     C37461   3.437  10.228   3.732 -0.0380 -0.4635 -0.8013
  278MOL0     C37462   3.381  10.096   3.788 -0.3242 -0.6000  0.6000
  278MOL0     H37463   3.928  10.039   3.454 -0.4130  0.3105  0.5945
  278MOL0     H37464   3.999   9.836   3.294 -0.7292 -3.0033  1.3461
  278MOL0     H37465   3.680   9.579   3.085  0.7724 -1.9580 -0.1728
  278MOL0     H37466   3.702   9.732   2.996 -1.8587 -0.4605  2.0443
  278MOL0     H37467   3.898   9.502   3.025  2.1891 -0.4076 -2.4936
  278MOL0     H37468   3.943   9.635   2.926  1.4326 -1.1339 -0.9667
  278MOL0     H37469   3.875   9.485   2.774  1.1150  0.8324  0.7219
  278MOL0     H37470   3.721   9.577   2.787  0.2670  1.3530  1.7018
  278MOL0     H37471   3.754   9.320   2.946  0.3496 -4.8591 -2.7689
  278MOL0     H37472   3.611   9.400   2.885  0.3397  1.0439  0.4868
  278MOL0     H37473   3.798   9.269   2.689 -0.9713 -0.7813 -2.9988
  278MOL0     H37474   3.658   9.190   2.761 -1.2866 -0.2255 -3.0821
  278MOL0     H37475   3.529   9.366   2.668 -0.1607 -1.8177  1.1053
  278MOL0     H37476   3.692   9.423   2.593 -0.4560  0.2865 -0.0945
  278MOL0     H37477   3.717   9.209   2.472 -1.2501 -2.5683  0.4918
  278MOL0     H37478   3.594   9.312   2.404 -0.9533  0.3522  1.8703
  278MOL0     H37479   3.520   9.083   2.394 -3.3976 -1.0400  0.0345
  278MOL0     H37480   3.541   9.046   2.559  0.1059 -3.2901 -3.9280
  278MOL0     H37481   3.316   9.293   2.348 -1.7655  0.8861  0.1664
  278MOL0     H37482   2.975   9.161   2.421  2.1072 -2.0725  1.3962
  278MOL0     H37483   3.019   9.335   2.438 -0.5657  0.0770 -0.5151
  278MOL0     H37484   3.137   9.329   2.221 -0.0690  0.4712  0.1496
  278MOL0     H37485   3.142   9.156   2.209  1.6692  2.3229 -1.1528
  278MOL0     H37486   2.895   9.137   2.185 -0.2359 -2.1804 -3.5614
  278MOL0     H37487   2.986   9.206   2.056 -1.7919 -1.1636  0.0710
  278MOL0     H37488   2.840   9.386   2.256  1.2579 -0.6017  0.7518
  278MOL0     H37489   2.786   9.343   2.088 -0.3534  3.0233  0.5665
  278MOL0     H37490   2.765   9.614   2.238 -1.9609  0.9805 -2.0964
  278MOL0     H37491   2.771   9.838   2.276 -0.3809 -0.9824  1.2765
  278MOL0     H37492   2.957  10.281   2.010 -0.8758 -0.1016  1.2295
  278MOL0     H37493   2.886  10.495   1.981  2.0359  1.8173  2.5102
  278MOL0     H37494   2.814  10.707   1.999 -0.3489  2.2309 -2.9488
  278MOL0     H37495   2.719  10.628   1.885 -1.2696 -2.3188  1.3447
  278MOL0     H37496   2.691  10.883   1.884  3.1097  0.2210  2.4994
  278MOL0     H37497   2.537  10.820   1.931  0.0587 -1.6669  0.3161
  278MOL0     H37498   2.732  10.851   2.153 -0.1146  2.5684  1.0982
  278MOL0     H37499   2.679  11.001   2.080 -2.9450  0.2703  0.6061
  278MOL0     H37500   2.475  10.817   2.181 -0.3169  0.4315 -0.2997
  278MOL0     H37501   2.455  10.968   2.107  1.0735 -1.5139 -1.2803
  278MOL0     H37502   2.619  10.935   2.357 -0.7050 -1.1278  2.1550
  278MOL0     H37503   2.445  10.963   2.363  0.0483  2.1364  1.2803
  278MOL0     H37504   2.587  11.172   2.386 -1.3109 -1.7201  0.4218
  278MOL0     H37505   2.600  11.168   2.203 -1.4551 -0.8392 -0.1780
  278MOL0     H37506   2.337  11.139   2.246  0.9594 -2.5603  1.9129
  278MOL0     H37507   2.426  11.300   2.246  1.5234 -0.4241 -0.3054
  278MOL0     H37508   2.345  11.115   2.474  0.0168 -0.7894  0.4091
  278MOL0     H37509   2.437  11.269   2.495  0.8127  0.1657 -1.9167
  278MOL0     H37510   2.517  10.411   2.218  0.3596 -1.9401  1.1909
  278MOL0     H37511   2.614  10.205   2.284  2.1139 -1.1078  1.0419
  278MOL0     H37512   3.114   9.878   2.002  0.0437  3.1901  1.4072
  278MOL0     H37513   3.108   9.626   1.978 -2.5345 -2.0944 -1.7874
  278MOL0     H37514   3.585   9.801   3.188  1.2528  0.4057 -1.7883
  278MOL0     H37515   3.534   9.991   3.336  1.5652  1.8291  1.4627
  278MOL0     H37516   3.641  10.346   3.495 -0.7949 -0.2517  0.7297
  278MOL0     H37517   3.535  10.555   3.550 -1.7763  2.7677  2.0652
  278MOL0     H37518   3.258  10.583   3.909 -1.9806  1.2882  0.7217
  278MOL0     H37519   3.144  10.545   3.797 -0.3146 -1.3876  3.0178
  278MOL0     H37520   3.256  10.829   3.840 -1.3578  2.9490 -1.6070
  278MOL0     H37521   3.095  10.778   3.874  0.9953 -1.5040  1.1467
  278MOL0     H37522   3.160  10.731   3.581  0.0940 -0.6012 -0.3434
  278MOL0     H37523   3.211  10.884   3.625 -0.2106 -0.7538 -0.8101
  278MOL0     H37524   3.001  10.960   3.706 -2.8338  0.3422  0.2828
  278MOL0     H37525   2.991  10.893   3.535 -1.7544  0.4748  0.9643
  278MOL0     H37526   2.782  10.585   3.727 -0.7971  1.5470  1.9900
  278MOL0     H37527   3.286  10.350   3.827  0.9712  1.6033  0.0530
  278MOL0     H37528   3.291  10.117   3.847  0.6534 -1.5183  2.5082
  278MOL0     H37529   3.361  10.025   3.708  0.9930 -1.2252  0.7942
  278MOL0     H37530   3.453  10.049   3.856  2.1865  1.8914 -0.1247
  279MOL0     O37531   8.581   0.424  10.777  0.2422  0.2351 -1.0677
  279MOL0     C37532   8.611   0.349  10.681 -0.2404 -0.4035  1.3763
  279MOL0     O37533   8.618   0.213  10.684  0.4362  0.0564  0.1058
  279MOL0     C37534   8.633   0.172  10.809 -1.0152 -0.4280  0.4812
  279MOL0     C37535   8.753   0.196  10.881 -0.4965  0.1878 -0.0644
  279MOL0     C37536   8.760   0.145  11.011  0.0649  0.0613  0.5834
  279MOL0     C37537   8.644   0.085  11.069  0.2878 -0.3255 -0.3618
  279MOL0     O37538   8.652   0.036  11.197  0.7651  0.4755  0.5143
  279MOL0     C37539   8.579   0.099  11.300  0.8511 -0.2252 -0.0738
  279MOL0     C37540   8.660   0.185  11.397 -1.3249 -0.3628  0.1575
  279MOL0     C37541   8.704   0.118  11.528  0.7332 -1.0184 -0.4483
  279MOL0     C37542   8.842   0.050  11.512  0.3177  0.1960  0.5846
  279MOL0     C37543   8.883   0.001  11.649  0.1587 -0.1297  0.0962
  279MOL0     C37544   8.977  -0.119  11.649  0.5010  0.4840 -0.4337
  279MOL0     C37545   8.984  -0.181  11.790  0.4514  0.5846  1.0514
  279MOL0     C37546   9.106  -0.271  11.808  0.5303  0.6000  0.5117
  279MOL0     N37547   9.153  -0.286  11.943  0.4961  0.0224 -1.2732
  279MOL0     C37548   9.088  -0.345  12.041  0.1988 -0.2562 -0.1039
  279MOL0     C37549   9.181  -0.406  12.118  0.2668 -0.8789 -0.0806
  279MOL0     C37550   9.133  -0.494  12.232  0.3878 -0.3246  0.5483
  279MOL0     C37551   9.177  -0.433  12.361 -0.0329  1.3873 -0.5236
  279MOL0     C37552   9.113  -0.299  12.401  0.1059 -0.0575  0.1217
  279MOL0     C37553   9.180  -0.239  12.523  1.3388 -0.9903  1.2778
  279MOL0     O37554   9.207  -0.339  12.620  0.5472  0.3305  0.7015
  279MOL0     C37555   9.327  -0.344  12.686  0.4909  0.2568 -0.3427
  279MOL0     C37556   9.370  -0.476  12.722 -0.5565 -0.0838 -0.0860
  279MOL0     C37557   9.483  -0.490  12.798 -0.4472  0.5468  0.4779
  279MOL0     C37558   9.562  -0.381  12.849  0.2804 -0.5419 -0.2760
  279MOL0     C37559   9.679  -0.402  12.937  0.1634 -0.5340 -0.0847
  279MOL0     O37560   9.703  -0.531  12.962 -0.2151  0.7062  0.7132
  279MOL0     C37561   9.805  -0.558  13.032 -0.2242  0.2970 -0.4288
  279MOL0     C37562   9.783  -0.608  13.160 -1.3164  0.5652 -0.1224
  279MOL0     C37563   9.888  -0.647  13.247  0.6183  0.4217 -0.0421
  279MOL0     C37564  10.020  -0.649  13.200 -0.5006  0.8549  0.4491
  279MOL0     O37565  10.139  -0.663  13.268 -0.0807 -0.4461 -0.2459
  279MOL0     C37566  10.153  -0.671  13.410 -0.0574  0.2786  0.1239
  279MOL0     C37567  10.288  -0.606  13.452  0.7016 -0.2974  0.3178
  279MOL0     C37568  10.414  -0.685  13.448 -0.4516 -0.9489  0.2997
  279MOL0     C37569  10.520  -0.597  13.504 -0.4871 -0.4622 -0.8939
  279MOL0     C37570  10.664  -0.666  13.512  0.0462 -1.1132 -0.1594
  279MOL0     C37571  10.696  -0.717  13.646  0.0337 -0.3083 -0.7722
  279MOL0     C37572  10.837  -0.776  13.652  0.1148 -0.4800 -0.6882
  279MOL0     C37573  10.890  -0.804  13.798  0.0378  0.0731  0.0152
  279MOL0    Cl37574  11.052  -0.734  13.799  0.2006 -0.3095  0.6732
  279MOL0     C37575  10.038  -0.616  13.068 -0.3844  0.3926 -1.0327
  279MOL0     C37576   9.941  -0.564  12.988  0.9388 -0.7528  0.1509
  279MOL0     O37577   9.743  -0.310  12.987 -0.6766 -0.4827 -0.3743
  279MOL0     C37578   9.518  -0.256  12.807 -1.2625 -0.7231 -0.4771
  279MOL0     C37579   9.398  -0.238  12.736 -0.5384  0.0362  0.3716
  279MOL0     N37580   9.305  -0.377  12.070 -0.5687  0.2134 -0.4395
  279MOL0     N37581   9.292  -0.303  11.964  0.2928  0.1021 -0.1089
  279MOL0     C37582   8.548   0.039  10.987 -0.1010  0.0005  0.1034
  279MOL0     C37583   8.545   0.079  10.852  0.7082  0.0021 -0.1399
  279MOL0     C37584   8.670   0.411  10.554 -0.1534  0.7563 -0.7372
  279MOL0     C37585   8.744   0.334  10.464 -0.1506 -0.0828  0.0743
  279MOL0     C37586   8.814   0.394  10.355  0.7406 -0.1087 -0.7388
  279MOL0     C37587   8.802   0.531  10.335  0.1236 -0.0323 -0.2807
  279MOL0     O37588   8.893   0.581  10.252 -0.5378  0.3302 -0.5388
  279MOL0     C37589   8.870   0.701  10.177 -0.4773  0.0684 -0.7391
  279MOL0     C37590   8.995   0.750  10.107 -0.0736 -0.1061  0.3830
  279MOL0     C37591   9.073   0.867  10.171 -0.1984 -1.3355  0.0694
  279MOL0     C37592   9.190   0.824  10.266  0.0224  0.6580 -0.4850
  279MOL0     C37593   9.305   0.786  10.189 -0.2316  0.6434 -0.3590
  279MOL0     C37594   9.408   0.746  10.135  0.7517 -0.1238 -0.5631
  279MOL0     C37595   8.706   0.606  10.407 -0.1101 -1.0091  0.6276
  279MOL0     C37596   8.641   0.543  10.516 -0.6424 -0.0084  0.6618
  279MOL0     C37597   8.518   0.617  10.579 -0.3734 -0.1330  0.3863
  279MOL0     H37598   8.829   0.261  10.839 -0.3332  1.9144  2.6569
  279MOL0     H37599   8.840   0.162  11.082 -0.9932  0.6419  1.6791
  279MOL0     H37600   8.500   0.165  11.262  0.4314  1.3459  3.1361
  279MOL0     H37601   8.526   0.015  11.345 -0.1624  0.4483  0.0175
  279MOL0     H37602   8.610   0.281  11.414  3.0532  3.2090 -4.2972
  279MOL0     H37603   8.743   0.227  11.340  0.3590 -3.0149  0.5021
  279MOL0     H37604   8.639   0.042  11.572  0.1568  0.4329  1.3710
  279MOL0     H37605   8.717   0.193  11.607 -2.8533 -0.1742 -0.4532
  279MOL0     H37606   8.832  -0.019  11.428  1.0826  2.7388 -1.7594
  279MOL0     H37607   8.911   0.131  11.486 -0.8505  1.4008  1.1132
  279MOL0     H37608   8.922   0.080  11.714  1.5923 -0.8103  0.1087
  279MOL0     H37609   8.792  -0.031  11.700 -0.7451  1.3088 -0.5401
  279MOL0     H37610   8.930  -0.195  11.586  4.6203 -2.5593 -0.3052
  279MOL0     H37611   9.078  -0.101  11.611  0.2570 -2.2350 -2.7586
  279MOL0     H37612   8.903  -0.253  11.800  0.6002  0.2360 -0.0819
  279MOL0     H37613   8.981  -0.105  11.869  3.2936  0.9232  0.9499
  279MOL0     H37614   9.073  -0.369  11.775 -0.0889  0.3979  1.6884
  279MOL0     H37615   9.187  -0.241  11.740  1.3500 -1.0392  0.7185
  279MOL0     H37616   8.980  -0.345  12.054 -0.2602  4.2786 -2.0864
  279MOL0     H37617   9.024  -0.504  12.229  0.3550 -1.0179  2.5685
  279MOL0     H37618   9.177  -0.591  12.209 -2.9562 -2.1113  1.1254
  279MOL0     H37619   9.144  -0.506  12.436  2.4540 -0.4489 -1.0889
  279MOL0     H37620   9.285  -0.417  12.366 -0.3437  3.9947  4.2770
  279MOL0     H37621   9.005  -0.313  12.409 -0.0855  1.2194 -0.0254
  279MOL0     H37622   9.128  -0.232  12.315  0.0487 -2.9982 -2.3598
  279MOL0     H37623   9.111  -0.165  12.565 -0.8236  0.0260 -3.3272
  279MOL0     H37624   9.274  -0.204  12.479  0.5054 -0.6113 -0.2981
  279MOL0     H37625   9.321  -0.569  12.695 -3.3169  1.0011  0.8919
  279MOL0     H37626   9.508  -0.594  12.817  1.7121  1.0307  0.5852
  279MOL0     H37627   9.685  -0.600  13.205 -0.8403  3.0075  0.6272
  279MOL0     H37628   9.869  -0.675  13.351 -1.8549 -3.2516 -1.2838
  279MOL0     H37629  10.068  -0.624  13.459 -0.9103 -2.0317  1.0059
  279MOL0     H37630  10.142  -0.777  13.435 -3.3434  0.8041  1.3858
  279MOL0     H37631  10.304  -0.521  13.385  0.3339 -0.8728 -0.5260
  279MOL0     H37632  10.278  -0.556  13.548  0.9599  0.6628 -0.1429
  279MOL0     H37633  10.408  -0.774  13.510  3.2477 -2.6120 -1.4305
  279MOL0     H37634  10.451  -0.710  13.348  0.8554  1.7330  0.0281
  279MOL0     H37635  10.481  -0.570  13.603  1.9046 -0.0924  0.0122
  279MOL0     H37636  10.539  -0.502  13.452  1.5097  0.9916  2.1771
  279MOL0     H37637  10.738  -0.589  13.485  0.0126 -0.5915  1.1792
  279MOL0     H37638  10.670  -0.738  13.430 -0.0613  1.2662 -2.3973
  279MOL0     H37639  10.670  -0.641  13.721  2.5139 -0.8174  0.7110
  279MOL0     H37640  10.625  -0.793  13.682  0.0869  0.1986  0.4758
  279MOL0     H37641  10.909  -0.719  13.592 -1.0930 -1.2549 -2.9844
  279MOL0     H37642  10.834  -0.875  13.607 -1.1033 -0.0491 -1.5952
  279MOL0     H37643  10.833  -0.751  13.874  1.3121  1.3408  0.1303
  279MOL0     H37644  10.887  -0.912  13.815  0.1622 -0.2723 -1.9433
  279MOL0     H37645  10.136  -0.632  13.025 -0.4742 -2.5570 -0.3326
  279MOL0     H37646   9.983  -0.522  12.897  2.6366  1.1975  1.7467
  279MOL0     H37647   9.583  -0.172  12.831  0.7665 -1.3794 -3.1410
  279MOL0     H37648   9.365  -0.136  12.720 -1.4839 -0.2522  0.4255
  279MOL0     H37649   8.470  -0.020  11.035 -1.1348  1.0484 -0.2326
  279MOL0     H37650   8.456   0.048  10.798 -1.3261  2.6595  1.4758
  279MOL0     H37651   8.758   0.229  10.488 -2.0875 -0.7108 -1.3214
  279MOL0     H37652   8.869   0.332  10.284 -1.8308 -1.7481 -1.4345
  279MOL0     H37653   8.845   0.778  10.251  0.8813  0.3068 -0.5029
  279MOL0     H37654   8.797   0.689  10.096  0.0567 -1.4286 -1.0347
  279MOL0     H37655   8.950   0.797  10.019 -0.1211  1.4719  1.2106
  279MOL0     H37656   9.064   0.669  10.080 -0.2471  0.0180 -0.4610
  279MOL0     H37657   8.998   0.923  10.228 -0.6809 -2.7113  0.8470
  279MOL0     H37658   9.117   0.931  10.094  2.7340 -1.1682  1.7229
  279MOL0     H37659   9.224   0.904  10.333 -0.5358 -1.1131  2.0668
  279MOL0     H37660   9.166   0.739  10.330 -1.6951  0.9395 -0.7197
  279MOL0     H37661   9.496   0.693  10.105  1.9113 -0.2822  2.7369
  279MOL0     H37662   8.689   0.710  10.383  0.3898 -1.4237 -1.8355
  279MOL0     H37663   8.546   0.639  10.682  1.0195 -1.6241  0.3728
  279MOL0     H37664   8.488   0.701  10.516 -0.9432 -1.1149 -0.6996
  279MOL0     H37665   8.434   0.548  10.587  0.0220 -0.6056  0.5413
  280MOL0     O37666   3.927   8.646  11.063  0.5939 -0.1097  0.5292
  280MOL0     C37667   4.017   8.586  11.122 -0.8500 -0.3409  0.2187
  280MOL0     O37668   4.004   8.474  11.204 -0.4282 -0.0466 -0.0107
  280MOL0     C37669   3.876   8.428  11.223 -0.5902  0.8546  0.7830
  280MOL0     C37670   3.793   8.437  11.334 -0.0233  0.2269 -1.4733
  280MOL0     C37671   3.683   8.358  11.353  0.1403 -0.1416 -0.6424
  280MOL0     C37672   3.651   8.268  11.255 -0.0257  0.3596 -0.4822
  280MOL0     O37673   3.559   8.162  11.277  0.0279 -0.3437 -0.0558
  280MOL0     C37674   3.455   8.161  11.379  0.1150 -0.8652  1.1685
  280MOL0     C37675   3.352   8.057  11.338 -0.8935 -0.0718 -0.1137
  280MOL0     C37676   3.411   7.908  11.342 -0.1860 -0.3623  0.2680
  280MOL0     C37677   3.411   7.851  11.483  1.0262  0.8572  0.3122
  280MOL0     C37678   3.480   7.719  11.475  1.1219  0.2523 -0.2916
  280MOL0     C37679   3.479   7.664  11.624  0.5813 -0.1342 -0.5843
  280MOL0     C37680   3.462   7.512  11.595  0.0450 -0.4061  0.4303
  280MOL0     C37681   3.429   7.432  11.719  0.0793 -0.0545 -0.0450
  280MOL0     N37682   3.400   7.287  11.681 -0.6452  0.5353 -0.1059
  280MOL0     C37683   3.313   7.193  11.735 -0.3731 -0.0656  0.5880
  280MOL0     C37684   3.327   7.083  11.656  0.1716 -0.6571  0.0976
  280MOL0     C37685   3.269   6.944  11.661 -0.0496 -0.6075  0.7032
  280MOL0     C37686   3.238   6.895  11.810 -1.0065 -0.1049  1.3748
  280MOL0     C37687   3.356   6.853  11.900  0.3903 -0.1894  0.2022
  280MOL0     C37688   3.382   6.702  11.898  0.5339 -0.1078 -0.5636
  280MOL0     O37689   3.261   6.627  11.902 -0.7094  0.2687 -0.4913
  280MOL0     C37690   3.272   6.497  11.860  0.6622 -0.1491  0.1518
  280MOL0     C37691   3.384   6.424  11.823  0.3182 -0.5603  0.5420
  280MOL0     C37692   3.378   6.290  11.784 -0.1022  0.3442  0.1235
  280MOL0     C37693   3.257   6.229  11.766 -0.1578  0.6962  0.1063
  280MOL0     C37694   3.248   6.100  11.716  0.8080  0.4967 -0.1437
  280MOL0     O37695   3.381   6.045  11.717 -0.0363  0.4993 -0.5755
  280MOL0     C37696   3.383   5.914  11.672 -0.8418 -0.2496 -0.2916
  280MOL0     C37697   3.496   5.874  11.607  0.7556  0.6856  0.5044
  280MOL0     C37698   3.514   5.732  11.587 -0.6022  0.1193  0.5326
  280MOL0     C37699   3.425   5.637  11.636  0.4033  0.4558 -0.9269
  280MOL0     O37700   3.455   5.508  11.605 -0.0434 -0.0076 -0.8138
  280MOL0     C37701   3.417   5.404  11.704  0.9064  0.6926 -0.4159
  280MOL0     C37702   3.400   5.277  11.627  0.0545  0.1584  0.9730
  280MOL0     C37703   3.541   5.220  11.585 -0.5278  0.3338  0.0768
  280MOL0     C37704   3.525   5.083  11.504  0.3420 -0.4591  0.2344
  280MOL0     C37705   3.658   5.029  11.442 -0.0476 -0.0771  1.2024
  280MOL0     C37706   3.636   4.960  11.308 -0.2473 -0.1945 -0.8288
  280MOL0     C37707   3.767   4.950  11.218 -0.6829 -0.8153  0.1243
  280MOL0     C37708   3.750   4.873  11.089 -0.9913  0.2287 -0.1236
  280MOL0    Cl37709   3.713   4.713  11.143 -0.1157  0.2386 -0.2982
  280MOL0     C37710   3.308   5.681  11.702  0.1780  0.1797  0.9041
  280MOL0     C37711   3.294   5.819  11.720  0.0285  0.7042  0.4801
  280MOL0     O37712   3.147   6.053  11.664  0.2445  0.2524 -0.1333
  280MOL0     C37713   3.143   6.296  11.799  0.8044 -0.2561 -0.5189
  280MOL0     C37714   3.151   6.425  11.850 -0.4021  0.0462 -0.3363
  280MOL0     N37715   3.439   7.109  11.575 -0.1849 -0.2892  0.1074
  280MOL0     N37716   3.480   7.227  11.598 -0.1464 -0.4607  0.5038
  280MOL0     C37717   3.729   8.259  11.139 -0.4422 -0.8602  0.0072
  280MOL0     C37718   3.847   8.342  11.118 -0.1235  1.1033 -1.0080
  280MOL0     C37719   4.156   8.638  11.117 -1.1520  0.0839  0.8552
  280MOL0     C37720   4.235   8.625  11.237 -0.0984  0.3883  1.0812
  280MOL0     C37721   4.373   8.654  11.236 -0.9968 -0.2373  0.7621
  280MOL0     C37722   4.434   8.712  11.125 -0.0233  0.2270  0.3148
  280MOL0     O37723   4.567   8.747  11.138  0.0420 -0.2141 -0.0898
  280MOL0     C37724   4.647   8.819  11.037  0.1538 -1.0973 -1.0563
  280MOL0     C37725   4.688   8.724  10.925 -0.3949  0.8657  0.3501
  280MOL0     C37726   4.750   8.593  10.975  0.8660  0.7528 -0.1158
  280MOL0     C37727   4.792   8.511  10.852 -0.6897  0.8019 -0.7203
  280MOL0     C37728   4.693   8.465  10.760 -0.7894  0.2919  0.1248
  280MOL0     C37729   4.628   8.429  10.664 -0.4337 -0.4001  1.4218
  280MOL0     C37730   4.354   8.734  11.014  0.5938 -1.2253 -0.5980
  280MOL0     C37731   4.216   8.702  11.001  0.9901  0.1755 -0.2078
  280MOL0     C37732   4.157   8.729  10.867  1.1543 -0.2568 -0.4613
  280MOL0     H37733   3.828   8.497  11.417  0.7124 -2.0729 -0.0091
  280MOL0     H37734   3.636   8.355  11.451 -3.3301  0.1925 -2.1507
  280MOL0     H37735   3.504   8.135  11.474  1.9224  0.8331  0.7413
  280MOL0     H37736   3.398   8.254  11.390 -0.6971 -0.8474 -2.2608
  280MOL0     H37737   3.317   8.084  11.238  1.7535  4.5169 -0.1029
  280MOL0     H37738   3.266   8.076  11.402  0.2623  3.2158  0.6740
  280MOL0     H37739   3.513   7.909  11.302 -0.3908 -3.6366 -0.6015
  280MOL0     H37740   3.358   7.838  11.277 -0.5286 -1.6725  1.8902
  280MOL0     H37741   3.453   7.913  11.563  1.4060 -0.5108  1.2096
  280MOL0     H37742   3.304   7.839  11.502  0.7633  0.6918 -1.1617
  280MOL0     H37743   3.425   7.662  11.400 -0.1424  0.8080  0.1887
  280MOL0     H37744   3.577   7.749  11.434  0.8026  1.5770 -0.1376
  280MOL0     H37745   3.570   7.687  11.681  0.7422  0.0793 -0.9241
  280MOL0     H37746   3.392   7.697  11.680  1.0935  1.9313 -0.9257
  280MOL0     H37747   3.549   7.474  11.541  0.0962  0.5023 -0.1383
  280MOL0     H37748   3.373   7.512  11.531  1.0829  0.2941 -1.0585
  280MOL0     H37749   3.514   7.434  11.789 -0.3686  2.4238  0.5436
  280MOL0     H37750   3.344   7.486  11.761 -0.7516  0.9846 -2.8376
  280MOL0     H37751   3.250   7.203  11.823 -0.6970 -3.3282  0.8496
  280MOL0     H37752   3.179   6.936  11.601  0.5174 -0.1873 -0.2365
  280MOL0     H37753   3.351   6.881  11.625 -1.4052 -0.7490 -2.5155
  280MOL0     H37754   3.196   6.983  11.860 -0.9054  0.0910  1.1147
  280MOL0     H37755   3.166   6.813  11.803 -0.4435 -0.6432  1.8179
  280MOL0     H37756   3.341   6.886  12.003  0.6689 -2.3493  1.0063
  280MOL0     H37757   3.450   6.903  11.872  0.2304 -0.1623 -0.2941
  280MOL0     H37758   3.445   6.681  11.985 -0.5049 -1.5471 -0.1262
  280MOL0     H37759   3.442   6.684  11.809  0.0082  0.7769 -1.1136
  280MOL0     H37760   3.478   6.479  11.823 -1.9816  3.8425  2.1515
  280MOL0     H37761   3.479   6.254  11.762 -0.2963 -1.3169  1.7269
  280MOL0     H37762   3.560   5.956  11.574 -1.8852  1.8082 -2.3848
  280MOL0     H37763   3.609   5.699  11.544 -1.1944  0.2608 -0.9400
  280MOL0     H37764   3.487   5.398  11.788  0.4859  2.0320  0.0645
  280MOL0     H37765   3.322   5.414  11.758  1.1226 -0.6947  0.2730
  280MOL0     H37766   3.356   5.202  11.693 -0.4645  0.0375  0.4889
  280MOL0     H37767   3.335   5.295  11.541 -0.3678 -1.4407  0.9234
  280MOL0     H37768   3.602   5.297  11.538  2.5886 -1.2551  1.2184
  280MOL0     H37769   3.581   5.187  11.682 -1.0630 -1.7474 -0.3710
  280MOL0     H37770   3.474   5.106  11.410 -3.2225 -2.0853  1.5924
  280MOL0     H37771   3.470   5.004  11.556  0.2956  0.9431  2.4410
  280MOL0     H37772   3.716   4.960  11.503  1.5403 -0.9262 -1.1393
  280MOL0     H37773   3.730   5.111  11.431 -1.0164  1.0178  2.5630
  280MOL0     H37774   3.596   4.864  11.339  1.0840 -0.5997 -0.3012
  280MOL0     H37775   3.561   5.013  11.248 -0.3632 -1.6438 -2.0212
  280MOL0     H37776   3.849   4.906  11.276 -0.6216 -1.4282 -0.4147
  280MOL0     H37777   3.798   5.052  11.194 -0.0224 -1.3135 -1.2699
  280MOL0     H37778   3.667   4.903  11.023 -0.1331 -2.2685 -2.5237
  280MOL0     H37779   3.840   4.882  11.027 -0.0368 -2.9787  0.6086
  280MOL0     H37780   3.236   5.606  11.734  0.3283 -0.2641  0.2332
  280MOL0     H37781   3.207   5.854  11.775 -0.6913  1.0276 -0.8196
  280MOL0     H37782   3.042   6.258  11.786  0.8084 -0.5273  0.1780
  280MOL0     H37783   3.054   6.469  11.870 -1.3554 -2.5034  1.1121
  280MOL0     H37784   3.711   8.182  11.064 -0.0191  0.3218 -1.3509
  280MOL0     H37785   3.914   8.333  11.033  1.2785 -2.7684  0.3093
  280MOL0     H37786   4.198   8.586  11.331  0.8152  1.8735  2.0829
  280MOL0     H37787   4.443   8.630  11.315  0.7496  1.8642 -0.0442
  280MOL0     H37788   4.741   8.852  11.083 -0.4893  0.0485 -0.5101
  280MOL0     H37789   4.592   8.911  11.014 -2.0941 -1.3553  2.4373
  280MOL0     H37790   4.758   8.768  10.853 -2.0940 -0.1852 -2.0870
  280MOL0     H37791   4.594   8.699  10.874 -1.4303 -0.0521  2.5956
  280MOL0     H37792   4.694   8.528  11.043  2.3651  2.1527  2.6049
  280MOL0     H37793   4.829   8.626  11.043 -0.0913  0.5980  1.1203
  280MOL0     H37794   4.862   8.575  10.798 -0.6417 -1.2115 -3.2516
  280MOL0     H37795   4.855   8.429  10.886  1.2444  2.5377  0.1264
  280MOL0     H37796   4.566   8.403  10.581 -2.9764  1.2227  2.7112
  280MOL0     H37797   4.402   8.792  10.935  0.3692 -0.2157 -0.0103
  280MOL0     H37798   4.214   8.698  10.779  0.3054 -1.3726 -0.6419
  280MOL0     H37799   4.067   8.667  10.857 -1.1592  2.1567  3.2047
  280MOL0     H37800   4.128   8.833  10.853 -1.5174 -0.5424  2.0335
  281MOL0     O37801  10.648   2.774   1.748 -0.7388 -0.1925  0.5569
  281MOL0     C37802  10.722   2.821   1.663  0.0126  0.0205 -0.1868
  281MOL0     O37803  10.702   2.932   1.588  0.1392 -1.1447 -0.1054
  281MOL0     C37804  10.604   3.022   1.608 -1.4567 -0.6219 -0.7364
  281MOL0     C37805  10.635   3.153   1.627  0.1822  0.7852 -0.5124
  281MOL0     C37806  10.522   3.245   1.650  0.1161  0.1129  0.3695
  281MOL0     C37807  10.394   3.203   1.641  0.0009  0.5412  0.5747
  281MOL0     O37808  10.297   3.288   1.676 -0.1843 -0.8152 -0.2584
  281MOL0     C37809  10.205   3.316   1.568 -0.8623 -0.0445 -0.1721
  281MOL0     C37810  10.070   3.338   1.627  0.4478  0.9246 -0.4755
  281MOL0     C37811  10.016   3.204   1.691 -0.2537  0.0155 -0.9512
  281MOL0     C37812   9.879   3.214   1.762  1.6763  0.6223  0.6085
  281MOL0     C37813   9.832   3.075   1.828  0.1159  0.4951  0.6268
  281MOL0     C37814   9.862   2.943   1.751  0.1134  0.4254 -0.0546
  281MOL0     C37815   9.802   2.822   1.834 -0.5578 -0.8911  0.5288
  281MOL0     C37816   9.882   2.697   1.818  0.0718 -1.1307 -0.3975
  281MOL0     N37817   9.845   2.639   1.689 -0.2616 -0.0922 -0.8677
  281MOL0     C37818   9.779   2.512   1.678 -0.3094 -0.2372  0.3045
  281MOL0     C37819   9.791   2.476   1.547  0.0650  0.2411 -0.7532
  281MOL0     C37820   9.720   2.358   1.486 -0.0223 -0.6831  0.0405
  281MOL0     C37821   9.830   2.261   1.435  0.3191  0.5663  0.2868
  281MOL0     C37822   9.758   2.151   1.355 -0.6906 -0.2661 -1.7441
  281MOL0     C37823   9.862   2.038   1.350  0.1475  0.6307  0.0570
  281MOL0     O37824   9.986   2.081   1.293 -0.1701  0.3304 -1.0013
  281MOL0     C37825   9.994   2.115   1.165 -0.3388 -0.5274 -0.2264
  281MOL0     C37826  10.020   2.251   1.136 -0.3572  0.5661  0.0584
  281MOL0     C37827  10.047   2.297   1.007  0.0764 -0.4206  1.0663
  281MOL0     C37828  10.018   2.205   0.897 -0.5144 -1.0448  1.1647
  281MOL0     C37829  10.035   2.248   0.758  0.8939  0.2708 -0.0187
  281MOL0     O37830  10.095   2.362   0.743 -0.5325 -0.2527  0.7635
  281MOL0     C37831  10.109   2.408   0.618  0.0304 -0.1366  0.2679
  281MOL0     C37832  10.018   2.489   0.564 -0.3842 -0.1046  0.8463
  281MOL0     C37833  10.027   2.554   0.440  0.3214 -1.0396  0.1150
  281MOL0     C37834  10.139   2.529   0.357 -0.0037 -0.3965 -1.0834
  281MOL0     O37835  10.162   2.591   0.235 -0.7669 -0.5953 -0.5825
  281MOL0     C37836  10.187   2.503   0.118 -0.9966  0.2470  0.5394
  281MOL0     C37837  10.127   2.572  -0.006  0.2952 -0.9121  1.3727
  281MOL0     C37838  10.018   2.506  -0.091  0.3089  0.4808 -0.0253
  281MOL0     C37839  10.062   2.365  -0.133 -0.4189 -0.7644 -0.5000
  281MOL0     C37840   9.985   2.305  -0.254 -0.0141  0.9015 -0.1182
  281MOL0     C37841  10.019   2.161  -0.295 -0.3198 -0.1624  0.6520
  281MOL0     C37842   9.944   2.062  -0.188  0.0400 -0.1323  0.7261
  281MOL0     C37843   9.931   1.919  -0.261  0.2099 -0.1264 -0.3200
  281MOL0    Cl37844   9.803   1.921  -0.386 -0.1299  0.3237  0.0006
  281MOL0     C37845  10.233   2.434   0.404  0.7718 -0.3600 -0.7387
  281MOL0     C37846  10.218   2.377   0.536  0.3337 -0.7888 -0.0077
  281MOL0     O37847  10.003   2.175   0.670  0.1153 -0.0087 -0.3771
  281MOL0     C37848   9.987   2.075   0.927  0.2511  0.5439 -0.9888
  281MOL0     C37849   9.977   2.036   1.062 -0.6507 -0.0548 -0.3737
  281MOL0     N37850   9.869   2.576   1.489  0.2959  0.1531  0.8975
  281MOL0     N37851   9.896   2.675   1.563 -0.7675  0.0563  0.3906
  281MOL0     C37852  10.366   3.067   1.611  0.2014  0.1781 -1.0652
  281MOL0     C37853  10.475   2.979   1.587  0.4105 -0.2239 -0.0787
  281MOL0     C37854  10.837   2.736   1.630 -0.1954 -0.6408 -0.7270
  281MOL0     C37855  10.929   2.767   1.521  0.7450 -0.4609 -0.2980
  281MOL0     C37856  11.043   2.690   1.490  0.9164 -0.8658 -0.0110
  281MOL0     C37857  11.081   2.572   1.559  0.9042 -0.8765  0.6907
  281MOL0     O37858  11.194   2.504   1.524 -0.1021  1.3762  0.7762
  281MOL0     C37859  11.235   2.382   1.591  0.8692  0.5975 -0.9308
  281MOL0     C37860  11.289   2.391   1.728 -0.4738  0.2991 -0.4197
  281MOL0     C37861  11.434   2.454   1.735 -0.3702 -0.3336 -0.5980
  281MOL0     C37862  11.470   2.492   1.884  0.0168 -0.3595 -0.1904
  281MOL0     C37863  11.465   2.385   1.985  0.2793 -0.3616 -0.0949
  281MOL0     C37864  11.476   2.293   2.062 -0.1519  0.1548  0.5165
  281MOL0     C37865  10.993   2.539   1.662  0.4745 -0.0043 -0.6204
  281MOL0     C37866  10.874   2.613   1.698  0.8438  0.5658 -0.5720
  281MOL0     C37867  10.801   2.565   1.829 -0.6119  0.5180  0.3051
  281MOL0     H37868  10.739   3.178   1.640  0.5999  0.8314 -3.2146
  281MOL0     H37869  10.555   3.345   1.679  0.9751  0.5763 -1.9336
  281MOL0     H37870  10.236   3.408   1.519  0.1688 -0.7327 -0.8294
  281MOL0     H37871  10.215   3.240   1.490 -0.5382 -0.1448 -0.0342
  281MOL0     H37872  10.005   3.379   1.548  1.1150  2.0605 -0.4545
  281MOL0     H37873  10.067   3.420   1.700 -1.1569 -0.9076  1.6577
  281MOL0     H37874  10.094   3.167   1.759  0.7805  1.0259 -1.5620
  281MOL0     H37875  10.022   3.129   1.612  0.6543 -0.2542 -0.6443
  281MOL0     H37876   9.873   3.297   1.834 -1.7021  0.3929  0.7525
  281MOL0     H37877   9.808   3.235   1.682  1.0517 -0.6069  0.8268
  281MOL0     H37878   9.879   3.072   1.926  1.2933  0.8816  0.0930
  281MOL0     H37879   9.722   3.076   1.826  0.1033  0.0881  1.0846
  281MOL0     H37880   9.827   2.953   1.647  0.4864  1.0331 -0.1254
  281MOL0     H37881   9.970   2.933   1.740 -0.0587 -3.7508  0.3662
  281MOL0     H37882   9.696   2.804   1.819 -0.3387 -1.4864 -0.3338
  281MOL0     H37883   9.818   2.851   1.939  2.0415 -4.1317  1.1750
  281MOL0     H37884   9.991   2.708   1.815 -0.0485  0.3375 -3.3710
  281MOL0     H37885   9.849   2.632   1.899 -3.1419  0.2890 -0.4322
  281MOL0     H37886   9.723   2.462   1.756 -1.0015 -1.3082 -0.8446
  281MOL0     H37887   9.657   2.297   1.551  2.2638 -0.9324  2.1782
  281MOL0     H37888   9.654   2.392   1.406  1.0983  0.4800 -0.4281
  281MOL0     H37889   9.900   2.312   1.367 -0.2764  2.8062  1.2555
  281MOL0     H37890   9.884   2.231   1.525  0.2754  3.2101  1.2851
  281MOL0     H37891   9.726   2.185   1.256 -1.5728  0.8429 -1.1046
  281MOL0     H37892   9.673   2.106   1.409  0.8695 -0.2730  0.8634
  281MOL0     H37893   9.820   1.952   1.296 -0.2305  1.6082 -1.2394
  281MOL0     H37894   9.892   2.021   1.454  1.5048  3.1705  0.1643
  281MOL0     H37895  10.036   2.311   1.226  2.6225 -1.7374  1.2418
  281MOL0     H37896  10.074   2.401   0.989  1.1373 -1.1353 -2.1180
  281MOL0     H37897   9.927   2.500   0.622 -2.2579 -1.4144 -1.6307
  281MOL0     H37898   9.949   2.619   0.401 -0.5060 -2.5149 -0.7519
  281MOL0     H37899  10.292   2.475   0.109 -0.9596 -0.1647  2.0476
  281MOL0     H37900  10.139   2.406   0.133  1.9402 -1.5769 -0.8165
  281MOL0     H37901  10.085   2.666   0.033 -3.2472 -1.8764  0.2282
  281MOL0     H37902  10.212   2.611  -0.063 -1.0685  0.1965 -0.0026
  281MOL0     H37903   9.929   2.498  -0.028  1.6620  2.7329  2.4025
  281MOL0     H37904  10.008   2.580  -0.171 -1.2305 -1.3018 -1.5638
  281MOL0     H37905  10.036   2.295  -0.052 -0.9908 -0.8231 -0.7316
  281MOL0     H37906  10.169   2.368  -0.155 -0.1568  0.5072  0.7740
  281MOL0     H37907   9.989   2.371  -0.341 -0.7020  2.4590  0.9869
  281MOL0     H37908   9.882   2.302  -0.220  0.6505 -1.0756  1.9473
  281MOL0     H37909   9.984   2.157  -0.398 -0.0256  3.1960  0.3159
  281MOL0     H37910  10.127   2.144  -0.290 -0.1215 -0.4246 -2.5085
  281MOL0     H37911   9.847   2.081  -0.141  0.6015 -1.2999  2.4653
  281MOL0     H37912  10.020   2.044  -0.111  1.6745  2.0468 -0.2451
  281MOL0     H37913  10.028   1.888  -0.300  0.1235 -0.1021 -0.5574
  281MOL0     H37914   9.915   1.838  -0.190 -2.2321  0.2451 -0.3724
  281MOL0     H37915  10.323   2.425   0.344  1.5832 -2.2569  0.6508
  281MOL0     H37916  10.299   2.314   0.571 -0.5761 -1.5876  0.7131
  281MOL0     H37917   9.982   1.999   0.849 -2.2015 -2.3882  1.7552
  281MOL0     H37918   9.958   1.933   1.090  0.5960  0.0583  0.9800
  281MOL0     H37919  10.261   3.042   1.606 -0.6401  3.5036 -3.6997
  281MOL0     H37920  10.459   2.873   1.572 -0.9518 -0.2242  1.1012
  281MOL0     H37921  10.902   2.860   1.472 -0.0876  1.4655  3.5010
  281MOL0     H37922  11.094   2.734   1.405 -1.8745 -0.1817 -1.4363
  281MOL0     H37923  11.315   2.340   1.529  2.0274  1.3264  0.0196
  281MOL0     H37924  11.147   2.317   1.601  2.5265 -1.5856  0.4044
  281MOL0     H37925  11.291   2.290   1.769  1.4140  0.5345  0.1678
  281MOL0     H37926  11.226   2.453   1.791 -1.0393 -0.8538  0.1847
  281MOL0     H37927  11.443   2.530   1.657  1.8555  1.0146  0.8595
  281MOL0     H37928  11.498   2.368   1.713 -0.0685 -0.2532 -0.0528
  281MOL0     H37929  11.576   2.519   1.892 -0.1266 -0.3127  2.5560
  281MOL0     H37930  11.406   2.577   1.910 -0.9228 -1.6527  2.0603
  281MOL0     H37931  11.505   2.207   2.119  0.2555 -0.7949 -1.0586
  281MOL0     H37932  11.008   2.458   1.733 -1.4426  1.0761  1.1420
  281MOL0     H37933  10.862   2.485   1.872 -0.3598  1.4801  1.8118
  281MOL0     H37934  10.801   2.636   1.912 -0.2646  1.5693 -0.5785
  281MOL0     H37935  10.701   2.525   1.808 -1.1855  0.9839  2.0011
  282MOL0     O37936   0.640   1.993   9.786 -0.3585 -0.2308 -0.0886
  282MOL0     C37937   0.685   2.091   9.842 -0.5123  0.1167 -0.5830
  282MOL0     O37938   0.715   2.111   9.983  0.2270  0.1701  1.1188
  282MOL0     C37939   0.688   2.017  10.086 -1.1539 -0.2554 -0.8099
  282MOL0     C37940   0.780   2.014  10.198  0.4011 -0.9965 -0.6093
  282MOL0     C37941   0.736   1.931  10.302 -0.0273 -0.3493  0.4691
  282MOL0     C37942   0.632   1.840  10.297 -0.3080  0.1314  0.0495
  282MOL0     O37943   0.618   1.753  10.404  0.1344 -0.2965 -0.0525
  282MOL0     C37944   0.489   1.695  10.425 -1.1243 -0.3579  0.9564
  282MOL0     C37945   0.490   1.652  10.572  0.4049 -0.3453 -0.4500
  282MOL0     C37946   0.352   1.596  10.621  0.4923 -0.6407  0.0545
  282MOL0     C37947   0.328   1.459  10.555 -0.1142  0.2044 -0.2430
  282MOL0     C37948   0.184   1.406  10.600 -0.4561  0.8277  0.3620
  282MOL0     C37949   0.178   1.270  10.538 -0.3251  0.7565 -0.4385
  282MOL0     C37950   0.062   1.178  10.573  0.1469 -0.0889 -0.1402
  282MOL0     C37951   0.085   1.119  10.710  0.0348  0.4171  0.2990
  282MOL0     N37952  -0.033   1.049  10.746  0.8584 -0.0727  0.0253
  282MOL0     C37953  -0.126   1.093  10.836  0.0321  0.5821 -0.1468
  282MOL0     C37954  -0.219   0.990  10.847 -0.4562  0.1091  0.4410
  282MOL0     C37955  -0.345   0.980  10.941  0.0572  0.3148  0.1613
  282MOL0     C37956  -0.433   1.109  10.929  1.2372  0.6249 -0.3186
  282MOL0     C37957  -0.550   1.088  10.837 -0.1025 -0.0163  0.1177
  282MOL0     C37958  -0.509   1.056  10.692  0.9692  0.5979 -0.1288
  282MOL0     O37959  -0.411   1.147  10.644  0.6458  0.6679 -0.2257
  282MOL0     C37960  -0.386   1.142  10.512 -0.6855  1.0711  1.0511
  282MOL0     C37961  -0.425   1.034  10.420  0.0960  0.2414  0.2184
  282MOL0     C37962  -0.388   1.038  10.287 -0.9452 -0.1938 -0.1509
  282MOL0     C37963  -0.297   1.131  10.242 -0.3062  0.4633 -0.6629
  282MOL0     C37964  -0.250   1.133  10.098 -0.1281  0.1800 -0.9479
  282MOL0     O37965  -0.237   1.003  10.037 -0.4131 -0.5395  0.1757
  282MOL0     C37966  -0.199   1.004   9.907 -0.1122 -0.8685  0.2854
  282MOL0     C37967  -0.275   1.072   9.803 -0.4999  0.8102 -0.3044
  282MOL0     C37968  -0.263   1.037   9.672  0.9171 -1.0045  0.2384
  282MOL0     C37969  -0.159   0.955   9.626 -0.2565 -0.1084 -0.4042
  282MOL0     O37970  -0.153   0.914   9.492 -1.2181 -0.0620 -0.0016
  282MOL0     C37971  -0.274   0.875   9.443 -0.5369  0.3585 -0.2717
  282MOL0     C37972  -0.260   0.762   9.337  0.5391 -0.2120  0.3795
  282MOL0     C37973  -0.200   0.818   9.204 -0.1793  0.0430  0.0352
  282MOL0     C37974  -0.249   0.749   9.081 -0.7288 -0.4002 -0.3008
  282MOL0     C37975  -0.169   0.791   8.953  0.0299 -0.2728  0.0559
  282MOL0     C37976  -0.155   0.945   8.936 -0.0108  0.8067 -0.0291
  282MOL0     C37977  -0.284   1.030   8.910  0.0221 -0.1187  0.4903
  282MOL0     C37978  -0.282   1.111   8.780  0.3499  0.1082  0.5697
  282MOL0    Cl37979  -0.450   1.162   8.755  0.2314 -0.3940 -0.0234
  282MOL0     C37980  -0.082   0.903   9.728  0.5793 -0.0193  0.7435
  282MOL0     C37981  -0.105   0.918   9.869  0.8001  0.1952  0.0320
  282MOL0     O37982  -0.241   1.244  10.044 -0.0791  0.1550  0.0252
  282MOL0     C37983  -0.264   1.232  10.323  0.1849  0.5548  0.0973
  282MOL0     C37984  -0.306   1.248  10.456  0.0792 -0.3156  0.7045
  282MOL0     N37985  -0.176   0.899  10.755 -0.0913  0.4874 -0.2579
  282MOL0     N37986  -0.063   0.923  10.706  0.0040 -1.0231  0.6080
  282MOL0     C37987   0.556   1.836  10.184 -0.4604  0.5990  0.5077
  282MOL0     C37988   0.578   1.928  10.081  0.4484 -0.0026  0.2534
  282MOL0     C37989   0.731   2.194   9.750  0.0343 -0.4128  0.1602
  282MOL0     C37990   0.846   2.267   9.793  0.3147 -0.2383  0.7319
  282MOL0     C37991   0.906   2.346   9.702  0.4787  0.7408 -0.0586
  282MOL0     C37992   0.840   2.376   9.582 -0.5264 -0.6281 -0.7463
  282MOL0     O37993   0.906   2.454   9.491 -0.1546  0.4654  0.0300
  282MOL0     C37994   0.972   2.377   9.385 -0.5835 -0.2712  0.5681
  282MOL0     C37995   1.100   2.302   9.446  0.3052  0.6812 -0.5005
  282MOL0     C37996   1.195   2.232   9.332 -0.3951  0.0866  0.4749
  282MOL0     C37997   1.330   2.290   9.336 -0.4223 -0.5568  0.6459
  282MOL0     C37998   1.409   2.249   9.219 -0.1482 -0.3657  0.3115
  282MOL0     C37999   1.461   2.208   9.118  0.9677 -0.3580 -0.6544
  282MOL0     C38000   0.717   2.329   9.555 -0.0260  0.6784 -0.0317
  282MOL0     C38001   0.659   2.236   9.644 -0.2983 -0.0390  0.4139
  282MOL0     C38002   0.513   2.196   9.608 -0.0687 -0.2354  0.2852
  282MOL0     H38003   0.865   2.081  10.191  2.6312 -3.6645 -0.5884
  282MOL0     H38004   0.791   1.932  10.395  0.6546  2.5656  0.1300
  282MOL0     H38005   0.414   1.775  10.424 -1.2399 -0.4040  2.9597
  282MOL0     H38006   0.474   1.616  10.350  0.4839 -0.0695  0.3057
  282MOL0     H38007   0.532   1.739  10.622  1.2130  0.0843 -1.8108
  282MOL0     H38008   0.567   1.578  10.595  1.0390  0.7191  0.9791
  282MOL0     H38009   0.280   1.675  10.596  3.0006  2.1065  0.9074
  282MOL0     H38010   0.347   1.592  10.730 -0.6937  1.3841  0.1292
  282MOL0     H38011   0.321   1.455  10.446 -0.4557  0.9203 -0.2478
  282MOL0     H38012   0.411   1.393  10.583 -0.1910 -0.5562 -1.6936
  282MOL0     H38013   0.169   1.405  10.709 -1.1955  0.0487  0.2676
  282MOL0     H38014   0.094   1.456  10.564 -2.3597 -1.1340  2.0167
  282MOL0     H38015   0.181   1.273  10.428 -1.8011  1.5760 -0.4822
  282MOL0     H38016   0.272   1.224  10.571 -1.0013  0.7574  1.6333
  282MOL0     H38017   0.070   1.094  10.503  0.8953 -1.9734  2.0967
  282MOL0     H38018  -0.038   1.222  10.574  1.6830  3.8031 -0.9974
  282MOL0     H38019   0.174   1.056  10.705 -1.2044 -1.4023  0.0562
  282MOL0     H38020   0.102   1.194  10.787 -0.5018 -0.6175  1.4592
  282MOL0     H38021  -0.151   1.186  10.887 -0.4213  1.6525 -2.1974
  282MOL0     H38022  -0.412   0.900  10.910  0.7675  0.4146 -1.8259
  282MOL0     H38023  -0.311   0.967  11.044  0.4540  1.5191  0.1981
  282MOL0     H38024  -0.482   1.126  11.025  3.1038  2.1952  0.4378
  282MOL0     H38025  -0.388   1.203  10.896  0.5880  1.0646  0.0302
  282MOL0     H38026  -0.610   1.179  10.836  0.2749  0.5233  4.7220
  282MOL0     H38027  -0.609   1.008  10.885 -2.1845  3.5528  4.2709
  282MOL0     H38028  -0.594   1.059  10.623  1.4076  3.0246 -0.6380
  282MOL0     H38029  -0.477   0.951  10.684 -1.4559 -0.2079 -0.1539
  282MOL0     H38030  -0.496   0.965  10.465 -1.9492  0.8841 -1.8518
  282MOL0     H38031  -0.436   0.960  10.229 -0.8848 -0.4168  0.0992
  282MOL0     H38032  -0.348   1.145   9.836 -0.9915  0.0529  0.3352
  282MOL0     H38033  -0.320   1.086   9.594  0.8818 -0.4256  0.6280
  282MOL0     H38034  -0.347   0.826   9.510 -0.0113 -1.1938 -0.7953
  282MOL0     H38035  -0.319   0.968   9.406 -2.0915  0.1244  0.9213
  282MOL0     H38036  -0.207   0.676   9.380 -3.0026 -4.9822 -3.6102
  282MOL0     H38037  -0.362   0.730   9.317  0.8377 -0.8174 -0.2483
  282MOL0     H38038  -0.223   0.925   9.198  2.5609  0.5942 -2.4798
  282MOL0     H38039  -0.092   0.809   9.212 -0.0977 -3.2095 -2.6995
  282MOL0     H38040  -0.353   0.775   9.061 -0.7298  2.2392  2.2465
  282MOL0     H38041  -0.260   0.641   9.091  4.6294 -1.4859 -2.6543
  282MOL0     H38042  -0.230   0.752   8.872  1.7305 -1.7278 -0.5947
  282MOL0     H38043  -0.073   0.739   8.947  0.7934  1.1598 -1.0041
  282MOL0     H38044  -0.119   0.986   9.030  0.5648  1.0768 -0.3597
  282MOL0     H38045  -0.080   0.964   8.858  1.9965 -4.4983  0.2241
  282MOL0     H38046  -0.304   1.101   8.991 -2.6860  1.1297 -1.1590
  282MOL0     H38047  -0.375   0.972   8.893 -0.6114  0.4543  1.7718
  282MOL0     H38048  -0.215   1.197   8.778 -0.3508  0.6891  1.5308
  282MOL0     H38049  -0.263   1.053   8.689 -1.7081  0.9391 -0.4626
  282MOL0     H38050   0.009   0.846   9.710  2.0485  2.5927 -0.7445
  282MOL0     H38051  -0.033   0.870   9.934  0.1724 -0.1610  0.4802
  282MOL0     H38052  -0.200   1.309  10.281  0.1178  0.2711 -0.5321
  282MOL0     H38053  -0.262   1.313  10.531  2.5914 -1.4151  0.3037
  282MOL0     H38054   0.473   1.766  10.177 -1.2401  1.5716 -0.2686
  282MOL0     H38055   0.535   1.907   9.983  2.3161 -1.1451 -0.3862
  282MOL0     H38056   0.905   2.238   9.879  3.4678 -0.1711 -1.2308
  282MOL0     H38057   0.997   2.403   9.717  1.7262 -1.1232 -0.2627
  282MOL0     H38058   1.018   2.453   9.321  2.0812 -1.7112  0.6182
  282MOL0     H38059   0.913   2.319   9.313  0.9073  1.2762 -2.0565
  282MOL0     H38060   1.070   2.229   9.521 -0.9372 -0.6302 -2.1966
  282MOL0     H38061   1.157   2.372   9.508 -0.3868 -1.6439  2.9807
  282MOL0     H38062   1.146   2.258   9.238  2.7964  2.0067 -0.8205
  282MOL0     H38063   1.182   2.125   9.348  2.0146 -0.5016 -1.0256
  282MOL0     H38064   1.318   2.399   9.333 -0.7515 -0.6098 -1.7797
  282MOL0     H38065   1.394   2.252   9.416  1.4813  0.3968 -0.3511
  282MOL0     H38066   1.507   2.192   9.023 -0.9117 -0.5412 -1.5701
  282MOL0     H38067   0.679   2.365   9.460  2.1404  0.5061 -1.0381
  282MOL0     H38068   0.459   2.187   9.702 -2.0382 -0.9358 -0.8444
  282MOL0     H38069   0.471   2.280   9.552  2.4212  0.9481  0.0682
  282MOL0     H38070   0.493   2.100   9.561 -1.1018 -1.5219  3.1607
  283MOL0     O38071  10.952   8.665   3.684 -0.7077 -0.2141  0.0636
  283MOL0     C38072  10.885   8.612   3.769  0.4095  0.9906  1.1086
  283MOL0     O38073  10.762   8.655   3.805  0.1399  1.3769  0.4998
  283MOL0     C38074  10.715   8.771   3.757  0.0316  1.2014 -0.0911
  283MOL0     C38075  10.719   8.887   3.828  0.3120  0.1373  0.2944
  283MOL0     C38076  10.677   9.008   3.774 -0.3309  0.5334  1.0155
  283MOL0     C38077  10.630   9.021   3.643  0.2371 -0.1809 -0.4050
  283MOL0     O38078  10.602   9.147   3.596  0.2890 -0.3786 -0.0830
  283MOL0     C38079  10.529   9.180   3.484  0.1893 -0.3714 -0.1985
  283MOL0     C38080  10.375   9.186   3.490 -0.7970  0.9068  0.2415
  283MOL0     C38081  10.307   9.199   3.345  0.4458  0.1239  1.3575
  283MOL0     C38082  10.152   9.181   3.376  0.9453  0.1486  0.1232
  283MOL0     C38083  10.044   9.164   3.260 -0.8228 -0.0798 -0.3703
  283MOL0     C38084  10.063   9.033   3.185 -0.6588 -1.2991 -0.1953
  283MOL0     C38085   9.983   9.014   3.049  0.2069 -0.0395 -0.4243
  283MOL0     C38086   9.993   9.145   2.960 -0.0955  1.0555 -0.0713
  283MOL0     N38087  10.140   9.167   2.920 -0.4393 -0.0943 -0.4304
  283MOL0     C38088  10.208   9.087   2.820  0.6725 -0.9705  0.7684
  283MOL0     C38089  10.330   9.146   2.807  0.9925  0.1963 -0.6915
  283MOL0     C38090  10.435   9.107   2.713 -0.5526  0.1364  1.1700
  283MOL0     C38091  10.480   9.219   2.620  0.2740  0.5718  1.1132
  283MOL0     C38092  10.558   9.154   2.506  0.2015 -1.8406  0.5472
  283MOL0     C38093  10.606   9.262   2.402 -0.2610  0.2390  0.2320
  283MOL0     O38094  10.715   9.189   2.326  0.6275  0.3935 -0.0624
  283MOL0     C38095  10.701   9.139   2.202  0.6776  0.2929  0.2161
  283MOL0     C38096  10.806   9.060   2.158 -0.1150 -0.6211  0.7960
  283MOL0     C38097  10.796   9.003   2.032 -0.8480  0.8484 -0.8225
  283MOL0     C38098  10.690   9.026   1.942  0.4789  0.1912 -1.4849
  283MOL0     C38099  10.690   8.965   1.813 -0.9413  0.7320 -0.0014
  283MOL0     O38100  10.573   9.004   1.733  0.6516  0.2365  0.0532
  283MOL0     C38101  10.559   8.975   1.606 -0.1838  0.1407 -0.5006
  283MOL0     C38102  10.617   9.073   1.522  0.2074  0.2315  0.1987
  283MOL0     C38103  10.618   9.060   1.384  0.7481  0.4602  0.6319
  283MOL0     C38104  10.527   8.963   1.326  0.5280  0.2535  0.3523
  283MOL0     O38105  10.505   8.964   1.194  0.1955  0.8580  0.5262
  283MOL0     C38106  10.511   9.093   1.119 -0.0732  0.7044 -0.7373
  283MOL0     C38107  10.455   9.085   0.969  0.3984 -0.3394  0.1564
  283MOL0     C38108  10.450   8.941   0.918 -0.3720 -0.8601  0.7195
  283MOL0     C38109  10.402   8.937   0.780  0.6651  0.9400  0.5883
  283MOL0     C38110  10.254   8.985   0.767 -0.7345  0.2283  0.3141
  283MOL0     C38111  10.205   8.953   0.625 -0.7896  0.7060  0.6639
  283MOL0     C38112  10.060   9.007   0.597  0.5407  0.5220  0.0530
  283MOL0     C38113  10.069   9.140   0.533  0.3854 -0.9000  1.1777
  283MOL0    Cl38114   9.920   9.180   0.452 -0.1244  0.2332  0.0359
  283MOL0     C38115  10.464   8.863   1.412  0.1038  0.2395  0.0298
  283MOL0     C38116  10.479   8.875   1.552  0.4015 -0.2162  0.0025
  283MOL0     O38117  10.790   8.906   1.765 -0.7363 -0.4925  0.2938
  283MOL0     C38118  10.583   9.108   1.992  0.3476  0.0262 -0.1497
  283MOL0     C38119  10.592   9.158   2.122 -0.3537 -1.1613 -0.0172
  283MOL0     N38120  10.330   9.262   2.896 -0.3554 -0.1515  1.2222
  283MOL0     N38121  10.219   9.274   2.951 -0.0733  0.8673 -0.6495
  283MOL0     C38122  10.633   8.908   3.567 -0.1052  0.5058 -0.0813
  283MOL0     C38123  10.681   8.787   3.625  0.6207  0.2077  0.3013
  283MOL0     C38124  10.938   8.497   3.850 -0.0711 -1.4195 -0.3821
  283MOL0     C38125  10.854   8.414   3.922  0.9094 -0.0674 -1.0665
  283MOL0     C38126  10.897   8.291   3.982  0.2855 -0.3639  0.0529
  283MOL0     C38127  11.031   8.258   3.982  0.3813 -0.1327 -0.7335
  283MOL0     O38128  11.057   8.163   4.071 -0.2861  0.5789  0.5390
  283MOL0     C38129  11.187   8.121   4.104 -0.0506 -0.1573  0.5943
  283MOL0     C38130  11.211   8.169   4.243  0.3929 -0.0377 -1.3927
  283MOL0     C38131  11.116   8.101   4.348 -0.1609  0.5865  0.0880
  283MOL0     C38132  11.128   8.151   4.491  0.2060 -0.1403 -0.8157
  283MOL0     C38133  11.007   8.222   4.542 -0.3998  0.6056 -0.1165
  283MOL0     C38134  10.925   8.305   4.579 -0.2273  0.1992 -0.5573
  283MOL0     C38135  11.117   8.351   3.924 -0.1818  0.4453  1.3096
  283MOL0     C38136  11.071   8.468   3.858 -0.3525  1.2511  0.5729
  283MOL0     C38137  11.183   8.543   3.796 -0.2221 -0.2786  0.9927
  283MOL0     H38138  10.759   8.869   3.927 -0.1620  1.7930  0.8317
  283MOL0     H38139  10.683   9.097   3.836  0.4181  1.7104 -0.6886
  283MOL0     H38140  10.560   9.278   3.448  0.3542 -0.8364 -1.3536
  283MOL0     H38141  10.547   9.115   3.398  0.6613  0.9141 -1.1068
  283MOL0     H38142  10.344   9.258   3.567  1.3943  1.2864  0.8398
  283MOL0     H38143  10.352   9.086   3.528 -1.9446  1.8422  2.1801
  283MOL0     H38144  10.341   9.126   3.271 -1.6209 -0.4709  0.9195
  283MOL0     H38145  10.323   9.299   3.304  1.8536 -0.7089 -0.2631
  283MOL0     H38146  10.138   9.095   3.441  1.7575  0.6420  0.9728
  283MOL0     H38147  10.128   9.274   3.428 -0.8410  1.0549 -2.1023
  283MOL0     H38148   9.940   9.162   3.294 -0.4484 -2.1457  0.8193
  283MOL0     H38149  10.053   9.249   3.192  0.9072 -0.9834 -1.3413
  283MOL0     H38150  10.169   9.011   3.168  0.6207  3.2881  0.7058
  283MOL0     H38151  10.025   8.953   3.250 -1.4705  0.1995  1.2261
  283MOL0     H38152   9.877   9.001   3.071  0.6433 -0.6508  1.5857
  283MOL0     H38153  10.025   8.926   2.999  0.6589  1.1316 -2.1818
  283MOL0     H38154   9.937   9.132   2.867 -3.2953  2.6424  1.4477
  283MOL0     H38155   9.965   9.240   3.005 -1.0232  1.5823 -1.6827
  283MOL0     H38156  10.171   9.010   2.753  0.5164 -1.2723  1.1984
  283MOL0     H38157  10.518   9.062   2.767  1.7352  1.1319 -1.2641
  283MOL0     H38158  10.403   9.037   2.636 -1.2276  1.1560  0.4868
  283MOL0     H38159  10.390   9.264   2.577  1.3374  0.2434 -1.6433
  283MOL0     H38160  10.541   9.290   2.676  1.4931  0.6982 -0.2962
  283MOL0     H38161  10.492   9.087   2.450 -1.3818  0.7488 -0.8998
  283MOL0     H38162  10.643   9.107   2.557  0.6358 -2.2604 -0.5362
  283MOL0     H38163  10.653   9.347   2.452  0.8603  2.0490 -3.4914
  283MOL0     H38164  10.533   9.310   2.336  2.2659  0.5744 -2.5517
  283MOL0     H38165  10.888   9.040   2.226  0.7167  0.0323  0.0145
  283MOL0     H38166  10.886   8.947   2.005 -0.7168  1.2948 -1.3390
  283MOL0     H38167  10.677   9.152   1.566 -2.6475  1.5830  1.9850
  283MOL0     H38168  10.666   9.136   1.323  2.0383  2.5455  3.9550
  283MOL0     H38169  10.451   9.168   1.171 -1.0320  0.7710 -1.8773
  283MOL0     H38170  10.612   9.132   1.112 -0.0692  1.4883  2.3874
  283MOL0     H38171  10.352   9.120   0.977  0.5652 -0.1272  1.6927
  283MOL0     H38172  10.507   9.158   0.907 -0.9767 -0.8050 -1.6100
  283MOL0     H38173  10.553   8.907   0.926 -0.5785 -1.1465  2.7197
  283MOL0     H38174  10.373   8.891   0.977 -0.1872 -1.0320  0.8146
  283MOL0     H38175  10.395   8.831   0.754  1.0528  1.1340 -0.3431
  283MOL0     H38176  10.471   8.986   0.711  0.1963  1.7643  0.6901
  283MOL0     H38177  10.245   9.092   0.787  1.0507  0.6168 -0.7678
  283MOL0     H38178  10.192   8.953   0.851  1.3503 -1.2017  1.3892
  283MOL0     H38179  10.270   8.978   0.541 -0.2039  1.4634  1.3194
  283MOL0     H38180  10.190   8.845   0.634 -1.4095  0.9401  4.1599
  283MOL0     H38181   9.995   9.025   0.683  2.1082 -0.5611  1.5168
  283MOL0     H38182  10.012   8.944   0.521 -0.7476  0.9820  0.4493
  283MOL0     H38183  10.107   9.209   0.609 -0.1169 -1.0370  1.5547
  283MOL0     H38184  10.137   9.132   0.447 -0.0862 -1.0923  0.8185
  283MOL0     H38185  10.393   8.790   1.375 -0.0387  0.6670 -0.5429
  283MOL0     H38186  10.419   8.807   1.612 -1.5633  1.3574 -0.0967
  283MOL0     H38187  10.487   9.126   1.945 -0.2263  1.1256  1.3708
  283MOL0     H38188  10.509   9.219   2.154  0.8742  0.9998 -0.7375
  283MOL0     H38189  10.609   8.921   3.462 -1.3032  4.0186  0.4982
  283MOL0     H38190  10.695   8.696   3.567 -0.4722  0.6575 -0.7049
  283MOL0     H38191  10.748   8.431   3.909  1.2769  2.0868 -1.7757
  283MOL0     H38192  10.832   8.217   4.027 -1.8121  1.9803  1.1576
  283MOL0     H38193  11.262   8.177   4.048  2.0792 -1.7014  1.7721
  283MOL0     H38194  11.218   8.019   4.082 -0.2076  0.0747 -0.8130
  283MOL0     H38195  11.198   8.277   4.251  3.7927  0.3441  1.2005
  283MOL0     H38196  11.316   8.160   4.270 -0.1666 -1.5830  0.5535
  283MOL0     H38197  11.140   7.994   4.351 -1.5783  0.2130 -0.7722
  283MOL0     H38198  11.011   8.099   4.317 -0.2235  0.0810  0.3240
  283MOL0     H38199  11.160   8.079   4.567  1.5576  1.1594 -0.1043
  283MOL0     H38200  11.200   8.233   4.495 -1.6104  1.5010  0.0963
  283MOL0     H38201  10.845   8.362   4.622 -0.1305  0.6208 -0.9358
  283MOL0     H38202  11.221   8.325   3.909 -0.6502 -1.4257  1.0329
  283MOL0     H38203  11.182   8.517   3.690  0.3698 -1.0786  1.1786
  283MOL0     H38204  11.169   8.652   3.804  0.3216 -0.2839  2.3099
  283MOL0     H38205  11.278   8.507   3.838  0.2242  0.6919  0.8484
  284MOL0     O38206  10.093  11.524   4.531 -0.1597 -0.4058  1.1265
  284MOL0     C38207  10.148  11.448   4.606 -0.9416  0.8451 -0.5280
  284MOL0     O38208  10.081  11.337   4.667  0.6560 -0.2293  0.2071
  284MOL0     C38209   9.945  11.335   4.647 -0.5864 -0.8288  0.4060
  284MOL0     C38210   9.885  11.232   4.576 -0.4931  0.1634 -1.2195
  284MOL0     C38211   9.746  11.220   4.565 -0.1046 -0.0202  0.1502
  284MOL0     C38212   9.664  11.319   4.627 -0.4808 -0.5229 -0.5328
  284MOL0     O38213   9.535  11.319   4.631  0.5047 -1.3014  0.5649
  284MOL0     C38214   9.484  11.193   4.665  0.7913 -0.7143  0.8452
  284MOL0     C38215   9.377  11.144   4.572 -0.3865 -1.1443 -0.5572
  284MOL0     C38216   9.342  10.993   4.596  0.7672 -0.7081 -0.2462
  284MOL0     C38217   9.413  10.892   4.508 -0.2725 -0.4075  0.3393
  284MOL0     C38218   9.384  10.753   4.548 -1.2348 -0.0718  0.5551
  284MOL0     C38219   9.426  10.664   4.433  0.1444 -0.1952  0.2226
  284MOL0     C38220   9.371  10.518   4.473  1.2003  1.1600  0.9088
  284MOL0     C38221   9.412  10.423   4.360  0.4739  0.0009  0.3137
  284MOL0     N38222   9.329  10.437   4.235  0.2858  0.1579 -0.0037
  284MOL0     C38223   9.264  10.333   4.181  0.1620  0.1997  0.6708
  284MOL0     C38224   9.217  10.375   4.065  0.8237  0.2661  0.3123
  284MOL0     C38225   9.129  10.310   3.973  0.2260  0.0187  1.7288
  284MOL0     C38226   8.998  10.256   4.047 -0.6629 -0.0752 -0.4876
  284MOL0     C38227   8.903  10.177   3.959  0.3105  0.1191 -0.1837
  284MOL0     C38228   8.928  10.174   3.807  0.3907 -1.2350  0.5873
  284MOL0     O38229   8.930  10.301   3.752  0.4719 -0.5578  0.6414
  284MOL0     C38230   8.808  10.368   3.724 -0.1030 -0.1504  0.0041
  284MOL0     C38231   8.678  10.317   3.696 -0.9528 -0.2018 -0.9542
  284MOL0     C38232   8.562  10.402   3.675 -0.4196  0.1605 -0.3658
  284MOL0     C38233   8.591  10.543   3.691 -1.1212  0.0734  1.6312
  284MOL0     C38234   8.480  10.635   3.660  0.5473  1.0791 -0.2681
  284MOL0     O38235   8.362  10.580   3.618  0.1954  0.4316  0.1114
  284MOL0     C38236   8.250  10.656   3.639 -1.0160 -0.1136 -0.3108
  284MOL0     C38237   8.179  10.717   3.542  0.1115  0.1487  1.0284
  284MOL0     C38238   8.060  10.782   3.576  1.6655  0.1457 -1.0615
  284MOL0     C38239   8.019  10.792   3.711 -0.5023  0.3844 -0.1756
  284MOL0     O38240   7.899  10.858   3.734  0.6840  0.0988 -0.2847
  284MOL0     C38241   7.887  10.982   3.807 -0.0117  0.2322 -0.8708
  284MOL0     C38242   7.742  11.034   3.812 -0.0572 -0.0928 -0.5283
  284MOL0     C38243   7.737  11.167   3.897  0.1217  0.4452  0.3161
  284MOL0     C38244   7.750  11.280   3.802  1.1636  0.7193 -0.3160
  284MOL0     C38245   7.786  11.407   3.876  0.1960  0.6178 -0.5199
  284MOL0     C38246   7.816  11.517   3.776  0.0942 -0.5882 -0.1805
  284MOL0     C38247   7.829  11.646   3.859  0.1392 -0.7280  0.2509
  284MOL0     C38248   7.925  11.649   3.973 -0.1538 -0.7179 -0.3048
  284MOL0    Cl38249   8.096  11.609   3.936  0.2436 -0.0972 -0.2947
  284MOL0     C38250   8.091  10.725   3.807 -0.2496 -0.3289  0.4864
  284MOL0     C38251   8.206  10.658   3.778  0.0412 -0.1047  1.1865
  284MOL0     O38252   8.488  10.755   3.686 -0.4745 -0.1586  0.5325
  284MOL0     C38253   8.720  10.596   3.702  0.5596  0.0900 -0.0170
  284MOL0     C38254   8.822  10.509   3.728 -0.5298  0.8150  0.2565
  284MOL0     N38255   9.264  10.503   4.046 -0.5805  0.0434  0.2567
  284MOL0     N38256   9.333  10.541   4.149 -1.1477  0.2646 -1.3278
  284MOL0     C38257   9.732  11.421   4.700  0.4556  0.2360  0.6928
  284MOL0     C38258   9.866  11.427   4.719  0.3648 -0.3431 -0.3018
  284MOL0     C38259  10.296  11.456   4.638  0.0376 -0.6325  0.4680
  284MOL0     C38260  10.344  11.423   4.765  0.0523  0.4026  0.2568
  284MOL0     C38261  10.478  11.424   4.797 -0.6858 -0.3091 -0.0257
  284MOL0     C38262  10.578  11.473   4.708  0.7431 -0.0218  0.6950
  284MOL0     O38263  10.696  11.510   4.766 -0.0096 -0.0344 -0.0641
  284MOL0     C38264  10.766  11.623   4.716 -0.7190 -0.7013  1.0258
  284MOL0     C38265  10.681  11.749   4.726 -1.0695 -0.1543  0.7888
  284MOL0     C38266  10.775  11.871   4.711 -1.4108 -0.2822 -0.5999
  284MOL0     C38267  10.854  11.909   4.584 -0.2494  0.4147 -0.7271
  284MOL0     C38268  10.920  12.043   4.600  0.0785 -0.1032  0.2681
  284MOL0     C38269  10.954  12.159   4.598 -0.3560  0.0835  0.3130
  284MOL0     C38270  10.526  11.512   4.575 -0.0030  1.0634  0.1637
  284MOL0     C38271  10.387  11.503   4.538  0.3132  0.0037  1.1420
  284MOL0     C38272  10.347  11.547   4.401 -0.4654  0.1659  0.1705
  284MOL0     H38273   9.938  11.155   4.521 -2.4950 -0.8527 -1.8581
  284MOL0     H38274   9.704  11.135   4.511 -1.5114 -0.0256  1.1976
  284MOL0     H38275   9.562  11.117   4.673  1.3955 -0.0130  1.8742
  284MOL0     H38276   9.438  11.209   4.763 -0.7943  1.3247 -0.1634
  284MOL0     H38277   9.405  11.168   4.469  2.0311 -2.3782 -0.2509
  284MOL0     H38278   9.289  11.207   4.590  1.3550  2.1472 -2.5664
  284MOL0     H38279   9.234  10.983   4.580 -0.3015  2.4771  3.3060
  284MOL0     H38280   9.371  10.969   4.699  0.5564 -0.9925 -0.2521
  284MOL0     H38281   9.377  10.899   4.405  1.3493 -2.6107 -0.4609
  284MOL0     H38282   9.520  10.915   4.508 -0.6244  1.6512 -2.4036
  284MOL0     H38283   9.445  10.736   4.638  0.3827  0.0153 -0.4866
  284MOL0     H38284   9.277  10.746   4.568 -1.4764  0.3822 -0.5363
  284MOL0     H38285   9.384  10.688   4.335  0.9011 -1.2763 -0.3825
  284MOL0     H38286   9.535  10.662   4.428  0.3029  3.7926 -0.6195
  284MOL0     H38287   9.264  10.500   4.465  1.8932 -4.7419 -0.1409
  284MOL0     H38288   9.419  10.480   4.564  2.6863 -0.1528 -0.3463
  284MOL0     H38289   9.517  10.447   4.344 -0.0380  1.8533 -0.5754
  284MOL0     H38290   9.398  10.319   4.392  0.2577 -0.6489 -1.7315
  284MOL0     H38291   9.248  10.239   4.232  0.9842  1.5571  3.6454
  284MOL0     H38292   9.116  10.384   3.893  0.4288 -0.9803  0.7519
  284MOL0     H38293   9.173  10.219   3.930 -1.3811  0.4828 -1.1918
  284MOL0     H38294   9.029  10.198   4.135  0.2168 -1.6409 -1.7958
  284MOL0     H38295   8.954  10.345   4.094  2.7205  1.1697  0.6318
  284MOL0     H38296   8.801  10.210   3.977  0.6810  1.1650  0.1140
  284MOL0     H38297   8.903  10.076   3.999 -1.0570  0.6424  1.2253
  284MOL0     H38298   8.851  10.111   3.761 -0.6514  0.9413 -0.8105
  284MOL0     H38299   9.027  10.127   3.798  1.0048 -1.3739  5.5538
  284MOL0     H38300   8.686  10.209   3.686  2.3223 -0.0391 -1.1858
  284MOL0     H38301   8.466  10.363   3.640 -0.4268 -1.8698  1.6870
  284MOL0     H38302   8.223  10.717   3.443  0.5446  2.9698  1.1263
  284MOL0     H38303   8.006  10.828   3.495  1.4923 -3.0716 -2.9525
  284MOL0     H38304   7.935  10.977   3.905  0.0933 -3.6833 -0.9303
  284MOL0     H38305   7.944  11.058   3.754  0.7919 -0.4539 -1.0143
  284MOL0     H38306   7.708  11.056   3.710 -0.9439  0.5072 -0.1145
  284MOL0     H38307   7.680  10.959   3.863  3.4785 -1.1452  2.6511
  284MOL0     H38308   7.637  11.178   3.940 -0.7479  2.6616 -2.0000
  284MOL0     H38309   7.819  11.162   3.969  2.8169  2.5357 -2.3475
  284MOL0     H38310   7.661  11.290   3.739  2.6458 -0.8817 -2.8556
  284MOL0     H38311   7.829  11.252   3.731  0.8648 -1.0398 -0.0106
  284MOL0     H38312   7.876  11.375   3.930 -1.1841 -0.6123  1.1920
  284MOL0     H38313   7.708  11.432   3.949 -1.1290 -0.3259 -1.5584
  284MOL0     H38314   7.911  11.489   3.731  0.8122  0.7287  0.4514
  284MOL0     H38315   7.732  11.530   3.706 -0.2360  1.2715  0.4951
  284MOL0     H38316   7.729  11.662   3.902 -0.4921  0.8209 -1.6280
  284MOL0     H38317   7.857  11.731   3.796  1.2004  1.0581  2.9609
  284MOL0     H38318   7.937  11.751   4.013  1.4418  0.4801 -3.4934
  284MOL0     H38319   7.883  11.589   4.055 -0.4215  2.8767  2.4743
  284MOL0     H38320   8.068  10.750   3.910 -1.2165  3.1200 -0.4156
  284MOL0     H38321   8.263  10.609   3.856 -1.9187  1.4774  3.7721
  284MOL0     H38322   8.749  10.700   3.706 -1.0813  0.5462  2.3714
  284MOL0     H38323   8.925  10.541   3.730  0.7716 -2.5138 -2.5403
  284MOL0     H38324   9.667  11.498   4.740 -1.8123 -0.4654 -1.3592
  284MOL0     H38325   9.907  11.504   4.784 -2.4263  1.4745 -0.5024
  284MOL0     H38326  10.272  11.391   4.840 -1.1345 -0.2897 -1.1266
  284MOL0     H38327  10.509  11.403   4.899 -1.9167 -3.0379 -0.1077
  284MOL0     H38328  10.795  11.615   4.611  1.1285  4.7069  0.8425
  284MOL0     H38329  10.862  11.630   4.768 -0.3337 -3.2277  0.8063
  284MOL0     H38330  10.631  11.745   4.822 -3.3984  1.2092 -0.2995
  284MOL0     H38331  10.610  11.744   4.643 -0.6551 -4.3771  0.4404
  284MOL0     H38332  10.855  11.861   4.786 -1.6524  2.6843  0.1852
  284MOL0     H38333  10.716  11.958   4.743 -1.1929 -0.4284  0.2259
  284MOL0     H38334  10.935  11.837   4.565  1.7092  1.4745  2.6508
  284MOL0     H38335  10.792  11.900   4.495  1.4264  0.1255 -1.9148
  284MOL0     H38336  10.976  12.258   4.632 -2.6233  0.8648 -0.3235
  284MOL0     H38337  10.595  11.572   4.517  2.0749 -0.8118  0.5778
  284MOL0     H38338  10.272  11.480   4.358 -1.2945  1.4230 -0.4148
  284MOL0     H38339  10.306  11.649   4.397 -2.0963 -0.4726 -2.1458
  284MOL0     H38340  10.430  11.548   4.330 -0.4589  3.1802  0.0762
  285MOL0     O38341   2.151   6.358   8.236 -0.2934  0.2345  0.5587
  285MOL0     C38342   2.066   6.287   8.277 -0.1671  0.3378 -0.2680
  285MOL0     O38343   2.102   6.182   8.360  0.1077  0.3162 -0.3681
  285MOL0     C38344   2.004   6.092   8.392 -0.3187  1.2570  1.2941
  285MOL0     C38345   1.910   6.115   8.483  0.1494 -0.8861 -0.1282
  285MOL0     C38346   1.802   6.041   8.522 -0.3346 -0.0993  0.9092
  285MOL0     C38347   1.799   5.915   8.460  0.7113 -0.5952 -0.3749
  285MOL0     O38348   1.700   5.832   8.471 -0.1466  1.1265 -0.5923
  285MOL0     C38349   1.567   5.876   8.506 -0.5346 -0.5921 -0.0167
  285MOL0     C38350   1.517   5.986   8.397  0.9594  0.3812  0.0490
  285MOL0     C38351   1.532   5.943   8.249 -0.4744  0.6850 -0.3787
  285MOL0     C38352   1.439   6.033   8.162  0.2276  0.5129  0.1119
  285MOL0     C38353   1.415   5.974   8.016 -0.8009  0.3461  0.1472
  285MOL0     C38354   1.318   5.853   8.010  0.7069 -0.6354 -1.0242
  285MOL0     C38355   1.370   5.717   7.962 -0.0674 -1.0817  0.4234
  285MOL0     C38356   1.281   5.666   7.853 -0.5813  0.1590  0.5317
  285MOL0     N38357   1.341   5.663   7.717 -0.2917  0.4581  0.2329
  285MOL0     C38358   1.456   5.604   7.672 -0.0609  0.5587 -0.2898
  285MOL0     C38359   1.489   5.660   7.554  0.6209 -0.1210 -0.3061
  285MOL0     C38360   1.611   5.641   7.486 -0.7457  0.3884  1.1204
  285MOL0     C38361   1.615   5.508   7.427 -0.3221  0.0808 -0.4996
  285MOL0     C38362   1.758   5.452   7.410 -0.3231  0.3521 -0.9145
  285MOL0     C38363   1.763   5.305   7.355  0.9481 -0.2615 -0.3178
  285MOL0     O38364   1.898   5.257   7.362 -0.6998 -0.6072 -0.2677
  285MOL0     C38365   1.959   5.222   7.482  0.6625 -0.7799 -1.0494
  285MOL0     C38366   1.889   5.219   7.608 -0.7834 -0.4617  0.6789
  285MOL0     C38367   1.948   5.163   7.713 -0.1905  0.0913 -0.2347
  285MOL0     C38368   2.088   5.137   7.717 -0.7515  0.8546 -0.9604
  285MOL0     C38369   2.157   5.072   7.833 -0.3997 -0.5608 -0.0495
  285MOL0     O38370   2.083   5.042   7.937  0.7894 -0.0763 -0.1089
  285MOL0     C38371   2.142   4.996   8.045  0.4134 -0.3611  0.0531
  285MOL0     C38372   2.199   4.866   8.059 -0.5893  0.0405 -0.0337
  285MOL0     C38373   2.263   4.823   8.177  0.3854 -0.7548 -0.1830
  285MOL0     C38374   2.255   4.897   8.293 -0.3633  1.3685 -0.4795
  285MOL0     O38375   2.301   4.861   8.428 -0.5305  0.6002 -0.2375
  285MOL0     C38376   2.357   4.729   8.448  0.8443 -0.1207  0.3999
  285MOL0     C38377   2.369   4.695   8.593 -0.5455  0.6340 -1.0439
  285MOL0     C38378   2.468   4.590   8.649  0.1778 -0.2607 -0.9081
  285MOL0     C38379   2.437   4.448   8.607  0.6210  0.0041 -0.5378
  285MOL0     C38380   2.541   4.356   8.661  0.3834 -0.1842  0.4647
  285MOL0     C38381   2.526   4.209   8.623  0.1530 -1.4635 -0.8095
  285MOL0     C38382   2.547   4.177   8.464  0.4014  0.7796 -0.0954
  285MOL0     C38383   2.674   4.106   8.441 -0.9262 -0.1851 -0.0346
  285MOL0    Cl38384   2.696   3.953   8.532 -0.1182 -0.1611  0.1532
  285MOL0     C38385   2.195   5.030   8.279 -0.4356  0.4192  0.6885
  285MOL0     C38386   2.149   5.076   8.157  0.1265 -0.4282 -1.1625
  285MOL0     O38387   2.271   5.038   7.817 -0.4430 -0.8748  0.2012
  285MOL0     C38388   2.167   5.155   7.600  0.0169 -0.0601  0.1420
  285MOL0     C38389   2.104   5.201   7.482  0.4147  0.7392  0.6193
  285MOL0     N38390   1.384   5.739   7.525  0.9073 -0.2772 -0.0957
  285MOL0     N38391   1.293   5.745   7.620 -0.3906  0.0148  0.4808
  285MOL0     C38392   1.897   5.878   8.369 -0.7108  0.9385 -0.2015
  285MOL0     C38393   2.001   5.964   8.331  0.4799 -0.5241 -0.6109
  285MOL0     C38394   1.929   6.320   8.218  0.1888  0.0774 -0.1870
  285MOL0     C38395   1.878   6.230   8.121 -1.1268  0.0272  1.0362
  285MOL0     C38396   1.753   6.248   8.066 -0.2638 -0.2902  0.1530
  285MOL0     C38397   1.673   6.361   8.098 -0.0662 -0.8522 -0.4691
  285MOL0     O38398   1.553   6.391   8.045 -0.4521 -0.1513  0.1745
  285MOL0     C38399   1.541   6.384   7.908 -1.0591  0.6020 -0.0275
  285MOL0     C38400   1.496   6.498   7.828  0.7455  0.8327 -0.3975
  285MOL0     C38401   1.564   6.625   7.860 -0.0217  0.2373  0.1719
  285MOL0     C38402   1.535   6.731   7.755 -0.7919 -0.6760  0.0629
  285MOL0     C38403   1.637   6.837   7.760 -0.0387 -0.3764  0.4333
  285MOL0     C38404   1.715   6.935   7.770  0.1606  1.0799 -0.0476
  285MOL0     C38405   1.724   6.455   8.197  0.2050  0.1967 -0.0156
  285MOL0     C38406   1.846   6.430   8.257  1.0715 -0.1493 -0.0369
  285MOL0     C38407   1.885   6.524   8.366  0.8034 -0.4063  0.6316
  285MOL0     H38408   1.919   6.212   8.532  0.4550 -1.7148  1.5449
  285MOL0     H38409   1.733   6.095   8.586 -0.8162  4.0994 -2.6787
  285MOL0     H38410   1.510   5.782   8.507  1.1854 -1.6948  0.5827
  285MOL0     H38411   1.569   5.920   8.606  1.7793 -0.9304  0.1409
  285MOL0     H38412   1.575   6.077   8.418  3.6187 -0.9217 -1.2195
  285MOL0     H38413   1.411   6.010   8.408  0.2344 -2.1791 -0.7806
  285MOL0     H38414   1.498   5.839   8.255 -1.8694  1.1871  3.2146
  285MOL0     H38415   1.637   5.956   8.221 -0.4496  0.4206 -0.4134
  285MOL0     H38416   1.335   6.033   8.197 -0.6755  0.5904 -2.3935
  285MOL0     H38417   1.479   6.135   8.157  2.6258 -0.3969 -1.0204
  285MOL0     H38418   1.389   6.050   7.942  3.2922  0.1660 -1.7401
  285MOL0     H38419   1.515   5.945   7.982 -1.0131 -2.5587  1.6863
  285MOL0     H38420   1.270   5.844   8.108 -0.4500  0.6066 -1.4386
  285MOL0     H38421   1.244   5.903   7.947 -2.5571 -1.3221  1.9306
  285MOL0     H38422   1.380   5.649   8.048  1.7686 -0.4735  0.7390
  285MOL0     H38423   1.471   5.728   7.923  0.1092  0.2978  1.2119
  285MOL0     H38424   1.263   5.560   7.872  2.6431 -0.2179  2.1235
  285MOL0     H38425   1.182   5.711   7.845 -0.4450  0.2046 -1.5481
  285MOL0     H38426   1.534   5.541   7.713  2.2621  1.3233 -3.2039
  285MOL0     H38427   1.636   5.721   7.416 -0.9691  0.6935  1.3884
  285MOL0     H38428   1.695   5.648   7.555 -0.0621 -0.6503  0.4168
  285MOL0     H38429   1.561   5.440   7.493 -0.5226  0.7282  0.0178
  285MOL0     H38430   1.559   5.521   7.334 -2.0607  3.2457  0.8269
  285MOL0     H38431   1.799   5.454   7.512 -1.6904  0.9404 -0.3493
  285MOL0     H38432   1.825   5.508   7.344  0.4683  1.5691  0.8519
  285MOL0     H38433   1.725   5.305   7.253 -1.5647 -0.1273  0.5681
  285MOL0     H38434   1.706   5.229   7.408  2.3541 -1.3114 -0.2286
  285MOL0     H38435   1.782   5.234   7.615 -0.3756  2.1904  3.4125
  285MOL0     H38436   1.888   5.156   7.804  1.0561 -0.1273  0.5992
  285MOL0     H38437   2.202   4.788   7.982 -0.8187 -1.1390  1.1152
  285MOL0     H38438   2.306   4.723   8.175 -0.1296 -1.1487  2.8079
  285MOL0     H38439   2.291   4.657   8.399 -2.0280  0.4747  3.0714
  285MOL0     H38440   2.459   4.730   8.408  1.2345  1.0117  1.3607
  285MOL0     H38441   2.409   4.784   8.641  2.6325 -0.2636 -1.7577
  285MOL0     H38442   2.271   4.672   8.636 -0.7996  0.6697 -1.6061
  285MOL0     H38443   2.565   4.621   8.607  1.6150  1.0657  2.9380
  285MOL0     H38444   2.479   4.597   8.757  0.1739  1.4426 -0.9900
  285MOL0     H38445   2.435   4.436   8.498  0.5305  1.8098 -0.7730
  285MOL0     H38446   2.336   4.427   8.643  0.3402 -0.2907 -1.4652
  285MOL0     H38447   2.537   4.347   8.770  2.7798 -3.8212  0.4312
  285MOL0     H38448   2.642   4.381   8.630  1.2599  0.6641  3.6363
  285MOL0     H38449   2.608   4.164   8.679 -0.3977  0.0669  1.3445
  285MOL0     H38450   2.425   4.180   8.653 -0.1567  0.7361  0.4909
  285MOL0     H38451   2.523   4.268   8.408 -1.0883  0.4330 -0.0419
  285MOL0     H38452   2.477   4.102   8.428  0.8906  0.8974 -1.3343
  285MOL0     H38453   2.682   4.078   8.335  4.0270  0.7281 -0.1412
  285MOL0     H38454   2.752   4.177   8.470 -1.1054 -0.4640  1.1805
  285MOL0     H38455   2.151   5.078   8.366 -3.1811  0.1204 -0.4493
  285MOL0     H38456   2.115   5.177   8.139 -1.2308 -0.4977  0.7103
  285MOL0     H38457   2.267   5.114   7.602 -0.4020 -1.1086  0.0067
  285MOL0     H38458   2.155   5.198   7.386  2.1951 -0.9251  1.5539
  285MOL0     H38459   1.903   5.782   8.318  1.3929  1.4701 -1.0762
  285MOL0     H38460   2.063   5.928   8.249  1.6620 -2.3772  0.9870
  285MOL0     H38461   1.937   6.155   8.070  0.7828  1.4545  1.0714
  285MOL0     H38462   1.725   6.180   7.986 -0.4268 -1.2494  1.0049
  285MOL0     H38463   1.470   6.306   7.882 -0.4383  0.9854 -3.3975
  285MOL0     H38464   1.641   6.365   7.866  0.0813  4.4373  0.5474
  285MOL0     H38465   1.389   6.504   7.851  1.2724  2.1750  2.0403
  285MOL0     H38466   1.524   6.465   7.728 -1.7252  0.3368 -0.9735
  285MOL0     H38467   1.668   6.593   7.849 -0.3325 -1.6929  2.3419
  285MOL0     H38468   1.542   6.663   7.960 -1.2445  0.3213 -0.1048
  285MOL0     H38469   1.522   6.676   7.661  1.3539 -2.3714  0.6763
  285MOL0     H38470   1.440   6.782   7.773  0.0078 -0.0193  2.8712
  285MOL0     H38471   1.786   7.011   7.793  1.8820 -1.1311  2.7030
  285MOL0     H38472   1.667   6.546   8.214 -1.1394 -0.4566 -0.7868
  285MOL0     H38473   1.809   6.598   8.393  1.5064  0.3792  0.4951
  285MOL0     H38474   1.930   6.472   8.452  0.6016  0.8378  1.5261
  285MOL0     H38475   1.957   6.592   8.319 -1.0304 -0.0718 -1.8942
  286MOL0     O38476   3.745   1.501   2.487  0.3031 -0.1372 -0.1312
  286MOL0     C38477   3.853   1.462   2.432  0.8583 -0.3379 -0.0042
  286MOL0     O38478   3.889   1.339   2.392  0.2590 -0.1774  0.1851
  286MOL0     C38479   3.796   1.243   2.413 -0.4598  0.2051 -0.8237
  286MOL0     C38480   3.839   1.139   2.492 -0.4367  1.1234 -0.1107
  286MOL0     C38481   3.748   1.061   2.562 -0.1352 -0.1521  0.5809
  286MOL0     C38482   3.611   1.065   2.531 -0.6364 -0.7212  0.1369
  286MOL0     O38483   3.534   0.971   2.598 -0.2676  0.6159  0.8021
  286MOL0     C38484   3.395   0.972   2.568  0.2836 -0.0240 -0.0160
  286MOL0     C38485   3.328   0.879   2.673  0.0749  0.8572  0.7450
  286MOL0     C38486   3.187   0.825   2.625 -0.2355 -1.1355  0.2416
  286MOL0     C38487   3.182   0.697   2.530  0.2911 -0.1800  0.1905
  286MOL0     C38488   3.187   0.562   2.600 -0.1594 -0.2474  1.4879
  286MOL0     C38489   3.332   0.545   2.667 -0.1703  0.9600 -0.1901
  286MOL0     C38490   3.374   0.408   2.711  0.1507  0.3247 -0.0226
  286MOL0     C38491   3.278   0.323   2.790 -0.1265 -1.0974  0.1457
  286MOL0     N38492   3.340   0.200   2.842 -0.1044  0.4476 -1.0176
  286MOL0     C38493   3.325   0.071   2.795  0.1470 -0.0551 -1.5542
  286MOL0     C38494   3.404   0.000   2.868  0.3394 -0.2142 -0.0492
  286MOL0     C38495   3.415  -0.152   2.844  0.2045 -0.8682  0.9380
  286MOL0     C38496   3.484  -0.176   2.709 -0.9305  0.7789  0.2530
  286MOL0     C38497   3.510  -0.318   2.678 -0.2032  0.4078  0.4656
  286MOL0     C38498   3.614  -0.391   2.766 -0.3705 -0.5484  0.3347
  286MOL0     O38499   3.666  -0.516   2.715  0.1569 -0.1225 -0.0505
  286MOL0     C38500   3.580  -0.629   2.707 -0.8182  0.0985 -0.4743
  286MOL0     C38501   3.634  -0.740   2.639 -0.4418 -0.3527 -1.2671
  286MOL0     C38502   3.551  -0.853   2.633 -0.1988  0.0622 -0.4693
  286MOL0     C38503   3.422  -0.855   2.687  0.5008  0.5181  0.4662
  286MOL0     C38504   3.327  -0.961   2.656 -0.6817 -0.2255 -0.5883
  286MOL0     O38505   3.196  -0.939   2.682  0.2061 -0.2408  0.0772
  286MOL0     C38506   3.120  -1.046   2.682  1.1740  1.2319 -0.2782
  286MOL0     C38507   3.081  -1.111   2.808 -0.3265  0.6332  0.1054
  286MOL0     C38508   3.012  -1.235   2.805 -0.3657  0.7826 -0.0752
  286MOL0     C38509   2.979  -1.293   2.679  0.1532 -0.2585 -1.0161
  286MOL0     O38510   2.923  -1.417   2.676 -0.4272 -0.2684 -0.3786
  286MOL0     C38511   2.781  -1.422   2.706 -0.8868  0.3365 -0.2893
  286MOL0     C38512   2.705  -1.411   2.573  0.3777  0.4017  0.5088
  286MOL0     C38513   2.545  -1.428   2.573 -0.1629 -1.0335  0.5220
  286MOL0     C38514   2.496  -1.571   2.625  0.1548  0.4222  0.2459
  286MOL0     C38515   2.538  -1.684   2.537  0.0215 -0.1415  0.3651
  286MOL0     C38516   2.468  -1.808   2.556  0.8619  0.4994  0.1766
  286MOL0     C38517   2.532  -1.934   2.482  0.0507  0.1351 -0.8170
  286MOL0     C38518   2.510  -2.072   2.561 -0.0275 -0.3160 -1.0299
  286MOL0    Cl38519   2.669  -2.162   2.543  0.1037  0.4697  0.2307
  286MOL0     C38520   3.010  -1.226   2.567  0.5931 -0.2933  0.3078
  286MOL0     C38521   3.085  -1.104   2.556 -0.3971  0.7416 -0.9066
  286MOL0     O38522   3.372  -1.068   2.621  0.4604  0.3449 -0.2240
  286MOL0     C38523   3.381  -0.750   2.766  0.7990  0.8472  0.6220
  286MOL0     C38524   3.459  -0.641   2.780  0.0095 -0.1516 -0.3141
  286MOL0     N38525   3.464   0.082   2.976 -1.0392  0.1004  1.1774
  286MOL0     N38526   3.413   0.203   2.963 -0.7304 -0.5405  0.2862
  286MOL0     C38527   3.568   1.150   2.430 -0.7532 -0.1930  0.0947
  286MOL0     C38528   3.656   1.244   2.387 -0.0875  0.4889  0.1999
  286MOL0     C38529   3.954   1.565   2.447 -0.3295  0.1073  0.9012
  286MOL0     C38530   3.962   1.638   2.562 -0.0317 -0.1878  0.1879
  286MOL0     C38531   4.048   1.748   2.579 -0.1872  0.3194  0.1833
  286MOL0     C38532   4.152   1.769   2.486 -0.5215 -0.5134  0.9650
  286MOL0     O38533   4.240   1.874   2.524 -0.0549 -0.0398  0.4755
  286MOL0     C38534   4.319   1.939   2.426 -0.4994  0.4196  0.4718
  286MOL0     C38535   4.372   2.076   2.476  0.2681  1.1002 -0.3263
  286MOL0     C38536   4.267   2.187   2.498 -0.6759 -0.2795 -0.2437
  286MOL0     C38537   4.155   2.158   2.598  0.5409  0.5048 -0.4743
  286MOL0     C38538   4.206   2.142   2.735 -0.1611  1.2476  0.2422
  286MOL0     C38539   4.225   2.112   2.853  0.4969  0.0167 -0.3235
  286MOL0     C38540   4.165   1.683   2.381 -0.5621 -0.7982 -0.3678
  286MOL0     C38541   4.064   1.585   2.352  0.4308  0.5859  0.0249
  286MOL0     C38542   4.087   1.520   2.219 -0.3018  0.6169 -0.1309
  286MOL0     H38543   3.945   1.124   2.510 -1.0647 -3.2963  1.1073
  286MOL0     H38544   3.788   0.988   2.631 -0.5935  0.4846  1.5461
  286MOL0     H38545   3.341   1.068   2.563 -0.2690 -0.3822 -1.1736
  286MOL0     H38546   3.382   0.912   2.478 -2.8730  1.3207 -0.5960
  286MOL0     H38547   3.325   0.932   2.768  0.6172  1.4453  0.4418
  286MOL0     H38548   3.396   0.793   2.677 -0.0740 -0.0283 -5.5513
  286MOL0     H38549   3.125   0.900   2.574  0.0979 -1.5353 -0.7723
  286MOL0     H38550   3.137   0.798   2.718  0.4811 -0.8471  0.7190
  286MOL0     H38551   3.102   0.686   2.457  2.7212 -3.5789 -2.2722
  286MOL0     H38552   3.272   0.708   2.469  0.3875  0.7768  0.4882
  286MOL0     H38553   3.110   0.546   2.676 -0.8306  0.1504  0.9095
  286MOL0     H38554   3.170   0.499   2.512 -0.7094  0.5051  1.0371
  286MOL0     H38555   3.412   0.592   2.609 -1.5201  0.7872 -2.3415
  286MOL0     H38556   3.342   0.608   2.756  1.8107 -0.0089  0.3310
  286MOL0     H38557   3.462   0.419   2.775 -0.3826 -1.8186  1.1823
  286MOL0     H38558   3.410   0.350   2.625 -0.6159 -1.7513  0.9804
  286MOL0     H38559   3.252   0.396   2.867  0.1481 -1.2035  0.3401
  286MOL0     H38560   3.196   0.293   2.725 -0.2783  0.9297 -0.6756
  286MOL0     H38561   3.254   0.045   2.718 -0.7686  1.3352 -1.2276
  286MOL0     H38562   3.487  -0.194   2.915 -0.2740  0.5042  2.3127
  286MOL0     H38563   3.316  -0.197   2.851  0.4918 -1.5325  0.7653
  286MOL0     H38564   3.437  -0.125   2.625 -1.4545 -1.2920 -0.7727
  286MOL0     H38565   3.576  -0.119   2.725 -0.3481  1.1311 -3.4565
  286MOL0     H38566   3.553  -0.328   2.578 -1.4032  0.5177 -0.0863
  286MOL0     H38567   3.418  -0.377   2.683 -0.0270 -0.0695 -1.1813
  286MOL0     H38568   3.561  -0.406   2.860 -2.8604  1.9776 -0.5513
  286MOL0     H38569   3.698  -0.321   2.773 -1.5012  1.4834 -3.4511
  286MOL0     H38570   3.722  -0.750   2.576  2.3897 -2.4705  2.5938
  286MOL0     H38571   3.574  -0.930   2.561  0.0277 -0.6765  0.3732
  286MOL0     H38572   3.108  -1.069   2.904  0.2368  2.9102 -0.9882
  286MOL0     H38573   2.990  -1.279   2.902 -0.9271 -3.2801 -1.8412
  286MOL0     H38574   2.761  -1.518   2.753  3.3994 -0.9201 -0.5988
  286MOL0     H38575   2.748  -1.341   2.772  3.3651  1.5865  0.6323
  286MOL0     H38576   2.723  -1.323   2.509 -1.1569 -0.5654 -1.3528
  286MOL0     H38577   2.746  -1.495   2.517  1.8743 -0.1398  2.3167
  286MOL0     H38578   2.491  -1.353   2.631 -0.6195 -1.5679  0.7966
  286MOL0     H38579   2.511  -1.408   2.471 -0.0511  1.1907  0.8734
  286MOL0     H38580   2.388  -1.567   2.641  0.2395 -1.2046  1.5016
  286MOL0     H38581   2.548  -1.581   2.720  2.6033 -2.1989 -1.2204
  286MOL0     H38582   2.646  -1.689   2.553  0.4823 -1.1817 -2.4131
  286MOL0     H38583   2.534  -1.664   2.429  1.8564  0.5097  0.3694
  286MOL0     H38584   2.474  -1.842   2.660 -0.3380  0.3569  0.2189
  286MOL0     H38585   2.363  -1.810   2.526  1.0648 -0.2315 -0.5404
  286MOL0     H38586   2.638  -1.915   2.463 -0.5358  2.2545 -2.4257
  286MOL0     H38587   2.477  -1.928   2.388 -0.1832  1.3871 -0.6293
  286MOL0     H38588   2.505  -2.062   2.670  0.0915 -0.7614 -0.9783
  286MOL0     H38589   2.432  -2.144   2.534 -2.2408  2.2903 -1.9070
  286MOL0     H38590   2.986  -1.271   2.471  0.1190 -1.8566  1.1296
  286MOL0     H38591   3.112  -1.054   2.464  2.2471  0.7665 -0.1914
  286MOL0     H38592   3.299  -0.772   2.834  2.4905 -2.8555  1.7557
  286MOL0     H38593   3.425  -0.562   2.846  2.9660  0.3266  0.8118
  286MOL0     H38594   3.461   1.151   2.412 -1.1621 -1.4271  2.1125
  286MOL0     H38595   3.626   1.319   2.314 -0.8593 -0.5593 -0.5969
  286MOL0     H38596   3.891   1.630   2.644 -0.0052  1.7244  0.4277
  286MOL0     H38597   4.057   1.811   2.666  0.4052  2.3821 -1.2878
  286MOL0     H38598   4.264   1.947   2.332 -2.7820  0.3541  1.7511
  286MOL0     H38599   4.408   1.882   2.398 -1.0613 -0.4113  0.3433
  286MOL0     H38600   4.443   2.121   2.405 -1.9547  2.2844 -1.9084
  286MOL0     H38601   4.425   2.066   2.572  2.6854 -0.0404 -1.6809
  286MOL0     H38602   4.232   2.223   2.400 -1.1585 -1.8659 -0.6816
  286MOL0     H38603   4.307   2.281   2.537 -2.5768  1.3872 -2.0355
  286MOL0     H38604   4.080   2.237   2.589 -0.1610 -0.1204 -0.1376
  286MOL0     H38605   4.091   2.077   2.563 -1.4372  1.5860  0.4754
  286MOL0     H38606   4.235   2.072   2.952  0.2864  1.1048  0.1590
  286MOL0     H38607   4.253   1.685   2.318  0.3130  1.1699  0.7843
  286MOL0     H38608   4.167   1.445   2.220  1.4800  2.4247 -1.1469
  286MOL0     H38609   3.998   1.462   2.191  0.5913 -2.0841  2.1453
  286MOL0     H38610   4.114   1.600   2.149  0.6128 -0.8865 -1.5861
  287MOL0     O38611   3.068   8.061   9.910  0.0138  0.1414 -0.3464
  287MOL0     C38612   2.958   8.005   9.943  0.2197 -0.9288  0.8987
  287MOL0     O38613   2.903   7.997  10.066 -0.6949 -0.1122 -0.5592
  287MOL0     C38614   2.965   8.079  10.155 -0.3156  1.0574 -0.6386
  287MOL0     C38615   3.084   8.063  10.212  0.0849  0.2334 -0.0135
  287MOL0     C38616   3.143   8.156  10.298 -0.6394 -0.3191 -0.1919
  287MOL0     C38617   3.071   8.280  10.336  0.0531 -0.2278  0.5438
  287MOL0     O38618   3.132   8.375  10.422  0.8544  0.3452  0.3009
  287MOL0     C38619   3.059   8.491  10.448 -0.1456  0.1041 -0.0584
  287MOL0     C38620   3.160   8.569  10.528  0.4870  0.2394 -0.4383
  287MOL0     C38621   3.177   8.491  10.660  1.0384  0.3270  0.2684
  287MOL0     C38622   3.287   8.536  10.756 -0.9179 -0.5186 -0.5059
  287MOL0     C38623   3.288   8.450  10.876 -0.2357  0.8780 -0.9242
  287MOL0     C38624   3.368   8.502  10.997  0.0437 -0.2331  0.3065
  287MOL0     C38625   3.516   8.549  10.964  0.3408  0.7328  0.4752
  287MOL0     C38626   3.547   8.692  10.935 -0.7081  0.2808 -0.0863
  287MOL0     N38627   3.503   8.761  11.053  0.9367 -0.1338 -0.3035
  287MOL0     C38628   3.541   8.742  11.185 -1.0666  0.0086 -0.0356
  287MOL0     C38629   3.475   8.824  11.260  0.3015 -0.5689 -0.4004
  287MOL0     C38630   3.480   8.838  11.411  0.3724 -0.3824  0.1063
  287MOL0     C38631   3.512   8.708  11.472 -0.3650  0.0003 -0.1923
  287MOL0     C38632   3.459   8.688  11.613  0.7201  0.7176 -0.1329
  287MOL0     C38633   3.493   8.553  11.675 -0.2390  0.4171 -0.1129
  287MOL0     O38634   3.411   8.460  11.609  0.4572  0.3349 -0.3651
  287MOL0     C38635   3.385   8.345  11.681 -0.1160  0.0382  0.8210
  287MOL0     C38636   3.262   8.283  11.667 -0.2540 -0.7815 -0.8517
  287MOL0     C38637   3.229   8.158  11.714 -0.5286 -0.4784 -0.3824
  287MOL0     C38638   3.324   8.084  11.777 -0.0105  0.0423 -0.7291
  287MOL0     C38639   3.289   7.944  11.825  0.0264  0.0647  0.3307
  287MOL0     O38640   3.183   7.900  11.748  0.4594 -0.5196  0.0071
  287MOL0     C38641   3.138   7.772  11.768 -0.4020  0.0401  0.3632
  287MOL0     C38642   3.124   7.687  11.653 -0.3955  0.0882  1.1633
  287MOL0     C38643   3.079   7.558  11.668 -0.2601  0.1019 -0.1866
  287MOL0     C38644   3.053   7.506  11.801  0.5540 -0.0835  1.2307
  287MOL0     O38645   3.021   7.375  11.806 -0.4725 -0.7322  0.2766
  287MOL0     C38646   2.913   7.328  11.881  0.1935  0.1785 -0.1053
  287MOL0     C38647   2.780   7.376  11.838  0.3037 -1.2306  0.4551
  287MOL0     C38648   2.660   7.312  11.911  0.1415 -0.4219 -0.0658
  287MOL0     C38649   2.669   7.289  12.061 -0.5017  0.0475  0.2268
  287MOL0     C38650   2.541   7.246  12.131  0.3894  0.5479  0.3920
  287MOL0     C38651   2.504   7.098  12.105  0.9667 -1.6220  0.2208
  287MOL0     C38652   2.618   7.000  12.136  0.2604  0.3983  0.6934
  287MOL0     C38653   2.559   6.858  12.159 -0.0315 -0.2681 -0.7382
  287MOL0    Cl38654   2.484   6.785  12.009 -0.1048 -0.1135 -0.0690
  287MOL0     C38655   3.065   7.591  11.913 -0.5001 -0.2191 -0.7561
  287MOL0     C38656   3.105   7.726  11.894  0.2126 -0.2116  1.4297
  287MOL0     O38657   3.354   7.882  11.912  0.2173  0.2667 -0.1872
  287MOL0     C38658   3.451   8.143  11.798 -0.5466  0.4356  0.9521
  287MOL0     C38659   3.486   8.262  11.744 -0.1017  0.3643  0.7315
  287MOL0     N38660   3.390   8.895  11.181  0.1740  0.2884 -0.3122
  287MOL0     N38661   3.391   8.841  11.063 -0.4196 -0.4483  0.9329
  287MOL0     C38662   2.944   8.300  10.275  0.0431  0.0671  0.1013
  287MOL0     C38663   2.895   8.193  10.204 -0.3525 -0.3042 -0.0828
  287MOL0     C38664   2.891   7.933   9.834 -0.6993  0.6521  0.0214
  287MOL0     C38665   2.872   7.997   9.709  0.6502 -0.5419 -0.5973
  287MOL0     C38666   2.812   7.938   9.600 -0.2370  0.1913 -0.0461
  287MOL0     C38667   2.772   7.801   9.612 -0.0743 -0.3866 -0.0851
  287MOL0     O38668   2.713   7.736   9.508  0.0882 -0.1915  0.4177
  287MOL0     C38669   2.673   7.808   9.388  0.4961 -0.2853  0.3890
  287MOL0     C38670   2.604   7.728   9.286  0.8122 -0.4404  0.3796
  287MOL0     C38671   2.476   7.653   9.352  0.5574 -0.4340  0.3796
  287MOL0     C38672   2.391   7.604   9.234  0.0317  0.7080 -0.0939
  287MOL0     C38673   2.277   7.527   9.295  0.5157  0.5086 -0.3755
  287MOL0     C38674   2.198   7.456   9.358  1.0088 -0.0038 -0.2003
  287MOL0     C38675   2.806   7.736   9.733 -0.1475 -0.0158  0.0659
  287MOL0     C38676   2.853   7.797   9.847  0.6703 -1.3137  0.5387
  287MOL0     C38677   2.884   7.707   9.959  0.0019  0.2243 -0.4219
  287MOL0     H38678   3.143   7.972  10.199  2.8041  1.7309  1.0094
  287MOL0     H38679   3.240   8.144  10.345 -1.5531 -1.4629  1.4874
  287MOL0     H38680   3.023   8.552  10.364  1.1142  1.0615  0.0655
  287MOL0     H38681   2.974   8.458  10.510 -2.1569  0.7114 -2.3440
  287MOL0     H38682   3.122   8.670  10.543  1.3222  0.4532  0.3252
  287MOL0     H38683   3.253   8.585  10.472  0.5302  2.6940  0.2376
  287MOL0     H38684   3.218   8.394  10.631  1.0097  0.4849 -0.3156
  287MOL0     H38685   3.083   8.461  10.707  1.2096  0.0774  0.4531
  287MOL0     H38686   3.385   8.528  10.707  0.5775 -0.9040  2.3459
  287MOL0     H38687   3.266   8.636  10.796 -0.7105 -0.5296 -0.3701
  287MOL0     H38688   3.184   8.438  10.907  0.0585  1.0788  0.2000
  287MOL0     H38689   3.336   8.354  10.856 -1.2481  0.2261 -0.3323
  287MOL0     H38690   3.311   8.577  11.053  0.8793  0.5817  0.0798
  287MOL0     H38691   3.384   8.410  11.054 -0.1005 -0.4266  0.0384
  287MOL0     H38692   3.561   8.498  10.878  0.1565  1.5811 -0.1386
  287MOL0     H38693   3.583   8.529  11.048  1.6645  0.8579 -0.5187
  287MOL0     H38694   3.650   8.715  10.906 -0.4614 -1.7178 -0.9282
  287MOL0     H38695   3.474   8.731  10.862 -2.1210 -0.3935  0.9159
  287MOL0     H38696   3.609   8.661  11.211 -1.5401 -0.5776 -0.5709
  287MOL0     H38697   3.548   8.917  11.443 -0.9215  1.0357 -0.5012
  287MOL0     H38698   3.379   8.878  11.428  1.4352  3.3002 -1.3341
  287MOL0     H38699   3.474   8.633  11.402  2.7017  0.5136 -2.6343
  287MOL0     H38700   3.620   8.694  11.483 -0.5285 -1.2026  0.0294
  287MOL0     H38701   3.351   8.693  11.600  0.8498 -0.3793 -2.0347
  287MOL0     H38702   3.505   8.770  11.669  0.9001  0.5741 -0.0703
  287MOL0     H38703   3.483   8.566  11.783  2.4981 -4.3646  1.0512
  287MOL0     H38704   3.599   8.524  11.672  0.2379  1.4813  3.0699
  287MOL0     H38705   3.202   8.347  11.602  3.1051  0.9157 -2.5327
  287MOL0     H38706   3.128   8.119  11.704 -0.7519 -0.1926  0.5652
  287MOL0     H38707   3.124   7.711  11.547  2.4940 -3.3085  0.1660
  287MOL0     H38708   3.065   7.499  11.578  2.3513 -0.3255 -0.4013
  287MOL0     H38709   2.901   7.219  11.880 -0.9685  0.2569  1.2967
  287MOL0     H38710   2.927   7.344  11.989 -0.2923 -1.6798  0.2716
  287MOL0     H38711   2.773   7.485  11.846 -1.8864 -1.2100 -0.8454
  287MOL0     H38712   2.785   7.364  11.729 -1.3718  0.3591  0.1525
  287MOL0     H38713   2.565   7.363  11.890 -0.4218 -0.5247  1.9853
  287MOL0     H38714   2.639   7.209  11.879  2.4022 -1.2146  0.7988
  287MOL0     H38715   2.689   7.388  12.104 -1.1264  0.5208 -0.5409
  287MOL0     H38716   2.758   7.229  12.083 -1.9918 -1.9366  1.1562
  287MOL0     H38717   2.451   7.301  12.104 -2.4174 -3.8865 -0.2603
  287MOL0     H38718   2.552   7.269  12.237  1.5388 -0.0171  0.4186
  287MOL0     H38719   2.417   7.079  12.168 -0.3023  0.0750 -0.9601
  287MOL0     H38720   2.467   7.085  12.003 -2.5109  3.1718  0.5556
  287MOL0     H38721   2.674   7.032  12.225  2.7777  2.9755 -1.6288
  287MOL0     H38722   2.692   6.996  12.056 -0.9600 -0.5019 -0.4401
  287MOL0     H38723   2.645   6.804  12.199  2.4920  2.8063 -1.6314
  287MOL0     H38724   2.483   6.867  12.237 -0.4333 -0.9432 -1.0410
  287MOL0     H38725   3.034   7.569  12.015  2.7855 -0.1489  0.4019
  287MOL0     H38726   3.111   7.788  11.983 -1.6527  0.0879  1.3752
  287MOL0     H38727   3.528   8.092  11.854 -1.7605  1.1765  3.4507
  287MOL0     H38728   3.592   8.281  11.754  0.4294 -2.5454  1.5879
  287MOL0     H38729   2.883   8.388  10.289  1.6384  1.4472 -1.0847
  287MOL0     H38730   2.792   8.210  10.174 -0.3717  1.1869  0.7365
  287MOL0     H38731   2.900   8.100   9.685  0.7315 -0.3445  0.3177
  287MOL0     H38732   2.806   8.006   9.515 -0.8521  2.3090  1.5966
  287MOL0     H38733   2.765   7.850   9.346  1.3118 -3.7106 -1.6067
  287MOL0     H38734   2.614   7.893   9.422 -0.9726 -1.5252  1.0385
  287MOL0     H38735   2.663   7.656   9.230 -1.7525 -1.3875 -1.3155
  287MOL0     H38736   2.565   7.802   9.214  2.2780 -1.3136 -1.3928
  287MOL0     H38737   2.424   7.730   9.409 -0.0235  1.1999 -2.2048
  287MOL0     H38738   2.516   7.574   9.416  0.1565 -0.9019  0.0593
  287MOL0     H38739   2.346   7.685   9.175 -3.8554 -0.4062  1.0345
  287MOL0     H38740   2.457   7.531   9.187  1.5250  0.9738  1.4742
  287MOL0     H38741   2.135   7.388   9.411  1.8854 -1.5697 -1.1157
  287MOL0     H38742   2.779   7.632   9.721 -2.1278  0.6742 -2.2934
  287MOL0     H38743   2.926   7.614   9.918 -1.8994 -1.0881  0.4585
  287MOL0     H38744   2.954   7.739  10.037  1.0050 -0.9750 -0.7844
  287MOL0     H38745   2.794   7.677  10.014  0.5022  0.9422  0.8232
  288MOL0     O38746   4.454  10.750   7.839 -0.2510 -0.1475 -0.0871
  288MOL0     C38747   4.500  10.774   7.731 -0.3369  0.1047  0.0216
  288MOL0     O38748   4.480  10.703   7.614  0.3229  0.4536 -0.2171
  288MOL0     C38749   4.399  10.591   7.625 -0.4477 -0.5622  0.1581
  288MOL0     C38750   4.274  10.596   7.550 -0.4895 -0.2707  0.5717
  288MOL0     C38751   4.199  10.481   7.535  0.5298 -0.5139 -0.6488
  288MOL0     C38752   4.235  10.361   7.591 -0.1351  1.4992 -0.0198
  288MOL0     O38753   4.143  10.255   7.587  0.5443 -0.5570  0.2870
  288MOL0     C38754   4.048  10.256   7.685 -0.2185  0.1461  0.2854
  288MOL0     C38755   3.929  10.146   7.657 -0.2941 -0.0583 -0.3193
  288MOL0     C38756   3.989  10.021   7.580 -0.3972 -0.2809  0.3349
  288MOL0     C38757   3.908   9.899   7.590 -0.1778  0.5569 -0.6607
  288MOL0     C38758   3.768   9.925   7.533 -0.3349  0.3329 -0.1691
  288MOL0     C38759   3.664   9.823   7.581  0.2375  0.2024  0.5353
  288MOL0     C38760   3.691   9.672   7.557 -0.5847 -0.0149  0.0758
  288MOL0     C38761   3.583   9.569   7.584  0.4710  0.0851 -0.6747
  288MOL0     N38762   3.598   9.512   7.715  0.7612  0.6604 -0.7190
  288MOL0     C38763   3.533   9.398   7.752  0.5149  1.0125  0.3327
  288MOL0     C38764   3.533   9.394   7.887 -0.0164  0.1992  0.5886
  288MOL0     C38765   3.485   9.274   7.975  0.0653  0.7851 -0.0041
  288MOL0     C38766   3.342   9.286   8.037 -0.3226 -0.1874 -0.0315
  288MOL0     C38767   3.314   9.154   8.114 -1.3273 -0.8882 -0.3733
  288MOL0     C38768   3.219   9.060   8.044 -0.3925 -0.9215  0.4860
  288MOL0     O38769   3.156   8.962   8.131 -0.4899  0.3821  0.1040
  288MOL0     C38770   3.051   9.007   8.212  0.6273 -0.4603 -0.3585
  288MOL0     C38771   3.011   8.926   8.313  0.1982  0.6032 -0.3010
  288MOL0     C38772   2.898   8.953   8.380  0.6836  0.3581  1.0795
  288MOL0     C38773   2.813   9.070   8.360  0.5153  0.3566 -0.3003
  288MOL0     C38774   2.688   9.094   8.438 -0.6897 -0.9275 -0.3459
  288MOL0     O38775   2.622   9.213   8.416 -1.0039 -0.5809 -0.5836
  288MOL0     C38776   2.513   9.257   8.498  1.0776 -0.7776  0.4414
  288MOL0     C38777   2.544   9.305   8.626 -1.1108 -0.8739 -0.1599
  288MOL0     C38778   2.458   9.326   8.725 -0.8989  0.2318 -0.5129
  288MOL0     C38779   2.329   9.306   8.694  1.0220 -0.0992 -0.6992
  288MOL0     O38780   2.249   9.317   8.801  0.2864  0.0945 -0.1628
  288MOL0     C38781   2.135   9.239   8.809  0.4458  0.6699 -0.6898
  288MOL0     C38782   2.029   9.291   8.910  0.2300 -0.1749 -0.7756
  288MOL0     C38783   1.977   9.418   8.844 -0.1484  0.3450  0.2084
  288MOL0     C38784   1.837   9.448   8.880 -0.0706  0.2115  0.3506
  288MOL0     C38785   1.793   9.582   8.816  0.8819  0.6280 -0.5192
  288MOL0     C38786   1.646   9.618   8.840  0.1013 -0.0500  0.0242
  288MOL0     C38787   1.613   9.677   8.982  0.9769  0.4431 -0.4163
  288MOL0     C38788   1.491   9.770   8.971  0.4696 -0.3443 -0.9036
  288MOL0    Cl38789   1.382   9.737   9.102  0.3526 -0.2296 -0.3589
  288MOL0     C38790   2.289   9.252   8.567 -0.7823  1.3560 -0.8095
  288MOL0     C38791   2.385   9.223   8.470  0.1443 -0.4054 -0.5884
  288MOL0     O38792   2.672   9.022   8.542  0.5961 -0.7114 -0.1592
  288MOL0     C38793   2.866   9.161   8.263  0.6627 -0.2325  0.3786
  288MOL0     C38794   2.974   9.120   8.177 -0.9206 -0.4894 -0.3372
  288MOL0     N38795   3.584   9.516   7.926 -0.2494  0.2412 -0.8241
  288MOL0     N38796   3.622   9.580   7.825  0.1005  0.3421  0.3849
  288MOL0     C38797   4.350  10.364   7.685  1.1341 -0.3801 -0.7602
  288MOL0     C38798   4.435  10.470   7.698  0.1591  0.4896  0.0615
  288MOL0     C38799   4.585  10.895   7.732 -0.1413 -0.8096  0.1207
  288MOL0     C38800   4.690  10.910   7.831 -0.4719 -0.5303 -0.3602
  288MOL0     C38801   4.789  11.015   7.826 -0.0844  0.8323  0.5646
  288MOL0     C38802   4.769  11.108   7.725 -0.1304 -0.0273 -0.6135
  288MOL0     O38803   4.850  11.222   7.722  0.2965 -0.0121 -0.1379
  288MOL0     C38804   4.984  11.201   7.751 -0.6431 -0.6327  0.3916
  288MOL0     C38805   5.073  11.175   7.627 -1.0039 -0.1353  0.6226
  288MOL0     C38806   5.066  11.290   7.518  0.3562  0.2859 -0.8843
  288MOL0     C38807   5.155  11.405   7.538 -0.3995 -0.2411  0.2569
  288MOL0     C38808   5.152  11.509   7.437 -0.4615  0.4122 -0.5328
  288MOL0     C38809   5.151  11.597   7.361 -0.4967 -0.4557  0.5874
  288MOL0     C38810   4.678  11.090   7.622  0.5291 -0.0011 -0.3043
  288MOL0     C38811   4.595  10.980   7.621 -0.9023 -0.6224 -0.4122
  288MOL0     C38812   4.471  10.995   7.527  0.4813  0.1748  0.2313
  288MOL0     H38813   4.250  10.685   7.493 -1.3475 -1.6902 -1.4113
  288MOL0     H38814   4.105  10.477   7.480  1.4941 -2.1536 -2.3112
  288MOL0     H38815   4.094  10.218   7.777 -1.2205  2.0273  1.6559
  288MOL0     H38816   4.009  10.355   7.713  1.6315  0.5970  1.4204
  288MOL0     H38817   3.855  10.186   7.587 -0.7933 -2.6498 -1.4028
  288MOL0     H38818   3.871  10.129   7.748 -0.8244  0.9088 -0.4563
  288MOL0     H38819   4.088   9.999   7.622 -0.9356 -1.3420  1.0768
  288MOL0     H38820   4.005  10.039   7.473  0.8601 -2.9902 -0.0246
  288MOL0     H38821   3.963   9.817   7.543 -0.1440 -1.5220  2.6667
  288MOL0     H38822   3.909   9.881   7.698 -0.1700  2.2036 -0.3623
  288MOL0     H38823   3.723  10.020   7.564 -2.1712 -1.2157  2.3117
  288MOL0     H38824   3.777   9.918   7.424  1.6659 -0.5419  0.0194
  288MOL0     H38825   3.652   9.840   7.688  2.7850  0.5032  0.8242
  288MOL0     H38826   3.568   9.835   7.530  0.8222 -0.5069 -0.8183
  288MOL0     H38827   3.792   9.659   7.598 -0.2113  0.8092 -0.5309
  288MOL0     H38828   3.701   9.679   7.448 -3.5148  3.6488 -0.1520
  288MOL0     H38829   3.490   9.626   7.590  0.2215 -0.4399  2.7181
  288MOL0     H38830   3.583   9.492   7.506  1.1839  1.7953 -2.4434
  288MOL0     H38831   3.493   9.322   7.686  1.1700  0.7319  0.2509
  288MOL0     H38832   3.490   9.184   7.913 -1.6828  1.2651 -0.9054
  288MOL0     H38833   3.548   9.260   8.064 -1.2325  1.9619  1.1390
  288MOL0     H38834   3.343   9.381   8.092  2.0173 -0.9197  1.3294
  288MOL0     H38835   3.266   9.305   7.960  0.6761 -1.3861 -1.3652
  288MOL0     H38836   3.253   9.185   8.199  1.5176  0.9857  1.1166
  288MOL0     H38837   3.403   9.097   8.140 -1.3701 -0.4052  0.9097
  288MOL0     H38838   3.275   9.012   7.964 -1.5164 -0.9560 -0.2946
  288MOL0     H38839   3.133   9.110   7.999 -1.2411 -1.1905  1.7525
  288MOL0     H38840   3.067   8.835   8.328 -0.4503 -0.0718 -1.8426
  288MOL0     H38841   2.862   8.898   8.467  3.1257 -0.3753  1.7084
  288MOL0     H38842   2.647   9.330   8.649 -1.2603  0.2542 -0.6323
  288MOL0     H38843   2.498   9.341   8.825  3.0304  0.9824 -2.0366
  288MOL0     H38844   2.091   9.212   8.712  0.8152  0.5537 -0.8260
  288MOL0     H38845   2.176   9.148   8.854 -1.9739  1.5006  3.7954
  288MOL0     H38846   1.949   9.221   8.935 -0.3829  0.6420 -0.4278
  288MOL0     H38847   2.065   9.315   9.010 -0.0171 -0.9457 -0.4958
  288MOL0     H38848   2.033   9.503   8.883 -2.0723  1.6141  0.3694
  288MOL0     H38849   1.974   9.409   8.735 -0.5946 -1.2735  0.3338
  288MOL0     H38850   1.827   9.464   8.988  3.4103  2.9057  0.4612
  288MOL0     H38851   1.774   9.363   8.854 -1.3735  0.8337  1.3469
  288MOL0     H38852   1.821   9.583   8.710 -1.1746 -0.5695 -1.1367
  288MOL0     H38853   1.847   9.668   8.857  0.2737  1.5282 -1.5572
  288MOL0     H38854   1.625   9.700   8.771 -0.1003 -0.3018 -0.2180
  288MOL0     H38855   1.572   9.537   8.828 -0.2885  0.1734  0.8250
  288MOL0     H38856   1.697   9.715   9.040  0.7393 -1.0156  0.9943
  288MOL0     H38857   1.583   9.589   9.041  2.5581  0.7905  0.9805
  288MOL0     H38858   1.525   9.873   8.978 -0.1307 -0.2457  3.9238
  288MOL0     H38859   1.425   9.761   8.884 -0.8998  0.0263  0.0805
  288MOL0     H38860   2.189   9.221   8.539  0.0930  0.4167 -3.1538
  288MOL0     H38861   2.364   9.174   8.376 -0.7663 -1.2424  0.0291
  288MOL0     H38862   2.824   9.258   8.238  1.2377 -0.7176 -2.9592
  288MOL0     H38863   2.983   9.184   8.090  1.6329  0.0853  0.2639
  288MOL0     H38864   4.380  10.278   7.744 -1.4462 -2.1084 -1.7853
  288MOL0     H38865   4.529  10.469   7.753  1.1445  2.1279 -1.4768
  288MOL0     H38866   4.679  10.840   7.913  2.4953  1.4234  1.9369
  288MOL0     H38867   4.859  11.011   7.909  4.0510 -1.7872 -2.6166
  288MOL0     H38868   5.004  11.126   7.828  2.0828 -0.4303 -0.0220
  288MOL0     H38869   5.013  11.300   7.787 -1.2267  0.2887 -1.5197
  288MOL0     H38870   5.042  11.077   7.588 -0.4918 -1.4757  3.3206
  288MOL0     H38871   5.179  11.172   7.656 -0.4781 -1.2478 -1.2594
  288MOL0     H38872   4.963  11.323   7.500  0.7119  1.7923 -0.2903
  288MOL0     H38873   5.096  11.246   7.422 -0.9004  1.5527 -1.9227
  288MOL0     H38874   5.131  11.442   7.639 -0.8345 -2.4174  1.0154
  288MOL0     H38875   5.255  11.360   7.542 -0.3826 -0.1871  0.4957
  288MOL0     H38876   5.134  11.673   7.288  1.6427  0.0999  0.5873
  288MOL0     H38877   4.680  11.159   7.538  2.8336 -0.5420 -0.7570
  288MOL0     H38878   4.487  11.071   7.450  0.8581  0.5128  0.6361
  288MOL0     H38879   4.430  10.902   7.488 -1.6111  1.0439  0.1800
  288MOL0     H38880   4.389  11.043   7.582 -1.1073  0.7053 -2.3920
  289MOL0     O38881   2.753   8.901   1.219  0.0334 -0.2141 -0.8677
  289MOL0     C38882   2.837   8.997   1.235 -0.2742  0.3398  0.8498
  289MOL0     O38883   2.937   9.008   1.330  0.0175 -0.0687 -0.0571
  289MOL0     C38884   2.967   8.899   1.411 -0.8245  0.2769 -0.3824
  289MOL0     C38885   2.871   8.827   1.487  0.3476  0.9429 -0.5637
  289MOL0     C38886   2.906   8.716   1.563  0.1096 -0.2077  0.3321
  289MOL0     C38887   3.039   8.681   1.567  0.7641 -0.3822 -0.0667
  289MOL0     O38888   3.096   8.572   1.635  0.4881 -0.5299 -0.1546
  289MOL0     C38889   3.036   8.518   1.756 -0.6196 -0.6763  0.2023
  289MOL0     C38890   3.152   8.507   1.853 -0.4158  0.1669  0.3782
  289MOL0     C38891   3.250   8.392   1.805 -0.4610  0.4540 -0.1305
  289MOL0     C38892   3.370   8.388   1.903  0.3701 -1.0311  0.1442
  289MOL0     C38893   3.464   8.270   1.856  0.5927 -0.1290  0.8595
  289MOL0     C38894   3.546   8.226   1.983 -0.6632  0.3411 -0.0130
  289MOL0     C38895   3.683   8.158   1.950 -0.2113  0.6635  0.5555
  289MOL0     C38896   3.666   8.020   1.884  0.5466  0.7382  0.1531
  289MOL0     N38897   3.658   7.926   1.997 -0.2594 -0.0848  0.6857
  289MOL0     C38898   3.545   7.847   2.007 -0.0664  0.8673 -0.1838
  289MOL0     C38899   3.578   7.740   2.090 -0.8721 -0.9010 -0.1282
  289MOL0     C38900   3.501   7.630   2.144 -0.1911 -0.1701 -0.4840
  289MOL0     C38901   3.422   7.676   2.268 -0.0125 -0.4334  0.3530
  289MOL0     C38902   3.350   7.548   2.326 -0.4069 -0.5869 -0.8365
  289MOL0     C38903   3.234   7.588   2.425  0.3299  0.5946 -0.6607
  289MOL0     O38904   3.272   7.666   2.538 -0.5641 -0.3569 -0.1063
  289MOL0     C38905   3.374   7.616   2.619  1.1872  0.9616 -1.1039
  289MOL0     C38906   3.470   7.707   2.661 -0.2246 -1.0715  0.7450
  289MOL0     C38907   3.563   7.673   2.753 -0.1632  0.2164 -0.3174
  289MOL0     C38908   3.575   7.538   2.800  0.0710 -0.4285 -1.7190
  289MOL0     C38909   3.689   7.499   2.887  0.0797 -0.1400 -0.4452
  289MOL0     O38910   3.703   7.365   2.921  0.3038  0.1876 -0.2748
  289MOL0     C38911   3.664   7.345   3.048  0.0640 -0.0501 -0.1939
  289MOL0     C38912   3.744   7.372   3.154 -0.4988  0.5947 -0.1901
  289MOL0     C38913   3.708   7.338   3.288  0.5014  0.0567 -0.0839
  289MOL0     C38914   3.580   7.268   3.300 -0.1386 -0.3069  0.3752
  289MOL0     O38915   3.555   7.198   3.419 -0.3401  0.1110  0.5254
  289MOL0     C38916   3.435   7.124   3.445 -0.2468  0.0807  1.0380
  289MOL0     C38917   3.425   7.076   3.588  0.1479 -0.0956 -0.6245
  289MOL0     C38918   3.401   7.192   3.688 -0.8788  0.1230 -0.3309
  289MOL0     C38919   3.532   7.246   3.737  0.4720  0.2341 -0.8351
  289MOL0     C38920   3.505   7.364   3.832 -0.0024 -0.2726  0.5014
  289MOL0     C38921   3.627   7.454   3.826  0.0165 -0.1299 -0.4254
  289MOL0     C38922   3.637   7.558   3.935 -0.3638  0.6231  0.3199
  289MOL0     C38923   3.716   7.668   3.856 -0.1792 -0.0000 -0.0023
  289MOL0    Cl38924   3.755   7.807   3.964 -0.4447  0.5247  0.4742
  289MOL0     C38925   3.501   7.248   3.193  1.0727 -0.3236  0.0554
  289MOL0     C38926   3.540   7.285   3.066  0.3742 -0.0411  0.3857
  289MOL0     O38927   3.773   7.584   2.916  0.8319 -0.0703  0.2608
  289MOL0     C38928   3.478   7.444   2.751 -1.0805  0.4397  0.1576
  289MOL0     C38929   3.380   7.483   2.668 -0.4103  0.8392 -0.4368
  289MOL0     N38930   3.715   7.754   2.116 -0.8628  0.3103 -0.0738
  289MOL0     N38931   3.762   7.861   2.054  0.6523 -0.0398  0.5953
  289MOL0     C38932   3.134   8.750   1.492 -0.2294 -0.4556 -0.8278
  289MOL0     C38933   3.094   8.858   1.411 -0.1495  0.4024 -0.0281
  289MOL0     C38934   2.825   9.116   1.146 -0.5716 -0.2643 -0.2469
  289MOL0     C38935   2.932   9.208   1.130 -0.1679  0.3080  0.4226
  289MOL0     C38936   2.937   9.318   1.040 -0.2732  0.3607 -0.4342
  289MOL0     C38937   2.824   9.326   0.955 -0.5266 -0.0136  0.9846
  289MOL0     O38938   2.817   9.415   0.849  0.4937 -0.0806 -0.1157
  289MOL0     C38939   2.729   9.524   0.876  0.6943 -0.0843 -0.0858
  289MOL0     C38940   2.781   9.642   0.801  0.6552  0.4274 -0.4801
  289MOL0     C38941   2.710   9.767   0.843 -0.3188  0.5634 -0.1516
  289MOL0     C38942   2.738   9.876   0.738  0.1450 -0.7556  1.0568
  289MOL0     C38943   2.631   9.971   0.734  0.4471  0.3975 -0.6067
  289MOL0     C38944   2.543  10.058   0.741  0.2267  0.6847 -0.2189
  289MOL0     C38945   2.718   9.246   0.967  0.5810  0.3626  0.1882
  289MOL0     C38946   2.719   9.136   1.052 -0.6144 -1.1736  0.5200
  289MOL0     C38947   2.603   9.038   1.028 -0.0223  0.5060 -0.7201
  289MOL0     H38948   2.766   8.851   1.478  0.2306  0.4483 -0.5533
  289MOL0     H38949   2.832   8.658   1.617 -0.3138  0.3026  0.3088
  289MOL0     H38950   2.966   8.596   1.790 -1.4935 -1.1567 -0.4471
  289MOL0     H38951   2.974   8.430   1.742  0.2778 -1.1507 -0.9219
  289MOL0     H38952   3.109   8.484   1.951 -1.8032  0.7006 -0.0768
  289MOL0     H38953   3.203   8.602   1.868  0.1377 -0.0561 -0.0887
  289MOL0     H38954   3.282   8.422   1.705 -0.1322  1.0106  0.1339
  289MOL0     H38955   3.207   8.292   1.793 -0.2635  0.3926 -0.3289
  289MOL0     H38956   3.421   8.485   1.896 -0.6157 -0.4891  0.3305
  289MOL0     H38957   3.337   8.377   2.007  0.7174 -0.6432  0.3007
  289MOL0     H38958   3.399   8.193   1.814  1.4567  0.7188 -2.3261
  289MOL0     H38959   3.526   8.302   1.772  2.7550 -1.8087  1.7295
  289MOL0     H38960   3.563   8.312   2.049  0.0057 -0.0305  0.3052
  289MOL0     H38961   3.478   8.162   2.039 -3.5037  1.5925 -1.7978
  289MOL0     H38962   3.746   8.152   2.040  1.8084  0.8143 -0.7903
  289MOL0     H38963   3.729   8.229   1.881  1.1408 -1.2804 -0.6192
  289MOL0     H38964   3.586   8.004   1.811  0.3011 -2.7923  1.0086
  289MOL0     H38965   3.761   8.009   1.829 -0.5602 -0.8657 -1.5749
  289MOL0     H38966   3.448   7.871   1.965  0.9076  2.7585 -1.5213
  289MOL0     H38967   3.435   7.610   2.059  1.4354 -0.7171 -1.6679
  289MOL0     H38968   3.565   7.545   2.167 -1.8880 -1.4371 -0.2346
  289MOL0     H38969   3.502   7.723   2.327  0.4660  0.7332 -1.1726
  289MOL0     H38970   3.357   7.758   2.239 -0.5963 -1.2830 -0.8267
  289MOL0     H38971   3.421   7.477   2.370 -0.8444 -0.3612  0.2484
  289MOL0     H38972   3.300   7.485   2.252 -1.6934 -0.7942  0.1859
  289MOL0     H38973   3.187   7.492   2.450  1.6047 -0.5036 -2.2253
  289MOL0     H38974   3.157   7.648   2.375 -0.4603  0.2573  0.1200
  289MOL0     H38975   3.480   7.810   2.630  1.3183 -0.0016  4.2819
  289MOL0     H38976   3.632   7.747   2.793  1.2732 -1.8767  1.3608
  289MOL0     H38977   3.846   7.408   3.139 -1.0212  0.9237 -3.7943
  289MOL0     H38978   3.772   7.360   3.372  1.1672 -2.1124  0.0301
  289MOL0     H38979   3.356   7.198   3.426  0.4391  1.1890  2.2993
  289MOL0     H38980   3.418   7.037   3.380 -4.1031  0.1066  1.7413
  289MOL0     H38981   3.338   7.010   3.595  1.4136 -1.7401  4.7832
  289MOL0     H38982   3.516   7.021   3.616 -0.2551 -1.2288 -1.4818
  289MOL0     H38983   3.336   7.273   3.653 -1.1260 -0.8298 -2.2036
  289MOL0     H38984   3.353   7.146   3.775 -0.4325  0.1267 -0.0841
  289MOL0     H38985   3.606   7.270   3.661  0.9006  0.7849 -0.2552
  289MOL0     H38986   3.586   7.168   3.792 -0.2089 -1.2864 -2.2333
  289MOL0     H38987   3.467   7.333   3.930  0.3930 -0.3469  0.6308
  289MOL0     H38988   3.434   7.429   3.779  1.8125 -0.9282 -2.9934
  289MOL0     H38989   3.711   7.390   3.856  0.6783  0.7587 -0.3319
  289MOL0     H38990   3.643   7.480   3.721 -0.2181 -0.5540 -0.5674
  289MOL0     H38991   3.699   7.537   4.023 -1.4870 -0.0768  0.9709
  289MOL0     H38992   3.541   7.598   3.967  0.6044  3.1520  0.2961
  289MOL0     H38993   3.815   7.628   3.831  1.8176  3.7526  1.1365
  289MOL0     H38994   3.653   7.700   3.773  2.0110 -0.2200 -1.8543
  289MOL0     H38995   3.400   7.209   3.204  2.2583 -2.9603  3.2506
  289MOL0     H38996   3.478   7.276   2.978 -0.6256 -1.3466  1.1978
  289MOL0     H38997   3.486   7.343   2.791  0.7822  2.1778  4.9238
  289MOL0     H38998   3.290   7.424   2.653 -0.1337  0.3922 -0.3775
  289MOL0     H38999   3.238   8.719   1.495 -0.4711 -1.2278  0.7620
  289MOL0     H39000   3.166   8.903   1.343  2.0133 -1.4440  0.8800
  289MOL0     H39001   3.003   9.195   1.212 -0.8196 -2.7502  0.6284
  289MOL0     H39002   3.000   9.405   1.055 -0.3457 -0.0830  3.3668
  289MOL0     H39003   2.718   9.541   0.983  0.7879 -1.3989  0.1538
  289MOL0     H39004   2.628   9.501   0.840  0.6256 -1.1994  0.7623
  289MOL0     H39005   2.774   9.628   0.692  1.8563  3.5621 -1.0840
  289MOL0     H39006   2.885   9.662   0.828  0.9581 -2.1788  0.5577
  289MOL0     H39007   2.757   9.804   0.935 -0.5376  0.4516  0.0042
  289MOL0     H39008   2.604   9.745   0.857 -0.1781  0.2457  0.4527
  289MOL0     H39009   2.836   9.924   0.747  0.3094 -0.2558 -2.1810
  289MOL0     H39010   2.749   9.841   0.635 -4.9882  0.6893 -0.2540
  289MOL0     H39011   2.464  10.128   0.758  1.5252  2.2359 -0.2905
  289MOL0     H39012   2.635   9.271   0.902  1.7750  1.1077 -1.1100
  289MOL0     H39013   2.548   9.053   0.934 -1.1478  2.6842  0.2103
  289MOL0     H39014   2.634   8.934   1.023 -0.0751  0.4986 -0.8902
  289MOL0     H39015   2.540   9.055   1.116  3.0770  2.4356  1.3232
  290MOL0     O39016  10.813   1.359  10.393 -0.4114  0.2623 -0.0268
  290MOL0     C39017  10.766   1.467  10.373  0.0099  0.3989  0.0404
  290MOL0     O39018  10.679   1.496  10.266 -0.8370 -0.2787 -0.6640
  290MOL0     C39019  10.645   1.401  10.174  0.4041  0.9666  0.6741
  290MOL0     C39020  10.728   1.296  10.129  0.6030 -0.9690  0.6362
  290MOL0     C39021  10.680   1.196  10.048  0.2714 -0.2344  0.3343
  290MOL0     C39022  10.553   1.205   9.990  0.3324 -0.4244  0.0138
  290MOL0     O39023  10.523   1.097   9.918  0.9962 -0.5158 -0.7197
  290MOL0     C39024  10.386   1.057   9.927 -0.2107  0.8579 -0.4286
  290MOL0     C39025  10.365   0.920   9.863 -0.3753 -0.4516 -0.2115
  290MOL0     C39026  10.375   0.928   9.708  0.2112  0.0315 -0.7618
  290MOL0     C39027  10.396   0.788   9.646 -0.7849 -0.5673 -0.3413
  290MOL0     C39028  10.258   0.720   9.636  0.2836  0.0677 -0.2414
  290MOL0     C39029  10.213   0.725   9.490  0.9041  0.5168  0.4040
  290MOL0     C39030  10.077   0.657   9.468  0.4277  0.5315 -0.2549
  290MOL0     C39031  10.044   0.653   9.318  0.3596  0.5692  0.6360
  290MOL0     N39032   9.922   0.577   9.287  1.5391  0.1297  0.2438
  290MOL0     C39033   9.908   0.449   9.238 -0.6394  0.1472 -0.8440
  290MOL0     C39034   9.793   0.444   9.175 -0.6424 -0.4285  0.6229
  290MOL0     C39035   9.728   0.349   9.097  0.9353 -0.2228  0.5187
  290MOL0     C39036   9.797   0.290   8.974 -0.4146  0.3665 -0.3267
  290MOL0     C39037   9.811   0.393   8.864 -1.0937  1.0513  0.0508
  290MOL0     C39038   9.919   0.363   8.758 -1.4423  0.2734  0.2882
  290MOL0     O39039   9.910   0.457   8.649  0.4951 -0.6010  0.3645
  290MOL0     C39040   9.844   0.430   8.526 -0.4476 -0.2876 -0.6031
  290MOL0     C39041   9.823   0.528   8.434  0.3630  0.0650  1.1518
  290MOL0     C39042   9.753   0.504   8.317 -0.1959  0.5457 -0.2356
  290MOL0     C39043   9.699   0.367   8.293 -0.2773 -0.7329 -0.4097
  290MOL0     C39044   9.619   0.336   8.174 -0.3545  1.2320  0.4529
  290MOL0     O39045   9.600   0.439   8.088 -0.0146 -0.1141  0.5792
  290MOL0     C39046   9.482   0.427   8.017  0.2192  0.0904  0.5578
  290MOL0     C39047   9.356   0.451   8.077 -0.2904 -1.0498  0.0686
  290MOL0     C39048   9.238   0.440   8.001 -0.6158 -0.3342 -0.6208
  290MOL0     C39049   9.235   0.391   7.870 -0.2648  0.1295  0.8687
  290MOL0     O39050   9.112   0.394   7.789  0.0992  0.2929  0.3753
  290MOL0     C39051   9.028   0.507   7.799 -0.1195  0.6039 -0.0674
  290MOL0     C39052   9.102   0.630   7.737  0.7265 -0.1770 -0.3032
  290MOL0     C39053   9.010   0.709   7.638 -0.1128 -0.1874  0.0624
  290MOL0     C39054   9.070   0.845   7.601 -0.8196 -0.4315  1.6179
  290MOL0     C39055   8.977   0.923   7.511  0.6451  0.0671 -0.5158
  290MOL0     C39056   8.959   0.886   7.366 -1.1440  0.4370  0.1579
  290MOL0     C39057   8.815   0.851   7.323 -0.2075 -0.6495 -0.2357
  290MOL0     C39058   8.802   0.840   7.174  0.6336  0.5761  0.5727
  290MOL0    Cl39059   8.894   0.701   7.111  0.2576 -0.1783 -0.3138
  290MOL0     C39060   9.364   0.361   7.814  0.3544 -0.2865 -0.2703
  290MOL0     C39061   9.478   0.391   7.888  0.2596 -0.7821 -0.6192
  290MOL0     O39062   9.563   0.228   8.169  0.7756  0.1449 -0.1181
  290MOL0     C39063   9.737   0.271   8.386  0.1911  0.1732  0.8538
  290MOL0     C39064   9.785   0.304   8.502 -0.3336 -0.2793 -0.4163
  290MOL0     N39065   9.722   0.550   9.205  0.4206 -0.1511  0.5635
  290MOL0     N39066   9.795   0.628   9.283 -0.7035 -0.6568  0.7507
  290MOL0     C39067  10.471   1.311  10.030 -0.1129 -0.0199  0.7052
  290MOL0     C39068  10.520   1.416  10.114 -0.4320  0.3046  0.2137
  290MOL0     C39069  10.796   1.576  10.473  0.6807 -0.1272 -0.1618
  290MOL0     C39070  10.777   1.706  10.420 -0.0086  0.0882  0.5120
  290MOL0     C39071  10.783   1.815  10.504  0.8770  0.8934  0.1815
  290MOL0     C39072  10.815   1.795  10.641 -0.3512  0.0642 -0.5059
  290MOL0     O39073  10.824   1.915  10.715  0.7252 -0.3208 -0.5025
  290MOL0     C39074  10.793   1.911  10.854 -0.2966 -0.0876  0.2721
  290MOL0     C39075  10.839   2.034  10.925  0.4811 -0.9012  0.3228
  290MOL0     C39076  10.760   2.049  11.061 -0.6192  0.7926 -0.3022
  290MOL0     C39077  10.704   1.918  11.132  0.4909  0.4196 -1.0028
  290MOL0     C39078  10.812   1.823  11.160  0.4008 -1.4656  1.2120
  290MOL0     C39079  10.894   1.737  11.175  0.5541 -0.6892  0.8547
  290MOL0     C39080  10.845   1.663  10.692  0.3627 -0.5846  0.3712
  290MOL0     C39081  10.830   1.550  10.610  0.0874 -0.9765 -0.3505
  290MOL0     C39082  10.840   1.408  10.672 -0.5463 -0.1405  0.2791
  290MOL0     H39083  10.830   1.277  10.162  0.4070 -5.4026 -0.6423
  290MOL0     H39084  10.748   1.114  10.025  2.2197  0.9576  1.5725
  290MOL0     H39085  10.349   1.033  10.027 -1.8433 -2.8969 -1.7931
  290MOL0     H39086  10.322   1.127   9.872  2.5289  3.2981 -0.8192
  290MOL0     H39087  10.265   0.901   9.903 -0.9235  1.2318 -0.7317
  290MOL0     H39088  10.439   0.853   9.908 -0.2990  0.5826  1.2833
  290MOL0     H39089  10.457   0.993   9.675  0.1586  2.0069  2.5977
  290MOL0     H39090  10.278   0.963   9.671 -0.6875 -2.2057 -0.6893
  290MOL0     H39091  10.446   0.807   9.550  0.6409  2.3077  0.8664
  290MOL0     H39092  10.466   0.717   9.691  5.6344  3.6004 -2.3833
  290MOL0     H39093  10.276   0.616   9.663  0.8987  0.1043 -0.4977
  290MOL0     H39094  10.183   0.768   9.701 -0.5313 -1.1624 -0.2335
  290MOL0     H39095  10.220   0.832   9.466  0.6551  0.2458 -0.9851
  290MOL0     H39096  10.288   0.674   9.428  1.4006  0.2816  1.1913
  290MOL0     H39097   9.996   0.703   9.525  1.4239  0.7527  1.0382
  290MOL0     H39098  10.103   0.556   9.500  2.2599  0.9967 -0.1326
  290MOL0     H39099  10.035   0.752   9.273  1.1920 -0.2694 -1.5030
  290MOL0     H39100  10.129   0.606   9.267  1.0200  0.4545  1.7990
  290MOL0     H39101   9.991   0.379   9.230  0.2749  1.2469 -1.2919
  290MOL0     H39102   9.722   0.264   9.165  1.5589  0.1215  1.0216
  290MOL0     H39103   9.629   0.376   9.060 -0.1323 -2.7387  1.3567
  290MOL0     H39104   9.900   0.261   8.997 -0.3532  1.4512  0.8546
  290MOL0     H39105   9.740   0.204   8.938 -2.3367  2.1959 -1.8728
  290MOL0     H39106   9.841   0.488   8.908 -0.6559  0.6077  0.7378
  290MOL0     H39107   9.714   0.398   8.815  0.1840 -0.9342 -2.9559
  290MOL0     H39108   9.913   0.258   8.729 -0.5954  0.5489 -0.9395
  290MOL0     H39109  10.014   0.372   8.812 -1.9196  0.7349  1.0825
  290MOL0     H39110   9.856   0.629   8.458  2.4913 -0.4722  0.7383
  290MOL0     H39111   9.715   0.594   8.269  1.4125  1.6739  0.5388
  290MOL0     H39112   9.357   0.464   8.184 -0.4139 -1.1028  0.0764
  290MOL0     H39113   9.148   0.458   8.059 -0.8469 -0.1854 -1.0208
  290MOL0     H39114   8.936   0.479   7.747  0.1070  0.0523 -0.1751
  290MOL0     H39115   9.003   0.532   7.903 -1.3558 -2.0293  0.3635
  290MOL0     H39116   9.133   0.695   7.818  2.8241  0.7754 -1.7953
  290MOL0     H39117   9.187   0.586   7.684 -0.7203 -2.7101 -0.7102
  290MOL0     H39118   9.000   0.644   7.550 -3.0422 -0.7202  0.7041
  290MOL0     H39119   8.910   0.726   7.677 -1.5307  0.8880 -3.5791
  290MOL0     H39120   9.166   0.832   7.550 -1.3352  1.3311  0.1082
  290MOL0     H39121   9.093   0.902   7.691  1.3536 -0.7976  1.3379
  290MOL0     H39122   9.008   1.027   7.519  0.9574  0.1901 -2.6331
  290MOL0     H39123   8.879   0.918   7.560  1.9572  0.1995  2.3043
  290MOL0     H39124   9.005   0.965   7.306 -4.0040  1.9562 -0.2047
  290MOL0     H39125   9.020   0.796   7.350 -0.1102  1.1655 -0.1036
  290MOL0     H39126   8.746   0.926   7.364  0.9327 -0.1509  0.8307
  290MOL0     H39127   8.791   0.754   7.368 -1.8959  0.3171  1.0572
  290MOL0     H39128   8.697   0.813   7.156  0.2985  0.4193  2.4692
  290MOL0     H39129   8.835   0.934   7.130  0.0543  1.4248  1.8960
  290MOL0     H39130   9.369   0.323   7.713 -2.4554 -1.5501 -0.0224
  290MOL0     H39131   9.567   0.371   7.830  0.3352  2.0191 -1.6161
  290MOL0     H39132   9.698   0.170   8.373  1.9992 -0.4534 -0.1092
  290MOL0     H39133   9.814   0.222   8.567  1.4839 -0.1843 -1.0657
  290MOL0     H39134  10.375   1.311   9.979  0.1598 -1.0204  0.1513
  290MOL0     H39135  10.472   1.513  10.118  3.1354  2.2208  0.1485
  290MOL0     H39136  10.758   1.738  10.318 -0.0278  1.4777  0.9222
  290MOL0     H39137  10.758   1.910  10.459 -0.8344  2.2536  3.6824
  290MOL0     H39138  10.841   1.822  10.896 -2.1154 -1.4854 -0.4582
  290MOL0     H39139  10.685   1.898  10.861 -0.6791 -0.7751 -4.0687
  290MOL0     H39140  10.827   2.116  10.853  0.0192 -2.5881 -1.6229
  290MOL0     H39141  10.948   2.029  10.927  0.5027 -0.8993 -0.3963
  290MOL0     H39142  10.681   2.123  11.049 -0.9776  0.5049  0.2298
  290MOL0     H39143  10.829   2.103  11.127 -1.1043  2.1215 -0.8652
  290MOL0     H39144  10.647   1.950  11.219 -3.5148 -1.6382 -2.5917
  290MOL0     H39145  10.624   1.874  11.072  0.9110  0.1667 -1.3923
  290MOL0     H39146  10.970   1.665  11.194 -1.3136 -2.6409  1.3289
  290MOL0     H39147  10.874   1.655  10.796  0.2598  1.5621  0.6197
  290MOL0     H39148  10.736   1.374  10.682 -0.6879  0.5649  1.4649
  290MOL0     H39149  10.898   1.335  10.616  0.8808  1.2413 -0.1227
  290MOL0     H39150  10.892   1.418  10.767  0.3377 -1.2960 -0.0664
  291MOL0     O39151   3.463   7.546   1.012 -0.3881 -0.5127  0.6028
  291MOL0     C39152   3.541   7.560   1.103 -1.0974  0.0573  0.2782
  291MOL0     O39153   3.615   7.672   1.133  0.1293 -0.5378  0.3139
  291MOL0     C39154   3.595   7.781   1.050  0.0486  0.4559 -0.8945
  291MOL0     C39155   3.567   7.904   1.111  0.3741 -0.7174 -0.3213
  291MOL0     C39156   3.520   8.018   1.042 -0.8864  0.3048 -0.0309
  291MOL0     C39157   3.525   8.009   0.899 -0.2776 -0.6945 -0.3359
  291MOL0     O39158   3.495   8.125   0.825 -0.7090 -0.2340  0.7270
  291MOL0     C39159   3.367   8.144   0.762  0.0652  0.5394  0.2534
  291MOL0     C39160   3.301   8.278   0.793 -0.5165 -0.7240  0.4623
  291MOL0     C39161   3.356   8.412   0.723 -0.8917  0.4463  0.0140
  291MOL0     C39162   3.461   8.494   0.800  0.3182 -0.5454  0.1899
  291MOL0     C39163   3.554   8.574   0.703  0.9470  0.2858 -0.3906
  291MOL0     C39164   3.496   8.709   0.662 -0.6341 -0.0310  0.3294
  291MOL0     C39165   3.574   8.776   0.560  0.3314 -0.5930  0.1574
  291MOL0     C39166   3.541   8.920   0.535  0.2222  0.0334 -0.9427
  291MOL0     N39167   3.616   9.007   0.622 -0.8036  0.0239  0.1734
  291MOL0     C39168   3.731   9.077   0.589  0.5048 -0.8179 -0.1288
  291MOL0     C39169   3.773   9.145   0.699 -0.2625  0.2625  0.1223
  291MOL0     C39170   3.917   9.207   0.715  0.1323  0.7807 -0.1617
  291MOL0     C39171   3.897   9.368   0.727 -0.2229  0.3398 -0.3286
  291MOL0     C39172   3.984   9.439   0.829 -0.2023  1.1006 -0.2932
  291MOL0     C39173   3.954   9.390   0.968 -0.7213  0.1362 -0.2943
  291MOL0     O39174   3.825   9.435   1.017  0.0059  0.5118  0.3157
  291MOL0     C39175   3.815   9.562   1.064 -0.3075 -0.8360 -0.0800
  291MOL0     C39176   3.917   9.657   1.077  0.0601  0.3617  0.4856
  291MOL0     C39177   3.892   9.774   1.142  0.1302 -1.2195 -0.7935
  291MOL0     C39178   3.754   9.818   1.172  0.2096 -0.0486 -0.5568
  291MOL0     C39179   3.735   9.937   1.259  0.1433  0.7643  0.2201
  291MOL0     O39180   3.629   9.927   1.349 -0.1498 -0.7209  0.4655
  291MOL0     C39181   3.609  10.040   1.417 -0.0262 -0.6273  0.7625
  291MOL0     C39182   3.663  10.053   1.542 -0.4509  0.1397 -0.3709
  291MOL0     C39183   3.669  10.169   1.612 -0.3238 -0.3900  0.1374
  291MOL0     C39184   3.593  10.279   1.574  0.2600  1.4316  0.3282
  291MOL0     O39185   3.582  10.395   1.637 -0.6480 -0.2160 -0.5623
  291MOL0     C39186   3.690  10.450   1.708  0.5715  0.0121  0.2488
  291MOL0     C39187   3.647  10.578   1.772  0.8045 -0.2876 -0.9087
  291MOL0     C39188   3.769  10.651   1.820 -0.4587  0.3152  0.1307
  291MOL0     C39189   3.733  10.760   1.933  0.5402  0.8892 -0.0898
  291MOL0     C39190   3.868  10.833   1.972  0.2054  0.8719  0.2074
  291MOL0     C39191   3.834  10.901   2.113 -0.7335  0.1950 -0.1228
  291MOL0     C39192   3.946  10.998   2.161 -0.8074  0.4425 -0.3533
  291MOL0     C39193   3.900  11.073   2.274  0.7579 -0.3081  0.0945
  291MOL0    Cl39194   3.791  10.982   2.391  0.3145 -0.5301 -0.0559
  291MOL0     C39195   3.523  10.265   1.453  0.3679 -0.2035 -0.7746
  291MOL0     C39196   3.536  10.148   1.372  0.1184  0.1708 -0.4527
  291MOL0     O39197   3.818  10.022   1.247  0.1576 -0.5773 -0.1901
  291MOL0     C39198   3.647   9.721   1.151  1.0606 -0.7836  0.6694
  291MOL0     C39199   3.684   9.599   1.095  1.3089  0.2985  0.9845
  291MOL0     N39200   3.676   9.123   0.792 -0.5375  0.0404 -0.2282
  291MOL0     N39201   3.588   9.046   0.744  0.4286  0.0831 -0.6103
  291MOL0     C39202   3.571   7.892   0.839  0.3319  0.1717 -0.3265
  291MOL0     C39203   3.597   7.778   0.909  0.5901 -0.0148  0.1129
  291MOL0     C39204   3.568   7.445   1.201  0.4849  0.1533  0.3035
  291MOL0     C39205   3.672   7.460   1.295  0.1423 -0.6162  0.0333
  291MOL0     C39206   3.725   7.358   1.378  0.5690 -1.2624  0.0136
  291MOL0     C39207   3.662   7.235   1.375  0.8823 -0.5352  0.6466
  291MOL0     O39208   3.690   7.133   1.463  0.7571 -0.5157  0.9088
  291MOL0     C39209   3.794   7.134   1.568 -0.4718 -1.0301  0.7746
  291MOL0     C39210   3.853   7.002   1.588  0.2183  0.4594  0.6646
  291MOL0     C39211   3.746   6.908   1.654  0.0063 -1.0989 -0.2592
  291MOL0     C39212   3.797   6.775   1.712 -0.2361  0.0168 -0.7570
  291MOL0     C39213   3.850   6.804   1.842  0.3570 -0.4298 -0.1702
  291MOL0     C39214   3.880   6.827   1.956  0.3159 -0.5345 -0.5849
  291MOL0     C39215   3.549   7.216   1.294  0.9264 -0.4538 -0.5130
  291MOL0     C39216   3.497   7.319   1.203 -0.9166  2.2416 -0.3509
  291MOL0     C39217   3.382   7.284   1.113 -1.2287  0.5274  0.0580
  291MOL0     H39218   3.562   7.911   1.220  0.7984  1.2847 -0.3945
  291MOL0     H39219   3.488   8.110   1.089 -0.1041  0.8143 -0.4824
  291MOL0     H39220   3.376   8.132   0.653 -2.1823 -1.5440  0.1919
  291MOL0     H39221   3.304   8.062   0.797 -3.9442  2.6009 -1.4510
  291MOL0     H39222   3.323   8.291   0.899  2.6889  1.8141 -0.3231
  291MOL0     H39223   3.193   8.278   0.775 -0.4526  1.1456 -0.1015
  291MOL0     H39224   3.274   8.483   0.708  0.0684  1.9996  1.6541
  291MOL0     H39225   3.397   8.376   0.628 -1.4113  0.5688 -0.2567
  291MOL0     H39226   3.421   8.568   0.870  4.5987  2.3889 -0.0457
  291MOL0     H39227   3.530   8.421   0.845  0.0661  0.0992  1.6707
  291MOL0     H39228   3.658   8.579   0.737  0.9355 -1.7495  0.1207
  291MOL0     H39229   3.561   8.516   0.610  3.1104  2.6377 -1.8148
  291MOL0     H39230   3.394   8.699   0.624 -0.8678  2.3249  0.1884
  291MOL0     H39231   3.501   8.771   0.752  0.6969 -0.9665  0.9324
  291MOL0     H39232   3.557   8.728   0.464  1.2922  2.5277 -1.7138
  291MOL0     H39233   3.680   8.770   0.585  0.4772  0.4768 -0.1754
  291MOL0     H39234   3.574   8.933   0.432 -1.9508 -4.1184 -2.3951
  291MOL0     H39235   3.432   8.935   0.535  0.1178 -0.6385 -0.1217
  291MOL0     H39236   3.780   9.078   0.492 -0.2207  1.5878 -0.5350
  291MOL0     H39237   3.964   9.153   0.798 -1.4754 -0.4885 -0.0320
  291MOL0     H39238   3.975   9.181   0.626  0.8602 -0.2858  0.6099
  291MOL0     H39239   3.924   9.399   0.626 -0.9139 -3.5097 -1.8709
  291MOL0     H39240   3.794   9.399   0.750 -0.0255 -0.9426  2.7130
  291MOL0     H39241   3.981   9.549   0.827  2.4068  1.3492  2.4028
  291MOL0     H39242   4.090   9.422   0.807 -0.8757 -1.6588 -1.9322
  291MOL0     H39243   4.033   9.427   1.034  0.1924  1.1601 -1.9048
  291MOL0     H39244   3.958   9.281   0.962 -1.6650  0.1839 -3.6526
  291MOL0     H39245   4.021   9.638   1.052  0.2938  1.2544  0.7351
  291MOL0     H39246   3.967   9.852   1.149 -2.3203  1.1669  1.5227
  291MOL0     H39247   3.713   9.965   1.579  0.8548  1.3334  0.8104
  291MOL0     H39248   3.731  10.165   1.701  0.4593  2.9501 -0.1173
  291MOL0     H39249   3.725  10.383   1.787  2.1716 -0.5948 -0.9349
  291MOL0     H39250   3.770  10.457   1.634  3.3027 -2.6496  2.6681
  291MOL0     H39251   3.586  10.639   1.704  0.8605 -0.4165 -1.0723
  291MOL0     H39252   3.583  10.556   1.858  1.9034 -0.4800 -0.1246
  291MOL0     H39253   3.854  10.597   1.862  2.7488  3.7116 -1.4686
  291MOL0     H39254   3.807  10.704   1.733  3.8543  1.4684  2.4284
  291MOL0     H39255   3.682  10.708   2.015  2.0381  0.2189  0.4574
  291MOL0     H39256   3.650  10.816   1.889  0.1407  0.2037 -0.2262
  291MOL0     H39257   3.884  10.911   1.898  3.0065  2.3389  2.1590
  291MOL0     H39258   3.950  10.761   1.984 -1.3684 -0.6129  2.8475
  291MOL0     H39259   3.753  10.971   2.091 -1.1271 -0.6242 -1.4238
  291MOL0     H39260   3.808  10.823   2.186 -0.6623  2.7498  2.8240
  291MOL0     H39261   3.977  11.060   2.077  0.6098 -0.9426 -0.9108
  291MOL0     H39262   4.039  10.946   2.188  0.5464  0.3771 -4.3516
  291MOL0     H39263   3.990  11.122   2.312  1.6085 -1.3055 -0.5808
  291MOL0     H39264   3.846  11.153   2.222  2.9466  0.0734 -1.7353
  291MOL0     H39265   3.457  10.343   1.417 -1.1193 -2.0440 -2.3138
  291MOL0     H39266   3.484  10.147   1.276  1.6517 -0.1489 -1.3161
  291MOL0     H39267   3.543   9.739   1.179  1.1980  0.7227  0.2995
  291MOL0     H39268   3.602   9.532   1.073 -0.1017  1.7740  1.6114
  291MOL0     H39269   3.568   7.874   0.732 -2.9235 -4.1013  0.2279
  291MOL0     H39270   3.619   7.685   0.859  2.2654 -0.8580  2.2923
  291MOL0     H39271   3.718   7.558   1.305 -1.6065  0.2530 -0.0542
  291MOL0     H39272   3.808   7.387   1.441  0.5932 -0.7652 -0.2440
  291MOL0     H39273   3.749   7.171   1.661 -1.5909 -0.6302  0.0988
  291MOL0     H39274   3.878   7.198   1.538 -1.0814  0.2458  1.6554
  291MOL0     H39275   3.943   7.007   1.650 -0.4318  4.8459  1.6271
  291MOL0     H39276   3.886   6.964   1.491  3.4367  1.4676  1.2434
  291MOL0     H39277   3.678   6.888   1.570 -2.4432 -3.8632  2.1621
  291MOL0     H39278   3.686   6.961   1.728  0.8884  1.7013 -1.4054
  291MOL0     H39279   3.714   6.710   1.742 -0.4412  0.7274  0.2781
  291MOL0     H39280   3.871   6.720   1.653 -0.5862  1.5753 -2.7590
  291MOL0     H39281   3.907   6.847   2.058 -0.2007  3.2525 -1.0445
  291MOL0     H39282   3.504   7.117   1.301  0.5524 -0.1622  3.0809
  291MOL0     H39283   3.319   7.373   1.107 -1.0500  0.7097  0.7688
  291MOL0     H39284   3.422   7.246   1.018  0.7222 -1.0161  1.3940
  291MOL0     H39285   3.326   7.204   1.162 -0.4158 -0.5614 -0.7334
  292MOL0     O39286   6.493   5.762   8.746 -0.3070 -0.3035 -0.3526
  292MOL0     C39287   6.509   5.659   8.806  0.4014  0.4875  1.1959
  292MOL0     O39288   6.460   5.536   8.756 -0.4632  0.5668 -0.4351
  292MOL0     C39289   6.398   5.518   8.639  0.0445 -0.0504 -0.4811
  292MOL0     C39290   6.407   5.387   8.591  0.8425  0.2145 -0.1598
  292MOL0     C39291   6.352   5.355   8.465  1.0540 -0.5327  0.8028
  292MOL0     C39292   6.261   5.446   8.400 -0.4628 -0.5558 -1.7773
  292MOL0     O39293   6.187   5.394   8.302 -0.1082 -0.3100  0.0740
  292MOL0     C39294   6.164   5.487   8.190 -0.6633 -0.0534 -0.4146
  292MOL0     C39295   6.150   5.405   8.065  0.6442 -0.2592  0.8577
  292MOL0     C39296   6.119   5.488   7.936 -0.2465  1.1528 -0.4856
  292MOL0     C39297   6.225   5.590   7.904 -0.5939 -0.3896 -0.0778
  292MOL0     C39298   6.170   5.708   7.814 -0.7875  1.4269 -0.2314
  292MOL0     C39299   6.267   5.760   7.716 -0.7807  0.1910 -0.2203
  292MOL0     C39300   6.395   5.814   7.781 -0.5257  0.4493 -0.0008
  292MOL0     C39301   6.500   5.850   7.675  0.4988 -0.4069 -0.4102
  292MOL0     N39302   6.501   5.762   7.552  0.2343  0.3618  0.0731
  292MOL0     C39303   6.452   5.792   7.419 -0.3300  0.9375 -0.1730
  292MOL0     C39304   6.506   5.704   7.339 -0.2713  0.9322  0.3679
  292MOL0     C39305   6.495   5.722   7.188 -0.0170  0.4320 -0.6444
  292MOL0     C39306   6.616   5.791   7.125 -0.9887  0.4785  1.2235
  292MOL0     C39307   6.743   5.702   7.083 -0.2259  0.6513 -0.2589
  292MOL0     C39308   6.842   5.661   7.187  0.1435  0.0277  0.5841
  292MOL0     O39309   6.906   5.546   7.146 -0.3470  0.4834 -0.3405
  292MOL0     C39310   6.869   5.415   7.194 -0.2903  0.3249  0.8551
  292MOL0     C39311   6.783   5.389   7.300 -0.8808 -0.0882 -0.0397
  292MOL0     C39312   6.749   5.256   7.334  0.1153 -1.1223 -0.6267
  292MOL0     C39313   6.806   5.142   7.264 -0.0746 -0.1762 -0.3913
  292MOL0     C39314   6.768   5.008   7.313 -0.1831 -0.3698 -1.1074
  292MOL0     O39315   6.821   4.910   7.241  0.1546  0.8073 -0.1424
  292MOL0     C39316   6.832   4.779   7.292  0.7587  0.5256  0.6218
  292MOL0     C39317   6.773   4.672   7.224 -0.5798 -0.4720  0.7217
  292MOL0     C39318   6.760   4.548   7.280 -0.2964  0.0207 -0.5055
  292MOL0     C39319   6.833   4.526   7.399  0.4076 -0.8893  0.2872
  292MOL0     O39320   6.846   4.408   7.455 -0.3623  0.6587 -0.0369
  292MOL0     C39321   6.779   4.286   7.399 -0.0212  0.2480 -0.1866
  292MOL0     C39322   6.655   4.253   7.481 -0.4085 -0.1775 -0.2178
  292MOL0     C39323   6.547   4.176   7.405 -0.7586 -0.0312  0.2186
  292MOL0     C39324   6.606   4.048   7.323  0.1556 -0.1307 -0.2097
  292MOL0     C39325   6.509   3.986   7.234  1.3440  0.3559  0.1688
  292MOL0     C39326   6.571   3.919   7.109  0.1292 -0.3266 -0.5895
  292MOL0     C39327   6.689   3.820   7.137 -0.3382  0.3080 -0.0664
  292MOL0     C39328   6.717   3.731   7.023 -0.3603  0.3666 -0.1635
  292MOL0    Cl39329   6.606   3.596   7.010 -0.3937 -0.2417  0.3162
  292MOL0     C39330   6.887   4.632   7.474 -1.0915  0.5765  0.1081
  292MOL0     C39331   6.890   4.756   7.421 -0.5166  0.3337  0.1114
  292MOL0     O39332   6.688   4.987   7.409 -0.8678 -0.1427  0.6064
  292MOL0     C39333   6.884   5.173   7.155  0.0371 -0.2039  0.4132
  292MOL0     C39334   6.922   5.308   7.126  0.5370 -0.1662  1.0299
  292MOL0     N39335   6.562   5.602   7.408 -0.3667  0.7739 -0.5412
  292MOL0     N39336   6.564   5.637   7.541 -0.9939 -0.7382 -0.3256
  292MOL0     C39337   6.246   5.572   8.464 -0.0643  0.1902  0.0184
  292MOL0     C39338   6.323   5.612   8.574 -0.2583  0.4783 -0.3458
  292MOL0     C39339   6.553   5.640   8.954  0.0759 -0.3357  1.0965
  292MOL0     C39340   6.543   5.512   9.006  0.4836  0.4697 -0.5918
  292MOL0     C39341   6.586   5.486   9.134 -0.4662 -0.7038  0.1202
  292MOL0     C39342   6.661   5.579   9.206  0.1108  0.0609  0.8886
  292MOL0     O39343   6.708   5.547   9.333  0.1443 -0.6352  0.7336
  292MOL0     C39344   6.693   5.417   9.390  0.8740 -0.2268 -0.4253
  292MOL0     C39345   6.739   5.437   9.538  0.4911 -0.2275  0.3265
  292MOL0     C39346   6.691   5.307   9.610 -0.1448 -0.2261  0.2571
  292MOL0     C39347   6.780   5.289   9.731  0.0286  0.0016 -0.2238
  292MOL0     C39348   6.744   5.388   9.833  0.6235 -0.0103 -1.2277
  292MOL0     C39349   6.696   5.465   9.920 -0.2015  0.3620 -0.3219
  292MOL0     C39350   6.682   5.704   9.149  0.0910 -0.1842  0.2622
  292MOL0     C39351   6.618   5.740   9.027  0.1346 -0.1303 -0.1221
  292MOL0     C39352   6.622   5.888   8.982  1.0375 -0.9126 -0.9268
  292MOL0     H39353   6.465   5.323   8.657  1.9447  1.9023  0.5666
  292MOL0     H39354   6.355   5.261   8.411 -0.5282  0.0971 -0.4559
  292MOL0     H39355   6.080   5.550   8.221  0.6182  0.1842  2.9801
  292MOL0     H39356   6.242   5.563   8.187 -0.7417  0.0402 -0.0570
  292MOL0     H39357   6.066   5.339   8.089 -1.1145  1.8296  0.8330
  292MOL0     H39358   6.239   5.351   8.033  1.7517  2.7881 -1.8615
  292MOL0     H39359   6.022   5.537   7.926 -2.1151 -2.5376 -2.8308
  292MOL0     H39360   6.125   5.417   7.853  3.1723 -0.8959  1.2849
  292MOL0     H39361   6.281   5.631   7.988  1.4188 -0.3289 -1.3803
  292MOL0     H39362   6.306   5.553   7.840  1.4863  6.0306 -1.8977
  292MOL0     H39363   6.080   5.676   7.761 -0.3417 -3.1300  1.3682
  292MOL0     H39364   6.143   5.784   7.888 -2.1637  0.6677  0.0877
  292MOL0     H39365   6.291   5.675   7.651  2.5548 -0.5715  1.7917
  292MOL0     H39366   6.223   5.844   7.661 -1.3287  0.9472  1.3279
  292MOL0     H39367   6.441   5.748   7.855 -0.4172  1.0460  0.4772
  292MOL0     H39368   6.364   5.902   7.839  1.0994  2.0914 -1.4682
  292MOL0     H39369   6.480   5.955   7.650 -0.9671 -0.7763 -0.8345
  292MOL0     H39370   6.600   5.843   7.720 -0.0090 -0.7685  0.7049
  292MOL0     H39371   6.408   5.882   7.377  0.0892  0.0464 -2.7227
  292MOL0     H39372   6.485   5.623   7.142  0.7997  0.9677 -2.0291
  292MOL0     H39373   6.404   5.776   7.161 -0.7987 -1.3540 -1.7458
  292MOL0     H39374   6.579   5.834   7.032  2.2273 -1.7255 -1.3250
  292MOL0     H39375   6.659   5.869   7.188 -0.0883  1.3937 -0.4412
  292MOL0     H39376   6.805   5.741   7.002  3.0881  1.3991  2.4151
  292MOL0     H39377   6.694   5.612   7.046 -0.0886 -1.0360  3.2142
  292MOL0     H39378   6.785   5.659   7.280 -0.8534  1.2032  0.0271
  292MOL0     H39379   6.922   5.729   7.215 -0.5122  0.3112  1.8436
  292MOL0     H39380   6.747   5.470   7.364 -1.5104  0.2727 -0.8332
  292MOL0     H39381   6.700   5.228   7.427  3.1030 -0.8535  1.1710
  292MOL0     H39382   6.719   4.697   7.133 -0.4454 -1.1006  0.4595
  292MOL0     H39383   6.702   4.476   7.225 -1.7452 -1.6264  2.9444
  292MOL0     H39384   6.753   4.304   7.295 -0.0245  0.2666 -0.1822
  292MOL0     H39385   6.853   4.205   7.406  1.8602  2.0141  2.5970
  292MOL0     H39386   6.671   4.197   7.574  2.3646 -1.7413 -1.4971
  292MOL0     H39387   6.618   4.351   7.512 -4.9182 -2.0018  1.1069
  292MOL0     H39388   6.469   4.139   7.473 -3.2027 -2.0018 -3.3088
  292MOL0     H39389   6.502   4.248   7.336  0.4178  0.7651  0.2548
  292MOL0     H39390   6.650   3.971   7.387 -1.1178  0.1028  1.0066
  292MOL0     H39391   6.696   4.079   7.268 -0.1504 -0.4124 -0.8857
  292MOL0     H39392   6.440   4.064   7.200 -1.2545 -1.5037  0.8688
  292MOL0     H39393   6.453   3.912   7.292 -1.0605  1.7925 -0.1453
  292MOL0     H39394   6.490   3.859   7.067 -2.2987 -0.5063  3.7469
  292MOL0     H39395   6.599   3.990   7.031 -3.3094 -0.4596 -2.0893
  292MOL0     H39396   6.680   3.769   7.233  0.4820 -1.1826 -0.7404
  292MOL0     H39397   6.775   3.888   7.137 -0.1656  0.1110 -1.3289
  292MOL0     H39398   6.695   3.780   6.927  1.5183  1.9727  0.1581
  292MOL0     H39399   6.819   3.691   7.033 -0.9926 -1.4358 -0.5133
  292MOL0     H39400   6.948   4.613   7.562 -2.8130  0.6489  1.3603
  292MOL0     H39401   6.934   4.847   7.461 -2.4626  1.1254  0.5424
  292MOL0     H39402   6.903   5.085   7.096 -1.3622 -0.2257 -0.0496
  292MOL0     H39403   6.993   5.332   7.048 -1.6589 -0.6741 -1.2495
  292MOL0     H39404   6.177   5.641   8.417  0.6004 -0.2096 -1.5980
  292MOL0     H39405   6.306   5.711   8.615 -2.3466 -0.6533  1.8418
  292MOL0     H39406   6.496   5.429   8.954 -1.3907  0.4572  1.0007
  292MOL0     H39407   6.565   5.386   9.171  0.7285 -1.0907 -0.2043
  292MOL0     H39408   6.749   5.339   9.337  1.3271  1.1962 -2.1502
  292MOL0     H39409   6.589   5.385   9.380  0.0774  1.5647  1.4430
  292MOL0     H39410   6.690   5.521   9.588  1.2679  0.0768  0.5928
  292MOL0     H39411   6.845   5.465   9.540  0.2156  1.4750 -2.8906
  292MOL0     H39412   6.703   5.226   9.538  2.1494 -0.1933  0.5337
  292MOL0     H39413   6.588   5.318   9.646 -1.2045 -1.0589 -2.3280
  292MOL0     H39414   6.751   5.193   9.776 -3.1489  0.9343 -0.0037
  292MOL0     H39415   6.884   5.295   9.700 -0.4667  4.7126 -1.7621
  292MOL0     H39416   6.656   5.534   9.992 -1.5655 -0.4639 -0.2562
  292MOL0     H39417   6.742   5.776   9.204  0.7617 -0.9750  0.5910
  292MOL0     H39418   6.520   5.920   8.959  0.6198  1.1166  2.9890
  292MOL0     H39419   6.664   5.942   9.067  2.6123 -0.8598 -1.7032
  292MOL0     H39420   6.688   5.888   8.894  1.0352 -3.7099 -1.0101
  293MOL0     O39421  10.360   5.650   7.037 -1.0088 -0.6699 -0.1134
  293MOL0     C39422  10.407   5.665   7.149 -0.2386  0.4793 -0.5140
  293MOL0     O39423  10.370   5.763   7.228  0.0138  0.3185  0.1536
  293MOL0     C39424  10.296   5.873   7.178 -0.8000 -0.9445 -0.1778
  293MOL0     C39425  10.170   5.860   7.111 -0.8902 -0.1084 -0.3571
  293MOL0     C39426  10.109   5.965   7.060 -0.8485  0.0748  0.3517
  293MOL0     C39427  10.162   6.097   7.073  0.2555 -0.4376 -0.6701
  293MOL0     O39428  10.108   6.213   7.030  0.6215 -0.1675 -0.3810
  293MOL0     C39429   9.959   6.216   7.050  0.0506 -0.1445 -0.3027
  293MOL0     C39430   9.895   6.352   7.014  0.5508 -0.4570 -0.6643
  293MOL0     C39431   9.951   6.404   6.874  0.2360 -0.7816 -1.3150
  293MOL0     C39432   9.884   6.537   6.818  0.2834  0.4726 -0.0055
  293MOL0     C39433   9.727   6.519   6.809 -0.0341  0.5252 -0.5364
  293MOL0     C39434   9.679   6.386   6.747 -1.0516 -0.6568 -1.0497
  293MOL0     C39435   9.525   6.375   6.737  0.4736 -0.7705  0.3470
  293MOL0     C39436   9.466   6.399   6.590  0.4121 -0.3407 -0.6212
  293MOL0     N39437   9.322   6.370   6.582  0.4793  0.0635  0.2728
  293MOL0     C39438   9.230   6.469   6.531 -0.0714 -0.0477  0.1280
  293MOL0     C39439   9.111   6.407   6.514 -0.7182 -0.1475 -0.6120
  293MOL0     C39440   8.986   6.468   6.459  0.0983  0.2426  0.0593
  293MOL0     C39441   8.914   6.575   6.532 -0.2938  0.4081 -0.6129
  293MOL0     C39442   8.928   6.578   6.682  0.0650 -0.1651 -0.0509
  293MOL0     C39443   8.795   6.610   6.755  0.0161  0.4246 -1.1033
  293MOL0     O39444   8.800   6.599   6.899  0.5857 -0.8251  0.2217
  293MOL0     C39445   8.832   6.718   6.973 -0.1332  0.0929  1.2818
  293MOL0     C39446   8.852   6.840   6.912 -0.6342  1.0067  0.0115
  293MOL0     C39447   8.863   6.949   7.000  0.0038 -0.3882 -0.0417
  293MOL0     C39448   8.857   6.945   7.140  0.1489  0.8899  0.2121
  293MOL0     C39449   8.858   7.069   7.221 -0.2093  0.6036 -0.4147
  293MOL0     O39450   8.830   7.052   7.351 -0.2193  0.8071  0.7216
  293MOL0     C39451   8.790   7.146   7.442 -0.4874 -0.5557  0.1268
  293MOL0     C39452   8.717   7.265   7.413  1.3984 -0.4448  0.3640
  293MOL0     C39453   8.669   7.346   7.526  0.0439  0.3538  0.0430
  293MOL0     C39454   8.699   7.310   7.660 -0.6038  0.3478  0.3246
  293MOL0     O39455   8.672   7.386   7.773 -0.1350 -0.9864 -0.3717
  293MOL0     C39456   8.618   7.518   7.760  0.0606 -0.2169  0.0402
  293MOL0     C39457   8.725   7.615   7.755 -0.3991 -1.1197 -0.5481
  293MOL0     C39458   8.697   7.765   7.773  0.5126 -1.0645 -0.4876
  293MOL0     C39459   8.634   7.815   7.898 -0.1587 -0.1960  0.7717
  293MOL0     C39460   8.635   7.967   7.894  0.2097 -0.1510 -0.6285
  293MOL0     C39461   8.627   8.037   8.033 -0.9898 -0.3753  0.9582
  293MOL0     C39462   8.566   7.970   8.152 -0.1133  0.0670  0.2717
  293MOL0     C39463   8.409   7.960   8.152  0.4438  0.3506  0.7937
  293MOL0    Cl39464   8.330   8.064   8.029 -0.0607  0.1879 -0.1364
  293MOL0     C39465   8.774   7.193   7.687  0.8714 -0.7273 -0.2310
  293MOL0     C39466   8.819   7.119   7.579  0.3086  0.2799 -0.3939
  293MOL0     O39467   8.879   7.178   7.167  0.4904  1.1027  0.1329
  293MOL0     C39468   8.854   6.820   7.198 -0.1148  1.3555 -0.2364
  293MOL0     C39469   8.840   6.715   7.117  0.4000  0.1087 -1.0173
  293MOL0     N39470   9.131   6.282   6.569  0.6296  0.7254  0.4612
  293MOL0     N39471   9.250   6.259   6.609  0.4970 -0.3004 -0.4816
  293MOL0     C39472  10.287   6.108   7.147  0.7269 -0.0011  0.3164
  293MOL0     C39473  10.353   5.996   7.200  1.0391 -0.6248 -0.0365
  293MOL0     C39474  10.530   5.589   7.186 -0.3071  1.5856 -1.0120
  293MOL0     C39475  10.568   5.482   7.097 -0.2343 -0.8307 -0.4389
  293MOL0     C39476  10.697   5.419   7.103  0.9066  0.5119  0.4706
  293MOL0     C39477  10.786   5.457   7.187 -0.1675 -0.8877 -0.2636
  293MOL0     O39478  10.902   5.389   7.181  0.2180  0.2062  0.5031
  293MOL0     C39479  11.016   5.439   7.235 -0.7842  0.1844  0.0175
  293MOL0     C39480  11.041   5.386   7.380 -1.2327  0.7929 -0.7901
  293MOL0     C39481  11.143   5.456   7.463  0.2101 -0.5159 -0.2140
  293MOL0     C39482  11.095   5.594   7.517  1.0894  0.4255  0.1191
  293MOL0     C39483  10.962   5.605   7.581  0.2338 -0.2728  0.3215
  293MOL0     C39484  10.845   5.624   7.622 -0.8051  0.0874 -0.8190
  293MOL0     C39485  10.753   5.562   7.282  0.4711  0.1471  0.2585
  293MOL0     C39486  10.632   5.627   7.283  0.4508 -0.2231  0.6538
  293MOL0     C39487  10.624   5.739   7.383  0.2279  0.0937  1.3920
  293MOL0     H39488  10.128   5.760   7.097 -0.2551 -0.4493  0.1200
  293MOL0     H39489  10.011   5.951   7.015 -0.1692 -2.7382 -0.4315
  293MOL0     H39490   9.917   6.150   6.974 -3.0830  2.3107 -0.9029
  293MOL0     H39491   9.946   6.188   7.154  3.4517  0.4981  0.4298
  293MOL0     H39492   9.934   6.423   7.088 -0.1438 -0.0281 -0.6965
  293MOL0     H39493   9.786   6.354   7.026  0.7412  3.3393  2.5191
  293MOL0     H39494   9.932   6.322   6.804 -1.2648  0.3102 -2.2510
  293MOL0     H39495  10.060   6.408   6.872  0.3844 -0.4290  1.9150
  293MOL0     H39496   9.906   6.623   6.882 -2.2329  0.8537  0.4576
  293MOL0     H39497   9.929   6.550   6.719  1.8180 -1.0634  0.4321
  293MOL0     H39498   9.670   6.530   6.901 -0.3412 -1.7688 -0.3781
  293MOL0     H39499   9.690   6.599   6.745 -0.0664  1.9662  1.2044
  293MOL0     H39500   9.724   6.369   6.649 -0.2239  0.8318 -0.9570
  293MOL0     H39501   9.711   6.300   6.807 -1.6076 -1.1582 -1.4615
  293MOL0     H39502   9.473   6.447   6.801  1.0554  1.5891 -1.7069
  293MOL0     H39503   9.494   6.274   6.766  1.3976 -1.7876 -1.9567
  293MOL0     H39504   9.483   6.499   6.549 -2.8116  0.7280  0.3730
  293MOL0     H39505   9.513   6.334   6.515  1.0767  1.5659 -1.9439
  293MOL0     H39506   9.256   6.568   6.494  1.9711 -0.5745  0.0565
  293MOL0     H39507   9.013   6.503   6.359  1.7699 -0.9162  0.0692
  293MOL0     H39508   8.913   6.387   6.444  2.4866 -1.9213 -0.7362
  293MOL0     H39509   8.950   6.671   6.493  0.2988  0.4805  0.0954
  293MOL0     H39510   8.808   6.563   6.510  0.1974 -3.2383 -1.5677
  293MOL0     H39511   9.006   6.651   6.704  1.1072 -1.0438 -0.6879
  293MOL0     H39512   8.968   6.481   6.714 -2.2526 -0.9054  0.7738
  293MOL0     H39513   8.717   6.537   6.732 -1.4763  1.8494 -0.7693
  293MOL0     H39514   8.766   6.710   6.718 -1.8731  0.7159  0.9437
  293MOL0     H39515   8.866   6.859   6.806  0.5178 -0.1807 -0.0608
  293MOL0     H39516   8.884   7.042   6.947  3.3305 -0.7818  0.3590
  293MOL0     H39517   8.698   7.311   7.316  0.6656  0.8828  1.0987
  293MOL0     H39518   8.639   7.448   7.508 -0.6495  0.3025  0.8298
  293MOL0     H39519   8.543   7.530   7.681  0.0624 -1.4048 -0.1621
  293MOL0     H39520   8.554   7.538   7.846 -2.9648 -2.5344 -1.4842
  293MOL0     H39521   8.793   7.581   7.834  1.2150  4.0844  0.7119
  293MOL0     H39522   8.773   7.601   7.658  2.6442 -1.0099  0.8474
  293MOL0     H39523   8.792   7.819   7.765 -1.8078  3.7631  1.0752
  293MOL0     H39524   8.634   7.792   7.687 -0.9689 -0.5676  0.7109
  293MOL0     H39525   8.694   7.770   7.978  2.3412 -0.3114 -1.0525
  293MOL0     H39526   8.529   7.782   7.902 -0.1390 -0.2751  0.6181
  293MOL0     H39527   8.544   7.991   7.837  0.6364  0.3630 -1.1070
  293MOL0     H39528   8.715   8.024   7.845 -1.3661  0.7280 -2.3189
  293MOL0     H39529   8.727   8.064   8.068  0.3183 -1.3012 -1.7433
  293MOL0     H39530   8.575   8.130   8.008  0.6183 -0.3041 -2.7783
  293MOL0     H39531   8.607   8.020   8.240  1.3644 -2.0530  0.8444
  293MOL0     H39532   8.604   7.870   8.174  2.9626  1.7871  3.6879
  293MOL0     H39533   8.375   7.857   8.140  1.8668  0.0486 -1.1829
  293MOL0     H39534   8.360   7.990   8.245 -1.3413 -2.4916  0.8777
  293MOL0     H39535   8.817   7.172   7.784  0.4611 -0.2013  0.0707
  293MOL0     H39536   8.877   7.028   7.594  2.0523  1.4076 -0.0681
  293MOL0     H39537   8.880   6.809   7.303  1.7896 -0.0188 -0.7970
  293MOL0     H39538   8.837   6.617   7.164  3.4715  1.4381  2.3366
  293MOL0     H39539  10.324   6.211   7.145 -0.4151  0.4058 -1.1432
  293MOL0     H39540  10.443   6.007   7.260  2.4754  0.1684 -2.2285
  293MOL0     H39541  10.505   5.443   7.017  0.4168 -1.3318 -0.7118
  293MOL0     H39542  10.719   5.346   7.026  0.8706  2.2743 -1.2861
  293MOL0     H39543  11.020   5.548   7.229  0.2355  0.3903  2.8384
  293MOL0     H39544  11.090   5.397   7.167  0.5250 -1.6081  2.3802
  293MOL0     H39545  11.062   5.279   7.384  1.1984  1.2772  1.4189
  293MOL0     H39546  10.943   5.396   7.427 -0.9661  0.3563 -0.1399
  293MOL0     H39547  11.235   5.464   7.404  0.7508  1.0940  0.7777
  293MOL0     H39548  11.175   5.387   7.541 -0.1239 -0.7038 -0.2450
  293MOL0     H39549  11.165   5.637   7.589 -0.9019 -0.6921  2.8646
  293MOL0     H39550  11.095   5.669   7.437 -2.0690  2.7276  2.0335
  293MOL0     H39551  10.746   5.650   7.652 -0.4543 -0.0072  0.4832
  293MOL0     H39552  10.830   5.574   7.358  0.5602  0.8505  0.0728
  293MOL0     H39553  10.524   5.730   7.427  0.0165 -2.0706  0.5830
  293MOL0     H39554  10.701   5.730   7.461  1.0726  0.9269  0.6742
  293MOL0     H39555  10.635   5.839   7.339  0.6591 -1.5944 -2.7099
  294MOL0     O39556   9.098   5.292   7.263  0.5629 -0.6640  0.2205
  294MOL0     C39557   9.037   5.280   7.157 -0.3952 -0.7098 -0.6581
  294MOL0     O39558   9.088   5.232   7.044  0.4608  0.2207  0.4666
  294MOL0     C39559   9.214   5.192   7.038 -0.0138  0.7624 -0.7996
  294MOL0     C39560   9.309   5.278   6.981 -0.8217 -0.5987 -0.1470
  294MOL0     C39561   9.439   5.232   6.963 -0.2098  0.0133  0.0562
  294MOL0     C39562   9.480   5.105   7.004 -0.3623  0.6095 -0.2147
  294MOL0     O39563   9.598   5.042   6.975 -0.0212 -0.2277  0.7192
  294MOL0     C39564   9.706   5.115   6.924  0.1408  0.3256 -0.2566
  294MOL0     C39565   9.821   5.036   6.888  0.2495  0.6144  0.4198
  294MOL0     C39566   9.925   5.125   6.823  0.1947 -0.0429  0.2232
  294MOL0     C39567  10.043   5.069   6.742 -0.0555  0.3056  0.7338
  294MOL0     C39568  10.112   5.178   6.651 -0.0108  0.4080 -0.4883
  294MOL0     C39569  10.230   5.249   6.703 -0.2795  0.9304 -1.2731
  294MOL0     C39570  10.282   5.334   6.589  0.0594 -0.8756 -0.1011
  294MOL0     C39571  10.412   5.406   6.634  0.1816 -0.3320  0.0682
  294MOL0     N39572  10.542   5.337   6.646 -0.4722  0.2131  0.3206
  294MOL0     C39573  10.593   5.247   6.551 -0.3628  1.0973 -0.1533
  294MOL0     C39574  10.710   5.199   6.601 -0.0684  0.0223 -0.6929
  294MOL0     C39575  10.817   5.128   6.532 -0.9467  0.6792 -0.4365
  294MOL0     C39576  10.941   5.220   6.509  0.8324  0.5552 -0.1297
  294MOL0     C39577  10.915   5.348   6.425 -0.6920  0.0088 -0.9718
  294MOL0     C39578  10.926   5.323   6.271 -1.0711 -0.3461 -0.1297
  294MOL0     O39579  10.837   5.217   6.225 -0.2019  0.2743 -1.7487
  294MOL0     C39580  10.705   5.248   6.211  0.9564 -0.1699  0.0744
  294MOL0     C39581  10.648   5.369   6.185  0.2484  0.0654  0.3575
  294MOL0     C39582  10.506   5.389   6.193 -0.3113  0.4308 -0.0758
  294MOL0     C39583  10.419   5.276   6.210 -0.2742  0.2152  0.0044
  294MOL0     C39584  10.274   5.299   6.209 -0.2829  0.2915 -0.7338
  294MOL0     O39585  10.223   5.428   6.202 -0.3022  0.6597  1.0344
  294MOL0     C39586  10.088   5.441   6.206  0.1957  0.6101 -0.5373
  294MOL0     C39587  10.008   5.377   6.301  0.4386  0.6431 -0.2050
  294MOL0     C39588   9.870   5.403   6.305  1.5970 -0.0729 -0.2516
  294MOL0     C39589   9.808   5.497   6.221 -0.4493  0.7436  0.7917
  294MOL0     O39590   9.672   5.536   6.201 -0.4040 -0.3678  0.3634
  294MOL0     C39591   9.589   5.445   6.255  1.0050  0.3193  0.8014
  294MOL0     C39592   9.448   5.469   6.193  0.4916  0.1983  0.3233
  294MOL0     C39593   9.358   5.542   6.298 -0.6964  0.3824  0.8254
  294MOL0     C39594   9.224   5.555   6.239  0.8242 -1.1117  0.0206
  294MOL0     C39595   9.113   5.597   6.337 -0.2648 -0.4075  1.0740
  294MOL0     C39596   8.967   5.569   6.286 -0.7074  0.1186 -0.5062
  294MOL0     C39597   8.956   5.616   6.136  0.7170  1.2329 -1.4442
  294MOL0     C39598   8.808   5.614   6.101  0.5337  0.1273 -0.7754
  294MOL0    Cl39599   8.723   5.749   6.187  0.3655 -0.3436 -0.5497
  294MOL0     C39600   9.897   5.559   6.133 -0.0269  0.1208  0.5248
  294MOL0     C39601  10.033   5.536   6.129 -0.4022 -0.0293  1.2846
  294MOL0     O39602  10.215   5.197   6.198  0.1766 -0.0673  0.2632
  294MOL0     C39603  10.484   5.148   6.219 -0.8252 -1.3222  0.1322
  294MOL0     C39604  10.624   5.138   6.208 -0.5508  0.5141  0.1051
  294MOL0     N39605  10.722   5.250   6.736 -0.2993 -0.4001 -0.2110
  294MOL0     N39606  10.619   5.332   6.755  0.1672  0.7183  0.4319
  294MOL0     C39607   9.395   5.033   7.082 -0.9955  0.0971  0.2150
  294MOL0     C39608   9.262   5.071   7.094  0.3464  0.8850  0.4673
  294MOL0     C39609   8.890   5.303   7.159 -0.5832 -0.0392 -0.8774
  294MOL0     C39610   8.808   5.207   7.093  0.4692 -0.2660  0.2491
  294MOL0     C39611   8.671   5.218   7.097 -0.1658 -1.3627 -0.2168
  294MOL0     C39612   8.612   5.313   7.176 -0.7663 -0.5552 -0.5826
  294MOL0     O39613   8.473   5.312   7.181 -0.1276 -0.6582 -0.2679
  294MOL0     C39614   8.433   5.431   7.114  0.0593 -0.3148  1.6328
  294MOL0     C39615   8.282   5.458   7.124 -0.8060 -0.3592 -0.0958
  294MOL0     C39616   8.239   5.591   7.066 -1.0409 -0.1430  0.0057
  294MOL0     C39617   8.273   5.710   7.172 -0.2789  0.0566  0.3344
  294MOL0     C39618   8.206   5.686   7.302  0.0617  1.0689 -0.1387
  294MOL0     C39619   8.144   5.668   7.405 -0.8789  0.1335 -0.4219
  294MOL0     C39620   8.688   5.398   7.252 -0.5527  0.1396 -0.0406
  294MOL0     C39621   8.827   5.400   7.239 -0.1164  0.5242  0.0617
  294MOL0     C39622   8.896   5.503   7.319  0.4691 -0.7772  0.5624
  294MOL0     H39623   9.293   5.382   6.955 -0.2816 -0.6111 -0.5468
  294MOL0     H39624   9.514   5.292   6.912  0.5740 -2.1501 -1.4848
  294MOL0     H39625   9.678   5.168   6.833 -1.8193  0.4423  0.3709
  294MOL0     H39626   9.729   5.192   6.998 -2.0236 -1.9249  3.0479
  294MOL0     H39627   9.806   4.958   6.813  0.8757  1.5537 -0.6965
  294MOL0     H39628   9.856   4.987   6.980 -1.1063 -1.1057  0.0745
  294MOL0     H39629   9.960   5.199   6.896 -0.1178  0.5065 -0.1787
  294MOL0     H39630   9.864   5.175   6.747 -2.5672 -0.5272  1.9808
  294MOL0     H39631  10.115   5.029   6.814  0.2901 -3.3160 -1.3663
  294MOL0     H39632  10.006   4.986   6.681  2.0869  1.3988 -2.3026
  294MOL0     H39633  10.149   5.116   6.569 -1.9536 -1.3848 -0.0857
  294MOL0     H39634  10.032   5.247   6.622 -0.3644  0.2225  0.0408
  294MOL0     H39635  10.213   5.323   6.781  0.4128  0.3091 -0.5147
  294MOL0     H39636  10.307   5.186   6.748 -0.4931  0.5431 -1.4465
  294MOL0     H39637  10.205   5.409   6.570  1.3871  1.9789  4.1770
  294MOL0     H39638  10.307   5.273   6.502 -0.3528 -0.6892 -0.3505
  294MOL0     H39639  10.419   5.482   6.556  1.5792 -0.2369  0.2556
  294MOL0     H39640  10.394   5.462   6.727  1.8423  0.0059  0.2191
  294MOL0     H39641  10.566   5.230   6.448 -3.4849 -5.9636  1.1705
  294MOL0     H39642  10.836   5.035   6.585  2.9895  3.1077  3.0415
  294MOL0     H39643  10.786   5.102   6.430  2.8345 -0.6837 -1.4363
  294MOL0     H39644  10.976   5.257   6.606  2.2377  0.3303 -0.5194
  294MOL0     H39645  11.017   5.158   6.459  1.5177  0.7318  0.6732
  294MOL0     H39646  10.986   5.420   6.465 -1.6196  0.5268 -0.2305
  294MOL0     H39647  10.822   5.399   6.451  0.8779  0.8429  4.0342
  294MOL0     H39648  11.030   5.305   6.241 -0.2414  3.7741 -0.2987
  294MOL0     H39649  10.906   5.423   6.232  2.3169  0.9614  1.0977
  294MOL0     H39650  10.706   5.458   6.163  4.3351 -2.1819  0.8391
  294MOL0     H39651  10.453   5.482   6.177  1.0816  1.1672 -0.5342
  294MOL0     H39652  10.045   5.300   6.368  0.7918 -1.3020 -2.4917
  294MOL0     H39653   9.807   5.349   6.375 -1.0360  2.3022 -0.6264
  294MOL0     H39654   9.613   5.342   6.228 -2.1577 -0.1893 -0.5453
  294MOL0     H39655   9.586   5.453   6.364 -1.9909  1.4401  0.7352
  294MOL0     H39656   9.459   5.527   6.101  1.4055  1.3610  1.1217
  294MOL0     H39657   9.407   5.369   6.182 -0.3154  0.8438 -4.6023
  294MOL0     H39658   9.359   5.489   6.394 -2.7725 -0.4156  0.4492
  294MOL0     H39659   9.396   5.644   6.312  0.4713 -0.0176  0.6726
  294MOL0     H39660   9.187   5.460   6.199  0.8202 -2.5508  3.1511
  294MOL0     H39661   9.210   5.638   6.170 -2.6459  2.4219  4.3736
  294MOL0     H39662   9.114   5.706   6.352 -2.6789 -0.0582 -0.7006
  294MOL0     H39663   9.129   5.553   6.435  1.4297  1.7459  1.8507
  294MOL0     H39664   8.949   5.463   6.306 -3.8774  0.7025  0.3282
  294MOL0     H39665   8.893   5.612   6.353 -1.7736 -0.8656 -1.0190
  294MOL0     H39666   9.006   5.542   6.073  2.1357 -0.8108  1.7879
  294MOL0     H39667   9.011   5.710   6.126 -0.1587  2.2212  1.7745
  294MOL0     H39668   8.806   5.640   5.995  3.4713  2.7726 -0.3289
  294MOL0     H39669   8.759   5.524   6.139  0.5256  0.5284  0.2032
  294MOL0     H39670   9.865   5.643   6.073  2.3046  0.8613  0.2251
  294MOL0     H39671  10.092   5.586   6.052  1.1686  2.3153  3.8372
  294MOL0     H39672  10.432   5.053   6.223  1.2594 -2.5059  0.5176
  294MOL0     H39673  10.672   5.041   6.208 -0.7011  0.4324 -0.6938
  294MOL0     H39674   9.430   4.941   7.128 -1.5573 -1.6136 -2.5183
  294MOL0     H39675   9.195   5.000   7.143  2.5725 -0.5276  1.6219
  294MOL0     H39676   8.841   5.116   7.042 -0.4672  0.5567 -1.9629
  294MOL0     H39677   8.611   5.140   7.050  0.0729 -1.0280 -1.0866
  294MOL0     H39678   8.463   5.408   7.011  1.0596  0.2702  1.7846
  294MOL0     H39679   8.489   5.520   7.143  1.1667 -0.3783 -0.1431
  294MOL0     H39680   8.261   5.450   7.231 -2.1762  0.0134 -0.3164
  294MOL0     H39681   8.233   5.375   7.073 -4.8712  0.7687  1.5950
  294MOL0     H39682   8.135   5.583   7.032 -1.0809  0.5676 -0.0576
  294MOL0     H39683   8.287   5.604   6.969 -2.0929 -1.4563 -0.7229
  294MOL0     H39684   8.382   5.711   7.187 -0.1470  0.2314 -0.6063
  294MOL0     H39685   8.243   5.808   7.133  0.4791  2.0439  4.2469
  294MOL0     H39686   8.097   5.639   7.497 -0.8459  1.2345 -0.0496
  294MOL0     H39687   8.632   5.480   7.296 -1.4541 -0.2410 -0.4592
  294MOL0     H39688   8.982   5.546   7.267  0.2903 -0.6812  0.3487
  294MOL0     H39689   8.835   5.590   7.345  2.9053  1.4072 -0.5582
  294MOL0     H39690   8.942   5.465   7.411 -0.1009 -0.8823  0.8040
  295MOL0     O39691   7.562   4.489   0.483  0.6796  0.0641  0.4328
  295MOL0     C39692   7.631   4.558   0.557  0.3866  0.9270 -0.5398
  295MOL0     O39693   7.594   4.670   0.614  0.1658 -0.5379  0.8571
  295MOL0     C39694   7.453   4.699   0.607 -0.1371 -0.6375 -0.2438
  295MOL0     C39695   7.414   4.794   0.509  0.3056  0.7933 -1.2785
  295MOL0     C39696   7.274   4.825   0.499 -0.0877  0.8433  1.1278
  295MOL0     C39697   7.178   4.758   0.577 -1.1513 -0.1640  0.4621
  295MOL0     O39698   7.039   4.797   0.580 -0.6913  0.6720 -0.3080
  295MOL0     C39699   6.968   4.801   0.455  0.3752  0.7082  0.6124
  295MOL0     C39700   6.830   4.866   0.459 -0.0753 -0.3872  0.2779
  295MOL0     C39701   6.748   4.836   0.331 -0.1464  0.3039 -0.3401
  295MOL0     C39702   6.634   4.934   0.312 -0.2780  1.1384 -0.6266
  295MOL0     C39703   6.564   4.900   0.178 -0.4169 -0.1989 -0.1288
  295MOL0     C39704   6.442   4.992   0.174 -0.2261  0.7900 -0.3084
  295MOL0     C39705   6.385   5.002   0.030  0.1579  0.1517 -0.1574
  295MOL0     C39706   6.241   5.046   0.037  0.5134  0.6681 -0.3305
  295MOL0     N39707   6.183   5.035  -0.101  0.4942  0.0085  0.0478
  295MOL0     C39708   6.119   4.937  -0.161  0.2776  0.3812  0.5750
  295MOL0     C39709   6.105   4.972  -0.286  0.3017  0.4153 -0.4793
  295MOL0     C39710   6.045   4.890  -0.400 -0.2966 -0.4693 -0.4385
  295MOL0     C39711   6.134   4.783  -0.476 -0.7441  0.2255  0.3029
  295MOL0     C39712   6.245   4.861  -0.544 -0.1971 -0.7574  0.8922
  295MOL0     C39713   6.192   4.975  -0.636 -0.3110  0.4055  0.7156
  295MOL0     O39714   6.089   4.914  -0.723 -0.3133  0.4921  0.3840
  295MOL0     C39715   6.109   4.802  -0.797  0.0633 -0.1807 -0.1329
  295MOL0     C39716   5.991   4.732  -0.817  0.1928 -0.3402 -0.6447
  295MOL0     C39717   5.992   4.619  -0.910  0.1147  0.0917  0.3498
  295MOL0     C39718   6.108   4.581  -0.984  0.2054 -0.4934 -0.4231
  295MOL0     C39719   6.113   4.458  -1.063  0.4672 -0.8526  0.6548
  295MOL0     O39720   6.001   4.375  -1.059 -0.5836  0.4148  0.0965
  295MOL0     C39721   5.994   4.275  -1.152 -0.2941 -0.4494 -0.6144
  295MOL0     C39722   5.973   4.156  -1.094  0.7962 -0.0620  0.1303
  295MOL0     C39723   5.948   4.046  -1.176 -0.9193 -0.7530 -0.6636
  295MOL0     C39724   5.945   4.057  -1.317 -0.3092 -0.6975  0.0699
  295MOL0     O39725   5.938   3.955  -1.405 -0.2965 -0.3930 -0.4885
  295MOL0     C39726   5.829   3.864  -1.389 -0.1623 -0.7303 -0.6690
  295MOL0     C39727   5.795   3.818  -1.533  0.4154  0.3213  0.1713
  295MOL0     C39728   5.748   3.927  -1.620  0.4448  0.9127  0.9166
  295MOL0     C39729   5.715   3.861  -1.755  0.3916  0.2575 -0.5773
  295MOL0     C39730   5.652   3.959  -1.853 -0.1389  0.3168 -0.1226
  295MOL0     C39731   5.599   3.896  -1.986 -0.7630 -0.0464 -0.0220
  295MOL0     C39732   5.713   3.817  -2.060  0.3439  0.8413  0.8292
  295MOL0     C39733   5.725   3.667  -2.013  0.5317  0.8288  1.0502
  295MOL0    Cl39734   5.754   3.555  -2.143  0.1107  0.7599 -0.1850
  295MOL0     C39735   5.963   4.183  -1.368 -0.2022 -0.2911  0.0371
  295MOL0     C39736   5.983   4.297  -1.294 -0.3248  0.2762  1.0016
  295MOL0     O39737   6.208   4.441  -1.143  0.2753 -0.4380 -0.6258
  295MOL0     C39738   6.226   4.661  -0.960  0.0613  1.2051 -0.2376
  295MOL0     C39739   6.224   4.764  -0.860  0.6622  0.4833  0.3308
  295MOL0     N39740   6.138   5.101  -0.303  0.3720 -0.5682 -0.2964
  295MOL0     N39741   6.186   5.142  -0.188 -0.1490  0.0982 -0.2661
  295MOL0     C39742   7.218   4.670   0.682 -0.8525  0.2060  0.7664
  295MOL0     C39743   7.356   4.635   0.690  0.1977 -0.8915  0.2546
  295MOL0     C39744   7.772   4.524   0.557 -0.0440  1.3630  0.5392
  295MOL0     C39745   7.855   4.616   0.626  0.7726 -0.4443 -0.4012
  295MOL0     C39746   7.989   4.571   0.667 -0.9037  0.6536 -0.0925
  295MOL0     C39747   8.042   4.454   0.609  0.4532 -0.3792 -0.4018
  295MOL0     O39748   8.174   4.423   0.605 -0.4431  0.5423  0.0153
  295MOL0     C39749   8.241   4.469   0.483  0.2874 -0.1869  0.2038
  295MOL0     C39750   8.295   4.612   0.502 -0.4756  0.6467  0.1334
  295MOL0     C39751   8.449   4.607   0.527 -0.1979 -1.4564  0.3912
  295MOL0     C39752   8.489   4.559   0.664 -0.0679 -0.2809  0.4426
  295MOL0     C39753   8.633   4.580   0.683  0.0306  0.7901  0.3844
  295MOL0     C39754   8.749   4.597   0.711 -0.3063  0.2469  0.5039
  295MOL0     C39755   7.953   4.366   0.539 -0.6394 -0.2663  0.2510
  295MOL0     C39756   7.821   4.393   0.531  0.1415  0.5302  0.1928
  295MOL0     C39757   7.735   4.277   0.487  0.4446  0.3049  0.5290
  295MOL0     H39758   7.489   4.845   0.449  1.1237  1.1779  0.0387
  295MOL0     H39759   7.229   4.898   0.433  1.0275  1.3068  0.8525
  295MOL0     H39760   7.024   4.846   0.372 -0.2060 -2.5117 -1.7093
  295MOL0     H39761   6.956   4.696   0.428  0.3759  1.3600 -2.2899
  295MOL0     H39762   6.835   4.974   0.480 -3.6690 -0.3887  1.9444
  295MOL0     H39763   6.772   4.823   0.541  0.1679 -1.2586  0.0046
  295MOL0     H39764   6.718   4.731   0.326  0.7952 -0.4422  4.5148
  295MOL0     H39765   6.814   4.851   0.245 -0.9452  1.9553 -0.7003
  295MOL0     H39766   6.563   4.909   0.392  0.7180  2.9697  0.9161
  295MOL0     H39767   6.672   5.036   0.320  1.1537  0.5678  0.1344
  295MOL0     H39768   6.626   4.929   0.092 -0.7519  1.7646  0.2433
  295MOL0     H39769   6.515   4.803   0.172  1.1322 -1.0063 -0.1501
  295MOL0     H39770   6.363   4.963   0.245  0.9486 -1.1526  0.2815
  295MOL0     H39771   6.475   5.090   0.210 -0.2873  1.2942 -1.5626
  295MOL0     H39772   6.377   4.899  -0.007 -2.5499 -0.4372  1.7594
  295MOL0     H39773   6.444   5.071  -0.030 -1.3318  0.9366 -0.7752
  295MOL0     H39774   6.193   4.990   0.119  3.8637 -2.3274 -0.1272
  295MOL0     H39775   6.232   5.149   0.073  1.7962 -0.5632  4.2558
  295MOL0     H39776   6.096   4.846  -0.107  4.1212  0.1408  2.1760
  295MOL0     H39777   5.952   4.849  -0.359 -0.4942 -1.0779 -1.4603
  295MOL0     H39778   6.003   4.954  -0.478 -0.8247  1.0185  1.0233
  295MOL0     H39779   6.183   4.709  -0.413 -0.5624  1.6422  1.9157
  295MOL0     H39780   6.080   4.727  -0.552  1.8078 -0.1756 -1.3635
  295MOL0     H39781   6.311   4.784  -0.587  0.9073  0.3567  0.5154
  295MOL0     H39782   6.296   4.908  -0.459 -1.1920 -1.0301  1.6592
  295MOL0     H39783   6.279   5.008  -0.695 -1.1311 -0.9892 -1.3919
  295MOL0     H39784   6.154   5.053  -0.570  0.4572 -0.0716  1.7600
  295MOL0     H39785   5.902   4.757  -0.762  1.2260  0.0744  0.8997
  295MOL0     H39786   5.907   4.550  -0.912  0.3016 -0.1441 -1.4153
  295MOL0     H39787   5.966   4.139  -0.987  0.1277 -0.1737  0.0719
  295MOL0     H39788   5.923   3.951  -1.130 -1.0426 -0.4265 -0.0458
  295MOL0     H39789   5.860   3.786  -1.320 -1.2624  0.9272  1.8382
  295MOL0     H39790   5.739   3.916  -1.355  0.6061  0.6650 -0.6855
  295MOL0     H39791   5.882   3.773  -1.580 -1.9994 -4.8407 -0.0295
  295MOL0     H39792   5.716   3.742  -1.524  0.8256  0.1475  4.5813
  295MOL0     H39793   5.648   3.957  -1.589  0.6188  1.8828  0.5648
  295MOL0     H39794   5.815   4.014  -1.624 -2.1006  2.9789  0.6654
  295MOL0     H39795   5.643   3.782  -1.736  0.6434 -0.0244 -0.7922
  295MOL0     H39796   5.808   3.828  -1.802  0.6374  0.3661 -0.1686
  295MOL0     H39797   5.725   4.039  -1.872  0.0466  0.3952  0.8872
  295MOL0     H39798   5.568   4.005  -1.800  1.4244  2.3430  0.7397
  295MOL0     H39799   5.514   3.832  -1.962 -0.6305 -0.2350 -0.0556
  295MOL0     H39800   5.573   3.974  -2.059 -0.1414 -2.3198 -2.8518
  295MOL0     H39801   5.813   3.859  -2.049  2.4639 -2.5839 -2.6269
  295MOL0     H39802   5.692   3.818  -2.168 -2.5259  3.0521  1.2791
  295MOL0     H39803   5.800   3.654  -1.934  0.0692  0.6363  1.4648
  295MOL0     H39804   5.632   3.639  -1.964 -0.6586  0.4419 -1.3173
  295MOL0     H39805   5.982   4.194  -1.474  1.9755  1.0449  0.5038
  295MOL0     H39806   6.003   4.396  -1.334  0.3489  0.0365  0.7391
  295MOL0     H39807   6.322   4.633  -1.002  0.8260 -0.9233  2.6727
  295MOL0     H39808   6.316   4.818  -0.842  0.4591  0.6474  0.9026
  295MOL0     H39809   7.133   4.636   0.740 -2.5834 -2.5041 -2.9103
  295MOL0     H39810   7.384   4.568   0.771 -0.4533 -1.7368 -0.2072
  295MOL0     H39811   7.814   4.711   0.658  1.4633 -0.8641  1.9472
  295MOL0     H39812   8.051   4.646   0.715  0.5764 -2.8095  4.0149
  295MOL0     H39813   8.175   4.461   0.396  1.5940  0.1284 -0.8402
  295MOL0     H39814   8.331   4.408   0.475  1.0346  0.2744  3.5984
  295MOL0     H39815   8.240   4.661   0.583 -1.7980 -0.4774 -0.0509
  295MOL0     H39816   8.288   4.667   0.408  1.5825  1.7727  0.5619
  295MOL0     H39817   8.480   4.712   0.523  1.2728 -1.9039 -0.8415
  295MOL0     H39818   8.503   4.557   0.447  3.1880 -1.1845  2.3137
  295MOL0     H39819   8.421   4.597   0.742 -0.7289  0.6229 -0.5416
  295MOL0     H39820   8.473   4.451   0.657  1.3905 -0.3938 -3.0523
  295MOL0     H39821   8.852   4.615   0.730 -0.6091  2.9537 -0.0162
  295MOL0     H39822   7.995   4.272   0.503 -3.4633 -1.2461 -0.7651
  295MOL0     H39823   7.770   4.183   0.533  4.0075  2.4387  2.6965
  295MOL0     H39824   7.630   4.280   0.517 -0.6689 -3.0924 -2.3019
  295MOL0     H39825   7.742   4.261   0.379  0.2344 -0.5463  0.6294
  296MOL0     O39826   6.530   8.990   8.716 -0.3347 -0.2260 -0.2165
  296MOL0     C39827   6.520   9.051   8.821  0.9590  0.5384  0.1751
  296MOL0     O39828   6.457   9.175   8.833  0.5327 -0.1940  0.3631
  296MOL0     C39829   6.396   9.223   8.717 -0.7371  0.3147 -0.5176
  296MOL0     C39830   6.450   9.339   8.660 -0.5078  0.3109 -0.7825
  296MOL0     C39831   6.403   9.393   8.545  0.3906  0.0106  0.5780
  296MOL0     C39832   6.287   9.338   8.487 -0.4269  1.1018 -0.3530
  296MOL0     O39833   6.248   9.393   8.373  0.4494  0.9623  0.1730
  296MOL0     C39834   6.131   9.346   8.295 -0.2562 -0.0883  0.1336
  296MOL0     C39835   6.124   9.416   8.164  0.1767 -0.8679 -0.1704
  296MOL0     C39836   6.225   9.362   8.064  0.2308  0.2452 -0.4588
  296MOL0     C39837   6.181   9.419   7.920 -0.3787  0.1055 -0.6242
  296MOL0     C39838   6.285   9.372   7.814  0.8218  0.1400  0.8350
  296MOL0     C39839   6.234   9.388   7.668  0.6122 -0.6846  0.3085
  296MOL0     C39840   6.122   9.284   7.620 -0.8432 -0.1437  0.6714
  296MOL0     C39841   6.162   9.128   7.602 -0.0772  0.0604  0.5715
  296MOL0     N39842   6.263   9.127   7.497 -1.2254  0.6058 -0.4017
  296MOL0     C39843   6.263   9.154   7.359 -0.6758 -0.3279 -0.6446
  296MOL0     C39844   6.380   9.126   7.305  0.2703  0.3164 -0.0693
  296MOL0     C39845   6.400   9.111   7.153 -0.5399  0.7613 -0.2935
  296MOL0     C39846   6.560   9.105   7.121  0.7369  0.4213  0.3610
  296MOL0     C39847   6.588   9.122   6.971  0.4709  0.4825  0.1821
  296MOL0     C39848   6.743   9.114   6.953  0.1015  0.8543  0.0313
  296MOL0     O39849   6.797   9.232   7.012  0.6523  0.0761 -0.7817
  296MOL0     C39850   6.905   9.292   6.957 -0.2320  0.6024 -0.8526
  296MOL0     C39851   7.024   9.213   6.928  0.0066 -0.8329 -0.5821
  296MOL0     C39852   7.150   9.260   6.878 -0.2678 -0.5255  0.3702
  296MOL0     C39853   7.160   9.395   6.854  0.1041 -0.7077  0.0386
  296MOL0     C39854   7.281   9.446   6.777 -0.1339 -0.4014 -1.1018
  296MOL0     O39855   7.355   9.354   6.720  0.0210 -0.6171  0.2728
  296MOL0     C39856   7.475   9.393   6.674 -0.4340  0.9188  0.0855
  296MOL0     C39857   7.590   9.339   6.735  0.0867 -0.1452  0.5954
  296MOL0     C39858   7.717   9.358   6.669 -0.5932  1.1191  0.4762
  296MOL0     C39859   7.725   9.437   6.548 -0.3774  0.1428 -0.6976
  296MOL0     O39860   7.843   9.456   6.486 -0.2301  0.1965  1.2492
  296MOL0     C39861   7.859   9.443   6.339 -0.0955  0.4752 -1.4636
  296MOL0     C39862   8.003   9.398   6.328 -0.4159 -0.1373  0.3542
  296MOL0     C39863   8.039   9.374   6.186 -0.0230 -0.8771  0.5112
  296MOL0     C39864   8.190   9.323   6.188 -0.3205 -0.5861 -0.0836
  296MOL0     C39865   8.237   9.302   6.040  0.5819  1.5106  1.7401
  296MOL0     C39866   8.306   9.415   5.979  0.2657  0.2004 -0.2895
  296MOL0     C39867   8.364   9.393   5.841 -0.3377 -0.1128 -0.2496
  296MOL0     C39868   8.466   9.508   5.806  0.5572  0.1614  0.3504
  296MOL0    Cl39869   8.618   9.491   5.887  0.2233  0.5724  0.3616
  296MOL0     C39870   7.605   9.495   6.491  0.5551 -0.2375 -0.0683
  296MOL0     C39871   7.483   9.478   6.554  0.5026  0.3644  0.0022
  296MOL0     O39872   7.302   9.572   6.783  0.0574  0.0964 -0.0255
  296MOL0     C39873   7.047   9.480   6.883 -0.0862  0.2050  0.9582
  296MOL0     C39874   6.922   9.432   6.941 -0.2295 -0.6731  0.2507
  296MOL0     N39875   6.461   9.091   7.410  0.0909  0.1681 -0.0815
  296MOL0     N39876   6.394   9.089   7.519 -0.0962 -0.7728 -0.3599
  296MOL0     C39877   6.231   9.223   8.548  0.3683 -0.3901 -0.2768
  296MOL0     C39878   6.284   9.166   8.658  0.3490 -0.1457 -0.3785
  296MOL0     C39879   6.580   9.004   8.953  0.0250 -0.5820 -0.3179
  296MOL0     C39880   6.621   9.098   9.052 -0.0163  1.0477  0.7514
  296MOL0     C39881   6.688   9.055   9.167  0.7485 -0.5966  0.2687
  296MOL0     C39882   6.721   8.921   9.182 -0.7777  0.4876 -0.0586
  296MOL0     O39883   6.805   8.872   9.286 -0.7899 -0.2567 -0.3891
  296MOL0     C39884   6.758   8.909   9.418 -0.7615  0.0694 -0.9256
  296MOL0     C39885   6.823   8.823   9.532  0.8303 -0.0520  0.7751
  296MOL0     C39886   6.969   8.812   9.503  0.1414  0.2782  0.0305
  296MOL0     C39887   7.026   8.684   9.564 -0.8838 -0.8463  0.3805
  296MOL0     C39888   7.161   8.707   9.599 -0.0673  0.2440 -1.2875
  296MOL0     C39889   7.275   8.723   9.630  0.2502 -0.0786 -0.3658
  296MOL0     C39890   6.683   8.830   9.084 -0.5407  0.6520 -0.5111
  296MOL0     C39891   6.610   8.870   8.979 -0.5668 -0.3214 -0.2024
  296MOL0     C39892   6.574   8.754   8.885 -1.1677 -0.7541 -0.4867
  296MOL0     H39893   6.545   9.369   8.702 -0.3428  2.0943 -2.3092
  296MOL0     H39894   6.436   9.485   8.497 -2.7798 -0.3613 -2.7508
  296MOL0     H39895   6.145   9.242   8.267  2.4049 -0.6209  2.8996
  296MOL0     H39896   6.043   9.351   8.359 -0.4714 -5.0756  0.6109
  296MOL0     H39897   6.117   9.525   8.163 -0.3801 -0.8955 -1.6272
  296MOL0     H39898   6.022   9.401   8.128 -1.3879  1.8018  2.7049
  296MOL0     H39899   6.226   9.253   8.071 -0.3437  0.2569 -0.0879
  296MOL0     H39900   6.326   9.389   8.095 -0.1939 -0.4070  1.6387
  296MOL0     H39901   6.084   9.374   7.900 -0.0490 -0.5589 -0.7361
  296MOL0     H39902   6.170   9.528   7.929  0.4595  0.3134 -1.9376
  296MOL0     H39903   6.366   9.445   7.804  0.5431  0.1527 -2.2280
  296MOL0     H39904   6.311   9.267   7.826 -0.4202 -0.0544  2.1452
  296MOL0     H39905   6.197   9.490   7.661  1.2274 -0.3032  2.1127
  296MOL0     H39906   6.318   9.378   7.599 -0.6753  2.1794 -1.8722
  296MOL0     H39907   6.088   9.308   7.519  1.6179  3.1635  0.4517
  296MOL0     H39908   6.036   9.285   7.688 -0.2894 -0.4522  1.3932
  296MOL0     H39909   6.191   9.085   7.698  0.4882  3.4014  2.0383
  296MOL0     H39910   6.080   9.065   7.568  1.1676 -0.8021 -1.0266
  296MOL0     H39911   6.181   9.195   7.301 -0.4737 -0.4935 -1.0469
  296MOL0     H39912   6.360   9.011   7.136 -1.9539  1.2886 -0.1986
  296MOL0     H39913   6.348   9.188   7.095  0.7799  0.3690 -2.0798
  296MOL0     H39914   6.614   9.187   7.169  1.8141 -0.4967  0.7534
  296MOL0     H39915   6.601   9.009   7.155  1.3100 -0.6442 -2.9763
  296MOL0     H39916   6.538   9.211   6.931 -0.0776 -0.1257 -0.5134
  296MOL0     H39917   6.551   9.038   6.911 -0.4970  0.8596  0.2285
  296MOL0     H39918   6.772   9.095   6.849 -0.4448 -4.0383  0.5539
  296MOL0     H39919   6.793   9.034   7.007 -0.7397 -0.2007 -0.6973
  296MOL0     H39920   7.016   9.104   6.932 -0.1877 -0.7913  0.2829
  296MOL0     H39921   7.222   9.192   6.834 -0.8134 -0.1702 -1.1291
  296MOL0     H39922   7.589   9.266   6.814  0.6215 -1.6447 -0.7379
  296MOL0     H39923   7.808   9.301   6.682 -1.1763 -1.7777 -5.0618
  296MOL0     H39924   7.791   9.367   6.300 -2.1371  2.4963 -2.0669
  296MOL0     H39925   7.855   9.540   6.289 -2.4438  1.5810  0.6559
  296MOL0     H39926   8.074   9.472   6.366  0.1728 -0.6760  0.3315
  296MOL0     H39927   8.014   9.311   6.395 -0.2572  0.8652  1.6750
  296MOL0     H39928   7.985   9.289   6.143 -2.5379  1.2238 -0.8217
  296MOL0     H39929   8.025   9.463   6.124 -0.9357 -1.6907 -0.4945
  296MOL0     H39930   8.191   9.229   6.244  0.1826 -1.3607 -1.3400
  296MOL0     H39931   8.251   9.404   6.229 -1.6205 -0.2815  1.3627
  296MOL0     H39932   8.144   9.287   5.984  0.4460  3.6310  1.3322
  296MOL0     H39933   8.301   9.213   6.041  2.5073  2.8378  1.3588
  296MOL0     H39934   8.236   9.499   5.991 -0.8803 -0.6922 -0.4942
  296MOL0     H39935   8.389   9.436   6.047 -0.7053  0.8758  0.7173
  296MOL0     H39936   8.283   9.398   5.768 -0.0567  2.4999 -0.4600
  296MOL0     H39937   8.406   9.292   5.831 -1.7688 -1.0554  2.2593
  296MOL0     H39938   8.482   9.501   5.698 -0.0682  2.1487  0.0915
  296MOL0     H39939   8.437   9.612   5.824  1.1233  0.7941 -2.1173
  296MOL0     H39940   7.625   9.574   6.420  0.1975 -0.4874 -0.4549
  296MOL0     H39941   7.390   9.522   6.521  0.4208  0.4271  0.3064
  296MOL0     H39942   7.042   9.585   6.853  0.1746 -0.0911 -0.1585
  296MOL0     H39943   6.829   9.485   6.960 -0.3947 -0.5777 -0.7639
  296MOL0     H39944   6.139   9.181   8.508 -0.2620 -1.1828  1.8392
  296MOL0     H39945   6.233   9.091   8.718  1.7845  0.6012  1.9093
  296MOL0     H39946   6.599   9.203   9.038 -2.1675  0.6454  0.7756
  296MOL0     H39947   6.726   9.127   9.240 -1.4121 -0.4700  1.3389
  296MOL0     H39948   6.649   8.904   9.426 -0.7975  2.3942  2.6728
  296MOL0     H39949   6.779   9.014   9.441 -3.9930  0.1217  2.8320
  296MOL0     H39950   6.765   8.731   9.533 -1.3610  1.1555 -2.0642
  296MOL0     H39951   6.804   8.872   9.628 -1.6873 -0.5597  0.5927
  296MOL0     H39952   7.010   8.903   9.549 -0.2902  0.0150  0.9560
  296MOL0     H39953   7.002   8.818   9.399  1.9250  0.8380  0.5844
  296MOL0     H39954   6.965   8.656   9.651  0.7632 -1.7458  1.2988
  296MOL0     H39955   7.015   8.600   9.495 -1.1996  1.3381 -2.3666
  296MOL0     H39956   7.373   8.762   9.652 -0.4063  3.0490 -2.4259
  296MOL0     H39957   6.717   8.727   9.085  1.5204  1.2785  0.8319
  296MOL0     H39958   6.639   8.774   8.799  0.3564  0.8799  0.9393
  296MOL0     H39959   6.594   8.654   8.927  0.1038 -0.4729 -0.3709
  296MOL0     H39960   6.470   8.772   8.859 -2.0214 -2.2784  1.5469
  297MOL0     O39961  11.358  11.108   1.348  0.1710 -1.0586  0.3965
  297MOL0     C39962  11.463  11.141   1.288 -0.1210  0.1868  0.1093
  297MOL0     O39963  11.502  11.073   1.179  0.5127  0.2800  0.0827
  297MOL0     C39964  11.436  10.963   1.138  1.0885  0.9210 -0.8774
  297MOL0     C39965  11.503  10.850   1.127 -0.3963  0.5775  0.1256
  297MOL0     C39966  11.442  10.741   1.063 -0.9837  0.6078 -0.7000
  297MOL0     C39967  11.310  10.747   1.021 -0.4430  0.8771 -0.0470
  297MOL0     O39968  11.245  10.642   0.959 -0.2740 -0.0872 -0.2588
  297MOL0     C39969  11.214  10.526   1.034  0.6545 -0.2628  0.5135
  297MOL0     C39970  11.261  10.391   0.978  0.1862 -0.3837 -0.3581
  297MOL0     C39971  11.406  10.388   0.941  0.0470  0.3057  0.2707
  297MOL0     C39972  11.442  10.246   0.894 -0.5053 -0.6611 -0.7544
  297MOL0     C39973  11.595  10.252   0.851  0.7237 -0.8319 -0.4126
  297MOL0     C39974  11.630  10.110   0.792 -0.3211 -1.0042  0.6132
  297MOL0     C39975  11.650  10.003   0.899  0.2477 -0.0645  0.0010
  297MOL0     C39976  11.795   9.999   0.968 -0.4545 -0.6718  0.8673
  297MOL0     N39977  11.893   9.934   0.877  0.7817  0.5857  0.0494
  297MOL0     C39978  12.032   9.934   0.888 -0.2038 -1.4085  0.5318
  297MOL0     C39979  12.080   9.902   0.765 -0.5485 -0.0715 -0.0277
  297MOL0     C39980  12.235   9.912   0.740 -0.3556  0.6299  0.0809
  297MOL0     C39981  12.294   9.814   0.638  0.3147 -0.6115 -0.1662
  297MOL0     C39982  12.447   9.839   0.635 -0.0757  0.3164  0.0740
  297MOL0     C39983  12.505   9.776   0.507  0.4010  0.7564 -0.5515
  297MOL0     O39984  12.643   9.798   0.500 -0.8713  0.3235 -0.0310
  297MOL0     C39985  12.702   9.880   0.409  0.5091  0.0588 -0.0424
  297MOL0     C39986  12.839   9.864   0.388 -0.0217 -0.0851  0.4889
  297MOL0     C39987  12.915   9.936   0.285  0.0437 -0.3167  0.6044
  297MOL0     C39988  12.850  10.041   0.213  0.2799  0.5094  0.1165
  297MOL0     C39989  12.923  10.128   0.113  0.1116  0.1448  0.1175
  297MOL0     O39990  13.055  10.162   0.134  0.0977 -0.0206  0.1907
  297MOL0     C39991  13.105  10.220   0.022 -0.2892 -0.1690 -0.0354
  297MOL0     C39992  13.183  10.150  -0.073 -0.8816  0.7279 -0.1239
  297MOL0     C39993  13.235  10.226  -0.181  0.1809  0.3544 -0.0654
  297MOL0     C39994  13.210  10.366  -0.191 -0.2640 -0.5110 -0.0731
  297MOL0     O39995  13.253  10.447  -0.296 -0.7141  0.3471  1.1450
  297MOL0     C39996  13.168  10.460  -0.405  0.2329  0.0931  0.0360
  297MOL0     C39997  13.219  10.404  -0.537  0.0184 -0.5566  0.5060
  297MOL0     C39998  13.346  10.492  -0.589 -0.4530 -0.4073 -0.1045
  297MOL0     C39999  13.469  10.491  -0.507  0.1456  0.2922 -0.2107
  297MOL0     C40000  13.597  10.524  -0.587  0.7715  0.3656 -0.7246
  297MOL0     C40001  13.618  10.673  -0.595  0.0604  0.6832  0.4373
  297MOL0     C40002  13.728  10.689  -0.691 -0.1270 -0.8035  0.0364
  297MOL0     C40003  13.862  10.666  -0.633  0.1772 -0.2579  0.3245
  297MOL0    Cl40004  13.927  10.807  -0.543 -0.3108  0.3688  0.1543
  297MOL0     C40005  13.142  10.428  -0.087  0.2196 -0.2216 -0.3348
  297MOL0     C40006  13.091  10.357   0.017 -1.2559 -0.5476 -0.7096
  297MOL0     O40007  12.844  10.179   0.037 -1.0540  0.9751  0.5764
  297MOL0     C40008  12.713  10.061   0.253  0.3896  0.8252  1.1798
  297MOL0     C40009  12.641   9.985   0.343 -0.0847  0.0202  1.1431
  297MOL0     N40010  11.975   9.867   0.679 -0.6571 -0.6660 -0.1991
  297MOL0     N40011  11.868   9.889   0.749 -0.2920 -0.4636  0.6588
  297MOL0     C40012  11.238  10.858   1.041 -0.5519 -0.3000  0.7176
  297MOL0     C40013  11.295  10.963   1.106 -0.5293  0.3309  0.6032
  297MOL0     C40014  11.538  11.255   1.354 -0.1335 -0.8466 -0.0540
  297MOL0     C40015  11.490  11.319   1.470 -0.0127  0.2167 -0.5311
  297MOL0     C40016  11.568  11.413   1.550  0.5524 -0.2022  0.5517
  297MOL0     C40017  11.690  11.452   1.503 -0.2643  0.1476 -0.4232
  297MOL0     O40018  11.750  11.559   1.568 -0.9616 -1.0834  0.3694
  297MOL0     C40019  11.868  11.619   1.504  0.9688 -0.2617  0.6436
  297MOL0     C40020  11.837  11.696   1.377  0.2968 -0.9918  0.0499
  297MOL0     C40021  11.946  11.773   1.306 -0.3886  0.5014 -0.5204
  297MOL0     C40022  11.913  11.810   1.161 -0.1417 -0.6444  0.7251
  297MOL0     C40023  11.898  11.687   1.078 -0.4820  1.3018  0.5059
  297MOL0     C40024  11.865  11.590   1.008  0.2671 -0.3737 -0.3711
  297MOL0     C40025  11.736  11.389   1.381  0.6452 -0.3435 -0.0302
  297MOL0     C40026  11.667  11.289   1.305  0.2256 -0.4828  1.1995
  297MOL0     C40027  11.724  11.238   1.170  0.7044  0.2383 -0.2857
  297MOL0     H40028  11.605  10.856   1.164 -0.9058  1.0011  1.5320
  297MOL0     H40029  11.497  10.649   1.045  0.3866  0.6768  2.4738
  297MOL0     H40030  11.242  10.530   1.140  0.0772 -0.8118  0.6970
  297MOL0     H40031  11.105  10.522   1.030  0.6366  0.3377  0.3726
  297MOL0     H40032  11.197  10.376   0.890 -0.6877 -0.5119  0.2796
  297MOL0     H40033  11.245  10.313   1.053  1.8961 -1.0591 -0.6718
  297MOL0     H40034  11.459  10.410   1.034 -0.2692 -1.2046  0.8480
  297MOL0     H40035  11.423  10.471   0.871 -0.0400 -2.5151 -3.4258
  297MOL0     H40036  11.424  10.174   0.974  0.1704 -0.1548 -0.1231
  297MOL0     H40037  11.381  10.214   0.810  1.2052 -1.0700 -1.9002
  297MOL0     H40038  11.598  10.321   0.767  1.4926  1.0352  1.0778
  297MOL0     H40039  11.659  10.284   0.934 -1.9160  0.6584  1.2034
  297MOL0     H40040  11.553  10.077   0.721 -0.0446 -2.8447  1.1243
  297MOL0     H40041  11.722  10.133   0.738 -0.1011  1.6363  1.9027
  297MOL0     H40042  11.613   9.913   0.851 -1.6825  0.9978 -0.6001
  297MOL0     H40043  11.588  10.027   0.986 -0.8475  0.8911 -1.0212
  297MOL0     H40044  11.825  10.103   0.989 -1.0684 -0.1690 -0.6079
  297MOL0     H40045  11.791   9.956   1.069  0.2276 -2.5768  0.1252
  297MOL0     H40046  12.094   9.962   0.972 -3.0885 -0.1196  2.3826
  297MOL0     H40047  12.252  10.015   0.708  1.5708  0.2766 -0.1969
  297MOL0     H40048  12.294   9.893   0.831 -2.7863 -0.9564  1.4179
  297MOL0     H40049  12.277   9.709   0.664  2.4071 -1.2359 -1.1020
  297MOL0     H40050  12.236   9.846   0.551 -2.6212  0.9341  2.1758
  297MOL0     H40051  12.484   9.806   0.733 -2.3943 -0.6211  0.7331
  297MOL0     H40052  12.457   9.946   0.615 -6.4404  0.6993 -4.1377
  297MOL0     H40053  12.454   9.814   0.418  1.9596  2.0216 -0.9703
  297MOL0     H40054  12.488   9.669   0.524 -0.3555  0.7316 -1.4112
  297MOL0     H40055  12.893   9.783   0.435  0.4352 -0.4083 -0.5665
  297MOL0     H40056  13.021   9.915   0.275  1.0451  2.7785  3.1843
  297MOL0     H40057  13.193  10.042  -0.059 -2.1654  0.5734 -0.2412
  297MOL0     H40058  13.295  10.176  -0.257 -1.4765 -2.1456  0.1645
  297MOL0     H40059  13.074  10.408  -0.382 -0.0083  1.4439  2.4661
  297MOL0     H40060  13.163  10.568  -0.425  3.6077  0.3805  0.2641
  297MOL0     H40061  13.276  10.312  -0.522  4.0028  1.2349 -1.7921
  297MOL0     H40062  13.134  10.391  -0.605 -1.0834  3.9804  0.7033
  297MOL0     H40063  13.372  10.437  -0.680  1.5328 -2.0038  1.3222
  297MOL0     H40064  13.326  10.595  -0.621  2.0491  1.5916  3.8830
  297MOL0     H40065  13.487  10.392  -0.464  2.0303  1.9433  3.2413
  297MOL0     H40066  13.456  10.560  -0.423 -0.5538 -1.7514  1.4449
  297MOL0     H40067  13.588  10.479  -0.686  0.3806 -4.6786  1.2556
  297MOL0     H40068  13.684  10.473  -0.543  0.7078  3.3670  3.5126
  297MOL0     H40069  13.529  10.724  -0.634  1.6012  2.4870 -0.9460
  297MOL0     H40070  13.644  10.716  -0.497  1.8002  0.1402  0.2471
  297MOL0     H40071  13.729  10.792  -0.727  1.7319 -1.0791 -0.8307
  297MOL0     H40072  13.721  10.628  -0.781  1.4645 -0.7663 -0.1482
  297MOL0     H40073  13.851  10.583  -0.561 -2.0436 -2.3628 -2.2383
  297MOL0     H40074  13.926  10.631  -0.715  0.6515 -0.6168  0.8356
  297MOL0     H40075  13.127  10.535  -0.083 -0.2023 -0.1522 -2.5264
  297MOL0     H40076  13.019  10.393   0.090 -1.4310 -2.8889  0.3621
  297MOL0     H40077  12.660  10.129   0.187  0.9754  0.4877  0.3475
  297MOL0     H40078  12.535  10.005   0.358  0.3139  1.4392  2.2695
  297MOL0     H40079  11.135  10.866   1.009 -0.6231 -0.9194  0.7766
  297MOL0     H40080  11.248  11.060   1.118  2.7828  2.5350 -2.2771
  297MOL0     H40081  11.394  11.309   1.519  0.9576  1.1490  1.7048
  297MOL0     H40082  11.534  11.470   1.636 -0.6331  1.8256 -1.1901
  297MOL0     H40083  11.940  11.539   1.485  1.6130 -0.4282  3.2946
  297MOL0     H40084  11.907  11.684   1.583 -0.5112 -1.4130  2.4124
  297MOL0     H40085  11.755  11.765   1.400  0.1555 -1.7279  1.9349
  297MOL0     H40086  11.781  11.632   1.309 -1.2521  0.9108 -0.5714
  297MOL0     H40087  12.040  11.717   1.311  0.5028  1.7777 -1.9625
  297MOL0     H40088  11.958  11.864   1.366 -0.1170 -1.7426  3.1337
  297MOL0     H40089  11.826  11.874   1.146 -1.0879 -2.1933 -0.7337
  297MOL0     H40090  11.993  11.868   1.115 -1.0060  0.5175  0.6620
  297MOL0     H40091  11.841  11.522   0.929  0.0762 -0.1091 -0.5454
  297MOL0     H40092  11.833  11.420   1.343  0.7173 -0.6157 -0.0739
  297MOL0     H40093  11.729  11.129   1.175  0.0405  0.2416  0.9524
  297MOL0     H40094  11.661  11.271   1.087 -3.1871 -1.0044  1.9079
  297MOL0     H40095  11.826  11.273   1.155 -0.1032  1.5500 -3.7172
  298MOL0     O40096   3.799   2.850   3.577 -0.2425 -0.2911  0.2610
  298MOL0     C40097   3.837   2.739   3.611  0.0836  1.4392 -0.0374
  298MOL0     O40098   3.785   2.618   3.568  0.0099  0.8397  0.6032
  298MOL0     C40099   3.655   2.618   3.522  0.2218  0.1747 -0.2489
  298MOL0     C40100   3.614   2.580   3.396  0.8524  0.0337  0.3027
  298MOL0     C40101   3.478   2.575   3.364  0.3282 -0.8243 -0.1458
  298MOL0     C40102   3.384   2.600   3.454 -0.4843  0.6483 -0.4764
  298MOL0     O40103   3.249   2.602   3.431  0.5730 -0.6355 -0.0837
  298MOL0     C40104   3.189   2.560   3.306 -0.7930 -0.5561  0.2434
  298MOL0     C40105   3.033   2.544   3.315 -0.7121  0.0984  0.4567
  298MOL0     C40106   2.977   2.691   3.309 -0.8396  0.1862 -0.1224
  298MOL0     C40107   2.827   2.700   3.344  0.1333  0.8333 -0.0605
  298MOL0     C40108   2.759   2.835   3.320  0.0880 -0.4555  0.3549
  298MOL0     C40109   2.791   2.928   3.428  0.4737  0.0252  0.3064
  298MOL0     C40110   2.917   3.012   3.406 -0.5272  0.2638 -0.0684
  298MOL0     C40111   2.906   3.151   3.464  0.9621  0.7664  0.1619
  298MOL0     N40112   2.874   3.133   3.605 -0.1468  0.1333 -0.6315
  298MOL0     C40113   2.947   3.082   3.709  0.4424  0.4761 -0.3320
  298MOL0     C40114   2.864   3.062   3.811 -0.0526 -0.2928 -0.0973
  298MOL0     C40115   2.928   2.997   3.930 -0.0533 -0.2011 -0.8530
  298MOL0     C40116   2.898   2.848   3.967  0.2084 -0.8130  0.1012
  298MOL0     C40117   2.878   2.764   3.842  0.5052  0.5452  0.2159
  298MOL0     C40118   2.837   2.617   3.867 -0.0417  0.3714 -0.8933
  298MOL0     O40119   2.937   2.549   3.951 -0.4122  0.7353  0.6665
  298MOL0     C40120   3.037   2.490   3.877  0.6760 -0.0761  0.3596
  298MOL0     C40121   3.140   2.439   3.955 -0.9032 -0.2711 -0.2681
  298MOL0     C40122   3.258   2.381   3.895  0.3148  0.2258  0.4613
  298MOL0     C40123   3.272   2.364   3.756  0.0151 -0.6184 -0.7377
  298MOL0     C40124   3.390   2.292   3.706  0.0963 -0.2682 -0.9042
  298MOL0     O40125   3.376   2.240   3.580 -0.0969 -0.1603 -0.2681
  298MOL0     C40126   3.467   2.167   3.521 -0.3962  0.2748  0.1478
  298MOL0     C40127   3.603   2.199   3.505 -0.1742 -0.0796  0.1155
  298MOL0     C40128   3.689   2.117   3.431 -0.5034 -0.2271  0.9185
  298MOL0     C40129   3.645   1.995   3.387 -0.3133  0.4439 -0.9348
  298MOL0     O40130   3.726   1.903   3.337  0.7825  0.2871  0.3112
  298MOL0     C40131   3.789   1.933   3.208 -0.2226 -0.0278  0.3338
  298MOL0     C40132   3.688   1.933   3.095  0.7491  0.6715 -0.0643
  298MOL0     C40133   3.746   1.921   2.959 -0.7630 -0.2055  0.2194
  298MOL0     C40134   3.644   1.911   2.839  0.5886 -0.7741 -0.6081
  298MOL0     C40135   3.715   1.964   2.710 -0.0851  0.6097  0.1600
  298MOL0     C40136   3.658   1.880   2.598 -0.0297  1.0433  0.3545
  298MOL0     C40137   3.715   1.919   2.461  0.4479 -0.9005  0.7094
  298MOL0     C40138   3.711   2.067   2.424  0.8013  0.1017  0.0266
  298MOL0    Cl40139   3.591   2.081   2.279 -0.3144 -0.7409  0.7030
  298MOL0     C40140   3.519   1.957   3.411 -0.0846  0.2339 -0.4625
  298MOL0     C40141   3.424   2.047   3.471 -0.5981  0.0109 -0.0077
  298MOL0     O40142   3.488   2.278   3.775  0.3862  0.3090  0.7248
  298MOL0     C40143   3.173   2.427   3.681 -0.4292  0.4565  0.1956
  298MOL0     C40144   3.051   2.472   3.734 -1.2517  0.3994 -0.3792
  298MOL0     N40145   2.744   3.105   3.787  0.9803 -0.5040  1.3700
  298MOL0     N40146   2.752   3.155   3.663 -0.5009  0.3928 -0.1604
  298MOL0     C40147   3.426   2.629   3.577 -0.0642 -0.1740 -1.8278
  298MOL0     C40148   3.562   2.639   3.623 -0.4162 -0.0787 -0.0100
  298MOL0     C40149   3.937   2.733   3.723  0.1845 -0.2358  0.3883
  298MOL0     C40150   3.946   2.616   3.813 -0.0259 -1.5015  0.0247
  298MOL0     C40151   4.018   2.617   3.937 -0.1528 -0.1625  0.9243
  298MOL0     C40152   4.080   2.741   3.971  0.8341  0.2122 -0.5492
  298MOL0     O40153   4.159   2.760   4.080  0.3882  0.4635  0.1971
  298MOL0     C40154   4.104   2.683   4.190 -0.3157  0.1792  0.5377
  298MOL0     C40155   4.128   2.749   4.317 -0.3657 -0.6991  0.1770
  298MOL0     C40156   4.086   2.658   4.433 -0.2072  1.2885 -0.1596
  298MOL0     C40157   4.082   2.731   4.570  0.2134  0.4883 -0.1172
  298MOL0     C40158   4.216   2.783   4.588 -0.1387  0.6949 -0.9325
  298MOL0     C40159   4.310   2.858   4.588 -0.4409  0.7804 -0.3719
  298MOL0     C40160   4.081   2.842   3.877  0.0577  0.5231 -0.3888
  298MOL0     C40161   4.014   2.844   3.754 -0.0819  0.5994  1.1142
  298MOL0     C40162   4.032   2.962   3.663  1.2699 -0.7909 -0.3521
  298MOL0     H40163   3.675   2.561   3.308 -0.9809 -0.6821 -0.8814
  298MOL0     H40164   3.448   2.557   3.261  1.9564 -2.3828 -0.3959
  298MOL0     H40165   3.217   2.621   3.220 -0.0788  0.4360  1.1570
  298MOL0     H40166   3.224   2.457   3.291 -1.8940 -1.1616  1.5383
  298MOL0     H40167   2.998   2.486   3.401 -1.5016 -2.2701 -1.3335
  298MOL0     H40168   2.987   2.490   3.231  1.4812 -1.3155  0.0676
  298MOL0     H40169   3.008   2.749   3.221 -0.2772  2.6248  1.5810
  298MOL0     H40170   3.043   2.727   3.389  1.0893 -3.3952  0.1073
  298MOL0     H40171   2.775   2.633   3.275  2.2989 -1.4179  0.3320
  298MOL0     H40172   2.811   2.647   3.438 -1.4359 -0.4539 -1.0083
  298MOL0     H40173   2.786   2.868   3.219 -0.4721 -3.8742 -1.0382
  298MOL0     H40174   2.650   2.826   3.309  0.1392 -2.2261  1.0924
  298MOL0     H40175   2.696   2.981   3.433  1.0439  1.0246  0.8520
  298MOL0     H40176   2.796   2.894   3.532 -1.1837  2.4281  1.2709
  298MOL0     H40177   2.931   3.028   3.299  2.5131  2.0228  0.4490
  298MOL0     H40178   2.999   2.948   3.441 -1.5550 -3.0365 -3.1711
  298MOL0     H40179   2.994   3.212   3.445 -0.1763  1.8309 -2.0430
  298MOL0     H40180   2.826   3.199   3.406  1.9469 -0.1350 -2.0438
  298MOL0     H40181   3.052   3.055   3.706  0.4233  0.1766  1.0846
  298MOL0     H40182   3.035   3.020   3.929 -0.0976  0.5027  2.2387
  298MOL0     H40183   2.895   3.049   4.021 -1.7485 -1.9764 -0.3812
  298MOL0     H40184   2.970   2.805   4.037 -1.1650  0.3978  2.3851
  298MOL0     H40185   2.810   2.827   4.029  1.0374 -2.6874  0.7131
  298MOL0     H40186   2.974   2.754   3.791  1.8076 -0.8159  2.7079
  298MOL0     H40187   2.800   2.815   3.784 -1.5860 -0.3695  2.0942
  298MOL0     H40188   2.817   2.570   3.770  0.1167 -0.1272 -0.6870
  298MOL0     H40189   2.746   2.629   3.927  1.1631  3.1618  0.5296
  298MOL0     H40190   3.140   2.449   4.063 -2.6005 -2.4682  0.0215
  298MOL0     H40191   3.321   2.322   3.961 -4.6608 -3.9021  2.1417
  298MOL0     H40192   3.658   2.280   3.553 -0.5318 -0.8483  1.9155
  298MOL0     H40193   3.791   2.145   3.407 -0.6651  0.6801  1.2509
  298MOL0     H40194   3.851   2.023   3.199  0.9153 -0.6549  1.5584
  298MOL0     H40195   3.847   1.845   3.180 -2.1761 -1.0494 -0.6228
  298MOL0     H40196   3.623   1.849   3.120  1.0172  0.7792  1.0328
  298MOL0     H40197   3.623   2.021   3.096  1.0568  0.8997 -0.0381
  298MOL0     H40198   3.792   2.018   2.937 -0.7803 -0.4555 -1.0031
  298MOL0     H40199   3.816   1.839   2.941 -1.1064  0.0894 -3.1761
  298MOL0     H40200   3.553   1.966   2.864 -1.7817 -4.6932  0.2681
  298MOL0     H40201   3.619   1.806   2.822 -0.9795 -0.4303 -0.5247
  298MOL0     H40202   3.820   1.933   2.706 -0.3495 -0.2844 -0.2268
  298MOL0     H40203   3.703   2.072   2.702  0.6497  0.6124 -1.5353
  298MOL0     H40204   3.680   1.773   2.609  0.9286  1.1144 -0.6794
  298MOL0     H40205   3.551   1.902   2.601  0.1958  2.1361  1.9615
  298MOL0     H40206   3.667   1.874   2.373 -1.1100  2.7102 -0.4841
  298MOL0     H40207   3.822   1.898   2.459  0.6229 -0.1263  1.3853
  298MOL0     H40208   3.672   2.132   2.503  0.4437 -1.6539  1.3740
  298MOL0     H40209   3.806   2.105   2.387  1.7846 -1.1759  1.1353
  298MOL0     H40210   3.485   1.866   3.363  0.0232  0.0087 -0.1178
  298MOL0     H40211   3.322   2.022   3.500 -0.9266 -0.3871 -1.4446
  298MOL0     H40212   3.200   2.417   3.577  0.0184 -1.3142  0.4345
  298MOL0     H40213   2.982   2.502   3.656 -0.1850  0.0887 -1.4488
  298MOL0     H40214   3.358   2.658   3.656  2.4925  1.0756  0.0489
  298MOL0     H40215   3.594   2.664   3.724  1.1408  0.6569 -0.6611
  298MOL0     H40216   3.883   2.528   3.799 -0.6542 -1.4481  2.1500
  298MOL0     H40217   4.011   2.531   4.003  0.1772 -0.4243  0.6244
  298MOL0     H40218   4.150   2.585   4.210 -0.2748  0.5663  2.5247
  298MOL0     H40219   3.997   2.672   4.171  0.0546  0.8341 -2.5241
  298MOL0     H40220   4.063   2.837   4.321 -1.3458 -1.4323  1.1379
  298MOL0     H40221   4.233   2.778   4.316  0.1844 -2.5525  0.6650
  298MOL0     H40222   4.152   2.571   4.436 -3.4804 -1.3803 -0.5450
  298MOL0     H40223   3.986   2.621   4.409  0.9195 -0.5008 -2.4734
  298MOL0     H40224   3.993   2.793   4.588 -0.0584 -0.8241  4.5147
  298MOL0     H40225   4.074   2.662   4.654  0.7949  0.8682  0.2559
  298MOL0     H40226   4.391   2.928   4.598  0.6454 -0.6837  1.7827
  298MOL0     H40227   4.147   2.926   3.896  0.5413 -0.6114  4.0132
  298MOL0     H40228   4.024   2.924   3.561  2.8665 -1.1293 -0.3773
  298MOL0     H40229   3.953   3.034   3.687  2.0672 -0.0781  0.2222
  298MOL0     H40230   4.127   3.014   3.678  0.3694  0.1457  2.8519
  299MOL0     O40231   7.961   6.488   1.298 -0.0377  0.1974  0.4724
  299MOL0     C40232   8.009   6.584   1.346 -1.2199 -0.6443 -0.7844
  299MOL0     O40233   7.969   6.717   1.318  0.7037 -0.5813  0.3409
  299MOL0     C40234   7.882   6.733   1.216 -0.7315 -0.7772  0.3629
  299MOL0     C40235   7.920   6.819   1.110  0.7719 -0.2313  0.5127
  299MOL0     C40236   7.849   6.832   0.994  1.0038  0.6161  0.8873
  299MOL0     C40237   7.717   6.766   0.987  0.7733 -0.8055  0.9685
  299MOL0     O40238   7.639   6.792   0.880  0.5483  0.8946 -0.1208
  299MOL0     C40239   7.511   6.847   0.904  0.4794 -0.2819 -0.3754
  299MOL0     C40240   7.402   6.841   0.806 -0.4879  1.4459  1.4563
  299MOL0     C40241   7.259   6.884   0.861  0.1150 -0.1245  0.4395
  299MOL0     C40242   7.144   6.843   0.769  0.4073  0.3665 -0.1980
  299MOL0     C40243   7.008   6.861   0.840  1.0617  0.7485 -0.1402
  299MOL0     C40244   6.899   6.787   0.765 -0.2584 -1.2232 -0.1865
  299MOL0     C40245   6.863   6.838   0.623  0.4363 -0.4434  0.7957
  299MOL0     C40246   6.847   6.719   0.539  0.0472 -0.0240  1.4738
  299MOL0     N40247   6.983   6.664   0.520  1.0107 -0.5308  0.6553
  299MOL0     C40248   7.053   6.694   0.405  0.0703  0.1090  0.2938
  299MOL0     C40249   7.141   6.594   0.395 -0.6223 -0.0448  0.0816
  299MOL0     C40250   7.256   6.590   0.304  0.8741  0.3006 -0.5527
  299MOL0     C40251   7.371   6.680   0.343 -0.3780 -0.0575 -0.0889
  299MOL0     C40252   7.485   6.597   0.399  0.3679 -0.4506 -0.2866
  299MOL0     C40253   7.582   6.696   0.462 -0.8056  1.2299 -0.2950
  299MOL0     O40254   7.652   6.762   0.352 -0.7337  0.8400 -1.2436
  299MOL0     C40255   7.769   6.836   0.373 -0.1931  0.3769  0.3313
  299MOL0     C40256   7.841   6.839   0.489  0.3894 -0.7598 -0.6480
  299MOL0     C40257   7.956   6.920   0.502 -0.2330  0.4916 -0.7175
  299MOL0     C40258   8.009   6.981   0.381 -0.1324 -0.3763 -0.8359
  299MOL0     C40259   8.144   7.038   0.384 -0.7625 -0.5135 -0.1199
  299MOL0     O40260   8.186   7.081   0.508 -0.1426 -0.5757  0.2060
  299MOL0     C40261   8.312   7.125   0.523  0.0245  0.7556  0.2455
  299MOL0     C40262   8.350   7.249   0.468  0.5348 -0.1182  0.2227
  299MOL0     C40263   8.471   7.303   0.503 -0.4391  0.5234  0.1043
  299MOL0     C40264   8.550   7.245   0.596 -0.0567 -0.1502  0.2145
  299MOL0     O40265   8.667   7.307   0.627 -0.0400  0.0476  0.9997
  299MOL0     C40266   8.664   7.432   0.692 -0.3921 -0.2776 -0.6380
  299MOL0     C40267   8.643   7.403   0.842  0.4231  0.2582  0.6149
  299MOL0     C40268   8.739   7.300   0.899  0.5922 -0.0748  0.4837
  299MOL0     C40269   8.710   7.273   1.051 -0.7911 -0.0804  0.5952
  299MOL0     C40270   8.840   7.206   1.119  0.3917 -0.0505 -0.2012
  299MOL0     C40271   8.821   7.060   1.113 -0.3360  0.6136  0.7718
  299MOL0     C40272   8.928   6.966   1.172  0.3061 -0.1608 -0.2031
  299MOL0     C40273   8.910   6.822   1.125 -0.7488  0.2708 -0.2355
  299MOL0    Cl40274   8.998   6.711   1.235  0.3661  0.8331  0.2147
  299MOL0     C40275   8.525   7.111   0.629 -0.6646 -0.2197  0.3052
  299MOL0     C40276   8.406   7.054   0.594  0.0411 -0.3418  0.0303
  299MOL0     O40277   8.194   7.068   0.275 -0.0628  0.7705  0.7052
  299MOL0     C40278   7.934   6.975   0.272 -0.7992  0.1703 -0.0125
  299MOL0     C40279   7.819   6.895   0.266 -0.3752 -0.1836  1.4034
  299MOL0     N40280   7.124   6.513   0.509 -0.4013  0.2410  0.8271
  299MOL0     N40281   7.037   6.555   0.581  0.3707  0.0112  0.0401
  299MOL0     C40282   7.673   6.686   1.091 -0.4210  0.3999  0.8572
  299MOL0     C40283   7.760   6.667   1.204 -0.2324 -0.6402  0.3964
  299MOL0     C40284   8.126   6.574   1.443 -0.4654  0.7438 -0.3540
  299MOL0     C40285   8.214   6.679   1.445 -0.1041 -0.3414  0.8011
  299MOL0     C40286   8.329   6.670   1.529  0.5502 -0.4992 -0.2752
  299MOL0     C40287   8.363   6.561   1.600 -0.0640 -0.7062  0.6491
  299MOL0     O40288   8.479   6.558   1.675  0.0874 -0.1295 -0.1860
  299MOL0     C40289   8.592   6.486   1.627 -0.0955 -0.2795  1.9867
  299MOL0     C40290   8.632   6.375   1.705  0.4527  0.9175 -0.2278
  299MOL0     C40291   8.769   6.318   1.660 -0.0263  0.2390 -0.6033
  299MOL0     C40292   8.822   6.195   1.739 -0.2999  1.0030 -0.1733
  299MOL0     C40293   8.969   6.165   1.720 -0.5544  0.0781  0.8169
  299MOL0     C40294   9.086   6.139   1.739  0.4204  0.4993  0.1610
  299MOL0     C40295   8.284   6.450   1.595  0.0474  0.1584  0.0118
  299MOL0     C40296   8.168   6.459   1.519  0.2208  1.0644  0.6919
  299MOL0     C40297   8.084   6.336   1.527 -1.4471 -0.0688 -0.8914
  299MOL0     H40298   8.016   6.868   1.121  0.2384  0.7681  0.7820
  299MOL0     H40299   7.890   6.873   0.902  0.2510 -0.4497  0.0391
  299MOL0     H40300   7.463   6.814   0.997  1.4817 -0.7624 -0.0088
  299MOL0     H40301   7.513   6.953   0.929 -2.5406  0.2671 -2.0497
  299MOL0     H40302   7.407   6.737   0.772  0.1210  1.5734  1.1512
  299MOL0     H40303   7.433   6.912   0.728  0.8772  0.0710  0.6998
  299MOL0     H40304   7.238   6.989   0.881  1.2592  0.4449 -1.1833
  299MOL0     H40305   7.236   6.824   0.950 -1.0549 -3.8987 -2.1330
  299MOL0     H40306   7.145   6.902   0.677  2.9873 -0.1084 -0.5735
  299MOL0     H40307   7.161   6.742   0.732 -0.0703 -0.1044  0.8314
  299MOL0     H40308   7.010   6.822   0.942 -1.1995  0.6314 -0.0882
  299MOL0     H40309   6.972   6.965   0.842 -1.2227  0.0618 -1.6990
  299MOL0     H40310   6.924   6.681   0.767 -2.2447 -1.7286  0.6598
  299MOL0     H40311   6.816   6.803   0.836 -0.4147 -1.1510 -0.3859
  299MOL0     H40312   6.939   6.905   0.580  1.4417 -1.6485  0.6471
  299MOL0     H40313   6.770   6.896   0.621 -0.3982 -1.7593  0.4327
  299MOL0     H40314   6.775   6.654   0.590 -0.9405  1.2183  1.7364
  299MOL0     H40315   6.797   6.737   0.443 -2.0118 -0.9029  2.3044
  299MOL0     H40316   7.017   6.768   0.334 -0.4830 -0.4909 -0.0652
  299MOL0     H40317   7.282   6.484   0.305  1.6737  0.4367  2.0293
  299MOL0     H40318   7.207   6.607   0.208 -2.6896 -0.4357  0.9631
  299MOL0     H40319   7.398   6.735   0.253 -2.8846  1.6639  0.1046
  299MOL0     H40320   7.340   6.754   0.417  4.5890  2.9928 -0.5681
  299MOL0     H40321   7.525   6.549   0.310 -3.0836  3.4396 -4.4422
  299MOL0     H40322   7.447   6.524   0.472  1.4309 -0.8830 -0.1434
  299MOL0     H40323   7.659   6.641   0.517 -1.0768  1.2276  0.0795
  299MOL0     H40324   7.529   6.768   0.524 -0.2855  1.6153 -0.2963
  299MOL0     H40325   7.801   6.779   0.570 -1.5582  2.3465  0.8583
  299MOL0     H40326   8.015   6.914   0.593  0.6996  0.6073 -1.3067
  299MOL0     H40327   8.272   7.306   0.418 -0.3710 -2.5160 -1.2839
  299MOL0     H40328   8.514   7.391   0.456  0.7822  0.2947  0.7570
  299MOL0     H40329   8.763   7.476   0.676 -0.0608 -1.7964 -3.2624
  299MOL0     H40330   8.580   7.496   0.664 -1.2653  0.2569  2.7033
  299MOL0     H40331   8.650   7.498   0.897 -0.0441  1.4272 -1.2387
  299MOL0     H40332   8.541   7.367   0.853  0.3570  0.6714  1.4032
  299MOL0     H40333   8.745   7.211   0.836  0.1445 -0.5820  1.1402
  299MOL0     H40334   8.839   7.344   0.904  0.5902  0.7532 -3.8175
  299MOL0     H40335   8.616   7.219   1.066  0.8257 -3.1872  0.4125
  299MOL0     H40336   8.697   7.372   1.095  0.6625  0.5670 -0.3678
  299MOL0     H40337   8.821   7.249   1.218  2.9298  2.7232 -0.7712
  299MOL0     H40338   8.939   7.236   1.081  1.7593 -1.5202  1.9796
  299MOL0     H40339   8.725   7.030   1.154 -0.3562 -0.0177  0.2737
  299MOL0     H40340   8.816   7.031   1.007  1.3187 -6.0655  2.1006
  299MOL0     H40341   8.922   6.972   1.281 -0.6694  0.2722 -0.2707
  299MOL0     H40342   9.024   7.000   1.133  1.1356 -2.6287 -0.4990
  299MOL0     H40343   8.804   6.794   1.117 -1.4903  2.1236  1.9611
  299MOL0     H40344   8.963   6.817   1.030 -0.9919  0.1165 -0.3658
  299MOL0     H40345   8.614   7.056   0.657  1.6323  0.6569 -4.2383
  299MOL0     H40346   8.386   6.950   0.619  0.6078 -0.0292  2.0051
  299MOL0     H40347   7.970   7.026   0.183  0.4173 -0.3922  0.1399
  299MOL0     H40348   7.758   6.878   0.177  3.5080  0.2790 -1.6323
  299MOL0     H40349   7.581   6.631   1.074  1.7454 -2.5511 -2.7754
  299MOL0     H40350   7.732   6.597   1.282 -0.7933 -1.7814 -0.7755
  299MOL0     H40351   8.210   6.767   1.382 -1.3899 -1.4347 -0.7179
  299MOL0     H40352   8.403   6.749   1.540 -1.7748  2.2047 -2.6422
  299MOL0     H40353   8.671   6.561   1.610 -0.8595 -0.1958 -2.3734
  299MOL0     H40354   8.568   6.456   1.525  2.7763 -0.1876  1.1834
  299MOL0     H40355   8.548   6.305   1.692  0.4515  0.4518  1.9015
  299MOL0     H40356   8.634   6.387   1.814  1.8970  0.6095 -0.2106
  299MOL0     H40357   8.834   6.405   1.675 -1.5069  1.1227  0.8945
  299MOL0     H40358   8.769   6.291   1.554  2.5392 -0.1965 -0.5632
  299MOL0     H40359   8.804   6.209   1.846 -3.6252 -0.6480 -0.3924
  299MOL0     H40360   8.761   6.106   1.720 -2.3673  2.4450 -0.5291
  299MOL0     H40361   9.187   6.114   1.761  0.4941 -0.3336 -1.0455
  299MOL0     H40362   8.318   6.368   1.657 -1.0232  0.5643  1.1797
  299MOL0     H40363   8.146   6.262   1.579 -2.4345 -1.4456 -1.6014
  299MOL0     H40364   8.004   6.372   1.592  1.8189  3.4769  1.6109
  299MOL0     H40365   8.049   6.294   1.432 -0.9712 -1.1042 -0.6287
  300MOL0     O40366   9.267  10.511  10.631  0.5341  0.8195 -0.2611
  300MOL0     C40367   9.238  10.399  10.677 -0.3227  0.5334 -0.5646
  300MOL0     O40368   9.326  10.314  10.733 -0.1757  0.2054  0.9368
  300MOL0     C40369   9.454  10.371  10.730 -0.0484  0.0970 -0.5282
  300MOL0     C40370   9.524  10.404  10.844 -0.3928 -0.1123 -0.4850
  300MOL0     C40371   9.662  10.423  10.833 -0.6431 -0.9414 -0.8540
  300MOL0     C40372   9.735  10.408  10.712  1.0603 -0.0800  0.4990
  300MOL0     O40373   9.870  10.433  10.714 -0.5929 -0.1212 -0.9112
  300MOL0     C40374   9.940  10.460  10.588  0.1840  0.5823 -0.2782
  300MOL0     C40375  10.092  10.478  10.624  0.7438  0.3901  0.9571
  300MOL0     C40376  10.122  10.629  10.655  0.0713 -0.5293 -0.2448
  300MOL0     C40377  10.268  10.668  10.644 -0.1189 -0.3058 -0.4598
  300MOL0     C40378  10.291  10.826  10.648 -0.0517  0.7912  0.0340
  300MOL0     C40379  10.361  10.855  10.784  0.3089 -1.1364  0.0643
  300MOL0     C40380  10.434  10.990  10.797  0.3903 -0.0381 -0.3353
  300MOL0     C40381  10.496  11.018  10.932  0.4386 -0.0985 -0.3605
  300MOL0     N40382  10.398  11.040  11.039 -0.7118 -0.1467  0.4217
  300MOL0     C40383  10.437  11.089  11.156  0.4303 -0.3717 -0.5072
  300MOL0     C40384  10.323  11.116  11.227 -0.8473 -0.3031  0.0140
  300MOL0     C40385  10.317  11.180  11.366 -0.5160  0.6879  1.0653
  300MOL0     C40386  10.352  11.324  11.363  0.6729  0.0732 -0.4151
  300MOL0     C40387  10.239  11.426  11.348 -0.7136 -0.7168 -0.1137
  300MOL0     C40388  10.172  11.420  11.205  0.4904  0.4492  0.5682
  300MOL0     O40389  10.267  11.477  11.107 -0.3480  0.0735 -0.5844
  300MOL0     C40390  10.224  11.522  10.988 -0.4026 -0.4457  0.0253
  300MOL0     C40391  10.094  11.496  10.933  0.0829 -0.5037  0.8057
  300MOL0     C40392  10.070  11.540  10.796 -0.3661 -0.3933 -0.4917
  300MOL0     C40393  10.166  11.602  10.722  0.0957  0.6082 -0.1403
  300MOL0     C40394  10.156  11.625  10.579 -0.5170 -0.4400  0.5121
  300MOL0     O40395  10.266  11.602  10.507 -0.2745 -0.0241 -0.4345
  300MOL0     C40396  10.276  11.592  10.367 -0.1568 -0.4750 -0.1871
  300MOL0     C40397  10.175  11.591  10.278  0.5187 -0.2307  0.4480
  300MOL0     C40398  10.199  11.560  10.147 -0.9528 -0.0192  0.0493
  300MOL0     C40399  10.334  11.549  10.096  0.7148  1.2963  0.8521
  300MOL0     O40400  10.363  11.551   9.963 -0.9493  0.5128 -0.0300
  300MOL0     C40401  10.279  11.477   9.874 -0.1779 -0.5803 -0.3841
  300MOL0     C40402  10.355  11.408   9.768  0.2040 -0.4764  0.3946
  300MOL0     C40403  10.435  11.507   9.676 -0.5636 -0.7682  0.6866
  300MOL0     C40404  10.357  11.621   9.596  0.9720  0.5775 -0.8378
  300MOL0     C40405  10.437  11.671   9.483 -0.0087  0.1575  0.0997
  300MOL0     C40406  10.406  11.814   9.452  0.0924 -0.1615  0.4230
  300MOL0     C40407  10.493  11.913   9.540 -0.9544 -0.0105  0.0023
  300MOL0     C40408  10.462  11.926   9.684 -0.2940  0.4749 -0.0773
  300MOL0    Cl40409  10.578  12.025   9.762  0.4154 -0.6723  0.2376
  300MOL0     C40410  10.436  11.559  10.191  0.8512 -0.3309 -0.5519
  300MOL0     C40411  10.407  11.582  10.317 -0.6802  0.2704  0.4680
  300MOL0     O40412  10.043  11.654  10.532 -0.1623 -0.4272  0.4888
  300MOL0     C40413  10.281  11.648  10.782  0.1002 -0.7408  0.2642
  300MOL0     C40414  10.301  11.618  10.916  0.3263 -0.5933  0.1580
  300MOL0     N40415  10.213  11.078  11.151  0.6865 -0.9151  0.1487
  300MOL0     N40416  10.260  11.048  11.029 -0.5720 -0.3846 -0.0618
  300MOL0     C40417   9.657  10.378  10.600 -0.1110  0.7765  0.2904
  300MOL0     C40418   9.523  10.351  10.605 -0.7852 -0.4273 -1.4000
  300MOL0     C40419   9.101  10.352  10.666 -0.1265 -0.9617 -0.0012
  300MOL0     C40420   9.071  10.229  10.728  0.0858 -0.5111  0.3575
  300MOL0     C40421   8.943  10.176  10.717  0.5094  0.1373 -0.1400
  300MOL0     C40422   8.842  10.232  10.641  0.3060 -0.1194 -0.1969
  300MOL0     O40423   8.731  10.159  10.605  0.0867 -0.7462 -0.5074
  300MOL0     C40424   8.737  10.018  10.627 -0.1775  0.5510  0.7129
  300MOL0     C40425   8.827   9.940  10.529 -0.0984  0.4369  0.1468
  300MOL0     C40426   8.757   9.907  10.391 -0.9342  1.1625  0.1544
  300MOL0     C40427   8.867   9.848  10.286 -0.0050  0.6572  0.5779
  300MOL0     C40428   8.923   9.718  10.335 -0.2484  0.2279 -0.3273
  300MOL0     C40429   8.991   9.621  10.365  0.3862  0.5103 -0.7877
  300MOL0     C40430   8.875  10.357  10.585  0.0072 -0.4939  0.2688
  300MOL0     C40431   9.001  10.410  10.583  0.9511 -0.5897  0.8367
  300MOL0     C40432   9.019  10.536  10.483  0.1583  0.7828  0.2236
  300MOL0     H40433   9.459  10.402  10.932  2.2426 -2.6788  1.5896
  300MOL0     H40434   9.717  10.453  10.922 -2.9031  0.3728  0.2011
  300MOL0     H40435   9.937  10.372  10.524 -0.0342  1.8307 -2.0750
  300MOL0     H40436   9.904  10.546  10.532 -0.4635 -1.4804 -3.2339
  300MOL0     H40437  10.149  10.443  10.538 -1.5347 -1.9066  0.2624
  300MOL0     H40438  10.122  10.416  10.710  0.8411  0.9643  1.3425
  300MOL0     H40439  10.092  10.652  10.757  0.4527 -1.0858 -0.0054
  300MOL0     H40440  10.073  10.699  10.587 -0.4326 -1.4564 -0.8549
  300MOL0     H40441  10.327  10.620  10.724 -1.6819 -0.7961  0.4346
  300MOL0     H40442  10.299  10.641  10.543 -0.5364 -3.8770  0.2317
  300MOL0     H40443  10.357  10.858  10.567 -0.3741  1.1823 -0.0778
  300MOL0     H40444  10.197  10.881  10.651 -0.2054  0.5610 -0.5813
  300MOL0     H40445  10.292  10.851  10.869 -0.4222  0.4604 -0.4270
  300MOL0     H40446  10.438  10.779  10.806 -0.2655 -1.0106  2.9228
  300MOL0     H40447  10.376  11.077  10.765  1.2069  0.4363 -0.5555
  300MOL0     H40448  10.514  10.983  10.723 -0.5809  1.3190 -1.5528
  300MOL0     H40449  10.567  10.938  10.957  0.1600 -0.6430 -1.2652
  300MOL0     H40450  10.566  11.102  10.928  1.0553 -0.2825  3.1381
  300MOL0     H40451  10.535  11.127  11.185  0.3175  1.3407 -2.1763
  300MOL0     H40452  10.216  11.166  11.406  0.1472 -1.6894  2.0823
  300MOL0     H40453  10.390  11.129  11.429  2.2719 -0.9129 -3.0167
  300MOL0     H40454  10.388  11.336  11.465 -2.4430 -0.9650  0.9107
  300MOL0     H40455  10.436  11.365  11.306  0.3479  1.5934  0.1480
  300MOL0     H40456  10.296  11.519  11.350 -0.2886 -0.9884  0.6441
  300MOL0     H40457  10.161  11.418  11.424  2.9291 -4.3045  3.7746
  300MOL0     H40458  10.085  11.485  11.211 -0.6994 -0.8791 -1.2904
  300MOL0     H40459  10.140  11.325  11.163 -3.6698  2.7356 -2.0928
  300MOL0     H40460  10.021  11.441  10.992 -1.8798  0.7415 -0.3640
  300MOL0     H40461   9.971  11.521  10.756 -1.4914 -1.1220  2.3790
  300MOL0     H40462  10.070  11.601  10.304  0.0256 -3.1376 -0.1081
  300MOL0     H40463  10.108  11.571  10.090 -2.3419 -0.0472  2.1519
  300MOL0     H40464  10.233  11.404   9.941  0.1619 -3.6146 -3.1814
  300MOL0     H40465  10.198  11.537   9.830  0.6363  1.2921  0.5713
  300MOL0     H40466  10.418  11.325   9.801 -0.7703 -1.3884  0.0374
  300MOL0     H40467  10.272  11.369   9.708 -1.1518  0.5982  1.5174
  300MOL0     H40468  10.518  11.555   9.730  0.1084 -1.7736  0.5793
  300MOL0     H40469  10.480  11.438   9.604 -2.1739 -1.3599  0.2079
  300MOL0     H40470  10.318  11.706   9.653  2.8748  0.2728  1.0614
  300MOL0     H40471  10.273  11.573   9.545  1.8397 -0.5256 -1.2793
  300MOL0     H40472  10.410  11.618   9.391 -2.2591  1.2688  0.0482
  300MOL0     H40473  10.543  11.667   9.510 -0.2553  1.0510  1.2852
  300MOL0     H40474  10.422  11.823   9.344 -4.0786 -0.1219 -0.3872
  300MOL0     H40475  10.296  11.820   9.455 -0.0369 -1.0803 -1.2097
  300MOL0     H40476  10.487  12.014   9.499 -3.6454 -0.7537 -1.7084
  300MOL0     H40477  10.596  11.882   9.520 -1.1155  0.5017 -1.8498
  300MOL0     H40478  10.362  11.969   9.688 -0.2172  0.5887  2.2210
  300MOL0     H40479  10.473  11.828   9.731 -0.2469  0.3467 -0.3546
  300MOL0     H40480  10.532  11.562  10.141  0.0677  1.7048 -2.0844
  300MOL0     H40481  10.490  11.612  10.380 -0.9374 -0.0719  0.9789
  300MOL0     H40482  10.351  11.708  10.725 -0.4285 -1.2630 -0.9922
  300MOL0     H40483  10.391  11.661  10.957 -0.2799  2.5061 -1.4495
  300MOL0     H40484   9.695  10.357  10.500  2.4537  1.4955  1.0662
  300MOL0     H40485   9.467  10.318  10.518  0.0162  0.2753 -2.2093
  300MOL0     H40486   9.139  10.176  10.794 -1.6422 -0.8341  1.9366
  300MOL0     H40487   8.932  10.078  10.763 -2.0749 -1.5727 -3.8954
  300MOL0     H40488   8.642   9.983  10.587  1.3693 -0.6509 -2.2215
  300MOL0     H40489   8.735   9.996  10.734 -1.0530  2.7309  1.2061
  300MOL0     H40490   8.860   9.844  10.570 -0.5065  0.2072 -0.0418
  300MOL0     H40491   8.909  10.001  10.491 -2.8709  1.9333 -4.3271
  300MOL0     H40492   8.723  10.000  10.345 -0.7245  1.7932  1.2490
  300MOL0     H40493   8.670   9.842  10.392  1.1915 -1.9986 -1.3663
  300MOL0     H40494   8.820   9.816  10.193 -1.1130 -1.6934  1.8482
  300MOL0     H40495   8.950   9.912  10.257  0.3184 -0.7177 -1.7373
  300MOL0     H40496   9.052   9.540  10.399 -0.7520 -0.5311 -1.1579
  300MOL0     H40497   8.802  10.404  10.520  1.1697  0.5097 -0.3423
  300MOL0     H40498   8.945  10.543  10.403 -0.6697 -2.9066  0.4943
  300MOL0     H40499   9.027  10.623  10.548  0.8167  0.7285  0.2251
  300MOL0     H40500   9.113  10.538  10.428  0.9584  1.2042  1.5557
  301MOL0     O40501   3.111   8.098   4.952 -0.8505  0.3401 -0.6216
  301MOL0     C40502   3.089   8.214   4.980 -0.5933  0.2016 -0.2329
  301MOL0     O40503   3.123   8.272   5.101  0.2393 -0.3867 -0.1679
  301MOL0     C40504   3.185   8.190   5.191  0.2072  0.4647 -0.5068
  301MOL0     C40505   3.120   8.171   5.313  0.4280  0.6555  0.3378
  301MOL0     C40506   3.181   8.080   5.410  1.5088  0.0851  0.6910
  301MOL0     C40507   3.303   8.020   5.383  0.7457  0.3899  0.9649
  301MOL0     O40508   3.358   7.934   5.476  0.8496 -0.3135  0.1272
  301MOL0     C40509   3.418   7.816   5.429 -0.7017  0.5301 -0.0827
  301MOL0     C40510   3.455   7.725   5.548  0.5387  0.9145  0.7961
  301MOL0     C40511   3.540   7.604   5.502 -0.5200 -0.0094  0.6483
  301MOL0     C40512   3.599   7.549   5.635 -0.1470  0.4699 -0.1976
  301MOL0     C40513   3.694   7.434   5.600 -0.2908 -0.7377  0.1700
  301MOL0     C40514   3.807   7.465   5.505  0.3112  0.3123  0.3501
  301MOL0     C40515   3.933   7.385   5.536 -0.4868  0.5176 -0.0014
  301MOL0     C40516   3.897   7.232   5.500  0.4240 -0.4400 -0.0972
  301MOL0     N40517   4.006   7.137   5.526 -0.1310  0.1280  0.0686
  301MOL0     C40518   4.046   7.082   5.646 -1.3161  0.0677 -0.5947
  301MOL0     C40519   4.162   7.015   5.617 -0.3161 -1.0825 -0.4432
  301MOL0     C40520   4.263   6.970   5.717 -0.5320  0.7016 -0.2659
  301MOL0     C40521   4.329   6.831   5.696  0.5218 -0.1033 -0.0444
  301MOL0     C40522   4.465   6.836   5.767  0.1459 -0.3366  0.4335
  301MOL0     C40523   4.554   6.711   5.748 -0.5925  0.6663 -0.0128
  301MOL0     O40524   4.478   6.603   5.806 -0.1983  0.6162  0.0577
  301MOL0     C40525   4.533   6.476   5.803 -0.2004 -0.8064  0.4858
  301MOL0     C40526   4.657   6.435   5.754  0.7418  0.0262 -0.1418
  301MOL0     C40527   4.695   6.304   5.768  1.1643 -1.2626  0.6865
  301MOL0     C40528   4.616   6.213   5.828  0.2111 -0.2603  0.4954
  301MOL0     C40529   4.646   6.071   5.835  0.4823  0.0092 -0.9069
  301MOL0     O40530   4.555   5.986   5.910  0.1675 -0.3171 -0.8312
  301MOL0     C40531   4.537   5.843   5.891 -0.8362 -0.3680 -1.6378
  301MOL0     C40532   4.634   5.750   5.856 -0.3418 -0.8046 -0.0971
  301MOL0     C40533   4.597   5.616   5.863  0.1072  0.0536 -0.5102
  301MOL0     C40534   4.465   5.570   5.888  0.2764 -1.4155  0.3693
  301MOL0     O40535   4.424   5.444   5.870  0.4619 -0.6230 -0.4093
  301MOL0     C40536   4.503   5.330   5.894 -0.4899  0.4348  0.2888
  301MOL0     C40537   4.459   5.217   5.808 -0.1434 -0.0540 -0.2406
  301MOL0     C40538   4.504   5.090   5.876  1.1571  0.3848  0.5031
  301MOL0     C40539   4.469   4.966   5.789  0.3138 -0.5014 -0.2887
  301MOL0     C40540   4.576   4.854   5.816  0.0637  0.0078 -0.5626
  301MOL0     C40541   4.579   4.806   5.962 -0.3507 -0.2766  0.0093
  301MOL0     C40542   4.450   4.730   5.983 -0.9454 -0.0774 -0.3013
  301MOL0     C40543   4.447   4.693   6.135  0.4664 -0.4115 -0.0284
  301MOL0    Cl40544   4.577   4.587   6.194  0.0655 -0.5040 -0.3658
  301MOL0     C40545   4.374   5.666   5.922  0.6776 -0.2506 -0.1996
  301MOL0     C40546   4.417   5.798   5.931 -0.2550  0.5149  0.0490
  301MOL0     O40547   4.751   6.031   5.780  0.7990  0.5691  0.0236
  301MOL0     C40548   4.487   6.250   5.878 -1.2894  0.4264  0.0915
  301MOL0     C40549   4.453   6.383   5.872  0.6752 -0.5810 -0.0608
  301MOL0     N40550   4.175   7.013   5.480  0.7920  0.3219 -0.3648
  301MOL0     N40551   4.093   7.098   5.426 -0.3778  0.3794 -0.0905
  301MOL0     C40552   3.358   8.049   5.258  0.9972 -0.0174  1.1709
  301MOL0     C40553   3.310   8.128   5.162 -0.4274  0.4866 -0.4583
  301MOL0     C40554   3.008   8.295   4.882  0.5043  0.2977 -0.3086
  301MOL0     C40555   2.949   8.404   4.941  0.4576  0.5542  0.2052
  301MOL0     C40556   2.870   8.485   4.850  0.6311 -0.2935  0.5046
  301MOL0     C40557   2.848   8.452   4.714  1.0087  0.2069  0.1962
  301MOL0     O40558   2.747   8.501   4.635 -0.4079 -0.1646  0.2479
  301MOL0     C40559   2.679   8.614   4.677 -0.3940 -0.4502  0.0513
  301MOL0     C40560   2.762   8.746   4.645  0.8031 -0.1463 -0.2004
  301MOL0     C40561   2.870   8.793   4.745  0.3402 -0.3467  0.2296
  301MOL0     C40562   2.906   8.934   4.720  0.2795  0.1082 -0.2487
  301MOL0     C40563   3.001   8.990   4.817 -0.3185 -0.7784  0.8857
  301MOL0     C40564   3.086   9.046   4.882 -0.7293 -0.2491 -0.4432
  301MOL0     C40565   2.912   8.340   4.664  0.3333 -0.3605 -0.7757
  301MOL0     C40566   2.996   8.268   4.744 -0.4044  0.8747  0.2565
  301MOL0     C40567   3.064   8.151   4.669  0.5778 -0.2509  0.2757
  301MOL0     H40568   3.022   8.217   5.318  1.3572  2.9602 -1.0654
  301MOL0     H40569   3.122   8.056   5.498 -0.4939  0.6889 -0.4089
  301MOL0     H40570   3.353   7.764   5.358 -1.2118  1.1359 -0.0615
  301MOL0     H40571   3.510   7.842   5.374 -1.1279  3.8175  0.5295
  301MOL0     H40572   3.365   7.691   5.599  0.9680 -0.1729  0.8648
  301MOL0     H40573   3.505   7.797   5.613 -1.8072  2.7918  0.6312
  301MOL0     H40574   3.614   7.646   5.435  0.9085 -0.7655  1.7012
  301MOL0     H40575   3.483   7.529   5.446 -1.2469 -1.3887  3.0338
  301MOL0     H40576   3.649   7.630   5.688 -3.5882  1.3359  2.0169
  301MOL0     H40577   3.518   7.515   5.700  1.5905  1.6738  2.8346
  301MOL0     H40578   3.738   7.404   5.695 -2.1221 -2.3513  0.5587
  301MOL0     H40579   3.635   7.348   5.567  0.9793 -2.7189  2.6999
  301MOL0     H40580   3.777   7.454   5.401 -0.8517 -2.6035  0.8854
  301MOL0     H40581   3.818   7.571   5.529  0.7613  0.3856 -0.1580
  301MOL0     H40582   3.965   7.371   5.639 -0.2330 -4.0994 -0.4922
  301MOL0     H40583   4.014   7.434   5.481 -0.0340  1.9594  1.8519
  301MOL0     H40584   3.818   7.215   5.573  0.8901 -0.5074  0.4020
  301MOL0     H40585   3.863   7.224   5.397 -0.2012  1.0805 -0.0383
  301MOL0     H40586   4.006   7.100   5.745  0.2984  3.4040 -0.4212
  301MOL0     H40587   4.342   7.046   5.716  0.2356 -0.0733  0.1996
  301MOL0     H40588   4.224   6.965   5.820  1.5254  0.6929  0.5500
  301MOL0     H40589   4.277   6.749   5.746  2.5157  0.3580  3.0149
  301MOL0     H40590   4.326   6.810   5.588 -1.9088  0.4671 -0.1394
  301MOL0     H40591   4.443   6.828   5.873  1.1718  2.3929  0.9391
  301MOL0     H40592   4.526   6.925   5.750  3.5464 -2.3365  1.2807
  301MOL0     H40593   4.649   6.727   5.801 -0.7798 -0.4440  0.6857
  301MOL0     H40594   4.578   6.683   5.645  0.7433  2.4520 -0.2343
  301MOL0     H40595   4.727   6.515   5.730 -0.1568  0.9595  0.2678
  301MOL0     H40596   4.793   6.288   5.725  1.9455 -0.6721  2.1499
  301MOL0     H40597   4.738   5.762   5.825 -0.8380  0.3624 -1.3894
  301MOL0     H40598   4.669   5.541   5.831 -4.7826 -4.6058 -2.1790
  301MOL0     H40599   4.606   5.350   5.863 -0.1526 -2.0855 -0.4360
  301MOL0     H40600   4.492   5.302   5.999  1.1075 -1.1327  0.1003
  301MOL0     H40601   4.350   5.209   5.805 -0.0597 -1.5022 -3.2087
  301MOL0     H40602   4.501   5.228   5.708  0.3595  0.4229  0.0199
  301MOL0     H40603   4.612   5.106   5.877  1.1237  0.6109  0.6328
  301MOL0     H40604   4.478   5.076   5.981  1.6762 -1.6678  0.4006
  301MOL0     H40605   4.476   4.989   5.682 -1.9348 -0.7352 -0.5283
  301MOL0     H40606   4.368   4.928   5.804  0.1848  0.4332  1.5494
  301MOL0     H40607   4.674   4.872   5.771 -0.9139  1.5659 -2.1434
  301MOL0     H40608   4.549   4.760   5.766  2.0088  0.2100 -2.0975
  301MOL0     H40609   4.673   4.752   5.978  0.2524 -0.9519 -4.6627
  301MOL0     H40610   4.573   4.881   6.041  2.3852  0.2272 -0.1727
  301MOL0     H40611   4.449   4.635   5.929  1.4162 -0.5550  0.3841
  301MOL0     H40612   4.362   4.792   5.962 -2.4978 -1.3394  2.0432
  301MOL0     H40613   4.439   4.779   6.203 -0.6622  0.2870 -1.0079
  301MOL0     H40614   4.352   4.644   6.159  1.5337 -2.8321 -0.4955
  301MOL0     H40615   4.272   5.658   5.957 -0.3017  2.8387 -1.9649
  301MOL0     H40616   4.347   5.876   5.960  0.4380  1.7835 -1.5495
  301MOL0     H40617   4.410   6.189   5.925 -1.0038  0.4205  0.5455
  301MOL0     H40618   4.353   6.420   5.891  1.0570  1.5578 -1.8933
  301MOL0     H40619   3.456   8.006   5.242  1.6100  1.9288 -0.7900
  301MOL0     H40620   3.358   8.149   5.067 -0.2805  0.0191 -0.4907
  301MOL0     H40621   2.954   8.427   5.047 -1.9763 -2.3947  1.0800
  301MOL0     H40622   2.798   8.548   4.901 -0.3197 -0.1388 -0.9619
  301MOL0     H40623   2.635   8.594   4.774  0.1500  1.7004  0.7899
  301MOL0     H40624   2.597   8.622   4.605 -0.6314 -0.9824  0.2579
  301MOL0     H40625   2.687   8.825   4.638  0.5551 -0.2426  1.1509
  301MOL0     H40626   2.810   8.735   4.547 -1.1463 -2.3169 -1.0189
  301MOL0     H40627   2.959   8.729   4.739 -0.0409 -0.7682 -3.3834
  301MOL0     H40628   2.826   8.785   4.845  1.9457 -0.9581  0.9329
  301MOL0     H40629   2.951   8.932   4.621  0.4472 -0.0132 -0.1696
  301MOL0     H40630   2.817   8.999   4.717  1.5066  1.7990 -2.6878
  301MOL0     H40631   3.170   9.089   4.933 -1.5180  0.9807 -0.1311
  301MOL0     H40632   2.887   8.318   4.561 -1.8788  1.2732 -0.6544
  301MOL0     H40633   3.055   8.146   4.560  0.4503  2.8019  0.0455
  301MOL0     H40634   3.169   8.171   4.690  0.4962  0.6543 -0.1224
  301MOL0     H40635   3.047   8.054   4.716  3.4463 -1.5837 -1.1779
  302MOL0     O40636   8.400   3.810   6.682 -0.1180  0.0241  0.0095
  302MOL0     C40637   8.502   3.773   6.633  0.2182  0.4583  0.4781
  302MOL0     O40638   8.616   3.734   6.700 -0.4056 -0.0537  0.3230
  302MOL0     C40639   8.625   3.717   6.833  0.2103  0.1309  0.1689
  302MOL0     C40640   8.718   3.624   6.889  0.7325  0.2860  0.7101
  302MOL0     C40641   8.734   3.607   7.024  0.7020  0.9320 -0.6235
  302MOL0     C40642   8.659   3.681   7.111  0.1606  0.1346  0.7372
  302MOL0     O40643   8.669   3.645   7.240 -0.1411  0.5183  0.5983
  302MOL0     C40644   8.551   3.654   7.317  0.2729  0.2095  0.9370
  302MOL0     C40645   8.561   3.573   7.451 -0.6276 -0.1445 -0.2022
  302MOL0     C40646   8.650   3.662   7.533 -0.2987  0.0323 -0.6172
  302MOL0     C40647   8.679   3.623   7.678  0.5328  0.1925 -0.1802
  302MOL0     C40648   8.777   3.722   7.732 -0.7800 -0.3294  0.0674
  302MOL0     C40649   8.803   3.686   7.871 -0.3244 -0.3255  0.2257
  302MOL0     C40650   8.766   3.793   7.975  0.8314 -0.5336 -0.8265
  302MOL0     C40651   8.810   3.746   8.114 -0.8127  1.3577 -1.0170
  302MOL0     N40652   8.764   3.822   8.225 -0.6917 -0.2116  0.4393
  302MOL0     C40653   8.636   3.856   8.254 -0.0644 -0.0265 -0.5521
  302MOL0     C40654   8.645   3.932   8.360 -0.7922 -0.6823  0.1870
  302MOL0     C40655   8.520   3.987   8.418  0.4575 -0.2041  0.4553
  302MOL0     C40656   8.435   3.881   8.486 -0.2391 -0.5907  0.3720
  302MOL0     C40657   8.471   3.869   8.632 -0.5939 -0.1456 -0.3713
  302MOL0     C40658   8.377   3.765   8.683 -0.5795  0.0691 -0.5521
  302MOL0     O40659   8.434   3.644   8.646 -0.1918  0.2737  0.3986
  302MOL0     C40660   8.364   3.529   8.624 -0.9923 -0.1320 -0.0906
  302MOL0     C40661   8.424   3.433   8.537 -0.3079 -0.6173 -0.6844
  302MOL0     C40662   8.358   3.319   8.488 -0.5419 -0.3592 -0.2342
  302MOL0     C40663   8.226   3.295   8.534 -0.8315 -0.7460  0.6266
  302MOL0     C40664   8.155   3.181   8.474 -0.0011 -0.7153  0.2238
  302MOL0     O40665   8.026   3.148   8.526 -0.5279 -0.3814 -1.0574
  302MOL0     C40666   7.952   3.050   8.463  0.1316 -0.0793  0.0873
  302MOL0     C40667   7.818   3.063   8.451  0.0760  0.1697  0.5007
  302MOL0     C40668   7.731   2.953   8.413 -0.5351 -0.1461  0.5894
  302MOL0     C40669   7.783   2.824   8.379  0.2028  0.5444 -0.0336
  302MOL0     O40670   7.709   2.724   8.335  0.6175  0.5132 -0.3071
  302MOL0     C40671   7.590   2.711   8.411 -1.0083 -0.1524 -0.7492
  302MOL0     C40672   7.493   2.609   8.346 -0.9002  0.5482  0.1648
  302MOL0     C40673   7.571   2.490   8.278  0.5460  0.1075  1.1973
  302MOL0     C40674   7.479   2.382   8.235 -0.0588  0.6815 -0.6854
  302MOL0     C40675   7.557   2.278   8.150 -0.4257  0.2976  0.1567
  302MOL0     C40676   7.459   2.150   8.156  0.3585  0.2634  0.4034
  302MOL0     C40677   7.514   2.030   8.243 -0.0201  0.1408  0.0053
  302MOL0     C40678   7.502   2.055   8.394  0.4690  1.1725 -0.6338
  302MOL0    Cl40679   7.335   2.121   8.425  0.1255 -0.0199  0.2008
  302MOL0     C40680   7.917   2.809   8.388 -0.0676 -0.3486  0.6044
  302MOL0     C40681   8.003   2.920   8.429  0.3174 -0.2141 -0.1896
  302MOL0     O40682   8.211   3.135   8.373  0.1860 -0.6646  0.4432
  302MOL0     C40683   8.168   3.381   8.629 -0.8452  0.6330  1.1445
  302MOL0     C40684   8.236   3.491   8.680  0.0508  0.3331  0.7611
  302MOL0     N40685   8.779   3.949   8.396  1.0910 -0.2688 -1.3685
  302MOL0     N40686   8.858   3.890   8.302  0.9123  0.9475 -0.0912
  302MOL0     C40687   8.568   3.776   7.057  0.7008  0.6810 -0.2774
  302MOL0     C40688   8.552   3.792   6.919 -0.1397 -0.5259  1.5804
  302MOL0     C40689   8.518   3.781   6.477 -0.5773  0.1688 -1.1882
  302MOL0     C40690   8.643   3.776   6.419  0.6345  0.5857  0.4530
  302MOL0     C40691   8.664   3.792   6.279 -0.0087 -0.2943 -0.9507
  302MOL0     C40692   8.557   3.823   6.188  0.4670  0.0398 -0.9387
  302MOL0     O40693   8.558   3.807   6.056  0.1040 -0.9845  0.6261
  302MOL0     C40694   8.683   3.817   5.993 -0.0270  0.0424  1.0166
  302MOL0     C40695   8.647   3.786   5.852  1.2252  0.4153  0.3701
  302MOL0     C40696   8.550   3.886   5.784 -0.3329  0.9863  0.4989
  302MOL0     C40697   8.542   3.879   5.637  0.0688  0.3487 -0.4925
  302MOL0     C40698   8.408   3.910   5.585 -0.1850 -0.2895  0.3512
  302MOL0     C40699   8.291   3.925   5.550 -0.2230 -0.0883 -1.0171
  302MOL0     C40700   8.434   3.848   6.255 -0.1993  0.6126 -0.3975
  302MOL0     C40701   8.406   3.812   6.398 -0.3644 -0.0032 -0.0051
  302MOL0     C40702   8.260   3.811   6.444 -0.4026  0.0726  0.7723
  302MOL0     H40703   8.767   3.555   6.821 -0.5533  0.3467 -0.3226
  302MOL0     H40704   8.794   3.526   7.065 -4.4985 -3.0555  0.2334
  302MOL0     H40705   8.519   3.756   7.338  0.9561  1.1835 -2.1819
  302MOL0     H40706   8.469   3.621   7.252 -0.6129  4.0676 -0.1398
  302MOL0     H40707   8.613   3.478   7.435 -1.3018 -0.1791 -2.5258
  302MOL0     H40708   8.467   3.539   7.497 -0.6286 -0.1904 -0.2370
  302MOL0     H40709   8.597   3.757   7.546  4.7471  3.1118  0.5203
  302MOL0     H40710   8.738   3.689   7.473 -0.6041  0.0863 -1.0492
  302MOL0     H40711   8.596   3.632   7.748  3.4314 -0.0170  3.6238
  302MOL0     H40712   8.727   3.525   7.679  3.4148  1.4739 -0.7337
  302MOL0     H40713   8.867   3.709   7.671 -0.8478 -2.9080  0.3858
  302MOL0     H40714   8.730   3.819   7.717 -0.7609 -0.7139 -3.3769
  302MOL0     H40715   8.750   3.591   7.885 -2.0818  0.8192  1.9305
  302MOL0     H40716   8.903   3.653   7.900 -1.7534 -3.6571  1.9395
  302MOL0     H40717   8.658   3.811   7.981  0.6648 -1.5328 -0.6379
  302MOL0     H40718   8.804   3.885   7.929 -2.1913  0.0730 -2.4402
  302MOL0     H40719   8.789   3.638   8.120 -0.3952  1.2995 -0.5016
  302MOL0     H40720   8.919   3.751   8.120 -0.7361  1.8478 -2.4474
  302MOL0     H40721   8.546   3.826   8.200 -0.1681 -0.7894  0.0322
  302MOL0     H40722   8.526   4.084   8.468 -0.3468 -0.6530  1.4656
  302MOL0     H40723   8.458   4.014   8.332  1.9620 -0.1079 -0.6335
  302MOL0     H40724   8.331   3.909   8.470 -0.2826 -2.0568 -2.3012
  302MOL0     H40725   8.442   3.783   8.439  0.2840 -0.3376 -0.0942
  302MOL0     H40726   8.445   3.969   8.667  2.3834  0.1867  1.1763
  302MOL0     H40727   8.579   3.852   8.634 -0.7752 -1.4189 -0.4825
  302MOL0     H40728   8.274   3.782   8.650 -0.0777 -0.0287 -2.2677
  302MOL0     H40729   8.386   3.777   8.791  0.1613  0.9646 -0.7086
  302MOL0     H40730   8.527   3.450   8.506 -0.4699 -2.5052 -2.4753
  302MOL0     H40731   8.411   3.245   8.429  1.7503  1.2971 -0.4089
  302MOL0     H40732   7.778   3.163   8.466  0.2107  0.4492 -0.8863
  302MOL0     H40733   7.624   2.969   8.403 -0.3471 -0.1548 -2.0040
  302MOL0     H40734   7.609   2.667   8.510  0.9803 -1.5816 -1.6983
  302MOL0     H40735   7.530   2.795   8.450  0.9852  0.9136  0.1701
  302MOL0     H40736   7.416   2.583   8.419 -0.9010  2.6477  0.9881
  302MOL0     H40737   7.439   2.671   8.274 -0.1068  0.2221 -0.7395
  302MOL0     H40738   7.604   2.529   8.181 -1.8214 -1.9352 -0.5980
  302MOL0     H40739   7.647   2.440   8.338 -0.4656  1.4954  3.7936
  302MOL0     H40740   7.405   2.440   8.178 -0.7149  0.7229  0.1955
  302MOL0     H40741   7.436   2.333   8.322  0.4930 -0.1811 -0.8845
  302MOL0     H40742   7.656   2.249   8.186 -2.4168 -3.6418  3.3020
  302MOL0     H40743   7.572   2.325   8.052  4.3900  1.9144  1.4024
  302MOL0     H40744   7.351   2.168   8.164  0.3302  1.2920 -1.5696
  302MOL0     H40745   7.481   2.119   8.054  5.3751  2.1730  0.6367
  302MOL0     H40746   7.618   2.018   8.210 -0.9861 -0.8499 -2.9474
  302MOL0     H40747   7.458   1.937   8.233  0.5549 -0.2408  0.2550
  302MOL0     H40748   7.526   1.969   8.458 -1.7226  1.0496  0.1026
  302MOL0     H40749   7.562   2.139   8.430  0.5609  0.3513  1.2894
  302MOL0     H40750   7.960   2.716   8.350  1.1085  0.7307 -0.8111
  302MOL0     H40751   8.103   2.880   8.445  0.3832 -0.2891 -0.7722
  302MOL0     H40752   8.068   3.363   8.666 -0.8832 -3.6705 -0.4974
  302MOL0     H40753   8.197   3.547   8.765  1.5512 -0.6022  2.1258
  302MOL0     H40754   8.509   3.833   7.128  0.1505 -2.4216  1.9653
  302MOL0     H40755   8.502   3.880   6.879 -0.6330 -1.0292  1.0786
  302MOL0     H40756   8.728   3.749   6.482 -1.4197 -3.6829  1.7544
  302MOL0     H40757   8.766   3.779   6.242  1.0573 -0.0231  1.6415
  302MOL0     H40758   8.761   3.747   6.028  0.0679  0.3401  1.4164
  302MOL0     H40759   8.732   3.914   6.007  0.7249  0.1502 -1.8020
  302MOL0     H40760   8.607   3.685   5.849 -2.9913  1.8689 -2.3567
  302MOL0     H40761   8.731   3.789   5.782 -1.6593  0.0624 -3.4888
  302MOL0     H40762   8.571   3.985   5.824  1.9323  0.6567  0.2545
  302MOL0     H40763   8.448   3.861   5.817  0.6187 -2.6019  1.2120
  302MOL0     H40764   8.600   3.963   5.598 -2.3722  0.9822 -3.0672
  302MOL0     H40765   8.574   3.782   5.597 -0.2946  0.5815 -1.3756
  302MOL0     H40766   8.188   3.927   5.522 -0.2831 -1.9357 -1.0275
  302MOL0     H40767   8.351   3.869   6.189  1.6726 -0.1704 -3.1559
  302MOL0     H40768   8.238   3.892   6.513  0.4344 -0.7717  2.0710
  302MOL0     H40769   8.204   3.818   6.350  0.9784 -3.3020 -0.4563
  302MOL0     H40770   8.246   3.711   6.486  0.4785 -0.4761 -0.1958
  303MOL0     O40771   2.052   4.487   9.545 -0.4276  0.2756  0.1284
  303MOL0     C40772   2.097   4.532   9.649 -0.0433 -0.7390  0.7277
  303MOL0     O40773   2.069   4.484   9.772 -0.5872  0.1961 -0.2275
  303MOL0     C40774   1.967   4.393   9.795 -0.4172 -0.1281  0.1707
  303MOL0     C40775   1.844   4.437   9.843  0.3543  1.0367  0.5059
  303MOL0     C40776   1.739   4.354   9.868 -0.4136  0.3213 -0.6394
  303MOL0     C40777   1.744   4.222   9.826 -0.3515 -0.4277  0.3726
  303MOL0     O40778   1.641   4.137   9.846 -0.7193  0.2781 -0.4925
  303MOL0     C40779   1.594   4.123   9.986  1.5654  0.1675  0.0856
  303MOL0     C40780   1.456   4.187  10.008  0.8023 -0.0119 -0.8148
  303MOL0     C40781   1.350   4.147   9.914 -0.5655 -0.8711  0.4787
  303MOL0     C40782   1.219   4.178   9.984 -0.6436  0.2598 -0.0785
  303MOL0     C40783   1.104   4.126   9.904  0.1626  0.7614  0.1070
  303MOL0     C40784   0.979   4.182   9.976 -0.2177 -0.5630 -0.3759
  303MOL0     C40785   0.842   4.146   9.914  1.1861  0.8123 -0.1541
  303MOL0     C40786   0.816   4.159   9.762 -0.7400 -0.1395 -0.3500
  303MOL0     N40787   0.817   4.309   9.739  0.7945  0.0437 -1.0593
  303MOL0     C40788   0.914   4.379   9.675  0.3543  0.0156 -0.2114
  303MOL0     C40789   0.869   4.508   9.659  0.0069 -0.2280  0.0249
  303MOL0     C40790   0.958   4.615   9.599  1.6561  1.3431 -0.7921
  303MOL0     C40791   0.893   4.750   9.569  0.7678 -0.0625  0.2844
  303MOL0     C40792   0.858   4.827   9.686  0.5028  0.0066  0.2035
  303MOL0     C40793   0.758   4.937   9.652 -0.4846  0.4967  0.1434
  303MOL0     O40794   0.636   4.890   9.593 -0.6275  0.5672  0.4908
  303MOL0     C40795   0.517   4.945   9.639 -0.2648 -0.3347  0.3559
  303MOL0     C40796   0.406   4.871   9.614 -0.1639  0.2042  0.1552
  303MOL0     C40797   0.282   4.918   9.667  0.1596  0.3805 -0.2709
  303MOL0     C40798   0.263   5.035   9.735 -1.3753 -0.6972  0.2772
  303MOL0     C40799   0.130   5.071   9.789 -1.4893 -0.4219 -0.6698
  303MOL0     O40800   0.027   4.992   9.748 -1.0833  0.6144 -0.5242
  303MOL0     C40801  -0.100   4.999   9.802  0.4762  0.2542  0.6270
  303MOL0     C40802  -0.192   4.925   9.729 -0.2756 -0.5777  0.6023
  303MOL0     C40803  -0.325   4.926   9.753  0.0031  0.1440  0.1781
  303MOL0     C40804  -0.383   5.004   9.852  0.0174 -0.9180  0.1902
  303MOL0     O40805  -0.522   5.008   9.880  0.2161 -0.1598 -0.5129
  303MOL0     C40806  -0.568   5.150   9.894 -0.0545  0.2711  0.3552
  303MOL0     C40807  -0.658   5.180   9.765  0.4801 -0.4401  0.2471
  303MOL0     C40808  -0.715   5.319   9.753 -0.5163  0.6865 -0.7122
  303MOL0     C40809  -0.832   5.328   9.655 -0.9067 -0.4479  0.2135
  303MOL0     C40810  -0.907   5.457   9.657  0.6118  0.5985  0.0265
  303MOL0     C40811  -0.956   5.494   9.796  0.4267 -0.3458  0.1528
  303MOL0     C40812  -1.034   5.625   9.778  0.8056 -0.2578 -0.7517
  303MOL0     C40813  -1.149   5.618   9.891 -0.4310 -0.0566 -0.0673
  303MOL0    Cl40814  -1.078   5.634  10.059 -0.3085 -0.1127  0.1254
  303MOL0     C40815  -0.291   5.081   9.922  0.8795  1.0730 -0.5380
  303MOL0     C40816  -0.152   5.071   9.903 -0.1844 -0.1433 -0.2344
  303MOL0     O40817   0.123   5.159   9.873  0.0578 -0.2538 -0.4707
  303MOL0     C40818   0.381   5.120   9.748  0.4089  0.7660  0.2771
  303MOL0     C40819   0.502   5.071   9.697  0.5345  1.0366  0.6063
  303MOL0     N40820   0.745   4.516   9.716  0.4461  0.0300  0.1671
  303MOL0     N40821   0.709   4.394   9.755 -0.1288 -0.0786  0.4457
  303MOL0     C40822   1.867   4.172   9.778 -0.5039 -0.7228  0.6452
  303MOL0     C40823   1.990   4.257   9.759  0.4946 -0.2962 -0.2941
  303MOL0     C40824   2.198   4.626   9.622 -0.5628 -1.1214 -0.3740
  303MOL0     C40825   2.213   4.737   9.726 -0.7504 -0.4711 -0.6387
  303MOL0     C40826   2.321   4.829   9.713  0.3977  0.6610 -0.6226
  303MOL0     C40827   2.409   4.813   9.611  0.4118 -0.2021  0.6736
  303MOL0     O40828   2.514   4.899   9.610 -0.2594 -0.1995 -0.2671
  303MOL0     C40829   2.488   5.033   9.553 -0.3529  0.5286 -0.9770
  303MOL0     C40830   2.630   5.093   9.509  0.6642  0.4469  0.1878
  303MOL0     C40831   2.693   5.008   9.401  0.9352  1.5479  0.0021
  303MOL0     C40832   2.813   5.072   9.334  0.0331  0.1779 -0.0840
  303MOL0     C40833   2.868   4.982   9.231  0.5079  0.2879  0.5479
  303MOL0     C40834   2.940   4.915   9.160  0.4463 -0.7900  0.0192
  303MOL0     C40835   2.409   4.711   9.518 -0.0764  0.3346 -0.3717
  303MOL0     C40836   2.304   4.615   9.525  0.0968 -0.2397  0.3463
  303MOL0     C40837   2.315   4.493   9.441  0.2414 -0.3888 -0.5852
  303MOL0     H40838   1.828   4.544   9.848 -1.2655  0.9574 -1.5362
  303MOL0     H40839   1.647   4.384   9.918 -0.0518 -0.4403  0.5391
  303MOL0     H40840   1.577   4.016  10.004 -0.0986  0.0670 -1.7214
  303MOL0     H40841   1.659   4.175  10.058  0.6284  1.0641  0.2980
  303MOL0     H40842   1.451   4.296  10.003 -2.6230 -0.1109 -2.6260
  303MOL0     H40843   1.435   4.158  10.111  1.4638  2.9586  0.2636
  303MOL0     H40844   1.363   4.043   9.883  0.1783 -0.1905 -1.7087
  303MOL0     H40845   1.352   4.211   9.825 -3.7957  0.2918  1.1037
  303MOL0     H40846   1.217   4.125  10.079 -4.1281  0.3851  0.0446
  303MOL0     H40847   1.203   4.286   9.993  4.2425  1.2209 -0.3144
  303MOL0     H40848   1.105   4.161   9.800  2.4009  0.0997 -0.1627
  303MOL0     H40849   1.119   4.018   9.889 -3.0991  0.6641 -4.4322
  303MOL0     H40850   0.985   4.162  10.083 -1.4675  2.6098  0.3895
  303MOL0     H40851   0.991   4.291   9.971  0.7463 -0.6492 -0.0473
  303MOL0     H40852   0.767   4.198   9.973  1.1467  1.2045 -0.5411
  303MOL0     H40853   0.826   4.041   9.941  1.2706 -0.2727 -3.7586
  303MOL0     H40854   0.905   4.119   9.712  0.0138  2.3477 -1.1452
  303MOL0     H40855   0.728   4.104   9.728  0.1178 -2.6882  1.3107
  303MOL0     H40856   1.009   4.340   9.640  0.2405  0.2470 -0.8023
  303MOL0     H40857   1.040   4.623   9.671 -0.9994 -2.4097  3.1583
  303MOL0     H40858   1.002   4.568   9.511  1.7103 -0.4760  0.1435
  303MOL0     H40859   0.963   4.807   9.507  0.5463  1.6195  1.4843
  303MOL0     H40860   0.800   4.729   9.515 -0.7122 -1.1089  3.0309
  303MOL0     H40861   0.947   4.876   9.728  1.6295  0.4438 -2.4952
  303MOL0     H40862   0.814   4.773   9.771  1.9763  0.8761  1.6020
  303MOL0     H40863   0.812   5.011   9.593  0.4910 -0.6361 -0.4480
  303MOL0     H40864   0.738   4.991   9.745 -1.3614 -2.1101  1.5974
  303MOL0     H40865   0.428   4.791   9.545  0.7113  1.8127 -1.5174
  303MOL0     H40866   0.195   4.857   9.644  1.2555 -0.9957 -0.9681
  303MOL0     H40867  -0.143   4.872   9.648 -1.5654 -1.0261  0.0984
  303MOL0     H40868  -0.394   4.871   9.689  0.0869  2.5549 -2.1426
  303MOL0     H40869  -0.635   5.157   9.979 -1.0350 -0.8404 -0.2849
  303MOL0     H40870  -0.488   5.225   9.899  2.2361 -1.9520 -0.3021
  303MOL0     H40871  -0.591   5.160   9.680  1.4058  4.2168 -0.4070
  303MOL0     H40872  -0.741   5.109   9.763  2.3539 -2.8044  1.0722
  303MOL0     H40873  -0.743   5.355   9.853 -1.4332  2.3060 -1.4972
  303MOL0     H40874  -0.636   5.381   9.709  0.3977  0.2027  0.2041
  303MOL0     H40875  -0.903   5.246   9.664 -1.5430 -0.1742 -1.8298
  303MOL0     H40876  -0.793   5.301   9.556 -0.9300 -1.9161  0.5806
  303MOL0     H40877  -0.987   5.439   9.585  0.8694 -2.5749  0.4160
  303MOL0     H40878  -0.840   5.537   9.623  1.4723  0.2289  0.8067
  303MOL0     H40879  -1.017   5.415   9.840  1.8165 -1.6086 -0.1087
  303MOL0     H40880  -0.876   5.501   9.871  1.7005 -1.5401 -1.0267
  303MOL0     H40881  -1.072   5.641   9.677 -0.5912 -1.0860 -0.3737
  303MOL0     H40882  -0.962   5.707   9.785  1.0687 -0.4587 -1.0676
  303MOL0     H40883  -1.225   5.696   9.877  0.9989  1.1306 -1.5069
  303MOL0     H40884  -1.207   5.526   9.887 -0.7256  0.0749  0.8625
  303MOL0     H40885  -0.328   5.143  10.003  1.0791  0.9186 -0.3277
  303MOL0     H40886  -0.088   5.133   9.965 -0.3003  1.1180 -1.3518
  303MOL0     H40887   0.371   5.215   9.799 -0.8394  0.6226  0.3413
  303MOL0     H40888   0.596   5.124   9.690  1.7707 -1.1973 -1.4086
  303MOL0     H40889   1.852   4.068   9.752 -4.5172 -0.0884 -0.3716
  303MOL0     H40890   2.086   4.220   9.724  1.8629  1.2568  1.6281
  303MOL0     H40891   2.155   4.742   9.817  0.4599  0.3636  0.1049
  303MOL0     H40892   2.333   4.905   9.789  0.0012  0.3865 -0.2789
  303MOL0     H40893   2.441   5.094   9.629  0.1492 -1.6782  1.2432
  303MOL0     H40894   2.423   5.034   9.465  1.0870  2.1834 -2.0819
  303MOL0     H40895   2.695   5.099   9.597 -2.0609  0.7804  2.2942
  303MOL0     H40896   2.600   5.187   9.463  1.0444  0.2645 -0.4507
  303MOL0     H40897   2.628   4.971   9.321  2.4240 -3.9212  0.9139
  303MOL0     H40898   2.737   4.919   9.446  2.5560  2.0507 -0.5293
  303MOL0     H40899   2.781   5.165   9.285 -1.4889  1.5688  3.2313
  303MOL0     H40900   2.875   5.113   9.415 -0.8518 -0.4373  0.9211
  303MOL0     H40901   3.001   4.854   9.098 -0.2089 -0.7983 -0.6270
  303MOL0     H40902   2.494   4.688   9.454  1.0463  2.8505  0.1019
  303MOL0     H40903   2.315   4.408   9.510 -0.1584 -1.2071 -1.5686
  303MOL0     H40904   2.231   4.494   9.371 -0.9733 -1.9724  0.7696
  303MOL0     H40905   2.405   4.499   9.380 -0.8679  1.7170 -2.1522
  304MOL0     O40906   3.885   5.237   3.250  0.1889 -0.5573  0.1985
  304MOL0     C40907   3.935   5.204   3.144  0.6755  0.0623 -0.8924
  304MOL0     O40908   3.889   5.247   3.027  0.3055 -0.9429  0.2334
  304MOL0     C40909   3.762   5.319   3.030 -0.1445 -0.4656  1.0800
  304MOL0     C40910   3.669   5.277   2.942  0.1344 -0.9125 -1.0815
  304MOL0     C40911   3.544   5.340   2.927 -0.1737 -0.4623 -0.1665
  304MOL0     C40912   3.514   5.460   3.005 -0.2994  0.3603 -0.1185
  304MOL0     O40913   3.386   5.503   3.016 -0.7048  0.7640  0.7348
  304MOL0     C40914   3.315   5.515   2.898  0.6630 -0.0769 -0.1109
  304MOL0     C40915   3.180   5.583   2.926 -0.3670  0.3577 -0.2340
  304MOL0     C40916   3.085   5.553   2.806  0.3071  0.4764 -0.6749
  304MOL0     C40917   2.934   5.540   2.847  0.4098  0.7080  0.0451
  304MOL0     C40918   2.837   5.496   2.738  0.1636  0.2397 -0.1353
  304MOL0     C40919   2.709   5.458   2.803  0.0628  0.0118  0.0553
  304MOL0     C40920   2.588   5.501   2.715  0.0793 -0.6001 -0.3044
  304MOL0     C40921   2.459   5.470   2.790  0.7770 -0.2323 -0.9195
  304MOL0     N40922   2.337   5.512   2.726  0.8846 -0.8735  0.4084
  304MOL0     C40923   2.218   5.501   2.781  0.3696 -0.0992  0.0136
  304MOL0     C40924   2.131   5.518   2.684 -1.0427 -0.9819 -0.2551
  304MOL0     C40925   1.981   5.502   2.699  0.1975  0.2190 -0.3582
  304MOL0     C40926   1.906   5.477   2.564  0.0605 -0.7567  0.4000
  304MOL0     C40927   1.769   5.415   2.586 -0.8675  0.0616  0.8258
  304MOL0     C40928   1.776   5.271   2.617  0.4211 -0.0337 -0.4707
  304MOL0     O40929   1.806   5.198   2.494 -0.6255  0.1157 -0.4176
  304MOL0     C40930   1.705   5.128   2.439  0.1801 -1.2830 -0.6920
  304MOL0     C40931   1.602   5.192   2.367  0.1941 -0.0595 -0.2761
  304MOL0     C40932   1.500   5.107   2.327 -0.5848  0.5248 -0.5802
  304MOL0     C40933   1.504   4.969   2.329  0.9383  0.2639  0.0680
  304MOL0     C40934   1.397   4.893   2.259  0.3568  0.3315 -0.7035
  304MOL0     O40935   1.325   4.964   2.164  0.2540 -0.1267  0.2473
  304MOL0     C40936   1.201   4.928   2.127 -0.7066  0.5052  1.0049
  304MOL0     C40937   1.111   4.831   2.180 -1.3811  0.3048 -0.0743
  304MOL0     C40938   0.997   4.798   2.120  0.3127 -0.2577 -0.4663
  304MOL0     C40939   0.941   4.877   2.017 -0.2451 -0.1669  0.6999
  304MOL0     O40940   0.825   4.862   1.952 -0.0143  0.5083 -0.5261
  304MOL0     C40941   0.725   4.788   2.019 -1.0523  0.3287  0.3502
  304MOL0     C40942   0.729   4.647   1.961 -0.7534 -0.8053  0.1103
  304MOL0     C40943   0.595   4.579   1.976  1.4327  0.1743 -0.0503
  304MOL0     C40944   0.549   4.549   2.117 -0.7472 -0.2221 -0.6284
  304MOL0     C40945   0.453   4.428   2.112 -0.3842  0.9276 -0.1825
  304MOL0     C40946   0.383   4.396   2.252  0.4294 -0.9957 -0.0434
  304MOL0     C40947   0.283   4.285   2.230  0.6970 -0.0298 -0.3351
  304MOL0     C40948   0.324   4.164   2.139  0.4529  0.7800  0.1932
  304MOL0    Cl40949   0.448   4.084   2.240  0.0224 -0.5025 -0.4191
  304MOL0     C40950   1.021   4.986   1.973  0.2569  0.2947  0.5766
  304MOL0     C40951   1.150   5.009   2.028  1.3372 -0.8641  0.0971
  304MOL0     O40952   1.365   4.787   2.319  0.6247  0.0708  0.1133
  304MOL0     C40953   1.612   4.914   2.391 -0.2176  0.1462 -0.2671
  304MOL0     C40954   1.709   4.987   2.450 -0.1833 -0.1870  1.3744
  304MOL0     N40955   2.204   5.530   2.564  0.6294 -0.8349 -0.4163
  304MOL0     N40956   2.321   5.546   2.593 -0.4976  0.2342  0.4155
  304MOL0     C40957   3.616   5.520   3.083  0.3603  0.0835 -0.3564
  304MOL0     C40958   3.729   5.437   3.098 -0.9039 -0.2251 -0.2590
  304MOL0     C40959   4.015   5.080   3.144  0.1782 -0.7136  0.4334
  304MOL0     C40960   4.003   4.998   3.027 -1.0025  0.0513 -0.1815
  304MOL0     C40961   4.080   4.879   3.021 -0.1739 -0.0323 -0.3890
  304MOL0     C40962   4.164   4.849   3.134  0.2156  0.1129 -0.0666
  304MOL0     O40963   4.234   4.733   3.141 -0.0363  0.1326 -0.5351
  304MOL0     C40964   4.346   4.720   3.048  0.0854 -0.8368  0.5007
  304MOL0     C40965   4.473   4.760   3.123 -0.8327  0.1376  0.6534
  304MOL0     C40966   4.505   4.911   3.125  0.1156 -0.0662 -0.3148
  304MOL0     C40967   4.544   4.960   3.266 -0.1489  0.2092 -0.1865
  304MOL0     C40968   4.625   5.085   3.260  0.2925  0.1177 -0.0630
  304MOL0     C40969   4.690   5.184   3.249 -0.7081 -0.4254 -0.7294
  304MOL0     C40970   4.177   4.934   3.237  0.1573 -0.1603  0.4534
  304MOL0     C40971   4.116   5.055   3.246  0.4167 -0.3108  0.1894
  304MOL0     C40972   4.145   5.139   3.370 -1.0158  0.8269 -0.2187
  304MOL0     H40973   3.699   5.197   2.874 -0.2623 -0.9677 -1.1931
  304MOL0     H40974   3.474   5.285   2.865 -1.7796  0.3664  0.8480
  304MOL0     H40975   3.369   5.565   2.816 -0.7872  2.6814  0.4890
  304MOL0     H40976   3.293   5.413   2.867 -1.2784 -0.0736  1.0839
  304MOL0     H40977   3.182   5.692   2.932 -1.2252  0.5126 -2.1755
  304MOL0     H40978   3.145   5.531   3.016 -1.0760 -1.4489 -1.4801
  304MOL0     H40979   3.114   5.456   2.763 -0.2610 -0.4604  0.9716
  304MOL0     H40980   3.097   5.624   2.724 -0.8716  0.5565 -0.7914
  304MOL0     H40981   2.933   5.473   2.934  3.0337 -2.1285 -1.9127
  304MOL0     H40982   2.902   5.640   2.878 -2.0984 -0.2119  0.6053
  304MOL0     H40983   2.818   5.582   2.673  0.4641  1.3471  1.1923
  304MOL0     H40984   2.876   5.415   2.677  1.8348  1.2819 -0.5156
  304MOL0     H40985   2.705   5.352   2.829  0.6978 -0.7985 -2.7662
  304MOL0     H40986   2.701   5.522   2.891 -2.6939  0.0653 -0.1653
  304MOL0     H40987   2.582   5.457   2.615  1.6402  2.6545 -2.0036
  304MOL0     H40988   2.588   5.609   2.698  1.5163 -0.4676  0.3512
  304MOL0     H40989   2.449   5.362   2.796 -2.3229  0.0011  0.3508
  304MOL0     H40990   2.468   5.513   2.891  1.0144 -4.0966  0.8695
  304MOL0     H40991   2.189   5.482   2.884 -2.8480  3.0350 -0.1287
  304MOL0     H40992   1.977   5.409   2.757  0.5095  0.8298  0.6607
  304MOL0     H40993   1.934   5.582   2.756  2.4879 -0.0687  2.1360
  304MOL0     H40994   1.891   5.569   2.508  2.0318 -0.3744  0.4371
  304MOL0     H40995   1.966   5.409   2.502 -0.6267 -1.3161  0.3315
  304MOL0     H40996   1.710   5.424   2.494 -1.8072 -3.2849  0.9800
  304MOL0     H40997   1.721   5.469   2.668  0.5492  1.0798  1.0102
  304MOL0     H40998   1.676   5.240   2.648  1.2641 -1.7520  0.6980
  304MOL0     H40999   1.856   5.254   2.690  1.0462 -2.8263 -1.6838
  304MOL0     H41000   1.605   5.300   2.356 -1.1863  0.1863  1.4386
  304MOL0     H41001   1.406   5.143   2.286 -2.3292 -2.6800  0.2556
  304MOL0     H41002   1.138   4.773   2.268 -0.9633 -1.1926 -1.1365
  304MOL0     H41003   0.944   4.715   2.167 -0.2266  0.0622 -0.5138
  304MOL0     H41004   0.731   4.786   2.128 -0.8251 -2.9555  0.3720
  304MOL0     H41005   0.632   4.838   1.991 -1.9197 -1.6300 -0.4689
  304MOL0     H41006   0.758   4.636   1.856 -0.7016 -1.9529  0.2271
  304MOL0     H41007   0.802   4.583   2.012 -1.9732 -1.8116  0.6661
  304MOL0     H41008   0.504   4.624   1.934 -0.2003 -0.8872  2.1011
  304MOL0     H41009   0.612   4.482   1.928 -0.5533  0.2597 -1.0273
  304MOL0     H41010   0.502   4.638   2.159 -2.3601 -1.4370  0.2460
  304MOL0     H41011   0.634   4.520   2.179 -3.1156 -0.0736  2.9514
  304MOL0     H41012   0.506   4.336   2.085 -2.4442  0.4473 -3.0091
  304MOL0     H41013   0.377   4.446   2.035  0.0488  2.4752 -0.2911
  304MOL0     H41014   0.452   4.375   2.334  2.4859  4.9897  0.2786
  304MOL0     H41015   0.335   4.490   2.280 -0.6038 -0.9835 -1.7099
  304MOL0     H41016   0.188   4.311   2.182  0.0195 -3.1511 -0.8571
  304MOL0     H41017   0.244   4.251   2.326 -0.8477 -1.7214 -1.4952
  304MOL0     H41018   0.233   4.106   2.120 -0.1330  1.5033  0.7157
  304MOL0     H41019   0.370   4.201   2.047  5.3262  1.8876  2.7633
  304MOL0     H41020   0.980   5.041   1.889  0.0267  1.1295  1.2174
  304MOL0     H41021   1.214   5.082   1.980  0.4906 -0.2701 -0.1492
  304MOL0     H41022   1.610   4.806   2.390 -1.8229  0.1221  1.0968
  304MOL0     H41023   1.790   4.935   2.502  4.2930  0.9701 -3.5962
  304MOL0     H41024   3.607   5.606   3.150  0.6317  0.5069 -0.8588
  304MOL0     H41025   3.799   5.477   3.171  1.3497  3.9791 -4.2007
  304MOL0     H41026   3.943   5.031   2.943  0.4081 -0.0126 -1.2549
  304MOL0     H41027   4.084   4.802   2.945  0.2694  0.4244 -0.8429
  304MOL0     H41028   4.323   4.785   2.963 -1.4665  2.1384  2.9658
  304MOL0     H41029   4.356   4.616   3.015  0.7965  0.2442 -3.1215
  304MOL0     H41030   4.556   4.708   3.075 -1.3872 -1.9982  1.8808
  304MOL0     H41031   4.467   4.722   3.225 -0.2724  0.0026  0.6370
  304MOL0     H41032   4.422   4.971   3.086 -0.7480  0.2192  1.7910
  304MOL0     H41033   4.591   4.933   3.061 -0.8352  1.6805 -1.0607
  304MOL0     H41034   4.460   4.975   3.334  1.6023  0.1024  2.1218
  304MOL0     H41035   4.595   4.880   3.320 -1.0289 -0.5139 -0.3881
  304MOL0     H41036   4.746   5.276   3.244  1.8677 -1.9207 -1.0923
  304MOL0     H41037   4.246   4.893   3.310  2.0873  2.8516  0.4902
  304MOL0     H41038   4.165   5.243   3.345 -1.1899  1.0873  0.6919
  304MOL0     H41039   4.062   5.137   3.441 -1.5242  1.2154 -0.7912
  304MOL0     H41040   4.228   5.103   3.432 -1.6424  2.3418  1.6133
  305MOL0     O41041  11.517   7.430  11.234 -0.4553  0.0021  0.0715
  305MOL0     C41042  11.521   7.341  11.317  0.8016 -0.3141 -0.5959
  305MOL0     O41043  11.633   7.291  11.373 -0.6438  0.5242  0.7124
  305MOL0     C41044  11.759   7.340  11.348 -0.1927 -0.3829 -0.6918
  305MOL0     C41045  11.783   7.475  11.328  0.0377 -0.6169 -0.0085
  305MOL0     C41046  11.906   7.525  11.300 -0.1115  0.1468  0.1963
  305MOL0     C41047  12.012   7.437  11.290  0.9405 -0.2318 -0.2258
  305MOL0     O41048  12.125   7.498  11.268 -0.6509 -0.2042 -0.7962
  305MOL0     C41049  12.219   7.433  11.184  0.3293 -0.2855 -0.5577
  305MOL0     C41050  12.158   7.402  11.046  0.1431  0.4906 -0.2823
  305MOL0     C41051  12.265   7.365  10.955  0.4040  0.6775  0.3682
  305MOL0     C41052  12.205   7.328  10.815 -0.4283  0.0379  0.0259
  305MOL0     C41053  12.318   7.256  10.737  0.6060  0.1681 -0.2277
  305MOL0     C41054  12.281   7.209  10.591  0.9567  0.3622 -0.2586
  305MOL0     C41055  12.397   7.132  10.525  0.4048  0.3023 -0.1432
  305MOL0     C41056  12.507   7.235  10.490  0.0764  0.5171 -0.2427
  305MOL0     N41057  12.616   7.162  10.431  0.5506  0.0077  0.9676
  305MOL0     C41058  12.693   7.068  10.490 -0.5177 -0.0424  0.1832
  305MOL0     C41059  12.776   7.027  10.386  0.6935  0.6368  0.0154
  305MOL0     C41060  12.905   6.943  10.390  1.2711 -0.5407 -1.1457
  305MOL0     C41061  12.933   6.858  10.276 -0.2028 -0.2591 -0.4654
  305MOL0     C41062  13.023   6.744  10.321  0.5529 -0.0100 -0.0839
  305MOL0     C41063  13.148   6.777  10.400 -0.7652  0.1609 -0.8774
  305MOL0     O41064  13.249   6.853  10.321 -0.7419 -0.3630  0.4606
  305MOL0     C41065  13.283   6.808  10.199 -0.2614 -0.0469  0.2989
  305MOL0     C41066  13.289   6.892  10.092 -1.1606  0.1870  0.1143
  305MOL0     C41067  13.305   6.840   9.966  0.4951  0.2261 -0.3235
  305MOL0     C41068  13.333   6.704   9.940  0.2244 -0.4501  0.4372
  305MOL0     C41069  13.357   6.653   9.800 -0.0187 -0.1278  0.1056
  305MOL0     O41070  13.392   6.748   9.704 -0.0001 -0.0674 -0.1414
  305MOL0     C41071  13.387   6.703   9.568  0.1265 -1.6461  0.0371
  305MOL0     C41072  13.501   6.710   9.491 -0.6314  0.1980  0.1179
  305MOL0     C41073  13.487   6.681   9.353 -0.3334 -0.3221  0.2455
  305MOL0     C41074  13.370   6.665   9.292  0.1131 -0.7884 -0.3385
  305MOL0     O41075  13.366   6.645   9.155 -0.7659 -0.4935  0.4454
  305MOL0     C41076  13.435   6.525   9.096  0.0387  0.5694 -0.3653
  305MOL0     C41077  13.468   6.565   8.953 -0.0979  0.3007  0.1138
  305MOL0     C41078  13.515   6.432   8.884  0.1347  0.5883 -0.2321
  305MOL0     C41079  13.664   6.437   8.855 -0.7531  0.9775  0.4956
  305MOL0     C41080  13.703   6.316   8.757 -1.0929  0.2205 -0.5291
  305MOL0     C41081  13.861   6.297   8.761 -0.2748 -0.6519  0.2400
  305MOL0     C41082  13.918   6.234   8.890  0.0865  0.4470 -0.2287
  305MOL0     C41083  14.058   6.184   8.848  0.5294 -0.9886 -0.3777
  305MOL0    Cl41084  14.139   6.111   8.994 -0.4438  0.1827  0.0416
  305MOL0     C41085  13.249   6.658   9.365 -0.3934 -0.2276  0.3890
  305MOL0     C41086  13.260   6.677   9.504  0.8199 -0.1992  0.2967
  305MOL0     O41087  13.351   6.530   9.788 -0.4186  0.1402 -0.0439
  305MOL0     C41088  13.334   6.619  10.053 -0.3353 -0.1657  0.3479
  305MOL0     C41089  13.314   6.676  10.180  0.8382 -0.3066  0.4316
  305MOL0     N41090  12.745   7.102  10.272 -0.6630 -0.8653 -0.0211
  305MOL0     N41091  12.651   7.190  10.304 -0.1115  1.0790  0.2106
  305MOL0     C41092  11.991   7.304  11.323  0.0619 -0.3841  0.7329
  305MOL0     C41093  11.861   7.257  11.362  0.5760 -0.3790  0.0511
  305MOL0     C41094  11.386   7.287  11.377  0.9700 -0.5562  0.6130
  305MOL0     C41095  11.374   7.279  11.516  0.0548  0.4572  0.4863
  305MOL0     C41096  11.249   7.232  11.562 -0.2200 -0.4354  0.6454
  305MOL0     C41097  11.137   7.233  11.480 -0.5635 -0.2054 -0.5690
  305MOL0     O41098  11.024   7.198  11.544  0.2149 -0.3739  0.4253
  305MOL0     C41099  10.897   7.172  11.471  0.0156  0.3212  0.4347
  305MOL0     C41100  10.810   7.299  11.488 -0.9160  0.2781 -0.9008
  305MOL0     C41101  10.750   7.357  11.360  0.2157 -0.4692  0.7198
  305MOL0     C41102  10.647   7.260  11.275  0.1857 -0.1933 -0.3342
  305MOL0     C41103  10.625   7.335  11.148 -0.4867 -0.4810 -0.5604
  305MOL0     C41104  10.593   7.387  11.047  0.6057  0.0250  0.0284
  305MOL0     C41105  11.153   7.254  11.340 -0.1034  1.3411  0.5013
  305MOL0     C41106  11.272   7.262  11.287 -0.5179  0.0626  0.8015
  305MOL0     C41107  11.279   7.225  11.137  0.6187  0.8053  0.2538
  305MOL0     H41108  11.705   7.544  11.360 -0.5423 -0.3637 -1.8427
  305MOL0     H41109  11.919   7.631  11.281 -0.3160  0.0489 -0.4912
  305MOL0     H41110  12.305   7.499  11.168  2.6999 -2.2305  2.8505
  305MOL0     H41111  12.259   7.344  11.234  1.6818  1.1297  1.0056
  305MOL0     H41112  12.106   7.483  10.993  1.4039 -0.3110 -2.9138
  305MOL0     H41113  12.083   7.325  11.067 -0.1338  0.9105  0.3133
  305MOL0     H41114  12.333   7.291  10.998  1.9466  0.4624 -2.2059
  305MOL0     H41115  12.345   7.440  10.946  2.3666 -1.3745 -0.0211
  305MOL0     H41116  12.117   7.263  10.823  1.5241 -2.5859  1.9821
  305MOL0     H41117  12.185   7.422  10.763 -0.3978 -0.7357 -1.4272
  305MOL0     H41118  12.411   7.314  10.742  1.3368 -1.0552  0.9013
  305MOL0     H41119  12.335   7.171  10.804 -3.1386  1.2953  2.4621
  305MOL0     H41120  12.190   7.151  10.577  0.0544  1.5350  0.5971
  305MOL0     H41121  12.269   7.302  10.534 -3.5261  0.6122  0.7176
  305MOL0     H41122  12.360   7.085  10.434 -0.4658 -0.5671  0.6281
  305MOL0     H41123  12.433   7.056  10.594  0.6641  1.2764  0.8241
  305MOL0     H41124  12.467   7.309  10.419 -3.4296  1.4754  2.4425
  305MOL0     H41125  12.541   7.278  10.585 -1.2735 -1.2487  1.0939
  305MOL0     H41126  12.702   7.045  10.596  1.5752 -0.8713 -0.1200
  305MOL0     H41127  12.984   7.015  10.409 -0.6798  1.2581  0.7578
  305MOL0     H41128  12.882   6.882  10.479  0.0544 -1.0595 -1.7836
  305MOL0     H41129  12.840   6.811  10.240 -1.0440  0.1948  1.0340
  305MOL0     H41130  12.981   6.909  10.193  0.3975  0.4301  0.2979
  305MOL0     H41131  13.044   6.692  10.227 -1.4042 -0.3310 -0.3771
  305MOL0     H41132  12.966   6.672  10.380 -0.7159  1.6501  0.7995
  305MOL0     H41133  13.194   6.687  10.442  1.4261  1.8399  0.5447
  305MOL0     H41134  13.117   6.841  10.483 -3.1265  0.9970 -2.2863
  305MOL0     H41135  13.268   6.998  10.102  0.7006  0.4457  1.9736
  305MOL0     H41136  13.289   6.908   9.883  2.2979 -1.2914 -1.9972
  305MOL0     H41137  13.598   6.731   9.537 -1.7510 -0.0403  2.7416
  305MOL0     H41138  13.576   6.682   9.291 -0.5983 -0.4645 -0.1358
  305MOL0     H41139  13.521   6.497   9.159  1.4641  0.2116 -2.3899
  305MOL0     H41140  13.359   6.447   9.107  0.3016  0.0080 -2.1785
  305MOL0     H41141  13.380   6.604   8.901 -2.3853 -0.5556  3.0480
  305MOL0     H41142  13.551   6.636   8.952 -0.3825  0.8000  2.7136
  305MOL0     H41143  13.500   6.338   8.937 -1.5225  0.9653  0.0175
  305MOL0     H41144  13.457   6.414   8.793  0.9974 -1.3218 -0.4666
  305MOL0     H41145  13.720   6.426   8.948 -1.7443 -0.7835  0.9191
  305MOL0     H41146  13.684   6.535   8.810 -1.4132 -0.0568 -2.3080
  305MOL0     H41147  13.687   6.343   8.652  1.7365  1.9056 -0.6342
  305MOL0     H41148  13.659   6.219   8.779 -1.2691  0.3085 -0.4924
  305MOL0     H41149  13.895   6.238   8.675 -0.4005  0.4762 -0.6019
  305MOL0     H41150  13.908   6.393   8.739  1.3528 -1.0971  1.6258
  305MOL0     H41151  13.849   6.153   8.915 -0.9241  1.1441 -0.6984
  305MOL0     H41152  13.920   6.308   8.970 -2.1726 -1.9112  2.1955
  305MOL0     H41153  14.063   6.100   8.778 -1.0794  0.8768 -2.8816
  305MOL0     H41154  14.124   6.259   8.804 -0.9126 -0.2787 -1.3851
  305MOL0     H41155  13.157   6.654   9.307 -0.3898 -3.0492  0.4848
  305MOL0     H41156  13.165   6.687   9.556  0.5532  1.3437 -0.4255
  305MOL0     H41157  13.335   6.512  10.036  3.6560 -0.6284  2.2614
  305MOL0     H41158  13.309   6.611  10.267 -2.2840  2.9630  2.9803
  305MOL0     H41159  12.066   7.226  11.323 -2.3248 -2.8377 -0.0304
  305MOL0     H41160  11.845   7.153  11.385  0.3442 -0.8036 -1.8862
  305MOL0     H41161  11.454   7.286  11.589  0.3642 -0.5646  0.2640
  305MOL0     H41162  11.242   7.215  11.669  1.4942 -0.9794  0.7015
  305MOL0     H41163  10.850   7.092  11.528  2.1492  0.4738  2.5559
  305MOL0     H41164  10.903   7.139  11.367 -0.4767 -2.0302  1.0928
  305MOL0     H41165  10.873   7.373  11.537 -1.7276 -1.6680  3.6268
  305MOL0     H41166  10.725   7.288  11.556 -1.6644  0.0477 -1.8359
  305MOL0     H41167  10.826   7.395  11.292 -0.6928 -2.0667 -1.3105
  305MOL0     H41168  10.695   7.445  11.393  0.8738  0.0296  0.5034
  305MOL0     H41169  10.680   7.156  11.278 -3.5781 -1.5394  1.6619
  305MOL0     H41170  10.553   7.255  11.331  1.0114 -0.5028  1.0875
  305MOL0     H41171  10.547   7.441  10.967  3.5912  0.4190 -1.5714
  305MOL0     H41172  11.067   7.242  11.274 -0.8814 -0.8591  1.8100
  305MOL0     H41173  11.181   7.200  11.095  0.6094  3.2036 -1.3665
  305MOL0     H41174  11.307   7.313  11.078 -1.5384 -0.4209 -2.8518
  305MOL0     H41175  11.360   7.153  11.125 -0.1005  0.3825 -2.6932
  306MOL0     O41176  10.304   5.095   2.583  0.3126 -0.3495  0.2750
  306MOL0     C41177  10.316   5.131   2.465  0.4041 -0.9562  0.1922
  306MOL0     O41178  10.349   5.260   2.424  0.3921 -0.5946  0.0313
  306MOL0     C41179  10.397   5.358   2.512 -0.0855 -0.3853 -0.1669
  306MOL0     C41180  10.526   5.341   2.566  0.1159  0.2178  0.4087
  306MOL0     C41181  10.581   5.437   2.652  0.0876 -0.5239 -0.5525
  306MOL0     C41182  10.500   5.544   2.690 -0.6652 -0.9478 -0.3437
  306MOL0     O41183  10.559   5.642   2.771  0.3332  0.1790 -0.2410
  306MOL0     C41184  10.468   5.734   2.838  0.9318  0.3211 -0.3702
  306MOL0     C41185  10.547   5.806   2.953 -0.3961 -0.6434  1.0645
  306MOL0     C41186  10.475   5.889   3.066 -0.4084 -0.4291  0.0367
  306MOL0     C41187  10.588   5.989   3.137  0.6788  1.0876  0.1316
  306MOL0     C41188  10.519   6.058   3.249  0.0235  0.0307 -0.5836
  306MOL0     C41189  10.458   5.960   3.350 -0.3294 -0.2033  0.3925
  306MOL0     C41190  10.407   6.037   3.475 -0.1724 -0.9650 -0.2030
  306MOL0     C41191  10.524   6.050   3.572  0.2913 -0.6153  0.0316
  306MOL0     N41192  10.476   6.134   3.688 -0.5224  0.1359  0.7919
  306MOL0     C41193  10.441   6.097   3.815 -0.2184 -1.0375 -0.8459
  306MOL0     C41194  10.413   6.222   3.880 -0.6744  0.4482  0.4839
  306MOL0     C41195  10.393   6.239   4.028  0.1359 -0.2969  0.2556
  306MOL0     C41196  10.262   6.179   4.069 -0.3830 -0.1368  0.0804
  306MOL0     C41197  10.232   6.217   4.218  0.4477 -0.0040 -0.1068
  306MOL0     C41198  10.107   6.152   4.273 -0.3667  0.8189  0.5237
  306MOL0     O41199  10.080   6.177   4.413  0.0988  0.0036  0.3903
  306MOL0     C41200  10.056   6.310   4.456  0.9627 -0.0961  0.4540
  306MOL0     C41201   9.988   6.412   4.381  1.2593  0.8659 -1.1861
  306MOL0     C41202   9.934   6.524   4.448 -0.0776 -0.7383  0.8783
  306MOL0     C41203   9.949   6.546   4.582  0.3486 -1.4147 -0.2252
  306MOL0     C41204   9.918   6.681   4.644 -0.1371 -0.0688  0.0967
  306MOL0     O41205   9.899   6.690   4.783  1.0030 -0.4149 -0.4259
  306MOL0     C41206   9.893   6.808   4.843 -0.1378 -0.5263 -0.1458
  306MOL0     C41207  10.008   6.886   4.853 -0.9420 -0.0824 -0.8258
  306MOL0     C41208  10.007   7.013   4.914  0.0235 -0.6637  0.2081
  306MOL0     C41209   9.881   7.073   4.957 -0.0840  0.2985 -0.2643
  306MOL0     O41210   9.897   7.196   5.020  0.2120  0.1097  0.2413
  306MOL0     C41211   9.787   7.287   5.017 -0.3353 -0.0489  0.0018
  306MOL0     C41212   9.834   7.436   4.985  0.0703 -0.0904 -0.5261
  306MOL0     C41213   9.711   7.527   4.972 -0.7886  0.3059 -0.6667
  306MOL0     C41214   9.744   7.678   4.946 -0.8952  0.0336  0.3440
  306MOL0     C41215   9.630   7.780   4.943 -0.6353  0.1809 -0.4054
  306MOL0     C41216   9.666   7.927   4.904  0.1036 -0.1016 -0.0456
  306MOL0     C41217   9.537   7.996   4.926  0.7199 -0.1946 -1.0224
  306MOL0     C41218   9.578   8.150   4.908 -0.1083  0.2306  0.5818
  306MOL0    Cl41219   9.667   8.173   4.749  0.2907  0.2602  0.1088
  306MOL0     C41220   9.764   6.997   4.926 -0.2740  0.2875  0.0931
  306MOL0     C41221   9.775   6.867   4.878 -0.0486 -0.9726 -0.0185
  306MOL0     O41222   9.939   6.779   4.569 -0.6238 -0.6462  0.0715
  306MOL0     C41223  10.021   6.444   4.655  0.8086 -0.6029  0.0164
  306MOL0     C41224  10.067   6.328   4.592  0.0779  1.0143  0.3025
  306MOL0     N41225  10.439   6.326   3.791 -0.6999 -0.2409 -0.3943
  306MOL0     N41226  10.480   6.272   3.681 -1.1359 -1.0501  0.3750
  306MOL0     C41227  10.387   5.571   2.629 -0.3741  0.5119  0.6536
  306MOL0     C41228  10.332   5.480   2.538 -0.3589  0.4488 -0.0474
  306MOL0     C41229  10.294   5.039   2.368  0.5973 -0.3172 -0.6810
  306MOL0     C41230  10.358   4.909   2.388 -0.0253 -0.4958 -0.5874
  306MOL0     C41231  10.349   4.812   2.294  1.4965 -0.3878  0.7411
  306MOL0     C41232  10.276   4.837   2.172  0.2894  0.0888  0.5701
  306MOL0     O41233  10.247   4.744   2.077 -0.0554 -0.3120 -0.4454
  306MOL0     C41234  10.272   4.607   2.107 -0.6068 -0.0914 -0.2689
  306MOL0     C41235  10.424   4.561   2.094 -0.1849 -1.0761  0.8299
  306MOL0     C41236  10.488   4.601   1.960 -0.4156  0.1830  0.5388
  306MOL0     C41237  10.623   4.541   1.936 -0.4020 -0.8850  0.8034
  306MOL0     C41238  10.682   4.603   1.813  0.7926 -0.5968  0.4190
  306MOL0     C41239  10.727   4.648   1.704 -0.1001  0.4297 -0.6306
  306MOL0     C41240  10.225   4.963   2.146  0.3063 -0.2566  0.2858
  306MOL0     C41241  10.221   5.060   2.241  0.3124 -0.2614 -0.1176
  306MOL0     C41242  10.164   5.193   2.204  0.2813 -0.5284  0.3378
  306MOL0     H41243  10.571   5.244   2.548 -1.9031 -0.8895  1.0517
  306MOL0     H41244  10.678   5.433   2.700  0.1820  1.4182 -0.4862
  306MOL0     H41245  10.421   5.805   2.769 -0.1307 -0.8916 -0.9271
  306MOL0     H41246  10.390   5.674   2.886 -0.8472  0.3432 -2.9998
  306MOL0     H41247  10.610   5.885   2.911 -0.3674 -0.1215  2.0691
  306MOL0     H41248  10.608   5.738   3.013 -3.0767 -2.3392  2.0757
  306MOL0     H41249  10.430   5.819   3.137 -2.6644  2.3045  1.4721
  306MOL0     H41250  10.393   5.950   3.029 -0.2942 -1.5557 -2.2639
  306MOL0     H41251  10.671   5.935   3.181 -0.6585  0.5533  2.1434
  306MOL0     H41252  10.632   6.065   3.072  0.9761  1.2017  0.4661
  306MOL0     H41253  10.587   6.113   3.314 -2.5115  0.1174  2.2018
  306MOL0     H41254  10.429   6.115   3.225  0.3876  1.0163  0.3336
  306MOL0     H41255  10.366   5.915   3.311  0.4453 -0.3483 -1.3540
  306MOL0     H41256  10.530   5.879   3.370 -1.1632 -0.8204  0.9520
  306MOL0     H41257  10.320   5.986   3.517 -0.1120 -1.1195 -0.2653
  306MOL0     H41258  10.363   6.135   3.455  0.4427 -1.1046 -2.4935
  306MOL0     H41259  10.548   5.951   3.610  2.1722 -0.8238 -1.5139
  306MOL0     H41260  10.610   6.102   3.526  0.1117  2.2429  2.5751
  306MOL0     H41261  10.439   5.995   3.851  2.0200 -0.7060  0.4184
  306MOL0     H41262  10.475   6.183   4.073 -0.3613 -2.2988 -1.1693
  306MOL0     H41263  10.407   6.347   4.040  3.1522 -0.8397  2.7716
  306MOL0     H41264  10.174   6.213   4.015 -1.1095 -2.3025 -0.1901
  306MOL0     H41265  10.274   6.073   4.048 -1.6024 -0.1005 -0.8934
  306MOL0     H41266  10.211   6.324   4.217  0.1178 -0.0356  1.1271
  306MOL0     H41267  10.326   6.193   4.270  1.4148  0.0810 -1.7244
  306MOL0     H41268  10.137   6.049   4.252 -0.7283  1.0850 -1.5025
  306MOL0     H41269  10.017   6.179   4.218 -0.5794  0.4838  0.7015
  306MOL0     H41270   9.962   6.412   4.276  2.9599 -0.1570 -1.6438
  306MOL0     H41271   9.912   6.600   4.374 -0.7962 -0.5089  1.3160
  306MOL0     H41272  10.099   6.848   4.808 -0.2006  1.4087 -0.6662
  306MOL0     H41273  10.089   7.081   4.931 -0.0737  0.5642 -3.4059
  306MOL0     H41274   9.716   7.263   4.938  0.0751  3.6221 -1.6698
  306MOL0     H41275   9.721   7.283   5.104 -0.6933  0.6638 -0.2326
  306MOL0     H41276   9.912   7.457   5.059  0.3571 -0.5788 -0.6828
  306MOL0     H41277   9.886   7.435   4.889  0.8174  0.2246 -0.1402
  306MOL0     H41278   9.646   7.482   4.896  0.1672 -2.4211  0.0355
  306MOL0     H41279   9.655   7.536   5.065  1.7677 -1.2590  1.1329
  306MOL0     H41280   9.792   7.689   4.848 -0.1913 -0.1232  0.6705
  306MOL0     H41281   9.827   7.710   5.009  0.3662 -0.9139 -0.7956
  306MOL0     H41282   9.604   7.781   5.049 -1.8172  1.0024 -0.6788
  306MOL0     H41283   9.556   7.736   4.877  1.7338 -1.7308 -1.9727
  306MOL0     H41284   9.743   7.959   4.974 -1.3327 -0.7460  1.9299
  306MOL0     H41285   9.707   7.942   4.804  0.3891  1.0853  0.2382
  306MOL0     H41286   9.510   7.978   5.031  1.5118 -3.3402 -1.2776
  306MOL0     H41287   9.454   7.958   4.865 -1.9959 -0.0496  2.2342
  306MOL0     H41288   9.495   8.216   4.933  0.4134  0.2140  2.5453
  306MOL0     H41289   9.657   8.174   4.980  0.7212 -1.8460  0.4395
  306MOL0     H41290   9.668   7.046   4.942  0.4122  1.6076  0.3141
  306MOL0     H41291   9.686   6.807   4.859 -0.3865  0.5487 -4.4654
  306MOL0     H41292  10.040   6.443   4.762 -3.2126  1.2889  0.9274
  306MOL0     H41293  10.125   6.247   4.636 -1.3281 -1.0523 -1.4695
  306MOL0     H41294  10.343   5.669   2.643  0.3410  0.4353  4.4785
  306MOL0     H41295  10.238   5.495   2.485 -2.0606 -0.5555  2.4825
  306MOL0     H41296  10.402   4.889   2.485  1.0878  1.9626 -0.5077
  306MOL0     H41297  10.397   4.716   2.304  1.0515 -1.1328 -2.7703
  306MOL0     H41298  10.206   4.540   2.051  1.1646 -2.7842  0.6547
  306MOL0     H41299  10.255   4.576   2.210  2.0455 -0.4919  0.1173
  306MOL0     H41300  10.423   4.451   2.096 -2.4580 -1.1277  3.8899
  306MOL0     H41301  10.493   4.599   2.169  0.3471  1.1370 -0.7007
  306MOL0     H41302  10.486   4.710   1.953 -0.9553  0.1210 -0.7174
  306MOL0     H41303  10.420   4.563   1.882  1.3720  1.1972 -1.6360
  306MOL0     H41304  10.693   4.574   2.014  1.6566 -0.5349 -1.0752
  306MOL0     H41305  10.625   4.432   1.938  0.0582 -0.8733  1.7548
  306MOL0     H41306  10.761   4.683   1.608 -0.8316  0.0411 -1.0407
  306MOL0     H41307  10.177   4.983   2.050  1.1837 -0.3391 -0.1829
  306MOL0     H41308  10.086   5.185   2.127  0.2171  1.7304  0.1065
  306MOL0     H41309  10.106   5.241   2.283 -1.7472 -0.5917 -1.0302
  306MOL0     H41310  10.240   5.261   2.165  0.1030 -0.3966  0.2211
  307MOL0     O41311   9.733  10.574   5.101 -0.3788  0.5253 -0.4094
  307MOL0     C41312   9.668  10.516   5.187 -0.0869  0.6403  0.5446
  307MOL0     O41313   9.536  10.552   5.220  1.5183  0.0035 -0.0107
  307MOL0     C41314   9.490  10.674   5.166 -0.5227 -0.4613  0.2531
  307MOL0     C41315   9.487  10.788   5.245 -0.8960 -0.7232  0.0526
  307MOL0     C41316   9.424  10.912   5.198  0.0363 -0.2089  0.3013
  307MOL0     C41317   9.385  10.910   5.066  0.0120  0.0260  0.6145
  307MOL0     O41318   9.305  11.013   5.008  0.6764 -0.5381 -0.8446
  307MOL0     C41319   9.335  11.153   5.030  0.5821  0.5536 -0.6781
  307MOL0     C41320   9.237  11.236   4.952  0.5071 -0.6913  0.2937
  307MOL0     C41321   9.259  11.386   4.967  0.3734 -0.1207 -0.2625
  307MOL0     C41322   9.155  11.465   4.879  0.7059 -0.3675  0.2560
  307MOL0     C41323   9.184  11.620   4.881  0.8609  0.7100  0.0918
  307MOL0     C41324   9.052  11.707   4.863 -0.3554  0.2492 -0.3263
  307MOL0     C41325   9.086  11.853   4.822 -0.3744  0.1527 -0.8378
  307MOL0     C41326   9.087  11.895   4.673  0.5827  0.3647  0.1719
  307MOL0     N41327   9.158  12.013   4.620 -0.0471  0.2038  0.1917
  307MOL0     C41328   9.147  12.139   4.682 -0.2451 -0.3399  1.0472
  307MOL0     C41329   9.244  12.214   4.616  0.0213 -0.0639  0.3197
  307MOL0     C41330   9.299  12.351   4.640  0.6280 -2.0837 -0.1865
  307MOL0     C41331   9.346  12.423   4.510 -0.5969  0.7998  0.1077
  307MOL0     C41332   9.396  12.568   4.541 -0.2830 -0.1489 -0.8229
  307MOL0     C41333   9.488  12.570   4.664 -0.2709  0.3815 -0.5579
  307MOL0     O41334   9.583  12.677   4.655 -0.8488  0.2471 -0.4621
  307MOL0     C41335   9.531  12.804   4.649 -0.2123  0.5629 -0.6843
  307MOL0     C41336   9.579  12.893   4.552  0.7596 -0.6405 -0.2390
  307MOL0     C41337   9.531  13.018   4.546 -0.0699  0.8366 -0.1372
  307MOL0     C41338   9.422  13.051   4.633  0.2542 -1.1316 -0.3115
  307MOL0     C41339   9.380  13.191   4.634 -0.3038  0.4434 -0.0792
  307MOL0     O41340   9.417  13.254   4.525  0.8673 -0.3511 -0.6466
  307MOL0     C41341   9.385  13.383   4.489  0.5287 -0.0446 -1.2165
  307MOL0     C41342   9.412  13.411   4.358  0.0484 -0.3869 -0.0671
  307MOL0     C41343   9.366  13.535   4.296 -0.1752 -0.4214  0.5056
  307MOL0     C41344   9.288  13.631   4.362  0.7625 -0.7009 -0.2560
  307MOL0     O41345   9.242  13.739   4.286 -0.8796  1.0424 -0.7331
  307MOL0     C41346   9.181  13.842   4.361 -0.3909 -0.2687 -0.6354
  307MOL0     C41347   9.155  13.982   4.285 -0.9260 -0.4365 -0.7657
  307MOL0     C41348   9.278  14.078   4.300 -0.0108  0.6966 -0.5886
  307MOL0     C41349   9.279  14.203   4.216 -0.1231 -0.4366 -0.4413
  307MOL0     C41350   9.405  14.291   4.239 -0.2495  0.4287  0.6548
  307MOL0     C41351   9.434  14.390   4.128 -0.1119 -0.5291  0.1472
  307MOL0     C41352   9.569  14.457   4.139 -0.5582 -0.5714  1.1544
  307MOL0     C41353   9.591  14.563   4.036 -0.0278 -0.5059 -0.3562
  307MOL0    Cl41354   9.573  14.508   3.867  0.0163  0.3324  0.4762
  307MOL0     C41355   9.261  13.597   4.497  1.2146 -0.2271  0.0321
  307MOL0     C41356   9.310  13.477   4.561  1.2649 -0.9297  0.4953
  307MOL0     O41357   9.321  13.241   4.725  0.4255 -0.2517 -0.4688
  307MOL0     C41358   9.374  12.963   4.734 -0.2706  0.2839  1.2561
  307MOL0     C41359   9.429  12.838   4.739 -0.2841  0.2794  0.3733
  307MOL0     N41360   9.302  12.136   4.519  0.5802  0.1787  0.0280
  307MOL0     N41361   9.259  12.015   4.529 -0.1330  1.0029 -0.0897
  307MOL0     C41362   9.395  10.791   4.990  0.6326  0.5533  0.5232
  307MOL0     C41363   9.425  10.670   5.046 -0.0113  0.0476 -0.4610
  307MOL0     C41364   9.718  10.400   5.254 -0.1734  0.0990 -0.6224
  307MOL0     C41365   9.658  10.349   5.367  1.0261  0.2547  0.3027
  307MOL0     C41366   9.696  10.236   5.430 -0.2560  0.8532 -0.4605
  307MOL0     C41367   9.813  10.173   5.398  1.6569 -0.2328 -0.6463
  307MOL0     O41368   9.857  10.076   5.492 -0.6568 -0.2284  0.7397
  307MOL0     C41369   9.978  10.011   5.444  0.4390  0.6966 -1.1167
  307MOL0     C41370  10.044   9.905   5.536 -0.0826  0.0403  0.3392
  307MOL0     C41371   9.980   9.767   5.570  0.1835 -0.4590  0.1619
  307MOL0     C41372   9.852   9.780   5.666  0.7685 -0.5387  0.1129
  307MOL0     C41373   9.797   9.646   5.698 -0.5963 -0.8135 -0.0862
  307MOL0     C41374   9.756   9.531   5.718 -0.2513  0.0952 -0.4910
  307MOL0     C41375   9.887  10.231   5.290 -0.0230 -0.4472  0.6707
  307MOL0     C41376   9.841  10.334   5.209 -0.0029  0.3194  0.0107
  307MOL0     C41377   9.918  10.363   5.085 -0.1817 -0.5287 -0.0162
  307MOL0     H41378   9.514  10.791   5.350 -1.7818 -3.6467  0.4498
  307MOL0     H41379   9.405  10.985   5.276 -2.3817 -0.8448  0.3768
  307MOL0     H41380   9.317  11.170   5.137  1.6676 -0.7562 -0.2635
  307MOL0     H41381   9.439  11.181   5.015  0.7979  0.4734  0.5271
  307MOL0     H41382   9.137  11.214   4.990  0.7357 -1.3727  0.5204
  307MOL0     H41383   9.247  11.214   4.846 -2.9414  0.6777 -0.4535
  307MOL0     H41384   9.358  11.410   4.926  0.5605  0.1569  0.3423
  307MOL0     H41385   9.261  11.411   5.073  0.7113 -0.4579 -0.1845
  307MOL0     H41386   9.150  11.429   4.776 -2.0764 -2.7061  1.0822
  307MOL0     H41387   9.062  11.437   4.930 -1.8313  1.4294 -3.0126
  307MOL0     H41388   9.242  11.636   4.973 -1.0035  0.1627  1.4197
  307MOL0     H41389   9.245  11.652   4.796 -4.9968 -0.5972 -5.4022
  307MOL0     H41390   9.001  11.650   4.785 -1.0150  0.3470  0.0306
  307MOL0     H41391   8.983  11.699   4.947 -1.0221 -2.2665 -1.0156
  307MOL0     H41392   9.185  11.886   4.853 -1.3452  3.2760 -0.6810
  307MOL0     H41393   9.011  11.904   4.884 -1.9394 -2.5439 -0.3493
  307MOL0     H41394   9.117  11.807   4.615  1.6988  1.1784 -0.5205
  307MOL0     H41395   8.978  11.909   4.665  0.9529  3.1455 -1.3539
  307MOL0     H41396   9.084  12.172   4.764 -0.7374  1.2280  0.0804
  307MOL0     H41397   9.222  12.417   4.681  2.8422  1.3278 -1.1513
  307MOL0     H41398   9.374  12.337   4.719 -1.7820  2.9780  3.5613
  307MOL0     H41399   9.430  12.370   4.463 -0.7614  1.1027 -0.5433
  307MOL0     H41400   9.271  12.435   4.431 -1.4793  2.6157  1.1520
  307MOL0     H41401   9.317  12.642   4.558  2.1674  1.7843  3.8600
  307MOL0     H41402   9.453  12.593   4.451  0.1323  0.7488 -0.3210
  307MOL0     H41403   9.545  12.477   4.674 -0.2377  0.6770  4.8281
  307MOL0     H41404   9.441  12.575   4.763 -0.5659 -1.8038 -0.5437
  307MOL0     H41405   9.654  12.871   4.477 -0.4239  1.0969 -2.0305
  307MOL0     H41406   9.571  13.090   4.475  0.3302  0.3590 -0.4064
  307MOL0     H41407   9.473  13.347   4.295  0.4639  1.6423 -1.8207
  307MOL0     H41408   9.390  13.546   4.191 -0.6456 -0.7846  0.3610
  307MOL0     H41409   9.084  13.810   4.400 -0.7717  0.0690 -1.2765
  307MOL0     H41410   9.244  13.861   4.448 -2.5398 -0.1597  0.9735
  307MOL0     H41411   9.118  13.957   4.185 -1.6765 -0.1585 -0.5661
  307MOL0     H41412   9.079  14.036   4.343 -1.9321 -1.9528 -0.6213
  307MOL0     H41413   9.309  14.108   4.401  2.2576  0.0496 -1.0376
  307MOL0     H41414   9.366  14.029   4.258 -1.0658  1.2793 -3.7514
  307MOL0     H41415   9.187  14.263   4.223  0.2475 -0.0286  1.7417
  307MOL0     H41416   9.277  14.159   4.116 -2.6831 -1.2760 -0.0849
  307MOL0     H41417   9.495  14.232   4.259  0.4302  2.6063  5.3205
  307MOL0     H41418   9.385  14.345   4.332 -0.6445  1.7128 -0.1469
  307MOL0     H41419   9.436  14.318   4.046  0.5331 -0.2407 -0.0971
  307MOL0     H41420   9.350  14.459   4.132 -0.7165 -0.8465  8.2797
  307MOL0     H41421   9.646  14.380   4.132 -0.9442 -0.8571 -0.4060
  307MOL0     H41422   9.563  14.494   4.242  0.7395 -1.8657  1.7223
  307MOL0     H41423   9.524  14.648   4.050  0.2027  0.0492 -2.2671
  307MOL0     H41424   9.690  14.599   4.065  0.0892 -1.1925  0.1203
  307MOL0     H41425   9.200  13.676   4.541 -1.2058  0.4912 -4.0285
  307MOL0     H41426   9.278  13.450   4.661 -0.4149 -1.4484 -0.1372
  307MOL0     H41427   9.294  12.998   4.799 -2.0585  1.5056 -1.4319
  307MOL0     H41428   9.395  12.776   4.821 -2.4063 -0.6347 -1.0867
  307MOL0     H41429   9.361  10.791   4.887  1.8825  0.9582  0.0988
  307MOL0     H41430   9.400  10.582   4.988 -0.1605 -0.2566  0.0580
  307MOL0     H41431   9.563  10.396   5.391  1.9776  2.5778 -0.2358
  307MOL0     H41432   9.640  10.190   5.510  1.8059  0.3483  0.7802
  307MOL0     H41433  10.054  10.088   5.425  1.1877  0.6011  1.2658
  307MOL0     H41434   9.969   9.975   5.341  0.1053 -0.4555 -0.7021
  307MOL0     H41435  10.052   9.944   5.638 -2.5797  0.6274  0.3670
  307MOL0     H41436  10.144   9.900   5.492 -0.1041  4.5494 -0.7490
  307MOL0     H41437  10.054   9.715   5.632 -1.2664 -2.3158  0.4282
  307MOL0     H41438   9.956   9.715   5.477 -1.3968  0.6641 -0.0956
  307MOL0     H41439   9.888   9.827   5.757 -0.8356 -1.3943  1.2326
  307MOL0     H41440   9.777   9.844   5.619  4.0142  2.4802 -1.4833
  307MOL0     H41441   9.741   9.425   5.720  0.4382 -0.0080 -0.6060
  307MOL0     H41442   9.989  10.210   5.260  0.3912  3.9791 -1.7659
  307MOL0     H41443   9.950  10.468   5.090 -1.5516 -0.0909 -0.1218
  307MOL0     H41444  10.009  10.302   5.074  1.6845  2.3133 -1.7251
  307MOL0     H41445   9.859  10.355   4.993  1.1976  1.3012 -1.1519
  308MOL0     O41446   6.799   0.274   9.214  0.4101  0.5288  0.1110
  308MOL0     C41447   6.900   0.287   9.282  0.4879  0.6546 -0.3220
  308MOL0     O41448   6.945   0.190   9.357  0.3675  0.7198 -0.5687
  308MOL0     C41449   6.879   0.076   9.397 -0.6642  0.1537 -0.2575
  308MOL0     C41450   6.738   0.069   9.386 -0.0801 -0.7377  0.6311
  308MOL0     C41451   6.674  -0.048   9.429 -0.1718  0.1385  0.6336
  308MOL0     C41452   6.744  -0.156   9.485 -0.5482 -0.1778 -0.4430
  308MOL0     O41453   6.684  -0.272   9.520  0.6131 -0.1953  0.3243
  308MOL0     C41454   6.709  -0.390   9.454 -0.4500  0.5617  0.1539
  308MOL0     C41455   6.612  -0.418   9.334 -0.0416 -0.2770 -0.1575
  308MOL0     C41456   6.486  -0.473   9.396  0.3498  0.4952 -0.1247
  308MOL0     C41457   6.370  -0.452   9.295  0.5504  0.6322 -0.8406
  308MOL0     C41458   6.246  -0.524   9.351  0.3285  0.8001 -0.2006
  308MOL0     C41459   6.118  -0.494   9.266 -0.1756 -0.0387 -0.4270
  308MOL0     C41460   5.996  -0.512   9.347 -0.3518 -1.6121  0.3077
  308MOL0     C41461   5.969  -0.658   9.366  0.3187  0.3815 -0.3740
  308MOL0     N41462   5.855  -0.686   9.461  0.4890 -0.2849  0.0386
  308MOL0     C41463   5.875  -0.680   9.602  0.1261 -0.0800  0.1600
  308MOL0     C41464   5.749  -0.704   9.659 -0.6839 -0.0240  1.6263
  308MOL0     C41465   5.711  -0.713   9.810  0.2862  1.1060  0.6894
  308MOL0     C41466   5.604  -0.604   9.836 -0.0165  0.6020 -0.6004
  308MOL0     C41467   5.472  -0.664   9.870 -1.0168  0.4621 -0.1155
  308MOL0     C41468   5.372  -0.543   9.883 -0.6329  0.8646  0.2513
  308MOL0     O41469   5.236  -0.578   9.907  0.0656  0.5279  0.5194
  308MOL0     C41470   5.195  -0.622  10.024  0.4213 -0.3819 -0.6447
  308MOL0     C41471   5.272  -0.628  10.146  0.1611  1.2185  0.3588
  308MOL0     C41472   5.222  -0.683  10.265 -0.3714  0.5880 -0.2485
  308MOL0     C41473   5.088  -0.733  10.262 -0.3131 -0.2444  0.4088
  308MOL0     C41474   5.033  -0.798  10.384 -0.9759  0.2133 -0.2751
  308MOL0     O41475   5.068  -0.747  10.507 -0.1592  0.0998  0.0962
  308MOL0     C41476   5.058  -0.830  10.623  0.0561  1.7343 -0.3133
  308MOL0     C41477   5.063  -0.974  10.627 -0.7233  0.1419 -0.4733
  308MOL0     C41478   5.031  -1.044  10.746 -0.0687 -0.4865  0.3567
  308MOL0     C41479   5.013  -0.972  10.862  0.0453  0.1070 -0.5906
  308MOL0     O41480   4.990  -1.026  10.988  0.2791 -0.3395 -0.2321
  308MOL0     C41481   5.036  -1.155  11.022  0.1600  0.5303  1.2048
  308MOL0     C41482   4.951  -1.211  11.134  0.6522 -0.1019 -0.2952
  308MOL0     C41483   5.002  -1.345  11.174  0.4766 -0.6770  0.3229
  308MOL0     C41484   5.116  -1.334  11.269 -1.2842  0.9212 -0.0338
  308MOL0     C41485   5.125  -1.476  11.342  0.5835 -0.4103 -0.7369
  308MOL0     C41486   5.251  -1.489  11.421 -0.1417 -0.1344 -0.8187
  308MOL0     C41487   5.248  -1.401  11.552  0.7854 -0.0361  0.1404
  308MOL0     C41488   5.371  -1.437  11.649 -1.0215 -0.6993  1.0316
  308MOL0    Cl41489   5.533  -1.396  11.565 -0.1717 -0.2420 -1.1541
  308MOL0     C41490   5.024  -0.823  10.859 -0.4992  0.8515 -0.2078
  308MOL0     C41491   5.055  -0.761  10.741 -0.4128  0.7840  0.0882
  308MOL0     O41492   4.975  -0.905  10.356 -0.5605  1.3920  0.3371
  308MOL0     C41493   5.011  -0.740  10.144 -0.4556  0.4213 -0.3800
  308MOL0     C41494   5.071  -0.688  10.023 -0.4684 -0.4632 -0.5241
  308MOL0     N41495   5.664  -0.738   9.554 -0.1273  0.5053 -0.2530
  308MOL0     N41496   5.728  -0.743   9.440  0.5208  1.0861 -0.6065
  308MOL0     C41497   6.888  -0.145   9.497 -0.2610 -1.5030 -0.5619
  308MOL0     C41498   6.958  -0.029   9.455  0.1817 -0.2959 -0.3263
  308MOL0     C41499   6.988   0.398   9.259  0.1400  0.5504  0.8112
  308MOL0     C41500   6.983   0.474   9.141 -0.4787  0.3935  0.8711
  308MOL0     C41501   7.066   0.585   9.122 -0.1711 -0.3634 -0.3008
  308MOL0     C41502   7.164   0.625   9.208  0.6596  0.3705 -0.5893
  308MOL0     O41503   7.243   0.732   9.181  0.3887  0.5195 -0.0011
  308MOL0     C41504   7.262   0.829   9.288  0.6849 -0.0852  0.2138
  308MOL0     C41505   7.220   0.970   9.243  0.1128 -0.5270 -0.4604
  308MOL0     C41506   7.080   0.998   9.204  0.5766 -0.2963 -1.2201
  308MOL0     C41507   6.978   0.992   9.323  0.5191  0.1956  0.6169
  308MOL0     C41508   6.888   1.105   9.321  0.0827  0.1089 -0.1460
  308MOL0     C41509   6.809   1.188   9.327  0.0429 -0.2891  0.5910
  308MOL0     C41510   7.179   0.555   9.326 -0.8008  0.5037 -0.4732
  308MOL0     C41511   7.093   0.445   9.351  0.4178  0.6225 -0.0359
  308MOL0     C41512   7.119   0.382   9.492  0.3237  0.3773 -0.9611
  308MOL0     H41513   6.671   0.146   9.348 -1.6342 -1.8829  0.9354
  308MOL0     H41514   6.566  -0.052   9.415  0.2017 -2.3127 -2.7100
  308MOL0     H41515   6.811  -0.383   9.417 -0.2204  0.6896  0.7988
  308MOL0     H41516   6.708  -0.471   9.528 -1.9411 -0.7707 -1.2375
  308MOL0     H41517   6.650  -0.494   9.265  0.3084 -0.9099  0.7073
  308MOL0     H41518   6.604  -0.328   9.273  0.9546 -0.7973 -1.1094
  308MOL0     H41519   6.453  -0.426   9.489 -1.1127 -0.5873 -0.0401
  308MOL0     H41520   6.494  -0.581   9.416  0.3526  0.6532  0.7712
  308MOL0     H41521   6.361  -0.343   9.287  1.4458  0.8298  0.5081
  308MOL0     H41522   6.385  -0.485   9.191  0.6430 -1.9009 -0.0719
  308MOL0     H41523   6.268  -0.631   9.349 -0.4491  0.6167  0.6150
  308MOL0     H41524   6.220  -0.498   9.453 -2.9790  0.1543 -0.7601
  308MOL0     H41525   6.113  -0.387   9.248 -0.7796 -0.0682 -0.4323
  308MOL0     H41526   6.111  -0.534   9.165 -2.6458  2.5246 -1.4011
  308MOL0     H41527   5.904  -0.468   9.307  0.0347  0.6047  1.7102
  308MOL0     H41528   5.999  -0.457   9.441  2.4772  4.9053 -2.9265
  308MOL0     H41529   5.946  -0.712   9.274  1.0215  1.6561 -1.3364
  308MOL0     H41530   6.049  -0.714   9.415 -0.2823 -0.4857 -0.3714
  308MOL0     H41531   5.970  -0.644   9.640 -1.1543  2.2712  1.3933
  308MOL0     H41532   5.672  -0.813   9.829 -5.2351  3.2144  2.2549
  308MOL0     H41533   5.801  -0.686   9.866  1.6457  0.5307 -1.1219
  308MOL0     H41534   5.633  -0.534   9.914 -1.0953  1.0524 -0.5807
  308MOL0     H41535   5.600  -0.545   9.743  1.0797 -1.7000 -2.2203
  308MOL0     H41536   5.471  -0.706   9.972 -0.1259  2.7707  0.9217
  308MOL0     H41537   5.446  -0.724   9.782  0.6658  2.0000 -1.7363
  308MOL0     H41538   5.377  -0.492   9.786 -1.3961 -1.8085 -1.2899
  308MOL0     H41539   5.418  -0.482   9.962  1.4638  0.0435 -0.2760
  308MOL0     H41540   5.375  -0.593  10.141  0.6541 -0.3515 -1.9913
  308MOL0     H41541   5.286  -0.696  10.351 -0.7194 -1.8041 -0.2839
  308MOL0     H41542   5.065  -1.040  10.540 -0.8123 -0.6894  0.1457
  308MOL0     H41543   5.011  -1.150  10.734  0.1833 -0.2666 -2.9569
  308MOL0     H41544   5.038  -1.232  10.944  1.2246  1.8086 -0.0886
  308MOL0     H41545   5.138  -1.128  11.051  0.3059 -0.3725  1.5728
  308MOL0     H41546   4.944  -1.140  11.216 -1.7891  0.3875 -0.8328
  308MOL0     H41547   4.853  -1.228  11.087  0.0768  2.8481 -0.3497
  308MOL0     H41548   4.922  -1.390  11.233  1.7010 -1.2669  1.6096
  308MOL0     H41549   5.022  -1.404  11.084  0.2471  1.8843 -1.5035
  308MOL0     H41550   5.098  -1.263  11.349 -0.0339 -1.9149  2.9896
  308MOL0     H41551   5.210  -1.304  11.222 -1.4947  1.0127 -0.4086
  308MOL0     H41552   5.127  -1.556  11.268  0.2006  0.6157 -1.8966
  308MOL0     H41553   5.040  -1.480  11.412  0.3798  1.0795 -0.8509
  308MOL0     H41554   5.263  -1.593  11.454  0.5403  0.4107  0.8184
  308MOL0     H41555   5.334  -1.449  11.362  0.4561 -0.0628  0.0443
  308MOL0     H41556   5.163  -1.439  11.611  2.1650 -2.2177  0.8576
  308MOL0     H41557   5.248  -1.292  11.544  2.6471  0.2127  2.3091
  308MOL0     H41558   5.366  -1.375  11.740  0.0900 -2.1380  2.1179
  308MOL0     H41559   5.357  -1.539  11.685 -0.4311 -0.4427  2.0531
  308MOL0     H41560   4.999  -0.757  10.941 -5.0113  0.1941 -0.8002
  308MOL0     H41561   5.060  -0.653  10.729 -0.0371  0.8464  0.7647
  308MOL0     H41562   4.915  -0.790  10.152 -0.6381  0.6239 -1.2086
  308MOL0     H41563   5.024  -0.697   9.926  1.3287 -3.0564 -1.2776
  308MOL0     H41564   6.961  -0.216   9.536  0.9955  1.1540  2.3610
  308MOL0     H41565   7.066  -0.024   9.461  0.0997 -0.3432  2.1204
  308MOL0     H41566   6.912   0.461   9.060 -2.2882  1.0161  2.2911
  308MOL0     H41567   7.048   0.637   9.029  0.8537  1.8071  0.6418
  308MOL0     H41568   7.368   0.832   9.315  0.7601  1.0613 -0.1407
  308MOL0     H41569   7.209   0.807   9.382 -2.9856  3.1243 -0.8284
  308MOL0     H41570   7.281   0.988   9.155 -0.4002  1.9986 -0.3746
  308MOL0     H41571   7.246   1.039   9.324  2.8634 -2.5604  0.5176
  308MOL0     H41572   7.051   0.933   9.121 -2.5827 -0.6975  0.0557
  308MOL0     H41573   7.073   1.099   9.161 -1.5833 -0.6405 -1.8289
  308MOL0     H41574   6.917   0.901   9.323 -3.6012  2.6289  2.8211
  308MOL0     H41575   7.021   1.014   9.421 -2.7635  1.9171  1.8239
  308MOL0     H41576   6.729   1.256   9.344  0.4989  0.3822  0.0911
  308MOL0     H41577   7.267   0.572   9.388 -2.4537 -1.8630  2.8562
  308MOL0     H41578   7.036   0.412   9.558 -0.3003 -5.2690  1.4673
  308MOL0     H41579   7.118   0.272   9.491 -1.4870  0.3687 -2.3269
  308MOL0     H41580   7.207   0.424   9.541 -1.0322  0.4600  1.5950
  309MOL0     O41581   3.033   0.377   8.070  0.3605  0.5387  0.8474
  309MOL0     C41582   3.118   0.368   8.160  0.3412  0.6683  0.5398
  309MOL0     O41583   3.253   0.383   8.140 -0.6158  0.3150 -0.1116
  309MOL0     C41584   3.300   0.429   8.020  0.9201 -0.6382 -0.8160
  309MOL0     C41585   3.267   0.565   7.986  0.3296  0.1728  0.3637
  309MOL0     C41586   3.302   0.618   7.860 -0.4724  0.5791  0.5115
  309MOL0     C41587   3.351   0.527   7.760 -0.5994  0.3419  0.0708
  309MOL0     O41588   3.360   0.582   7.635  0.0998  0.4691 -0.4170
  309MOL0     C41589   3.488   0.647   7.613  0.8022 -0.3206  0.3462
  309MOL0     C41590   3.488   0.789   7.651  0.0837 -0.4002 -0.4470
  309MOL0     C41591   3.623   0.854   7.620  0.0308 -0.0694  0.2918
  309MOL0     C41592   3.644   0.985   7.695  1.0301  0.0218 -1.0309
  309MOL0     C41593   3.783   1.034   7.675 -1.0875 -0.6321 -0.1371
  309MOL0     C41594   3.826   1.073   7.534  0.2024 -1.0478  0.5301
  309MOL0     C41595   3.716   1.157   7.460 -0.4271  1.1184  0.3697
  309MOL0     C41596   3.694   1.301   7.503 -0.1972  0.0703 -0.4646
  309MOL0     N41597   3.609   1.370   7.406  0.0294  0.4015 -0.2598
  309MOL0     C41598   3.614   1.507   7.380  0.4083 -0.1617 -0.1088
  309MOL0     C41599   3.503   1.529   7.301 -1.1917 -0.3062  0.1967
  309MOL0     C41600   3.456   1.653   7.234 -0.2539 -0.1983 -0.4098
  309MOL0     C41601   3.350   1.742   7.308 -0.8895  0.0853 -0.2515
  309MOL0     C41602   3.224   1.680   7.376 -0.3664  1.0087  0.4253
  309MOL0     C41603   3.104   1.761   7.422  1.3421 -0.0211 -0.0573
  309MOL0     O41604   3.155   1.870   7.501  0.4134 -0.8762 -0.0048
  309MOL0     C41605   3.059   1.965   7.540  0.5349  0.0435  0.5039
  309MOL0     C41606   3.107   2.086   7.579 -0.8802 -0.3996  0.1957
  309MOL0     C41607   3.036   2.196   7.606 -0.5436 -0.1388  0.5620
  309MOL0     C41608   2.895   2.188   7.591  0.0227  0.1373 -0.9494
  309MOL0     C41609   2.807   2.307   7.608  0.0762  0.4719  1.1351
  309MOL0     O41610   2.856   2.419   7.665 -0.1083 -0.4202 -0.4227
  309MOL0     C41611   2.789   2.543   7.661  0.6079 -0.1863 -0.1718
  309MOL0     C41612   2.781   2.626   7.783  0.6190  0.9440  0.0838
  309MOL0     C41613   2.721   2.746   7.791  0.2312 -0.4411  0.2014
  309MOL0     C41614   2.667   2.801   7.670  0.6888  0.5891 -0.1039
  309MOL0     O41615   2.582   2.913   7.669  0.7718 -0.1567 -0.6498
  309MOL0     C41616   2.464   2.891   7.753 -0.0299 -0.0018  0.1330
  309MOL0     C41617   2.374   3.011   7.736 -0.9213  0.0290 -0.8023
  309MOL0     C41618   2.283   3.005   7.618  0.1126 -0.5819  0.2973
  309MOL0     C41619   2.339   2.978   7.476 -0.9580  0.6934  0.1651
  309MOL0     C41620   2.234   3.003   7.372  0.1615 -0.6226 -0.4584
  309MOL0     C41621   2.203   3.154   7.354  0.1532 -0.2210 -0.9825
  309MOL0     C41622   2.097   3.186   7.255  0.1845  0.0549  0.5362
  309MOL0     C41623   2.099   3.336   7.246 -0.0848  0.1821 -0.9803
  309MOL0    Cl41624   1.947   3.381   7.157  0.1678  0.2705  0.2924
  309MOL0     C41625   2.684   2.730   7.544  0.6998 -1.2035  0.1744
  309MOL0     C41626   2.737   2.601   7.547 -0.0568  0.0373 -0.4929
  309MOL0     O41627   2.704   2.295   7.550  0.3221 -0.6522 -0.1131
  309MOL0     C41628   2.847   2.062   7.551  0.1691 -1.1635 -0.3218
  309MOL0     C41629   2.922   1.953   7.530 -0.6458 -0.1878  0.1992
  309MOL0     N41630   3.432   1.416   7.294 -0.1626  0.9227  0.4195
  309MOL0     N41631   3.496   1.322   7.355 -0.2411 -0.3938 -0.0289
  309MOL0     C41632   3.372   0.399   7.782 -0.1752  0.1686  0.0183
  309MOL0     C41633   3.354   0.341   7.914 -0.8178  0.6329 -0.7206
  309MOL0     C41634   3.091   0.342   8.303  0.7088 -0.9247  1.2925
  309MOL0     C41635   3.186   0.375   8.405  0.3211  0.2894  0.1330
  309MOL0     C41636   3.162   0.379   8.540  1.6859  0.1970  0.0989
  309MOL0     C41637   3.039   0.341   8.584  0.0762 -0.6832 -1.0655
  309MOL0     O41638   3.028   0.329   8.720  0.2055  0.6274  0.0666
  309MOL0     C41639   2.911   0.383   8.782 -0.0328  0.2357  0.4155
  309MOL0     C41640   2.820   0.281   8.846  0.0821 -0.5582  0.8994
  309MOL0     C41641   2.678   0.331   8.863  0.2114 -0.9512 -0.2031
  309MOL0     C41642   2.666   0.441   8.976 -1.0716 -0.0719  0.1829
  309MOL0     C41643   2.531   0.448   9.022  0.1302 -0.0561  0.9859
  309MOL0     C41644   2.420   0.472   9.054  1.0958  0.3314  0.3299
  309MOL0     C41645   2.942   0.297   8.493 -0.2783 -0.0722  0.2094
  309MOL0     C41646   2.957   0.309   8.349 -0.6345 -0.0509 -0.5621
  309MOL0     C41647   2.851   0.251   8.256  0.1756 -0.2939 -0.0568
  309MOL0     H41648   3.214   0.621   8.063  1.6328  1.7176  0.1887
  309MOL0     H41649   3.281   0.719   7.824  0.3115  0.3402 -0.6813
  309MOL0     H41650   3.568   0.599   7.671  1.8018  2.8860  1.8580
  309MOL0     H41651   3.503   0.634   7.506  1.0411 -0.2948  0.3758
  309MOL0     H41652   3.460   0.804   7.756  0.5453 -4.0736  0.3550
  309MOL0     H41653   3.403   0.844   7.610  1.0374  1.3749 -0.1484
  309MOL0     H41654   3.626   0.860   7.511  0.0487  0.6260  0.3250
  309MOL0     H41655   3.702   0.784   7.648 -1.0495 -0.8291  1.5947
  309MOL0     H41656   3.567   1.059   7.670  0.2592  0.0162  1.1119
  309MOL0     H41657   3.641   0.961   7.802  0.5937  2.7885 -0.3478
  309MOL0     H41658   3.804   1.116   7.744  0.0727  0.1666 -1.3928
  309MOL0     H41659   3.843   0.949   7.708 -3.5162 -1.7826  1.6309
  309MOL0     H41660   3.917   1.134   7.532 -0.7724  0.6753 -4.1419
  309MOL0     H41661   3.838   0.984   7.470  2.5695 -0.4689  0.0730
  309MOL0     H41662   3.621   1.102   7.464  0.4332 -0.3491  1.5895
  309MOL0     H41663   3.756   1.164   7.358  0.2100 -1.1942  0.3995
  309MOL0     H41664   3.656   1.313   7.605 -0.2026  2.9721 -0.7180
  309MOL0     H41665   3.786   1.355   7.479 -0.7625 -0.1914 -3.6009
  309MOL0     H41666   3.671   1.594   7.414 -0.6133  0.4160  0.1661
  309MOL0     H41667   3.543   1.718   7.220 -1.6159  1.4696 -1.5804
  309MOL0     H41668   3.421   1.633   7.132 -1.4241  0.3070 -0.1221
  309MOL0     H41669   3.414   1.791   7.382  1.5138 -0.0204 -2.1310
  309MOL0     H41670   3.319   1.827   7.246 -1.4337  0.1685  0.1348
  309MOL0     H41671   3.244   1.624   7.468 -1.9272 -2.9691 -1.4107
  309MOL0     H41672   3.187   1.607   7.304 -0.5750  2.0871 -0.5959
  309MOL0     H41673   3.035   1.703   7.483  0.6885  0.8711  0.0706
  309MOL0     H41674   3.052   1.797   7.333  2.8159  2.3257 -0.0479
  309MOL0     H41675   3.215   2.098   7.580 -1.1653  3.3201  0.8374
  309MOL0     H41676   3.089   2.290   7.619  0.9798 -1.0350  1.0975
  309MOL0     H41677   2.818   2.578   7.873  2.8744  0.6660 -0.9202
  309MOL0     H41678   2.728   2.793   7.889 -2.0524 -1.6955  1.0399
  309MOL0     H41679   2.408   2.798   7.736  0.1592 -0.5063  2.0032
  309MOL0     H41680   2.487   2.896   7.860 -1.3301  1.8500  0.3711
  309MOL0     H41681   2.317   3.027   7.828 -1.0483  1.4181 -1.1122
  309MOL0     H41682   2.447   3.091   7.724  3.8732 -3.3523  2.2376
  309MOL0     H41683   2.208   2.930   7.644  1.7133 -2.1255  0.6676
  309MOL0     H41684   2.246   3.107   7.610  0.6962 -0.4322 -0.7166
  309MOL0     H41685   2.373   2.876   7.458  1.1748  1.3562  0.2638
  309MOL0     H41686   2.428   3.041   7.468 -0.7775  0.5702  1.0321
  309MOL0     H41687   2.141   2.954   7.403  2.0131 -2.9493  1.9775
  309MOL0     H41688   2.264   2.951   7.280 -0.0649 -0.6691 -0.5059
  309MOL0     H41689   2.180   3.206   7.448  0.0871 -2.4359  0.2995
  309MOL0     H41690   2.293   3.205   7.320 -0.2145 -0.8040 -2.9005
  309MOL0     H41691   2.000   3.146   7.287 -1.2883  0.3693 -2.9938
  309MOL0     H41692   2.129   3.130   7.166  1.8884 -0.3569  1.3725
  309MOL0     H41693   2.101   3.380   7.346 -0.6963 -1.9505  0.0284
  309MOL0     H41694   2.183   3.376   7.187 -1.1676  0.9852 -2.0245
  309MOL0     H41695   2.626   2.768   7.461  0.2314  0.4870  1.2316
  309MOL0     H41696   2.750   2.538   7.460  3.2994 -1.7988  1.1488
  309MOL0     H41697   2.739   2.057   7.543 -0.1112  1.0086  1.2607
  309MOL0     H41698   2.878   1.858   7.501 -1.4058 -0.2120  1.3630
  309MOL0     H41699   3.406   0.341   7.696 -0.4323 -0.0151  0.0403
  309MOL0     H41700   3.362   0.234   7.930  0.7075  0.8755  0.4779
  309MOL0     H41701   3.278   0.419   8.368  0.2800 -0.5133 -0.9843
  309MOL0     H41702   3.248   0.411   8.599  2.0149  3.5552 -1.9009
  309MOL0     H41703   2.854   0.435   8.705 -1.1926 -0.4763  0.7648
  309MOL0     H41704   2.935   0.453   8.862 -2.1965 -0.5791  1.8742
  309MOL0     H41705   2.864   0.235   8.936 -0.9323 -1.1083  1.1372
  309MOL0     H41706   2.818   0.202   8.770 -0.0326  0.0572  0.2539
  309MOL0     H41707   2.613   0.247   8.889  1.4048 -2.0536 -0.6782
  309MOL0     H41708   2.648   0.354   8.760 -0.4054 -2.8395 -0.4876
  309MOL0     H41709   2.728   0.417   9.063 -1.8499 -0.2204  0.7048
  309MOL0     H41710   2.708   0.538   8.947 -1.9855  0.7784  1.5513
  309MOL0     H41711   2.325   0.510   9.086  0.2805 -0.9531 -0.4769
  309MOL0     H41712   2.848   0.261   8.532 -0.7325 -0.0602 -0.8258
  309MOL0     H41713   2.902   0.192   8.180 -2.5667 -0.4457 -1.9044
  309MOL0     H41714   2.772   0.194   8.307 -0.8817  1.3759  0.2556
  309MOL0     H41715   2.792   0.323   8.199 -1.1323 -0.9782  0.3908
  310MOL0     O41716   7.122   1.322   0.009 -0.2883  0.1294  0.0458
  310MOL0     C41717   7.030   1.279  -0.062 -0.1673  0.4019 -0.4132
  310MOL0     O41718   6.986   1.155  -0.048 -0.6133  0.1201  0.4062
  310MOL0     C41719   6.985   1.080   0.064  0.2709  0.4286  0.2356
  310MOL0     C41720   6.957   1.140   0.197 -0.0206 -0.3164 -0.6700
  310MOL0     C41721   6.954   1.051   0.309  0.7159 -0.4971  0.3628
  310MOL0     C41722   6.975   0.918   0.301 -0.3737 -0.2237  1.0210
  310MOL0     O41723   6.971   0.851   0.418  0.1869  0.2287 -0.0968
  310MOL0     C41724   6.946   0.710   0.424  0.3156  0.5262 -0.4979
  310MOL0     C41725   6.929   0.673   0.572  1.3903  0.6114 -0.6306
  310MOL0     C41726   7.051   0.688   0.667 -0.0087 -0.5203  0.5098
  310MOL0     C41727   7.090   0.827   0.722  0.6055 -0.1311  0.3892
  310MOL0     C41728   7.224   0.816   0.802  0.7865 -0.1690  0.5640
  310MOL0     C41729   7.251   0.952   0.874  0.1155 -0.3966 -0.0092
  310MOL0     C41730   7.384   0.954   0.945  0.2592  0.9570  0.7914
  310MOL0     C41731   7.372   0.915   1.093 -0.0806 -0.5210 -0.6353
  310MOL0     N41732   7.497   0.926   1.167 -0.0156 -0.7804 -0.2502
  310MOL0     C41733   7.553   0.850   1.269 -0.6215  0.0504 -0.8328
  310MOL0     C41734   7.662   0.918   1.319  1.0835  0.4083  0.0545
  310MOL0     C41735   7.772   0.887   1.417  0.9389 -0.2277 -0.4728
  310MOL0     C41736   7.764   0.966   1.545 -0.6432 -0.0885  0.6110
  310MOL0     C41737   7.834   1.093   1.507  0.5003 -0.9638 -0.5937
  310MOL0     C41738   7.832   1.161   1.643  0.3149  0.0172  0.0913
  310MOL0     O41739   7.895   1.281   1.611  0.5894  0.5797 -0.1089
  310MOL0     C41740   7.907   1.370   1.714  0.8559 -1.2746  0.4555
  310MOL0     C41741   8.012   1.365   1.794  0.5655  0.4972  0.7691
  310MOL0     C41742   8.020   1.461   1.909 -0.2600 -0.4037 -0.3168
  310MOL0     C41743   7.919   1.561   1.930  0.1391  0.2961 -0.7305
  310MOL0     C41744   7.929   1.648   2.041  0.1761  0.5091 -1.0646
  310MOL0     O41745   7.843   1.756   2.037 -1.1012 -0.6832  0.1296
  310MOL0     C41746   7.845   1.853   2.138  0.0349  0.1907  0.4370
  310MOL0     C41747   7.776   1.837   2.254  0.5721  0.2455  0.4577
  310MOL0     C41748   7.778   1.945   2.344 -0.5938  0.1099  0.6442
  310MOL0     C41749   7.846   2.060   2.322 -0.8215 -1.1642 -0.0351
  310MOL0     O41750   7.820   2.167   2.407  0.0403  0.7872  0.5949
  310MOL0     C41751   7.921   2.270   2.409  0.2240 -0.1167  0.1765
  310MOL0     C41752   7.899   2.371   2.527  0.0402  0.1629 -0.2797
  310MOL0     C41753   7.986   2.493   2.510  0.6410  0.4669 -0.4155
  310MOL0     C41754   7.910   2.609   2.419  0.3721 -0.0251 -0.6658
  310MOL0     C41755   7.992   2.730   2.414  1.2972 -0.1495  0.5627
  310MOL0     C41756   7.926   2.863   2.390  0.4844  0.3821 -0.7552
  310MOL0     C41757   8.018   2.979   2.341  0.9072 -0.3205 -0.2100
  310MOL0     C41758   7.947   3.092   2.269  0.3301 -0.0493  0.6001
  310MOL0    Cl41759   8.040   3.245   2.280  0.5877  0.1950  0.0417
  310MOL0     C41760   7.910   2.070   2.198  0.9198  0.1171 -0.4031
  310MOL0     C41761   7.902   1.974   2.105  0.1150 -0.6538  0.2066
  310MOL0     O41762   8.000   1.625   2.137  0.4787  0.1838  0.8924
  310MOL0     C41763   7.802   1.546   1.850 -0.0724  0.9238 -0.0226
  310MOL0     C41764   7.794   1.455   1.742 -0.1481  0.5636 -0.3859
  310MOL0     N41765   7.674   1.033   1.251  0.4640  0.1415  0.5669
  310MOL0     N41766   7.578   1.037   1.162  0.0562 -0.9660 -0.0306
  310MOL0     C41767   6.987   0.858   0.174  0.3948 -0.0228 -0.3200
  310MOL0     C41768   6.991   0.938   0.054  0.1395 -0.4638 -0.3959
  310MOL0     C41769   6.980   1.359  -0.177  0.6499 -0.5843 -0.0730
  310MOL0     C41770   6.894   1.295  -0.251  0.7416  0.0809  0.8777
  310MOL0     C41771   6.839   1.355  -0.364 -0.3466  1.3563 -0.3898
  310MOL0     C41772   6.867   1.485  -0.413 -0.7738  0.3337 -0.5788
  310MOL0     O41773   6.801   1.520  -0.527  0.3530  0.2747  0.1549
  310MOL0     C41774   6.848   1.636  -0.588 -0.3430 -0.3920  0.9892
  310MOL0     C41775   6.937   1.602  -0.700 -0.8120  0.5613  0.5574
  310MOL0     C41776   6.987   1.724  -0.785  0.4247  0.3041  0.3899
  310MOL0     C41777   7.090   1.684  -0.906  0.6644  0.4576 -0.7317
  310MOL0     C41778   7.028   1.614  -1.015  0.7292  0.4202 -0.8267
  310MOL0     C41779   6.985   1.558  -1.108  0.2853 -0.7773 -0.4047
  310MOL0     C41780   6.965   1.554  -0.342  0.7165 -0.2144 -1.1490
  310MOL0     C41781   7.013   1.496  -0.220 -0.8025  0.8031  0.6614
  310MOL0     C41782   7.121   1.574  -0.150  0.2810  0.9592 -0.1423
  310MOL0     H41783   6.943   1.247   0.210 -0.8675  0.0655 -3.7867
  310MOL0     H41784   6.925   1.100   0.402 -2.4396 -0.4715 -0.5311
  310MOL0     H41785   6.850   0.673   0.386 -0.1306 -1.8989  2.6312
  310MOL0     H41786   7.031   0.656   0.380  0.9644  1.3907 -0.3421
  310MOL0     H41787   6.914   0.565   0.573  0.9133  0.6311  2.2250
  310MOL0     H41788   6.834   0.715   0.608  0.7653  1.0210 -2.6401
  310MOL0     H41789   7.137   0.643   0.618  0.3565 -2.7842  3.0183
  310MOL0     H41790   7.034   0.630   0.758  1.0075 -1.6370  0.0215
  310MOL0     H41791   7.103   0.886   0.631 -0.3383  0.1984  0.4586
  310MOL0     H41792   7.008   0.867   0.781 -0.4771  0.8725 -1.6767
  310MOL0     H41793   7.209   0.738   0.878  3.1714 -0.1488  1.1323
  310MOL0     H41794   7.298   0.784   0.728 -1.7308 -1.4150 -1.5826
  310MOL0     H41795   7.272   1.031   0.802  1.4187 -1.2015 -0.5469
  310MOL0     H41796   7.169   0.977   0.942  0.3123 -1.9056  0.8309
  310MOL0     H41797   7.417   1.057   0.936 -2.3573  1.8831  1.0337
  310MOL0     H41798   7.455   0.886   0.897 -1.4393 -1.0828  0.9794
  310MOL0     H41799   7.294   0.973   1.143  0.1655  0.0436 -0.8991
  310MOL0     H41800   7.343   0.809   1.100  0.3634 -0.6614 -0.8657
  310MOL0     H41801   7.514   0.753   1.297  1.0513 -0.0780  1.2977
  310MOL0     H41802   7.776   0.783   1.449 -1.1328  0.0571  0.9329
  310MOL0     H41803   7.870   0.897   1.371  0.8376  2.8248 -0.2245
  310MOL0     H41804   7.667   0.995   1.585  0.0834 -1.8942  4.1040
  310MOL0     H41805   7.812   0.906   1.624 -2.1961 -0.8359  1.0155
  310MOL0     H41806   7.772   1.159   1.446  1.6754 -1.6098 -2.5903
  310MOL0     H41807   7.926   1.076   1.450  1.2939  1.5309 -0.1966
  310MOL0     H41808   7.891   1.101   1.713 -0.1836 -0.7290 -0.1199
  310MOL0     H41809   7.731   1.169   1.685 -0.0695 -3.0033 -0.0718
  310MOL0     H41810   8.087   1.286   1.787  0.0567 -0.0552  1.4124
  310MOL0     H41811   8.113   1.452   1.963 -1.2681  0.1496  1.6245
  310MOL0     H41812   7.721   1.744   2.266 -1.3537  1.3807  0.7799
  310MOL0     H41813   7.727   1.926   2.438  1.6423  0.2366  1.9705
  310MOL0     H41814   8.018   2.222   2.421  0.6189  1.1701  2.7623
  310MOL0     H41815   7.923   2.326   2.315 -0.9139 -0.9027 -0.3464
  310MOL0     H41816   7.795   2.403   2.543 -0.6002 -2.7951  2.5791
  310MOL0     H41817   7.928   2.331   2.625 -1.9951  1.3894  0.9104
  310MOL0     H41818   8.012   2.535   2.607  0.8606  0.0564 -0.2997
  310MOL0     H41819   8.077   2.458   2.461  1.1645 -0.9323  1.4407
  310MOL0     H41820   7.815   2.626   2.470  0.0798 -4.1192  0.4843
  310MOL0     H41821   7.887   2.566   2.321 -0.1098 -1.2480 -0.0420
  310MOL0     H41822   8.064   2.721   2.332  0.0574  1.5011 -0.7574
  310MOL0     H41823   8.040   2.736   2.513  1.6537 -1.9338  0.5322
  310MOL0     H41824   7.849   2.842   2.315 -2.6812  0.9971  2.1027
  310MOL0     H41825   7.868   2.897   2.476 -0.9734 -0.2667 -1.4463
  310MOL0     H41826   8.086   2.933   2.269  1.4464  1.0054 -0.5922
  310MOL0     H41827   8.070   3.015   2.430  0.9390  1.3817 -0.8824
  310MOL0     H41828   7.932   3.068   2.163 -1.5539 -3.1253  1.4471
  310MOL0     H41829   7.849   3.102   2.316  0.5443 -2.3545  1.6406
  310MOL0     H41830   7.947   2.166   2.163  0.2966  0.9749  1.1948
  310MOL0     H41831   7.945   1.975   2.005  1.4314 -0.0370  0.7673
  310MOL0     H41832   7.716   1.604   1.882 -1.8789 -1.7823  0.3025
  310MOL0     H41833   7.704   1.441   1.683  0.1454 -0.2262 -0.6679
  310MOL0     H41834   6.994   0.749   0.177 -2.3253 -0.2759  2.5822
  310MOL0     H41835   6.983   0.894  -0.044 -1.6480  2.1699 -1.5598
  310MOL0     H41836   6.857   1.194  -0.236 -1.3133  0.3229 -1.7727
  310MOL0     H41837   6.763   1.292  -0.410  1.0107 -0.6527 -0.0287
  310MOL0     H41838   6.902   1.713  -0.532 -1.4706  1.2056 -0.0226
  310MOL0     H41839   6.762   1.692  -0.625 -1.3978 -2.1310  0.6797
  310MOL0     H41840   6.880   1.539  -0.769  0.3683 -0.4871  0.4819
  310MOL0     H41841   7.021   1.553  -0.649 -1.9719  1.7165  3.7695
  310MOL0     H41842   7.027   1.805  -0.723  0.8709 -0.6392  1.3757
  310MOL0     H41843   6.894   1.766  -0.824  0.2679  2.5530  2.8775
  310MOL0     H41844   7.120   1.783  -0.942  1.4669  1.3120  2.0660
  310MOL0     H41845   7.173   1.625  -0.866 -0.4269  0.8362  2.3247
  310MOL0     H41846   6.953   1.516  -1.201 -0.3728 -2.3158  0.4792
  310MOL0     H41847   7.007   1.652  -0.363  1.9423  0.1897  2.4829
  310MOL0     H41848   7.142   1.668  -0.201 -0.8793  1.4059  0.1655
  310MOL0     H41849   7.086   1.586  -0.047 -0.6856 -0.6523 -0.2648
  310MOL0     H41850   7.206   1.507  -0.136  0.4215  1.5399  2.1513
  311MOL0     O41851  10.196   4.961   7.886  0.0000 -0.7489  0.3377
  311MOL0     C41852  10.289   5.020   7.938  0.3835  0.2702 -0.4510
  311MOL0     O41853  10.287   5.138   8.007  0.6575 -0.1183  0.4057
  311MOL0     C41854  10.173   5.207   7.999  0.0996  0.4635  0.6787
  311MOL0     C41855  10.114   5.261   8.115  0.6098  0.1645  0.2493
  311MOL0     C41856   9.997   5.331   8.103 -0.5839  0.8786 -0.1545
  311MOL0     C41857   9.944   5.366   7.978 -0.9830  0.2609  0.2367
  311MOL0     O41858   9.833   5.445   7.972  0.9803 -1.0823  0.3140
  311MOL0     C41859   9.749   5.453   7.850  0.5438 -0.2951  0.8288
  311MOL0     C41860   9.646   5.575   7.835 -0.9370  0.8252 -0.3177
  311MOL0     C41861   9.710   5.693   7.879  0.0921 -0.2740  0.0395
  311MOL0     C41862   9.818   5.752   7.785 -0.4395 -0.0822 -0.0985
  311MOL0     C41863   9.878   5.877   7.836 -1.1729 -0.1942  0.2127
  311MOL0     C41864   9.835   6.000   7.753 -0.0382 -0.4656 -0.1033
  311MOL0     C41865   9.903   6.126   7.812 -0.0986 -0.4644 -0.0577
  311MOL0     C41866   9.889   6.256   7.734  0.0429  1.1002 -0.3041
  311MOL0     N41867   9.971   6.366   7.789  0.3720  0.7108 -0.5941
  311MOL0     C41868  10.104   6.380   7.770  0.0069  0.8316  0.3935
  311MOL0     C41869  10.130   6.512   7.783  0.2844  0.0974 -0.2973
  311MOL0     C41870  10.264   6.582   7.757  1.3114  1.0263  0.2335
  311MOL0     C41871  10.306   6.686   7.848  0.5373 -0.3530  0.2712
  311MOL0     C41872  10.224   6.816   7.828  0.2719 -0.4553 -0.4105
  311MOL0     C41873  10.288   6.932   7.908 -0.3834  0.1005  0.6227
  311MOL0     O41874  10.422   6.978   7.862 -1.0180 -0.1823 -0.1008
  311MOL0     C41875  10.482   7.094   7.915 -0.7791 -0.1556 -0.6341
  311MOL0     C41876  10.410   7.189   7.989  0.5668  0.7853  0.0715
  311MOL0     C41877  10.473   7.301   8.024  0.0519  0.5311 -0.1922
  311MOL0     C41878  10.613   7.326   8.001 -0.8804 -0.0362 -0.9263
  311MOL0     C41879  10.678   7.452   8.044 -0.0132 -0.3631 -0.3975
  311MOL0     O41880  10.811   7.452   8.056 -0.2370  1.2652  0.1411
  311MOL0     C41881  10.879   7.564   8.104  0.4004  0.2587  0.0729
  311MOL0     C41882  10.941   7.566   8.230 -0.0662 -0.1076 -0.1766
  311MOL0     C41883  11.026   7.674   8.272  0.4025  0.1459 -1.4133
  311MOL0     C41884  11.043   7.788   8.191 -0.4006 -1.7736  0.7704
  311MOL0     O41885  11.112   7.911   8.217  0.9206  0.5814  0.3335
  311MOL0     C41886  11.174   7.921   8.339  0.1094  0.4195 -0.7396
  311MOL0     C41887  11.316   7.873   8.350 -0.4210  0.0963  0.2949
  311MOL0     C41888  11.397   7.924   8.228  0.3182 -0.3640  0.1366
  311MOL0     C41889  11.538   7.887   8.253 -1.0674 -0.3860  0.3830
  311MOL0     C41890  11.617   7.896   8.110 -0.2310 -0.3325  0.1370
  311MOL0     C41891  11.758   7.927   8.142 -0.5083  1.4653  0.1154
  311MOL0     C41892  11.833   7.794   8.129 -0.3379 -0.7840  0.0677
  311MOL0     C41893  11.981   7.814   8.151 -0.9854  0.0323  0.4212
  311MOL0    Cl41894  12.062   7.938   8.043 -0.2709 -0.1974 -0.5368
  311MOL0     C41895  10.983   7.789   8.061 -0.8693  0.3086 -0.0410
  311MOL0     C41896  10.910   7.678   8.018  0.8273  1.1788 -0.9190
  311MOL0     O41897  10.602   7.545   8.089 -0.3786  0.6763 -0.0274
  311MOL0     C41898  10.686   7.231   7.942 -0.6016  0.0610 -0.2689
  311MOL0     C41899  10.619   7.109   7.893  0.1492  0.2082  0.7273
  311MOL0     N41900  10.011   6.573   7.806 -0.0732 -0.3238  0.1815
  311MOL0     N41901   9.913   6.489   7.814 -0.0570  0.9581 -0.9760
  311MOL0     C41902  10.009   5.322   7.859  0.8841  1.0721 -0.3781
  311MOL0     C41903  10.120   5.245   7.874  0.3044  0.6262 -0.6492
  311MOL0     C41904  10.426   4.970   7.908  0.3658 -0.8566 -0.5304
  311MOL0     C41905  10.505   4.944   8.026  0.4112 -0.6282 -0.3514
  311MOL0     C41906  10.635   4.911   8.003 -0.5341 -0.1332 -0.0050
  311MOL0     C41907  10.692   4.905   7.874 -0.3544  0.1072 -0.3251
  311MOL0     O41908  10.820   4.881   7.841 -0.0246 -0.3344  0.9616
  311MOL0     C41909  10.923   4.833   7.944  0.0026  0.1421  0.1459
  311MOL0     C41910  11.054   4.802   7.874 -0.2395 -0.2899  0.5290
  311MOL0     C41911  11.148   4.723   7.971  0.1453 -0.0920 -0.3386
  311MOL0     C41912  11.294   4.776   7.979  0.0026 -0.1871 -0.4508
  311MOL0     C41913  11.277   4.909   8.043 -0.8154  0.1018  0.8235
  311MOL0     C41914  11.277   5.022   8.099  0.7678  0.6321 -0.0540
  311MOL0     C41915  10.609   4.912   7.767 -1.2955 -0.5189 -0.0761
  311MOL0     C41916  10.469   4.942   7.782 -0.1871  0.0636 -0.2992
  311MOL0     C41917  10.398   4.948   7.659 -0.0018 -0.2043 -0.1159
  311MOL0     H41918  10.168   5.265   8.210  0.5676  2.5437  0.2323
  311MOL0     H41919   9.955   5.371   8.195  1.5621 -1.1047  1.8076
  311MOL0     H41920   9.802   5.449   7.755 -0.2835 -0.6970  0.3694
  311MOL0     H41921   9.688   5.362   7.853  0.6132 -0.3539  0.4944
  311MOL0     H41922   9.567   5.549   7.906 -0.4180  0.4176  0.1098
  311MOL0     H41923   9.608   5.568   7.732  0.6227 -3.5284 -0.8406
  311MOL0     H41924   9.756   5.681   7.978 -1.1276  6.5876  2.0161
  311MOL0     H41925   9.634   5.763   7.916 -0.3638 -2.4247  3.5769
  311MOL0     H41926   9.895   5.675   7.789  1.5876  1.8745  1.8249
  311MOL0     H41927   9.783   5.766   7.682 -0.7795  2.0078  0.2576
  311MOL0     H41928   9.852   5.905   7.938 -2.5936  2.7224 -0.8336
  311MOL0     H41929   9.985   5.861   7.819 -1.6749 -0.7029 -3.4557
  311MOL0     H41930   9.856   5.994   7.646 -1.0753 -0.3784 -0.3195
  311MOL0     H41931   9.728   6.004   7.773 -0.2473 -2.3694 -0.6895
  311MOL0     H41932  10.010   6.105   7.819  0.3972  1.9615  0.4705
  311MOL0     H41933   9.874   6.145   7.916 -1.0452 -2.2271  0.0271
  311MOL0     H41934   9.923   6.244   7.631 -3.5915  3.2047 -1.9427
  311MOL0     H41935   9.785   6.289   7.721 -1.6634 -2.9311  1.3470
  311MOL0     H41936  10.162   6.296   7.733 -0.6599  0.6389 -0.2595
  311MOL0     H41937  10.339   6.503   7.759 -1.2544 -1.5469  1.2647
  311MOL0     H41938  10.255   6.623   7.656 -1.2774 -2.2562 -1.0213
  311MOL0     H41939  10.301   6.661   7.954 -0.2848  3.0454  1.1623
  311MOL0     H41940  10.410   6.706   7.820  0.7592  2.1377  2.4980
  311MOL0     H41941  10.121   6.802   7.861 -0.2087  0.7585 -1.3246
  311MOL0     H41942  10.210   6.843   7.723 -0.1021  2.2846  0.2666
  311MOL0     H41943  10.282   6.906   8.014 -0.0630 -4.2192 -0.2400
  311MOL0     H41944  10.225   7.020   7.892  0.8601  0.4474 -3.5686
  311MOL0     H41945  10.311   7.161   8.024  0.7403 -1.7290 -1.1826
  311MOL0     H41946  10.412   7.365   8.087 -0.7709  0.8783 -1.2990
  311MOL0     H41947  10.912   7.485   8.297 -1.2039  0.3021 -0.1479
  311MOL0     H41948  11.056   7.666   8.375  1.1602 -1.2805 -1.7196
  311MOL0     H41949  11.160   8.028   8.357 -1.0309 -0.0954  1.8299
  311MOL0     H41950  11.109   7.890   8.421  1.1101 -1.9719 -0.7858
  311MOL0     H41951  11.340   7.933   8.438 -1.1531  1.2056 -0.2505
  311MOL0     H41952  11.330   7.765   8.362 -2.3993  0.1007  4.3677
  311MOL0     H41953  11.347   7.878   8.142  0.0167 -2.5143  1.3953
  311MOL0     H41954  11.380   8.032   8.215 -1.6401 -0.6345  0.2193
  311MOL0     H41955  11.544   7.784   8.290  3.2628 -0.7176 -0.6696
  311MOL0     H41956  11.584   7.957   8.324 -1.6209 -1.9788  2.4251
  311MOL0     H41957  11.574   7.984   8.060 -3.2315  1.3339  4.9291
  311MOL0     H41958  11.612   7.808   8.046  1.5407  0.6836 -1.5247
  311MOL0     H41959  11.796   7.996   8.066 -0.5189  3.8792  2.1918
  311MOL0     H41960  11.776   7.961   8.244  0.1962  0.6948  0.2580
  311MOL0     H41961  11.811   7.756   8.028 -2.4400  0.1955  0.0910
  311MOL0     H41962  11.786   7.727   8.202  0.0205 -0.0885  0.9459
  311MOL0     H41963  11.981   7.844   8.257 -0.6783  1.7574 -0.0260
  311MOL0     H41964  12.035   7.720   8.143  1.7088  1.6088 -1.7557
  311MOL0     H41965  10.980   7.878   7.998  1.5254  1.1099  0.8702
  311MOL0     H41966  10.859   7.663   7.923 -0.5315  0.3670 -0.0810
  311MOL0     H41967  10.787   7.241   7.903 -0.3230  1.7642  0.7941
  311MOL0     H41968  10.665   7.032   7.833  1.0157 -0.0885  1.7512
  311MOL0     H41969   9.977   5.351   7.759 -0.5643 -0.0054 -0.2652
  311MOL0     H41970  10.180   5.226   7.786  2.2995 -2.1001  1.1107
  311MOL0     H41971  10.468   4.959   8.126  0.3761  2.8873 -0.7848
  311MOL0     H41972  10.701   4.897   8.089  0.4001  0.6827 -0.5609
  311MOL0     H41973  10.886   4.754   8.010  0.2696 -0.1815 -0.0880
  311MOL0     H41974  10.933   4.919   8.011 -2.4538  0.4158  0.2817
  311MOL0     H41975  11.104   4.886   7.825 -2.2568  0.3996 -0.4454
  311MOL0     H41976  11.037   4.733   7.791 -0.6753 -0.3258  0.6461
  311MOL0     H41977  11.138   4.621   7.933  1.9652 -0.3267 -0.2685
  311MOL0     H41978  11.115   4.710   8.075  0.9023 -1.1668 -0.2053
  311MOL0     H41979  11.354   4.714   8.047  0.0282 -0.1994 -0.4853
  311MOL0     H41980  11.354   4.790   7.889  1.6760  0.5886  0.7324
  311MOL0     H41981  11.283   5.121   8.139  1.5040  0.3411  0.5989
  311MOL0     H41982  10.652   4.902   7.668 -0.6840  0.2528  0.0992
  311MOL0     H41983  10.439   5.015   7.584  0.1621 -1.0588 -0.8079
  311MOL0     H41984  10.388   4.843   7.629 -2.8600 -0.5508  1.6706
  311MOL0     H41985  10.296   4.986   7.667  0.3016  0.3713  1.4153
  312MOL0     O41986   8.356   3.492  10.113  0.0166 -0.4537  0.8859
  312MOL0     C41987   8.257   3.527  10.060  0.5882 -0.3693 -0.4311
  312MOL0     O41988   8.250   3.634   9.975  0.2464 -0.1992  0.3038
  312MOL0     C41989   8.364   3.712   9.947  1.0461 -0.1092 -0.8537
  312MOL0     C41990   8.478   3.650   9.900  0.5746  0.0321 -0.3662
  312MOL0     C41991   8.600   3.727   9.892  0.3674  0.7005 -0.1562
  312MOL0     C41992   8.602   3.865   9.909 -0.5601  0.4392 -0.3992
  312MOL0     O41993   8.719   3.938   9.933  0.0233  0.4391 -0.3446
  312MOL0     C41994   8.820   3.855   9.992 -0.3382 -0.1332  0.0549
  312MOL0     C41995   8.901   3.955  10.071 -0.0347 -0.5117 -0.1064
  312MOL0     C41996   8.813   4.000  10.180 -0.1642 -0.6439 -0.5099
  312MOL0     C41997   8.906   4.063  10.291  0.6689  0.0369 -0.1028
  312MOL0     C41998   8.812   4.112  10.401  0.4469 -1.1441 -0.1276
  312MOL0     C41999   8.884   4.189  10.520  0.6036  0.0724 -0.0152
  312MOL0     C42000   8.919   4.331  10.471 -0.8126 -0.1704 -0.2835
  312MOL0     C42001   8.991   4.413  10.580 -0.3451 -0.2745  0.6617
  312MOL0     N42002   9.119   4.364  10.631 -1.0187 -0.4545  0.7342
  312MOL0     C42003   9.130   4.283  10.741  0.7919 -0.2099 -0.0801
  312MOL0     C42004   9.264   4.271  10.752  0.0384 -0.2656 -0.2588
  312MOL0     C42005   9.370   4.208  10.840  0.1978 -1.0225 -0.1193
  312MOL0     C42006   9.368   4.271  10.979 -0.6178  0.1639 -0.4722
  312MOL0     C42007   9.443   4.402  11.003 -0.4408 -0.3521 -0.0086
  312MOL0     C42008   9.413   4.465  11.140 -0.6012  1.2776 -0.0977
  312MOL0     O42009   9.445   4.374  11.252 -0.6523  0.0691 -0.3732
  312MOL0     C42010   9.408   4.396  11.379  0.9317 -0.1526 -0.7011
  312MOL0     C42011   9.285   4.452  11.410  0.0930  0.3693  0.4480
  312MOL0     C42012   9.242   4.483  11.545  0.3969 -0.3376 -0.4316
  312MOL0     C42013   9.323   4.445  11.651 -0.4145  0.3719 -0.4778
  312MOL0     C42014   9.284   4.447  11.795 -0.0365 -0.4132 -0.7238
  312MOL0     O42015   9.373   4.423  11.901 -0.8105  0.6715 -0.0249
  312MOL0     C42016   9.315   4.422  12.019 -0.8127  0.6081 -1.0161
  312MOL0     C42017   9.362   4.509  12.105 -0.4839 -0.4776  0.1815
  312MOL0     C42018   9.312   4.515  12.236 -0.3822 -0.2440  0.0606
  312MOL0     C42019   9.208   4.428  12.273 -0.1661  0.4696  0.3189
  312MOL0     O42020   9.160   4.427  12.402 -0.7590 -0.1733 -0.3526
  312MOL0     C42021   9.087   4.317  12.452 -0.4642  0.0844  0.3549
  312MOL0     C42022   9.042   4.357  12.595  0.1494 -0.0504  0.4499
  312MOL0     C42023   8.996   4.505  12.621  0.5045 -0.5852 -0.4984
  312MOL0     C42024   8.848   4.501  12.595 -0.2149 -0.2453 -1.1632
  312MOL0     C42025   8.781   4.457  12.729 -0.1784  0.9226 -0.3024
  312MOL0     C42026   8.627   4.444  12.730 -0.6466 -0.5906  0.3804
  312MOL0     C42027   8.548   4.391  12.605 -0.3778  0.9817  0.2757
  312MOL0     C42028   8.401   4.349  12.636 -0.3255  0.2313  0.1152
  312MOL0    Cl42029   8.278   4.398  12.514 -0.1352  0.1890  0.0431
  312MOL0     C42030   9.160   4.336  12.178 -0.1102  0.7169 -0.3236
  312MOL0     C42031   9.216   4.329  12.052 -0.5149  0.2246 -0.6254
  312MOL0     O42032   9.164   4.455  11.809 -0.3064 -0.3299 -0.2554
  312MOL0     C42033   9.446   4.378  11.621  0.4874 -0.2476 -0.1819
  312MOL0     C42034   9.480   4.362  11.480 -0.5103  0.7575 -0.0228
  312MOL0     N42035   9.328   4.347  10.646  1.0434 -1.2518 -0.6778
  312MOL0     N42036   9.236   4.399  10.577  0.0272 -0.4681 -1.1227
  312MOL0     C42037   8.481   3.929   9.941  0.9097 -0.5453  0.3182
  312MOL0     C42038   8.363   3.850   9.966 -0.0443  0.6841 -0.0121
  312MOL0     C42039   8.128   3.448  10.084  0.2905 -0.0563  0.1639
  312MOL0     C42040   8.011   3.473  10.007 -0.1844  0.0842 -1.0188
  312MOL0     C42041   7.892   3.405  10.031  0.3806  1.2893  0.2693
  312MOL0     C42042   7.884   3.301  10.121  0.5370 -0.0758  0.2096
  312MOL0     O42043   7.759   3.235  10.131 -0.2322  0.0336  0.6893
  312MOL0     C42044   7.752   3.109  10.209  0.2285 -0.4936  0.5007
  312MOL0     C42045   7.606   3.049  10.189 -0.3574 -0.5035  0.6968
  312MOL0     C42046   7.580   2.908  10.267  0.1430  0.0158  0.3497
  312MOL0     C42047   7.558   2.776  10.186  1.4074 -0.3653 -0.1341
  312MOL0     C42048   7.613   2.663  10.254 -0.2958  0.1797 -0.3566
  312MOL0     C42049   7.635   2.576  10.332  0.8932 -0.3093  0.2860
  312MOL0     C42050   7.998   3.275  10.203  0.2879  0.9431  0.6811
  312MOL0     C42051   8.117   3.349  10.187  0.1729  0.7457 -0.3615
  312MOL0     C42052   8.200   3.333  10.312  0.2123 -0.3285 -0.0518
  312MOL0     H42053   8.478   3.543   9.888  1.5777 -0.0301  0.0558
  312MOL0     H42054   8.692   3.675   9.870 -0.8372 -0.5001 -2.8648
  312MOL0     H42055   8.788   3.778  10.063 -0.4479 -2.2229 -2.1262
  312MOL0     H42056   8.859   3.794   9.910  1.5044 -0.6217  1.2464
  312MOL0     H42057   8.933   4.032  10.001 -0.8245  0.0845  0.1735
  312MOL0     H42058   8.997   3.916  10.108  0.6260  1.7104  0.6786
  312MOL0     H42059   8.759   3.914  10.221  1.4121 -1.5535 -0.2494
  312MOL0     H42060   8.740   4.077  10.152  0.3982  0.0881 -0.0168
  312MOL0     H42061   8.969   3.992  10.345 -2.3406 -1.3206  1.9209
  312MOL0     H42062   8.968   4.143  10.248  0.6490 -0.0890 -0.3727
  312MOL0     H42063   8.742   4.184  10.359 -1.1729 -2.9860 -0.7302
  312MOL0     H42064   8.749   4.029  10.436 -0.5871 -0.1264  0.4686
  312MOL0     H42065   8.808   4.180  10.598 -0.7556 -2.7069 -1.5162
  312MOL0     H42066   8.972   4.140  10.563  0.4578 -0.3849 -0.2318
  312MOL0     H42067   8.828   4.383  10.439 -2.1516 -1.4589  1.2594
  312MOL0     H42068   9.002   4.327  10.399 -1.1263 -0.5852 -0.6288
  312MOL0     H42069   9.006   4.506  10.524  2.5336 -2.0564 -1.8454
  312MOL0     H42070   8.926   4.423  10.667  0.8484  3.8825  1.2993
  312MOL0     H42071   9.048   4.245  10.801  0.0267 -0.5693 -1.3371
  312MOL0     H42072   9.342   4.104  10.856  1.3359 -1.6972 -2.1729
  312MOL0     H42073   9.465   4.214  10.787  0.6645  1.3402  0.8630
  312MOL0     H42074   9.262   4.278  11.005 -0.6828  1.9560 -1.0209
  312MOL0     H42075   9.415   4.196  11.041 -0.7502 -0.5382 -1.2054
  312MOL0     H42076   9.403   4.483  10.941  0.9466 -1.5913 -2.6967
  312MOL0     H42077   9.549   4.395  10.977 -1.1968 -4.6859 -2.9898
  312MOL0     H42078   9.306   4.486  11.129  0.0222  4.0334 -1.8360
  312MOL0     H42079   9.465   4.560  11.151  1.4092  0.6470 -2.9941
  312MOL0     H42080   9.217   4.451  11.327  0.4652  2.0889  0.0738
  312MOL0     H42081   9.139   4.517  11.557  0.5083  0.4848 -1.5981
  312MOL0     H42082   9.446   4.572  12.078  1.3417 -2.0012  1.9722
  312MOL0     H42083   9.359   4.581  12.308  1.7365  1.3599 -2.6060
  312MOL0     H42084   8.995   4.296  12.395 -1.5194  1.5488  1.4408
  312MOL0     H42085   9.152   4.229  12.457  1.5383  1.5523  1.6385
  312MOL0     H42086   8.965   4.287  12.629  0.3773 -0.4225  0.2159
  312MOL0     H42087   9.130   4.358  12.660 -0.9161 -2.0445  2.0387
  312MOL0     H42088   9.024   4.542  12.720  0.5154 -0.8466 -0.4023
  312MOL0     H42089   9.044   4.576  12.553 -2.4668 -0.9162 -3.1806
  312MOL0     H42090   8.819   4.431  12.517 -3.7381  0.1611 -0.4062
  312MOL0     H42091   8.821   4.602  12.563  0.0453 -0.4686 -2.1135
  312MOL0     H42092   8.799   4.535  12.803  0.2283 -1.1685  1.9278
  312MOL0     H42093   8.833   4.372  12.774  1.2874  2.6662  1.5326
  312MOL0     H42094   8.603   4.377  12.813  2.2195  1.0539  2.7176
  312MOL0     H42095   8.586   4.538  12.767  1.9805  1.2327 -1.0070
  312MOL0     H42096   8.601   4.311  12.552  1.1936  0.5444  2.4140
  312MOL0     H42097   8.546   4.467  12.526 -0.9255 -1.8806 -2.7215
  312MOL0     H42098   8.397   4.241  12.651 -0.7210  0.5849  3.2854
  312MOL0     H42099   8.386   4.391  12.736  1.2990  0.7284  0.1784
  312MOL0     H42100   9.074   4.275  12.206  2.2056 -1.5544  2.4650
  312MOL0     H42101   9.175   4.271  11.970 -0.6937 -2.1079  1.0219
  312MOL0     H42102   9.521   4.348  11.694 -0.7176  0.1361  1.2588
  312MOL0     H42103   9.578   4.315  11.475  0.0312  1.2867  3.3910
  312MOL0     H42104   8.473   4.033   9.970 -1.6704 -1.0669  1.7850
  312MOL0     H42105   8.270   3.882  10.013 -0.2229  1.0208 -0.5790
  312MOL0     H42106   8.015   3.546   9.927  2.0747  1.7373  0.4803
  312MOL0     H42107   7.800   3.439   9.984 -0.1532 -1.4088 -0.8236
  312MOL0     H42108   7.775   3.135  10.313 -0.2784 -1.5375  0.8927
  312MOL0     H42109   7.824   3.040  10.166 -1.8388 -1.9375 -0.8472
  312MOL0     H42110   7.586   3.030  10.083 -0.9809  0.8501  0.5579
  312MOL0     H42111   7.528   3.113  10.229  0.1576  0.5538  0.0540
  312MOL0     H42112   7.506   2.928  10.345 -0.1057  1.6463 -0.2597
  312MOL0     H42113   7.673   2.907  10.325 -0.7237 -1.1716  1.7899
  312MOL0     H42114   7.449   2.771  10.175  1.0759  0.2839  2.3913
  312MOL0     H42115   7.608   2.776  10.088  0.2928  2.1452 -0.7839
  312MOL0     H42116   7.652   2.498  10.404  3.7008  0.4739  0.6086
  312MOL0     H42117   7.986   3.195  10.276 -2.1522 -0.0487 -0.6683
  312MOL0     H42118   8.256   3.422  10.341 -0.1216 -0.1942  0.1933
  312MOL0     H42119   8.136   3.306  10.397 -0.0736 -0.3111 -0.2622
  312MOL0     H42120   8.275   3.255  10.299  1.6707  1.2652 -1.6088
  313MOL0     O42121   2.031   5.833   2.514 -0.8573  0.5433 -0.0764
  313MOL0     C42122   2.124   5.897   2.472 -0.0063 -0.1399 -0.0193
  313MOL0     O42123   2.106   5.984   2.367 -0.6117 -0.4793  0.5475
  313MOL0     C42124   2.001   6.068   2.387 -1.0751 -0.0931 -0.1250
  313MOL0     C42125   2.025   6.194   2.446  0.7855  1.5874  0.2168
  313MOL0     C42126   1.918   6.284   2.452 -0.3241  0.1808 -0.3807
  313MOL0     C42127   1.794   6.247   2.414 -0.1586 -0.2303 -0.5156
  313MOL0     O42128   1.699   6.345   2.419 -0.2579 -0.5849 -0.0717
  313MOL0     C42129   1.690   6.405   2.292 -0.1959 -1.4506  0.3893
  313MOL0     C42130   1.548   6.470   2.278  0.2631 -1.3417 -0.0460
  313MOL0     C42131   1.438   6.371   2.305  0.4450 -0.2525  0.3464
  313MOL0     C42132   1.400   6.268   2.196 -0.2206 -0.3045 -0.4199
  313MOL0     C42133   1.373   6.340   2.058 -0.3823 -1.0423 -0.5145
  313MOL0     C42134   1.321   6.242   1.949 -0.3936 -0.6850  0.4090
  313MOL0     C42135   1.368   6.276   1.811  0.4877 -0.4784 -0.7198
  313MOL0     C42136   1.267   6.200   1.720 -0.4125  0.0255 -0.4349
  313MOL0     N42137   1.287   6.246   1.584 -0.8254 -0.1927 -0.2949
  313MOL0     C42138   1.409   6.244   1.510  0.0807  0.4462 -0.5378
  313MOL0     C42139   1.367   6.281   1.385  0.4190 -0.4906  0.3113
  313MOL0     C42140   1.433   6.309   1.253 -0.0439 -0.2634 -0.0350
  313MOL0     C42141   1.455   6.462   1.226  1.1202  0.2142 -0.1884
  313MOL0     C42142   1.539   6.515   1.336 -0.3845  0.1242 -0.2700
  313MOL0     C42143   1.572   6.666   1.317  0.5687  0.3020  0.1023
  313MOL0     O42144   1.453   6.748   1.290  0.5747  0.2136  0.0208
  313MOL0     C42145   1.466   6.885   1.306  0.4902  0.1636  1.0606
  313MOL0     C42146   1.357   6.969   1.328 -0.1786 -0.2193 -0.1205
  313MOL0     C42147   1.368   7.113   1.323 -0.0253  0.5824 -0.0952
  313MOL0     C42148   1.498   7.169   1.309 -0.4381 -0.3012  0.3681
  313MOL0     C42149   1.531   7.314   1.325  0.1809 -1.7745 -0.8690
  313MOL0     O42150   1.662   7.352   1.308  0.7206 -0.1224  0.0292
  313MOL0     C42151   1.696   7.482   1.299 -0.4185 -0.2927  1.4998
  313MOL0     C42152   1.614   7.580   1.232 -1.0368 -0.4744  0.8893
  313MOL0     C42153   1.657   7.710   1.224 -0.3337  1.0270 -0.3381
  313MOL0     C42154   1.778   7.752   1.271 -0.1034 -0.5802  0.4102
  313MOL0     O42155   1.837   7.875   1.246  0.6075 -0.1586  0.1616
  313MOL0     C42156   1.767   7.987   1.192 -0.4921 -0.1956 -0.8501
  313MOL0     C42157   1.860   8.108   1.182  0.0975  0.2355 -0.9926
  313MOL0     C42158   1.863   8.180   1.322  0.3508 -0.5696 -0.4535
  313MOL0     C42159   1.969   8.289   1.339  0.7336 -0.2616 -1.3760
  313MOL0     C42160   1.990   8.339   1.485  0.7079  0.9055 -0.2220
  313MOL0     C42161   1.857   8.375   1.544 -0.0764  0.4825 -0.5240
  313MOL0     C42162   1.880   8.445   1.684  0.5612 -0.0604  0.1067
  313MOL0     C42163   1.928   8.589   1.681  0.9735 -0.2664 -0.5703
  313MOL0    Cl42164   1.928   8.655   1.848  0.4524 -0.1321 -0.2507
  313MOL0     C42165   1.864   7.659   1.335 -0.2743  0.1764  0.2517
  313MOL0     C42166   1.819   7.521   1.345 -0.0551 -1.0341 -0.3981
  313MOL0     O42167   1.435   7.386   1.341 -0.8014  0.2577  0.1196
  313MOL0     C42168   1.610   7.088   1.303 -0.0803  1.2106 -0.2009
  313MOL0     C42169   1.589   6.950   1.287 -0.6095  0.3747  0.2010
  313MOL0     N42170   1.234   6.310   1.383  0.4221 -0.0133  0.1378
  313MOL0     N42171   1.182   6.287   1.497 -0.9382  0.0444 -0.2267
  313MOL0     C42172   1.764   6.118   2.360  0.0130 -0.0980  1.0031
  313MOL0     C42173   1.875   6.027   2.351  0.6147 -0.2989 -1.1844
  313MOL0     C42174   2.241   5.910   2.574 -0.2341  0.5694  0.1762
  313MOL0     C42175   2.227   5.859   2.701 -0.3400 -0.0485 -0.1630
  313MOL0     C42176   2.320   5.848   2.793  0.8323  0.8230  0.0890
  313MOL0     C42177   2.457   5.892   2.773  0.8778 -1.2501  2.3360
  313MOL0     O42178   2.539   5.878   2.883 -0.5467  0.3813 -0.0425
  313MOL0     C42179   2.637   5.980   2.917  0.1280  0.2388  0.8067
  313MOL0     C42180   2.770   5.919   2.912 -0.3646  0.4360 -1.4207
  313MOL0     C42181   2.879   6.011   2.974 -0.3408 -0.0803 -0.3385
  313MOL0     C42182   3.012   5.936   2.965 -0.9092 -0.1421 -0.2443
  313MOL0     C42183   3.123   6.025   2.997 -0.0434 -0.7819  1.0298
  313MOL0     C42184   3.216   6.104   2.999 -0.7245 -0.2443  0.1267
  313MOL0     C42185   2.479   5.943   2.647 -0.2193  0.0360  0.6850
  313MOL0     C42186   2.371   5.965   2.549  0.7049  0.1388  0.5983
  313MOL0     C42187   2.395   6.045   2.419  0.7853  0.6289 -1.0099
  313MOL0     H42188   2.126   6.211   2.482  0.3936  3.3198  0.5946
  313MOL0     H42189   1.936   6.379   2.501 -3.5611  0.3801  0.6561
  313MOL0     H42190   1.764   6.485   2.281  0.5813 -2.2476 -0.2980
  313MOL0     H42191   1.698   6.338   2.206 -0.1770  0.7647 -1.4211
  313MOL0     H42192   1.537   6.517   2.180  0.7905  1.0321  0.9769
  313MOL0     H42193   1.540   6.553   2.348 -0.3455 -0.1225 -1.5076
  313MOL0     H42194   1.345   6.427   2.320 -0.1483 -0.8555 -0.9453
  313MOL0     H42195   1.467   6.324   2.400 -1.2284  2.3498  2.3050
  313MOL0     H42196   1.486   6.202   2.182  1.0560  1.2511 -0.2303
  313MOL0     H42197   1.314   6.216   2.239  0.6963 -2.0801 -0.6482
  313MOL0     H42198   1.297   6.417   2.067  0.6334 -0.1017  0.4331
  313MOL0     H42199   1.463   6.388   2.019  0.4002 -2.0799 -0.0569
  313MOL0     H42200   1.345   6.137   1.968 -0.3652 -0.7477  0.0292
  313MOL0     H42201   1.213   6.263   1.956 -0.4807  0.9136 -3.4059
  313MOL0     H42202   1.472   6.254   1.786  0.3112 -2.3119  0.0217
  313MOL0     H42203   1.358   6.384   1.797  0.1301 -0.7721 -3.0659
  313MOL0     H42204   1.284   6.093   1.729  2.2712  0.3895 -0.4855
  313MOL0     H42205   1.163   6.230   1.738 -0.2238 -0.0263  0.8870
  313MOL0     H42206   1.508   6.228   1.550 -1.1506 -1.0635  2.1361
  313MOL0     H42207   1.530   6.261   1.262  0.6046  1.3249  2.4423
  313MOL0     H42208   1.382   6.260   1.169  0.3253  1.6125 -1.4121
  313MOL0     H42209   1.513   6.472   1.134  0.2387 -0.1207 -0.8033
  313MOL0     H42210   1.356   6.508   1.218  0.2003 -1.8534 -1.4973
  313MOL0     H42211   1.621   6.445   1.354  0.7609  1.5173  0.0557
  313MOL0     H42212   1.486   6.521   1.432 -2.1603 -3.3100 -0.8758
  313MOL0     H42213   1.643   6.665   1.234 -0.0778  2.5108 -0.5344
  313MOL0     H42214   1.616   6.719   1.403 -1.0383  3.1069 -0.6969
  313MOL0     H42215   1.255   6.932   1.326 -0.0461 -0.5884 -0.1647
  313MOL0     H42216   1.280   7.177   1.328 -1.8058 -1.8034  1.7038
  313MOL0     H42217   1.511   7.566   1.204  0.0594 -1.4566 -3.3926
  313MOL0     H42218   1.589   7.787   1.188  1.4271  2.1501 -1.4695
  313MOL0     H42219   1.744   7.964   1.088  1.6971 -0.0863 -1.4066
  313MOL0     H42220   1.671   7.996   1.242  0.4837  1.4678  0.8551
  313MOL0     H42221   1.958   8.081   1.142 -0.1403 -3.0060  0.3458
  313MOL0     H42222   1.813   8.169   1.104 -0.0940 -0.5035 -1.4617
  313MOL0     H42223   1.764   8.226   1.326  0.9618  1.2471 -3.2370
  313MOL0     H42224   1.876   8.114   1.408  3.9639  2.8130  1.9399
  313MOL0     H42225   1.935   8.374   1.280  1.1600 -0.6202 -2.1643
  313MOL0     H42226   2.066   8.255   1.301 -0.0799 -3.0118 -1.2176
  313MOL0     H42227   2.062   8.422   1.491  1.0725  0.7576 -2.0098
  313MOL0     H42228   2.031   8.259   1.547  3.0407 -0.2393 -3.0152
  313MOL0     H42229   1.799   8.436   1.475  0.6211  0.3930 -1.2011
  313MOL0     H42230   1.799   8.282   1.550  0.9528 -0.2973 -1.9810
  313MOL0     H42231   1.959   8.395   1.740  1.7966  1.6362 -0.0471
  313MOL0     H42232   1.789   8.423   1.740 -0.4115 -2.2380 -2.1707
  313MOL0     H42233   2.027   8.580   1.636  1.0231  0.5698 -0.6505
  313MOL0     H42234   1.862   8.650   1.619 -0.4276 -0.2965  0.8364
  313MOL0     H42235   1.956   7.704   1.370 -0.6975  1.0906  0.1955
  313MOL0     H42236   1.870   7.441   1.397  0.6817  0.4517  1.2984
  313MOL0     H42237   1.709   7.131   1.313 -0.6871  2.7079 -0.3459
  313MOL0     H42238   1.681   6.901   1.256  1.3993  3.8306  0.2485
  313MOL0     H42239   1.666   6.093   2.321 -0.3631  2.7428 -0.1501
  313MOL0     H42240   1.843   5.932   2.309 -0.0688 -0.2724 -0.7249
  313MOL0     H42241   2.130   5.817   2.724 -1.4550  0.1256 -3.8653
  313MOL0     H42242   2.296   5.813   2.893 -0.9320  0.0688 -0.5610
  313MOL0     H42243   2.619   6.019   3.018 -0.4792  0.1229  0.7490
  313MOL0     H42244   2.637   6.069   2.853  1.3069  0.7647  1.4949
  313MOL0     H42245   2.799   5.897   2.809 -2.8293  0.7753 -2.2569
  313MOL0     H42246   2.777   5.823   2.964  2.8887  1.5795  0.5817
  313MOL0     H42247   2.850   6.021   3.079  0.2882  0.7547 -0.2301
  313MOL0     H42248   2.885   6.104   2.917 -0.8200  0.2683  0.1666
  313MOL0     H42249   3.013   5.851   3.034 -2.0413 -0.9267 -1.1472
  313MOL0     H42250   3.015   5.887   2.868 -2.6237  1.5467 -1.2309
  313MOL0     H42251   3.309   6.158   2.993 -0.9944  0.3971  1.3593
  313MOL0     H42252   2.581   5.967   2.619  0.9616 -0.4282  4.1345
  313MOL0     H42253   2.497   6.086   2.410  1.1252 -0.2550 -1.3333
  313MOL0     H42254   2.382   5.973   2.338 -1.8181 -1.1138  0.8111
  313MOL0     H42255   2.330   6.132   2.411  0.9557  0.8137 -0.4349
  314MOL0     O42256   8.482   3.197   5.044  0.1689 -1.1420  0.3221
  314MOL0     C42257   8.548   3.246   4.947 -0.1530  0.6628 -0.5987
  314MOL0     O42258   8.680   3.220   4.904 -0.6914 -0.0229 -0.0668
  314MOL0     C42259   8.754   3.132   4.985  0.4546 -0.2980 -0.6828
  314MOL0     C42260   8.810   3.176   5.101 -0.9255 -0.2212 -0.4201
  314MOL0     C42261   8.902   3.098   5.175 -0.2251  0.4284 -0.0686
  314MOL0     C42262   8.933   2.965   5.138  0.2181 -0.9407 -0.5149
  314MOL0     O42263   9.031   2.901   5.217  0.5658 -0.5163  0.1888
  314MOL0     C42264   9.062   2.760   5.193  0.1699  0.4950 -0.4498
  314MOL0     C42265   9.180   2.736   5.288 -0.0849  1.0345  0.0142
  314MOL0     C42266   9.138   2.709   5.432 -0.0864 -0.4539  0.5525
  314MOL0     C42267   9.090   2.561   5.445 -0.0821  0.0127 -0.9516
  314MOL0     C42268   9.052   2.529   5.587  0.6566 -0.2107  0.2003
  314MOL0     C42269   9.004   2.383   5.594 -0.3662 -0.7568 -0.0751
  314MOL0     C42270   8.958   2.346   5.732 -0.1727  0.1711 -0.3856
  314MOL0     C42271   8.819   2.406   5.772 -0.1734  0.2738 -1.0374
  314MOL0     N42272   8.799   2.367   5.911 -0.5429 -0.5343  0.0898
  314MOL0     C42273   8.745   2.247   5.946  0.4345  0.1733  0.3334
  314MOL0     C42274   8.770   2.257   6.079 -0.2386  0.0918 -0.6570
  314MOL0     C42275   8.713   2.167   6.180 -0.1376 -0.6311  0.8904
  314MOL0     C42276   8.761   2.026   6.168 -0.5888  0.6848 -0.3929
  314MOL0     C42277   8.915   2.030   6.205 -0.8082  1.0079 -0.3619
  314MOL0     C42278   8.990   1.901   6.154 -0.0079 -0.1596  0.4238
  314MOL0     O42279   8.916   1.784   6.180 -0.6505 -0.0316 -1.0386
  314MOL0     C42280   8.930   1.728   6.308 -0.1889  0.4861  0.6919
  314MOL0     C42281   8.993   1.784   6.418 -0.2788  0.3740  0.2851
  314MOL0     C42282   9.016   1.717   6.551  0.3694 -0.4994 -0.2002
  314MOL0     C42283   8.980   1.583   6.561  0.0270 -0.3819  0.3524
  314MOL0     C42284   9.018   1.501   6.682 -0.5913 -0.0823 -0.4115
  314MOL0     O42285   9.110   1.553   6.762 -0.6767 -0.1618 -0.6443
  314MOL0     C42286   9.107   1.502   6.895 -0.5698 -1.3370  1.5016
  314MOL0     C42287   9.006   1.521   6.985 -0.2025  0.3264  1.1246
  314MOL0     C42288   9.020   1.480   7.120 -0.3348 -0.1132 -0.3819
  314MOL0     C42289   9.125   1.397   7.157  0.3478  0.0920 -0.4376
  314MOL0     O42290   9.121   1.347   7.280 -0.1351 -1.0003 -0.5352
  314MOL0     C42291   9.236   1.289   7.342  0.4008  0.5745  1.0373
  314MOL0     C42292   9.186   1.259   7.482  0.0681 -0.4718 -0.2345
  314MOL0     C42293   9.179   1.385   7.578 -0.2376 -0.9654 -1.0291
  314MOL0     C42294   9.190   1.333   7.727  0.2111 -0.0137 -0.8680
  314MOL0     C42295   9.189   1.445   7.827  0.8663  0.4054 -1.4080
  314MOL0     C42296   9.165   1.396   7.980  0.1242 -0.6807 -0.1687
  314MOL0     C42297   9.057   1.476   8.064  0.1290 -0.1149 -0.1946
  314MOL0     C42298   9.058   1.444   8.210 -0.2318  0.2220 -0.2273
  314MOL0    Cl42299   8.934   1.322   8.237  0.5018 -0.0761  0.9970
  314MOL0     C42300   9.227   1.378   7.070  0.5354  0.0326 -0.0899
  314MOL0     C42301   9.227   1.441   6.943  0.7061 -0.0406  0.6626
  314MOL0     O42302   8.966   1.393   6.701  0.0015  0.0809 -0.4822
  314MOL0     C42303   8.915   1.529   6.448 -0.9587 -0.6965 -0.3988
  314MOL0     C42304   8.892   1.594   6.323  0.8084 -0.6787  0.5386
  314MOL0     N42305   8.842   2.363   6.121 -0.2953  0.5155  1.2619
  314MOL0     N42306   8.862   2.432   6.013 -0.0292 -0.7112 -1.1578
  314MOL0     C42307   8.865   2.913   5.028 -0.6541  0.3197  0.1069
  314MOL0     C42308   8.766   2.993   4.955 -0.0885 -0.3796  0.4537
  314MOL0     C42309   8.476   3.314   4.851 -0.3756 -0.6538  0.3997
  314MOL0     C42310   8.503   3.453   4.821 -0.4172  0.3879 -0.8868
  314MOL0     C42311   8.413   3.516   4.728 -0.2701  0.4577 -0.7036
  314MOL0     C42312   8.318   3.452   4.650  0.5301 -0.0571 -0.0008
  314MOL0     O42313   8.250   3.527   4.550  0.0332 -0.8172 -0.7738
  314MOL0     C42314   8.158   3.476   4.453  0.1474 -0.6696 -0.1652
  314MOL0     C42315   8.145   3.565   4.330  0.4681  0.0436 -0.7028
  314MOL0     C42316   8.282   3.588   4.262  0.1585 -0.1285  1.2162
  314MOL0     C42317   8.352   3.721   4.295  0.2944  0.6554 -0.8799
  314MOL0     C42318   8.270   3.825   4.232  0.5432 -0.2479  0.5241
  314MOL0     C42319   8.222   3.907   4.155 -0.8162  0.8258  0.0933
  314MOL0     C42320   8.307   3.318   4.670  0.1667  0.0863  0.1295
  314MOL0     C42321   8.381   3.251   4.770  0.2620  0.6303 -0.1603
  314MOL0     C42322   8.365   3.098   4.782 -0.3649 -0.7005  0.0826
  314MOL0     H42323   8.775   3.274   5.135 -1.9987 -1.7991  3.6162
  314MOL0     H42324   8.950   3.141   5.262  3.6061 -0.1106 -1.7019
  314MOL0     H42325   8.984   2.693   5.230  1.0021 -0.1239  0.2201
  314MOL0     H42326   9.096   2.747   5.089 -1.4275  0.7608 -1.0316
  314MOL0     H42327   9.249   2.820   5.283 -0.8131  1.7192  1.0069
  314MOL0     H42328   9.233   2.648   5.250 -2.2306 -1.5099  2.4072
  314MOL0     H42329   9.058   2.777   5.463  1.5582  1.6456  0.4536
  314MOL0     H42330   9.225   2.722   5.497  1.9074 -0.9061 -1.8715
  314MOL0     H42331   8.996   2.550   5.391 -0.2422 -0.8866 -0.5072
  314MOL0     H42332   9.164   2.492   5.403 -1.0662 -0.3577 -2.1395
  314MOL0     H42333   9.133   2.567   5.649  1.8050 -2.6286  0.3033
  314MOL0     H42334   8.965   2.588   5.618 -1.4845 -2.9434 -0.1852
  314MOL0     H42335   8.915   2.363   5.533 -1.4414  1.1850  0.7626
  314MOL0     H42336   9.091   2.328   5.560  0.7427  1.6301 -1.3225
  314MOL0     H42337   9.037   2.363   5.806 -2.0370 -2.3510  2.4613
  314MOL0     H42338   8.960   2.237   5.740  0.9714  0.2034 -0.0046
  314MOL0     H42339   8.810   2.513   5.753 -1.4450 -0.1896 -3.4871
  314MOL0     H42340   8.737   2.365   5.712  0.6251 -0.1298 -1.8949
  314MOL0     H42341   8.687   2.171   5.896  2.8327 -2.4713  1.2790
  314MOL0     H42342   8.735   2.207   6.279  3.2638 -1.3171  0.5674
  314MOL0     H42343   8.605   2.170   6.164  0.1725 -2.6245 -2.6780
  314MOL0     H42344   8.711   1.953   6.232  1.5500 -1.2447 -0.7969
  314MOL0     H42345   8.748   1.996   6.064  1.0250 -1.2673 -0.0747
  314MOL0     H42346   8.925   2.039   6.313  0.1317  0.7530 -0.4229
  314MOL0     H42347   8.972   2.110   6.158 -0.4257  1.1101  0.2682
  314MOL0     H42348   9.092   1.900   6.195  0.9039 -2.3894 -1.6867
  314MOL0     H42349   8.992   1.911   6.045  0.3328 -2.7819  0.1297
  314MOL0     H42350   9.014   1.891   6.423  0.5350  0.4716 -2.8560
  314MOL0     H42351   9.064   1.770   6.633  2.8850 -1.7059 -0.7895
  314MOL0     H42352   8.917   1.575   6.956 -1.0416 -1.5757 -0.0666
  314MOL0     H42353   8.935   1.509   7.180 -0.6179  2.3044 -1.8171
  314MOL0     H42354   9.257   1.192   7.296 -0.1450 -0.1581  2.2869
  314MOL0     H42355   9.318   1.361   7.338 -1.2776  2.5337  0.4231
  314MOL0     H42356   9.088   1.211   7.483 -0.5254  0.6926  1.4780
  314MOL0     H42357   9.256   1.189   7.528  1.3289  2.0727  2.0090
  314MOL0     H42358   9.258   1.456   7.549  1.3262 -2.8143 -1.4934
  314MOL0     H42359   9.088   1.445   7.569 -0.0841 -0.8981 -2.3987
  314MOL0     H42360   9.277   1.269   7.747  0.2858  0.5900  0.9168
  314MOL0     H42361   9.101   1.275   7.753 -0.0393  0.7329  0.0066
  314MOL0     H42362   9.109   1.513   7.795  1.4429  0.6837 -2.2891
  314MOL0     H42363   9.283   1.499   7.819 -0.3262  2.9933  0.6770
  314MOL0     H42364   9.132   1.292   7.986 -0.3622 -0.4775  0.9740
  314MOL0     H42365   9.265   1.403   8.026 -0.9066 -0.5295  2.1934
  314MOL0     H42366   8.962   1.459   8.013 -1.9859  2.9450  2.3618
  314MOL0     H42367   9.090   1.580   8.059 -2.3558  0.9282  2.3233
  314MOL0     H42368   9.155   1.413   8.251 -0.6042  0.5620  0.9677
  314MOL0     H42369   9.029   1.531   8.271  0.7925  2.8380 -3.2273
  314MOL0     H42370   9.316   1.320   7.096  2.8875  1.6928 -3.6046
  314MOL0     H42371   9.314   1.429   6.879 -1.3996  2.6889 -3.1393
  314MOL0     H42372   8.891   1.423   6.446  1.0109 -1.1712 -1.1998
  314MOL0     H42373   8.847   1.533   6.246 -0.8062 -2.7046  2.9115
  314MOL0     H42374   8.892   2.811   5.002  3.0181  0.5774  2.3272
  314MOL0     H42375   8.703   2.950   4.877 -2.0369 -2.0144  2.7864
  314MOL0     H42376   8.583   3.510   4.867 -1.1683  1.0787 -0.3960
  314MOL0     H42377   8.432   3.620   4.702 -3.2260  1.3475  0.2769
  314MOL0     H42378   8.056   3.465   4.491 -0.2543  1.2010 -0.6391
  314MOL0     H42379   8.182   3.379   4.408 -2.1967 -0.4961 -1.9758
  314MOL0     H42380   8.098   3.655   4.370  0.9803  0.1369 -0.2935
  314MOL0     H42381   8.078   3.517   4.259 -1.1087 -0.9573  1.3453
  314MOL0     H42382   8.277   3.580   4.153  1.0560 -1.5587  1.2469
  314MOL0     H42383   8.352   3.510   4.293  3.9510  2.0966 -0.9099
  314MOL0     H42384   8.340   3.731   4.403 -3.4676  2.2493 -1.2982
  314MOL0     H42385   8.454   3.728   4.254  0.1106  0.6184 -1.3532
  314MOL0     H42386   8.182   3.981   4.088 -4.1974 -0.6446  0.2859
  314MOL0     H42387   8.224   3.263   4.625  0.7741 -0.6102 -0.1634
  314MOL0     H42388   8.418   3.043   4.861  1.9289  1.2960  0.0442
  314MOL0     H42389   8.259   3.071   4.784 -1.1720  2.2120  0.1003
  314MOL0     H42390   8.396   3.059   4.685  2.3584  2.6054 -0.5789
  315MOL0     O42391   6.198   2.728  10.258  0.1094 -1.1237 -1.0907
  315MOL0     C42392   6.241   2.841  10.231 -0.0014 -0.9275 -0.6455
  315MOL0     O42393   6.300   2.927  10.327 -0.2571  0.1155  0.4217
  315MOL0     C42394   6.346   2.878  10.445  0.3546  0.2520 -0.2939
  315MOL0     C42395   6.398   2.747  10.469 -0.1537 -0.0662 -0.2090
  315MOL0     C42396   6.430   2.702  10.591  0.0265  0.1659 -0.5046
  315MOL0     C42397   6.420   2.784  10.707  0.0406  0.4544  0.0885
  315MOL0     O42398   6.457   2.738  10.831 -0.5699 -0.0624 -0.9758
  315MOL0     C42399   6.453   2.817  10.955 -0.4963  0.0520  0.5814
  315MOL0     C42400   6.428   2.733  11.071 -0.7688  1.2481  0.7345
  315MOL0     C42401   6.557   2.665  11.136 -0.5876 -0.8321 -0.8501
  315MOL0     C42402   6.528   2.516  11.189 -0.4763  0.3255 -1.0501
  315MOL0     C42403   6.650   2.462  11.251 -0.1276 -0.2074 -0.9851
  315MOL0     C42404   6.716   2.525  11.366  0.0339 -0.2826  0.2266
  315MOL0     C42405   6.831   2.436  11.427  0.7139 -0.8259 -0.1446
  315MOL0     C42406   6.960   2.511  11.467 -0.3737 -0.6166  0.4914
  315MOL0     N42407   7.061   2.438  11.557 -0.9878  0.3927  0.6419
  315MOL0     C42408   7.028   2.363  11.673 -0.1182  0.0367 -0.0258
  315MOL0     C42409   7.160   2.360  11.736 -0.0042 -0.6173  0.4830
  315MOL0     C42410   7.169   2.298  11.871  0.6380  0.0236 -0.2569
  315MOL0     C42411   7.248   2.392  11.960 -0.1997 -0.1627 -0.4265
  315MOL0     C42412   7.171   2.450  12.074  0.6409 -0.2084 -0.2505
  315MOL0     C42413   7.044   2.528  12.026  0.1035 -0.9127  0.4831
  315MOL0     O42414   7.078   2.655  11.959  0.4045  0.5283  0.5148
  315MOL0     C42415   6.984   2.720  11.877  0.7733  0.2194  0.0349
  315MOL0     C42416   6.851   2.674  11.859  1.0007  0.2588 -0.5869
  315MOL0     C42417   6.763   2.751  11.779  0.7825 -0.7558 -0.0188
  315MOL0     C42418   6.812   2.867  11.715  0.0074  0.7258 -0.0833
  315MOL0     C42419   6.719   2.932  11.619  0.5144  0.5848 -0.0196
  315MOL0     O42420   6.635   2.864  11.527 -0.2452  0.0919  0.0139
  315MOL0     C42421   6.632   2.923  11.408 -0.1998 -0.2294 -0.8000
  315MOL0     C42422   6.752   2.927  11.336  1.4142  0.0061 -0.7716
  315MOL0     C42423   6.752   2.979  11.213  0.7904  1.1150  0.9692
  315MOL0     C42424   6.648   3.042  11.145 -1.4035  0.4515 -0.4455
  315MOL0     O42425   6.665   3.102  11.020 -0.2715 -0.2082 -0.1007
  315MOL0     C42426   6.564   3.197  10.979  0.0552  0.4680  0.2833
  315MOL0     C42427   6.638   3.278  10.864 -1.4869 -0.9742  0.6862
  315MOL0     C42428   6.637   3.200  10.743  0.2944  0.2956  0.0439
  315MOL0     C42429   6.714   3.277  10.629 -0.0495  1.0317 -1.3061
  315MOL0     C42430   6.696   3.202  10.491  0.0523  0.3414 -0.1781
  315MOL0     C42431   6.763   3.057  10.480 -0.2509  0.2447  0.2396
  315MOL0     C42432   6.707   2.988  10.356  0.6268 -0.2609 -0.2951
  315MOL0     C42433   6.743   2.839  10.346  0.0900 -0.1253  0.0169
  315MOL0    Cl42434   6.924   2.835  10.352 -0.3729 -0.0798 -0.0134
  315MOL0     C42435   6.525   3.047  11.223 -0.5969  1.0924 -1.0636
  315MOL0     C42436   6.512   2.977  11.350  0.8824  0.6402  0.4180
  315MOL0     O42437   6.724   3.054  11.627  0.0087  0.3795  0.7916
  315MOL0     C42438   6.947   2.910  11.734  0.1892  0.1100 -0.0232
  315MOL0     C42439   7.033   2.832  11.817  0.1553  0.1278 -0.5345
  315MOL0     N42440   7.256   2.396  11.649 -0.2278 -0.5138  0.5799
  315MOL0     N42441   7.195   2.456  11.550  0.0502  0.3193 -0.0173
  315MOL0     C42442   6.383   2.919  10.686 -1.2257  0.5119 -0.0000
  315MOL0     C42443   6.343   2.965  10.559  0.7157  0.2145  0.3051
  315MOL0     C42444   6.200   2.916  10.100 -0.9635 -0.5797 -0.8282
  315MOL0     C42445   6.251   3.046  10.082  0.6095 -0.6772 -0.4401
  315MOL0     C42446   6.211   3.123   9.973 -0.4177 -0.2851  1.3360
  315MOL0     C42447   6.111   3.075   9.896  0.1746  0.2810 -0.5039
  315MOL0     O42448   6.075   3.161   9.793 -0.7325  0.2779  0.6439
  315MOL0     C42449   6.008   3.122   9.679  0.2615  0.9542  0.2654
  315MOL0     C42450   6.006   3.218   9.561 -0.0620 -1.1002 -1.0191
  315MOL0     C42451   5.936   3.155   9.448  0.0925  0.1756 -0.0278
  315MOL0     C42452   5.791   3.134   9.470  0.2568 -0.2370  0.3266
  315MOL0     C42453   5.729   3.124   9.335  0.9384  0.2590 -0.2204
  315MOL0     C42454   5.665   3.119   9.222  0.3689 -0.5482 -0.5429
  315MOL0     C42455   6.058   2.946   9.907  0.7309  0.4748 -0.1293
  315MOL0     C42456   6.104   2.868  10.004 -0.3809  0.4389 -0.9359
  315MOL0     C42457   6.046   2.725  10.013  0.3004  0.8384  0.8163
  315MOL0     H42458   6.394   2.678  10.386 -1.5438 -1.6074  1.0682
  315MOL0     H42459   6.458   2.597  10.594  0.9625  0.4203  0.4787
  315MOL0     H42460   6.549   2.868  10.967 -2.3939  4.4874 -0.9213
  315MOL0     H42461   6.375   2.893  10.959  1.4128  2.1083  0.5440
  315MOL0     H42462   6.368   2.653  11.025  3.5877 -3.2715  2.0197
  315MOL0     H42463   6.380   2.780  11.157 -0.2647 -2.5776  3.3921
  315MOL0     H42464   6.585   2.734  11.216  1.9613 -3.5706  0.8383
  315MOL0     H42465   6.643   2.669  11.069 -0.4012 -2.8094 -0.7822
  315MOL0     H42466   6.444   2.533  11.257 -1.5177  0.9777 -2.4508
  315MOL0     H42467   6.495   2.441  11.117 -0.3580 -3.6146  2.6155
  315MOL0     H42468   6.633   2.358  11.277 -1.0415 -0.4841 -2.5663
  315MOL0     H42469   6.729   2.467  11.175 -0.3217 -0.3766 -1.1965
  315MOL0     H42470   6.761   2.618  11.328 -4.9757  1.3123 -2.6561
  315MOL0     H42471   6.646   2.560  11.443  0.8749 -2.2241  1.9733
  315MOL0     H42472   6.855   2.357  11.355 -1.6520 -1.6959 -0.0820
  315MOL0     H42473   6.787   2.390  11.516  0.8689  2.4338  1.7898
  315MOL0     H42474   7.013   2.535  11.375 -2.5298 -3.1815 -1.5892
  315MOL0     H42475   6.933   2.604  11.519 -3.5488 -1.1761  0.0127
  315MOL0     H42476   6.937   2.326  11.718 -0.2222  0.0495 -0.2250
  315MOL0     H42477   7.069   2.272  11.909  0.6494  0.1039 -0.1749
  315MOL0     H42478   7.221   2.202  11.872  0.2354 -0.2103  1.9492
  315MOL0     H42479   7.335   2.340  11.999  1.7329  0.9118 -3.0058
  315MOL0     H42480   7.282   2.483  11.910 -1.0137  1.1195  1.2520
  315MOL0     H42481   7.245   2.520  12.113 -0.7670  1.2851 -0.1429
  315MOL0     H42482   7.148   2.380  12.154 -0.7584 -1.9053 -2.0272
  315MOL0     H42483   6.976   2.548  12.110  2.0825  0.8677  1.7662
  315MOL0     H42484   6.984   2.462  11.963 -1.1902 -1.0855  1.8333
  315MOL0     H42485   6.813   2.592  11.918 -0.1539  1.0504 -0.2049
  315MOL0     H42486   6.658   2.731  11.766 -0.3356  1.7115  3.4681
  315MOL0     H42487   6.847   2.894  11.376  1.4440  1.1652  0.1803
  315MOL0     H42488   6.842   2.991  11.153 -0.2593 -1.1587 -1.1916
  315MOL0     H42489   6.473   3.147  10.947 -1.1483  0.7208  3.0815
  315MOL0     H42490   6.549   3.270  11.059  2.1015  0.9870  0.2731
  315MOL0     H42491   6.590   3.374  10.845 -2.1459 -1.4288 -0.0090
  315MOL0     H42492   6.739   3.312  10.889 -2.8383  3.0614  1.3704
  315MOL0     H42493   6.679   3.101  10.761 -1.9697 -0.8216 -0.4688
  315MOL0     H42494   6.533   3.189  10.712  0.0747 -0.4712  1.0056
  315MOL0     H42495   6.819   3.297  10.648  0.9408  0.4787 -5.2735
  315MOL0     H42496   6.672   3.376  10.610  2.2455  1.8154 -2.6369
  315MOL0     H42497   6.747   3.265  10.418 -0.5741  0.5634 -0.4306
  315MOL0     H42498   6.592   3.200  10.456  0.4139 -0.0388 -1.2695
  315MOL0     H42499   6.872   3.060  10.477 -0.1438 -1.0534  1.4688
  315MOL0     H42500   6.753   2.998  10.571  1.9023 -1.0090 -0.2717
  315MOL0     H42501   6.748   3.047  10.273 -0.3811 -0.2568 -0.7975
  315MOL0     H42502   6.600   2.999  10.373  0.6580 -2.4897  1.8658
  315MOL0     H42503   6.700   2.797  10.437  1.1965  0.1332  0.6802
  315MOL0     H42504   6.702   2.794  10.255 -3.4801  0.0079  1.3800
  315MOL0     H42505   6.436   3.099  11.191 -2.2211  0.0636  1.4534
  315MOL0     H42506   6.415   2.964  11.399  0.8128  0.6526  0.2842
  315MOL0     H42507   6.992   2.990  11.676  2.7474  1.7665  3.8215
  315MOL0     H42508   7.134   2.852  11.851  0.6063 -3.6611  0.8740
  315MOL0     H42509   6.372   2.994  10.764 -0.2907 -0.4338  1.0872
  315MOL0     H42510   6.312   3.069  10.556 -1.1888 -0.2656  1.3952
  315MOL0     H42511   6.332   3.088  10.140  0.0087  0.9191 -0.6933
  315MOL0     H42512   6.255   3.214   9.933 -3.0148 -0.0481 -1.3194
  315MOL0     H42513   5.901   3.107   9.700  0.3960  0.7486  0.8012
  315MOL0     H42514   6.050   3.026   9.647 -2.8056 -0.9887  1.5271
  315MOL0     H42515   6.110   3.233   9.533  0.2092  2.5163  1.2794
  315MOL0     H42516   5.961   3.315   9.586 -0.9968 -1.5255 -1.0014
  315MOL0     H42517   5.979   3.059   9.420 -1.5572 -0.1731 -1.5994
  315MOL0     H42518   5.942   3.220   9.360  2.2571 -3.8775 -3.2235
  315MOL0     H42519   5.766   3.043   9.526 -0.9056 -1.8839 -2.6461
  315MOL0     H42520   5.742   3.218   9.520 -3.7416 -1.3331 -1.3285
  315MOL0     H42521   5.599   3.107   9.140  1.0154  0.3808 -1.2243
  315MOL0     H42522   5.977   2.917   9.841  0.3026  1.1425  0.0919
  315MOL0     H42523   5.980   2.702   9.929  1.7570  0.6145 -0.3318
  315MOL0     H42524   6.130   2.654  10.014 -2.0633 -2.2758 -1.7196
  315MOL0     H42525   5.983   2.705  10.100 -1.0724 -2.1075 -0.7148
  316MOL0     O42526   9.750   5.956   7.075  0.0430 -0.0967 -0.1519
  316MOL0     C42527   9.697   6.022   7.165 -0.7875 -0.0860 -0.0661
  316MOL0     O42528   9.743   6.032   7.294 -0.4802  0.1121 -0.2065
  316MOL0     C42529   9.812   5.923   7.336  0.8079 -0.2973 -0.9821
  316MOL0     C42530   9.751   5.799   7.353 -0.0215  0.2282 -1.2337
  316MOL0     C42531   9.824   5.693   7.409 -0.9080 -0.0214 -0.2607
  316MOL0     C42532   9.956   5.707   7.439 -1.4060  0.8071  0.3133
  316MOL0     O42533  10.030   5.604   7.494  0.2274 -0.0068 -0.5986
  316MOL0     C42534  10.071   5.518   7.382  0.8702 -0.6556  0.1853
  316MOL0     C42535  10.153   5.407   7.441  0.2975 -0.6274  0.2663
  316MOL0     C42536  10.295   5.442   7.465 -0.6994 -0.8491 -0.0063
  316MOL0     C42537  10.375   5.334   7.555  0.3185 -1.3404 -0.0373
  316MOL0     C42538  10.528   5.378   7.566  0.2759 -0.7760  0.1241
  316MOL0     C42539  10.610   5.281   7.648  0.2610  0.7348  0.0732
  316MOL0     C42540  10.758   5.319   7.666  1.4978  0.6612  0.8999
  316MOL0     C42541  10.838   5.201   7.727 -0.8446 -0.4164  0.5960
  316MOL0     N42542  10.981   5.230   7.745 -0.4451  0.1195  0.1939
  316MOL0     C42543  11.046   5.340   7.786 -0.1876  0.2267  0.0481
  316MOL0     C42544  11.176   5.317   7.767 -0.1674  0.9421  0.2364
  316MOL0     C42545  11.281   5.421   7.784 -0.1155 -0.3261  0.3063
  316MOL0     C42546  11.242   5.525   7.878  0.4095 -0.0627 -0.0716
  316MOL0     C42547  11.230   5.467   8.021  0.6952  0.4506 -0.2464
  316MOL0     C42548  11.131   5.541   8.116  0.2961  0.5237  0.4286
  316MOL0     O42549  11.174   5.666   8.168 -0.3306  0.0606 -0.2415
  316MOL0     C42550  11.075   5.743   8.226 -0.5459 -0.3824  0.3794
  316MOL0     C42551  11.039   5.740   8.361  0.3233  0.6588  0.2570
  316MOL0     C42552  10.931   5.818   8.413 -0.3432  0.2524 -0.8587
  316MOL0     C42553  10.877   5.911   8.333  0.2909  0.1066  0.5521
  316MOL0     C42554  10.762   5.990   8.379 -0.0354  0.5366 -0.4393
  316MOL0     O42555  10.745   6.005   8.517  0.7491  0.1940 -0.0027
  316MOL0     C42556  10.627   6.067   8.569  0.9302  0.7240  0.8399
  316MOL0     C42557  10.581   6.015   8.689  0.4242  0.1293  0.1757
  316MOL0     C42558  10.461   6.068   8.742 -0.0210 -0.5661  0.1281
  316MOL0     C42559  10.405   6.187   8.704 -0.3694 -0.3790  0.4329
  316MOL0     O42560  10.291   6.244   8.765 -0.5524  0.1832 -0.6602
  316MOL0     C42561  10.332   6.343   8.870  0.7417 -0.0377  0.4700
  316MOL0     C42562  10.328   6.482   8.822  0.0643 -0.5901 -0.1650
  316MOL0     C42563  10.179   6.526   8.789  0.9392 -0.3140  0.3491
  316MOL0     C42564  10.097   6.564   8.915  0.3021 -0.5573  0.8745
  316MOL0     C42565   9.979   6.664   8.883  0.0706 -0.1070  0.2572
  316MOL0     C42566  10.013   6.799   8.900  0.0162 -1.4780  0.6051
  316MOL0     C42567   9.914   6.906   8.849  0.1187  0.9331  1.3284
  316MOL0     C42568   9.959   7.056   8.844 -0.0512  0.2542  0.1487
  316MOL0    Cl42569   9.938   7.116   9.009 -0.6248  0.3967  0.0935
  316MOL0     C42570  10.453   6.242   8.586  0.2423 -0.2151 -0.2361
  316MOL0     C42571  10.563   6.172   8.507  0.2168 -0.7646  0.0392
  316MOL0     O42572  10.680   6.029   8.295 -0.4024 -0.1783 -0.1751
  316MOL0     C42573  10.914   5.923   8.196  0.0635  0.1865  0.0182
  316MOL0     C42574  11.008   5.836   8.146 -0.4961  0.1786 -0.3830
  316MOL0     N42575  11.189   5.191   7.709 -0.1817 -0.5981  0.1500
  316MOL0     N42576  11.072   5.142   7.701  0.6533 -0.1419  0.5635
  316MOL0     C42577  10.022   5.828   7.411  0.6352 -0.1957 -0.9217
  316MOL0     C42578   9.944   5.935   7.362  0.4926 -0.5744  0.3313
  316MOL0     C42579   9.582   6.113   7.135 -0.0730  0.0223 -0.1608
  316MOL0     C42580   9.523   6.203   7.230  0.1712  0.4792 -0.6876
  316MOL0     C42581   9.410   6.282   7.207 -1.1179 -0.1621 -0.1597
  316MOL0     C42582   9.351   6.268   7.084 -0.6174  0.6566 -0.1568
  316MOL0     O42583   9.227   6.321   7.071 -0.2165 -0.2932  0.0899
  316MOL0     C42584   9.160   6.323   6.946 -0.1698 -0.3914 -0.0806
  316MOL0     C42585   9.060   6.207   6.920 -0.9153 -0.3731 -0.3713
  316MOL0     C42586   8.954   6.194   7.034 -0.7495 -0.5214  0.0486
  316MOL0     C42587   8.823   6.267   7.000 -0.1283 -0.7655  0.4579
  316MOL0     C42588   8.761   6.336   7.119  0.6274 -0.0185 -0.0650
  316MOL0     C42589   8.723   6.390   7.224  0.2293  0.7608 -0.0673
  316MOL0     C42590   9.405   6.185   6.983 -0.4617  0.0344 -1.0938
  316MOL0     C42591   9.514   6.098   7.009 -0.3103 -0.6322 -0.2669
  316MOL0     C42592   9.549   6.016   6.889  0.0824  0.0610  0.6914
  316MOL0     H42593   9.644   5.785   7.341 -1.4119  3.4922  4.1024
  316MOL0     H42594   9.759   5.608   7.426 -0.0469 -1.1472 -2.2979
  316MOL0     H42595   9.986   5.468   7.332 -0.1031  0.8207  0.2992
  316MOL0     H42596  10.134   5.576   7.315  1.7014  0.6092  1.9966
  316MOL0     H42597  10.152   5.326   7.368  1.9669 -1.3523  0.9940
  316MOL0     H42598  10.117   5.362   7.534  1.1508 -5.1201 -1.3726
  316MOL0     H42599  10.301   5.540   7.512  0.5179 -1.7943  1.9313
  316MOL0     H42600  10.339   5.451   7.365  0.8899 -2.0881  0.5420
  316MOL0     H42601  10.345   5.351   7.659  0.1916 -1.3582 -0.0709
  316MOL0     H42602  10.356   5.233   7.516  0.2161 -0.3466 -2.8214
  316MOL0     H42603  10.567   5.386   7.464  2.1744  0.2962  0.8849
  316MOL0     H42604  10.540   5.478   7.609  1.0004 -1.1955  0.9236
  316MOL0     H42605  10.560   5.283   7.745  0.4992 -1.8816  0.3448
  316MOL0     H42606  10.603   5.182   7.600  1.5649  0.5652  0.1959
  316MOL0     H42607  10.751   5.405   7.735  3.9419  3.2088 -1.7793
  316MOL0     H42608  10.799   5.346   7.569 -2.1375 -0.5345 -1.1610
  316MOL0     H42609  10.801   5.169   7.825  0.0490  0.7687  1.3475
  316MOL0     H42610  10.830   5.106   7.673 -1.9011 -0.2360  0.4210
  316MOL0     H42611  11.005   5.440   7.800 -2.0948 -0.0857 -2.6480
  316MOL0     H42612  11.372   5.369   7.816  0.1407 -2.4271 -3.2870
  316MOL0     H42613  11.298   5.464   7.685 -0.8485 -1.9740 -0.5753
  316MOL0     H42614  11.333   5.585   7.881  1.6950 -1.9515  0.5692
  316MOL0     H42615  11.156   5.584   7.846  0.2460  0.3880  1.1211
  316MOL0     H42616  11.329   5.479   8.065  0.4205  0.2855  0.4328
  316MOL0     H42617  11.203   5.361   8.022 -2.9239  1.1465  3.1619
  316MOL0     H42618  11.113   5.471   8.198 -2.1026  1.7110  1.0215
  316MOL0     H42619  11.034   5.532   8.068  0.7931 -1.8396 -0.2500
  316MOL0     H42620  11.075   5.659   8.423 -1.6461  1.1327  2.1340
  316MOL0     H42621  10.889   5.788   8.509  0.4127 -0.2763 -0.6821
  316MOL0     H42622  10.619   5.924   8.733 -1.6023 -1.2374 -0.7419
  316MOL0     H42623  10.402   6.029   8.824 -1.5182 -0.1067 -0.7014
  316MOL0     H42624  10.277   6.316   8.960  2.5811 -2.2834  1.0282
  316MOL0     H42625  10.435   6.325   8.903  0.4924 -2.2138  0.2386
  316MOL0     H42626  10.376   6.543   8.899  4.5934 -0.8598 -2.4748
  316MOL0     H42627  10.391   6.502   8.735 -1.9367 -0.2778 -1.6130
  316MOL0     H42628  10.174   6.600   8.708  0.6561  0.1093  0.7504
  316MOL0     H42629  10.128   6.436   8.754 -0.4904  1.0029 -1.0804
  316MOL0     H42630  10.170   6.602   8.987  2.8125 -2.9080 -0.2798
  316MOL0     H42631  10.059   6.470   8.956 -0.7712 -0.4487  0.1758
  316MOL0     H42632   9.891   6.644   8.946  0.8944 -1.7062  0.9580
  316MOL0     H42633   9.941   6.646   8.782 -0.9328  0.1614  0.5747
  316MOL0     H42634  10.030   6.806   9.008  2.0268  0.8141  0.2427
  316MOL0     H42635  10.111   6.811   8.852  1.1560 -1.2071  2.8744
  316MOL0     H42636   9.812   6.904   8.887 -0.3220  1.8971  0.2627
  316MOL0     H42637   9.912   6.880   8.743  0.2038 -1.4639  1.8617
  316MOL0     H42638  10.066   7.057   8.826  0.4993  0.8425  2.9757
  316MOL0     H42639   9.901   7.111   8.769  1.1115  0.2729 -0.7565
  316MOL0     H42640  10.410   6.332   8.544  0.7931  0.8992  1.5153
  316MOL0     H42641  10.600   6.220   8.417 -0.4938  3.2183  1.6513
  316MOL0     H42642  10.857   5.982   8.124 -0.6867  0.1633  0.5771
  316MOL0     H42643  11.044   5.834   8.043 -1.6362 -1.9673 -0.7859
  316MOL0     H42644  10.130   5.827   7.429  0.3553 -1.8271  0.9958
  316MOL0     H42645   9.997   6.029   7.350  2.1719 -1.4373  0.6928
  316MOL0     H42646   9.566   6.203   7.329 -2.3716 -1.1638  0.5309
  316MOL0     H42647   9.360   6.343   7.282 -0.5478  1.4278 -1.0264
  316MOL0     H42648   9.223   6.335   6.857  2.6612 -1.5801  1.6448
  316MOL0     H42649   9.089   6.405   6.964 -2.2846 -2.0088 -0.5376
  316MOL0     H42650   9.117   6.114   6.914 -1.5752 -0.7561 -0.8270
  316MOL0     H42651   9.014   6.227   6.822  1.7165  1.6294 -1.3187
  316MOL0     H42652   8.992   6.250   7.121 -1.4445 -2.7095  1.8635
  316MOL0     H42653   8.929   6.092   7.065 -0.4454 -0.8796 -0.8687
  316MOL0     H42654   8.844   6.344   6.925  1.1962 -0.5741  1.0148
  316MOL0     H42655   8.752   6.199   6.951 -1.2361  0.8330 -0.2595
  316MOL0     H42656   8.706   6.446   7.314 -2.1791 -0.9214  0.6216
  316MOL0     H42657   9.353   6.172   6.888 -0.8580 -0.8167 -0.7609
  316MOL0     H42658   9.517   5.912   6.894 -0.4338  0.1634 -0.1622
  316MOL0     H42659   9.500   6.047   6.796  1.7144 -0.6118 -0.4462
  316MOL0     H42660   9.655   6.033   6.870 -0.1162 -0.0262 -0.5818
  317MOL0     O42661   8.624   2.506   6.832  0.0810  0.3608 -0.6498
  317MOL0     C42662   8.738   2.543   6.851 -0.3673  0.3625  0.6241
  317MOL0     O42663   8.791   2.567   6.980 -0.0986 -0.1447  0.0206
  317MOL0     C42664   8.716   2.544   7.097 -0.2459 -0.2569 -0.0154
  317MOL0     C42665   8.589   2.476   7.114 -0.1196 -0.6705  0.4550
  317MOL0     C42666   8.540   2.449   7.242 -0.5343  1.0314  0.5241
  317MOL0     C42667   8.607   2.500   7.354  0.8177  1.1375  0.6227
  317MOL0     O42668   8.540   2.475   7.473  0.0838 -0.0573 -0.6925
  317MOL0     C42669   8.617   2.520   7.591 -0.1564 -0.3065 -0.1772
  317MOL0     C42670   8.578   2.664   7.613  1.1517  0.1934 -1.0331
  317MOL0     C42671   8.603   2.734   7.748 -0.6277 -0.4622  0.1104
  317MOL0     C42672   8.573   2.890   7.740  0.4874 -0.5165 -0.4280
  317MOL0     C42673   8.601   2.974   7.867 -0.4249 -0.1156  0.4675
  317MOL0     C42674   8.510   2.936   7.982 -0.6127  0.3617 -0.4588
  317MOL0     C42675   8.445   3.068   8.037 -0.4377 -0.2825  0.6197
  317MOL0     C42676   8.551   3.169   8.089 -0.2471 -0.7219  0.6042
  317MOL0     N42677   8.513   3.312   8.077 -0.2496 -0.8559 -0.1462
  317MOL0     C42678   8.394   3.365   8.118 -0.4282 -0.3628  0.3554
  317MOL0     C42679   8.396   3.502   8.085 -0.6447  0.0483  0.6257
  317MOL0     C42680   8.292   3.611   8.110  0.4287  0.3052 -0.2357
  317MOL0     C42681   8.252   3.604   8.254  0.1053 -0.7615 -0.6692
  317MOL0     C42682   8.158   3.718   8.315  0.5926  1.2224  0.1253
  317MOL0     C42683   8.036   3.760   8.234  0.5444  0.0273 -0.2251
  317MOL0     O42684   7.977   3.870   8.311 -1.1291  0.1057  1.1113
  317MOL0     C42685   8.030   3.998   8.285 -0.8219  0.8653  0.9250
  317MOL0     C42686   8.129   4.031   8.186 -0.4829  0.3033 -0.3304
  317MOL0     C42687   8.165   4.166   8.164 -0.3425 -0.5431  0.2316
  317MOL0     C42688   8.116   4.270   8.235  0.4613 -0.1931  0.5299
  317MOL0     C42689   8.154   4.417   8.207  0.1748 -0.0515 -0.7215
  317MOL0     O42690   8.108   4.506   8.301  0.2368 -0.2012 -0.3923
  317MOL0     C42691   8.149   4.635   8.283  0.8761 -0.3501 -0.7224
  317MOL0     C42692   8.083   4.725   8.199 -0.1472 -0.0158  0.0272
  317MOL0     C42693   8.134   4.857   8.197 -0.0873 -0.1724 -0.0008
  317MOL0     C42694   8.222   4.911   8.286  0.6147 -0.3199  0.2691
  317MOL0     O42695   8.269   5.037   8.279  0.9319 -0.3375  0.0911
  317MOL0     C42696   8.175   5.141   8.239 -0.7138  0.3769 -0.2953
  317MOL0     C42697   8.221   5.280   8.309 -0.0607  0.0486 -0.2189
  317MOL0     C42698   8.163   5.282   8.459  0.4131  0.8769 -0.4910
  317MOL0     C42699   8.113   5.415   8.503 -0.5735  0.5493 -0.2492
  317MOL0     C42700   8.012   5.399   8.613  0.0386 -0.3716 -0.2366
  317MOL0     C42701   8.065   5.322   8.737 -0.3695 -0.3825  0.0543
  317MOL0     C42702   8.192   5.381   8.794 -0.3345  0.2758  0.3569
  317MOL0     C42703   8.235   5.293   8.913 -0.4522 -0.0679  0.0854
  317MOL0    Cl42704   8.360   5.370   9.021  0.2993  0.0089 -0.3062
  317MOL0     C42705   8.270   4.824   8.380  0.4777 -0.0022 -0.9826
  317MOL0     C42706   8.235   4.691   8.384  0.0690  0.4270  0.2080
  317MOL0     O42707   8.245   4.436   8.133 -0.5585 -0.3204 -0.3218
  317MOL0     C42708   8.023   4.238   8.335  0.1279  0.9579 -0.0023
  317MOL0     C42709   7.984   4.104   8.364 -0.7012  1.5316 -0.2801
  317MOL0     N42710   8.529   3.526   8.053 -0.0429 -1.1491  0.2427
  317MOL0     N42711   8.599   3.417   8.036  0.4426 -0.6790  0.8873
  317MOL0     C42712   8.725   2.562   7.338 -0.1314 -0.1963  0.5726
  317MOL0     C42713   8.780   2.593   7.212  1.0850 -0.1671 -0.1418
  317MOL0     C42714   8.841   2.542   6.745  0.4044 -0.2444  0.5904
  317MOL0     C42715   8.982   2.557   6.770  0.1530  0.6549  0.7077
  317MOL0     C42716   9.088   2.553   6.672  0.6557 -0.9958 -0.6864
  317MOL0     C42717   9.045   2.546   6.540  0.1903 -0.1193 -0.6220
  317MOL0     O42718   9.148   2.558   6.447 -0.3803  0.5410 -0.2744
  317MOL0     C42719   9.131   2.487   6.324 -0.4432 -1.0948 -0.7179
  317MOL0     C42720   9.136   2.335   6.344  0.0620 -0.1278 -0.6152
  317MOL0     C42721   9.242   2.276   6.437  1.3265  0.1148  0.3078
  317MOL0     C42722   9.229   2.130   6.453 -0.5743  0.1793 -0.3197
  317MOL0     C42723   9.368   2.063   6.461  0.0069 -0.2206 -0.2490
  317MOL0     C42724   9.474   2.004   6.454 -0.2998  0.0722 -0.1897
  317MOL0     C42725   8.906   2.537   6.517 -0.5875  0.3639 -0.2764
  317MOL0     C42726   8.805   2.531   6.610  0.5018 -0.8468 -0.2519
  317MOL0     C42727   8.666   2.500   6.549  0.1672  0.7438 -0.9359
  317MOL0     H42728   8.514   2.451   7.039  1.8113 -1.2311 -1.3999
  317MOL0     H42729   8.447   2.392   7.240 -1.8542  3.0155 -3.1071
  317MOL0     H42730   8.582   2.472   7.682  0.2310  0.6875  0.5165
  317MOL0     H42731   8.722   2.494   7.580 -0.1907 -0.2745 -0.5929
  317MOL0     H42732   8.472   2.690   7.606  1.1764  1.6437  2.3467
  317MOL0     H42733   8.634   2.726   7.543  1.4938 -0.4038 -1.2941
  317MOL0     H42734   8.708   2.735   7.778 -0.6435 -0.8737  0.1834
  317MOL0     H42735   8.550   2.686   7.831  2.9158 -1.7105  1.8626
  317MOL0     H42736   8.622   2.941   7.656 -0.8881 -3.3620 -3.1689
  317MOL0     H42737   8.466   2.905   7.726  0.7813  1.7755 -0.5440
  317MOL0     H42738   8.704   2.966   7.902 -0.5759 -0.5951  0.8189
  317MOL0     H42739   8.580   3.077   7.836 -0.3823  0.4742  2.2652
  317MOL0     H42740   8.435   2.864   7.950  0.5629  0.4546 -3.7742
  317MOL0     H42741   8.568   2.882   8.057  1.3612 -1.0049 -2.8073
  317MOL0     H42742   8.373   3.039   8.115  1.8830 -1.3200  2.5216
  317MOL0     H42743   8.394   3.108   7.949  1.0850 -0.5924 -0.4377
  317MOL0     H42744   8.553   3.154   8.198  1.4593  0.1144  0.7177
  317MOL0     H42745   8.652   3.151   8.051 -1.1078 -1.4831 -1.4398
  317MOL0     H42746   8.307   3.314   8.158  1.2014 -1.2876  2.9197
  317MOL0     H42747   8.336   3.707   8.081  0.5924  1.1368  2.5129
  317MOL0     H42748   8.203   3.598   8.048 -0.9971 -2.5384  2.1913
  317MOL0     H42749   8.188   3.518   8.273 -2.8390  1.6281  1.1344
  317MOL0     H42750   8.330   3.599   8.331 -1.1972  1.6232  0.9316
  317MOL0     H42751   8.226   3.804   8.315 -0.5298  2.1342  0.8093
  317MOL0     H42752   8.120   3.692   8.414  1.8520  3.1085  1.1654
  317MOL0     H42753   7.963   3.678   8.234  2.4210 -1.8535  3.1039
  317MOL0     H42754   8.068   3.787   8.133 -2.5902  0.7335 -1.1469
  317MOL0     H42755   8.184   3.959   8.127  0.1336  2.5924 -2.7134
  317MOL0     H42756   8.237   4.183   8.085 -2.2997 -1.1643 -1.8056
  317MOL0     H42757   8.010   4.675   8.137  0.3169 -1.1975  0.4084
  317MOL0     H42758   8.090   4.924   8.123  2.1019 -1.4924 -2.6693
  317MOL0     H42759   8.173   5.149   8.129  0.2267  0.6414 -0.3029
  317MOL0     H42760   8.080   5.109   8.282  0.5869 -0.5724  1.9965
  317MOL0     H42761   8.330   5.283   8.312 -0.0625  0.0105 -0.1074
  317MOL0     H42762   8.179   5.354   8.240 -0.6647  1.5493  1.6962
  317MOL0     H42763   8.079   5.211   8.454  0.5453  0.7982 -2.0665
  317MOL0     H42764   8.234   5.234   8.527 -0.7343 -0.0495  0.0842
  317MOL0     H42765   8.068   5.462   8.415 -0.3103  0.0376 -0.6575
  317MOL0     H42766   8.195   5.484   8.526  1.9148 -1.6154 -2.0029
  317MOL0     H42767   7.912   5.360   8.593 -0.3780  2.2391 -4.5526
  317MOL0     H42768   7.993   5.505   8.634  1.9528  0.3321 -1.7372
  317MOL0     H42769   7.987   5.326   8.814  0.0120  1.0161  0.3861
  317MOL0     H42770   8.090   5.219   8.711 -2.3807 -0.7646 -0.5855
  317MOL0     H42771   8.177   5.485   8.825  1.1540  0.9707 -1.0836
  317MOL0     H42772   8.263   5.390   8.711 -1.0299  4.6145 -0.0376
  317MOL0     H42773   8.149   5.273   8.977  0.0647 -0.8160  0.5602
  317MOL0     H42774   8.291   5.206   8.878  3.1669  2.3795 -0.7492
  317MOL0     H42775   8.356   4.862   8.434  2.0046 -3.1973 -0.9362
  317MOL0     H42776   8.302   4.627   8.440  0.6195  1.1727  0.4210
  317MOL0     H42777   7.978   4.312   8.401  2.0504  0.9794  1.3804
  317MOL0     H42778   7.908   4.074   8.436  0.4540 -1.1579 -0.0708
  317MOL0     H42779   8.785   2.578   7.427 -3.6864  0.3294  3.0901
  317MOL0     H42780   8.876   2.643   7.198  1.0317 -0.7914 -3.9181
  317MOL0     H42781   9.015   2.550   6.873  0.4612  1.2450  0.6547
  317MOL0     H42782   9.196   2.550   6.686  0.9539  1.4920 -1.9177
  317MOL0     H42783   9.203   2.521   6.249  2.9472 -0.8931  2.3444
  317MOL0     H42784   9.033   2.515   6.285 -0.4616 -0.1178  0.0016
  317MOL0     H42785   9.165   2.297   6.245  1.4072 -0.0623 -0.2641
  317MOL0     H42786   9.032   2.306   6.364 -0.0002  0.3887 -0.1830
  317MOL0     H42787   9.230   2.324   6.534  0.6560 -1.1052  0.8538
  317MOL0     H42788   9.346   2.292   6.408  1.8702  2.3830  3.0433
  317MOL0     H42789   9.161   2.087   6.527 -2.2870 -1.5733 -2.7493
  317MOL0     H42790   9.193   2.089   6.358  2.3883 -5.6345  0.5630
  317MOL0     H42791   9.567   1.956   6.433 -1.9677 -2.3101 -2.7475
  317MOL0     H42792   8.875   2.545   6.413 -3.1975 -0.9264  0.3211
  317MOL0     H42793   8.590   2.575   6.571  0.6560  0.2940  2.9825
  317MOL0     H42794   8.681   2.483   6.442  1.4670  1.4465 -0.8838
  317MOL0     H42795   8.629   2.407   6.594 -0.0487  1.2038 -0.1382
  318MOL0     O42796   6.479   0.576   0.271 -0.1031  0.0503  0.4314
  318MOL0     C42797   6.544   0.668   0.336 -0.3514  0.0132 -0.4213
  318MOL0     O42798   6.593   0.659   0.471  1.3109 -0.5496  0.0308
  318MOL0     C42799   6.585   0.540   0.531  0.0514  0.3101  0.1726
  318MOL0     C42800   6.520   0.537   0.661  0.1235  0.3832  0.3875
  318MOL0     C42801   6.533   0.411   0.740 -0.4680  0.0539  0.0924
  318MOL0     C42802   6.610   0.306   0.692  0.6513  0.4606 -0.4821
  318MOL0     O42803   6.626   0.195   0.772 -0.1599  0.1381 -0.7329
  318MOL0     C42804   6.636   0.065   0.710 -0.1341 -0.4776  0.2007
  318MOL0     C42805   6.634  -0.043   0.824  0.2824  1.2116 -0.2014
  318MOL0     C42806   6.526  -0.013   0.936 -0.9472  0.0228 -0.0750
  318MOL0     C42807   6.500  -0.130   1.036  0.3015 -0.3957  0.1413
  318MOL0     C42808   6.393  -0.086   1.140  0.9733 -0.0755  0.3453
  318MOL0     C42809   6.450   0.019   1.233  0.7796 -0.1148 -0.0598
  318MOL0     C42810   6.368   0.036   1.369 -0.7050  0.0051  0.2114
  318MOL0     C42811   6.222   0.082   1.330 -0.2683 -0.6586  0.0170
  318MOL0     N42812   6.216   0.185   1.232 -0.5868 -0.6601  0.6342
  318MOL0     C42813   6.253   0.314   1.253  0.9832 -1.0384 -0.3472
  318MOL0     C42814   6.222   0.383   1.138  0.8693 -0.3043 -0.2649
  318MOL0     C42815   6.234   0.526   1.113  0.5533  0.0875 -0.1324
  318MOL0     C42816   6.093   0.602   1.108 -0.1354  0.0981  0.5874
  318MOL0     C42817   6.095   0.745   1.042  0.3773  0.6749 -0.2438
  318MOL0     C42818   5.971   0.819   1.096  0.5487 -0.3138 -0.7752
  318MOL0     O42819   6.001   0.845   1.229  0.3684  0.4112  0.4031
  318MOL0     C42820   5.929   0.934   1.301  0.5964  0.8672 -0.5897
  318MOL0     C42821   5.835   1.026   1.262  0.1024 -0.4124 -0.2241
  318MOL0     C42822   5.794   1.127   1.352 -0.0248 -1.0441  0.1928
  318MOL0     C42823   5.831   1.135   1.490  0.7547  1.1230 -0.4776
  318MOL0     C42824   5.756   1.230   1.592  0.2129 -0.1603  0.9480
  318MOL0     O42825   5.778   1.201   1.730 -0.6352  0.0649  0.1650
  318MOL0     C42826   5.725   1.282   1.829 -0.6555  0.2049  0.4359
  318MOL0     C42827   5.691   1.221   1.950  0.8641 -0.3051 -0.6553
  318MOL0     C42828   5.630   1.308   2.050 -0.1027  1.0081  0.4312
  318MOL0     C42829   5.637   1.444   2.053 -0.2878 -0.0379 -0.3120
  318MOL0     O42830   5.586   1.532   2.153  0.1636  0.2367  0.7876
  318MOL0     C42831   5.570   1.508   2.286  0.7885 -0.0284  0.1240
  318MOL0     C42832   5.421   1.518   2.328 -0.9323  0.1637 -0.5784
  318MOL0     C42833   5.374   1.656   2.314 -0.2821 -0.8017  0.8787
  318MOL0     C42834   5.253   1.695   2.380  1.8402  0.4559 -0.3125
  318MOL0     C42835   5.224   1.851   2.373  0.8503 -0.1855  0.0413
  318MOL0     C42836   5.085   1.876   2.426  0.1958 -0.5069  1.0643
  318MOL0     C42837   5.028   2.016   2.393  0.0146  0.5383 -0.1388
  318MOL0     C42838   4.929   2.067   2.500 -0.0055  0.1699  0.8396
  318MOL0    Cl42839   4.879   2.229   2.454  0.0941  0.5370 -0.1002
  318MOL0     C42840   5.695   1.501   1.938 -0.2653  0.7893  0.0590
  318MOL0     C42841   5.744   1.419   1.831 -0.5285 -0.0415  0.6150
  318MOL0     O42842   5.692   1.325   1.552  0.3715 -0.8419  0.3250
  318MOL0     C42843   5.922   1.035   1.526  0.1618 -0.4553  0.5605
  318MOL0     C42844   5.968   0.936   1.437 -0.4615  0.5813  0.0174
  318MOL0     N42845   6.160   0.299   1.048 -0.4410  0.5041  0.7803
  318MOL0     N42846   6.159   0.189   1.104 -0.9156  0.6320 -0.5767
  318MOL0     C42847   6.670   0.318   0.561 -0.7949 -0.2545 -0.0391
  318MOL0     C42848   6.659   0.427   0.479  0.1519  0.1946  0.7992
  318MOL0     C42849   6.564   0.801   0.271  0.7256  1.2487  0.2148
  318MOL0     C42850   6.591   0.805   0.128 -0.0567  1.0072  0.1081
  318MOL0     C42851   6.618   0.918   0.067 -0.4210 -0.0088  0.4849
  318MOL0     C42852   6.609   1.040   0.141 -0.1542  0.6864 -0.1784
  318MOL0     O42853   6.638   1.154   0.084 -0.9337  0.1101  0.4214
  318MOL0     C42854   6.559   1.198  -0.026 -0.1439 -0.2693  0.0839
  318MOL0     C42855   6.425   1.254   0.024  1.1422 -0.9871  0.5064
  318MOL0     C42856   6.328   1.288  -0.098  0.0985 -0.9088 -0.0782
  318MOL0     C42857   6.188   1.339  -0.040 -1.0882  0.2185 -0.4285
  318MOL0     C42858   6.091   1.331  -0.152  0.7392  0.5771 -0.0658
  318MOL0     C42859   6.016   1.309  -0.241  0.5167 -0.0024 -0.0179
  318MOL0     C42860   6.575   1.048   0.273 -0.1824 -0.3407  0.9711
  318MOL0     C42861   6.553   0.927   0.338  0.4888  0.1334  0.1936
  318MOL0     C42862   6.511   0.934   0.480 -0.9627 -0.4439 -0.6500
  318MOL0     H42863   6.459   0.620   0.695  3.0270  2.4537  0.8720
  318MOL0     H42864   6.470   0.403   0.828  1.5179  0.3026  1.6000
  318MOL0     H42865   6.549   0.045   0.647  1.9017 -1.9333 -2.3656
  318MOL0     H42866   6.727   0.075   0.650 -0.3625 -1.5543 -0.3563
  318MOL0     H42867   6.734  -0.043   0.868 -0.1395  0.9739  0.7945
  318MOL0     H42868   6.622  -0.141   0.779 -0.9650  2.2202 -2.2233
  318MOL0     H42869   6.425   0.013   0.902 -2.5557 -3.1655  1.7373
  318MOL0     H42870   6.575   0.073   0.984  0.5146 -0.0909 -1.2947
  318MOL0     H42871   6.466  -0.224   0.991 -0.0450 -1.0579  1.7191
  318MOL0     H42872   6.593  -0.156   1.087 -0.0259 -3.5718 -0.6805
  318MOL0     H42873   6.296  -0.053   1.102  0.0690  0.8248  3.1168
  318MOL0     H42874   6.367  -0.174   1.199 -1.5825 -0.0356 -0.6117
  318MOL0     H42875   6.555  -0.006   1.250  0.9363  1.4445  1.5741
  318MOL0     H42876   6.446   0.116   1.183 -1.4552 -1.6386 -3.1790
  318MOL0     H42877   6.414   0.115   1.430 -0.5077  0.1943 -0.1801
  318MOL0     H42878   6.369  -0.065   1.410  0.0661  0.3673  1.1330
  318MOL0     H42879   6.163  -0.001   1.290 -0.1379  0.3034 -2.3699
  318MOL0     H42880   6.173   0.131   1.415 -0.1862  2.5439 -1.6143
  318MOL0     H42881   6.302   0.361   1.337 -0.5412  1.6137 -0.8262
  318MOL0     H42882   6.295   0.572   1.192  1.2425  0.3290 -0.8016
  318MOL0     H42883   6.294   0.550   1.025  0.0211  2.0364 -0.0035
  318MOL0     H42884   6.021   0.538   1.055 -0.6881  0.7820  0.4872
  318MOL0     H42885   6.067   0.617   1.213 -2.7125 -2.3115  0.4225
  318MOL0     H42886   6.112   0.733   0.935  2.7515  0.8710  0.0550
  318MOL0     H42887   6.181   0.809   1.064  0.2138  2.4611 -4.0319
  318MOL0     H42888   5.881   0.756   1.091  1.0377 -1.3814  1.9919
  318MOL0     H42889   5.965   0.908   1.034  4.6209 -0.0918 -1.1219
  318MOL0     H42890   5.796   1.018   1.162  2.5037 -1.8205 -1.1282
  318MOL0     H42891   5.724   1.200   1.313  0.6911 -0.8203 -0.7200
  318MOL0     H42892   5.714   1.116   1.964 -0.1284 -0.4614 -0.0779
  318MOL0     H42893   5.600   1.248   2.136 -0.6690 -0.7772 -0.9509
  318MOL0     H42894   5.607   1.407   2.305 -0.5517 -1.0224 -2.1315
  318MOL0     H42895   5.631   1.590   2.324  0.2026 -0.4430  2.0830
  318MOL0     H42896   5.352   1.448   2.280 -2.9006 -0.3196  2.6412
  318MOL0     H42897   5.431   1.489   2.433  0.8615  1.0438 -0.4675
  318MOL0     H42898   5.445   1.732   2.348 -2.4633  0.7425  2.2624
  318MOL0     H42899   5.364   1.686   2.209 -0.4099 -1.9143  0.5674
  318MOL0     H42900   5.280   1.669   2.483 -0.7797  0.9797  0.5726
  318MOL0     H42901   5.168   1.638   2.342  0.6663  1.6565  0.4162
  318MOL0     H42902   5.242   1.871   2.267  0.8220 -0.9985 -0.1179
  318MOL0     H42903   5.299   1.911   2.427  1.2846  0.4105 -1.1652
  318MOL0     H42904   5.018   1.796   2.397 -0.4865 -0.4223  2.3283
  318MOL0     H42905   5.098   1.875   2.535 -1.0019 -1.7874  1.2170
  318MOL0     H42906   4.973   2.008   2.299 -0.3322 -0.9365  0.1522
  318MOL0     H42907   5.099   2.099   2.385 -0.1057  0.6243 -0.3104
  318MOL0     H42908   4.834   2.015   2.514  0.0464 -0.5524 -1.1810
  318MOL0     H42909   4.981   2.061   2.596  0.6921 -0.1164  0.4485
  318MOL0     H42910   5.705   1.609   1.944  1.8565  0.6807 -0.6294
  318MOL0     H42911   5.801   1.456   1.746 -0.8574  1.0732  0.8643
  318MOL0     H42912   5.961   1.032   1.627 -0.3552 -0.0411  0.7779
  318MOL0     H42913   6.032   0.859   1.481 -1.9026 -0.8720 -0.3417
  318MOL0     H42914   6.736   0.237   0.531 -1.2028 -0.3712 -0.6479
  318MOL0     H42915   6.700   0.439   0.379 -0.7627  0.3405  0.4272
  318MOL0     H42916   6.605   0.719   0.064  1.5717  1.5185 -0.2647
  318MOL0     H42917   6.630   0.924  -0.040 -3.9859 -0.8212 -0.0602
  318MOL0     H42918   6.531   1.115  -0.091  0.4072 -0.4530  0.0753
  318MOL0     H42919   6.614   1.279  -0.074  1.3585 -1.4575 -0.2548
  318MOL0     H42920   6.450   1.348   0.075 -1.2586  0.2976 -0.4873
  318MOL0     H42921   6.368   1.195   0.097  0.9387  0.6903  1.7780
  318MOL0     H42922   6.314   1.201  -0.163 -0.6859 -1.2135  0.4850
  318MOL0     H42923   6.370   1.367  -0.162  3.6740 -1.1690  1.6616
  318MOL0     H42924   6.143   1.269   0.031  0.4628 -1.0567 -0.6502
  318MOL0     H42925   6.187   1.439   0.004 -2.8789 -0.3382  0.9345
  318MOL0     H42926   5.946   1.281  -0.317  0.3939 -3.0629  1.0882
  318MOL0     H42927   6.555   1.140   0.327  2.2635  1.0104 -0.2814
  318MOL0     H42928   6.466   1.028   0.515 -0.4528 -1.6128  3.6442
  318MOL0     H42929   6.431   0.860   0.493  0.2857 -1.6515  0.3733
  318MOL0     H42930   6.594   0.904   0.544 -0.2395 -1.7765 -2.1270
  319MOL0     O42931   7.966   0.408   5.956 -0.2970  0.0308 -0.8882
  319MOL0     C42932   7.855   0.405   5.906  0.6632 -0.1327 -0.2897
  319MOL0     O42933   7.738   0.343   5.953  0.5007  0.3844 -0.1926
  319MOL0     C42934   7.746   0.253   6.053  0.2998 -0.5104  0.5066
  319MOL0     C42935   7.788   0.124   6.035  0.6823 -0.8805  0.0931
  319MOL0     C42936   7.807   0.043   6.148  0.1690  0.2638  0.1980
  319MOL0     C42937   7.765   0.091   6.278 -0.1338 -0.0350  0.5048
  319MOL0     O42938   7.779   0.011   6.384  0.5110 -0.8602 -1.1243
  319MOL0     C42939   7.849   0.043   6.500  0.5183  0.0856 -0.0217
  319MOL0     C42940   7.812  -0.040   6.621  0.3774 -0.1373  0.0406
  319MOL0     C42941   7.669   0.001   6.661  0.4162 -0.1818  0.7787
  319MOL0     C42942   7.609  -0.087   6.770 -0.7707  0.1984  1.5777
  319MOL0     C42943   7.460  -0.055   6.792  0.3186  0.2017  0.4293
  319MOL0     C42944   7.403  -0.151   6.893  0.3927  0.0976 -0.4999
  319MOL0     C42945   7.469  -0.154   7.024 -0.0694  0.6825 -0.0451
  319MOL0     C42946   7.408  -0.268   7.109 -0.1019  0.4771 -0.4834
  319MOL0     N42947   7.422  -0.407   7.045 -0.0055  0.6191 -0.8215
  319MOL0     C42948   7.542  -0.447   6.992  0.4794  0.6153  0.2344
  319MOL0     C42949   7.523  -0.561   6.925 -0.6107  0.3774  0.0557
  319MOL0     C42950   7.632  -0.651   6.861 -0.7308  0.4909  0.7646
  319MOL0     C42951   7.673  -0.564   6.734  0.3017  0.3724 -0.9173
  319MOL0     C42952   7.599  -0.614   6.604  0.9533  0.2688  0.2680
  319MOL0     C42953   7.586  -0.496   6.504  0.4054  0.5938  0.0225
  319MOL0     O42954   7.540  -0.552   6.378  0.0699  0.1043 -0.7993
  319MOL0     C42955   7.559  -0.475   6.264  0.3489 -0.2561 -0.0402
  319MOL0     C42956   7.565  -0.335   6.261 -0.2656  0.5780  0.2804
  319MOL0     C42957   7.577  -0.264   6.135  0.1148 -0.1347  0.1206
  319MOL0     C42958   7.596  -0.350   6.021  0.6970 -0.0434 -0.0280
  319MOL0     C42959   7.621  -0.286   5.886 -0.4678 -0.1428  0.0497
  319MOL0     O42960   7.583  -0.359   5.777 -0.9645  0.4180  0.3426
  319MOL0     C42961   7.604  -0.301   5.648 -0.3301 -0.1837 -0.9783
  319MOL0     C42962   7.729  -0.243   5.606 -0.3534 -1.0310 -0.0923
  319MOL0     C42963   7.737  -0.175   5.483  0.4652  0.3497  0.5162
  319MOL0     C42964   7.625  -0.174   5.394 -0.4462  0.3384 -0.1243
  319MOL0     O42965   7.631  -0.119   5.271  1.2406 -0.1167  0.3770
  319MOL0     C42966   7.759  -0.117   5.213  0.3858  0.1526  0.2832
  319MOL0     C42967   7.728  -0.042   5.076 -0.1569 -0.0013  0.4000
  319MOL0     C42968   7.664  -0.134   4.966 -1.1810 -0.2011  0.6375
  319MOL0     C42969   7.582  -0.057   4.858  0.4393 -1.5291 -0.0376
  319MOL0     C42970   7.651   0.050   4.789 -0.3525 -0.4666  0.3801
  319MOL0     C42971   7.547   0.153   4.751 -0.2447  0.3791  0.2242
  319MOL0     C42972   7.608   0.282   4.685 -1.1741 -0.0620  0.4411
  319MOL0     C42973   7.494   0.387   4.683  0.5638 -0.2371 -0.1113
  319MOL0    Cl42974   7.343   0.344   4.575 -0.0587  0.1410 -0.1444
  319MOL0     C42975   7.509  -0.228   5.438 -0.1809  0.2949  0.1529
  319MOL0     C42976   7.499  -0.292   5.564 -0.8807 -0.5560 -0.0653
  319MOL0     O42977   7.686  -0.186   5.879 -0.0852 -0.5728  1.5100
  319MOL0     C42978   7.589  -0.489   6.029  0.0077 -0.1067 -0.2927
  319MOL0     C42979   7.577  -0.549   6.147  0.2689  1.0156  0.3818
  319MOL0     N42980   7.385  -0.588   6.927 -0.6499 -0.7886 -0.3473
  319MOL0     N42981   7.328  -0.497   7.012  0.4160 -0.4905 -0.1762
  319MOL0     C42982   7.712   0.218   6.288 -1.1200 -0.4354  0.4683
  319MOL0     C42983   7.706   0.301   6.180  0.3581  0.5186  0.1015
  319MOL0     C42984   7.831   0.480   5.774  0.8354  0.5801 -0.0243
  319MOL0     C42985   7.705   0.468   5.704 -1.0471 -0.8353 -0.7785
  319MOL0     C42986   7.685   0.530   5.580 -0.0548 -0.0705  0.2658
  319MOL0     C42987   7.785   0.607   5.513  0.2502  0.0872 -0.4627
  319MOL0     O42988   7.736   0.663   5.398  0.0767  0.6095 -0.0144
  319MOL0     C42989   7.816   0.754   5.325  0.3932  0.8335  0.1253
  319MOL0     C42990   7.783   0.742   5.175 -1.0356 -0.9355  0.9475
  319MOL0     C42991   7.641   0.786   5.139  0.6222 -0.2112 -0.2236
  319MOL0     C42992   7.612   0.934   5.168  0.5366 -0.3588  0.1131
  319MOL0     C42993   7.671   1.016   5.058 -0.4114  0.3926  0.7757
  319MOL0     C42994   7.749   1.094   4.994  0.2666 -0.2594  0.1618
  319MOL0     C42995   7.906   0.617   5.580 -0.3096 -0.1402 -0.2778
  319MOL0     C42996   7.925   0.565   5.712  0.2236  0.5177 -0.2349
  319MOL0     C42997   8.058   0.605   5.781  0.0101 -0.8992  0.1596
  319MOL0     H42998   7.800   0.087   5.934 -2.1952  1.4765 -1.2785
  319MOL0     H42999   7.833  -0.062   6.160 -2.9597 -0.3466  2.9170
  319MOL0     H43000   7.958   0.030   6.496  1.1447  3.5120  2.0064
  319MOL0     H43001   7.819   0.145   6.525  1.7516  0.0201  1.8902
  319MOL0     H43002   7.875  -0.009   6.705  1.4748 -0.5433 -0.6080
  319MOL0     H43003   7.819  -0.148   6.606 -0.9899 -0.5206  1.7979
  319MOL0     H43004   7.601  -0.020   6.578 -0.8693 -1.3628  2.0804
  319MOL0     H43005   7.672   0.106   6.692  1.6486 -0.3592  1.2972
  319MOL0     H43006   7.629  -0.193   6.749 -1.2803 -0.1301  2.6729
  319MOL0     H43007   7.664  -0.083   6.864 -0.4790  2.1002  1.3462
  319MOL0     H43008   7.444   0.050   6.821  1.3638  0.8121 -1.0665
  319MOL0     H43009   7.410  -0.056   6.695 -0.2256 -0.3075  0.7144
  319MOL0     H43010   7.305  -0.103   6.903  1.7548  3.9167 -3.1386
  319MOL0     H43011   7.399  -0.249   6.844 -0.6740  1.5535 -3.5967
  319MOL0     H43012   7.468  -0.060   7.080 -3.1275  0.6253  0.1432
  319MOL0     H43013   7.574  -0.183   7.008  0.0091 -0.1652  1.6664
  319MOL0     H43014   7.450  -0.267   7.209 -1.1039 -1.7210  0.0192
  319MOL0     H43015   7.303  -0.239   7.124  0.1357 -0.0689  2.7999
  319MOL0     H43016   7.635  -0.393   7.010 -0.0246  0.9876  1.8592
  319MOL0     H43017   7.718  -0.682   6.922  0.4699 -2.8408 -2.2458
  319MOL0     H43018   7.585  -0.742   6.823 -0.2946  1.7745 -3.2746
  319MOL0     H43019   7.656  -0.459   6.759 -1.4316 -0.0012 -0.3676
  319MOL0     H43020   7.779  -0.570   6.711  0.1226 -0.7925 -1.4927
  319MOL0     H43021   7.499  -0.649   6.631  0.2984  0.8169 -1.3426
  319MOL0     H43022   7.657  -0.695   6.560  1.3628 -1.4642  3.6469
  319MOL0     H43023   7.683  -0.448   6.492  2.1760 -1.5994  3.6265
  319MOL0     H43024   7.526  -0.414   6.543 -0.4176 -0.5191  1.2116
  319MOL0     H43025   7.546  -0.275   6.350 -0.1454  1.2859 -0.1649
  319MOL0     H43026   7.600  -0.158   6.132  0.9051 -0.2835 -3.5724
  319MOL0     H43027   7.821  -0.253   5.662 -0.4703  2.0701  0.8810
  319MOL0     H43028   7.833  -0.147   5.439  0.4396 -1.1940 -0.6496
  319MOL0     H43029   7.830  -0.050   5.261 -1.2062  3.4576 -1.5985
  319MOL0     H43030   7.798  -0.219   5.201  0.8486  0.5199 -1.7521
  319MOL0     H43031   7.671   0.049   5.098 -2.5480 -1.4183  0.4384
  319MOL0     H43032   7.828  -0.019   5.038 -0.4342 -0.6068 -0.7225
  319MOL0     H43033   7.745  -0.184   4.912 -1.9878 -2.3582  1.2835
  319MOL0     H43034   7.610  -0.218   5.011 -0.2857 -0.7481  0.7036
  319MOL0     H43035   7.491  -0.020   4.907  1.0293 -2.3090  1.7228
  319MOL0     H43036   7.541  -0.117   4.777 -5.0428  1.2950  0.1330
  319MOL0     H43037   7.718   0.027   4.706  1.0886 -1.2438  1.6859
  319MOL0     H43038   7.703   0.106   4.867 -3.1113  1.6718  0.8517
  319MOL0     H43039   7.487   0.092   4.682  1.4551 -1.0851 -0.0259
  319MOL0     H43040   7.480   0.185   4.831 -2.7459 -0.2795 -1.4785
  319MOL0     H43041   7.650   0.275   4.584  1.0092  1.1056  1.1887
  319MOL0     H43042   7.684   0.318   4.756  0.1225  0.1656 -0.9976
  319MOL0     H43043   7.472   0.417   4.786 -0.8747  2.9570 -1.2100
  319MOL0     H43044   7.537   0.479   4.642  1.2406  0.4049  1.9067
  319MOL0     H43045   7.427  -0.229   5.367  1.1523 -1.4183 -1.4887
  319MOL0     H43046   7.405  -0.325   5.606 -0.8331 -2.6655 -1.4810
  319MOL0     H43047   7.594  -0.548   5.938 -0.6232 -0.6711  0.0318
  319MOL0     H43048   7.553  -0.654   6.149  4.5248 -0.1275  1.1912
  319MOL0     H43049   7.693   0.250   6.390  0.1205  0.8918  0.3121
  319MOL0     H43050   7.674   0.404   6.191 -0.4360  0.4208 -1.0751
  319MOL0     H43051   7.621   0.417   5.750 -1.5870  1.2874  0.7204
  319MOL0     H43052   7.590   0.520   5.528  1.9884 -1.1317 -3.6278
  319MOL0     H43053   7.918   0.718   5.339  0.0105 -0.8212 -1.0626
  319MOL0     H43054   7.808   0.860   5.354  0.4857  1.5744 -2.3277
  319MOL0     H43055   7.785   0.643   5.129  1.9575 -0.9567  0.9332
  319MOL0     H43056   7.863   0.788   5.116  2.4495 -2.9590  3.6336
  319MOL0     H43057   7.585   0.730   5.214  0.4346 -1.3177 -1.1526
  319MOL0     H43058   7.610   0.744   5.043  2.6258 -2.0359 -0.1499
  319MOL0     H43059   7.508   0.967   5.154  0.1275 -1.0779  1.3471
  319MOL0     H43060   7.639   0.969   5.268  3.8728  0.2464 -0.8767
  319MOL0     H43061   7.815   1.140   4.924  0.2681 -0.0488  0.2984
  319MOL0     H43062   7.988   0.673   5.535  0.0653 -1.2308 -0.9749
  319MOL0     H43063   8.131   0.524   5.767 -2.3883 -2.9633 -1.2812
  319MOL0     H43064   8.102   0.688   5.726  2.5794 -1.4725  1.2054
  319MOL0     H43065   8.042   0.655   5.877  4.6169  0.6280  0.3830
  320MOL0     O43066   4.472   5.183   4.213 -0.2726  1.0435 -0.3603
  320MOL0     C43067   4.424   5.215   4.106  0.5808 -0.2193  0.1099
  320MOL0     O43068   4.490   5.266   4.004  0.2535  0.3647  0.4641
  320MOL0     C43069   4.627   5.251   3.992  0.2891 -0.5558  0.6008
  320MOL0     C43070   4.706   5.136   4.026 -0.6197  0.6624 -0.7895
  320MOL0     C43071   4.847   5.136   4.017 -0.3903  0.2433 -0.3186
  320MOL0     C43072   4.905   5.248   3.966  0.0934 -0.5508 -0.7991
  320MOL0     O43073   5.047   5.242   3.948 -0.7496 -0.1832 -0.0829
  320MOL0     C43074   5.125   5.337   3.864  0.3324 -0.0842 -0.0874
  320MOL0     C43075   5.267   5.298   3.841  0.2409 -0.4202 -0.8116
  320MOL0     C43076   5.352   5.279   3.963  0.1018 -0.3561  0.5067
  320MOL0     C43077   5.488   5.199   3.962 -0.3162 -0.4339  0.7060
  320MOL0     C43078   5.612   5.277   3.922 -0.3644  0.3145 -0.3456
  320MOL0     C43079   5.726   5.180   3.891 -0.3554  0.1476  1.2600
  320MOL0     C43080   5.856   5.252   3.837 -0.4796 -0.0673 -0.6152
  320MOL0     C43081   5.973   5.158   3.798 -0.3403 -0.3876 -0.3188
  320MOL0     N43082   5.967   5.078   3.677  0.0066  1.2981  0.4190
  320MOL0     C43083   5.947   5.128   3.544 -0.3263  0.1235  0.1584
  320MOL0     C43084   5.969   5.013   3.473 -0.3851  0.1997  0.5560
  320MOL0     C43085   5.972   5.005   3.320 -0.1459 -0.0042 -0.1061
  320MOL0     C43086   6.099   5.069   3.275  0.3503  0.1466  0.2874
  320MOL0     C43087   6.230   5.008   3.335 -0.5539 -1.2316  0.9351
  320MOL0     C43088   6.279   4.882   3.266  0.6451 -0.2994  0.1484
  320MOL0     O43089   6.412   4.847   3.280 -0.3402  0.6405 -0.3160
  320MOL0     C43090   6.450   4.717   3.253 -0.0909 -0.1038  0.9875
  320MOL0     C43091   6.370   4.609   3.207 -0.4608 -0.5273  0.6515
  320MOL0     C43092   6.427   4.472   3.198  0.4760 -0.2006 -0.4985
  320MOL0     C43093   6.561   4.448   3.244  0.1116  0.3651  0.1448
  320MOL0     C43094   6.611   4.306   3.229  0.4740 -0.0622  0.1168
  320MOL0     O43095   6.739   4.296   3.260  0.5100 -0.1857 -0.7186
  320MOL0     C43096   6.791   4.167   3.268 -0.1580  0.0784  0.9437
  320MOL0     C43097   6.923   4.171   3.216 -0.5355 -0.1016 -1.1060
  320MOL0     C43098   6.996   4.040   3.224  0.3887 -0.3718  0.1076
  320MOL0     C43099   6.940   3.928   3.286  0.1773 -0.8307  0.2341
  320MOL0     O43100   7.014   3.815   3.286  0.2848  0.6286 -0.0846
  320MOL0     C43101   6.989   3.696   3.363  1.2346  0.6445 -0.6655
  320MOL0     C43102   7.085   3.587   3.309 -0.0173  0.2822 -0.1053
  320MOL0     C43103   7.032   3.446   3.345 -0.2464  0.7761 -0.2434
  320MOL0     C43104   7.010   3.426   3.499 -1.0703  0.2782  0.1498
  320MOL0     C43105   6.926   3.303   3.526  0.2400  0.3293  0.1778
  320MOL0     C43106   7.011   3.179   3.528  0.4609 -0.4701 -0.0764
  320MOL0     C43107   6.938   3.055   3.580  0.1779 -0.7207  0.9912
  320MOL0     C43108   6.959   3.045   3.729  0.0158  0.0176  0.7248
  320MOL0    Cl43109   6.854   2.905   3.773  0.0927  0.4365 -0.5140
  320MOL0     C43110   6.811   3.936   3.343 -0.0883 -0.7450  0.4432
  320MOL0     C43111   6.736   4.056   3.339 -0.1194  0.5091 -0.5259
  320MOL0     O43112   6.541   4.215   3.181 -0.2277 -0.5307  0.2443
  320MOL0     C43113   6.628   4.558   3.302  0.8161 -1.4940 -0.5493
  320MOL0     C43114   6.585   4.693   3.300  0.6024  0.2666  0.4744
  320MOL0     N43115   5.980   4.901   3.554 -0.5608  0.4981 -0.0272
  320MOL0     N43116   5.980   4.940   3.675 -0.1869 -0.1220  0.0551
  320MOL0     C43117   4.831   5.356   3.924  0.3354 -0.5959  0.7040
  320MOL0     C43118   4.695   5.356   3.927  0.4330  0.5294 -1.1763
  320MOL0     C43119   4.274   5.202   4.085 -0.9791  0.5604 -0.9420
  320MOL0     C43120   4.207   5.163   4.207  0.2232  0.4732 -0.4777
  320MOL0     C43121   4.065   5.156   4.199  0.8088 -0.7157 -0.3337
  320MOL0     C43122   3.992   5.174   4.078  0.8122 -0.5164 -0.1341
  320MOL0     O43123   3.855   5.159   4.079  0.1161  0.4226  0.3208
  320MOL0     C43124   3.812   5.022   4.099  0.9658 -0.2030  0.0712
  320MOL0     C43125   3.838   4.941   3.971 -0.3361  1.0917  0.1986
  320MOL0     C43126   3.747   4.991   3.863 -0.2958  0.2887 -0.0705
  320MOL0     C43127   3.747   4.921   3.730 -0.0249  1.2633 -0.0863
  320MOL0     C43128   3.741   4.774   3.751  1.0355  0.1901 -0.2470
  320MOL0     C43129   3.717   4.656   3.749 -0.4876  0.1679  0.0001
  320MOL0     C43130   4.061   5.221   3.972 -0.3637 -0.9044  0.7019
  320MOL0     C43131   4.199   5.238   3.974  0.4038  0.3684 -0.3657
  320MOL0     C43132   4.257   5.286   3.842 -1.3914  0.2324  0.3434
  320MOL0     H43133   4.667   5.042   4.062 -0.2255  0.5166 -0.7338
  320MOL0     H43134   4.915   5.065   4.062 -1.3564 -0.0077  0.7686
  320MOL0     H43135   5.088   5.324   3.762 -0.9355 -1.1951  0.4786
  320MOL0     H43136   5.110   5.439   3.901 -2.3498 -0.1974 -0.6306
  320MOL0     H43137   5.310   5.376   3.778 -1.4482 -0.7524 -2.4521
  320MOL0     H43138   5.270   5.207   3.781  1.9300  1.2187 -3.3977
  320MOL0     H43139   5.287   5.239   4.041  0.6576 -1.9417  0.2022
  320MOL0     H43140   5.368   5.384   3.990 -0.3553  0.4859 -2.1586
  320MOL0     H43141   5.511   5.179   4.067  0.8560  0.2938  0.6038
  320MOL0     H43142   5.478   5.102   3.912 -0.3262 -0.3523  0.5475
  320MOL0     H43143   5.596   5.336   3.831 -1.6620  3.0658  1.5132
  320MOL0     H43144   5.636   5.346   4.004 -0.6541  0.3099 -0.2557
  320MOL0     H43145   5.742   5.116   3.978 -1.0504 -1.5448  0.1882
  320MOL0     H43146   5.693   5.109   3.815 -0.3374  2.0487 -0.6303
  320MOL0     H43147   5.884   5.323   3.915  0.6027 -1.1090 -0.0243
  320MOL0     H43148   5.824   5.311   3.750  2.2708  0.3535 -1.4597
  320MOL0     H43149   6.060   5.223   3.788  2.2876 -3.7506 -1.2402
  320MOL0     H43150   6.000   5.085   3.875 -1.1513 -0.4325 -0.0674
  320MOL0     H43151   5.963   5.228   3.507  1.8207 -0.5816 -0.9880
  320MOL0     H43152   5.972   4.900   3.290  2.7459 -0.1885  0.2076
  320MOL0     H43153   5.882   5.060   3.291 -1.0326 -1.3243  0.0923
  320MOL0     H43154   6.095   5.056   3.167 -2.2141  1.6137  0.1385
  320MOL0     H43155   6.097   5.173   3.309 -3.3390  0.5109 -0.7079
  320MOL0     H43156   6.230   4.979   3.440  1.3619 -4.4171  0.1803
  320MOL0     H43157   6.303   5.090   3.338 -1.0952 -0.7575  1.2549
  320MOL0     H43158   6.255   4.907   3.163  0.2338  0.6098  0.4563
  320MOL0     H43159   6.217   4.795   3.292 -1.3121  0.7350 -0.8035
  320MOL0     H43160   6.274   4.639   3.167  0.0518  0.9503  0.4858
  320MOL0     H43161   6.362   4.388   3.177  2.0539 -1.2503 -1.4063
  320MOL0     H43162   6.963   4.265   3.178 -1.9799  0.9183 -0.2300
  320MOL0     H43163   7.096   4.035   3.183  1.2898  2.5177  1.6248
  320MOL0     H43164   7.007   3.728   3.466 -0.1351  2.4078 -0.9120
  320MOL0     H43165   6.884   3.665   3.364  1.3602  0.1820 -1.3052
  320MOL0     H43166   7.099   3.584   3.201 -1.1487  1.2280 -0.2951
  320MOL0     H43167   7.184   3.607   3.349 -0.2697  2.4980 -0.4538
  320MOL0     H43168   6.938   3.425   3.292  1.1654 -0.4266 -2.4140
  320MOL0     H43169   7.102   3.367   3.314 -1.3743 -2.1504  3.7470
  320MOL0     H43170   6.974   3.519   3.543 -0.8292  0.2319  0.4564
  320MOL0     H43171   7.114   3.413   3.531 -1.2296 -1.3318  0.1185
  320MOL0     H43172   6.842   3.300   3.457  0.5779  1.1606 -0.2825
  320MOL0     H43173   6.882   3.318   3.625  0.3794 -1.9372  0.6366
  320MOL0     H43174   7.043   3.150   3.427 -1.0707  0.1000 -0.7489
  320MOL0     H43175   7.101   3.194   3.589  0.0214  0.2527  0.4046
  320MOL0     H43176   6.987   2.967   3.537 -3.1798 -1.2714 -2.2614
  320MOL0     H43177   6.831   3.052   3.555  0.3617 -3.4867  0.1883
  320MOL0     H43178   7.063   3.023   3.752 -0.3118 -1.1633  1.1560
  320MOL0     H43179   6.922   3.135   3.779 -0.3012  1.0758 -1.2956
  320MOL0     H43180   6.773   3.853   3.401  1.8277 -0.8634  1.6212
  320MOL0     H43181   6.638   4.057   3.385 -0.8456 -0.6322 -1.9467
  320MOL0     H43182   6.724   4.535   3.349 -0.2250 -4.1583  0.4467
  320MOL0     H43183   6.652   4.770   3.339  3.5686 -0.2840 -2.9655
  320MOL0     H43184   4.873   5.448   3.886 -1.0881 -0.4166 -0.5298
  320MOL0     H43185   4.642   5.446   3.900  0.7374  1.8162  2.0541
  320MOL0     H43186   4.250   5.132   4.302  0.8617 -3.6277 -1.8961
  320MOL0     H43187   4.019   5.140   4.295  1.7348 -1.5601 -0.0128
  320MOL0     H43188   3.705   5.030   4.120  0.6757 -1.5375 -0.7752
  320MOL0     H43189   3.860   4.972   4.183  2.9488  0.4086 -0.6418
  320MOL0     H43190   3.811   4.842   4.011 -0.0452  0.7505 -0.4395
  320MOL0     H43191   3.944   4.943   3.946  0.0353 -0.5190  1.4118
  320MOL0     H43192   3.765   5.098   3.848  1.5652  0.0217  0.0001
  320MOL0     H43193   3.642   4.992   3.893 -0.4372  0.9669 -0.5581
  320MOL0     H43194   3.663   4.941   3.663 -0.4996  0.2722  0.1865
  320MOL0     H43195   3.824   4.948   3.657 -0.5243 -2.1080 -2.1247
  320MOL0     H43196   3.699   4.550   3.753  2.4274 -0.3974  1.2366
  320MOL0     H43197   4.003   5.240   3.883  0.2250  0.8535  0.6533
  320MOL0     H43198   4.317   5.377   3.845  0.9823 -1.2244 -0.2811
  320MOL0     H43199   4.317   5.202   3.805  1.4491  2.3979 -0.2906
  320MOL0     H43200   4.175   5.292   3.770 -1.1729  1.8754  0.1939
  321MOL0     O43201   2.699   5.756   4.010  0.9378 -0.6347  0.7768
  321MOL0     C43202   2.768   5.674   3.952 -0.1841 -0.3316  0.2249
  321MOL0     O43203   2.899   5.692   3.914 -1.0056  0.4164  0.1305
  321MOL0     C43204   2.950   5.814   3.917 -0.0233  0.0126  0.0294
  321MOL0     C43205   3.041   5.826   4.016 -0.4926 -0.8059 -0.0829
  321MOL0     C43206   3.117   5.940   4.026  0.0001 -0.4951 -0.0496
  321MOL0     C43207   3.097   6.046   3.931 -0.4757 -0.3020  0.8658
  321MOL0     O43208   3.174   6.161   3.930 -0.0268  0.1349  0.1114
  321MOL0     C43209   3.314   6.150   3.967  0.9196 -0.7673 -0.1514
  321MOL0     C43210   3.360   6.289   3.940  0.5568  0.6045  0.3001
  321MOL0     C43211   3.512   6.307   3.952 -0.2621  0.3814  0.1095
  321MOL0     C43212   3.562   6.348   4.095  0.5549 -0.7770 -0.0822
  321MOL0     C43213   3.715   6.352   4.102  0.5503 -0.3758 -0.6790
  321MOL0     C43214   3.754   6.383   4.250 -0.7562 -0.3599 -0.3071
  321MOL0     C43215   3.906   6.401   4.269 -0.3243 -0.2892  0.3824
  321MOL0     C43216   3.988   6.290   4.193  1.2406 -0.0587 -0.4247
  321MOL0     N43217   3.963   6.154   4.238 -0.8591  0.2398  0.5308
  321MOL0     C43218   3.992   6.118   4.364  0.3651  0.0543  0.0149
  321MOL0     C43219   3.971   5.980   4.362 -0.9819 -0.3820 -0.2375
  321MOL0     C43220   3.975   5.892   4.482 -0.6728 -0.8546 -0.0781
  321MOL0     C43221   4.120   5.843   4.508 -0.9446 -0.4196  0.0350
  321MOL0     C43222   4.168   5.755   4.392 -0.8074 -0.5783  0.6678
  321MOL0     C43223   4.079   5.638   4.351 -0.0817  0.2913  0.3600
  321MOL0     O43224   4.049   5.550   4.463 -0.5206 -0.0152 -0.5727
  321MOL0     C43225   3.939   5.465   4.456 -0.8770  0.0800  0.1095
  321MOL0     C43226   3.923   5.395   4.569 -0.4382 -0.2946  1.1957
  321MOL0     C43227   3.819   5.303   4.580 -0.2427 -1.0272  0.5923
  321MOL0     C43228   3.722   5.305   4.477  0.2781 -0.2827 -0.4331
  321MOL0     C43229   3.599   5.224   4.487 -0.0234 -0.1571 -0.8115
  321MOL0     O43230   3.483   5.271   4.431  0.2139 -0.4672  1.0189
  321MOL0     C43231   3.362   5.203   4.449 -0.2351 -0.2180 -0.5444
  321MOL0     C43232   3.277   5.258   4.546 -0.1884 -0.0443  0.1544
  321MOL0     C43233   3.138   5.229   4.566 -0.1120 -0.8596 -0.1085
  321MOL0     C43234   3.084   5.136   4.475  0.7020 -0.5488 -0.3934
  321MOL0     O43235   2.952   5.104   4.468 -0.3174  0.3110  0.0655
  321MOL0     C43236   2.911   5.012   4.572 -0.7707 -0.2191 -0.0459
  321MOL0     C43237   2.768   5.042   4.612  0.0889 -0.1243  0.4655
  321MOL0     C43238   2.677   4.988   4.497 -0.7587  0.1658 -0.4171
  321MOL0     C43239   2.533   4.946   4.546  0.5774  0.3260  0.1856
  321MOL0     C43240   2.442   4.908   4.425 -0.0045  0.4058  0.1345
  321MOL0     C43241   2.393   5.044   4.355  0.3862 -0.2948 -0.0676
  321MOL0     C43242   2.316   5.159   4.434 -0.6672  0.1687 -0.7039
  321MOL0     C43243   2.218   5.254   4.365 -0.1555  0.5109  0.1069
  321MOL0    Cl43244   2.093   5.158   4.274  0.0194  0.3819 -0.4932
  321MOL0     C43245   3.164   5.078   4.378 -0.5220  0.3896 -1.0635
  321MOL0     C43246   3.305   5.109   4.369 -0.3203 -0.2777  1.3493
  321MOL0     O43247   3.604   5.117   4.553 -0.3745 -0.4513  0.1048
  321MOL0     C43248   3.741   5.378   4.359  0.7649 -0.4108 -0.6428
  321MOL0     C43249   3.854   5.459   4.344 -1.1226 -0.1790  0.5989
  321MOL0     N43250   3.934   5.935   4.236 -0.4467 -0.7157 -0.1888
  321MOL0     N43251   3.931   6.043   4.161  0.1665  0.2548  0.8986
  321MOL0     C43252   2.988   6.044   3.849  0.3462 -0.3019 -0.0424
  321MOL0     C43253   2.925   5.917   3.827  0.2003 -1.4010  0.6530
  321MOL0     C43254   2.720   5.531   3.917  0.5231  0.0241 -0.1778
  321MOL0     C43255   2.811   5.455   3.841 -0.2533 -0.0116  0.2193
  321MOL0     C43256   2.760   5.322   3.813 -0.0360  0.4264  1.1424
  321MOL0     C43257   2.641   5.264   3.859  0.3177 -0.4155 -0.3837
  321MOL0     O43258   2.629   5.129   3.852  0.5377  0.3512  0.1268
  321MOL0     C43259   2.494   5.076   3.822 -0.2442 -0.7787  0.5296
  321MOL0     C43260   2.423   5.030   3.950 -0.9122 -0.0212 -0.3547
  321MOL0     C43261   2.286   4.978   3.924 -0.3030  0.4015  1.5559
  321MOL0     C43262   2.280   4.881   3.810  0.3325  0.1970  0.7009
  321MOL0     C43263   2.379   4.777   3.802 -0.8718 -0.6671 -0.6676
  321MOL0     C43264   2.457   4.681   3.797 -0.3374 -0.3269 -0.2099
  321MOL0     C43265   2.553   5.355   3.915  0.0365  1.2388 -0.2188
  321MOL0     C43266   2.589   5.484   3.949 -0.7123 -0.4563 -0.6332
  321MOL0     C43267   2.486   5.575   4.015 -0.0165 -0.2773 -0.3954
  321MOL0     H43268   3.062   5.754   4.095 -0.3088  1.6075  2.2326
  321MOL0     H43269   3.201   5.947   4.095 -1.4051  3.2164  1.5404
  321MOL0     H43270   3.328   6.142   4.075  2.2980  1.8129 -0.0623
  321MOL0     H43271   3.367   6.072   3.911  0.9479 -1.5823  0.9644
  321MOL0     H43272   3.313   6.345   4.022  0.9239 -2.2786  2.6726
  321MOL0     H43273   3.319   6.318   3.843 -4.3662 -0.9904  1.6232
  321MOL0     H43274   3.543   6.381   3.878  0.3617  0.1185  0.0980
  321MOL0     H43275   3.561   6.221   3.903 -0.1519  0.8646 -0.6478
  321MOL0     H43276   3.525   6.448   4.118  0.6542 -0.4372 -1.3359
  321MOL0     H43277   3.519   6.281   4.170 -1.2417  1.0842  0.6426
  321MOL0     H43278   3.765   6.261   4.068  1.0300 -1.1997  2.0004
  321MOL0     H43279   3.738   6.443   4.047 -0.9701  0.7976  0.5159
  321MOL0     H43280   3.707   6.472   4.293 -2.0393 -0.0013 -2.3523
  321MOL0     H43281   3.723   6.300   4.315  0.0102  0.7154  1.5226
  321MOL0     H43282   3.930   6.413   4.375  0.3877  0.7622  0.1153
  321MOL0     H43283   3.932   6.495   4.220  0.0343 -2.7373 -4.8100
  321MOL0     H43284   3.960   6.301   4.088 -3.4012  0.4281  0.6192
  321MOL0     H43285   4.091   6.320   4.213  0.2495  1.3741  3.5939
  321MOL0     H43286   4.005   6.178   4.453 -1.9790  0.5294  0.0979
  321MOL0     H43287   3.921   5.943   4.562  0.6879  1.4419 -0.5422
  321MOL0     H43288   3.913   5.802   4.471  0.3856 -1.6426  0.1801
  321MOL0     H43289   4.184   5.927   4.534  1.5858 -1.9462 -0.8957
  321MOL0     H43290   4.118   5.777   4.595  0.0391 -0.5298 -0.0129
  321MOL0     H43291   4.266   5.713   4.417  0.7557  1.8090 -1.0839
  321MOL0     H43292   4.177   5.820   4.305  0.6429  1.3207  2.1526
  321MOL0     H43293   4.138   5.581   4.278  2.1595 -0.2026  2.4008
  321MOL0     H43294   3.989   5.683   4.309  2.3289  4.9547 -0.4651
  321MOL0     H43295   3.994   5.403   4.651  1.8103 -0.2719 -0.6478
  321MOL0     H43296   3.798   5.241   4.666  0.3539 -2.0889 -0.0105
  321MOL0     H43297   3.317   5.339   4.607  2.4761 -3.0617  2.7264
  321MOL0     H43298   3.087   5.299   4.630  0.7047 -1.1889  0.9221
  321MOL0     H43299   2.933   4.909   4.542 -1.2489 -0.1350 -0.6838
  321MOL0     H43300   2.970   5.044   4.659 -1.7538  1.5139  0.0222
  321MOL0     H43301   2.745   4.997   4.709 -2.5110 -2.1170 -0.9450
  321MOL0     H43302   2.762   5.150   4.627  1.0293  0.4769 -2.6741
  321MOL0     H43303   2.681   5.060   4.414 -2.5004 -0.8745 -1.4656
  321MOL0     H43304   2.716   4.902   4.443 -3.4525 -1.6864  0.3537
  321MOL0     H43305   2.477   5.025   4.598  0.2826  2.0289 -2.4810
  321MOL0     H43306   2.533   4.856   4.607  2.0661  0.0143 -0.2316
  321MOL0     H43307   2.360   4.844   4.458  1.0122 -0.7234  0.5661
  321MOL0     H43308   2.508   4.848   4.361  1.7284  1.4121  0.9103
  321MOL0     H43309   2.469   5.094   4.294 -1.4654  2.3827 -0.3860
  321MOL0     H43310   2.316   5.012   4.284 -0.3314  1.5667 -0.1908
  321MOL0     H43311   2.398   5.198   4.496  0.5904 -1.9090 -0.9540
  321MOL0     H43312   2.254   5.105   4.506 -1.7514  1.0574 -0.9460
  321MOL0     H43313   2.162   5.311   4.439 -1.5491  0.3224 -0.7643
  321MOL0     H43314   2.259   5.331   4.299  0.5044  1.6984  1.8292
  321MOL0     H43315   3.112   5.001   4.322 -2.2801  1.6349 -1.2135
  321MOL0     H43316   3.365   5.054   4.297 -0.1126  0.9779  0.5232
  321MOL0     H43317   3.673   5.377   4.274  0.6712 -0.8283 -0.5642
  321MOL0     H43318   3.867   5.521   4.256 -2.3091  2.9144  2.4584
  321MOL0     H43319   2.952   6.126   3.789 -2.9015 -0.0898  1.9550
  321MOL0     H43320   2.854   5.911   3.745  2.2002 -1.5623 -1.1573
  321MOL0     H43321   2.909   5.489   3.808  0.0080 -0.6386  0.3376
  321MOL0     H43322   2.832   5.258   3.763  0.2301  0.5195  1.4035
  321MOL0     H43323   2.503   4.987   3.759  0.8683 -1.0788  1.0857
  321MOL0     H43324   2.437   5.150   3.766 -0.8136 -2.6970 -1.6013
  321MOL0     H43325   2.421   5.120   4.012 -3.0640 -0.3129  0.0764
  321MOL0     H43326   2.483   4.955   4.002 -0.3155  1.3116  0.9454
  321MOL0     H43327   2.214   5.058   3.909 -2.0595 -1.0628  1.8652
  321MOL0     H43328   2.260   4.916   4.010 -0.9970  0.7769  1.6202
  321MOL0     H43329   2.180   4.837   3.810  0.8725 -1.1103 -1.1583
  321MOL0     H43330   2.269   4.942   3.720  1.7564 -0.4007  0.1055
  321MOL0     H43331   2.517   4.593   3.803  0.5750  0.3066  0.2517
  321MOL0     H43332   2.457   5.313   3.944  1.4181 -4.1834 -2.3198
  321MOL0     H43333   2.454   5.671   3.974  1.1409  0.2084 -0.1928
  321MOL0     H43334   2.398   5.512   4.032  1.1544 -2.6588 -2.4464
  321MOL0     H43335   2.526   5.595   4.115  0.4494 -1.4382 -0.3293
  322MOL0     O43336  10.908   8.728   6.371 -0.3238  0.2379  0.4819
  322MOL0     C43337  10.803   8.676   6.407  0.4378 -0.1442 -1.5531
  322MOL0     O43338  10.714   8.624   6.327 -0.3711 -0.4320  0.2842
  322MOL0     C43339  10.695   8.669   6.197  0.9272  0.2403 -0.2283
  322MOL0     C43340  10.744   8.787   6.134 -0.1098  0.3224  0.6975
  322MOL0     C43341  10.704   8.802   6.003 -0.0343 -0.3633 -0.6063
  322MOL0     C43342  10.620   8.719   5.935  0.6674  0.0046 -0.2699
  322MOL0     O43343  10.555   8.774   5.820 -1.0328  0.6262 -0.3957
  322MOL0     C43344  10.474   8.688   5.741 -0.5504  0.4027  0.4040
  322MOL0     C43345  10.402   8.776   5.629  0.5848 -0.0820 -0.2199
  322MOL0     C43346  10.417   8.928   5.646  1.1357 -0.5846  0.4737
  322MOL0     C43347  10.324   8.992   5.542  0.5261  0.2033  0.2448
  322MOL0     C43348  10.316   9.143   5.553 -0.4248  0.7168  0.1910
  322MOL0     C43349  10.231   9.193   5.682  0.7275  0.0266 -0.3384
  322MOL0     C43350  10.213   9.340   5.692 -0.3687 -0.1678  0.3249
  322MOL0     C43351  10.097   9.374   5.785  0.6122  0.0758 -0.1306
  322MOL0     N43352  10.117   9.309   5.917 -0.3715  0.1281 -0.1239
  322MOL0     C43353  10.056   9.200   5.973  0.0610 -0.9408  0.1045
  322MOL0     C43354  10.111   9.192   6.093 -0.0329 -0.2770  0.7764
  322MOL0     C43355  10.068   9.100   6.201  0.2027  0.2415 -0.2324
  322MOL0     C43356  10.025   8.955   6.152 -0.1058 -0.2434  0.5726
  322MOL0     C43357   9.869   8.941   6.159 -0.5143  0.0189 -0.2895
  322MOL0     C43358   9.814   8.847   6.056  0.1582 -0.0156  0.6852
  322MOL0     O43359   9.837   8.876   5.915  0.0841 -0.0687 -0.1417
  322MOL0     C43360   9.774   8.979   5.856 -0.1908 -0.7444  0.3767
  322MOL0     C43361   9.831   9.017   5.729 -0.0306  0.0209 -0.6138
  322MOL0     C43362   9.765   9.094   5.638 -0.8543 -0.0231  0.2967
  322MOL0     C43363   9.647   9.159   5.682  0.4695 -0.0155  0.0336
  322MOL0     C43364   9.578   9.231   5.573 -0.2878  0.8653 -0.0355
  322MOL0     O43365   9.483   9.314   5.620 -0.8163  0.5978  0.0988
  322MOL0     C43366   9.401   9.384   5.530  0.2347  0.0079  0.2129
  322MOL0     C43367   9.270   9.346   5.480 -0.8910  0.9425  0.7233
  322MOL0     C43368   9.206   9.409   5.367 -1.2168  0.6437 -0.6788
  322MOL0     C43369   9.263   9.526   5.323 -0.4063 -0.3379  0.1472
  322MOL0     O43370   9.205   9.597   5.221 -0.0566 -0.1729  0.2067
  322MOL0     C43371   9.156   9.725   5.247 -0.0139  0.4688 -0.0331
  322MOL0     C43372   9.106   9.783   5.115  0.1372 -0.8969 -0.1147
  322MOL0     C43373   9.041   9.919   5.114 -0.5306 -0.0335 -0.0643
  322MOL0     C43374   9.017   9.973   4.979  0.6140 -0.0739  0.6162
  322MOL0     C43375   9.129   9.965   4.884  1.2719 -0.0844  1.1029
  322MOL0     C43376   9.087  10.002   4.736  0.1123  0.4202  0.2199
  322MOL0     C43377   9.210   9.998   4.642 -0.2206 -0.2486 -0.5144
  322MOL0     C43378   9.188  10.049   4.506  0.2250 -0.2620  0.5750
  322MOL0    Cl43379   9.157  10.225   4.490 -0.0523 -0.5728 -0.5901
  322MOL0     C43380   9.389   9.569   5.366  0.4539 -0.3132 -0.1644
  322MOL0     C43381   9.454   9.494   5.465 -0.6167  0.6306  0.3575
  322MOL0     O43382   9.597   9.198   5.458  0.0393 -0.0242 -0.1978
  322MOL0     C43383   9.599   9.132   5.807 -0.3328  0.0486  1.7009
  322MOL0     C43384   9.656   9.042   5.894 -0.6697 -1.3294  0.6113
  322MOL0     N43385  10.208   9.290   6.112  0.8449 -0.5697 -0.4137
  322MOL0     N43386  10.213   9.363   6.003  0.5924  0.4771 -0.0087
  322MOL0     C43387  10.590   8.602   5.991 -0.0116  0.6282 -0.1400
  322MOL0     C43388  10.642   8.567   6.120  0.8904  0.6531  0.0899
  322MOL0     C43389  10.763   8.650   6.546  0.5452  0.5417  0.4817
  322MOL0     C43390  10.634   8.595   6.589  0.1399 -0.2687 -1.0655
  322MOL0     C43391  10.599   8.591   6.721 -0.5230 -0.0043  1.5465
  322MOL0     C43392  10.697   8.622   6.820 -0.8734 -0.2951  0.1864
  322MOL0     O43393  10.663   8.629   6.951 -0.2760  0.5575 -0.0606
  322MOL0     C43394  10.648   8.504   7.008 -0.3197  0.0364  0.2541
  322MOL0     C43395  10.602   8.541   7.153  0.4704  0.4806 -0.0721
  322MOL0     C43396  10.717   8.604   7.229  1.4182  0.1641 -0.1916
  322MOL0     C43397  10.662   8.639   7.373 -0.4523  0.5615  0.1538
  322MOL0     C43398  10.631   8.515   7.453  0.3991 -0.1987 -0.0264
  322MOL0     C43399  10.621   8.434   7.544 -0.3020 -0.1633  0.6323
  322MOL0     C43400  10.827   8.671   6.788  0.8877  0.9906  0.5552
  322MOL0     C43401  10.857   8.687   6.648 -0.9424  0.2583  0.5793
  322MOL0     C43402  11.004   8.720   6.615 -0.8607  0.5441 -0.2761
  322MOL0     H43403  10.816   8.850   6.186 -0.3410 -0.8404  2.4851
  322MOL0     H43404  10.733   8.896   5.958 -1.6325  1.3232  1.6640
  322MOL0     H43405  10.529   8.618   5.677 -2.2691  0.6532 -1.4711
  322MOL0     H43406  10.401   8.624   5.792 -3.3852  0.1434 -3.4671
  322MOL0     H43407  10.294   8.758   5.640  0.0818  2.0529 -1.2115
  322MOL0     H43408  10.442   8.744   5.532 -0.2586 -0.1970 -0.5397
  322MOL0     H43409  10.523   8.951   5.631  1.5599 -2.8486 -0.4613
  322MOL0     H43410  10.374   8.948   5.744 -3.1473 -1.5628 -0.9916
  322MOL0     H43411  10.345   8.959   5.440  2.1352 -1.3517  1.0164
  322MOL0     H43412  10.220   8.969   5.569  0.9695  1.2605  3.2384
  322MOL0     H43413  10.415   9.188   5.561  0.6382 -1.6066  1.0000
  322MOL0     H43414  10.273   9.189   5.464 -0.7193  3.0832  1.4865
  322MOL0     H43415  10.132   9.149   5.668  0.6765 -0.0757  0.2835
  322MOL0     H43416  10.290   9.153   5.766  0.9530 -1.2527 -1.0801
  322MOL0     H43417  10.187   9.381   5.594 -0.4321  2.9684  1.5219
  322MOL0     H43418  10.301   9.395   5.730  1.2076 -0.1203 -3.0581
  322MOL0     H43419  10.091   9.482   5.803 -1.7598  0.3112 -1.7247
  322MOL0     H43420  10.003   9.341   5.739  0.5717 -0.4046  0.3016
  322MOL0     H43421  10.000   9.128   5.913  2.0169 -1.6911 -0.9080
  322MOL0     H43422  10.152   9.093   6.270 -0.0133 -1.2633 -0.0994
  322MOL0     H43423   9.981   9.130   6.260  0.9238 -1.8661  2.0778
  322MOL0     H43424  10.060   8.944   6.048 -1.2855  1.1977 -0.0104
  322MOL0     H43425  10.083   8.883   6.210  2.9439  1.2739 -0.3831
  322MOL0     H43426   9.831   9.042   6.143  1.0900  0.8154  0.6051
  322MOL0     H43427   9.845   8.909   6.261  0.0572 -1.2681 -0.5297
  322MOL0     H43428   9.706   8.858   6.073  0.0468  0.1957 -0.1042
  322MOL0     H43429   9.844   8.744   6.075 -2.1598 -0.5541  1.7828
  322MOL0     H43430   9.924   8.972   5.697  0.5895  1.7269 -1.3399
  322MOL0     H43431   9.825   9.113   5.550 -1.4441  2.2812  0.3316
  322MOL0     H43432   9.224   9.257   5.523  2.3600 -2.5694 -2.3587
  322MOL0     H43433   9.106   9.370   5.349 -1.3672 -0.0712  1.3900
  322MOL0     H43434   9.067   9.719   5.310  0.1268 -1.3038  0.0412
  322MOL0     H43435   9.227   9.791   5.298  0.8894  0.9780 -1.8424
  322MOL0     H43436   9.200   9.784   5.060  0.1244 -1.9438 -0.1745
  322MOL0     H43437   9.036   9.712   5.070 -2.0469  0.2302  1.3029
  322MOL0     H43438   8.946   9.920   5.168 -0.8306  4.1736 -0.3403
  322MOL0     H43439   9.112   9.984   5.165  0.2695 -1.1088  0.2245
  322MOL0     H43440   8.977  10.075   4.988 -1.7383 -1.1495  4.2278
  322MOL0     H43441   8.944   9.909   4.928  1.6877  2.6829 -5.2649
  322MOL0     H43442   9.178   9.867   4.883  1.9719  0.1662  3.4209
  322MOL0     H43443   9.202  10.040   4.918 -1.2298  1.2509  3.9636
  322MOL0     H43444   9.028   9.917   4.700  1.7836  0.1863 -2.1800
  322MOL0     H43445   9.026  10.091   4.721  0.9642  0.7076 -1.9533
  322MOL0     H43446   9.248   9.896   4.642  0.3493 -0.1850  3.0166
  322MOL0     H43447   9.289  10.052   4.695 -0.5209 -1.5564  1.3705
  322MOL0     H43448   9.277  10.024   4.448  1.2052 -0.0005  1.9184
  322MOL0     H43449   9.102   9.988   4.478  1.0862 -2.0364  1.6039
  322MOL0     H43450   9.428   9.663   5.328 -0.2056 -0.4084 -1.1394
  322MOL0     H43451   9.558   9.509   5.492 -0.4754  0.0307  0.1503
  322MOL0     H43452   9.495   9.164   5.816 -0.6190  0.4441 -1.5994
  322MOL0     H43453   9.602   9.040   5.988  0.6960  1.4912  1.5682
  322MOL0     H43454  10.537   8.527   5.934 -0.7731  1.4361 -0.5273
  322MOL0     H43455  10.618   8.470   6.162  3.0683  0.2441  0.5068
  322MOL0     H43456  10.559   8.578   6.512 -0.9566  0.4831 -0.1944
  322MOL0     H43457  10.509   8.565   6.776 -0.5287 -0.9228  1.1239
  322MOL0     H43458  10.746   8.455   7.011  2.2603  4.1183 -3.7673
  322MOL0     H43459  10.579   8.436   6.957 -0.7163  1.2707 -0.8996
  322MOL0     H43460  10.559   8.451   7.198 -1.4611 -0.5311 -3.5569
  322MOL0     H43461  10.517   8.609   7.146 -0.0070 -0.2517 -2.0677
  322MOL0     H43462  10.747   8.699   7.185 -0.8925  2.0480  2.0308
  322MOL0     H43463  10.799   8.532   7.232  1.1887 -0.0886  0.1354
  322MOL0     H43464  10.733   8.704   7.424  1.1094  1.5339 -3.0267
  322MOL0     H43465  10.572   8.700   7.364 -1.6160 -1.0677  0.2446
  322MOL0     H43466  10.626   8.375   7.633  2.4505 -0.4853  0.3304
  322MOL0     H43467  10.888   8.690   6.875 -0.8659  2.5340  1.5170
  322MOL0     H43468  11.005   8.821   6.572  1.7980  1.2143  1.1632
  322MOL0     H43469  11.051   8.738   6.712 -4.7421 -0.3774  2.0249
  322MOL0     H43470  11.058   8.647   6.555 -0.9190  0.8440 -0.7039
  323MOL0     O43471  10.669  11.128  11.396 -0.4772 -0.4366 -0.6435
  323MOL0     C43472  10.714  11.058  11.493  0.8042 -0.6315 -0.4636
  323MOL0     O43473  10.712  10.924  11.511  0.2360 -0.0637  0.1201
  323MOL0     C43474  10.686  10.846  11.401  0.0608  0.4912  0.6790
  323MOL0     C43475  10.761  10.730  11.383  0.5442 -0.4419 -0.3800
  323MOL0     C43476  10.711  10.623  11.300  0.1482 -0.1436  0.2916
  323MOL0     C43477  10.598  10.647  11.210 -0.5370 -0.0065  0.3595
  323MOL0     O43478  10.536  10.561  11.125  0.4842 -1.0472 -0.0821
  323MOL0     C43479  10.614  10.440  11.089  0.9370 -1.1529  0.2795
  323MOL0     C43480  10.541  10.383  10.963  0.2526 -0.1495  0.8827
  323MOL0     C43481  10.570  10.230  10.952  0.3813 -0.1459  0.4831
  323MOL0     C43482  10.478  10.170  10.852 -0.0184  0.0921  0.3125
  323MOL0     C43483  10.498  10.021  10.838  0.3055  0.2083  0.4557
  323MOL0     C43484  10.416   9.939  10.735 -0.6472 -0.7871  0.0133
  323MOL0     C43485  10.437   9.785  10.766 -0.7107  0.1567 -0.3893
  323MOL0     C43486  10.555   9.726  10.677  0.1875 -0.6922 -0.4799
  323MOL0     N43487  10.513   9.705  10.538 -0.4928  0.7674 -0.1500
  323MOL0     C43488  10.384   9.701  10.489 -0.0127 -0.1753  0.6873
  323MOL0     C43489  10.390   9.643  10.370 -0.2168 -0.8788  0.7582
  323MOL0     C43490  10.274   9.628  10.271  0.6606  0.2226 -0.3447
  323MOL0     C43491  10.154   9.545  10.312 -0.2661 -0.0734 -0.6529
  323MOL0     C43492  10.202   9.412  10.384 -0.0399  0.1444 -0.6887
  323MOL0     C43493  10.262   9.310  10.275 -0.4452 -1.0808 -0.3065
  323MOL0     O43494  10.170   9.309  10.168  0.5088  0.0833  0.0333
  323MOL0     C43495  10.155   9.211  10.080 -0.4906  0.5517 -0.4796
  323MOL0     C43496  10.217   9.085  10.094  0.3446  0.1460 -0.8317
  323MOL0     C43497  10.181   8.983  10.000  0.2436 -0.8023  0.0381
  323MOL0     C43498  10.095   9.010   9.893 -0.7586 -0.2680  0.4826
  323MOL0     C43499  10.053   8.906   9.808 -0.5575  0.4616 -0.5897
  323MOL0     O43500  10.140   8.793   9.806  0.5132 -0.2423  0.0217
  323MOL0     C43501  10.148   8.705   9.703 -0.1387  0.2296  0.9072
  323MOL0     C43502  10.245   8.607   9.711 -0.2450 -0.6407 -0.6673
  323MOL0     C43503  10.266   8.520   9.607 -0.0330  0.2279  0.8650
  323MOL0     C43504  10.199   8.536   9.482 -0.0197 -0.1639 -0.2401
  323MOL0     O43505  10.220   8.443   9.381 -0.1422 -0.3863  0.2931
  323MOL0     C43506  10.169   8.454   9.242  0.4190 -0.3082 -0.3065
  323MOL0     C43507  10.185   8.327   9.154 -0.3506  0.6902 -0.0626
  323MOL0     C43508  10.093   8.332   9.026 -0.1255 -0.4286  0.8660
  323MOL0     C43509  10.129   8.463   8.951  0.2534  0.7381  0.1567
  323MOL0     C43510  10.030   8.483   8.833  0.9770 -0.2521  0.6421
  323MOL0     C43511  10.036   8.608   8.736  1.2077  1.2284  1.1115
  323MOL0     C43512  10.186   8.647   8.699  0.6095  0.6167 -0.2936
  323MOL0     C43513  10.184   8.757   8.593  0.0341  0.4148 -0.3557
  323MOL0    Cl43514  10.226   8.703   8.430 -0.3091  0.2391  0.0750
  323MOL0     C43515  10.110   8.645   9.471 -1.4102  0.3977  0.1340
  323MOL0     C43516  10.091   8.728   9.580  0.7622 -0.6854 -1.0632
  323MOL0     O43517   9.950   8.918   9.740 -0.2398  0.7432 -0.1879
  323MOL0     C43518  10.034   9.143   9.883 -0.6801 -0.2706  0.0497
  323MOL0     C43519  10.073   9.236   9.977  0.3134  1.0115  0.1412
  323MOL0     N43520  10.517   9.595  10.345 -0.9858  0.7405  0.7569
  323MOL0     N43521  10.593   9.631  10.448 -0.2207  0.2300  0.3112
  323MOL0     C43522  10.542  10.775  11.213 -0.9596  0.2817 -0.6579
  323MOL0     C43523  10.580  10.869  11.319 -0.1735  0.0538 -0.5430
  323MOL0     C43524  10.775  11.130  11.614 -0.1339 -0.2690  0.7241
  323MOL0     C43525  10.849  11.056  11.706 -0.1640  0.5265 -0.0608
  323MOL0     C43526  10.897  11.118  11.825  0.0018 -0.4943  0.3345
  323MOL0     C43527  10.889  11.250  11.847 -0.0397 -0.4430 -0.6774
  323MOL0     O43528  10.922  11.288  11.974 -0.0479 -0.9035 -0.6003
  323MOL0     C43529  10.939  11.437  11.999  0.1030 -0.6777  0.0705
  323MOL0     C43530  10.975  11.459  12.143 -0.1144 -0.1306 -0.0563
  323MOL0     C43531  10.938  11.607  12.194  0.2902  0.1957  0.6565
  323MOL0     C43532  11.046  11.666  12.284  0.4419 -0.2502  0.9296
  323MOL0     C43533  11.143  11.759  12.227  0.4143  0.0206  0.3529
  323MOL0     C43534  11.223  11.830  12.170 -0.3023  0.1490  0.0877
  323MOL0     C43535  10.824  11.332  11.753  0.2076  0.5164  0.6296
  323MOL0     C43536  10.768  11.271  11.645 -0.2260 -0.5669  1.6633
  323MOL0     C43537  10.679  11.370  11.562 -0.9985  0.0096  0.4986
  323MOL0     H43538  10.833  10.700  11.458  0.3842 -1.4071 -0.6006
  323MOL0     H43539  10.744  10.520  11.303  0.4474 -0.1908 -2.2732
  323MOL0     H43540  10.721  10.454  11.072  0.6710  3.5756  1.0082
  323MOL0     H43541  10.601  10.371  11.173 -1.0286  1.6163  2.4490
  323MOL0     H43542  10.574  10.445  10.879  2.3887  0.6989  2.2605
  323MOL0     H43543  10.434  10.401  10.975 -0.1838 -0.6954 -1.6429
  323MOL0     H43544  10.555  10.204  11.057 -0.5065  0.6072  0.5531
  323MOL0     H43545  10.672  10.215  10.917  0.3125  0.8236 -0.1589
  323MOL0     H43546  10.376  10.201  10.875 -0.0351 -0.4349  0.9721
  323MOL0     H43547  10.489  10.217  10.754 -2.3840 -0.4705 -0.2672
  323MOL0     H43548  10.605  10.020  10.814  0.5465  2.8844  1.1848
  323MOL0     H43549  10.483   9.970  10.934  0.6684  2.5367  1.8038
  323MOL0     H43550  10.307   9.951  10.745 -0.8578 -3.3592  1.5629
  323MOL0     H43551  10.446   9.966  10.633  1.4380  1.3258  1.0864
  323MOL0     H43552  10.356   9.720  10.731 -0.8869  0.2900 -0.2281
  323MOL0     H43553  10.444   9.758  10.872  0.7387  0.9129 -0.2689
  323MOL0     H43554  10.629   9.805  10.676  0.6868 -0.9118  3.2523
  323MOL0     H43555  10.591   9.632  10.720 -1.5097 -1.5955 -0.9228
  323MOL0     H43556  10.301   9.758  10.528  0.8081  1.9582 -0.5158
  323MOL0     H43557  10.248   9.732  10.252 -1.9905 -0.6723 -2.2258
  323MOL0     H43558  10.305   9.586  10.175 -0.1189 -4.3007  1.1293
  323MOL0     H43559  10.089   9.591  10.387 -1.4928 -1.1689 -0.9964
  323MOL0     H43560  10.086   9.527  10.228 -2.2812  1.3487  0.5642
  323MOL0     H43561  10.114   9.363  10.426  0.6177 -0.9148 -0.4776
  323MOL0     H43562  10.267   9.423  10.472 -0.5933 -4.0933  0.4811
  323MOL0     H43563  10.272   9.210  10.317 -1.7720 -1.2971 -0.4736
  323MOL0     H43564  10.356   9.341  10.227 -0.8022  1.9522  0.7380
  323MOL0     H43565  10.284   9.050  10.172 -0.5609 -0.6716 -0.4183
  323MOL0     H43566  10.227   8.885  10.009  3.6068  0.5447 -0.7826
  323MOL0     H43567  10.294   8.595   9.807 -0.8393 -1.6843 -0.4732
  323MOL0     H43568  10.342   8.444   9.620  1.2704  1.2958 -0.2746
  323MOL0     H43569  10.062   8.476   9.249  0.8174  2.7668 -2.2896
  323MOL0     H43570  10.226   8.535   9.196 -2.9150  1.9217 -0.8900
  323MOL0     H43571  10.288   8.312   9.120 -0.6546 -1.9038 -0.0091
  323MOL0     H43572  10.161   8.231   9.202 -2.6391 -0.7570 -3.7156
  323MOL0     H43573  10.122   8.243   8.969 -3.9514 -2.6816  2.0630
  323MOL0     H43574   9.985   8.333   9.039 -0.3683  3.8728 -0.0771
  323MOL0     H43575  10.235   8.463   8.923  0.6546 -0.8849  1.4752
  323MOL0     H43576  10.111   8.550   9.015 -2.5032  0.1211  0.3492
  323MOL0     H43577   9.929   8.489   8.875  0.0904  1.7042 -1.5646
  323MOL0     H43578  10.043   8.394   8.770 -0.3563 -1.0209  1.4143
  323MOL0     H43579   9.987   8.575   8.644  2.5617 -1.4309  1.2429
  323MOL0     H43580   9.993   8.697   8.783  1.0225  1.7011  0.0690
  323MOL0     H43581  10.248   8.569   8.653 -1.0038 -1.3882  0.7461
  323MOL0     H43582  10.232   8.679   8.793  1.0802 -0.3614 -0.1701
  323MOL0     H43583  10.097   8.824   8.595  0.9132  1.6009 -0.4388
  323MOL0     H43584  10.263   8.825   8.625  0.0349 -1.3095  3.8971
  323MOL0     H43585  10.067   8.680   9.378 -1.7833  0.5242  0.3538
  323MOL0     H43586  10.027   8.812   9.555 -3.2525 -2.3315  2.4838
  323MOL0     H43587   9.963   9.158   9.803  0.6900  0.5593 -1.0578
  323MOL0     H43588  10.033   9.336   9.960 -1.4329  0.1520 -1.1136
  323MOL0     H43589  10.465  10.798  11.141 -1.0119  0.4590 -0.5451
  323MOL0     H43590  10.509  10.950  11.328  1.5180  1.3782  2.6470
  323MOL0     H43591  10.861  10.949  11.695  1.1692  0.5440  0.9667
  323MOL0     H43592  10.945  11.060  11.904  3.9527  1.8498 -0.0482
  323MOL0     H43593  10.841  11.484  11.986 -0.2763 -0.6235  2.6832
  323MOL0     H43594  11.017  11.485  11.939 -0.3398  3.6633  2.6072
  323MOL0     H43595  11.082  11.441  12.152  0.6066  3.5765  0.3088
  323MOL0     H43596  10.922  11.409  12.225 -0.2480  2.5554  1.5943
  323MOL0     H43597  10.844  11.594  12.248 -0.2111 -2.7471 -0.7371
  323MOL0     H43598  10.915  11.678  12.114 -1.4343  1.7121  2.4042
  323MOL0     H43599  10.982  11.724  12.351 -3.7542 -2.9799 -0.2490
  323MOL0     H43600  11.101  11.584  12.331 -1.5085 -1.9386  0.4255
  323MOL0     H43601  11.290  11.892  12.113 -0.6510  1.4080  1.0027
  323MOL0     H43602  10.797  11.436  11.770 -2.3511  0.1014 -0.4987
  323MOL0     H43603  10.718  11.472  11.569  0.1307 -0.5021  5.5524
  323MOL0     H43604  10.668  11.344  11.456  2.4164  1.0281 -0.2255
  323MOL0     H43605  10.579  11.369  11.607 -1.2040  0.0834  0.0488
  324MOL0     O43606   4.288   1.599   4.404 -0.1742  0.5042  0.0071
  324MOL0     C43607   4.337   1.532   4.315 -0.1351 -0.2025 -0.9123
  324MOL0     O43608   4.470   1.510   4.300  0.2066 -0.1386  0.1438
  324MOL0     C43609   4.550   1.545   4.401 -0.2188  0.2863 -0.2153
  324MOL0     C43610   4.615   1.674   4.397 -0.2385 -0.4162 -0.6934
  324MOL0     C43611   4.704   1.698   4.503 -0.6733 -0.7488  0.6795
  324MOL0     C43612   4.707   1.613   4.611 -0.6427  0.4701  0.7288
  324MOL0     O43613   4.795   1.657   4.711 -0.7905 -0.3342 -0.1998
  324MOL0     C43614   4.739   1.641   4.843  0.4239  0.0425 -0.2123
  324MOL0     C43615   4.806   1.730   4.943 -1.1937  0.2289 -0.5492
  324MOL0     C43616   4.944   1.712   4.985  0.4394  0.2131  0.3450
  324MOL0     C43617   5.025   1.822   5.054 -0.0610  0.2090  0.2944
  324MOL0     C43618   5.145   1.750   5.115 -0.2621  0.4197 -0.1819
  324MOL0     C43619   5.185   1.800   5.249 -0.3415 -0.2881  0.1365
  324MOL0     C43620   5.221   1.954   5.244  0.6501 -0.0266  0.1947
  324MOL0     C43621   5.193   2.010   5.388 -0.8227  0.8790  0.5551
  324MOL0     N43622   5.173   2.156   5.389  0.4099  0.3757 -1.1798
  324MOL0     C43623   5.196   2.249   5.291  0.4912 -1.5061 -0.2149
  324MOL0     C43624   5.150   2.372   5.351  0.3704  0.9219  0.2234
  324MOL0     C43625   5.129   2.508   5.285 -0.2896  0.8856  0.3527
  324MOL0     C43626   5.256   2.588   5.282  0.3381 -0.0266  1.1250
  324MOL0     C43627   5.257   2.731   5.329  0.4001  0.6580  0.3223
  324MOL0     C43628   5.162   2.819   5.251  0.3257  0.7052  0.0529
  324MOL0     O43629   5.038   2.831   5.318  0.6814  0.8814 -0.4727
  324MOL0     C43630   4.923   2.854   5.258  0.0216  0.4892  0.7661
  324MOL0     C43631   4.927   2.928   5.128  0.0177 -0.3044  0.1114
  324MOL0     C43632   4.809   2.951   5.069  0.4219  0.0139 -0.4178
  324MOL0     C43633   4.686   2.903   5.128  0.2361 -0.2258  1.1310
  324MOL0     C43634   4.564   2.898   5.045 -0.8909  0.3168  0.1792
  324MOL0     O43635   4.446   2.862   5.103 -0.2367  0.2667 -0.1921
  324MOL0     C43636   4.334   2.868   5.023  0.1827 -0.2239 -1.1957
  324MOL0     C43637   4.256   2.749   4.989 -0.9391  0.5046  0.4474
  324MOL0     C43638   4.128   2.760   4.925  0.1394 -0.6238 -0.1478
  324MOL0     C43639   4.083   2.889   4.880  0.5479  0.6637 -0.4274
  324MOL0     O43640   3.954   2.889   4.826 -0.6671 -0.2768  0.2997
  324MOL0     C43641   3.903   3.018   4.777 -0.1329 -0.8466 -0.6744
  324MOL0     C43642   3.769   2.977   4.726 -0.3345  1.0538 -0.2019
  324MOL0     C43643   3.670   2.952   4.846 -0.2059  0.3335  0.5139
  324MOL0     C43644   3.523   2.954   4.803 -0.8058 -0.4723  0.5464
  324MOL0     C43645   3.431   2.917   4.922 -0.6943  0.2500 -0.1926
  324MOL0     C43646   3.286   2.896   4.869  0.1726  0.4579  0.5777
  324MOL0     C43647   3.192   2.844   4.979 -0.1482 -0.0501 -0.6269
  324MOL0     C43648   3.059   2.770   4.926 -0.5564  0.0991 -0.5496
  324MOL0    Cl43649   3.110   2.602   4.881 -0.4485 -0.5972  0.1230
  324MOL0     C43650   4.152   3.011   4.916  0.2235  0.3921  0.1986
  324MOL0     C43651   4.267   2.996   4.992  0.5020  0.2574 -0.0551
  324MOL0     O43652   4.574   2.914   4.919 -0.3793 -0.2713  0.2910
  324MOL0     C43653   4.685   2.829   5.244 -0.4861 -0.6193 -0.7007
  324MOL0     C43654   4.806   2.804   5.315  0.6938 -0.0911  0.4948
  324MOL0     N43655   5.111   2.341   5.479  0.1315 -0.1494  0.0429
  324MOL0     N43656   5.115   2.218   5.496  0.1624  0.0479  0.2015
  324MOL0     C43657   4.638   1.493   4.611 -0.2906  0.2851  0.2824
  324MOL0     C43658   4.558   1.450   4.502  0.4286 -0.3851 -0.8835
  324MOL0     C43659   4.263   1.497   4.196  0.7272 -0.6891 -0.0912
  324MOL0     C43660   4.314   1.524   4.068 -0.0261 -0.7695  1.1560
  324MOL0     C43661   4.249   1.483   3.949 -0.1484  0.1648  0.8273
  324MOL0     C43662   4.139   1.400   3.952 -0.0501 -0.6717 -0.4517
  324MOL0     O43663   4.072   1.361   3.840  0.7519  0.7801  0.4316
  324MOL0     C43664   4.095   1.235   3.787  1.0419  0.0855  0.5360
  324MOL0     C43665   3.975   1.145   3.829 -0.1284  0.7475  0.1012
  324MOL0     C43666   3.849   1.192   3.756 -0.5392 -0.3633 -0.2988
  324MOL0     C43667   3.846   1.168   3.607  0.1605  0.4362 -0.2817
  324MOL0     C43668   3.719   1.215   3.536 -0.1267  0.3444  0.0823
  324MOL0     C43669   3.618   1.253   3.475 -0.7160  0.0906  0.9924
  324MOL0     C43670   4.090   1.369   4.086  0.6778 -1.6631  0.4771
  324MOL0     C43671   4.143   1.420   4.206 -0.0067  0.1583  1.1208
  324MOL0     C43672   4.099   1.378   4.342  0.1232  0.8514 -0.5283
  324MOL0     H43673   4.600   1.742   4.313  0.1931  1.9627  1.0511
  324MOL0     H43674   4.752   1.795   4.507 -0.1664 -0.9759  0.1419
  324MOL0     H43675   4.633   1.666   4.851  0.3832 -0.5428  1.5548
  324MOL0     H43676   4.766   1.542   4.881 -0.1460 -0.7015 -1.6555
  324MOL0     H43677   4.755   1.717   5.039 -0.9868  0.7323 -0.3688
  324MOL0     H43678   4.779   1.832   4.917  1.4361  1.0420 -0.4354
  324MOL0     H43679   4.997   1.674   4.897 -2.3675  0.9900 -1.8141
  324MOL0     H43680   4.938   1.626   5.052  0.8828 -0.0020  0.1182
  324MOL0     H43681   5.055   1.907   4.992 -1.3696  0.5063  0.0514
  324MOL0     H43682   4.963   1.855   5.138  0.7902  0.6001  0.7810
  324MOL0     H43683   5.121   1.646   5.136  0.2061  0.4744  0.6369
  324MOL0     H43684   5.234   1.748   5.052 -1.8513 -2.7628 -2.6168
  324MOL0     H43685   5.102   1.786   5.319 -0.1104 -1.0081  0.2837
  324MOL0     H43686   5.263   1.731   5.285 -1.1987 -0.6661  1.3536
  324MOL0     H43687   5.154   2.010   5.177 -0.1948  0.8252  1.6861
  324MOL0     H43688   5.326   1.967   5.216  0.9231 -1.1576  0.6558
  324MOL0     H43689   5.096   1.976   5.426 -1.8809 -0.0898 -2.6897
  324MOL0     H43690   5.262   1.982   5.468 -0.4937  3.7520  1.3783
  324MOL0     H43691   5.237   2.251   5.190  5.4704  1.1547  1.5168
  324MOL0     H43692   5.100   2.508   5.180 -0.4935  0.3455  0.4027
  324MOL0     H43693   5.053   2.568   5.336 -2.1999 -0.2649 -0.9982
  324MOL0     H43694   5.329   2.536   5.346  0.1201  2.2675  3.3913
  324MOL0     H43695   5.297   2.588   5.181  1.5789  1.2716  1.5894
  324MOL0     H43696   5.360   2.769   5.320  0.2423  0.7676 -1.5051
  324MOL0     H43697   5.223   2.743   5.432  1.0402  1.3099  0.4686
  324MOL0     H43698   5.142   2.785   5.148  0.9537  3.1307 -0.9471
  324MOL0     H43699   5.204   2.920   5.253 -1.7172  1.6971 -1.9731
  324MOL0     H43700   5.023   2.963   5.090 -0.9696  2.3992 -0.1278
  324MOL0     H43701   4.802   3.000   4.973  0.8407  2.1607  0.5903
  324MOL0     H43702   4.298   2.653   5.018 -5.0323 -2.3691 -2.1654
  324MOL0     H43703   4.067   2.680   4.886 -2.0680  1.4699 -1.3070
  324MOL0     H43704   3.888   3.087   4.861  1.9687 -2.8136  1.4444
  324MOL0     H43705   3.965   3.070   4.704 -1.2478  0.5777 -0.6547
  324MOL0     H43706   3.723   3.057   4.668 -2.9344  2.1533  3.1083
  324MOL0     H43707   3.764   2.885   4.666  2.2026  1.3232 -0.9498
  324MOL0     H43708   3.697   2.862   4.902 -3.8672 -0.4293  1.3333
  324MOL0     H43709   3.682   3.036   4.915 -0.3109  3.0979 -2.5938
  324MOL0     H43710   3.502   2.885   4.722  1.4314  0.3540 -0.8483
  324MOL0     H43711   3.507   3.057   4.768 -2.8637 -1.5926 -2.1678
  324MOL0     H43712   3.449   2.992   4.999  1.0749 -0.3396  0.0198
  324MOL0     H43713   3.468   2.821   4.959 -3.1457 -0.9128 -0.5311
  324MOL0     H43714   3.253   2.996   4.839  0.6495  0.6370  0.6487
  324MOL0     H43715   3.277   2.827   4.784  0.3546  1.2615 -0.0959
  324MOL0     H43716   3.150   2.927   5.036 -1.0682 -1.9722  1.6538
  324MOL0     H43717   3.235   2.770   5.048 -3.5457 -2.0529 -0.4234
  324MOL0     H43718   2.988   2.784   5.009 -1.1152  0.9689 -1.1539
  324MOL0     H43719   3.031   2.825   4.836  0.5987  1.0337 -0.3671
  324MOL0     H43720   4.105   3.106   4.889 -4.1775 -1.6504 -0.2409
  324MOL0     H43721   4.307   3.090   5.032  3.6755 -1.5340  1.4099
  324MOL0     H43722   4.596   2.789   5.292  0.2171  0.5262  1.6817
  324MOL0     H43723   4.790   2.733   5.395 -1.8332 -1.2946 -0.9399
  324MOL0     H43724   4.654   1.429   4.697 -1.0535 -1.3795 -0.7663
  324MOL0     H43725   4.514   1.350   4.509 -1.1501  0.3694  1.5390
  324MOL0     H43726   4.405   1.582   4.058  1.2906 -2.2233  3.7623
  324MOL0     H43727   4.285   1.509   3.850  1.3743  0.2529  1.3739
  324MOL0     H43728   4.193   1.192   3.808  0.1020 -2.7347 -0.4216
  324MOL0     H43729   4.109   1.249   3.679  5.9631  2.2351  1.1936
  324MOL0     H43730   3.958   1.156   3.936 -1.8371 -0.4599 -0.0048
  324MOL0     H43731   3.992   1.041   3.798 -3.3827 -1.3079  4.3047
  324MOL0     H43732   3.845   1.300   3.770 -0.5551 -0.2167 -1.3803
  324MOL0     H43733   3.759   1.146   3.798  0.7534 -1.2091  1.7231
  324MOL0     H43734   3.932   1.208   3.552  2.2907 -1.7678  1.2464
  324MOL0     H43735   3.860   1.061   3.589  0.9988  0.5295 -0.2283
  324MOL0     H43736   3.533   1.264   3.410 -0.7449 -1.0889  0.8133
  324MOL0     H43737   3.998   1.311   4.089 -0.6281  0.0131 -2.7659
  324MOL0     H43738   4.039   1.459   4.384  0.0390  0.1971  0.6451
  324MOL0     H43739   4.041   1.285   4.336 -2.3070  2.3190 -0.8489
  324MOL0     H43740   4.186   1.351   4.403 -0.3470  2.7460  1.0713
  325MOL0     O43741   9.345   6.661   1.897 -0.1995  0.0229 -0.1143
  325MOL0     C43742   9.294   6.545   1.900 -0.2448  0.0983 -1.4934
  325MOL0     O43743   9.183   6.495   1.835 -1.0620  0.3718 -0.2357
  325MOL0     C43744   9.098   6.584   1.777 -0.0898  0.1290 -0.7759
  325MOL0     C43745   9.046   6.696   1.843  0.8112 -0.7381 -0.6155
  325MOL0     C43746   8.955   6.785   1.782 -0.5286  1.0247  0.2159
  325MOL0     C43747   8.896   6.767   1.652 -1.1389  0.4362 -0.7444
  325MOL0     O43748   8.825   6.849   1.576  0.6340  0.9640  0.1201
  325MOL0     C43749   8.821   6.992   1.602 -0.6099  1.2014 -0.1387
  325MOL0     C43750   8.720   7.056   1.502 -0.8108 -0.1256  0.6949
  325MOL0     C43751   8.581   7.032   1.550  0.2389  0.1232  0.0731
  325MOL0     C43752   8.481   7.142   1.503 -0.1096  0.5256 -0.1197
  325MOL0     C43753   8.450   7.133   1.357  0.9431 -0.1745 -0.0084
  325MOL0     C43754   8.377   7.010   1.300 -1.3676 -0.3390  0.1554
  325MOL0     C43755   8.326   7.017   1.149 -1.1883  0.0776 -0.1470
  325MOL0     C43756   8.246   7.154   1.120 -0.1577  0.4454  0.1770
  325MOL0     N43757   8.193   7.164   0.986 -0.2827  0.3082  0.8517
  325MOL0     C43758   8.164   7.288   0.923  0.7165 -0.6299  0.3472
  325MOL0     C43759   8.094   7.244   0.813  1.0929 -1.0891  0.3352
  325MOL0     C43760   8.065   7.329   0.695 -0.2645  0.8090 -0.6748
  325MOL0     C43761   7.957   7.437   0.730  0.2127  1.2923  0.8377
  325MOL0     C43762   7.813   7.381   0.762 -0.7631 -0.0680  0.6079
  325MOL0     C43763   7.759   7.297   0.645  0.4514 -0.5051  0.0932
  325MOL0     O43764   7.621   7.345   0.636 -0.3724  0.4618  0.4862
  325MOL0     C43765   7.545   7.267   0.555 -0.9252  1.0952 -0.0321
  325MOL0     C43766   7.412   7.265   0.599  0.6041 -0.0756  0.1262
  325MOL0     C43767   7.316   7.207   0.516  1.0586  0.1078  0.8566
  325MOL0     C43768   7.342   7.154   0.383 -0.6627  0.0257 -0.4486
  325MOL0     C43769   7.229   7.096   0.308  0.6976  0.4355  0.3324
  325MOL0     O43770   7.229   7.106   0.168  0.0584 -0.2118 -0.0942
  325MOL0     C43771   7.126   7.038   0.103  0.2149  0.3187 -0.1902
  325MOL0     C43772   7.140   6.898   0.066 -0.5730 -0.9121  0.0962
  325MOL0     C43773   7.035   6.838  -0.010  0.1782  0.0022  0.3034
  325MOL0     C43774   6.930   6.916  -0.064 -0.3791  0.4123 -0.7197
  325MOL0     O43775   6.821   6.848  -0.122  0.6783  0.3276  0.1265
  325MOL0     C43776   6.696   6.922  -0.136  0.4300  0.0985 -0.4909
  325MOL0     C43777   6.592   6.815  -0.180 -0.1699  0.0873 -0.4162
  325MOL0     C43778   6.479   6.878  -0.253  0.1080  0.3463 -1.2094
  325MOL0     C43779   6.356   6.775  -0.265 -0.0546 -0.9119  0.1571
  325MOL0     C43780   6.254   6.829  -0.367  0.2222  0.1672 -0.1971
  325MOL0     C43781   6.184   6.948  -0.306  0.1702 -0.4819 -0.5536
  325MOL0     C43782   6.056   6.977  -0.392 -0.5200  0.1002  0.3828
  325MOL0     C43783   5.977   7.102  -0.348 -0.2827  0.4283 -0.6973
  325MOL0    Cl43784   6.072   7.248  -0.289  0.2777 -0.0613 -0.1620
  325MOL0     C43785   6.931   7.059  -0.038  0.2802  0.0450 -0.7565
  325MOL0     C43786   7.030   7.112   0.042  0.2287  0.0114 -1.0619
  325MOL0     O43787   7.147   7.038   0.377  0.7289  0.3818 -0.0859
  325MOL0     C43788   7.474   7.155   0.352  0.0655  0.4906 -0.7588
  325MOL0     C43789   7.580   7.213   0.431  0.9103 -0.4349  0.4942
  325MOL0     N43790   8.079   7.103   0.813 -0.3613  0.0996  0.3774
  325MOL0     N43791   8.150   7.056   0.914  0.7586 -0.5079 -0.0652
  325MOL0     C43792   8.927   6.648   1.597 -0.2082  0.5909 -0.1690
  325MOL0     C43793   9.028   6.555   1.653 -0.0067  0.0471 -0.2753
  325MOL0     C43794   9.368   6.442   1.973 -1.1905 -0.8863  0.8597
  325MOL0     C43795   9.315   6.315   1.971 -0.0315 -0.3691  0.8202
  325MOL0     C43796   9.384   6.209   2.018  0.5941  0.2740 -0.0142
  325MOL0     C43797   9.497   6.219   2.084 -0.1155  0.4191 -0.8698
  325MOL0     O43798   9.556   6.113   2.155  0.5035  0.0888  0.0363
  325MOL0     C43799   9.504   6.076   2.281 -0.3824  0.1906 -0.5012
  325MOL0     C43800   9.556   6.159   2.401  0.8606 -0.5548  0.6627
  325MOL0     C43801   9.714   6.135   2.406  0.7403 -0.5221  0.0290
  325MOL0     C43802   9.785   6.225   2.502 -0.0171 -0.5527 -0.6939
  325MOL0     C43803   9.783   6.364   2.450  0.0943  0.2316  0.3881
  325MOL0     C43804   9.797   6.465   2.388  0.1591 -0.8923 -0.0493
  325MOL0     C43805   9.548   6.345   2.103 -0.2269 -0.4472 -0.7991
  325MOL0     C43806   9.493   6.455   2.040 -0.3131  0.4625  0.2164
  325MOL0     C43807   9.570   6.577   2.035 -0.6285 -0.1764  0.2314
  325MOL0     H43808   9.080   6.719   1.943  3.5420 -0.6771 -1.4640
  325MOL0     H43809   8.930   6.878   1.834 -0.0227  0.8402  0.8066
  325MOL0     H43810   8.809   7.031   1.703 -1.4237  0.4670  0.0551
  325MOL0     H43811   8.919   7.033   1.576 -0.4403  1.5988  1.0637
  325MOL0     H43812   8.726   7.016   1.400 -1.3245  3.1412 -0.7560
  325MOL0     H43813   8.755   7.158   1.482  0.8055 -0.7272  0.3979
  325MOL0     H43814   8.589   7.036   1.659 -1.6881  2.0470  0.2173
  325MOL0     H43815   8.554   6.931   1.520  1.3803 -0.1875  0.0468
  325MOL0     H43816   8.386   7.135   1.557 -0.7736  2.3672 -0.9503
  325MOL0     H43817   8.528   7.238   1.527 -0.7891  0.6420  0.7937
  325MOL0     H43818   8.394   7.226   1.338 -1.2621 -1.5655 -0.7799
  325MOL0     H43819   8.543   7.141   1.300 -0.1305  0.8390 -1.7502
  325MOL0     H43820   8.434   6.920   1.319 -0.3973  0.1726 -0.2662
  325MOL0     H43821   8.293   7.011   1.370 -1.6088  1.0560 -0.1183
  325MOL0     H43822   8.264   6.928   1.132  1.4860 -1.6821 -1.4404
  325MOL0     H43823   8.404   7.018   1.072  0.4647 -4.8400  1.0492
  325MOL0     H43824   8.164   7.156   1.192 -0.9198  1.0609 -0.6841
  325MOL0     H43825   8.318   7.234   1.140 -0.1584  1.3930 -3.0975
  325MOL0     H43826   8.194   7.386   0.959  0.8295 -1.4098  2.5011
  325MOL0     H43827   8.163   7.370   0.666  1.0069 -1.4341  0.1736
  325MOL0     H43828   8.035   7.262   0.614 -0.5554  1.6600 -1.2781
  325MOL0     H43829   7.996   7.489   0.818  1.0655  1.4245  0.3921
  325MOL0     H43830   7.944   7.513   0.653 -0.5455  2.2348  1.8748
  325MOL0     H43831   7.750   7.470   0.773 -1.2333 -0.2484 -0.4780
  325MOL0     H43832   7.816   7.328   0.857  0.3712 -1.5484 -0.2180
  325MOL0     H43833   7.770   7.195   0.683  2.2609  0.8508  3.6592
  325MOL0     H43834   7.826   7.307   0.559  0.3390 -0.9193 -0.0444
  325MOL0     H43835   7.378   7.318   0.688 -3.3362 -0.3212 -1.0347
  325MOL0     H43836   7.219   7.203   0.565  1.1084 -1.4775  0.8715
  325MOL0     H43837   7.239   6.860   0.087 -0.0632 -0.7556 -1.8830
  325MOL0     H43838   7.040   6.731  -0.025  0.9634 -0.4987  3.3295
  325MOL0     H43839   6.670   6.965  -0.039  2.2785  2.6723 -1.0103
  325MOL0     H43840   6.704   6.996  -0.216 -1.9770 -0.4390 -1.3098
  325MOL0     H43841   6.642   6.745  -0.247 -0.9117 -1.1892  0.3316
  325MOL0     H43842   6.552   6.759  -0.095  0.6089  1.2184  0.7361
  325MOL0     H43843   6.440   6.966  -0.202 -0.7139 -0.1368 -0.9893
  325MOL0     H43844   6.512   6.918  -0.350  2.9964  1.4390  0.1106
  325MOL0     H43845   6.306   6.765  -0.168 -0.0569  1.9346  0.5360
  325MOL0     H43846   6.394   6.679  -0.302 -3.3187 -1.7095 -1.4689
  325MOL0     H43847   6.171   6.760  -0.380 -2.3801  2.3861  2.8968
  325MOL0     H43848   6.307   6.866  -0.455 -0.2251  0.2516 -0.4326
  325MOL0     H43849   6.161   6.943  -0.199 -0.3004 -0.2538 -0.6444
  325MOL0     H43850   6.251   7.033  -0.317  1.9115 -1.8378 -0.8729
  325MOL0     H43851   5.993   6.888  -0.385 -0.0264 -0.4634 -1.8281
  325MOL0     H43852   6.085   6.986  -0.497 -1.1825  0.9048  0.2494
  325MOL0     H43853   5.922   7.128  -0.439 -0.3055  1.3272 -0.4381
  325MOL0     H43854   5.909   7.071  -0.269  2.0214 -1.4858  0.6623
  325MOL0     H43855   6.858   7.125  -0.084 -0.8476 -1.2096 -0.8274
  325MOL0     H43856   7.045   7.220   0.041 -0.8208  0.1756 -0.1140
  325MOL0     H43857   7.509   7.091   0.272  0.7576 -2.3112  1.5835
  325MOL0     H43858   7.682   7.224   0.396  0.8395  1.7945  0.8679
  325MOL0     H43859   8.877   6.620   1.504 -2.5679  2.1341  0.5471
  325MOL0     H43860   9.063   6.464   1.607  0.6723  0.2992 -0.2730
  325MOL0     H43861   9.228   6.286   1.913 -0.3267  1.4214  0.3161
  325MOL0     H43862   9.342   6.111   1.999 -0.3826  0.5797  0.4803
  325MOL0     H43863   9.519   5.970   2.305 -0.3646 -0.0591 -1.5645
  325MOL0     H43864   9.396   6.085   2.272 -0.6015 -1.9098 -0.5996
  325MOL0     H43865   9.510   6.130   2.496 -1.5191  2.1996  0.5152
  325MOL0     H43866   9.536   6.265   2.382  1.1424 -0.5112  0.6091
  325MOL0     H43867   9.742   6.170   2.307  0.9202  0.3133  0.3709
  325MOL0     H43868   9.734   6.027   2.414  0.9138 -0.6347 -1.5995
  325MOL0     H43869   9.732   6.220   2.597  2.1794 -1.9466  0.5446
  325MOL0     H43870   9.890   6.198   2.514 -0.6077 -1.8288  2.5728
  325MOL0     H43871   9.826   6.536   2.313  0.0150 -2.4368 -1.6429
  325MOL0     H43872   9.643   6.356   2.155 -1.8597  2.2223  1.9729
  325MOL0     H43873   9.524   6.651   2.102 -0.2444  0.8947 -0.6635
  325MOL0     H43874   9.670   6.568   2.078  0.4431  5.0202 -0.4561
  325MOL0     H43875   9.579   6.623   1.936 -1.6360 -0.3390  0.0496
  326MOL0     O43876   7.314   0.379   0.605  0.6333  0.1835 -0.5074
  326MOL0     C43877   7.414   0.312   0.577 -0.8657  0.3142  0.0384
  326MOL0     O43878   7.428   0.226   0.475  0.5570 -0.1785  0.1400
  326MOL0     C43879   7.332   0.219   0.373 -0.1377 -0.0446  0.6132
  326MOL0     C43880   7.286   0.329   0.294  0.5942  0.5762 -0.6304
  326MOL0     C43881   7.204   0.313   0.185  0.1984  0.9520 -0.2198
  326MOL0     C43882   7.176   0.183   0.137  0.3386 -0.1335  0.0873
  326MOL0     O43883   7.131   0.162   0.007  0.2588 -0.1255  0.2174
  326MOL0     C43884   7.060   0.041  -0.021 -0.2959  0.1118  0.7940
  326MOL0     C43885   6.998   0.054  -0.165  1.0842 -0.3062  0.2075
  326MOL0     C43886   7.116   0.045  -0.266  0.0556 -0.2127  0.0167
  326MOL0     C43887   7.243   0.150  -0.258  0.3965 -0.5825 -0.4078
  326MOL0     C43888   7.318   0.176  -0.398 -0.4409  0.2363  0.0640
  326MOL0     C43889   7.432   0.271  -0.385  0.4781  0.0494 -0.8280
  326MOL0     C43890   7.545   0.240  -0.480  0.1882 -1.4438 -0.1004
  326MOL0     C43891   7.642   0.359  -0.505 -0.5185  0.4090  0.3244
  326MOL0     N43892   7.563   0.475  -0.561  0.0543  0.6577 -0.1125
  326MOL0     C43893   7.466   0.478  -0.652 -0.0146  0.4753 -0.4031
  326MOL0     C43894   7.468   0.604  -0.697  0.3476 -0.4324 -0.4090
  326MOL0     C43895   7.379   0.659  -0.801 -0.1878 -0.2192  0.3636
  326MOL0     C43896   7.438   0.652  -0.941 -0.1633  1.1586  0.5660
  326MOL0     C43897   7.340   0.658  -1.059  0.2807 -0.4773  0.3476
  326MOL0     C43898   7.266   0.798  -1.072 -0.4385  0.6586 -0.4082
  326MOL0     O43899   7.191   0.842  -0.962 -0.2852  0.5642 -0.0873
  326MOL0     C43900   7.068   0.784  -0.936 -0.4844 -0.7071 -0.1107
  326MOL0     C43901   7.019   0.796  -0.805 -0.4752  0.6863 -0.3990
  326MOL0     C43902   6.887   0.753  -0.774  0.7331  0.3499 -0.5135
  326MOL0     C43903   6.810   0.670  -0.857 -0.1902 -1.2711 -0.6081
  326MOL0     C43904   6.672   0.632  -0.828 -0.8554 -0.5273  0.0028
  326MOL0     O43905   6.620   0.537  -0.915  0.2496 -0.0022  0.3820
  326MOL0     C43906   6.490   0.502  -0.899 -0.1150  0.1083  0.5885
  326MOL0     C43907   6.428   0.467  -1.018  0.6911  0.3391  1.1652
  326MOL0     C43908   6.292   0.426  -1.015 -0.2632 -0.4913 -0.2371
  326MOL0     C43909   6.220   0.404  -0.895 -0.5786 -0.9014 -1.1752
  326MOL0     O43910   6.085   0.366  -0.900 -0.0340  0.0334  0.0121
  326MOL0     C43911   5.993   0.445  -0.816 -0.0687 -0.7730 -0.3431
  326MOL0     C43912   5.858   0.439  -0.873  1.4377  1.4753 -0.0072
  326MOL0     C43913   5.834   0.562  -0.966  0.2320  0.3740  0.2118
  326MOL0     C43914   5.936   0.573  -1.089 -0.9326 -0.5794 -0.6943
  326MOL0     C43915   5.943   0.713  -1.152  0.0477  0.4264  0.4059
  326MOL0     C43916   5.806   0.764  -1.200 -0.2924 -1.0431 -0.9293
  326MOL0     C43917   5.831   0.907  -1.244  0.5351  0.5793 -0.5020
  326MOL0     C43918   5.708   0.979  -1.315 -0.3723 -0.1714 -1.0243
  326MOL0    Cl43919   5.668   0.926  -1.487 -0.1554 -0.0822  0.3635
  326MOL0     C43920   6.285   0.445  -0.776 -0.6937  0.3382 -0.2821
  326MOL0     C43921   6.415   0.490  -0.779  0.6846 -0.9790  0.7669
  326MOL0     O43922   6.611   0.701  -0.748 -0.1647  0.7989 -0.4235
  326MOL0     C43923   6.865   0.657  -0.988 -0.8997  0.6777  0.6651
  326MOL0     C43924   6.989   0.704  -1.026 -0.2408 -0.7697 -0.2622
  326MOL0     N43925   7.560   0.678  -0.626 -1.0079  0.6496 -0.3901
  326MOL0     N43926   7.618   0.593  -0.547 -0.2520  0.3594 -0.0761
  326MOL0     C43927   7.220   0.076   0.208  0.0205 -0.8010 -0.1514
  326MOL0     C43928   7.294   0.088   0.329  0.3236 -0.7428  0.2764
  326MOL0     C43929   7.526   0.324   0.666 -0.4700 -0.2622  0.0975
  326MOL0     C43930   7.648   0.267   0.624 -0.9449 -0.3215 -0.5507
  326MOL0     C43931   7.761   0.259   0.714 -1.7230  0.5619  0.6769
  326MOL0     C43932   7.749   0.301   0.840 -0.4345  0.3844 -1.1507
  326MOL0     O43933   7.856   0.280   0.934 -0.3509 -0.3999  0.5507
  326MOL0     C43934   7.991   0.248   0.896 -0.0784 -0.2419 -0.5902
  326MOL0     C43935   8.088   0.265   1.017  0.3708  0.2309 -0.5335
  326MOL0     C43936   8.220   0.233   0.951 -0.0787  0.4656 -0.9041
  326MOL0     C43937   8.333   0.207   1.054 -0.1125 -0.2282  0.2713
  326MOL0     C43938   8.305   0.093   1.134  0.1550  0.5900 -0.0894
  326MOL0     C43939   8.282  -0.001   1.207 -0.2076  1.2870  0.5396
  326MOL0     C43940   7.632   0.354   0.886 -0.1331  0.0870 -0.1465
  326MOL0     C43941   7.520   0.365   0.803  1.1449 -0.7136  0.0434
  326MOL0     C43942   7.393   0.402   0.871 -1.0070 -0.3202  0.8596
  326MOL0     H43943   7.323   0.428   0.320  1.1351  0.1862  0.1217
  326MOL0     H43944   7.153   0.393   0.132 -3.4078 -0.7104  0.4415
  326MOL0     H43945   7.135  -0.038  -0.012 -0.2834 -0.0703 -0.6595
  326MOL0     H43946   6.977   0.023   0.049 -0.8949  3.4920  1.1285
  326MOL0     H43947   6.944   0.148  -0.170  0.7241 -0.5619 -1.1859
  326MOL0     H43948   6.940  -0.033  -0.199 -1.1299  1.5500 -1.0354
  326MOL0     H43949   7.060   0.063  -0.359 -1.6759  2.6305  1.4935
  326MOL0     H43950   7.145  -0.060  -0.254 -1.0134 -0.3551  1.6090
  326MOL0     H43951   7.204   0.245  -0.218  0.0102 -0.6023 -0.7380
  326MOL0     H43952   7.316   0.118  -0.183  1.4098  1.2723 -0.5229
  326MOL0     H43953   7.372   0.086  -0.429  2.8265  0.7934  3.3732
  326MOL0     H43954   7.240   0.214  -0.464  0.8682  1.8243 -0.6105
  326MOL0     H43955   7.394   0.371  -0.407  1.5712  1.0688  1.5250
  326MOL0     H43956   7.466   0.285  -0.282  0.1399 -0.0699 -0.6987
  326MOL0     H43957   7.498   0.206  -0.572  0.6370 -1.8842 -0.1771
  326MOL0     H43958   7.602   0.148  -0.462  5.5713  0.3663 -4.6328
  326MOL0     H43959   7.705   0.365  -0.416 -2.3495  0.1145  1.6949
  326MOL0     H43960   7.706   0.326  -0.588  1.7469  2.9107  0.9450
  326MOL0     H43961   7.418   0.390  -0.694  0.4845 -0.3558  0.7174
  326MOL0     H43962   7.284   0.605  -0.794 -0.1447 -0.2114  1.0756
  326MOL0     H43963   7.358   0.763  -0.774  1.3459  0.1098  0.3639
  326MOL0     H43964   7.503   0.737  -0.963 -0.5849  1.0116 -1.4204
  326MOL0     H43965   7.491   0.559  -0.962 -3.6398 -0.5741 -1.3538
  326MOL0     H43966   7.267   0.577  -1.054  0.3443 -0.4679  1.7904
  326MOL0     H43967   7.412   0.653  -1.142  1.9743 -1.8166  1.8146
  326MOL0     H43968   7.211   0.791  -1.166 -1.6124 -5.3403  0.2845
  326MOL0     H43969   7.345   0.873  -1.084  1.1974 -1.3023 -2.9399
  326MOL0     H43970   7.083   0.840  -0.729 -1.7820 -0.1905  1.2538
  326MOL0     H43971   6.854   0.773  -0.672  2.9716  0.9618  0.1592
  326MOL0     H43972   6.474   0.471  -1.117  1.0745  2.6902  1.3789
  326MOL0     H43973   6.238   0.400  -1.105 -2.2761  0.6355  0.5804
  326MOL0     H43974   5.986   0.408  -0.714  1.1469 -0.3276 -0.0799
  326MOL0     H43975   6.024   0.550  -0.815 -1.5863 -0.3066  0.4422
  326MOL0     H43976   5.851   0.350  -0.937  4.1026  2.5003 -1.9272
  326MOL0     H43977   5.786   0.439  -0.791  1.2469 -2.8140  0.0301
  326MOL0     H43978   5.733   0.553  -1.007 -1.1395 -2.3122  3.7415
  326MOL0     H43979   5.829   0.661  -0.918 -0.0980  2.2873 -3.3814
  326MOL0     H43980   5.919   0.498  -1.167  0.0288 -2.4905  0.8272
  326MOL0     H43981   6.037   0.555  -1.051 -0.3152 -1.2211 -2.5187
  326MOL0     H43982   6.016   0.735  -1.230  0.6718 -1.6372  0.3562
  326MOL0     H43983   5.971   0.769  -1.062 -1.8396 -1.8148  2.5275
  326MOL0     H43984   5.763   0.713  -1.288 -1.2677 -2.5587  0.3741
  326MOL0     H43985   5.729   0.757  -1.122  1.2109  1.0648  0.8374
  326MOL0     H43986   5.921   0.923  -1.304  2.2360  1.1308  2.0399
  326MOL0     H43987   5.848   0.961  -1.150  0.9473 -1.2869  0.5425
  326MOL0     H43988   5.622   0.978  -1.248  0.0563 -1.0001 -0.4690
  326MOL0     H43989   5.732   1.086  -1.315 -0.3993 -0.0826  2.1054
  326MOL0     H43990   6.238   0.435  -0.679  1.4328  0.5679  0.8458
  326MOL0     H43991   6.454   0.527  -0.684  1.1749  0.9792 -0.1349
  326MOL0     H43992   6.807   0.613  -1.068 -0.5065 -0.5533  1.0264
  326MOL0     H43993   7.003   0.704  -1.134  2.8178 -1.0404  0.0476
  326MOL0     H43994   7.229  -0.027   0.175  1.7214 -0.4560 -0.8891
  326MOL0     H43995   7.348   0.010   0.381 -1.1646 -2.6241 -0.8476
  326MOL0     H43996   7.659   0.255   0.517 -1.0107 -0.5074 -0.5365
  326MOL0     H43997   7.849   0.207   0.678 -1.6948  0.4979  0.8422
  326MOL0     H43998   8.023   0.307   0.809  1.1030 -0.4899 -0.3338
  326MOL0     H43999   7.980   0.144   0.862 -5.1532 -0.1000 -0.1576
  326MOL0     H44000   8.065   0.192   1.096  0.1037  1.6102  0.7018
  326MOL0     H44001   8.094   0.364   1.062 -0.2832  0.2796 -0.5486
  326MOL0     H44002   8.260   0.295   0.871 -1.5253  2.0740 -0.4479
  326MOL0     H44003   8.204   0.139   0.898 -0.4703  2.0796 -3.8957
  326MOL0     H44004   8.420   0.203   0.988  0.4698  0.4008  0.9859
  326MOL0     H44005   8.337   0.293   1.122 -2.3386  2.1792 -2.3571
  326MOL0     H44006   8.255  -0.084   1.269 -1.4914  1.9960  0.9634
  326MOL0     H44007   7.631   0.365   0.994  0.6144 -3.9036  0.4158
  326MOL0     H44008   7.326   0.320   0.844  0.8685 -1.2295 -1.3130
  326MOL0     H44009   7.407   0.416   0.979 -0.4042 -3.3344  1.2700
  326MOL0     H44010   7.358   0.493   0.822  2.1673 -0.7421 -2.6664
  327MOL0     O44011   5.189   6.529   6.406 -0.6933  0.0983 -0.0562
  327MOL0     C44012   5.188   6.611   6.495 -0.8139 -0.1007  0.3111
  327MOL0     O44013   5.228   6.737   6.481 -0.6113  0.2247  0.1892
  327MOL0     C44014   5.262   6.774   6.354  0.0901 -0.6072 -0.3394
  327MOL0     C44015   5.357   6.703   6.273 -0.3830  0.0789 -0.9638
  327MOL0     C44016   5.386   6.757   6.143 -0.4973  1.0764  0.9838
  327MOL0     C44017   5.305   6.855   6.084  0.0660 -0.3763  0.1012
  327MOL0     O44018   5.332   6.910   5.959  0.0593  0.4598 -0.4596
  327MOL0     C44019   5.350   6.823   5.849 -1.0120  0.2485  0.1247
  327MOL0     C44020   5.368   6.895   5.717  0.3265 -0.4324  0.3350
  327MOL0     C44021   5.242   6.998   5.697  1.1158  0.2085 -0.6045
  327MOL0     C44022   5.116   6.922   5.656 -0.1369 -0.4253  0.2542
  327MOL0     C44023   5.002   7.024   5.678  0.1213 -0.8808  0.5145
  327MOL0     C44024   4.875   6.945   5.647 -0.0575  0.6249 -0.1139
  327MOL0     C44025   4.755   6.997   5.564  0.5867 -0.5583  0.0912
  327MOL0     C44026   4.809   7.064   5.431 -0.0943 -1.0033 -0.2495
  327MOL0     N44027   4.696   7.138   5.363  0.2160 -0.1160 -0.0988
  327MOL0     C44028   4.571   7.079   5.327 -0.6845  1.0041 -0.6256
  327MOL0     C44029   4.508   7.181   5.254  0.0217  0.3060 -0.3084
  327MOL0     C44030   4.366   7.179   5.191  0.0422 -0.3406 -0.2064
  327MOL0     C44031   4.338   7.055   5.107 -0.7897  0.6060  0.4524
  327MOL0     C44032   4.421   7.047   4.981 -0.3430 -1.0151  0.3807
  327MOL0     C44033   4.554   6.980   5.007 -0.6256  0.5591 -0.3550
  327MOL0     O44034   4.517   6.852   5.046  0.4836  0.3287 -1.1731
  327MOL0     C44035   4.621   6.785   5.111 -0.1458 -0.2978 -0.0293
  327MOL0     C44036   4.573   6.715   5.224  0.4583 -1.0303  0.8843
  327MOL0     C44037   4.654   6.652   5.304 -0.2841  0.8588 -0.1979
  327MOL0     C44038   4.791   6.667   5.295  0.9143 -0.1616  0.0749
  327MOL0     C44039   4.889   6.603   5.391 -0.4284  0.7146 -0.8447
  327MOL0     O44040   4.994   6.528   5.332 -0.1067  0.4039 -0.1838
  327MOL0     C44041   5.086   6.471   5.415 -0.1355  0.6135  0.9703
  327MOL0     C44042   5.104   6.333   5.421  1.1075  0.6622 -0.1893
  327MOL0     C44043   5.216   6.283   5.495 -0.9990  0.6643  0.8468
  327MOL0     C44044   5.320   6.369   5.555 -0.0961  0.0859  0.1692
  327MOL0     O44045   5.428   6.334   5.628 -0.5264  0.3939  0.0623
  327MOL0     C44046   5.446   6.193   5.670  0.1319  0.1679  0.4898
  327MOL0     C44047   5.532   6.120   5.566  0.1349  0.3808 -0.7584
  327MOL0     C44048   5.580   5.979   5.611  0.0750 -0.5997  0.3577
  327MOL0     C44049   5.460   5.895   5.649  0.1184 -0.8905  0.1644
  327MOL0     C44050   5.498   5.756   5.673 -0.4267 -0.0440  0.3349
  327MOL0     C44051   5.384   5.671   5.734  0.7941 -0.0540  0.3436
  327MOL0     C44052   5.415   5.541   5.785 -0.1583  0.1518  0.4860
  327MOL0     C44053   5.402   5.437   5.673 -0.0820 -0.2803 -0.2504
  327MOL0    Cl44054   5.429   5.269   5.738 -0.1052 -0.4458 -0.2353
  327MOL0     C44055   5.290   6.503   5.536  0.7947  0.0625  0.6212
  327MOL0     C44056   5.178   6.553   5.473  0.1423 -0.1349 -1.1951
  327MOL0     O44057   4.867   6.613   5.515  0.1679 -0.2896  0.1652
  327MOL0     C44058   4.842   6.735   5.195  0.4126 -0.2878 -0.0146
  327MOL0     C44059   4.757   6.793   5.095 -0.2255  0.2183 -0.1183
  327MOL0     N44060   4.592   7.289   5.244  0.1766 -0.0543  0.0538
  327MOL0     N44061   4.700   7.261   5.310  0.0057 -0.8323  0.0169
  327MOL0     C44062   5.223   6.937   6.172 -0.8973  0.5502 -0.6864
  327MOL0     C44063   5.202   6.896   6.311 -0.3538 -0.0446  0.6415
  327MOL0     C44064   5.129   6.582   6.625  0.1689 -0.0315  0.3932
  327MOL0     C44065   5.157   6.661   6.735 -0.0878 -0.3006 -0.7294
  327MOL0     C44066   5.116   6.629   6.865 -0.0670 -0.5690 -0.9781
  327MOL0     C44067   5.060   6.506   6.895 -0.1450 -0.0676 -0.0905
  327MOL0     O44068   5.027   6.485   7.023 -0.8769 -0.4386  0.6297
  327MOL0     C44069   4.995   6.352   7.073 -0.0435 -0.1521 -0.1552
  327MOL0     C44070   5.057   6.324   7.204  0.0730  0.2479 -0.1453
  327MOL0     C44071   5.212   6.350   7.210 -0.6045 -0.3515 -0.1133
  327MOL0     C44072   5.282   6.262   7.312 -0.9744 -0.5617  0.5254
  327MOL0     C44073   5.243   6.296   7.458  0.8937  0.7301  0.0496
  327MOL0     C44074   5.206   6.302   7.567 -1.3566 -0.1091  0.5631
  327MOL0     C44075   5.027   6.422   6.779 -0.9946  0.4315 -0.5126
  327MOL0     C44076   5.057   6.458   6.650  0.0266 -0.3741  0.6371
  327MOL0     C44077   5.008   6.371   6.534  0.5164  0.0731 -0.4521
  327MOL0     H44078   5.399   6.606   6.301 -1.0068 -0.2464 -1.1425
  327MOL0     H44079   5.457   6.703   6.081 -1.5677  0.2236  0.4610
  327MOL0     H44080   5.434   6.762   5.882 -1.3064  1.1317  2.7923
  327MOL0     H44081   5.267   6.753   5.836 -0.8109  0.3280 -1.9264
  327MOL0     H44082   5.372   6.825   5.633 -0.8954  2.4053 -2.3014
  327MOL0     H44083   5.460   6.952   5.723  1.1859 -1.8557  1.4182
  327MOL0     H44084   5.261   7.076   5.623 -3.4820  2.5383  0.3332
  327MOL0     H44085   5.220   7.056   5.786 -0.7250  3.9333 -3.2401
  327MOL0     H44086   5.131   6.886   5.554 -2.0765  1.0973 -0.6448
  327MOL0     H44087   5.097   6.835   5.719  0.7777  0.5157  1.9209
  327MOL0     H44088   4.990   7.059   5.781 -1.1666 -1.5790  0.6138
  327MOL0     H44089   5.023   7.110   5.614 -0.7008 -2.5302 -2.1301
  327MOL0     H44090   4.910   6.868   5.578  2.8742  1.8423 -0.1020
  327MOL0     H44091   4.835   6.897   5.736  2.1355  3.8836  2.8888
  327MOL0     H44092   4.687   7.069   5.610 -1.5372  1.0015 -4.7440
  327MOL0     H44093   4.697   6.909   5.537 -1.1576  1.1392 -2.1121
  327MOL0     H44094   4.880   7.146   5.443 -1.1550  0.2102 -1.7290
  327MOL0     H44095   4.860   6.989   5.370  0.1146 -3.2982  2.5829
  327MOL0     H44096   4.539   6.983   5.367  0.3864  1.1084  0.5608
  327MOL0     H44097   4.300   7.173   5.278  2.6025 -2.4497  1.7942
  327MOL0     H44098   4.347   7.268   5.131  0.4362  0.9114  1.4683
  327MOL0     H44099   4.350   6.963   5.165 -0.0678  0.3533 -0.0862
  327MOL0     H44100   4.232   7.053   5.077  0.0078 -4.7049 -3.3693
  327MOL0     H44101   4.435   7.146   4.936 -0.3593 -1.3028 -0.2694
  327MOL0     H44102   4.368   6.982   4.910  0.4558  0.0570 -1.2627
  327MOL0     H44103   4.621   7.032   5.076  1.2952 -3.8138  1.4009
  327MOL0     H44104   4.617   6.972   4.918 -1.8887  1.8249 -1.4083
  327MOL0     H44105   4.466   6.717   5.244 -0.2680  2.5426 -2.2155
  327MOL0     H44106   4.605   6.616   5.394 -0.7463  0.5158 -0.5849
  327MOL0     H44107   5.054   6.271   5.347  1.6871  1.2988 -1.1423
  327MOL0     H44108   5.236   6.177   5.505 -1.3130  0.7216  2.3315
  327MOL0     H44109   5.492   6.194   5.769 -1.3346  1.1043  1.2071
  327MOL0     H44110   5.348   6.147   5.685 -0.4602  0.2167 -2.5749
  327MOL0     H44111   5.479   6.129   5.471  0.3747  0.3034 -0.9022
  327MOL0     H44112   5.625   6.177   5.558  0.1025  0.6773  0.6917
  327MOL0     H44113   5.641   5.941   5.529 -1.5840 -2.0888 -0.2579
  327MOL0     H44114   5.639   5.993   5.702 -3.1991  0.6592  2.5126
  327MOL0     H44115   5.375   5.907   5.581 -0.1685  2.6851  0.9500
  327MOL0     H44116   5.412   5.920   5.744  0.5530 -3.7528  1.2270
  327MOL0     H44117   5.590   5.752   5.731 -1.5995  3.5025  2.7555
  327MOL0     H44118   5.524   5.708   5.578 -1.0955 -0.2708  0.2570
  327MOL0     H44119   5.336   5.727   5.815 -0.0237 -0.3515  0.0772
  327MOL0     H44120   5.305   5.654   5.661  2.6087  1.5441 -2.1664
  327MOL0     H44121   5.359   5.527   5.878  0.4526 -2.0735  0.5707
  327MOL0     H44122   5.520   5.546   5.816  0.9844  1.2963 -3.0351
  327MOL0     H44123   5.304   5.441   5.624 -0.7432 -1.8958  0.8704
  327MOL0     H44124   5.473   5.456   5.591 -1.5568  3.6879 -0.8460
  327MOL0     H44125   5.354   6.577   5.582 -1.1287  2.7040 -0.6969
  327MOL0     H44126   5.165   6.660   5.476  3.3006  0.3178  1.1269
  327MOL0     H44127   4.946   6.764   5.187 -0.3583  2.6014 -0.5896
  327MOL0     H44128   4.814   6.842   5.016 -0.3493  0.0225 -0.3307
  327MOL0     H44129   5.192   7.035   6.136 -1.0677  1.6780  2.2617
  327MOL0     H44130   5.127   6.951   6.366  2.8621  2.0077  3.4001
  327MOL0     H44131   5.207   6.756   6.724  0.5015 -0.1673  2.2994
  327MOL0     H44132   5.135   6.697   6.948  0.8912 -2.4313  0.4204
  327MOL0     H44133   5.030   6.270   7.010  4.9110 -0.0534  2.0356
  327MOL0     H44134   4.886   6.340   7.076  0.1413 -3.7335 -1.7792
  327MOL0     H44135   5.031   6.221   7.229  1.9953 -0.8848 -2.3817
  327MOL0     H44136   5.014   6.394   7.276  1.4377  0.3530  0.6073
  327MOL0     H44137   5.235   6.451   7.242  1.6346 -0.1669 -1.9992
  327MOL0     H44138   5.255   6.320   7.114 -1.6961 -2.1148 -0.1146
  327MOL0     H44139   5.249   6.163   7.278 -2.5374  0.5082 -1.2367
  327MOL0     H44140   5.389   6.274   7.297 -0.9055 -1.3450  0.3342
  327MOL0     H44141   5.178   6.307   7.671 -1.6989 -0.9298  0.5202
  327MOL0     H44142   4.994   6.320   6.797  5.2266 -2.1399 -1.1104
  327MOL0     H44143   4.972   6.444   6.460  0.5254  2.8196  2.0731
  327MOL0     H44144   5.093   6.311   6.499  1.4588  0.3095  1.3243
  327MOL0     H44145   4.931   6.299   6.562  2.4633 -0.9521  2.7724
  328MOL0     O44146   4.474   3.676   4.428 -0.1576 -0.0901 -0.8239
  328MOL0     C44147   4.525   3.777   4.492  0.0795  0.2913  0.1420
  328MOL0     O44148   4.622   3.860   4.445 -0.4965  0.1473  0.0791
  328MOL0     C44149   4.667   3.837   4.322 -0.4169 -0.4753  0.1687
  328MOL0     C44150   4.765   3.733   4.306  0.4157  0.0972  0.1677
  328MOL0     C44151   4.840   3.718   4.194  0.4971 -0.1077  0.0276
  328MOL0     C44152   4.824   3.807   4.089  1.0471 -0.0708 -0.3982
  328MOL0     O44153   4.891   3.801   3.969  0.0712 -0.1686  0.2497
  328MOL0     C44154   5.036   3.757   3.992 -0.0247 -0.0414 -0.6784
  328MOL0     C44155   5.094   3.690   3.866 -0.7666  0.2128 -0.3654
  328MOL0     C44156   5.024   3.567   3.835  0.2475 -0.1642  0.2918
  328MOL0     C44157   5.061   3.496   3.701  1.0927  1.1380  0.4230
  328MOL0     C44158   5.006   3.360   3.676 -0.2452  1.1053  0.4507
  328MOL0     C44159   4.849   3.364   3.683  0.3708  0.2084 -0.3390
  328MOL0     C44160   4.788   3.240   3.700  0.5794  0.6887 -0.2061
  328MOL0     C44161   4.769   3.177   3.562 -0.3677 -0.3487 -0.3110
  328MOL0     N44162   4.816   3.046   3.572 -0.2293 -0.1341 -0.1203
  328MOL0     C44163   4.746   2.957   3.647 -0.5052 -0.1177 -0.3327
  328MOL0     C44164   4.836   2.862   3.691  0.1559 -0.1021 -0.7674
  328MOL0     C44165   4.807   2.740   3.773 -0.2458  0.1985 -0.7747
  328MOL0     C44166   4.908   2.728   3.889 -0.2581 -0.5346 -0.2440
  328MOL0     C44167   4.868   2.829   3.992  0.8938 -0.8993 -0.9350
  328MOL0     C44168   4.980   2.849   4.088 -0.1960 -0.5517  0.0730
  328MOL0     O44169   4.934   2.859   4.224  0.1689  0.3919  0.2560
  328MOL0     C44170   5.015   2.879   4.334  0.1812  0.4128 -0.1483
  328MOL0     C44171   4.950   2.910   4.454 -0.2883  0.7041  0.1757
  328MOL0     C44172   5.014   2.942   4.574 -0.1373  0.0903  0.3027
  328MOL0     C44173   5.147   2.963   4.570 -0.4993 -0.4508 -0.1379
  328MOL0     C44174   5.223   3.017   4.692 -0.1998 -0.2424 -0.0049
  328MOL0     O44175   5.151   3.066   4.811 -0.8366 -0.6701  0.2864
  328MOL0     C44176   5.218   3.113   4.920 -0.4618  0.4322 -0.3414
  328MOL0     C44177   5.349   3.080   4.956  0.5757  0.0314  0.3324
  328MOL0     C44178   5.408   3.138   5.070 -0.1254  1.1893  0.4267
  328MOL0     C44179   5.336   3.218   5.154  0.5964  0.2288 -0.1218
  328MOL0     O44180   5.391   3.276   5.265 -0.1451  0.3155  0.0388
  328MOL0     C44181   5.538   3.274   5.262  0.2601  0.6727 -0.2336
  328MOL0     C44182   5.588   3.361   5.383  0.0413 -0.0484 -0.2551
  328MOL0     C44183   5.560   3.276   5.514 -0.1295  0.0697 -0.9231
  328MOL0     C44184   5.556   3.368   5.641 -0.2646 -0.2741 -0.2501
  328MOL0     C44185   5.415   3.426   5.657  0.9991 -0.8313  0.3002
  328MOL0     C44186   5.389   3.459   5.803 -0.1394  0.1985  0.1149
  328MOL0     C44187   5.243   3.508   5.810 -0.4397 -0.2318  1.0923
  328MOL0     C44188   5.209   3.539   5.947  0.3244 -0.5494 -0.4438
  328MOL0    Cl44189   5.228   3.397   6.051  0.3348  0.4277  0.0836
  328MOL0     C44190   5.203   3.252   5.127  0.5959 -0.4209  0.2741
  328MOL0     C44191   5.145   3.203   5.006  0.0455  0.8653 -0.1334
  328MOL0     O44192   5.341   3.041   4.662  0.3060 -0.0570 -0.7268
  328MOL0     C44193   5.224   2.938   4.448 -0.7642  0.3263  0.4972
  328MOL0     C44194   5.148   2.888   4.332  0.0686  0.5667 -0.2813
  328MOL0     N44195   4.958   2.897   3.640 -0.3403 -0.3726  0.6626
  328MOL0     N44196   4.945   3.017   3.586  0.2910  0.0538  0.4895
  328MOL0     C44197   4.722   3.908   4.104 -0.7860  0.2080  0.3075
  328MOL0     C44198   4.657   3.934   4.223 -0.6884 -0.7977  0.2828
  328MOL0     C44199   4.462   3.821   4.610 -0.8627  0.6219  0.1853
  328MOL0     C44200   4.535   3.883   4.710  0.1528 -0.1055  0.2681
  328MOL0     C44201   4.492   3.930   4.833 -0.4053 -0.8617 -0.9375
  328MOL0     C44202   4.352   3.919   4.860 -0.1255 -0.4097 -1.1262
  328MOL0     O44203   4.295   3.984   4.976 -0.3269  0.0994 -0.5943
  328MOL0     C44204   4.371   4.043   5.080  0.0832  0.3580 -0.2659
  328MOL0     C44205   4.275   4.133   5.171  0.5218 -0.4100 -0.2006
  328MOL0     C44206   4.348   4.242   5.259  0.3253  0.7835  0.4065
  328MOL0     C44207   4.461   4.320   5.179  0.6373  0.9482 -1.1931
  328MOL0     C44208   4.586   4.245   5.193 -0.7851 -0.1308  0.0287
  328MOL0     C44209   4.695   4.182   5.197  0.9241  0.2232  0.2965
  328MOL0     C44210   4.268   3.848   4.765  0.1829 -0.3286 -0.6119
  328MOL0     C44211   4.325   3.797   4.644 -0.6102  0.6853 -0.0872
  328MOL0     C44212   4.224   3.728   4.556  0.7313 -0.5432 -0.1296
  328MOL0     H44213   4.784   3.657   4.381  0.2703 -0.5514 -0.4438
  328MOL0     H44214   4.893   3.623   4.185  1.9202  0.8116 -2.1700
  328MOL0     H44215   5.102   3.838   4.023  2.5320 -1.5570 -1.8799
  328MOL0     H44216   5.044   3.669   4.055  0.0872  0.2086 -0.3409
  328MOL0     H44217   5.201   3.669   3.875 -0.5325  1.8608  1.1369
  328MOL0     H44218   5.081   3.763   3.785 -1.9085  0.4853  0.0471
  328MOL0     H44219   4.916   3.585   3.841  0.5408  2.3522 -0.9452
  328MOL0     H44220   5.038   3.489   3.911 -4.4193 -0.5252  1.0873
  328MOL0     H44221   5.026   3.555   3.616  3.2815  1.3154 -0.4157
  328MOL0     H44222   5.168   3.505   3.684  0.8992  2.0965 -0.3924
  328MOL0     H44223   5.054   3.314   3.589  0.2923 -2.3043  2.3442
  328MOL0     H44224   5.037   3.293   3.756  0.5429  0.3955 -0.4181
  328MOL0     H44225   4.819   3.414   3.776  0.7454 -1.6685  0.8444
  328MOL0     H44226   4.798   3.414   3.600 -2.5907 -0.3300  1.0239
  328MOL0     H44227   4.689   3.251   3.745  0.3362 -1.5523 -0.1233
  328MOL0     H44228   4.855   3.183   3.765  0.9604 -0.3265 -1.4407
  328MOL0     H44229   4.664   3.174   3.531 -1.1075  0.5336  1.9142
  328MOL0     H44230   4.828   3.233   3.488 -1.4121 -0.2011 -1.0598
  328MOL0     H44231   4.642   2.956   3.679 -0.5499 -1.7195 -0.4404
  328MOL0     H44232   4.711   2.732   3.824  2.3839 -2.2116  4.6226
  328MOL0     H44233   4.820   2.650   3.711 -0.4124 -1.1280  1.0393
  328MOL0     H44234   4.899   2.621   3.908  0.6861 -0.7001 -0.6413
  328MOL0     H44235   5.009   2.752   3.852 -0.5893 -0.9785 -1.4702
  328MOL0     H44236   4.778   2.795   4.045  2.3503 -0.2159  2.1917
  328MOL0     H44237   4.840   2.923   3.945  2.6670  0.9207  1.3914
  328MOL0     H44238   5.049   2.928   4.056  0.4822 -0.0789  2.4885
  328MOL0     H44239   5.039   2.757   4.088 -0.3858 -0.6857 -0.9964
  328MOL0     H44240   4.842   2.917   4.467 -0.3315  1.9859 -0.6647
  328MOL0     H44241   4.948   2.961   4.658 -1.2068 -1.5459 -0.1238
  328MOL0     H44242   5.413   3.010   4.904 -0.5047 -0.2616 -0.6381
  328MOL0     H44243   5.513   3.113   5.080  0.4704  1.0686 -4.0909
  328MOL0     H44244   5.560   3.167   5.269 -1.7070 -0.0478 -3.0604
  328MOL0     H44245   5.578   3.311   5.167  0.0088  0.3821 -0.4536
  328MOL0     H44246   5.693   3.390   5.390 -0.2626  1.9424 -2.5519
  328MOL0     H44247   5.533   3.456   5.387  2.1850  1.3325 -1.7189
  328MOL0     H44248   5.476   3.208   5.501  1.8604 -2.2664 -2.5093
  328MOL0     H44249   5.642   3.205   5.526 -0.8237 -0.6981 -0.6116
  328MOL0     H44250   5.636   3.441   5.640 -0.3810 -0.1498 -0.9095
  328MOL0     H44251   5.578   3.295   5.720 -0.5304 -0.7856 -0.6444
  328MOL0     H44252   5.340   3.354   5.623  1.3494 -0.8460 -0.4563
  328MOL0     H44253   5.409   3.512   5.590  1.8487  0.1191  1.3876
  328MOL0     H44254   5.400   3.364   5.858 -0.1843  2.4111  4.4076
  328MOL0     H44255   5.467   3.530   5.833 -0.3408  2.0246 -3.2413
  328MOL0     H44256   5.179   3.430   5.767 -1.4217 -0.0599  2.1917
  328MOL0     H44257   5.227   3.604   5.760 -1.8576  0.1529  2.2377
  328MOL0     H44258   5.283   3.615   5.976  1.4774 -1.5225 -0.7368
  328MOL0     H44259   5.109   3.582   5.959  1.2061  2.4017 -2.4684
  328MOL0     H44260   5.155   3.326   5.190 -1.1430  1.4972 -3.0070
  328MOL0     H44261   5.046   3.236   4.976 -0.9739 -2.3570 -0.7295
  328MOL0     H44262   5.332   2.944   4.439 -0.2307  0.9194  4.9600
  328MOL0     H44263   5.194   2.863   4.237 -0.1378  3.2038 -1.1715
  328MOL0     H44264   4.700   3.975   4.023 -0.1472 -0.6252 -0.5746
  328MOL0     H44265   4.609   4.031   4.232  1.1036  0.1816 -0.2563
  328MOL0     H44266   4.637   3.916   4.692  0.1171  0.5950  1.2564
  328MOL0     H44267   4.557   3.990   4.896 -0.9517 -0.7594 -0.4711
  328MOL0     H44268   4.454   4.102   5.040  2.1521 -0.8520  1.9579
  328MOL0     H44269   4.408   3.954   5.132 -0.2346  0.6145  0.4007
  328MOL0     H44270   4.220   4.082   5.251  0.5231 -0.5992 -0.3184
  328MOL0     H44271   4.200   4.180   5.107 -0.6655 -2.1889 -0.1865
  328MOL0     H44272   4.384   4.199   5.353 -0.1557  1.1038  0.7382
  328MOL0     H44273   4.278   4.324   5.277  1.5030  2.9890 -3.6473
  328MOL0     H44274   4.432   4.337   5.075 -0.1459 -0.2275 -1.1970
  328MOL0     H44275   4.476   4.417   5.227  1.5561 -0.5329  1.7542
  328MOL0     H44276   4.789   4.133   5.215 -0.6540 -4.2135 -2.2453
  328MOL0     H44277   4.163   3.826   4.782  0.7231 -2.9448 -0.2010
  328MOL0     H44278   4.264   3.628   4.543 -0.3816 -0.9435 -0.6049
  328MOL0     H44279   4.122   3.716   4.593 -0.5938  1.8708 -2.5662
  328MOL0     H44280   4.209   3.790   4.467 -0.5274 -2.5799 -1.4103
  329MOL0     O44281   1.118   4.900   2.916  0.4197  0.1241  0.6985
  329MOL0     C44282   0.999   4.879   2.883 -0.5778  0.6240  0.6154
  329MOL0     O44283   0.950   4.917   2.764 -0.3325  0.0709  0.6089
  329MOL0     C44284   1.000   5.030   2.704 -0.6845 -0.6840 -0.0220
  329MOL0     C44285   0.994   5.165   2.756 -0.6866  0.1625  0.2774
  329MOL0     C44286   1.059   5.271   2.683  0.3450 -0.0835 -0.0028
  329MOL0     C44287   1.116   5.250   2.558 -0.7384 -0.8397  0.4580
  329MOL0     O44288   1.187   5.336   2.478 -0.3380  0.2594  0.4017
  329MOL0     C44289   1.211   5.473   2.511 -0.1651  0.1139  1.3943
  329MOL0     C44290   1.312   5.551   2.432  0.8262 -0.7647 -0.2120
  329MOL0     C44291   1.356   5.694   2.496 -0.2308  0.0794  0.2187
  329MOL0     C44292   1.486   5.687   2.588 -0.1466 -0.1715 -0.0500
  329MOL0     C44293   1.479   5.807   2.684  0.1256  0.1785  0.3791
  329MOL0     C44294   1.604   5.817   2.765  0.2412 -0.3779 -0.2832
  329MOL0     C44295   1.716   5.861   2.670 -0.4062 -0.0173  0.4851
  329MOL0     C44296   1.833   5.940   2.746  1.2181 -0.0378  0.1947
  329MOL0     N44297   1.788   6.062   2.814 -0.3670 -0.5336  0.6022
  329MOL0     C44298   1.735   6.170   2.740 -0.5957  1.0315  0.3922
  329MOL0     C44299   1.704   6.247   2.848  0.0968 -0.4335 -1.2617
  329MOL0     C44300   1.639   6.385   2.845  0.1250 -0.0064  0.7784
  329MOL0     C44301   1.488   6.369   2.870 -0.6393  0.2735  0.8342
  329MOL0     C44302   1.463   6.363   3.024  0.5056 -0.3315 -0.2102
  329MOL0     C44303   1.311   6.338   3.067 -0.7097  0.5292 -0.1137
  329MOL0     O44304   1.244   6.451   3.020  0.3862  0.2098  0.4010
  329MOL0     C44305   1.110   6.444   3.010  0.1762 -0.4618 -0.9657
  329MOL0     C44306   1.050   6.535   2.931 -0.5909 -0.9815 -0.5319
  329MOL0     C44307   0.910   6.539   2.914 -0.5522 -0.4554 -0.6692
  329MOL0     C44308   0.824   6.450   2.980 -0.5146  0.5143 -0.2430
  329MOL0     C44309   0.679   6.443   2.959 -0.4401  0.2254  0.8936
  329MOL0     O44310   0.623   6.327   2.991  0.4921  0.5329  0.7202
  329MOL0     C44311   0.502   6.275   2.942  0.0207 -0.4004 -0.8896
  329MOL0     C44312   0.414   6.337   2.851 -0.1072 -0.1783 -0.0376
  329MOL0     C44313   0.295   6.276   2.821 -0.3939  1.2895 -0.4285
  329MOL0     C44314   0.254   6.153   2.880 -0.1264 -1.0542 -0.2748
  329MOL0     O44315   0.128   6.104   2.838  0.4942  0.3843 -0.2429
  329MOL0     C44316   0.124   5.961   2.802  0.9226 -0.5929  0.6504
  329MOL0     C44317   0.135   5.950   2.641 -0.2596 -0.2339  0.4361
  329MOL0     C44318   0.026   6.020   2.552  0.2905  0.7696 -0.8480
  329MOL0     C44319   0.080   6.124   2.458  0.2570 -0.7785 -0.2355
  329MOL0     C44320   0.135   6.077   2.326 -1.1031  0.2891 -0.3187
  329MOL0     C44321   0.140   6.190   2.222  0.2203 -0.7851  0.5270
  329MOL0     C44322   0.222   6.165   2.094  0.3435  0.0167 -0.3499
  329MOL0     C44323   0.254   6.301   2.044  0.4935  0.1435  0.1719
  329MOL0    Cl44324   0.382   6.382   2.122  0.2090  0.2257  0.3460
  329MOL0     C44325   0.338   6.090   2.975  0.2534 -0.3196  1.3696
  329MOL0     C44326   0.458   6.161   3.003  0.6249 -0.0762 -0.3311
  329MOL0     O44327   0.629   6.542   2.913  0.0374  0.8277  0.5355
  329MOL0     C44328   0.881   6.362   3.064  0.2757 -0.1079 -1.1919
  329MOL0     C44329   1.020   6.366   3.088 -0.2351  0.2974  0.3978
  329MOL0     N44330   1.754   6.197   2.971 -0.6532  0.0678  0.4080
  329MOL0     N44331   1.806   6.085   2.942 -0.1776 -0.6733 -0.2509
  329MOL0     C44332   1.117   5.118   2.504 -0.1973  0.1118  0.9638
  329MOL0     C44333   1.061   5.009   2.577 -0.2765 -0.6939 -0.6992
  329MOL0     C44334   0.908   4.803   2.973  0.4945 -0.4075  0.5578
  329MOL0     C44335   0.775   4.770   2.929  1.2374 -0.1061  0.4079
  329MOL0     C44336   0.682   4.706   3.016  0.9602 -0.2482 -0.4567
  329MOL0     C44337   0.720   4.665   3.144  0.8926 -0.4090  0.2909
  329MOL0     O44338   0.638   4.619   3.239  0.0263  0.1362  0.0868
  329MOL0     C44339   0.668   4.479   3.273  0.3326  1.4612 -0.4050
  329MOL0     C44340   0.637   4.378   3.158  0.0577 -0.6868 -0.5849
  329MOL0     C44341   0.752   4.337   3.075  0.1157 -0.6736  1.0191
  329MOL0     C44342   0.701   4.262   2.943 -0.6140  0.0398  0.6815
  329MOL0     C44343   0.820   4.225   2.861 -0.3935 -0.3250 -1.2939
  329MOL0     C44344   0.918   4.175   2.800  0.0192  0.1930 -0.1553
  329MOL0     C44345   0.852   4.692   3.179 -0.4412  0.0778  0.0438
  329MOL0     C44346   0.950   4.758   3.102  0.0137  0.8243 -0.6840
  329MOL0     C44347   1.083   4.774   3.164  0.4527 -0.9907 -0.0751
  329MOL0     H44348   0.951   5.183   2.854 -1.6764  0.0052 -0.1198
  329MOL0     H44349   1.052   5.365   2.737 -0.1554 -0.0113 -0.1823
  329MOL0     H44350   1.120   5.534   2.514  0.6208  1.4390  0.0519
  329MOL0     H44351   1.232   5.471   2.618 -1.5823 -0.8628  1.6843
  329MOL0     H44352   1.254   5.566   2.341 -0.4668 -3.5965  0.0454
  329MOL0     H44353   1.397   5.484   2.416  1.4609 -0.2544  0.9151
  329MOL0     H44354   1.269   5.720   2.558  1.7232 -2.1337  4.3300
  329MOL0     H44355   1.373   5.770   2.419  1.6423  0.0603  0.5590
  329MOL0     H44356   1.491   5.587   2.633  0.6618 -1.3721 -2.6020
  329MOL0     H44357   1.575   5.692   2.525 -1.3452  1.5239 -1.6994
  329MOL0     H44358   1.471   5.897   2.623 -0.0804  1.2070  1.8489
  329MOL0     H44359   1.396   5.794   2.755  0.2345 -1.0329  0.2986
  329MOL0     H44360   1.586   5.895   2.840  1.6826  0.7879 -1.1037
  329MOL0     H44361   1.620   5.718   2.808 -4.5127 -2.2876 -2.1861
  329MOL0     H44362   1.686   5.926   2.587  1.0521  1.1101  0.7957
  329MOL0     H44363   1.776   5.780   2.626 -2.1047 -1.1003  0.0896
  329MOL0     H44364   1.878   5.866   2.813 -1.7268 -1.3719  0.8400
  329MOL0     H44365   1.888   5.976   2.659 -2.5186  0.0270 -2.3464
  329MOL0     H44366   1.720   6.189   2.634 -2.4089  4.3656  1.0759
  329MOL0     H44367   1.693   6.447   2.916  1.5004 -0.8409  0.4933
  329MOL0     H44368   1.643   6.422   2.742 -2.1038  0.2399  0.7278
  329MOL0     H44369   1.440   6.451   2.817  2.1330  2.0078  0.8496
  329MOL0     H44370   1.464   6.276   2.815  1.6776  0.8114 -1.2623
  329MOL0     H44371   1.487   6.447   3.090 -1.9809 -0.4034  0.9116
  329MOL0     H44372   1.519   6.279   3.066 -0.0360  0.9644  3.4856
  329MOL0     H44373   1.291   6.314   3.172  1.2928  0.2389  0.2561
  329MOL0     H44374   1.279   6.251   3.009  0.3383 -1.0112  1.5164
  329MOL0     H44375   1.105   6.612   2.878 -2.0382 -0.6381 -1.5888
  329MOL0     H44376   0.871   6.612   2.844  1.2215  3.4096  2.0666
  329MOL0     H44377   0.458   6.426   2.807 -1.3286  0.3331 -0.2752
  329MOL0     H44378   0.238   6.337   2.752 -0.5972  1.5382 -0.0498
  329MOL0     H44379   0.207   5.908   2.848  0.0988 -0.0040  2.9238
  329MOL0     H44380   0.034   5.922   2.850 -0.5301 -0.5305 -1.8177
  329MOL0     H44381   0.238   5.969   2.608 -0.6941  0.1160 -0.7842
  329MOL0     H44382   0.120   5.843   2.623  2.8115 -0.5218 -1.0281
  329MOL0     H44383  -0.037   5.944   2.505  4.5565 -2.1276 -2.4886
  329MOL0     H44384  -0.024   6.077   2.632  1.6252 -0.4872  0.9660
  329MOL0     H44385   0.163   6.180   2.504  1.5756 -0.9766 -2.2387
  329MOL0     H44386  -0.008   6.189   2.448 -0.4165 -1.8732 -1.8233
  329MOL0     H44387   0.070   5.996   2.292  3.4356 -3.7741 -0.3498
  329MOL0     H44388   0.235   6.034   2.337 -0.1399  2.0594 -1.5866
  329MOL0     H44389   0.035   6.206   2.198  0.3403  0.0338  0.5275
  329MOL0     H44390   0.175   6.278   2.277  0.7071 -0.1953 -0.7071
  329MOL0     H44391   0.159   6.111   2.023  0.0567 -0.2593  0.1086
  329MOL0     H44392   0.314   6.112   2.122 -1.1950 -3.1916 -0.8941
  329MOL0     H44393   0.288   6.289   1.940 -1.1597 -0.5104 -0.3297
  329MOL0     H44394   0.159   6.356   2.047  0.2953 -0.1001 -1.0500
  329MOL0     H44395   0.296   6.005   3.029 -1.8195  1.3643  2.5781
  329MOL0     H44396   0.519   6.117   3.080 -0.4210 -2.3256 -0.7320
  329MOL0     H44397   0.823   6.286   3.114 -0.3974  0.7423 -0.6489
  329MOL0     H44398   1.051   6.294   3.164  1.6173  0.0975 -0.4908
  329MOL0     H44399   1.155   5.111   2.402  1.2001 -2.8264  1.5850
  329MOL0     H44400   1.059   4.911   2.531 -1.0750 -1.1458  0.2525
  329MOL0     H44401   0.748   4.779   2.824 -0.9593  4.1708  1.1488
  329MOL0     H44402   0.582   4.677   2.987  0.6738  0.1024  0.1485
  329MOL0     H44403   0.612   4.454   3.364  0.6511 -0.5996 -0.7447
  329MOL0     H44404   0.772   4.467   3.306  0.5956 -3.3641 -2.1668
  329MOL0     H44405   0.562   4.432   3.100  1.3205 -0.9867 -2.5561
  329MOL0     H44406   0.575   4.296   3.194 -2.9748  2.0070  0.8792
  329MOL0     H44407   0.828   4.279   3.127 -0.3177 -1.2864  0.9830
  329MOL0     H44408   0.790   4.435   3.043 -2.5410 -0.0140 -0.4602
  329MOL0     H44409   0.653   4.170   2.979  1.6729 -1.3358  0.4430
  329MOL0     H44410   0.633   4.331   2.893  0.0475  1.2478  1.3953
  329MOL0     H44411   0.995   4.132   2.739  0.8963  0.2442  0.8908
  329MOL0     H44412   0.886   4.664   3.278 -0.6669  2.6208  0.9225
  329MOL0     H44413   1.096   4.709   3.251  0.2276 -1.2444 -0.2294
  329MOL0     H44414   1.164   4.757   3.092 -0.5641  1.4884 -1.9775
  329MOL0     H44415   1.090   4.873   3.211  1.3628 -1.2500  0.3444
  330MOL0     O44416  11.154   3.851   7.905 -0.4210  0.2135  0.1550
  330MOL0     C44417  11.070   3.864   7.997 -0.1432  0.2567  0.3478
  330MOL0     O44418  11.008   3.760   8.066 -0.1938  0.2485  0.4833
  330MOL0     C44419  11.038   3.628   8.030 -1.1883  0.7885  0.7304
  330MOL0     C44420  11.169   3.572   8.027 -0.7158  0.4401 -0.2791
  330MOL0     C44421  11.184   3.437   8.024 -0.3909 -0.4061 -0.5633
  330MOL0     C44422  11.073   3.352   8.009  0.3195  0.2712  0.8085
  330MOL0     O44423  11.091   3.215   8.007 -0.5744  0.0734  0.0916
  330MOL0     C44424  11.220   3.147   8.024 -0.1865 -0.6004 -0.4971
  330MOL0     C44425  11.263   3.150   8.174 -0.7078  0.1150  0.1802
  330MOL0     C44426  11.368   3.027   8.208  0.9370 -0.5073 -0.2356
  330MOL0     C44427  11.330   2.897   8.137 -0.3576 -0.8982  0.4212
  330MOL0     C44428  11.413   2.782   8.196  0.2429 -0.0628 -0.4861
  330MOL0     C44429  11.558   2.767   8.135  0.3691  0.2146 -0.3239
  330MOL0     C44430  11.621   2.633   8.178 -0.3052 -0.0854 -0.1099
  330MOL0     C44431  11.753   2.620   8.099  0.2173  0.4899  0.5450
  330MOL0     N44432  11.794   2.481   8.099  0.3122  0.4475  1.2874
  330MOL0     C44433  11.794   2.393   8.199 -0.4557 -0.0167  0.0459
  330MOL0     C44434  11.838   2.278   8.146 -0.5161 -0.2251  0.5517
  330MOL0     C44435  11.833   2.134   8.200 -0.2667 -0.0852  0.2548
  330MOL0     C44436  11.918   2.104   8.320 -0.0782  0.5360 -0.5522
  330MOL0     C44437  11.836   2.115   8.449 -0.0814  0.3595  0.3836
  330MOL0     C44438  11.929   2.143   8.578  0.6597 -0.7785 -0.1939
  330MOL0     O44439  12.034   2.041   8.607 -0.1356 -0.5685 -0.1875
  330MOL0     C44440  12.103   2.052   8.728 -0.0592  0.5318 -0.1220
  330MOL0     C44441  12.071   2.142   8.837  0.3267  0.0519  0.8839
  330MOL0     C44442  12.165   2.144   8.944  0.2831  0.1278 -0.2256
  330MOL0     C44443  12.262   2.054   8.956 -0.9782 -0.3034 -0.3354
  330MOL0     C44444  12.342   2.055   9.074  0.4623 -1.0048 -0.6203
  330MOL0     O44445  12.448   1.962   9.080 -0.3008  0.4500 -0.8375
  330MOL0     C44446  12.513   1.941   9.199  1.0171  0.7606  0.2181
  330MOL0     C44447  12.642   1.892   9.194  0.0926  0.7718 -0.9215
  330MOL0     C44448  12.708   1.838   9.305 -0.8419  0.0731 -0.6402
  330MOL0     C44449  12.644   1.851   9.437  0.6618 -0.2957  1.0985
  330MOL0     O44450  12.702   1.793   9.542  0.3243  0.1538 -0.2685
  330MOL0     C44451  12.693   1.846   9.679  0.0534  0.4192 -0.0154
  330MOL0     C44452  12.638   1.737   9.779 -0.0543  0.0033 -0.2031
  330MOL0     C44453  12.673   1.768   9.922  1.0827 -1.4076 -0.6617
  330MOL0     C44454  12.626   1.899   9.988 -0.9468 -0.0702  0.1907
  330MOL0     C44455  12.698   2.032   9.953 -0.6237 -0.8279 -0.1307
  330MOL0     C44456  12.856   2.036   9.959 -0.0195  0.7585  0.1713
  330MOL0     C44457  12.896   1.996  10.102  0.7780  0.7429  0.6959
  330MOL0     C44458  13.010   2.075  10.144 -0.8702 -0.6119 -0.1450
  330MOL0    Cl44459  13.142   2.055  10.017  0.0660  0.1071  0.3673
  330MOL0     C44460  12.509   1.903   9.439 -0.6756  1.3826 -0.0713
  330MOL0     C44461  12.444   1.938   9.321  0.2168  0.3819 -1.5488
  330MOL0     O44462  12.314   2.135   9.162  0.9351  0.4577  0.1166
  330MOL0     C44463  12.283   1.953   8.860  0.7716  0.8494 -0.5694
  330MOL0     C44464  12.214   1.964   8.742 -0.0527  0.0685  0.0715
  330MOL0     N44465  11.878   2.309   8.018  0.4425  0.3352  0.3651
  330MOL0     N44466  11.867   2.428   7.995 -0.5059  0.4603 -0.4949
  330MOL0     C44467  10.944   3.407   8.011  1.2061 -0.5908  0.0854
  330MOL0     C44468  10.929   3.546   8.022 -0.6450  0.1441  0.3696
  330MOL0     C44469  11.005   3.997   8.029 -0.4844 -0.0842 -0.0397
  330MOL0     C44470  10.911   4.006   8.137 -0.6726 -0.6678  0.2863
  330MOL0     C44471  10.864   4.130   8.177 -0.0577  0.0967  0.5213
  330MOL0     C44472  10.895   4.249   8.113 -1.8594  0.6178  0.8791
  330MOL0     O44473  10.847   4.370   8.125  1.0752 -0.4914  0.1650
  330MOL0     C44474  10.796   4.412   8.247 -0.0843 -0.5967 -0.6507
  330MOL0     C44475  10.918   4.451   8.333  0.5302 -0.1398 -0.3091
  330MOL0     C44476  10.994   4.565   8.264  1.0978 -0.3006  0.1048
  330MOL0     C44477  11.114   4.616   8.353  0.3918 -0.1267  0.0790
  330MOL0     C44478  11.091   4.615   8.502  0.8266  0.2789 -0.0460
  330MOL0     C44479  11.091   4.588   8.621  0.2761 -0.5812  0.6355
  330MOL0     C44480  10.977   4.242   8.003 -1.2379  0.3496  0.3853
  330MOL0     C44481  11.036   4.122   7.963 -0.0471  0.3015  0.3034
  330MOL0     C44482  11.146   4.132   7.859 -0.3935 -1.1534 -1.0009
  330MOL0     H44483  11.250   3.643   8.042 -1.2296  0.9436  0.1549
  330MOL0     H44484  11.283   3.394   8.028  0.8761  2.2625 -0.9730
  330MOL0     H44485  11.194   3.047   7.989  3.0981 -1.2409 -1.4138
  330MOL0     H44486  11.302   3.182   7.960  3.2827 -2.6894  2.4703
  330MOL0     H44487  11.168   3.139   8.228 -1.5377 -5.2533 -1.8239
  330MOL0     H44488  11.314   3.245   8.195  2.1303 -0.4360 -3.3532
  330MOL0     H44489  11.361   3.018   8.317  0.9495 -3.1482 -0.3924
  330MOL0     H44490  11.469   3.052   8.174  0.3773 -1.5763 -2.9062
  330MOL0     H44491  11.225   2.877   8.159 -0.6168 -1.8857 -1.5566
  330MOL0     H44492  11.353   2.894   8.030 -0.9215  1.4612  0.1785
  330MOL0     H44493  11.394   2.778   8.304  0.3101 -0.0589 -0.4739
  330MOL0     H44494  11.358   2.696   8.156  1.1408  0.7123 -3.6650
  330MOL0     H44495  11.555   2.770   8.026  2.2956 -2.1332 -0.5307
  330MOL0     H44496  11.626   2.849   8.161  2.7409 -1.2831 -1.4930
  330MOL0     H44497  11.549   2.553   8.158 -0.3466  0.0492 -0.5160
  330MOL0     H44498  11.631   2.618   8.286 -0.8380 -3.3314 -0.4170
  330MOL0     H44499  11.732   2.664   8.001  1.1775  1.5894  0.8200
  330MOL0     H44500  11.829   2.687   8.139  0.2207  1.4314 -0.9548
  330MOL0     H44501  11.753   2.397   8.300 -1.9591  3.2096 -0.5524
  330MOL0     H44502  11.730   2.108   8.227 -0.2006 -1.6838 -0.8584
  330MOL0     H44503  11.866   2.071   8.116  2.9086  2.8330 -0.8986
  330MOL0     H44504  11.947   1.999   8.316 -2.0732 -0.1429  1.2794
  330MOL0     H44505  12.006   2.168   8.331 -0.9553  1.3692  2.9771
  330MOL0     H44506  11.785   2.022   8.475  0.2653  0.4509  1.4552
  330MOL0     H44507  11.771   2.203   8.448  0.5475  0.9762  3.2772
  330MOL0     H44508  11.868   2.136   8.669  1.7873  0.4387  0.7079
  330MOL0     H44509  11.972   2.242   8.595  0.8407 -0.5120 -2.0207
  330MOL0     H44510  11.981   2.202   8.841  0.9485  1.2078 -0.9010
  330MOL0     H44511  12.156   2.214   9.026  2.5964  0.5747 -0.2973
  330MOL0     H44512  12.680   1.872   9.094 -0.7348  0.9788 -1.2884
  330MOL0     H44513  12.807   1.795   9.295 -1.2872 -1.4000  0.8072
  330MOL0     H44514  12.798   1.861   9.706 -0.8530  1.9432  3.0554
  330MOL0     H44515  12.632   1.934   9.700  0.0315  0.1168  1.2200
  330MOL0     H44516  12.529   1.729   9.774  0.0546 -1.2796 -0.9626
  330MOL0     H44517  12.674   1.636   9.757  1.0533  0.2642  0.3263
  330MOL0     H44518  12.644   1.679   9.978 -0.2610 -2.1383 -2.4275
  330MOL0     H44519  12.782   1.771   9.933  0.8922  1.7311  2.1253
  330MOL0     H44520  12.637   1.883  10.096  0.5646 -0.3666  0.0130
  330MOL0     H44521  12.518   1.915   9.983 -0.5639  2.8845 -0.2615
  330MOL0     H44522  12.655   2.101  10.027 -1.8492  1.8493 -3.0732
  330MOL0     H44523  12.670   2.075   9.856 -1.1339  0.6177  0.6233
  330MOL0     H44524  12.900   1.955   9.900  0.2491 -1.5423  3.3195
  330MOL0     H44525  12.884   2.134   9.921 -2.1033  0.7438 -1.6041
  330MOL0     H44526  12.921   1.889  10.108 -0.9941  0.2915  0.7759
  330MOL0     H44527  12.812   2.008  10.171 -0.9008 -0.4548 -1.0256
  330MOL0     H44528  12.974   2.179  10.145  1.2467  0.2602 -2.4529
  330MOL0     H44529  13.039   2.052  10.247  0.0247  1.5523  0.1541
  330MOL0     H44530  12.460   1.906   9.535 -0.1740  3.1655  0.1582
  330MOL0     H44531  12.340   1.968   9.324 -0.9193 -2.7746 -3.7862
  330MOL0     H44532  12.353   1.871   8.878  1.4991  1.7235  0.6726
  330MOL0     H44533  12.239   1.900   8.658  1.0642  1.2807 -0.5605
  330MOL0     H44534  10.861   3.340   7.992 -0.4533  1.8563 -1.9735
  330MOL0     H44535  10.832   3.594   8.035 -0.0212  1.0367  2.0352
  330MOL0     H44536  10.882   3.910   8.179 -3.4972 -0.3823 -0.8072
  330MOL0     H44537  10.794   4.124   8.260 -1.4558 -0.5615 -0.6649
  330MOL0     H44538  10.732   4.342   8.302 -1.1618  0.9047  0.0930
  330MOL0     H44539  10.735   4.501   8.228  2.9973  1.3361 -2.3931
  330MOL0     H44540  10.980   4.361   8.331 -1.3587 -1.5543  0.9228
  330MOL0     H44541  10.883   4.472   8.435  1.1903  0.4101 -0.1900
  330MOL0     H44542  10.921   4.645   8.248  0.1877 -1.1626 -0.1850
  330MOL0     H44543  11.034   4.539   8.166  1.1464  2.4265 -0.6842
  330MOL0     H44544  11.194   4.544   8.334 -3.5786 -5.8486  2.5405
  330MOL0     H44545  11.146   4.718   8.328  0.3335  0.1724  1.1886
  330MOL0     H44546  11.079   4.544   8.718  3.8280 -3.5824 -0.0490
  330MOL0     H44547  11.008   4.328   7.945  1.9849 -1.7099 -1.2865
  330MOL0     H44548  11.124   4.055   7.784 -4.8469 -3.2337  1.9375
  330MOL0     H44549  11.146   4.229   7.809  2.8898  1.5504  3.4211
  330MOL0     H44550  11.243   4.144   7.907 -2.0208  0.5221  2.2272
  331MOL0     O44551   6.910   4.735   8.596 -0.5091 -0.4170 -0.3742
  331MOL0     C44552   6.849   4.832   8.550  0.6810  0.3556  0.4050
  331MOL0     O44553   6.856   4.953   8.600 -0.1438  0.8295 -0.1749
  331MOL0     C44554   6.946   4.968   8.701  0.0788 -0.6896 -1.0091
  331MOL0     C44555   6.929   4.915   8.829  0.0429  0.5820  0.1499
  331MOL0     C44556   7.028   4.934   8.926  0.8502  0.5994  0.1884
  331MOL0     C44557   7.142   5.006   8.903  1.1758  0.7766  0.5971
  331MOL0     O44558   7.230   5.019   9.007  0.4965 -0.2389  0.5640
  331MOL0     C44559   7.369   5.049   8.977 -0.3246 -0.0849  0.3796
  331MOL0     C44560   7.433   5.111   9.100 -0.9861  0.0410 -0.0053
  331MOL0     C44561   7.466   5.005   9.207  0.5824  0.0353 -0.0507
  331MOL0     C44562   7.544   5.062   9.329  0.4389 -0.0257 -0.3053
  331MOL0     C44563   7.567   4.951   9.441 -0.2426  0.3546 -0.1004
  331MOL0     C44564   7.654   4.988   9.561  0.3060 -0.2366 -0.6092
  331MOL0     C44565   7.675   4.882   9.673 -0.1786  0.5860  0.1023
  331MOL0     C44566   7.754   4.760   9.607 -0.4200  0.2618  0.1939
  331MOL0     N44567   7.828   4.676   9.713  0.3581 -0.1820 -0.5402
  331MOL0     C44568   7.791   4.662   9.843 -0.2374 -0.1042  0.2580
  331MOL0     C44569   7.863   4.557   9.891  0.0273  0.0379  0.3811
  331MOL0     C44570   7.889   4.518  10.035 -0.1207  0.3210 -0.8917
  331MOL0     C44571   7.802   4.401  10.081 -1.4682  0.4833  0.3173
  331MOL0     C44572   7.658   4.422  10.068  0.3572 -0.2909 -0.6616
  331MOL0     C44573   7.587   4.286  10.048 -0.1499  0.2673 -0.3995
  331MOL0     O44574   7.477   4.286  10.135  0.4769  0.2039  0.5204
  331MOL0     C44575   7.367   4.225  10.073  0.6256  0.2465 -0.4965
  331MOL0     C44576   7.247   4.301  10.067  0.0678  0.1583 -0.5733
  331MOL0     C44577   7.132   4.260  10.002  0.1101  0.1395 -0.6841
  331MOL0     C44578   7.140   4.159   9.907  0.1731  0.7538 -0.5350
  331MOL0     C44579   7.020   4.121   9.822  0.0983  0.3607  0.4176
  331MOL0     O44580   7.049   4.039   9.711 -0.0667 -0.2699  0.0687
  331MOL0     C44581   6.957   4.026   9.603  0.2897 -0.3064  0.3698
  331MOL0     C44582   6.892   4.140   9.548 -0.8131  1.0091  0.3397
  331MOL0     C44583   6.810   4.124   9.428 -0.6362 -0.4415 -0.1837
  331MOL0     C44584   6.785   4.003   9.371  0.1960  0.3854  0.0770
  331MOL0     O44585   6.705   3.997   9.259  0.5021 -0.4499 -0.0103
  331MOL0     C44586   6.618   4.104   9.225 -1.1811  0.3534  0.8604
  331MOL0     C44587   6.521   4.039   9.128  0.7188 -0.6404  0.4931
  331MOL0     C44588   6.583   3.937   9.020  0.7615 -0.2658 -0.3049
  331MOL0     C44589   6.462   3.874   8.942 -0.5584  0.5600 -0.3130
  331MOL0     C44590   6.415   3.968   8.826 -0.2883  0.1237 -0.0234
  331MOL0     C44591   6.306   3.895   8.750  0.4311  0.1739 -0.5314
  331MOL0     C44592   6.174   3.986   8.717 -0.2586  0.4266  0.1862
  331MOL0     C44593   6.064   3.886   8.665 -0.6530  0.9201  0.0018
  331MOL0    Cl44594   5.917   3.972   8.662  0.0359  0.1900  0.0357
  331MOL0     C44595   6.857   3.890   9.429  0.0721 -0.8423  0.2597
  331MOL0     C44596   6.929   3.905   9.545 -0.3932 -0.4890 -0.6111
  331MOL0     O44597   6.911   4.175   9.842  0.0311 -0.4917  0.1299
  331MOL0     C44598   7.254   4.076   9.910 -0.5121  0.2156  0.0171
  331MOL0     C44599   7.364   4.106   9.994  1.0343  0.2080 -0.1398
  331MOL0     N44600   7.963   4.529   9.798 -0.2514 -0.0946  0.2442
  331MOL0     N44601   7.934   4.596   9.688 -0.4714 -1.1713  0.6845
  331MOL0     C44602   7.168   5.048   8.769  0.2415 -0.2504 -0.1826
  331MOL0     C44603   7.072   5.022   8.677  0.5225  0.3945 -0.3923
  331MOL0     C44604   6.743   4.816   8.442 -0.5858  0.0335  0.6858
  331MOL0     C44605   6.633   4.890   8.458 -0.0902  0.0188  0.9752
  331MOL0     C44606   6.532   4.896   8.361  0.0145  0.1882  0.6977
  331MOL0     C44607   6.543   4.802   8.251 -0.8250  0.5749  0.1258
  331MOL0     O44608   6.441   4.815   8.159 -0.0225 -1.1375 -0.3530
  331MOL0     C44609   6.466   4.755   8.025 -0.5524 -0.4173  0.2921
  331MOL0     C44610   6.566   4.847   7.940  1.3980 -0.4126 -0.2597
  331MOL0     C44611   6.540   4.837   7.787 -0.1059  0.3200 -0.0290
  331MOL0     C44612   6.598   4.718   7.707 -0.2929 -0.3559 -0.2759
  331MOL0     C44613   6.559   4.588   7.762 -1.1971  0.1539  0.0262
  331MOL0     C44614   6.531   4.477   7.805  0.4763 -0.0008 -0.1670
  331MOL0     C44615   6.644   4.705   8.247 -0.4943  0.0556 -0.6780
  331MOL0     C44616   6.756   4.723   8.333 -0.4765 -0.5330 -0.4129
  331MOL0     C44617   6.874   4.632   8.320 -0.9411  0.0083 -0.3344
  331MOL0     H44618   6.839   4.859   8.854  0.2797 -0.2590 -0.8165
  331MOL0     H44619   7.013   4.874   9.014 -3.2379 -2.4437 -2.2399
  331MOL0     H44620   7.420   4.957   8.946  0.8459  0.1172  1.6190
  331MOL0     H44621   7.374   5.122   8.896  1.6017  1.7285  2.0260
  331MOL0     H44622   7.361   5.190   9.126 -1.4817 -0.5783  0.5478
  331MOL0     H44623   7.527   5.161   9.075  0.3421 -2.0549  0.5568
  331MOL0     H44624   7.537   4.939   9.158  0.8918 -1.0607  1.7907
  331MOL0     H44625   7.378   4.950   9.241  3.0603 -2.9181  2.1295
  331MOL0     H44626   7.639   5.097   9.289  0.1645  2.3676  0.9607
  331MOL0     H44627   7.488   5.141   9.380 -0.6070 -0.4313 -0.7855
  331MOL0     H44628   7.468   4.924   9.480 -0.3546 -1.0240 -1.2794
  331MOL0     H44629   7.605   4.860   9.394 -1.1672 -0.4431  0.6458
  331MOL0     H44630   7.755   5.002   9.522  0.4509 -0.8665 -0.4792
  331MOL0     H44631   7.604   5.074   9.606 -0.5668 -0.8794 -0.3283
  331MOL0     H44632   7.583   4.841   9.715  0.5103  1.1015  2.2721
  331MOL0     H44633   7.741   4.921   9.752  1.1943  0.4477 -0.9374
  331MOL0     H44634   7.685   4.689   9.560 -0.3579 -0.4428  1.1414
  331MOL0     H44635   7.832   4.794   9.538  0.9824 -2.2178  0.4157
  331MOL0     H44636   7.718   4.719   9.901  0.8122  1.3753  0.1965
  331MOL0     H44637   7.998   4.506  10.040 -0.3393 -1.7775  2.9185
  331MOL0     H44638   7.865   4.599  10.104 -3.1896  1.4621 -3.1124
  331MOL0     H44639   7.828   4.308  10.029  2.9306  1.4891  0.3619
  331MOL0     H44640   7.824   4.391  10.187 -3.4927  1.7320  0.9187
  331MOL0     H44641   7.632   4.481   9.979  2.4496 -0.6907 -1.5949
  331MOL0     H44642   7.619   4.475  10.156 -0.0265 -3.0078  0.8880
  331MOL0     H44643   7.653   4.202  10.072 -2.3525 -2.0411 -1.8739
  331MOL0     H44644   7.564   4.266   9.943 -1.5793 -0.8747  0.0902
  331MOL0     H44645   7.253   4.396  10.120  0.5936 -0.6470  0.8951
  331MOL0     H44646   7.054   4.332  10.024 -2.0411 -2.1928 -0.2534
  331MOL0     H44647   6.914   4.235   9.595 -0.4556  0.5656  1.0931
  331MOL0     H44648   6.762   4.210   9.383 -3.6359 -0.6772  2.2812
  331MOL0     H44649   6.570   4.149   9.313  2.1186  1.1021  2.4409
  331MOL0     H44650   6.679   4.178   9.174 -1.4581 -0.0433 -0.0585
  331MOL0     H44651   6.429   4.015   9.182 -1.7158  2.6720 -1.7437
  331MOL0     H44652   6.481   4.119   9.065 -0.1013 -2.2844 -1.1504
  331MOL0     H44653   6.653   3.990   8.956 -0.4308  1.6336 -0.1254
  331MOL0     H44654   6.621   3.852   9.077  0.0505 -1.3531 -1.4041
  331MOL0     H44655   6.381   3.851   9.012 -0.9163  1.5542 -0.3720
  331MOL0     H44656   6.480   3.775   8.900 -1.8656 -0.5021  1.4900
  331MOL0     H44657   6.504   3.995   8.769 -0.4331  3.5762  1.1550
  331MOL0     H44658   6.387   4.066   8.866  2.9906  0.3097  2.1849
  331MOL0     H44659   6.361   3.869   8.659  0.8583  2.0770 -0.8730
  331MOL0     H44660   6.282   3.808   8.811  2.5228  0.8719  1.4083
  331MOL0     H44661   6.216   4.033   8.627  2.1872 -2.5198 -0.4036
  331MOL0     H44662   6.137   4.056   8.791  0.2628 -0.2114  1.0697
  331MOL0     H44663   6.079   3.846   8.565  0.0865  1.9338 -0.3165
  331MOL0     H44664   6.057   3.799   8.730 -0.4133  0.2808 -0.8183
  331MOL0     H44665   6.848   3.791   9.387 -2.7261 -1.1030  1.2536
  331MOL0     H44666   6.972   3.812   9.581 -0.5976 -0.0840  0.7334
  331MOL0     H44667   7.257   3.986   9.850 -3.9026 -1.0890  1.5501
  331MOL0     H44668   7.451   4.045  10.014  0.1297 -0.5838  1.6310
  331MOL0     H44669   7.259   5.102   8.744  0.4367 -0.7080 -0.4682
  331MOL0     H44670   7.098   5.055   8.577  1.3448 -0.7493 -0.5729
  331MOL0     H44671   6.621   4.960   8.540  0.1954  2.2222 -0.7607
  331MOL0     H44672   6.451   4.968   8.368  1.5968  2.0145  1.0651
  331MOL0     H44673   6.371   4.748   7.971 -0.7745  3.7020 -0.1377
  331MOL0     H44674   6.511   4.655   8.029 -0.6150 -0.4468  0.2541
  331MOL0     H44675   6.674   4.836   7.958  1.7380 -0.9187 -2.3369
  331MOL0     H44676   6.543   4.947   7.976  1.1654 -0.8603  0.8996
  331MOL0     H44677   6.595   4.924   7.749  1.6427 -0.9837 -0.6492
  331MOL0     H44678   6.433   4.844   7.766 -0.0370 -1.4481 -1.2272
  331MOL0     H44679   6.577   4.723   7.600 -1.6736  2.8062  0.0257
  331MOL0     H44680   6.707   4.730   7.707 -0.5701  3.0973 -0.2534
  331MOL0     H44681   6.525   4.385   7.860  1.8403 -0.1598 -0.2452
  331MOL0     H44682   6.641   4.621   8.178  1.2080  0.2891 -1.0755
  331MOL0     H44683   6.869   4.559   8.402  2.6910 -2.6841 -2.1850
  331MOL0     H44684   6.864   4.581   8.224 -2.4249 -1.3376  0.4765
  331MOL0     H44685   6.971   4.682   8.311 -0.9520 -0.1185 -1.2030
  332MOL0     O44686   8.106   9.361   4.362 -0.3204  0.4364 -0.8994
  332MOL0     C44687   8.207   9.410   4.417  0.0312 -0.0195 -0.3954
  332MOL0     O44688   8.229   9.543   4.409 -0.6099 -0.6713  0.7748
  332MOL0     C44689   8.177   9.613   4.305  0.3397 -0.6278 -0.1893
  332MOL0     C44690   8.140   9.745   4.333 -0.1163  0.3837 -0.1447
  332MOL0     C44691   8.091   9.830   4.233  1.2501  0.0269 -0.0675
  332MOL0     C44692   8.077   9.786   4.098 -0.8377 -0.3398 -0.5270
  332MOL0     O44693   8.025   9.862   3.997  0.1589 -0.1264 -0.0558
  332MOL0     C44694   7.944   9.976   4.024  0.0952 -1.7455 -0.3656
  332MOL0     C44695   8.043  10.093   4.004 -0.6755 -0.5225  0.4871
  332MOL0     C44696   8.001  10.219   4.073 -0.6543  0.5611 -0.3935
  332MOL0     C44697   8.079  10.347   4.037  0.4962  0.4566 -0.5743
  332MOL0     C44698   8.008  10.465   4.099  0.4769 -0.6829  0.7800
  332MOL0     C44699   8.014  10.466   4.257  0.1555 -0.3347  0.1657
  332MOL0     C44700   7.983  10.614   4.302  0.0295  0.1667 -0.3929
  332MOL0     C44701   7.987  10.623   4.461 -0.3202 -0.6752  0.1082
  332MOL0     N44702   8.105  10.579   4.519 -0.0216 -0.1872 -0.5168
  332MOL0     C44703   8.240  10.606   4.491 -0.4223 -0.7645 -0.5444
  332MOL0     C44704   8.316  10.529   4.573 -0.3542 -0.2419 -0.3395
  332MOL0     C44705   8.467  10.508   4.568  0.0244  0.4665  0.2425
  332MOL0     C44706   8.523  10.512   4.706  0.0742  0.3633  0.8612
  332MOL0     C44707   8.553  10.657   4.753  0.2718  0.7815  0.7010
  332MOL0     C44708   8.569  10.647   4.908  1.5393 -0.0941 -0.6976
  332MOL0     O44709   8.692  10.572   4.941  0.1575 -0.2372 -0.0003
  332MOL0     C44710   8.688  10.463   5.023 -0.4607  0.5817 -0.3225
  332MOL0     C44711   8.798  10.378   5.035  0.2440  0.5433  0.4556
  332MOL0     C44712   8.813  10.283   5.138  0.0367 -0.4405 -0.1014
  332MOL0     C44713   8.702  10.264   5.233 -0.0517  0.5283 -0.3715
  332MOL0     C44714   8.716  10.170   5.347  0.1635 -0.9605  0.5266
  332MOL0     O44715   8.822  10.097   5.347 -0.8268 -0.7300  0.4868
  332MOL0     C44716   8.842  10.003   5.443 -0.5605  0.2279  0.2474
  332MOL0     C44717   8.803   9.864   5.418  1.2630 -0.4402 -0.7050
  332MOL0     C44718   8.822   9.760   5.513 -0.2895  0.0096 -0.2540
  332MOL0     C44719   8.895   9.788   5.633 -0.6028 -0.1623  0.8302
  332MOL0     O44720   8.909   9.698   5.729 -0.3124  0.1275 -0.5985
  332MOL0     C44721   8.976   9.576   5.694 -1.4538  0.3804  0.2624
  332MOL0     C44722   9.002   9.499   5.827 -0.1600  0.6146 -0.0713
  332MOL0     C44723   9.078   9.370   5.795 -0.0377  0.4285  1.5222
  332MOL0     C44724   9.037   9.261   5.897 -0.4686 -1.0103  0.4116
  332MOL0     C44725   9.085   9.117   5.854 -0.7051 -0.3373  0.2296
  332MOL0     C44726   8.973   9.053   5.757 -0.3982  0.0501 -0.1269
  332MOL0     C44727   9.023   8.921   5.712  0.4529 -0.5456 -0.1046
  332MOL0     C44728   8.915   8.857   5.621 -0.2007 -0.6334 -1.0946
  332MOL0    Cl44729   8.973   8.697   5.595 -0.1376  0.3617  0.2572
  332MOL0     C44730   8.939   9.926   5.650  0.3841 -0.7561  0.8388
  332MOL0     C44731   8.919  10.030   5.553  0.0674  0.0129 -0.0031
  332MOL0     O44732   8.634  10.176   5.432 -0.3651 -0.0792  0.2321
  332MOL0     C44733   8.592  10.344   5.216  0.3291 -0.9695  0.5553
  332MOL0     C44734   8.579  10.441   5.122  0.3142 -0.3871  0.0334
  332MOL0     N44735   8.233  10.476   4.667 -0.0819 -0.1727  0.1507
  332MOL0     N44736   8.108  10.499   4.634  0.0642  0.4614  0.1734
  332MOL0     C44737   8.121   9.656   4.068 -0.3530 -0.1150 -0.4610
  332MOL0     C44738   8.161   9.566   4.173 -0.4988 -0.7953 -0.0231
  332MOL0     C44739   8.301   9.325   4.500 -1.1280  0.0186 -0.6071
  332MOL0     C44740   8.374   9.391   4.600  0.0760 -0.1109 -1.2431
  332MOL0     C44741   8.450   9.328   4.690 -0.1337 -0.1271  0.0487
  332MOL0     C44742   8.465   9.191   4.689  0.4867 -0.1287  1.4412
  332MOL0     O44743   8.533   9.121   4.789 -0.5557 -0.2899  0.2975
  332MOL0     C44744   8.628   9.189   4.873  0.0374  0.4889 -0.1603
  332MOL0     C44745   8.712   9.089   4.946  0.8648  0.0312  0.0739
  332MOL0     C44746   8.630   9.030   5.072 -0.1627  0.5093 -0.3165
  332MOL0     C44747   8.725   8.932   5.144  0.2555 -0.5916 -1.3370
  332MOL0     C44748   8.749   8.818   5.053  0.2901 -0.0782  0.2998
  332MOL0     C44749   8.764   8.722   4.971 -0.3891  0.0230 -0.6240
  332MOL0     C44750   8.391   9.114   4.595 -0.9659  0.1565 -0.1199
  332MOL0     C44751   8.316   9.179   4.494 -0.4918  0.1309 -1.0117
  332MOL0     C44752   8.257   9.103   4.378  0.3245  0.0731  0.5901
  332MOL0     H44753   8.158   9.781   4.433 -1.6615 -0.5093  0.4858
  332MOL0     H44754   8.070   9.929   4.274 -2.2394 -0.5182 -0.2457
  332MOL0     H44755   7.862   9.985   3.953  0.3279 -1.2996 -0.5833
  332MOL0     H44756   7.894   9.969   4.122 -1.0790  1.1255 -0.6742
  332MOL0     H44757   8.066  10.111   3.899  1.8080  0.6697  1.1641
  332MOL0     H44758   8.140  10.065   4.046  0.1975  0.1349 -1.0252
  332MOL0     H44759   7.989  10.193   4.179  1.8036  0.6746 -0.0364
  332MOL0     H44760   7.899  10.235   4.036 -1.6845 -2.0540  1.0760
  332MOL0     H44761   8.178  10.338   4.082  1.4455  1.7266 -2.2671
  332MOL0     H44762   8.099  10.367   3.931  2.7272  1.0689 -0.0880
  332MOL0     H44763   8.047  10.555   4.050 -0.1359 -1.7564 -1.8282
  332MOL0     H44764   7.901  10.472   4.077  0.6866  4.0990  0.0901
  332MOL0     H44765   7.930  10.410   4.300  0.8861 -1.0283  0.7181
  332MOL0     H44766   8.111  10.436   4.297  0.7110  2.0405  0.7859
  332MOL0     H44767   7.885  10.656   4.276  0.3171  3.5869  3.0677
  332MOL0     H44768   8.059  10.686   4.273 -0.6770  0.6980 -0.9616
  332MOL0     H44769   7.983  10.731   4.481 -0.5405 -0.8007  0.7693
  332MOL0     H44770   7.901  10.569   4.502 -1.1654 -1.4251 -2.4265
  332MOL0     H44771   8.282  10.661   4.407  1.4546 -1.2606  0.0333
  332MOL0     H44772   8.497  10.415   4.520  1.3602  0.8838  0.2129
  332MOL0     H44773   8.505  10.588   4.503 -1.8137  1.1038 -0.1185
  332MOL0     H44774   8.452  10.462   4.771 -0.3018 -0.7891 -0.3940
  332MOL0     H44775   8.617  10.456   4.697  0.7471  1.7455 -1.7362
  332MOL0     H44776   8.467  10.722   4.732 -0.2610 -1.1387 -4.6712
  332MOL0     H44777   8.634  10.688   4.686 -1.7711  0.1513 -2.3009
  332MOL0     H44778   8.481  10.601   4.954  1.7061  2.3458  2.5095
  332MOL0     H44779   8.568  10.751   4.944 -0.9605  0.4456 -2.1091
  332MOL0     H44780   8.877  10.390   4.961  0.1577  0.8635  0.4141
  332MOL0     H44781   8.909  10.237   5.162 -0.3342 -0.9241  0.4955
  332MOL0     H44782   8.740   9.836   5.334  1.5264 -0.8793 -0.7573
  332MOL0     H44783   8.787   9.658   5.498 -2.1533  0.1925  2.0993
  332MOL0     H44784   8.929   9.509   5.621  1.5175 -4.1139  2.0185
  332MOL0     H44785   9.070   9.610   5.652 -0.8719  0.1647  1.3647
  332MOL0     H44786   9.061   9.550   5.904  0.7702  1.2862 -1.2067
  332MOL0     H44787   8.906   9.479   5.876  0.8832 -2.2057  1.0425
  332MOL0     H44788   9.059   9.338   5.693  2.7020  0.3142  0.9663
  332MOL0     H44789   9.186   9.387   5.796  0.4986 -2.2452 -0.4851
  332MOL0     H44790   8.928   9.251   5.909 -0.4434 -2.2704 -0.2736
  332MOL0     H44791   9.073   9.292   5.996 -3.6247 -0.7612  1.6066
  332MOL0     H44792   9.090   9.049   5.940  1.6225  1.4294  1.6206
  332MOL0     H44793   9.177   9.122   5.795 -2.7428  0.2579 -3.1310
  332MOL0     H44794   8.877   9.042   5.807  0.3041 -2.5077  0.7903
  332MOL0     H44795   8.957   9.125   5.675  2.8743  0.0643 -0.9045
  332MOL0     H44796   9.056   8.848   5.787 -0.9071  0.8157  1.9224
  332MOL0     H44797   9.113   8.941   5.654  0.4709  0.0899  0.1380
  332MOL0     H44798   8.825   8.845   5.682 -0.2695 -0.9485 -1.2585
  332MOL0     H44799   8.899   8.919   5.533 -1.9725  0.1120 -0.3050
  332MOL0     H44800   8.992   9.971   5.734 -1.9202  1.4688  1.2366
  332MOL0     H44801   8.950  10.134   5.555 -0.0669  0.1407 -2.0455
  332MOL0     H44802   8.510  10.323   5.285 -0.8679 -0.8748 -0.7977
  332MOL0     H44803   8.490  10.503   5.124  0.1165 -0.5171  4.4150
  332MOL0     H44804   8.103   9.637   3.963  2.5088 -2.6955 -0.6097
  332MOL0     H44805   8.170   9.461   4.148  0.2510 -0.4905 -1.1395
  332MOL0     H44806   8.361   9.498   4.615 -3.5602 -0.7327  1.6130
  332MOL0     H44807   8.502   9.387   4.765  0.6652  1.8065 -1.9302
  332MOL0     H44808   8.564   9.245   4.943  1.6359  1.7686  0.3351
  332MOL0     H44809   8.682   9.255   4.805 -0.6460  0.1155 -1.0877
  332MOL0     H44810   8.800   9.142   4.985  2.0785 -0.3786 -1.9422
  332MOL0     H44811   8.739   9.010   4.875  2.7968  2.7228 -2.4236
  332MOL0     H44812   8.539   8.978   5.043  0.1259 -0.4770  0.4863
  332MOL0     H44813   8.613   9.116   5.137  4.2439 -1.3354  3.9418
  332MOL0     H44814   8.815   8.990   5.169  0.4029 -1.8943  1.5622
  332MOL0     H44815   8.685   8.896   5.239  2.5670  5.8398  2.7653
  332MOL0     H44816   8.764   8.641   4.900  1.2978 -1.0197  0.4914
  332MOL0     H44817   8.393   9.006   4.607 -2.3593  0.1350  0.0600
  332MOL0     H44818   8.149   9.115   4.367  0.1874 -0.3990  1.3682
  332MOL0     H44819   8.307   9.148   4.291 -3.5697 -0.1113 -2.0102
  332MOL0     H44820   8.280   8.996   4.380 -1.6693 -0.4703 -1.2640
  333MOL0     O44821   9.714   5.593   9.393  0.1673  0.4745  0.9526
  333MOL0     C44822   9.787   5.616   9.292  0.2904 -0.5956 -0.3278
  333MOL0     O44823   9.742   5.635   9.169  0.0083  0.1577  0.3867
  333MOL0     C44824   9.615   5.665   9.151 -0.1316 -0.2930  0.1943
  333MOL0     C44825   9.566   5.789   9.168  0.8372 -0.0889  0.6479
  333MOL0     C44826   9.429   5.819   9.165  0.2358  0.6158  0.7408
  333MOL0     C44827   9.340   5.724   9.113 -0.3490  0.4084  0.3888
  333MOL0     O44828   9.207   5.759   9.091  0.0639  0.6490  0.1929
  333MOL0     C44829   9.157   5.890   9.063  0.6083  0.3036 -0.5641
  333MOL0     C44830   9.014   5.865   8.996 -0.3979  0.2429 -0.2751
  333MOL0     C44831   8.935   5.999   8.984  0.5357  0.4989  0.2972
  333MOL0     C44832   8.822   5.990   8.882 -0.7178 -0.1603 -0.9332
  333MOL0     C44833   8.729   6.115   8.902  0.0327 -0.1819 -0.1394
  333MOL0     C44834   8.593   6.118   8.832 -0.0031 -0.6615  0.1810
  333MOL0     C44835   8.494   6.228   8.879 -1.0693 -0.3942  0.1305
  333MOL0     C44836   8.554   6.365   8.827  0.4036 -0.2980 -0.2056
  333MOL0     N44837   8.464   6.473   8.862  0.3978 -0.7464 -0.6882
  333MOL0     C44838   8.430   6.580   8.773 -0.3187 -0.3794 -0.4246
  333MOL0     C44839   8.324   6.639   8.827 -0.0356  0.8954  0.5719
  333MOL0     C44840   8.247   6.761   8.787 -0.1302 -0.3778  0.0107
  333MOL0     C44841   8.313   6.858   8.681 -0.5244  0.2941  1.2483
  333MOL0     C44842   8.188   6.912   8.611  0.4274  0.2097 -0.5905
  333MOL0     C44843   8.207   7.019   8.513 -0.4300 -0.6255  0.4657
  333MOL0     O44844   8.311   6.973   8.417  0.1547  0.4289 -0.2144
  333MOL0     C44845   8.258   6.943   8.297  0.1613  0.6012  0.6353
  333MOL0     C44846   8.136   6.878   8.282 -0.1472  0.2419  0.4556
  333MOL0     C44847   8.090   6.856   8.152  0.9828 -1.1336 -0.0688
  333MOL0     C44848   8.158   6.919   8.035  0.3204 -0.1214 -1.0260
  333MOL0     C44849   8.094   6.924   7.897 -0.3524 -0.0590  0.9054
  333MOL0     O44850   7.958   6.942   7.884  0.6533 -0.5483  0.0949
  333MOL0     C44851   7.870   6.924   7.771  0.1700 -0.1775  0.6482
  333MOL0     C44852   7.909   6.915   7.638 -0.6866 -0.0187 -0.0500
  333MOL0     C44853   7.820   6.899   7.531 -0.1026 -0.1019 -0.3913
  333MOL0     C44854   7.681   6.890   7.557 -0.7199 -0.3988 -0.3596
  333MOL0     O44855   7.594   6.882   7.449 -0.7268 -0.2276 -0.0880
  333MOL0     C44856   7.481   6.790   7.458 -0.8001  0.4233  0.0105
  333MOL0     C44857   7.421   6.773   7.315  0.5059  0.0970 -0.1890
  333MOL0     C44858   7.344   6.892   7.261  1.0253 -0.1783 -0.6073
  333MOL0     C44859   7.251   6.874   7.140  0.5388  0.3385  0.6433
  333MOL0     C44860   7.201   7.013   7.099  0.5770  0.2504 -0.4212
  333MOL0     C44861   7.317   7.085   7.032 -0.0515  0.3539 -0.1897
  333MOL0     C44862   7.287   7.208   6.955  0.2327  0.4389 -0.7853
  333MOL0     C44863   7.186   7.194   6.838  0.1271  0.3257 -0.2015
  333MOL0    Cl44864   7.238   7.270   6.683 -0.0921  0.0968  0.3761
  333MOL0     C44865   7.639   6.897   7.695  0.3676 -0.7398  0.4632
  333MOL0     C44866   7.734   6.925   7.791 -1.0104  0.5331 -0.8573
  333MOL0     O44867   8.173   6.914   7.801  0.9860 -0.4176 -0.6332
  333MOL0     C44868   8.286   6.972   8.052  0.5245 -0.0661  0.9509
  333MOL0     C44869   8.330   6.985   8.184 -0.0421 -0.2907  0.1534
  333MOL0     N44870   8.297   6.569   8.945  0.6559 -0.1008 -0.0393
  333MOL0     N44871   8.373   6.473   8.965 -0.1768 -0.7410 -0.3563
  333MOL0     C44872   9.393   5.595   9.093  0.5421 -0.4187 -1.5935
  333MOL0     C44873   9.526   5.567   9.117 -0.4424  0.5213  0.0644
  333MOL0     C44874   9.926   5.590   9.309  0.8384 -0.4337  0.5043
  333MOL0     C44875   9.973   5.458   9.359  0.3118  0.2463  0.5662
  333MOL0     C44876  10.125   5.441   9.374 -0.5255 -0.4786  0.2563
  333MOL0     C44877  10.214   5.536   9.321 -0.1728 -0.3307 -0.9688
  333MOL0     O44878  10.355   5.515   9.334 -0.1011  0.1518  0.6118
  333MOL0     C44879  10.439   5.584   9.241  1.9214 -0.4663  0.7710
  333MOL0     C44880  10.576   5.505   9.241 -0.0054 -0.2016  0.2489
  333MOL0     C44881  10.678   5.599   9.169 -0.3687  0.4053  0.3997
  333MOL0     C44882  10.826   5.541   9.173 -0.6293 -0.0856  0.2210
  333MOL0     C44883  10.904   5.581   9.290  0.5406 -0.1440  0.0473
  333MOL0     C44884  10.962   5.576   9.397  0.7506  0.5325  0.0796
  333MOL0     C44885  10.157   5.652   9.276  0.2992  0.3244  0.6720
  333MOL0     C44886  10.020   5.685   9.275  0.0808  0.0899  0.8543
  333MOL0     C44887   9.997   5.808   9.187 -0.0739 -1.3612  0.0361
  333MOL0     H44888   9.636   5.868   9.191  2.5852 -0.7347 -2.1365
  333MOL0     H44889   9.411   5.925   9.179  3.2705  1.7024 -2.1613
  333MOL0     H44890   9.136   5.941   9.157 -2.6890 -1.4477 -0.2151
  333MOL0     H44891   9.209   5.953   8.989  0.3116  1.3194  0.0781
  333MOL0     H44892   8.967   5.802   9.072 -0.9038  1.0346  0.0818
  333MOL0     H44893   9.019   5.819   8.898  0.3601 -0.0275 -0.1126
  333MOL0     H44894   9.006   6.073   8.945  1.5586 -1.4279 -1.6886
  333MOL0     H44895   8.900   6.025   9.084  5.6499 -0.5169  2.6628
  333MOL0     H44896   8.850   5.980   8.777 -2.3253 -0.7297 -1.3377
  333MOL0     H44897   8.762   5.902   8.908 -1.6648 -0.1030 -2.7988
  333MOL0     H44898   8.700   6.109   9.007  2.4912 -1.4784  0.5473
  333MOL0     H44899   8.784   6.209   8.885 -1.2046  1.3504  3.3516
  333MOL0     H44900   8.597   6.120   8.722  0.2760 -1.9655  0.1501
  333MOL0     H44901   8.551   6.021   8.856  1.5348 -0.8588  2.3978
  333MOL0     H44902   8.490   6.217   8.988  2.2816  1.2804  0.5234
  333MOL0     H44903   8.397   6.215   8.830 -0.7476  3.5040 -1.9111
  333MOL0     H44904   8.645   6.405   8.873  0.3475  0.8032 -1.0054
  333MOL0     H44905   8.563   6.358   8.718 -0.9541  1.7632 -0.5145
  333MOL0     H44906   8.476   6.622   8.684 -0.5030  2.4366  0.6984
  333MOL0     H44907   8.151   6.727   8.749 -0.0326  0.6772 -1.2629
  333MOL0     H44908   8.216   6.815   8.876 -0.8270 -0.4558 -0.1840
  333MOL0     H44909   8.381   6.927   8.732  0.0659 -0.4796  1.5259
  333MOL0     H44910   8.359   6.792   8.607 -2.9285 -0.2986  0.1897
  333MOL0     H44911   8.121   6.943   8.693  2.0084  0.7682  0.5522
  333MOL0     H44912   8.132   6.834   8.559 -1.4127  0.3632  0.9945
  333MOL0     H44913   8.247   7.104   8.569 -0.9704 -0.5590  0.7556
  333MOL0     H44914   8.117   7.051   8.458 -0.2236  0.6476  0.8411
  333MOL0     H44915   8.070   6.859   8.367  2.7323  3.3940  3.7518
  333MOL0     H44916   7.991   6.814   8.140  0.7749 -0.2260 -1.7736
  333MOL0     H44917   8.016   6.900   7.624 -0.8071  0.3187 -1.3934
  333MOL0     H44918   7.861   6.874   7.433  0.1508  2.4368 -1.0021
  333MOL0     H44919   7.502   6.692   7.500 -2.0025  0.2032  0.1588
  333MOL0     H44920   7.404   6.820   7.530  0.0741  0.0079  1.1459
  333MOL0     H44921   7.509   6.759   7.252  0.8046 -2.6265  0.6983
  333MOL0     H44922   7.366   6.679   7.320 -1.0381  1.0117  3.1534
  333MOL0     H44923   7.270   6.926   7.334 -2.4898 -3.8131 -2.0631
  333MOL0     H44924   7.414   6.974   7.243 -1.9697  2.7094 -0.0540
  333MOL0     H44925   7.177   6.797   7.160  0.5167  0.6371  1.7790
  333MOL0     H44926   7.307   6.820   7.064 -0.7014 -0.1077  0.0264
  333MOL0     H44927   7.153   7.066   7.182 -3.5070 -3.2809 -0.2010
  333MOL0     H44928   7.118   6.996   7.030 -0.4634  0.7217  0.6817
  333MOL0     H44929   7.384   7.109   7.115 -2.1133 -0.4229  1.7999
  333MOL0     H44930   7.369   7.012   6.970  0.0031 -0.0811  0.3616
  333MOL0     H44931   7.382   7.246   6.916  0.1241  2.5707  0.9052
  333MOL0     H44932   7.259   7.276   7.035 -0.6137 -1.1129  0.2985
  333MOL0     H44933   7.182   7.086   6.821  2.0411  0.3402 -1.0350
  333MOL0     H44934   7.085   7.234   6.847 -1.6610 -3.4088 -1.8309
  333MOL0     H44935   7.534   6.903   7.722  0.5031  2.8608  0.6726
  333MOL0     H44936   7.702   6.949   7.892  0.9066 -0.9436  0.1898
  333MOL0     H44937   8.346   7.013   7.971  0.1811 -0.8806  0.2696
  333MOL0     H44938   8.426   7.028   8.212 -0.1845 -1.8251  3.4293
  333MOL0     H44939   9.326   5.516   9.060  0.9272 -0.7184 -1.6713
  333MOL0     H44940   9.573   5.469   9.116  1.4662  1.3961 -0.7379
  333MOL0     H44941   9.898   5.385   9.388 -1.0883  2.4045  2.7879
  333MOL0     H44942  10.168   5.355   9.424  0.0662 -0.0338  0.5259
  333MOL0     H44943  10.446   5.687   9.278  2.4040 -0.8202  1.6983
  333MOL0     H44944  10.390   5.583   9.143  3.5610  2.2820 -0.1889
  333MOL0     H44945  10.561   5.404   9.201  1.0974  0.7459 -2.8085
  333MOL0     H44946  10.609   5.488   9.344 -0.6322 -1.7229  0.2288
  333MOL0     H44947  10.678   5.695   9.222  1.1369 -0.9320  3.0012
  333MOL0     H44948  10.648   5.608   9.064 -2.7590 -2.9300  0.6330
  333MOL0     H44949  10.835   5.433   9.162 -3.1185 -0.0960 -3.1175
  333MOL0     H44950  10.877   5.594   9.092 -0.0997 -1.9240 -0.7075
  333MOL0     H44951  11.004   5.561   9.494 -0.3776 -1.4600  0.3211
  333MOL0     H44952  10.212   5.738   9.238 -0.8120  0.0405 -1.7961
  333MOL0     H44953  10.063   5.823   9.102  0.7924  1.3630  1.1104
  333MOL0     H44954   9.892   5.828   9.161  0.8904  2.7446 -1.3889
  333MOL0     H44955  10.017   5.892   9.254 -0.6462 -1.8290  0.8137
  334MOL0     O44956   3.883   0.841   9.858 -0.0747  0.8657  0.7220
  334MOL0     C44957   3.936   0.948   9.864  0.0615  1.3025 -0.0206
  334MOL0     O44958   3.886   1.060   9.811 -0.1339 -0.2341  0.5706
  334MOL0     C44959   3.761   1.105   9.840 -0.3818  0.5760 -0.1585
  334MOL0     C44960   3.672   1.045   9.925  0.7897  0.0223  0.1167
  334MOL0     C44961   3.543   1.107   9.930  0.1370 -0.6110  0.9193
  334MOL0     C44962   3.520   1.235   9.877  0.4493 -0.3070 -0.1775
  334MOL0     O44963   3.400   1.301   9.884 -0.0215 -0.2739 -0.3615
  334MOL0     C44964   3.293   1.273   9.979 -0.7808  0.6227 -0.1590
  334MOL0     C44965   3.195   1.385  10.005 -0.5570 -0.2182 -0.3507
  334MOL0     C44966   3.126   1.464   9.896  0.5835  0.0699  1.5477
  334MOL0     C44967   3.229   1.554   9.821 -0.2903  0.4051  0.2275
  334MOL0     C44968   3.167   1.631   9.707  0.8761 -0.3298  0.0326
  334MOL0     C44969   3.067   1.734   9.754  0.1822  0.9494 -0.5716
  334MOL0     C44970   3.009   1.811   9.637  0.2041  0.3854 -0.0266
  334MOL0     C44971   3.069   1.944   9.620 -0.9704 -1.0673  0.7328
  334MOL0     N44972   3.066   2.037   9.736  0.4981  1.1395 -0.5829
  334MOL0     C44973   2.968   2.117   9.779 -0.9090  0.7355  0.7511
  334MOL0     C44974   3.027   2.200   9.861  0.0455 -1.3593 -0.1422
  334MOL0     C44975   2.960   2.325   9.937 -0.3335  0.6282 -0.7874
  334MOL0     C44976   2.917   2.283  10.084 -0.0953  0.0947  0.0343
  334MOL0     C44977   3.017   2.188  10.168 -0.1804 -0.5823  0.2106
  334MOL0     C44978   3.151   2.256  10.186 -0.9188  0.3166  1.0356
  334MOL0     O44979   3.151   2.364  10.271  0.1557  0.8231 -0.9343
  334MOL0     C44980   3.240   2.348  10.381 -1.1120  0.2766  0.0614
  334MOL0     C44981   3.227   2.247  10.477  0.6302 -0.0430  0.1677
  334MOL0     C44982   3.311   2.230  10.590  0.6268 -0.7000  1.0510
  334MOL0     C44983   3.420   2.326  10.603 -0.5435  0.2236 -0.2038
  334MOL0     C44984   3.509   2.316  10.721 -0.4328  0.3751 -1.0500
  334MOL0     O44985   3.607   2.417  10.735 -0.3537 -0.0853 -0.2962
  334MOL0     C44986   3.579   2.533  10.815  0.5731 -0.0977 -0.8805
  334MOL0     C44987   3.452   2.579  10.835  0.5968 -0.2720  1.2482
  334MOL0     C44988   3.431   2.699  10.902  0.9379  0.8204 -0.4711
  334MOL0     C44989   3.543   2.765  10.962 -0.3472 -0.1793 -0.1350
  334MOL0     O44990   3.546   2.885  11.024 -0.7649  0.0494 -0.0140
  334MOL0     C44991   3.423   2.943  11.072 -0.4319 -0.7124  0.3746
  334MOL0     C44992   3.379   2.873  11.198  0.6993  0.8351  0.6645
  334MOL0     C44993   3.488   2.867  11.305 -0.7681 -0.0372  0.0633
  334MOL0     C44994   3.426   2.806  11.435 -0.0582  1.5389  0.4905
  334MOL0     C44995   3.517   2.762  11.558  0.4699  0.2821  0.0765
  334MOL0     C44996   3.579   2.886  11.622 -0.2420 -0.4490  0.0467
  334MOL0     C44997   3.679   2.842  11.735 -0.2323  0.6449  0.0880
  334MOL0     C44998   3.811   2.929  11.727  0.1456  0.6322 -0.2387
  334MOL0    Cl44999   3.894   2.897  11.572 -0.3672 -0.4073 -0.5942
  334MOL0     C45000   3.675   2.726  10.925  0.1842  0.0937 -0.3833
  334MOL0     C45001   3.698   2.607  10.860  0.4944 -0.0973  0.0995
  334MOL0     O45002   3.489   2.231  10.810 -0.3775  0.8416  0.1175
  334MOL0     C45003   3.430   2.427  10.513 -1.0296  0.1794  0.0998
  334MOL0     C45004   3.341   2.439  10.398 -0.4252 -0.0574  0.2018
  334MOL0     N45005   3.164   2.169   9.858  0.4771  0.1469  0.0622
  334MOL0     N45006   3.179   2.059   9.794 -0.2933  0.4688 -0.3817
  334MOL0     C45007   3.620   1.304   9.811 -0.0086 -0.6867  0.6855
  334MOL0     C45008   3.739   1.235   9.786  0.5470 -0.6004 -0.0294
  334MOL0     C45009   4.074   0.962   9.929  0.3277 -0.2250 -1.0560
  334MOL0     C45010   4.175   1.040   9.866  0.0163  0.0137 -0.3457
  334MOL0     C45011   4.309   1.060   9.921 -0.8434  0.1955 -0.7809
  334MOL0     C45012   4.340   0.988  10.046  0.3740 -0.7533  0.3111
  334MOL0     O45013   4.469   0.998  10.089  0.1331 -0.2219 -0.0961
  334MOL0     C45014   4.497   0.915  10.199 -0.9782 -0.1435  0.8589
  334MOL0     C45015   4.642   0.870  10.188 -0.5885 -0.2041 -0.4619
  334MOL0     C45016   4.694   0.793  10.310  1.6268 -0.7549 -0.0836
  334MOL0     C45017   4.845   0.780  10.311 -0.2964  0.2154  1.0759
  334MOL0     C45018   4.912   0.906  10.306  0.2370 -0.1460  0.4698
  334MOL0     C45019   4.971   1.011  10.300 -0.4340 -0.2822 -0.6067
  334MOL0     C45020   4.232   0.913  10.104  0.1119  0.5021  0.6577
  334MOL0     C45021   4.102   0.895  10.054 -1.5204  1.0632  0.1330
  334MOL0     C45022   4.002   0.804  10.134 -0.6907 -0.6067 -0.9972
  334MOL0     H45023   3.683   0.953   9.980 -1.2376  0.7399  1.8723
  334MOL0     H45024   3.462   1.058   9.985 -3.4106  2.3962 -1.1844
  334MOL0     H45025   3.238   1.188   9.939  0.3966 -0.2021 -0.0916
  334MOL0     H45026   3.334   1.242  10.076 -1.0338 -2.0375 -0.8228
  334MOL0     H45027   3.263   1.455  10.056  0.0121 -1.8306  1.1981
  334MOL0     H45028   3.119   1.347  10.074 -0.9719 -2.1195 -1.7848
  334MOL0     H45029   3.040   1.516   9.940  0.1894 -1.2756  2.4108
  334MOL0     H45030   3.083   1.390   9.828  0.3642  0.7009  0.9750
  334MOL0     H45031   3.273   1.621   9.896  2.3558 -0.2068 -0.6433
  334MOL0     H45032   3.316   1.499   9.783  0.2334  1.9845 -0.9471
  334MOL0     H45033   3.254   1.667   9.650 -0.7218 -0.5160 -2.7272
  334MOL0     H45034   3.114   1.563   9.641 -1.1536  0.9448  0.2553
  334MOL0     H45035   2.988   1.675   9.803  1.8912  0.6327  1.9675
  334MOL0     H45036   3.106   1.808   9.824  0.1237 -0.6548  1.2476
  334MOL0     H45037   2.903   1.832   9.656  0.2437 -0.5254  1.3069
  334MOL0     H45038   3.002   1.754   9.543  0.6713  1.4008 -0.6914
  334MOL0     H45039   3.173   1.935   9.589 -1.4919 -0.7785 -1.2290
  334MOL0     H45040   3.015   1.987   9.535  1.9200 -0.6467 -1.0019
  334MOL0     H45041   2.864   2.130   9.748  0.1134  2.1090 -2.6153
  334MOL0     H45042   3.043   2.395   9.949 -0.3859  0.2583  3.7931
  334MOL0     H45043   2.868   2.369   9.897 -1.6734  0.0250  1.4024
  334MOL0     H45044   2.885   2.372  10.138 -2.2365  0.5442 -1.8215
  334MOL0     H45045   2.824   2.226  10.071  2.9504 -4.7597 -3.7468
  334MOL0     H45046   3.037   2.089  10.127 -3.5701  0.1236 -3.8608
  334MOL0     H45047   2.966   2.170  10.263 -3.0397  0.6733 -0.9413
  334MOL0     H45048   3.186   2.283  10.086  0.2131 -0.3128  1.2425
  334MOL0     H45049   3.220   2.177  10.220 -0.4691 -0.1887 -0.9523
  334MOL0     H45050   3.161   2.163  10.455  1.2863 -0.5779  0.1990
  334MOL0     H45051   3.297   2.146  10.658 -3.1040 -0.3064  0.9903
  334MOL0     H45052   3.364   2.537  10.789 -0.3518  1.5481  1.3083
  334MOL0     H45053   3.328   2.726  10.921  1.1420  1.9806 -0.9470
  334MOL0     H45054   3.461   3.039  11.106 -0.4118 -0.3500 -0.6483
  334MOL0     H45055   3.345   2.957  10.996  2.8630  2.6154 -2.7562
  334MOL0     H45056   3.292   2.920  11.244  0.2879  0.2442  0.5021
  334MOL0     H45057   3.341   2.775  11.168  0.5183  0.7585  1.1411
  334MOL0     H45058   3.569   2.806  11.267 -1.8382 -1.1188 -0.5605
  334MOL0     H45059   3.527   2.968  11.324  2.8554 -1.0266 -1.3523
  334MOL0     H45060   3.365   2.718  11.410  2.7604 -0.9300  1.7198
  334MOL0     H45061   3.344   2.873  11.462 -1.5734  0.3229 -0.9141
  334MOL0     H45062   3.602   2.713  11.508  0.2704  1.6318 -1.6800
  334MOL0     H45063   3.455   2.690  11.612 -1.8854  0.2751 -2.4218
  334MOL0     H45064   3.642   2.944  11.554 -2.8938 -1.4775 -3.5969
  334MOL0     H45065   3.505   2.956  11.661  1.8207  2.0452 -0.2842
  334MOL0     H45066   3.700   2.737  11.715 -0.8590  0.7549 -1.3265
  334MOL0     H45067   3.623   2.853  11.829  0.2262 -0.4062  0.4952
  334MOL0     H45068   3.798   3.037  11.741  0.1674  0.6467 -0.3336
  334MOL0     H45069   3.872   2.890  11.810  1.5491  0.4307 -1.3262
  334MOL0     H45070   3.762   2.786  10.950  0.6591 -0.5939 -0.3707
  334MOL0     H45071   3.800   2.586  10.831  0.1787  0.6542 -1.6917
  334MOL0     H45072   3.498   2.511  10.518 -1.9583  1.2835 -3.1125
  334MOL0     H45073   3.343   2.518  10.324 -0.3313  0.2997  0.5823
  334MOL0     H45074   3.587   1.395   9.763 -0.3837 -0.7773  0.7648
  334MOL0     H45075   3.814   1.277   9.720 -0.6039  1.1243 -0.3005
  334MOL0     H45076   4.168   1.079   9.764 -0.5095 -1.5341 -0.9206
  334MOL0     H45077   4.383   1.118   9.868 -3.1306  1.4691 -2.8167
  334MOL0     H45078   4.427   0.836  10.225 -2.2033  0.7717  0.4466
  334MOL0     H45079   4.493   0.978  10.288  1.2528  0.0432  0.8885
  334MOL0     H45080   4.702   0.960  10.171 -1.8413  1.0836  1.5624
  334MOL0     H45081   4.656   0.806  10.100  2.3040  0.7573 -0.8285
  334MOL0     H45082   4.633   0.701  10.306 -0.8013  0.7617 -0.1068
  334MOL0     H45083   4.671   0.826  10.412  0.7908 -2.2066  0.2326
  334MOL0     H45084   4.868   0.718  10.398 -0.5102  0.7939  1.5431
  334MOL0     H45085   4.875   0.728  10.219 -1.9462  1.2074 -0.0827
  334MOL0     H45086   5.012   1.110  10.303 -0.1919 -0.3906 -0.1811
  334MOL0     H45087   4.244   0.863  10.200 -2.0953 -1.2381  0.0868
  334MOL0     H45088   4.000   0.698  10.105  0.4247 -1.5203  1.9120
  334MOL0     H45089   4.031   0.813  10.239 -2.8395  0.7433 -0.4464
  334MOL0     H45090   3.901   0.846  10.128 -0.3511  0.4879  0.3182
  335MOL0     O45091   7.622   2.829  10.866  0.7080 -0.0296  0.2492
  335MOL0     C45092   7.671   2.940  10.858  1.0569 -0.6263 -0.1451
  335MOL0     O45093   7.791   2.971  10.917 -0.7924 -0.1986  0.7187
  335MOL0     C45094   7.831   2.887  11.014 -1.2316  0.4642 -0.1721
  335MOL0     C45095   7.923   2.786  10.974  0.0105  0.0412 -0.4083
  335MOL0     C45096   7.994   2.726  11.078 -0.1314 -0.2241 -0.3810
  335MOL0     C45097   7.984   2.772  11.215 -0.1300  0.7989  1.0781
  335MOL0     O45098   8.076   2.717  11.302 -0.1031  0.7661 -0.4138
  335MOL0     C45099   8.110   2.771  11.425  0.8987 -0.0463 -0.9014
  335MOL0     C45100   8.225   2.683  11.480  0.1214 -0.3143  0.2326
  335MOL0     C45101   8.303   2.720  11.602  0.1409 -0.1711  0.1154
  335MOL0     C45102   8.397   2.840  11.595 -0.2164 -1.3025  0.8273
  335MOL0     C45103   8.450   2.876  11.730  0.1240 -0.0070 -0.8148
  335MOL0     C45104   8.501   3.019  11.742  0.5787 -0.4878  0.4481
  335MOL0     C45105   8.534   3.064  11.893 -0.5815 -0.1990  0.6010
  335MOL0     C45106   8.639   2.989  11.977  0.3500  0.0402 -0.1164
  335MOL0     N45107   8.768   3.006  11.912  0.6234 -0.4018 -0.0536
  335MOL0     C45108   8.840   2.908  11.854  0.2984  0.7962  0.1578
  335MOL0     C45109   8.950   2.963  11.799  0.7172 -0.6754 -0.9257
  335MOL0     C45110   9.051   2.885  11.714  0.5035 -0.4748  0.0751
  335MOL0     C45111   8.996   2.810  11.596  0.2387 -0.1412 -0.4467
  335MOL0     C45112   8.949   2.888  11.480 -0.6558  1.0377 -0.1546
  335MOL0     C45113   8.831   2.987  11.496  0.0308 -0.5531 -0.5483
  335MOL0     O45114   8.791   3.051  11.378 -0.3900 -0.2984 -0.5775
  335MOL0     C45115   8.665   3.095  11.382  1.3381 -0.8866 -0.9272
  335MOL0     C45116   8.546   3.032  11.343 -0.1516  0.4640  0.3686
  335MOL0     C45117   8.420   3.080  11.369  0.9579  0.7230  0.0552
  335MOL0     C45118   8.411   3.198  11.444 -0.1359 -0.5906 -0.1351
  335MOL0     C45119   8.270   3.250  11.470 -0.1527 -0.3300 -1.0855
  335MOL0     O45120   8.260   3.385  11.515  0.3283  0.6387  0.2768
  335MOL0     C45121   8.140   3.447  11.513  0.4815  0.1580 -0.1275
  335MOL0     C45122   8.103   3.499  11.634 -0.4977 -0.9461  0.2586
  335MOL0     C45123   7.972   3.547  11.657  1.6884 -0.2454  0.0926
  335MOL0     C45124   7.879   3.554  11.546 -0.4329 -0.2960  0.1081
  335MOL0     O45125   7.754   3.607  11.565 -0.3439  0.0720 -0.4904
  335MOL0     C45126   7.667   3.651  11.459  0.9660  0.2331 -0.3288
  335MOL0     C45127   7.530   3.692  11.531 -0.3159  0.0278 -1.0659
  335MOL0     C45128   7.430   3.740  11.430  0.0473 -0.6104  0.2506
  335MOL0     C45129   7.476   3.882  11.378 -0.3393 -0.3109 -0.1453
  335MOL0     C45130   7.372   3.938  11.279  0.1842 -0.2761  0.3649
  335MOL0     C45131   7.370   4.086  11.276  0.1140 -0.1814  0.5868
  335MOL0     C45132   7.318   4.156  11.155 -0.2987  0.0796  0.6091
  335MOL0     C45133   7.318   4.309  11.153  0.1413  0.0780  1.1554
  335MOL0    Cl45134   7.286   4.377  10.995  0.0335  0.1582  0.1662
  335MOL0     C45135   7.936   3.522  11.418 -0.8002 -0.6337 -0.4686
  335MOL0     C45136   8.061   3.463  11.403  0.0873 -0.2224  0.1074
  335MOL0     O45137   8.175   3.174  11.446 -0.1009  0.0454  0.4264
  335MOL0     C45138   8.521   3.264  11.487  0.3292 -0.4720  1.2366
  335MOL0     C45139   8.653   3.216  11.454 -0.3160  0.9692 -0.6107
  335MOL0     N45140   8.941   3.096  11.829  0.2769  0.6674  0.2208
  335MOL0     N45141   8.830   3.125  11.897 -0.2875  0.1552  0.2981
  335MOL0     C45142   7.896   2.873  11.249 -0.1710  0.5087  0.4021
  335MOL0     C45143   7.818   2.931  11.153 -0.7877 -1.0128  0.3073
  335MOL0     C45144   7.605   3.055  10.788  0.5311  0.1964  1.1019
  335MOL0     C45145   7.660   3.174  10.819 -0.5222 -0.0579  0.1216
  335MOL0     C45146   7.609   3.288  10.753 -0.2799 -0.3683 -0.5001
  335MOL0     C45147   7.516   3.285  10.655 -0.0284 -0.2368  0.5071
  335MOL0     O45148   7.483   3.407  10.590 -0.1382 -0.0841 -0.4347
  335MOL0     C45149   7.453   3.400  10.452  0.5933  0.6745 -0.2834
  335MOL0     C45150   7.423   3.531  10.387 -0.5371  0.5397 -0.2198
  335MOL0     C45151   7.486   3.539  10.249 -0.6222 -0.7167  0.0512
  335MOL0     C45152   7.418   3.652  10.171 -0.1617  0.6548 -0.2719
  335MOL0     C45153   7.495   3.635  10.043 -0.2666 -0.7184  0.4711
  335MOL0     C45154   7.550   3.640   9.933 -0.0315  0.2704 -1.0894
  335MOL0     C45155   7.468   3.154  10.618  0.1701  0.1178  0.5078
  335MOL0     C45156   7.511   3.040  10.682  0.3410  1.0300 -0.1872
  335MOL0     C45157   7.453   2.905  10.643  0.5604  0.9777  0.2922
  335MOL0     H45158   7.950   2.771  10.870  0.0451 -1.6123 -0.1930
  335MOL0     H45159   8.079   2.665  11.051 -0.2355 -3.1842  4.7424
  335MOL0     H45160   8.135   2.877  11.418 -3.2426  1.2809  1.5623
  335MOL0     H45161   8.020   2.765  11.486  0.4867 -0.4614 -1.5332
  335MOL0     H45162   8.299   2.673  11.400  0.0048 -4.0150  0.4067
  335MOL0     H45163   8.193   2.579  11.496 -0.3237 -0.3031 -0.5026
  335MOL0     H45164   8.359   2.634  11.640  1.4744  0.6487  0.0660
  335MOL0     H45165   8.235   2.739  11.685  0.9006 -1.6556  1.1337
  335MOL0     H45166   8.482   2.828  11.526  0.0500 -1.9643  1.2495
  335MOL0     H45167   8.334   2.924  11.568  0.2062 -1.0789  0.5248
  335MOL0     H45168   8.383   2.853  11.814 -0.6756 -0.9801 -1.6809
  335MOL0     H45169   8.539   2.813  11.735 -0.6551 -1.3125 -2.4867
  335MOL0     H45170   8.582   3.042  11.673 -1.1510  2.5974 -0.7511
  335MOL0     H45171   8.427   3.080  11.690 -0.5704 -1.0866  1.3390
  335MOL0     H45172   8.443   3.079  11.952 -0.2165  3.6839  0.3954
  335MOL0     H45173   8.574   3.165  11.887 -0.2668 -0.4017 -2.6135
  335MOL0     H45174   8.639   3.029  12.079 -0.7600 -1.7647  0.6432
  335MOL0     H45175   8.613   2.884  11.990  2.0661 -0.4360 -0.4225
  335MOL0     H45176   8.808   2.804  11.847  0.1530  0.7547  1.2861
  335MOL0     H45177   9.114   2.964  11.672 -0.9184  1.9343  2.1061
  335MOL0     H45178   9.111   2.824  11.782  0.7496 -0.3188  0.0004
  335MOL0     H45179   9.083   2.747  11.574  2.1583  2.6378 -1.4031
  335MOL0     H45180   8.910   2.745  11.611  0.8496 -0.9957 -0.5811
  335MOL0     H45181   8.945   2.827  11.389  1.6883  2.1357 -1.0947
  335MOL0     H45182   9.036   2.952  11.459  3.5054 -2.9001  3.1319
  335MOL0     H45183   8.864   3.063  11.568 -0.3901 -3.2316  2.7172
  335MOL0     H45184   8.748   2.931  11.540 -2.1263  2.4034 -0.4819
  335MOL0     H45185   8.556   2.931  11.304 -2.1233 -0.5242  2.2339
  335MOL0     H45186   8.332   3.027  11.331  0.4593  2.0821 -0.7507
  335MOL0     H45187   8.171   3.499  11.718  0.0843 -0.3744 -0.2055
  335MOL0     H45188   7.943   3.594  11.751 -0.0783 -2.2714  0.6383
  335MOL0     H45189   7.706   3.741  11.411  1.1657 -1.0887 -2.7681
  335MOL0     H45190   7.661   3.561  11.397  1.0788  1.6211 -2.4561
  335MOL0     H45191   7.489   3.603  11.580 -1.3125  0.0308 -1.8648
  335MOL0     H45192   7.551   3.774  11.601 -0.9672  2.8181 -3.9055
  335MOL0     H45193   7.441   3.664  11.352  6.5155 -1.7622  1.7198
  335MOL0     H45194   7.331   3.733  11.477  0.2396 -0.4981  0.6760
  335MOL0     H45195   7.576   3.882  11.334 -0.1664 -0.6076  0.2405
  335MOL0     H45196   7.488   3.955  11.458  3.0128  1.0292 -1.6736
  335MOL0     H45197   7.276   3.897  11.310 -0.0439  0.6892  0.9847
  335MOL0     H45198   7.409   3.900  11.183  0.7255 -1.3089  0.9581
  335MOL0     H45199   7.310   4.118  11.362 -3.3420 -0.3646 -1.5555
  335MOL0     H45200   7.471   4.126  11.282 -0.3234  0.7948  3.9116
  335MOL0     H45201   7.214   4.127  11.138 -0.1563 -2.4255  3.1734
  335MOL0     H45202   7.376   4.115  11.072 -1.1462  2.3000 -1.1762
  335MOL0     H45203   7.241   4.324  11.230  0.0773 -0.8508  1.2822
  335MOL0     H45204   7.413   4.345  11.194  2.2914  0.0275 -3.1727
  335MOL0     H45205   7.882   3.539  11.325 -1.7737 -0.2855  0.1430
  335MOL0     H45206   8.101   3.428  11.308  4.7607 -0.1653  1.8054
  335MOL0     H45207   8.514   3.356  11.543 -0.0010  0.6911 -0.6392
  335MOL0     H45208   8.748   3.264  11.471 -0.5023  1.6992 -1.5248
  335MOL0     H45209   7.893   2.910  11.351  1.1433  4.5904 -0.8466
  335MOL0     H45210   7.757   3.020  11.165  2.0156  1.4761 -2.1949
  335MOL0     H45211   7.740   3.195  10.889 -1.3490  4.7049 -0.0018
  335MOL0     H45212   7.659   3.384  10.766  1.4201 -1.2889  0.0267
  335MOL0     H45213   7.368   3.335  10.430 -0.5123  2.7032 -2.5012
  335MOL0     H45214   7.547   3.364  10.409  0.8590 -3.2467  2.9664
  335MOL0     H45215   7.457   3.609  10.456 -1.3571 -0.3620  1.2381
  335MOL0     H45216   7.318   3.561  10.371 -1.2501 -1.8480 -0.3212
  335MOL0     H45217   7.485   3.447  10.190  1.7830 -0.6613 -0.1851
  335MOL0     H45218   7.593   3.559  10.258  0.2827 -4.0665 -1.4877
  335MOL0     H45219   7.313   3.630  10.155 -1.6345  4.6542  2.1882
  335MOL0     H45220   7.434   3.748  10.222  0.2446 -0.2207  1.3310
  335MOL0     H45221   7.575   3.641   9.828 -3.0637  0.4573 -1.9076
  335MOL0     H45222   7.394   3.141  10.540 -0.4856 -1.0755  1.2902
  335MOL0     H45223   7.398   2.856  10.723 -1.0689  1.7540 -0.2944
  335MOL0     H45224   7.367   2.916  10.575 -1.8060 -6.1549  1.3091
  335MOL0     H45225   7.522   2.840  10.589 -0.5852 -1.0345  1.1086
  336MOL0     O45226   0.849   6.547   0.381  0.5394  0.0250  0.0604
  336MOL0     C45227   0.795   6.615   0.294  0.0889  0.0519  0.1233
  336MOL0     O45228   0.668   6.596   0.255 -0.1273 -0.5642 -0.0758
  336MOL0     C45229   0.575   6.557   0.351 -1.8378 -0.6129 -0.8137
  336MOL0     C45230   0.493   6.643   0.415 -0.9337  0.2360  0.3074
  336MOL0     C45231   0.401   6.600   0.522 -0.6238  0.1629 -0.8007
  336MOL0     C45232   0.400   6.462   0.557  1.2652  0.0274 -0.2182
  336MOL0     O45233   0.292   6.424   0.643 -1.0885 -0.6391 -0.2130
  336MOL0     C45234   0.317   6.307   0.727  0.0663 -0.3965 -0.0521
  336MOL0     C45235   0.252   6.340   0.861 -0.4307 -0.6332  1.0557
  336MOL0     C45236   0.292   6.227   0.958  0.2852 -0.0045  0.8207
  336MOL0     C45237   0.242   6.257   1.096  0.2885 -0.3456 -0.8306
  336MOL0     C45238   0.348   6.332   1.176  0.0263 -0.7257  0.4992
  336MOL0     C45239   0.299   6.365   1.327 -0.9540 -0.5895  0.7991
  336MOL0     C45240   0.409   6.444   1.391 -0.4902 -0.6271 -0.0488
  336MOL0     C45241   0.346   6.487   1.519  0.4278  0.3870 -0.1576
  336MOL0     N45242   0.436   6.571   1.603 -0.1329  0.3029  0.5217
  336MOL0     C45243   0.408   6.613   1.740  0.2993  1.2835  0.4426
  336MOL0     C45244   0.521   6.669   1.779  0.1488 -0.0544 -0.9343
  336MOL0     C45245   0.556   6.736   1.913 -0.3075 -0.5675  0.1720
  336MOL0     C45246   0.551   6.644   2.029  0.6587  0.3815  0.1782
  336MOL0     C45247   0.660   6.669   2.143 -0.0637  0.1730 -0.9622
  336MOL0     C45248   0.595   6.743   2.263  0.9106 -0.2523  0.3938
  336MOL0     O45249   0.547   6.873   2.221 -0.2522 -0.3351 -0.2831
  336MOL0     C45250   0.514   6.953   2.324  0.5904  0.0309  0.3815
  336MOL0     C45251   0.483   7.091   2.285 -0.2386  0.8522  0.0727
  336MOL0     C45252   0.426   7.173   2.384  0.2759  0.0744  0.1142
  336MOL0     C45253   0.402   7.125   2.520 -0.6674  0.0263 -0.0997
  336MOL0     C45254   0.340   7.230   2.610  0.5999 -0.4152 -0.2515
  336MOL0     O45255   0.389   7.255   2.738  0.1151  0.2571 -0.5665
  336MOL0     C45256   0.336   7.362   2.808 -0.1051  0.0732 -0.4331
  336MOL0     C45257   0.394   7.492   2.824  0.1985  0.5980  0.0121
  336MOL0     C45258   0.341   7.586   2.912  0.6460 -0.4476 -0.9347
  336MOL0     C45259   0.236   7.560   3.000  0.4067  0.4733 -0.0075
  336MOL0     O45260   0.198   7.668   3.076  0.1072  0.4674  0.2322
  336MOL0     C45261   0.091   7.650   3.173 -0.2616 -0.3965  0.8391
  336MOL0     C45262  -0.030   7.714   3.129 -0.0093 -0.5571  0.3825
  336MOL0     C45263  -0.014   7.869   3.089  0.3430 -0.9026 -0.0443
  336MOL0     C45264  -0.145   7.925   3.029  0.7975 -0.5426  1.0584
  336MOL0     C45265  -0.131   8.069   2.973  1.1129  0.2742  0.2158
  336MOL0     C45266  -0.245   8.110   2.881 -0.3259 -0.2742 -0.2805
  336MOL0     C45267  -0.191   8.207   2.765  0.2160  0.5859 -0.4521
  336MOL0     C45268  -0.248   8.165   2.632  0.1559  0.3020 -0.4073
  336MOL0    Cl45269  -0.164   8.028   2.564 -0.3850 -0.4739  0.0631
  336MOL0     C45270   0.167   7.440   2.976 -0.3699 -0.0386  0.5768
  336MOL0     C45271   0.222   7.340   2.887  0.2235 -0.0268 -0.7259
  336MOL0     O45272   0.246   7.292   2.554 -0.2863  0.2958 -1.2148
  336MOL0     C45273   0.440   6.990   2.555 -0.1849 -0.7551 -0.1052
  336MOL0     C45274   0.493   6.913   2.455  0.2246  0.1059 -0.0074
  336MOL0     N45275   0.601   6.669   1.668 -0.9765 -0.9457 -0.3451
  336MOL0     N45276   0.555   6.621   1.552 -0.1514 -0.0911  0.0986
  336MOL0     C45277   0.488   6.376   0.487  0.4229 -0.3933 -0.2340
  336MOL0     C45278   0.576   6.425   0.395  0.8678 -0.6458 -0.4294
  336MOL0     C45279   0.886   6.713   0.211 -0.0237  0.5557  0.2738
  336MOL0     C45280   0.821   6.763   0.094  0.0332 -0.3747  0.1933
  336MOL0     C45281   0.905   6.844   0.011  0.1721  0.3852 -0.7764
  336MOL0     C45282   1.029   6.890   0.053  0.3632  0.1019  0.5152
  336MOL0     O45283   1.093   6.980  -0.030  0.4047 -0.4650  0.0777
  336MOL0     C45284   1.233   6.988  -0.018  1.4277  0.0620 -0.2525
  336MOL0     C45285   1.276   7.110   0.067 -0.6600 -0.0653 -0.4140
  336MOL0     C45286   1.253   7.252   0.009  0.0678 -0.1097  0.8041
  336MOL0     C45287   1.311   7.365   0.092 -0.1706  0.3902 -0.6539
  336MOL0     C45288   1.464   7.366   0.105  0.0792 -0.5626 -1.2618
  336MOL0     C45289   1.584   7.398   0.136  0.9878 -0.6455  0.2869
  336MOL0     C45290   1.071   6.860   0.176 -0.1235  0.9934 -0.0112
  336MOL0     C45291   0.997   6.777   0.263 -0.3341 -0.4520  0.1747
  336MOL0     C45292   1.055   6.753   0.399  0.0298  0.1023 -0.5395
  336MOL0     H45293   0.500   6.743   0.374  0.6734  0.0355  0.0440
  336MOL0     H45294   0.329   6.666   0.570 -1.2013 -1.9276  1.4116
  336MOL0     H45295   0.285   6.212   0.684 -2.6762  0.2275  0.4210
  336MOL0     H45296   0.426   6.307   0.733  0.1036 -3.2962  0.7033
  336MOL0     H45297   0.143   6.333   0.853 -0.2204 -2.2486 -2.6469
  336MOL0     H45298   0.287   6.439   0.890 -1.2620 -0.2380  0.7517
  336MOL0     H45299   0.397   6.199   0.956  0.0857 -0.8784  1.7597
  336MOL0     H45300   0.247   6.138   0.913 -0.1760 -0.4126  2.0553
  336MOL0     H45301   0.149   6.315   1.102  1.4641  1.5374  0.1997
  336MOL0     H45302   0.221   6.165   1.152 -0.0200  1.2256  1.7653
  336MOL0     H45303   0.439   6.272   1.175 -2.0352 -4.1379 -0.1610
  336MOL0     H45304   0.371   6.430   1.133 -3.0269  1.1330  2.6656
  336MOL0     H45305   0.201   6.414   1.325 -1.6347 -1.2086  5.9470
  336MOL0     H45306   0.276   6.263   1.362 -3.1280 -2.1214 -4.1361
  336MOL0     H45307   0.433   6.535   1.336  0.6223 -0.0178  1.3888
  336MOL0     H45308   0.503   6.389   1.407  0.1424  0.2456 -0.6746
  336MOL0     H45309   0.255   6.545   1.500 -0.3486 -0.7300  0.0599
  336MOL0     H45310   0.314   6.405   1.584 -0.0349  1.5348  1.0911
  336MOL0     H45311   0.328   6.586   1.807  0.9737 -1.5309  0.2545
  336MOL0     H45312   0.654   6.783   1.903 -1.0145  0.9094 -0.0084
  336MOL0     H45313   0.487   6.820   1.925 -0.5110 -0.7364  0.1885
  336MOL0     H45314   0.446   6.631   2.056  0.0753  0.1168 -2.0186
  336MOL0     H45315   0.582   6.552   1.979 -3.4133 -0.0188 -2.0497
  336MOL0     H45316   0.753   6.706   2.097 -0.2922 -1.1620 -2.5948
  336MOL0     H45317   0.679   6.570   2.185 -2.5472 -0.2637 -0.7398
  336MOL0     H45318   0.677   6.762   2.333  0.1743  1.0960  0.9350
  336MOL0     H45319   0.508   6.689   2.300 -0.0581  2.2559  2.0598
  336MOL0     H45320   0.496   7.122   2.182  1.6315 -0.1879 -0.0421
  336MOL0     H45321   0.392   7.274   2.362 -1.3881 -0.5381 -0.2019
  336MOL0     H45322   0.483   7.519   2.768 -0.3883 -1.7751 -2.2641
  336MOL0     H45323   0.383   7.686   2.908 -2.3972  1.2208  2.2624
  336MOL0     H45324   0.081   7.545   3.202  4.0024 -0.9697  0.9976
  336MOL0     H45325   0.118   7.713   3.258  1.1249 -0.9850  0.8751
  336MOL0     H45326  -0.059   7.659   3.039  2.8468 -1.7949  0.0895
  336MOL0     H45327  -0.107   7.710   3.206  0.0685 -0.5156  0.4621
  336MOL0     H45328   0.017   7.934   3.172 -0.8845  0.7663 -0.8399
  336MOL0     H45329   0.071   7.877   3.020  1.8402  1.4440  1.9037
  336MOL0     H45330  -0.227   7.905   3.098 -0.1660 -1.1539 -0.2442
  336MOL0     H45331  -0.155   7.867   2.937 -1.3871  2.2206 -0.6212
  336MOL0     H45332  -0.034   8.054   2.923  0.2289 -0.7947 -1.2664
  336MOL0     H45333  -0.121   8.143   3.052  0.5836  2.2685 -1.5023
  336MOL0     H45334  -0.298   8.018   2.852 -1.3976 -1.0497  3.5368
  336MOL0     H45335  -0.334   8.147   2.933 -1.4072 -2.2229 -0.6396
  336MOL0     H45336  -0.084   8.189   2.747 -0.0752  1.2157 -3.1654
  336MOL0     H45337  -0.214   8.313   2.773  0.1735  0.8038 -2.7427
  336MOL0     H45338  -0.353   8.147   2.657  0.7402  0.6794  2.7744
  336MOL0     H45339  -0.249   8.251   2.564  0.4080 -0.0804 -0.9103
  336MOL0     H45340   0.067   7.427   3.015  0.0354  1.3431  2.1914
  336MOL0     H45341   0.166   7.249   2.867 -0.6127  0.5405 -1.0007
  336MOL0     H45342   0.423   6.950   2.654  1.3069 -0.5416  0.2561
  336MOL0     H45343   0.524   6.814   2.486  1.8768  0.0874 -1.5756
  336MOL0     H45344   0.479   6.267   0.488  2.5518 -0.6537 -2.2146
  336MOL0     H45345   0.646   6.366   0.336  1.2856  1.0545 -1.7215
  336MOL0     H45346   0.728   6.724   0.053 -0.0517  2.0436 -2.1594
  336MOL0     H45347   0.857   6.885  -0.077 -0.3074 -0.4783 -0.9314
  336MOL0     H45348   1.272   6.996  -0.120 -0.1141  1.5036 -0.7779
  336MOL0     H45349   1.279   6.902   0.030 -0.4074 -0.7901  0.0692
  336MOL0     H45350   1.383   7.097   0.086 -0.5585 -0.5141 -1.2843
  336MOL0     H45351   1.244   7.104   0.172  1.6305 -0.0924  0.3467
  336MOL0     H45352   1.145   7.258  -0.010  0.3695  1.9144 -0.6372
  336MOL0     H45353   1.301   7.268  -0.089 -0.4462  1.6523  0.7926
  336MOL0     H45354   1.288   7.455   0.035  3.6950  1.2629 -1.0871
  336MOL0     H45355   1.262   7.375   0.189  3.2610  2.9117  1.0104
  336MOL0     H45356   1.685   7.420   0.162  0.4911  2.9484 -0.3939
  336MOL0     H45357   1.148   6.924   0.217 -0.6831  2.6961 -1.5046
  336MOL0     H45358   1.116   6.839   0.429  0.2360  0.4795 -1.9444
  336MOL0     H45359   0.981   6.742   0.479  0.6154 -0.9771 -0.1373
  336MOL0     H45360   1.122   6.667   0.400  0.7790  0.6818  0.2091
  337MOL0     O45361   7.604   1.358  10.217 -0.0532  0.2635 -0.1670
  337MOL0     C45362   7.692   1.306  10.153  1.3117  0.0607 -0.0222
  337MOL0     O45363   7.792   1.225  10.203  0.7750 -0.0740 -0.8089
  337MOL0     C45364   7.877   1.132  10.132  0.2601  0.0551  0.3227
  337MOL0     C45365   7.837   1.063  10.013  0.0282  0.6753 -0.3722
  337MOL0     C45366   7.929   0.998   9.939 -0.2601  0.4203 -1.0775
  337MOL0     C45367   8.067   1.013   9.957 -0.7756  1.4283  0.0971
  337MOL0     O45368   8.167   0.960   9.882 -0.1280  0.4806  0.0628
  337MOL0     C45369   8.127   0.920   9.747  0.2322  0.6441 -0.5025
  337MOL0     C45370   8.242   0.841   9.676  0.5175  0.6556 -0.7110
  337MOL0     C45371   8.358   0.939   9.642  0.6931 -0.3031 -0.1853
  337MOL0     C45372   8.459   0.906   9.542  0.2490  0.2452  0.3374
  337MOL0     C45373   8.579   1.009   9.540  0.5511 -0.6869  1.0980
  337MOL0     C45374   8.543   1.155   9.475 -1.4436 -0.0870  0.4706
  337MOL0     C45375   8.664   1.245   9.461 -0.5936 -0.1829 -0.0917
  337MOL0     C45376   8.724   1.306   9.595 -0.5831  0.5301  0.1185
  337MOL0     N45377   8.614   1.351   9.678 -0.6323 -0.1521  0.4476
  337MOL0     C45378   8.566   1.482   9.687 -0.5296 -0.2288 -0.1552
  337MOL0     C45379   8.458   1.481   9.761  0.5258 -0.1178  1.2445
  337MOL0     C45380   8.369   1.592   9.804  0.1595  0.2705 -0.7217
  337MOL0     C45381   8.383   1.620   9.951  0.1095  0.6619  0.5090
  337MOL0     C45382   8.265   1.567  10.026  0.4939 -0.2013 -0.1737
  337MOL0     C45383   8.302   1.519  10.164  0.8534 -0.1423  0.3227
  337MOL0     O45384   8.183   1.466  10.215 -0.0288  0.0370 -0.0838
  337MOL0     C45385   8.170   1.434  10.348 -0.5573  0.2887  0.4227
  337MOL0     C45386   8.273   1.417  10.433  0.1897 -0.5897 -0.1257
  337MOL0     C45387   8.256   1.381  10.569 -0.5894 -0.4100 -0.0945
  337MOL0     C45388   8.127   1.337  10.612  0.7807  0.0603 -0.3932
  337MOL0     C45389   8.101   1.306  10.756  0.4731  0.9692 -0.2549
  337MOL0     O45390   8.204   1.314  10.848  0.0451 -0.7784 -0.1066
  337MOL0     C45391   8.183   1.264  10.978  0.6778 -0.6755 -1.5219
  337MOL0     C45392   8.124   1.143  11.003 -0.2074 -0.4013  0.8790
  337MOL0     C45393   8.099   1.087  11.130 -0.0702 -0.4394 -0.0306
  337MOL0     C45394   8.150   1.155  11.233  0.2219 -0.4227 -0.6319
  337MOL0     O45395   8.120   1.124  11.362 -0.8519 -0.0447 -0.9157
  337MOL0     C45396   8.158   0.998  11.412 -0.3550  1.4024 -0.2160
  337MOL0     C45397   8.302   0.954  11.394  0.4339  0.9473 -0.3094
  337MOL0     C45398   8.324   0.802  11.427  0.3429 -0.4752  0.3933
  337MOL0     C45399   8.471   0.771  11.432 -0.6933 -0.6575  0.0485
  337MOL0     C45400   8.511   0.622  11.483 -0.4738 -0.6042  0.7580
  337MOL0     C45401   8.662   0.589  11.469  0.7294 -0.8093  0.3071
  337MOL0     C45402   8.704   0.566  11.317 -0.2733  0.5526 -0.3941
  337MOL0     C45403   8.850   0.563  11.312 -1.2944 -0.0674 -0.8523
  337MOL0    Cl45404   8.902   0.502  11.152  0.2495  0.1663 -0.0958
  337MOL0     C45405   8.217   1.270  11.213 -0.6322 -0.1239  0.4599
  337MOL0     C45406   8.241   1.323  11.085  0.0555 -0.6292 -0.4443
  337MOL0     O45407   7.983   1.269  10.784 -0.1292  0.0009 -0.0739
  337MOL0     C45408   8.022   1.333  10.518 -0.2275  0.4549 -0.0615
  337MOL0     C45409   8.048   1.387  10.393  0.5676  0.1018  0.4965
  337MOL0     N45410   8.437   1.347   9.808  0.1212 -0.7136  0.1412
  337MOL0     N45411   8.531   1.274   9.759 -0.1412  0.0945  0.1292
  337MOL0     C45412   8.112   1.087  10.064  0.9267  0.1860 -0.6327
  337MOL0     C45413   8.017   1.139  10.158  0.0937  0.5804 -0.8394
  337MOL0     C45414   7.657   1.325  10.010 -0.2300 -0.2079 -0.9053
  337MOL0     C45415   7.544   1.264   9.961  0.2419 -0.9453 -0.0995
  337MOL0     C45416   7.519   1.281   9.823 -0.8353  0.1048  1.4565
  337MOL0     C45417   7.608   1.346   9.743  0.1392 -0.0054  0.0285
  337MOL0     O45418   7.566   1.353   9.614 -0.0883  0.2229 -0.6067
  337MOL0     C45419   7.567   1.489   9.564 -1.1823 -0.5640  0.2322
  337MOL0     C45420   7.500   1.589   9.665 -1.1563 -0.6206 -0.5300
  337MOL0     C45421   7.516   1.725   9.601 -0.5908 -0.1580 -0.0171
  337MOL0     C45422   7.465   1.847   9.692  0.0577  0.1128 -0.3494
  337MOL0     C45423   7.485   1.827   9.840  0.8729  0.0426  0.0186
  337MOL0     C45424   7.505   1.809   9.960 -0.1543  0.3400  0.5727
  337MOL0     C45425   7.715   1.411   9.793 -0.0068  1.0997  0.8760
  337MOL0     C45426   7.752   1.388   9.923 -0.2776  0.9417  0.2475
  337MOL0     C45427   7.870   1.463   9.985 -0.9272  0.1013  0.2949
  337MOL0     H45428   7.731   1.052   9.991 -0.1899 -4.6072  1.8492
  337MOL0     H45429   7.888   0.934   9.862  2.6278  1.5882 -3.7689
  337MOL0     H45430   8.041   0.853   9.758 -0.6783  2.1926  3.6583
  337MOL0     H45431   8.083   1.006   9.697 -1.4548 -1.2762 -2.5493
  337MOL0     H45432   8.189   0.796   9.591 -1.3058 -4.2601  2.5495
  337MOL0     H45433   8.277   0.765   9.747  0.8547  1.5585  0.1011
  337MOL0     H45434   8.409   0.962   9.736 -2.6753 -1.4357  2.0818
  337MOL0     H45435   8.310   1.034   9.616  3.3532  0.8241 -1.3200
  337MOL0     H45436   8.509   0.810   9.563 -0.7804  0.0295  1.9166
  337MOL0     H45437   8.410   0.894   9.445 -0.3892 -0.0882  0.6978
  337MOL0     H45438   8.631   1.015   9.636  4.6287  0.1286 -0.9113
  337MOL0     H45439   8.656   0.967   9.474 -0.8032  0.0321 -1.0465
  337MOL0     H45440   8.510   1.125   9.375  0.7980 -1.5083  0.0697
  337MOL0     H45441   8.471   1.208   9.537 -0.4820 -0.5654  2.0578
  337MOL0     H45442   8.640   1.331   9.399  2.4843  0.6322 -0.2915
  337MOL0     H45443   8.744   1.193   9.408 -0.6415 -0.8075  0.4290
  337MOL0     H45444   8.781   1.230   9.649  0.8586  0.9808 -0.7050
  337MOL0     H45445   8.796   1.383   9.564 -0.0195  0.4086  1.0671
  337MOL0     H45446   8.611   1.563   9.631  1.4066 -1.7077 -0.8613
  337MOL0     H45447   8.399   1.683   9.750  1.9992  0.2901  0.2607
  337MOL0     H45448   8.267   1.577   9.769 -0.7280  0.4751  1.6606
  337MOL0     H45449   8.473   1.567   9.983  0.3938 -0.6365 -2.1135
  337MOL0     H45450   8.406   1.725   9.970  0.2646  0.4786  1.3808
  337MOL0     H45451   8.222   1.482   9.972  1.0701  0.6522 -2.0636
  337MOL0     H45452   8.190   1.647  10.025 -2.0841 -2.4211  0.9180
  337MOL0     H45453   8.342   1.604  10.221  2.0603 -1.0681  0.9096
  337MOL0     H45454   8.389   1.453  10.174  0.5486 -0.7388 -0.8676
  337MOL0     H45455   8.371   1.451  10.404  0.2303  0.1761  0.8522
  337MOL0     H45456   8.338   1.386  10.641 -0.2020  0.0727 -0.5616
  337MOL0     H45457   8.089   1.089  10.916  5.0014 -0.5865 -1.4972
  337MOL0     H45458   8.021   1.012  11.131 -4.5543  3.6914 -1.3675
  337MOL0     H45459   8.130   0.997  11.518  0.8395 -0.0338  0.1204
  337MOL0     H45460   8.094   0.921  11.367  0.4861 -0.8138  2.1374
  337MOL0     H45461   8.342   0.980  11.295  1.7086 -0.1243 -0.1004
  337MOL0     H45462   8.356   1.009  11.471 -0.0945  1.9643 -0.6365
  337MOL0     H45463   8.282   0.782  11.526  4.7946 -1.4138  2.3538
  337MOL0     H45464   8.274   0.738  11.355  2.4537 -3.7499  1.6162
  337MOL0     H45465   8.507   0.854  11.493  0.3893 -0.0094 -1.4114
  337MOL0     H45466   8.518   0.790  11.335 -3.8581 -2.7605 -2.0976
  337MOL0     H45467   8.451   0.551  11.426  1.3691  0.5414 -2.9023
  337MOL0     H45468   8.496   0.606  11.590  0.4169 -1.6083  0.7531
  337MOL0     H45469   8.715   0.673  11.514  0.3727 -1.3722  1.8335
  337MOL0     H45470   8.685   0.507  11.538  2.4969  0.7674  1.6803
  337MOL0     H45471   8.671   0.649  11.253  4.0940  2.3281 -0.6416
  337MOL0     H45472   8.666   0.469  11.285  2.3706 -0.9071  0.5896
  337MOL0     H45473   8.892   0.664  11.320 -2.8051  0.6532 -1.6194
  337MOL0     H45474   8.891   0.489  11.382 -2.2013 -1.1982 -1.4922
  337MOL0     H45475   8.257   1.322  11.300 -1.5204 -2.2662  2.2428
  337MOL0     H45476   8.300   1.413  11.080 -3.2248  1.7210 -0.4109
  337MOL0     H45477   7.929   1.279  10.531  1.2999 -1.8754  1.8294
  337MOL0     H45478   7.966   1.384  10.322  1.1240 -1.6803 -0.1168
  337MOL0     H45479   8.216   1.099  10.092  1.3451  2.7009 -2.8526
  337MOL0     H45480   8.045   1.196  10.245  2.2914 -2.8154  0.9302
  337MOL0     H45481   7.476   1.217  10.031  0.0388  0.0669  0.4068
  337MOL0     H45482   7.430   1.232   9.786 -0.5095 -1.5323  2.7301
  337MOL0     H45483   7.515   1.497   9.468  0.2829  3.4463 -0.4257
  337MOL0     H45484   7.671   1.510   9.540 -1.6392  1.4943 -0.1868
  337MOL0     H45485   7.555   1.595   9.759 -1.5714  0.6168 -0.3413
  337MOL0     H45486   7.396   1.567   9.689 -2.5242  3.6647 -1.5984
  337MOL0     H45487   7.471   1.731   9.502 -4.3594  0.6939  1.5800
  337MOL0     H45488   7.624   1.742   9.592 -0.4151  0.1199  2.1373
  337MOL0     H45489   7.541   1.926   9.688  0.9246 -0.4262  2.8616
  337MOL0     H45490   7.370   1.898   9.671  1.6490  3.2644 -0.4236
  337MOL0     H45491   7.529   1.811  10.064  1.1586  1.4026  0.2748
  337MOL0     H45492   7.781   1.487   9.750  3.3209 -0.8079  2.2244
  337MOL0     H45493   7.851   1.529  10.069  2.4614 -0.3201  1.5356
  337MOL0     H45494   7.943   1.393  10.025 -1.2834  1.5434  3.7470
  337MOL0     H45495   7.918   1.529   9.913 -2.2596  1.7955  0.9031
  338MOL0     O45496  10.342   3.540   7.580 -0.3258 -0.2718 -0.2569
  338MOL0     C45497  10.286   3.429   7.550  0.4125 -0.3873  0.2883
  338MOL0     O45498  10.154   3.395   7.579 -0.1217  0.0136  0.3120
  338MOL0     C45499  10.089   3.281   7.541 -0.1101  0.0647 -0.7558
  338MOL0     C45500  10.054   3.180   7.639 -0.1954  0.5265  0.5972
  338MOL0     C45501  10.004   3.051   7.606 -0.6170 -0.4382 -0.0238
  338MOL0     C45502  10.000   3.024   7.473 -0.2907  0.0149  0.5533
  338MOL0     O45503   9.946   2.910   7.417 -0.2958  0.2920 -0.2035
  338MOL0     C45504   9.995   2.776   7.477 -0.7006 -0.3394 -0.0754
  338MOL0     C45505  10.101   2.717   7.384  0.5183 -0.3610  0.9130
  338MOL0     C45506  10.244   2.755   7.437  0.1155  0.5767 -0.0876
  338MOL0     C45507  10.345   2.760   7.323  0.2867  0.6378 -0.6325
  338MOL0     C45508  10.413   2.628   7.295 -0.1819 -0.8511 -0.1255
  338MOL0     C45509  10.520   2.589   7.398 -0.7416  0.8769  0.4844
  338MOL0     C45510  10.619   2.490   7.341 -0.4482 -0.3067  0.1973
  338MOL0     C45511  10.705   2.416   7.445  0.5422 -0.3572  0.1831
  338MOL0     N45512  10.842   2.469   7.422 -0.1842  0.1991  0.4096
  338MOL0     C45513  10.860   2.606   7.402  0.7772  0.2044 -1.0650
  338MOL0     C45514  10.987   2.618   7.350  0.4056 -0.5317  0.2925
  338MOL0     C45515  11.064   2.749   7.341  0.7836  0.4708  0.1133
  338MOL0     C45516  11.105   2.786   7.190  0.4357 -0.9354 -0.5147
  338MOL0     C45517  11.199   2.911   7.193 -0.1569 -0.2252  0.4225
  338MOL0     C45518  11.219   2.975   7.060  0.8829 -0.2383 -0.4711
  338MOL0     O45519  11.305   3.089   7.080 -0.6043  0.0258 -0.5974
  338MOL0     C45520  11.345   3.165   6.975 -0.1572 -0.1925  0.0733
  338MOL0     C45521  11.482   3.202   6.964  0.0946  0.0663 -0.6458
  338MOL0     C45522  11.511   3.305   6.871 -0.5291  0.7815 -1.1241
  338MOL0     C45523  11.423   3.352   6.780 -0.3527  0.0291  1.0507
  338MOL0     C45524  11.454   3.448   6.671 -0.0750 -0.3857 -0.5407
  338MOL0     O45525  11.583   3.477   6.642 -0.3121 -0.1917 -0.5634
  338MOL0     C45526  11.623   3.589   6.569  0.6256  0.9290  1.3240
  338MOL0     C45527  11.742   3.589   6.496  0.6918 -0.9980  0.4759
  338MOL0     C45528  11.773   3.691   6.406  0.0663  0.5215  0.9247
  338MOL0     C45529  11.688   3.803   6.394  0.7824  0.7114 -0.4293
  338MOL0     O45530  11.718   3.909   6.309 -0.0107 -0.9236 -0.1468
  338MOL0     C45531  11.747   3.881   6.173 -0.1619  0.2925  0.9466
  338MOL0     C45532  11.648   3.920   6.058 -0.5954 -0.3576  0.4024
  338MOL0     C45533  11.618   4.079   6.056  0.0425 -0.1005  1.2036
  338MOL0     C45534  11.539   4.113   5.929  0.5981 -0.4789  0.0447
  338MOL0     C45535  11.524   4.263   5.913  0.0351  0.5166  0.9209
  338MOL0     C45536  11.424   4.301   5.793 -0.3253  0.4503  0.3697
  338MOL0     C45537  11.431   4.456   5.782 -0.8947  0.1578  1.0591
  338MOL0     C45538  11.313   4.512   5.697  0.1083 -0.8102  0.5820
  338MOL0    Cl45539  11.174   4.568   5.801  0.0727 -0.3535 -0.4092
  338MOL0     C45540  11.597   3.822   6.500 -0.4815 -0.2684  0.5463
  338MOL0     C45541  11.560   3.714   6.584 -0.1555 -0.0702 -0.1347
  338MOL0     O45542  11.363   3.491   6.602 -0.5072  0.1039  0.3552
  338MOL0     C45543  11.294   3.304   6.778  0.1361  0.5227 -1.2824
  338MOL0     C45544  11.250   3.208   6.878 -1.2713 -0.5832  0.1888
  338MOL0     N45545  11.041   2.492   7.357 -0.7854 -0.2062  0.4869
  338MOL0     N45546  10.961   2.396   7.400  0.0233 -0.9331 -0.0060
  338MOL0     C45547  10.029   3.122   7.374 -0.0651  0.2047 -0.0170
  338MOL0     C45548  10.066   3.255   7.409 -0.2721  0.8608  0.4479
  338MOL0     C45549  10.371   3.345   7.470 -0.2552  0.8650  0.4919
  338MOL0     C45550  10.416   3.224   7.516 -0.5021  0.9756 -1.0843
  338MOL0     C45551  10.502   3.141   7.446 -0.0195 -0.0517 -0.0606
  338MOL0     C45552  10.549   3.184   7.322 -0.1531 -0.1836 -0.0207
  338MOL0     O45553  10.661   3.148   7.248  0.2009  0.2217  0.0113
  338MOL0     C45554  10.717   3.020   7.257  0.0282  0.1105 -0.5388
  338MOL0     C45555  10.684   2.916   7.145 -0.1708 -0.2884  0.8520
  338MOL0     C45556  10.759   2.939   7.005 -0.2163 -0.1291 -0.3147
  338MOL0     C45557  10.748   2.813   6.918 -0.2870  0.2737  0.4768
  338MOL0     C45558  10.833   2.707   6.976 -0.7252  0.3878 -1.0308
  338MOL0     C45559  10.886   2.600   7.002  0.0671 -0.2691  0.2976
  338MOL0     C45560  10.508   3.308   7.275 -0.1091  0.4057  0.1219
  338MOL0     C45561  10.421   3.384   7.345  0.5585  0.4775 -0.0011
  338MOL0     C45562  10.392   3.518   7.280  0.4810 -0.4359 -0.1156
  338MOL0     H45563  10.061   3.208   7.744  2.1413 -1.5240  1.0927
  338MOL0     H45564   9.990   2.978   7.684  1.4828 -1.1844 -0.2772
  338MOL0     H45565  10.036   2.788   7.578  0.8806 -1.2274 -0.5690
  338MOL0     H45566   9.915   2.703   7.492 -1.2982 -0.3654 -2.8797
  338MOL0     H45567  10.082   2.759   7.285  0.1014 -2.8818 -0.1635
  338MOL0     H45568  10.095   2.608   7.376  2.6533 -0.3850 -3.2753
  338MOL0     H45569  10.269   2.678   7.511 -0.2231  0.6771  0.1307
  338MOL0     H45570  10.247   2.852   7.488  1.5786  1.6327 -2.0426
  338MOL0     H45571  10.294   2.788   7.230 -0.1857  0.5759 -0.3993
  338MOL0     H45572  10.408   2.847   7.342  1.6363 -0.1709 -1.2690
  338MOL0     H45573  10.340   2.547   7.283  2.6965 -3.4256 -2.1887
  338MOL0     H45574  10.467   2.636   7.200 -1.0173  3.6146 -0.4319
  338MOL0     H45575  10.568   2.682   7.429  0.1877 -0.0835  2.0328
  338MOL0     H45576  10.468   2.557   7.489 -0.1532 -1.7891 -0.0317
  338MOL0     H45577  10.677   2.527   7.256  0.1868 -2.2315 -0.2656
  338MOL0     H45578  10.549   2.418   7.298 -0.5202  1.5761 -3.1708
  338MOL0     H45579  10.674   2.400   7.549  2.5413 -2.6965  0.5353
  338MOL0     H45580  10.718   2.309   7.422  2.7752  0.3188 -2.2627
  338MOL0     H45581  10.789   2.687   7.413 -0.8682 -1.2100 -0.7296
  338MOL0     H45582  10.998   2.826   7.382 -0.2956 -1.1951  1.6897
  338MOL0     H45583  11.153   2.756   7.403  1.5077  0.8241 -0.9296
  338MOL0     H45584  11.159   2.713   7.129  3.1442  2.2390 -2.2885
  338MOL0     H45585  11.017   2.829   7.143  0.6667 -0.8509 -0.8715
  338MOL0     H45586  11.301   2.897   7.231 -0.1679  1.7616  1.3600
  338MOL0     H45587  11.139   2.981   7.253  0.7051 -0.2605  1.3545
  338MOL0     H45588  11.124   3.010   7.020  0.6624  1.7097  1.5693
  338MOL0     H45589  11.273   2.908   6.993  3.1809  2.0607 -1.0639
  338MOL0     H45590  11.547   3.174   7.046 -2.1902  0.1273  1.3096
  338MOL0     H45591  11.611   3.346   6.882 -0.5896  0.7149 -0.2613
  338MOL0     H45592  11.806   3.501   6.504  0.3992 -1.1166  1.8105
  338MOL0     H45593  11.855   3.666   6.340  3.0772 -0.4237  4.6553
  338MOL0     H45594  11.828   3.938   6.126 -1.0581 -0.4931 -1.6913
  338MOL0     H45595  11.783   3.778   6.169  0.4346  0.5230  0.2020
  338MOL0     H45596  11.693   3.886   5.964 -1.8585 -1.8195  0.2873
  338MOL0     H45597  11.562   3.855   6.074  0.6955 -2.7736 -1.8832
  338MOL0     H45598  11.556   4.110   6.140 -1.3684  1.3280 -0.2942
  338MOL0     H45599  11.717   4.125   6.057  1.9345 -3.7920  0.6591
  338MOL0     H45600  11.446   4.056   5.919 -3.4021  5.5025 -2.2547
  338MOL0     H45601  11.596   4.086   5.839 -1.0397  1.6315 -1.7293
  338MOL0     H45602  11.623   4.305   5.890  0.0224  0.2291  0.2996
  338MOL0     H45603  11.488   4.315   6.001  2.5811  2.2964  1.0255
  338MOL0     H45604  11.457   4.270   5.694 -0.6682 -1.6292  0.8601
  338MOL0     H45605  11.328   4.253   5.813 -0.1917  0.1863  0.3846
  338MOL0     H45606  11.523   4.493   5.737  0.3375 -2.8955  0.8513
  338MOL0     H45607  11.431   4.485   5.888 -0.1297  2.0930  0.5717
  338MOL0     H45608  11.342   4.602   5.640 -1.3679 -0.6529  0.0485
  338MOL0     H45609  11.274   4.437   5.627  0.5124  2.0427 -3.0490
  338MOL0     H45610  11.536   3.911   6.510 -1.7616 -0.9338 -0.8554
  338MOL0     H45611  11.479   3.730   6.655 -0.2166 -1.0336  0.0297
  338MOL0     H45612  11.230   3.338   6.697 -1.3477 -0.0947 -0.4011
  338MOL0     H45613  11.148   3.170   6.879 -1.9450  1.1603  0.6275
  338MOL0     H45614  10.020   3.105   7.268 -1.3091 -0.2662  0.1480
  338MOL0     H45615  10.090   3.335   7.340 -0.6904  0.8696  0.3105
  338MOL0     H45616  10.382   3.181   7.610 -2.7795 -1.2424 -2.7785
  338MOL0     H45617  10.524   3.043   7.485 -0.3307  0.0171  0.2882
  338MOL0     H45618  10.678   2.970   7.347  2.5464  1.9236  1.7086
  338MOL0     H45619  10.826   3.025   7.263  0.0764 -1.6305  1.0779
  338MOL0     H45620  10.576   2.903   7.133 -0.2251  0.7779  0.0346
  338MOL0     H45621  10.729   2.823   7.181 -0.7149 -0.9520 -0.1333
  338MOL0     H45622  10.859   2.981   7.019  1.0647 -2.4010 -1.9794
  338MOL0     H45623  10.709   3.025   6.960 -0.1111  0.7976  1.2717
  338MOL0     H45624  10.644   2.781   6.907 -0.1635  0.0891 -0.2271
  338MOL0     H45625  10.784   2.840   6.818  0.6144 -1.6011  0.2493
  338MOL0     H45626  10.942   2.513   7.032 -2.2007 -0.7357  3.7631
  338MOL0     H45627  10.554   3.351   7.186  2.8528 -1.3551  0.6961
  338MOL0     H45628  10.444   3.554   7.191 -2.2476  3.3135 -0.4014
  338MOL0     H45629  10.294   3.512   7.233 -0.2498  0.0048  1.2928
  338MOL0     H45630  10.383   3.598   7.354 -0.7611 -0.4462 -0.2371
  339MOL0     O45631  10.153   9.391   0.824  0.3927  0.6121 -0.5820
  339MOL0     C45632  10.242   9.408   0.748 -0.6629  0.0023  0.1632
  339MOL0     O45633  10.341   9.314   0.723  0.2202  0.4883 -0.3951
  339MOL0     C45634  10.466   9.357   0.705  0.0298 -0.7710  0.3546
  339MOL0     C45635  10.530   9.290   0.603 -0.0560  0.2195 -0.5912
  339MOL0     C45636  10.668   9.314   0.569 -0.2934 -0.3852  0.4811
  339MOL0     C45637  10.742   9.418   0.632  0.0176  0.4316 -0.9759
  339MOL0     O45638  10.870   9.443   0.630  0.3397  0.3670  0.5260
  339MOL0     C45639  10.950   9.322   0.591  0.6323  0.0674  0.3208
  339MOL0     C45640  11.108   9.339   0.581  0.2678 -1.4112 -0.1355
  339MOL0     C45641  11.178   9.315   0.714 -0.1817 -0.1633 -0.4957
  339MOL0     C45642  11.304   9.238   0.692 -0.2635  0.8515  0.1403
  339MOL0     C45643  11.369   9.215   0.829  0.0682 -1.1524 -0.0343
  339MOL0     C45644  11.495   9.138   0.815  0.1007  0.9790 -0.0509
  339MOL0     C45645  11.553   9.130   0.957 -1.1095 -0.1337  0.2754
  339MOL0     C45646  11.705   9.156   0.948 -1.5190 -0.5925  0.1692
  339MOL0     N45647  11.769   9.150   1.086 -0.3813  0.0449  0.0987
  339MOL0     C45648  11.793   9.247   1.175 -0.2239 -0.6921 -1.0656
  339MOL0     C45649  11.886   9.188   1.250  0.2850  0.5049  0.2211
  339MOL0     C45650  11.976   9.247   1.352 -0.6126  0.1137 -0.2940
  339MOL0     C45651  11.958   9.179   1.490  0.6311  0.4019 -0.4060
  339MOL0     C45652  11.964   9.275   1.597 -0.3753 -0.7644  0.0095
  339MOL0     C45653  12.006   9.220   1.735  0.7818 -1.0580  0.4957
  339MOL0     O45654  12.135   9.173   1.704  0.4161 -1.2678 -0.2410
  339MOL0     C45655  12.238   9.258   1.691  0.6723 -1.4133  0.4881
  339MOL0     C45656  12.359   9.205   1.672 -1.0037 -0.4939  0.9315
  339MOL0     C45657  12.487   9.278   1.661  0.3424  0.7098 -0.6239
  339MOL0     C45658  12.479   9.417   1.674  0.0464 -0.4266  0.7596
  339MOL0     C45659  12.601   9.496   1.691 -0.3105 -1.0189 -0.1602
  339MOL0     O45660  12.721   9.440   1.662  0.1290  0.2049 -0.2552
  339MOL0     C45661  12.833   9.510   1.704 -0.1883 -0.3815 -0.9543
  339MOL0     C45662  12.874   9.634   1.635 -0.0334 -0.6133 -0.4166
  339MOL0     C45663  12.980   9.708   1.693 -0.5499  0.0594 -0.3161
  339MOL0     C45664  13.072   9.637   1.783  0.3477 -0.8495  0.6834
  339MOL0     O45665  13.182   9.706   1.820 -0.5701 -0.4689  0.8477
  339MOL0     C45666  13.266   9.652   1.926 -0.3194 -0.2367  0.4222
  339MOL0     C45667  13.405   9.698   1.917  0.3578 -0.0139  0.7041
  339MOL0     C45668  13.475   9.638   1.789  0.0406 -0.1785 -0.0632
  339MOL0     C45669  13.604   9.719   1.771 -0.2629  0.3927 -1.2856
  339MOL0     C45670  13.685   9.668   1.647 -0.3279  0.1237  0.0843
  339MOL0     C45671  13.715   9.517   1.652  0.3998 -0.2457 -0.7059
  339MOL0     C45672  13.811   9.461   1.544 -0.4569 -0.3694 -0.3940
  339MOL0     C45673  13.954   9.509   1.560  0.0564  0.0685  0.5924
  339MOL0    Cl45674  13.996   9.664   1.478 -0.1293  0.3595 -0.3288
  339MOL0     C45675  13.026   9.519   1.843 -0.3992  0.0296 -0.7725
  339MOL0     C45676  12.907   9.457   1.806  0.8762 -0.1459 -0.1877
  339MOL0     O45677  12.593   9.609   1.744 -0.3990  0.0102  0.3766
  339MOL0     C45678  12.352   9.480   1.686 -0.3933 -0.2259  0.1240
  339MOL0     C45679  12.240   9.398   1.697 -0.4032 -0.7051 -0.9984
  339MOL0     N45680  11.900   9.056   1.220  0.1422 -0.0583  0.4783
  339MOL0     N45681  11.832   9.037   1.116  0.3149 -0.0984  0.5136
  339MOL0     C45682  10.681   9.479   0.739  0.6184 -0.3390 -0.3057
  339MOL0     C45683  10.546   9.452   0.776  0.6183  0.7274 -0.6675
  339MOL0     C45684  10.221   9.519   0.650 -1.3499  0.2260  0.0461
  339MOL0     C45685  10.254   9.492   0.513  0.7455 -0.2253 -0.2685
  339MOL0     C45686  10.256   9.595   0.416 -0.5583 -0.3804  0.6444
  339MOL0     C45687  10.211   9.723   0.441 -1.8088 -0.2192  0.3655
  339MOL0     O45688  10.213   9.816   0.344 -0.5321 -0.2358  1.1819
  339MOL0     C45689  10.123   9.925   0.341 -0.2670  0.2818  0.4538
  339MOL0     C45690  10.086   9.965   0.192 -0.3263  0.0086 -0.3491
  339MOL0     C45691  10.019  10.101   0.162 -0.8324  0.2165  0.2963
  339MOL0     C45692  10.054  10.177   0.034 -0.6981  0.4663 -0.1669
  339MOL0     C45693   9.997  10.100  -0.076  0.2350  0.3662  0.3876
  339MOL0     C45694   9.950  10.042  -0.171 -0.8595 -0.7211  0.7070
  339MOL0     C45695  10.193   9.755   0.572 -0.8591  0.0922 -0.2375
  339MOL0     C45696  10.201   9.656   0.677  0.9800 -0.2504 -0.3532
  339MOL0     C45697  10.172   9.703   0.818  0.7049 -0.3121  0.1554
  339MOL0     H45698  10.468   9.206   0.574  1.1724 -1.7198  1.9036
  339MOL0     H45699  10.709   9.259   0.485 -1.1610 -0.7869  0.2995
  339MOL0     H45700  10.924   9.235   0.653 -0.5819  0.4377  0.3600
  339MOL0     H45701  10.920   9.288   0.492 -1.0118 -1.6460  1.3339
  339MOL0     H45702  11.145   9.431   0.535  0.2354 -3.1518 -4.0736
  339MOL0     H45703  11.130   9.255   0.514 -1.4450 -1.0403 -1.2452
  339MOL0     H45704  11.123   9.250   0.782 -0.2397  0.4342  0.0341
  339MOL0     H45705  11.197   9.409   0.767  0.2317 -0.3202 -0.3680
  339MOL0     H45706  11.287   9.146   0.635  3.4104  0.8017 -1.1759
  339MOL0     H45707  11.381   9.296   0.639  1.8743  1.2949  3.4029
  339MOL0     H45708  11.380   9.314   0.873 -2.6962 -2.0688  3.1842
  339MOL0     H45709  11.295   9.152   0.880  0.4870 -1.9637 -0.4152
  339MOL0     H45710  11.470   9.033   0.796  4.0215 -0.4305  1.6659
  339MOL0     H45711  11.563   9.182   0.742  0.7691 -2.2271 -1.5507
  339MOL0     H45712  11.545   9.033   1.007 -0.5652 -0.7893 -0.8712
  339MOL0     H45713  11.502   9.198   1.026 -0.4075 -0.9635  1.6521
  339MOL0     H45714  11.768   9.079   0.902 -0.1455 -0.8923  2.3670
  339MOL0     H45715  11.734   9.246   0.894  2.4310 -3.0236 -2.3083
  339MOL0     H45716  11.755   9.349   1.178 -1.4861 -1.0514 -2.7394
  339MOL0     H45717  12.081   9.241   1.321 -0.4823  0.2707  0.1104
  339MOL0     H45718  11.950   9.353   1.357  2.4262  1.0180 -1.5746
  339MOL0     H45719  11.865   9.123   1.487 -0.4538  2.1743 -2.0182
  339MOL0     H45720  12.034   9.103   1.510 -1.2210 -0.9278  2.0876
  339MOL0     H45721  11.864   9.315   1.616 -0.0079  0.0326  0.3280
  339MOL0     H45722  12.031   9.359   1.573  0.6339 -1.2125  1.1619
  339MOL0     H45723  11.958   9.129   1.774 -0.7416  0.1013  1.4263
  339MOL0     H45724  12.000   9.294   1.815 -1.5360  0.8687 -1.3126
  339MOL0     H45725  12.351   9.097   1.680 -3.1897 -0.5052 -0.7207
  339MOL0     H45726  12.580   9.224   1.673  1.4900  2.5554 -0.8844
  339MOL0     H45727  12.827   9.678   1.548 -0.4863 -2.9287 -1.4051
  339MOL0     H45728  13.003   9.804   1.649  0.0830  1.1021  2.1450
  339MOL0     H45729  13.222   9.683   2.021 -4.0557  1.3289 -1.6255
  339MOL0     H45730  13.268   9.543   1.936  2.5945 -0.2676  0.3765
  339MOL0     H45731  13.413   9.807   1.909  0.8197 -0.1665 -2.3093
  339MOL0     H45732  13.465   9.670   2.004  2.1657  1.2638 -0.0633
  339MOL0     H45733  13.497   9.534   1.814  3.0607  0.0973 -1.1691
  339MOL0     H45734  13.418   9.657   1.697 -0.4250  0.5292  0.3644
  339MOL0     H45735  13.668   9.710   1.859 -1.9961  1.7388  0.1884
  339MOL0     H45736  13.581   9.823   1.750  0.5283  1.0506  0.7938
  339MOL0     H45737  13.785   9.713   1.649 -0.3759  0.2165  0.8455
  339MOL0     H45738  13.631   9.682   1.554  2.2564  1.4055 -1.3495
  339MOL0     H45739  13.745   9.489   1.754  4.6072 -2.4373 -2.3363
  339MOL0     H45740  13.617   9.472   1.635  0.6662 -0.3909 -1.9550
  339MOL0     H45741  13.759   9.476   1.448 -5.4553 -1.7008  1.7844
  339MOL0     H45742  13.803   9.352   1.557 -1.1797 -0.3652 -0.7016
  339MOL0     H45743  13.970   9.522   1.667 -1.4431 -0.0798  0.8574
  339MOL0     H45744  14.029   9.433   1.534 -0.6098 -0.6519  0.7075
  339MOL0     H45745  13.083   9.470   1.922 -1.0286 -3.2685 -2.1833
  339MOL0     H45746  12.868   9.371   1.858 -0.9955 -1.4654 -3.4685
  339MOL0     H45747  12.352   9.586   1.708  1.0167  0.3335 -2.1625
  339MOL0     H45748  12.149   9.457   1.700  0.6201  0.9901 -1.8491
  339MOL0     H45749  10.738   9.549   0.800  0.3353  0.5255 -1.0046
  339MOL0     H45750  10.505   9.509   0.859  3.6202  4.1155 -1.2435
  339MOL0     H45751  10.270   9.393   0.473  0.9603  0.7196 -2.7385
  339MOL0     H45752  10.273   9.574   0.311  2.7691 -2.1345  1.4209
  339MOL0     H45753  10.165  10.011   0.395  2.7234 -0.8921  0.1259
  339MOL0     H45754  10.031   9.903   0.396  0.7374  2.6584  3.3768
  339MOL0     H45755  10.019   9.885   0.159 -1.5223  1.2403 -1.0135
  339MOL0     H45756  10.180   9.967   0.135 -1.1584 -2.6856 -2.0268
  339MOL0     H45757  10.037  10.166   0.248 -0.5927 -0.4863  0.7889
  339MOL0     H45758   9.912  10.084   0.178 -0.2633 -1.4004  3.1133
  339MOL0     H45759  10.017  10.279   0.040  2.9305  1.9763  5.6487
  339MOL0     H45760  10.163  10.177   0.028 -0.0511  2.2754  5.3173
  339MOL0     H45761   9.893   9.979  -0.235  1.3553 -1.1657 -0.9618
  339MOL0     H45762  10.155   9.853   0.599  0.1222 -0.5300  4.1943
  339MOL0     H45763  10.214   9.804   0.827  1.3925 -0.4798 -1.0624
  339MOL0     H45764  10.065   9.710   0.842  0.9127 -1.5160  1.5115
  339MOL0     H45765  10.221   9.642   0.894 -0.1323 -0.1617  0.8381
  340MOL0     O45766  10.441   1.202   7.460  0.0303  0.5190 -0.8993
  340MOL0     C45767  10.333   1.185   7.525 -0.2893  0.3561  0.5805
  340MOL0     O45768  10.209   1.214   7.482 -0.5599  0.2528 -0.1434
  340MOL0     C45769  10.168   1.241   7.353 -0.3678 -0.0107 -1.5286
  340MOL0     C45770  10.046   1.309   7.338  0.0368  0.5205  0.8314
  340MOL0     C45771   9.999   1.334   7.204  0.2910  0.0913  1.3122
  340MOL0     C45772  10.064   1.280   7.096  0.3437  0.1198 -0.2594
  340MOL0     O45773  10.026   1.299   6.973  0.4403  0.1443  0.5586
  340MOL0     C45774  10.109   1.303   6.860 -0.6677 -0.5338  0.4311
  340MOL0     C45775  10.030   1.336   6.736  0.5943 -0.7277  0.5016
  340MOL0     C45776  10.121   1.353   6.608 -0.2925  0.4125  0.0064
  340MOL0     C45777  10.053   1.346   6.472  0.4618 -0.1436  0.6671
  340MOL0     C45778  10.126   1.413   6.357  0.4196 -0.2242  0.5562
  340MOL0     C45779  10.057   1.395   6.218  0.4604 -0.1887  0.1333
  340MOL0     C45780  10.154   1.445   6.106  0.5960  0.5090  0.5476
  340MOL0     C45781  10.104   1.399   5.959  0.2488  0.3422 -0.1838
  340MOL0     N45782  10.176   1.472   5.852  0.0885  0.6394  0.6917
  340MOL0     C45783  10.318   1.475   5.836  0.7252 -0.6796 -0.2819
  340MOL0     C45784  10.342   1.509   5.706 -0.1481 -0.2497 -0.7045
  340MOL0     C45785  10.471   1.516   5.633  0.1272  0.7479 -0.5487
  340MOL0     C45786  10.528   1.657   5.670  0.4612  0.6967 -0.2010
  340MOL0     C45787  10.640   1.693   5.568 -0.0461  0.0930  1.3165
  340MOL0     C45788  10.582   1.737   5.436  0.1263 -0.2581 -0.4184
  340MOL0     O45789  10.607   1.652   5.321  0.5656  0.1905 -0.3090
  340MOL0     C45790  10.729   1.615   5.281 -0.0079 -0.5317 -0.4161
  340MOL0     C45791  10.844   1.683   5.319  0.4195  0.3023 -0.7850
  340MOL0     C45792  10.965   1.669   5.250  0.2881  0.2178  0.5344
  340MOL0     C45793  10.975   1.579   5.147  0.0710  0.2725  0.7765
  340MOL0     C45794  11.104   1.555   5.093  0.8150 -1.2812  0.6159
  340MOL0     O45795  11.102   1.519   4.955 -0.2488 -0.8730  0.3194
  340MOL0     C45796  11.217   1.522   4.884  0.2469  0.4335  0.1140
  340MOL0     C45797  11.323   1.437   4.896 -0.9310 -0.7275 -0.0740
  340MOL0     C45798  11.435   1.466   4.815 -0.1450  0.1503  0.2581
  340MOL0     C45799  11.436   1.564   4.717  0.3480  0.2922  1.6899
  340MOL0     O45800  11.529   1.581   4.619  0.3833  0.3894  1.0729
  340MOL0     C45801  11.658   1.531   4.637  0.4589  0.1552 -0.4134
  340MOL0     C45802  11.761   1.567   4.521 -0.0724  0.2318  1.0293
  340MOL0     C45803  11.716   1.481   4.392 -0.0063 -0.6369  0.7031
  340MOL0     C45804  11.638   1.570   4.281  0.5789 -0.0678  0.2503
  340MOL0     C45805  11.611   1.489   4.156  0.4749  0.7949 -0.2608
  340MOL0     C45806  11.517   1.558   4.063  0.0644  0.2850  0.0680
  340MOL0     C45807  11.473   1.474   3.944  1.0430  0.3233  0.1790
  340MOL0     C45808  11.563   1.485   3.832 -0.3916  1.2104  0.4441
  340MOL0    Cl45809  11.554   1.645   3.761  0.7968 -0.2429  0.0749
  340MOL0     C45810  11.330   1.646   4.706 -0.1863 -0.3144 -0.5960
  340MOL0     C45811  11.221   1.627   4.790 -1.0107  0.7902  0.6427
  340MOL0     O45812  11.206   1.575   5.162 -0.2707  0.2551  0.9104
  340MOL0     C45813  10.864   1.492   5.120  0.8658  0.3393  0.7688
  340MOL0     C45814  10.737   1.522   5.188 -1.3934 -0.3008  0.3206
  340MOL0     N45815  10.219   1.532   5.647  0.5196  0.9205 -0.3688
  340MOL0     N45816  10.124   1.505   5.733 -0.5504  0.3447 -0.3592
  340MOL0     C45817  10.185   1.202   7.118  0.5082 -0.6302 -0.2838
  340MOL0     C45818  10.239   1.194   7.247  0.4690  0.5168 -0.3196
  340MOL0     C45819  10.340   1.146   7.674 -1.5357  1.3638  0.8073
  340MOL0     C45820  10.248   1.198   7.765 -0.1518  0.5122  0.1628
  340MOL0     C45821  10.252   1.185   7.901 -0.2125 -0.0890 -1.4081
  340MOL0     C45822  10.358   1.110   7.952  0.3762  0.8116  0.7580
  340MOL0     O45823  10.369   1.090   8.094 -0.2168  0.9034  0.1682
  340MOL0     C45824  10.279   1.145   8.189 -0.6721  0.3244  0.4449
  340MOL0     C45825  10.350   1.108   8.322  0.3140 -1.2698 -0.8618
  340MOL0     C45826  10.458   1.218   8.353 -0.3499  0.3145 -0.0012
  340MOL0     C45827  10.414   1.327   8.441 -0.1354  1.0273 -0.2090
  340MOL0     C45828  10.312   1.405   8.383  1.2779  0.0048 -0.1227
  340MOL0     C45829  10.241   1.475   8.321  0.4342 -0.6611 -0.5421
  340MOL0     C45830  10.441   1.040   7.865  0.6003  0.3275  0.3632
  340MOL0     C45831  10.435   1.048   7.718  0.2596  0.3238 -0.5526
  340MOL0     C45832  10.544   0.979   7.627 -0.0490 -2.0013  0.8091
  340MOL0     H45833   9.993   1.360   7.418  0.4610  2.2827  0.0350
  340MOL0     H45834   9.912   1.396   7.189  2.8218  3.3501 -1.9624
  340MOL0     H45835  10.176   1.381   6.896  0.8963 -2.6951  2.5379
  340MOL0     H45836  10.166   1.212   6.838  1.3388  1.3335 -2.9028
  340MOL0     H45837   9.981   1.433   6.749  2.3085  0.0261  1.6712
  340MOL0     H45838   9.952   1.260   6.726 -0.8131  0.2686  2.9555
  340MOL0     H45839  10.191   1.270   6.618  0.2592  1.0934  2.4642
  340MOL0     H45840  10.170   1.451   6.613  2.9032 -0.8053 -2.9681
  340MOL0     H45841  10.046   1.240   6.443 -1.2824  0.1282 -0.0286
  340MOL0     H45842   9.956   1.396   6.482  0.5457  1.5787 -4.2561
  340MOL0     H45843  10.134   1.519   6.386  0.6694 -0.7572  2.5756
  340MOL0     H45844  10.227   1.370   6.358  0.2960 -0.5589 -0.6527
  340MOL0     H45845  10.053   1.288   6.195  4.2020  0.3937 -5.1146
  340MOL0     H45846   9.957   1.434   6.200  0.8578  0.0558 -1.7788
  340MOL0     H45847  10.252   1.407   6.136 -0.2159  0.0008  2.8286
  340MOL0     H45848  10.163   1.554   6.107  2.9041  0.3589  0.0740
  340MOL0     H45849  10.131   1.294   5.952  0.6634  0.4556 -0.3123
  340MOL0     H45850   9.997   1.419   5.949 -0.0098 -1.0341 -0.2736
  340MOL0     H45851  10.400   1.451   5.904  1.2201  0.0229 -0.6185
  340MOL0     H45852  10.547   1.439   5.650 -0.4078  0.7688  2.4457
  340MOL0     H45853  10.449   1.519   5.526 -0.9589  0.7935 -0.3271
  340MOL0     H45854  10.462   1.744   5.659 -0.2800 -0.0999 -2.8578
  340MOL0     H45855  10.580   1.656   5.766  1.0488  0.4303 -0.5121
  340MOL0     H45856  10.716   1.615   5.558 -0.0148  0.2964 -0.2871
  340MOL0     H45857  10.698   1.777   5.607  0.5336  0.8788 -1.0801
  340MOL0     H45858  10.615   1.835   5.401  2.0800 -0.9262 -0.5441
  340MOL0     H45859  10.475   1.754   5.453 -0.1430 -1.9793 -0.1694
  340MOL0     H45860  10.847   1.743   5.409 -0.1445  1.4770 -1.5344
  340MOL0     H45861  11.047   1.722   5.296 -0.3348  1.9605 -0.2942
  340MOL0     H45862  11.319   1.354   4.965  0.1692 -0.3260  0.5027
  340MOL0     H45863  11.515   1.393   4.809  1.7324  2.1512 -0.4945
  340MOL0     H45864  11.695   1.565   4.734  1.3771 -1.5887 -0.1124
  340MOL0     H45865  11.650   1.423   4.647 -0.5848  0.4641  5.5013
  340MOL0     H45866  11.776   1.672   4.497 -0.0262  0.3392  1.5117
  340MOL0     H45867  11.862   1.529   4.542  0.4089  1.8091  1.7237
  340MOL0     H45868  11.797   1.444   4.329  2.4632  2.6323  1.7048
  340MOL0     H45869  11.657   1.392   4.415  0.7678 -1.7502 -1.3135
  340MOL0     H45870  11.698   1.660   4.264 -1.6471  2.0964  2.9862
  340MOL0     H45871  11.547   1.594   4.336 -1.0191  3.0787 -3.3428
  340MOL0     H45872  11.567   1.389   4.167  1.0051  0.1939 -2.8740
  340MOL0     H45873  11.709   1.477   4.108  0.9593  2.9185  0.0954
  340MOL0     H45874  11.433   1.583   4.127  2.0493 -3.4082  4.6936
  340MOL0     H45875  11.564   1.653   4.036 -0.5221  0.3968 -0.6047
  340MOL0     H45876  11.373   1.497   3.905  2.0285 -0.7796 -3.3657
  340MOL0     H45877  11.455   1.370   3.974 -0.5853  0.7549  0.8414
  340MOL0     H45878  11.666   1.458   3.858 -0.6787 -3.4180 -2.0431
  340MOL0     H45879  11.535   1.404   3.764 -4.0469  0.8442  2.1384
  340MOL0     H45880  11.340   1.735   4.645 -2.0178  1.9695  2.1452
  340MOL0     H45881  11.139   1.696   4.773 -0.3581  1.1777 -1.1728
  340MOL0     H45882  10.860   1.404   5.057 -0.1524 -2.5808  4.4989
  340MOL0     H45883  10.649   1.465   5.161 -0.5785  0.5068 -4.9912
  340MOL0     H45884  10.238   1.153   7.038 -0.2947 -0.4870 -0.9156
  340MOL0     H45885  10.335   1.150   7.269  0.2882  0.9130  1.4522
  340MOL0     H45886  10.163   1.262   7.742  0.6131  2.7078  2.9498
  340MOL0     H45887  10.165   1.221   7.956 -0.5625  1.8647 -3.1059
  340MOL0     H45888  10.188   1.087   8.174  0.5666 -1.0643 -2.7071
  340MOL0     H45889  10.283   1.252   8.163  1.4871 -0.1560 -1.6202
  340MOL0     H45890  10.400   1.011   8.317  2.2995 -0.5342  2.1702
  340MOL0     H45891  10.279   1.107   8.405  3.0358  1.0157  1.6868
  340MOL0     H45892  10.506   1.249   8.260  0.0676 -1.0395 -0.2492
  340MOL0     H45893  10.534   1.174   8.418 -0.6779  0.8183  0.7418
  340MOL0     H45894  10.368   1.289   8.532 -1.6729  1.1129 -0.9280
  340MOL0     H45895  10.502   1.389   8.464  1.2990 -1.0097  0.0587
  340MOL0     H45896  10.198   1.548   8.255  0.4797 -0.4138 -0.2993
  340MOL0     H45897  10.520   0.979   7.908  1.2218  0.2252 -0.8653
  340MOL0     H45898  10.501   0.918   7.547  1.0079 -0.7686 -0.7504
  340MOL0     H45899  10.596   1.060   7.575 -3.2121  0.0295  0.5061
  340MOL0     H45900  10.613   0.914   7.683  0.7027 -4.4331 -2.6453
  341MOL0     O45901   5.171   9.005   8.127 -0.3172 -0.0369 -0.7481
  341MOL0     C45902   5.225   8.978   8.238  0.3028  0.1116  0.5855
  341MOL0     O45903   5.307   9.065   8.314  0.1081 -0.3077  0.7275
  341MOL0     C45904   5.313   9.194   8.285 -0.4566 -0.8198  0.5772
  341MOL0     C45905   5.324   9.247   8.153  0.3833  0.8468 -0.1490
  341MOL0     C45906   5.322   9.386   8.137  0.6691 -0.0641 -1.1502
  341MOL0     C45907   5.312   9.472   8.249  0.2743  0.2670  0.3430
  341MOL0     O45908   5.309   9.613   8.233  0.5926  0.1104  0.0218
  341MOL0     C45909   5.279   9.694   8.348 -0.7353  0.8080 -0.0973
  341MOL0     C45910   5.232   9.827   8.294 -0.3734 -0.0504 -0.3328
  341MOL0     C45911   5.347   9.921   8.293  0.4202 -0.0088  0.4648
  341MOL0     C45912   5.285  10.055   8.258 -0.5490  1.3155  0.3673
  341MOL0     C45913   5.387  10.163   8.221  1.0191  0.6693 -1.0083
  341MOL0     C45914   5.317  10.295   8.196 -0.2003 -0.4272 -0.6265
  341MOL0     C45915   5.414  10.420   8.208  0.2375  0.5254  0.4869
  341MOL0     C45916   5.499  10.441   8.076  0.0896  0.3989 -1.0862
  341MOL0     N45917   5.414  10.472   7.967 -0.3732 -0.3148 -0.7120
  341MOL0     C45918   5.359  10.597   7.929  1.0549  0.5961  0.7408
  341MOL0     C45919   5.292  10.579   7.816  0.9056 -0.2379 -0.5654
  341MOL0     C45920   5.212  10.683   7.739  0.7084  0.1550  0.0261
  341MOL0     C45921   5.097  10.740   7.830  0.1561 -0.1845  0.9843
  341MOL0     C45922   4.986  10.636   7.869 -0.0450  0.6365  0.7062
  341MOL0     C45923   4.938  10.563   7.741 -0.4221 -0.7879 -0.9315
  341MOL0     O45924   4.829  10.477   7.785  1.3430  0.1240  0.0253
  341MOL0     C45925   4.849  10.353   7.841 -0.2763 -0.0594  0.0774
  341MOL0     C45926   4.743  10.282   7.895 -1.3177  0.1591 -0.0601
  341MOL0     C45927   4.762  10.164   7.964  0.0975  0.2908  0.1615
  341MOL0     C45928   4.888  10.101   7.951  0.6459  1.2384  0.2939
  341MOL0     C45929   4.907   9.973   8.011 -0.6403  0.3884 -0.7218
  341MOL0     O45930   4.819   9.933   8.116  0.0377  0.2802 -0.4623
  341MOL0     C45931   4.850   9.828   8.186  1.2470 -0.7632 -0.3315
  341MOL0     C45932   4.883   9.700   8.139 -0.1005 -0.3839 -0.8909
  341MOL0     C45933   4.906   9.593   8.215  0.9541  0.8871 -0.8811
  341MOL0     C45934   4.896   9.601   8.356  0.6846  1.0562 -0.6300
  341MOL0     O45935   4.915   9.498   8.452  0.2668 -0.2042  0.0044
  341MOL0     C45936   4.897   9.366   8.401 -0.0375 -0.5124 -0.4025
  341MOL0     C45937   4.947   9.269   8.510  0.4724 -0.5217  0.1206
  341MOL0     C45938   4.867   9.298   8.635 -0.1995 -0.9102  0.1518
  341MOL0     C45939   4.881   9.181   8.730  0.8527  0.6013  0.4356
  341MOL0     C45940   4.835   9.226   8.866  0.2000  0.7087  0.4177
  341MOL0     C45941   4.869   9.108   8.955  0.3361  0.3342  0.2535
  341MOL0     C45942   4.794   9.123   9.091  0.1616 -0.1178 -0.6638
  341MOL0     C45943   4.809   8.990   9.164  0.3196  1.0079 -0.2046
  341MOL0    Cl45944   4.698   8.859   9.106  0.2329 -0.0372  0.0614
  341MOL0     C45945   4.861   9.732   8.407 -0.7546  0.4739 -0.2214
  341MOL0     C45946   4.842   9.843   8.325 -0.2744  0.6300  0.3129
  341MOL0     O45947   5.010   9.918   7.987  0.8778  0.0506  0.1820
  341MOL0     C45948   4.997  10.170   7.894  0.3260 -0.5840  0.8452
  341MOL0     C45949   4.974  10.300   7.839  0.2235 -0.0190 -1.0456
  341MOL0     N45950   5.319  10.455   7.783  0.4840 -0.0724  0.5440
  341MOL0     N45951   5.382  10.385   7.872 -0.2645  1.1081  1.8435
  341MOL0     C45952   5.305   9.415   8.378 -0.4105  0.0867  0.2362
  341MOL0     C45953   5.309   9.276   8.396  0.6046  0.2473 -0.2727
  341MOL0     C45954   5.224   8.834   8.277 -0.1038  0.0893  0.4775
  341MOL0     C45955   5.322   8.791   8.360  0.8517  0.3116  1.1552
  341MOL0     C45956   5.345   8.658   8.396  0.5073 -0.6085  1.3011
  341MOL0     C45957   5.268   8.561   8.333  0.5436 -0.1637 -0.2037
  341MOL0     O45958   5.277   8.422   8.348 -0.7658 -0.0508 -0.0618
  341MOL0     C45959   5.310   8.379   8.479 -0.5114  0.0788  0.4748
  341MOL0     C45960   5.196   8.321   8.555  0.3495 -0.6440 -0.0407
  341MOL0     C45961   5.124   8.210   8.475  1.1032 -0.4019  0.4372
  341MOL0     C45962   5.007   8.136   8.545  0.2971 -0.4639  0.1607
  341MOL0     C45963   4.884   8.219   8.550  0.0780  0.0272  0.4186
  341MOL0     C45964   4.790   8.288   8.520 -0.2047  0.0814  0.0966
  341MOL0     C45965   5.157   8.602   8.257 -0.7082 -0.1792  0.0208
  341MOL0     C45966   5.135   8.737   8.223  0.5695 -0.3488 -0.0387
  341MOL0     C45967   5.020   8.751   8.122  0.9110 -0.7025  0.3453
  341MOL0     H45968   5.339   9.178   8.070  0.3654 -0.4777  0.9150
  341MOL0     H45969   5.318   9.433   8.039 -2.5500 -0.9887 -1.5669
  341MOL0     H45970   5.193   9.654   8.401  1.6468 -2.1182  1.8435
  341MOL0     H45971   5.374   9.699   8.402 -1.0623  2.0772  0.3894
  341MOL0     H45972   5.156   9.869   8.361 -1.2896 -0.4664 -1.0782
  341MOL0     H45973   5.196   9.821   8.191 -1.4222  2.1888 -0.1477
  341MOL0     H45974   5.431   9.897   8.227  0.5337  0.5570  0.3983
  341MOL0     H45975   5.396   9.918   8.391  2.2453  3.9530 -0.1056
  341MOL0     H45976   5.214  10.037   8.177  0.0801  0.4960 -0.0228
  341MOL0     H45977   5.223  10.091   8.340 -1.6577  0.3510 -0.0244
  341MOL0     H45978   5.454  10.171   8.308 -0.6199 -2.7495  0.7807
  341MOL0     H45979   5.449  10.145   8.132  1.3954  0.1798 -0.6530
  341MOL0     H45980   5.268  10.296   8.099  0.1958  1.1384 -0.8389
  341MOL0     H45981   5.236  10.319   8.265 -0.4128  2.5766 -1.7756
  341MOL0     H45982   5.484  10.399   8.290  2.5657  0.1196 -1.4888
  341MOL0     H45983   5.357  10.508   8.240  1.5410  1.4499  0.3382
  341MOL0     H45984   5.571  10.520   8.101  1.6834 -1.3313  0.1152
  341MOL0     H45985   5.547  10.349   8.041 -1.2086  0.5437 -3.5033
  341MOL0     H45986   5.360  10.695   7.975 -5.9150  0.2828  2.7316
  341MOL0     H45987   5.278  10.766   7.714  0.0731  1.4762  2.4963
  341MOL0     H45988   5.175  10.620   7.658 -0.5315 -2.7011  2.6047
  341MOL0     H45989   5.135  10.791   7.919 -0.5251 -2.9102  2.9593
  341MOL0     H45990   5.042  10.817   7.775 -2.7907 -2.2071  0.8370
  341MOL0     H45991   4.906  10.700   7.906 -0.1545  0.6069  0.5208
  341MOL0     H45992   5.007  10.564   7.949 -0.5978 -3.6005 -2.5777
  341MOL0     H45993   5.018  10.503   7.696  0.9727  0.7513 -0.6179
  341MOL0     H45994   4.897  10.642   7.678 -2.4132 -0.4022  0.7333
  341MOL0     H45995   4.657  10.348   7.898 -1.3110  0.1875 -0.4387
  341MOL0     H45996   4.683  10.116   8.020 -0.9406  1.2660 -0.4170
  341MOL0     H45997   4.889   9.684   8.032  0.4811 -0.4620 -0.8523
  341MOL0     H45998   4.919   9.492   8.178  0.4449  0.6295 -0.3724
  341MOL0     H45999   4.793   9.344   8.378 -0.9229 -1.3811  3.6148
  341MOL0     H46000   4.955   9.343   8.312 -0.6265 -0.5099 -0.7931
  341MOL0     H46001   4.938   9.167   8.471 -0.7172 -0.8210  1.1218
  341MOL0     H46002   5.051   9.286   8.536  0.1461 -1.4280  2.2175
  341MOL0     H46003   4.912   9.386   8.681 -1.4935 -1.0254  1.7065
  341MOL0     H46004   4.762   9.308   8.603 -1.0834 -3.9924  1.6449
  341MOL0     H46005   4.986   9.150   8.729  0.7729 -0.1281  3.5530
  341MOL0     H46006   4.815   9.100   8.696  2.6842 -0.3313 -1.0709
  341MOL0     H46007   4.731   9.257   8.859  0.0042  0.8038  2.8727
  341MOL0     H46008   4.889   9.315   8.899 -0.0982 -0.3080  4.0336
  341MOL0     H46009   4.835   9.014   8.911 -1.0988  1.0323 -0.2012
  341MOL0     H46010   4.977   9.102   8.975  0.4384 -1.1701 -0.6590
  341MOL0     H46011   4.686   9.133   9.076  0.5297  1.2131 -2.8895
  341MOL0     H46012   4.830   9.206   9.152 -1.0992 -0.6097  0.8074
  341MOL0     H46013   4.908   8.947   9.145 -0.3547  0.6218 -3.4676
  341MOL0     H46014   4.788   9.002   9.270  3.4766 -1.1655  0.8240
  341MOL0     H46015   4.867   9.742   8.515  2.2095 -1.0672 -0.1276
  341MOL0     H46016   4.801   9.938   8.357  0.6347  0.2020  2.9992
  341MOL0     H46017   5.096  10.126   7.896 -0.3075 -2.1798 -0.3550
  341MOL0     H46018   5.062  10.340   7.789 -0.3151  1.6721 -0.7091
  341MOL0     H46019   5.306   9.479   8.465  2.8251  0.3156  0.1674
  341MOL0     H46020   5.310   9.235   8.497  2.3316  1.0668  0.0673
  341MOL0     H46021   5.384   8.866   8.408  2.3343  2.1940 -3.2396
  341MOL0     H46022   5.418   8.642   8.475  1.6693  2.1109  0.8843
  341MOL0     H46023   5.356   8.450   8.548 -0.1552  1.5592 -1.2210
  341MOL0     H46024   5.389   8.304   8.467 -2.5138 -2.1512  0.3542
  341MOL0     H46025   5.128   8.403   8.580 -0.0409 -1.5184  1.9821
  341MOL0     H46026   5.234   8.273   8.645 -0.0660 -2.0008 -0.5621
  341MOL0     H46027   5.191   8.127   8.451 -0.0844 -0.9446 -1.1784
  341MOL0     H46028   5.077   8.245   8.383 -1.4491 -3.2736  0.4848
  341MOL0     H46029   4.994   8.033   8.510  0.1583 -1.4071  2.7965
  341MOL0     H46030   5.023   8.116   8.651 -2.9991  1.0630  1.0725
  341MOL0     H46031   4.704   8.348   8.500 -0.4611  0.4545  2.1061
  341MOL0     H46032   5.089   8.523   8.225  1.6174 -2.4706  0.3944
  341MOL0     H46033   4.955   8.665   8.111  0.9344 -0.7034  0.2213
  341MOL0     H46034   4.954   8.836   8.142 -0.1344 -1.4536  0.1609
  341MOL0     H46035   5.061   8.767   8.022  1.3130  1.2296  0.7599
  342MOL0     O46036   6.789   4.484   0.118 -0.0756 -0.4218  0.8745
  342MOL0     C46037   6.708   4.400   0.146  0.6365  0.7186 -0.0116
  342MOL0     O46038   6.712   4.338   0.266  0.1967  0.2614 -0.1007
  342MOL0     C46039   6.683   4.210   0.272  0.5482 -0.2200 -0.1289
  342MOL0     C46040   6.560   4.161   0.321 -0.1884 -0.4550  0.4049
  342MOL0     C46041   6.526   4.020   0.337 -0.0678 -0.1386 -0.5538
  342MOL0     C46042   6.621   3.930   0.285 -0.3673 -0.7047  0.3789
  342MOL0     O46043   6.589   3.792   0.283  0.0723 -1.2748 -0.2400
  342MOL0     C46044   6.699   3.713   0.226  0.4052 -1.2854 -0.0430
  342MOL0     C46045   6.662   3.570   0.241  0.6228 -0.5456 -0.3485
  342MOL0     C46046   6.781   3.483   0.194  0.6133  0.4317 -0.4512
  342MOL0     C46047   6.791   3.427   0.052  0.6994  0.1548  1.1531
  342MOL0     C46048   6.937   3.390   0.018  0.1428  0.0153  0.5056
  342MOL0     C46049   6.937   3.331  -0.127  0.5991 -0.3204 -0.4331
  342MOL0     C46050   6.887   3.427  -0.228  0.4899  0.0435  0.3055
  342MOL0     C46051   6.917   3.392  -0.381  0.7148 -0.0000 -0.2897
  342MOL0     N46052   6.863   3.496  -0.468 -0.2601  0.4963 -0.6003
  342MOL0     C46053   6.937   3.562  -0.564  0.5872  0.1546 -0.7736
  342MOL0     C46054   6.850   3.653  -0.616  1.2829  1.0818  0.7592
  342MOL0     C46055   6.871   3.758  -0.733  0.1160  0.7473 -0.2278
  342MOL0     C46056   6.969   3.868  -0.692  0.4918 -0.6099 -0.1431
  342MOL0     C46057   6.949   3.940  -0.550  0.3291  0.9283  0.6025
  342MOL0     C46058   6.817   4.008  -0.512  0.4247 -0.5490 -0.3614
  342MOL0     O46059   6.840   4.101  -0.402  1.4342  0.9931  0.4581
  342MOL0     C46060   6.889   4.056  -0.285  0.2800 -0.8119 -0.1159
  342MOL0     C46061   6.973   4.127  -0.200  0.4889 -0.5996 -0.3190
  342MOL0     C46062   7.022   4.068  -0.077 -0.0177  0.0714  0.6515
  342MOL0     C46063   7.003   3.935  -0.049  0.7131  0.3455 -0.4095
  342MOL0     C46064   7.070   3.860   0.057  0.6889 -0.7808 -0.0851
  342MOL0     O46065   7.201   3.901   0.095  0.7913  0.5664  0.4951
  342MOL0     C46066   7.268   3.816   0.178  0.7370 -0.7170 -0.0203
  342MOL0     C46067   7.379   3.881   0.238  0.0739 -0.0951  0.1826
  342MOL0     C46068   7.471   3.805   0.329 -0.1524  0.8323  0.1477
  342MOL0     C46069   7.447   3.668   0.354  1.6718 -0.6128 -0.2900
  342MOL0     O46070   7.534   3.599   0.427  0.5113  0.5739  0.3765
  342MOL0     C46071   7.591   3.490   0.353  0.2826  0.4195 -0.3080
  342MOL0     C46072   7.709   3.430   0.424 -0.3778 -0.1478  0.9669
  342MOL0     C46073   7.786   3.341   0.323  0.5030  0.2558  0.4704
  342MOL0     C46074   7.907   3.286   0.395  0.1805 -0.3777 -0.4185
  342MOL0     C46075   7.989   3.190   0.307  0.3774 -0.5448 -0.2226
  342MOL0     C46076   7.943   3.039   0.337  1.0052 -0.3011  0.4616
  342MOL0     C46077   8.004   2.932   0.253  0.1794  0.1051  0.7380
  342MOL0     C46078   7.940   2.798   0.287 -0.1713 -1.2477  0.3153
  342MOL0    Cl46079   7.967   2.759   0.460 -0.3933 -0.5320 -0.0070
  342MOL0     C46080   7.332   3.612   0.293 -0.3857  0.3888  0.3926
  342MOL0     C46081   7.252   3.685   0.207  0.2798 -0.0718  0.7216
  342MOL0     O46082   6.993   3.796   0.133  0.1135  0.1614  0.0142
  342MOL0     C46083   6.916   3.861  -0.131  0.8381 -0.4509 -0.1066
  342MOL0     C46084   6.862   3.925  -0.245  0.1759  0.3916  0.6886
  342MOL0     N46085   6.731   3.649  -0.545  0.3776  0.2995 -0.0203
  342MOL0     N46086   6.749   3.567  -0.441 -0.0916  0.3926 -0.6513
  342MOL0     C46087   6.748   3.982   0.231 -0.1745 -0.4574  0.3823
  342MOL0     C46088   6.782   4.124   0.232 -0.4696 -0.3058  0.1214
  342MOL0     C46089   6.624   4.360   0.034 -0.2101  0.7580  0.2907
  342MOL0     C46090   6.674   4.274  -0.062  0.0779  0.6603  0.6420
  342MOL0     C46091   6.587   4.210  -0.157  0.1320  0.4102  0.5298
  342MOL0     C46092   6.452   4.239  -0.157  1.4831  0.3990 -0.7886
  342MOL0     O46093   6.378   4.195  -0.258 -0.3362 -0.2934 -0.1645
  342MOL0     C46094   6.267   4.274  -0.287  0.2423 -0.4689 -0.5758
  342MOL0     C46095   6.230   4.264  -0.425  0.9983  0.2601  0.7301
  342MOL0     C46096   6.156   4.142  -0.475 -0.3926 -0.1904 -0.4489
  342MOL0     C46097   6.137   4.162  -0.618 -0.1622 -0.4696  0.4449
  342MOL0     C46098   6.118   4.036  -0.693  0.1113 -0.9771 -0.5885
  342MOL0     C46099   6.072   3.935  -0.740  0.0017 -0.6792  0.9004
  342MOL0     C46100   6.402   4.331  -0.053 -0.1370  1.2597  0.7370
  342MOL0     C46101   6.487   4.397   0.036 -0.7199  1.0296  0.0400
  342MOL0     C46102   6.427   4.477   0.150 -1.1347  0.1925  0.2322
  342MOL0     H46103   6.480   4.221   0.364 -0.8593  1.0870 -2.7269
  342MOL0     H46104   6.429   3.995   0.379 -0.7021  4.2682  1.1699
  342MOL0     H46105   6.712   3.731   0.119 -1.8539 -2.4659 -0.6006
  342MOL0     H46106   6.792   3.708   0.282  0.6770 -3.5241 -0.5738
  342MOL0     H46107   6.572   3.547   0.184  0.5162  0.7005 -0.7006
  342MOL0     H46108   6.660   3.560   0.350 -1.3829  0.3623 -0.2613
  342MOL0     H46109   6.775   3.402   0.267  1.3670  2.7689  2.3785
  342MOL0     H46110   6.874   3.525   0.231 -0.9070  1.7980  2.1266
  342MOL0     H46111   6.732   3.336   0.041  1.5520 -0.2332 -0.5742
  342MOL0     H46112   6.752   3.506  -0.011  0.6762  0.1391  1.1476
  342MOL0     H46113   7.006   3.474   0.027  2.8237 -1.9691 -0.4070
  342MOL0     H46114   6.981   3.305   0.069  0.2189 -3.0301 -4.0619
  342MOL0     H46115   7.042   3.313  -0.152  1.0798  0.5999  0.8089
  342MOL0     H46116   6.881   3.237  -0.131 -1.8062  0.8713  1.9969
  342MOL0     H46117   6.940   3.519  -0.201 -2.1207  1.7327  0.0581
  342MOL0     H46118   6.782   3.443  -0.204  0.5808  0.1137  0.6621
  342MOL0     H46119   7.027   3.397  -0.386  1.0127  3.2458  3.9026
  342MOL0     H46120   6.874   3.298  -0.415  1.6474  0.9654 -4.9017
  342MOL0     H46121   7.042   3.553  -0.587  0.3299  0.4146 -2.1498
  342MOL0     H46122   6.899   3.706  -0.825 -3.0828 -4.2842  1.1752
  342MOL0     H46123   6.768   3.790  -0.752 -0.7412 -1.1103  0.8967
  342MOL0     H46124   7.070   3.827  -0.687  0.8486  0.3091  0.5422
  342MOL0     H46125   6.958   3.950  -0.763 -4.6022 -0.5318  0.3291
  342MOL0     H46126   7.022   4.022  -0.543  2.4648 -0.1869 -4.3033
  342MOL0     H46127   6.955   3.856  -0.480 -3.7997 -0.8078 -0.8321
  342MOL0     H46128   6.735   3.937  -0.499 -0.6583  0.8557  0.9683
  342MOL0     H46129   6.780   4.064  -0.599 -1.5012  2.4446  2.1751
  342MOL0     H46130   6.984   4.233  -0.219  0.3606  0.0832  2.8554
  342MOL0     H46131   7.071   4.128  -0.001 -0.3117  0.8646  0.2300
  342MOL0     H46132   7.402   3.984   0.214  0.1761 -0.2834 -0.5561
  342MOL0     H46133   7.560   3.847   0.376  1.0184 -1.0289 -0.3200
  342MOL0     H46134   7.517   3.410   0.345  0.9818 -0.2979  0.1965
  342MOL0     H46135   7.628   3.520   0.255  0.6926 -0.5547 -0.4627
  342MOL0     H46136   7.778   3.509   0.454 -1.1503  1.7295 -1.8500
  342MOL0     H46137   7.678   3.380   0.516  0.1047 -0.5963  0.8951
  342MOL0     H46138   7.724   3.262   0.280 -0.4133  1.8088 -1.2083
  342MOL0     H46139   7.809   3.406   0.239  0.3514 -2.6694 -2.0057
  342MOL0     H46140   7.868   3.230   0.481 -2.5978  2.3235  0.2453
  342MOL0     H46141   7.967   3.365   0.440 -2.5168  1.7963 -0.3411
  342MOL0     H46142   8.096   3.201   0.328 -0.0341 -0.8665  2.3156
  342MOL0     H46143   7.974   3.213   0.201 -2.4040  4.3621  0.9238
  342MOL0     H46144   7.950   3.018   0.445 -3.4732  1.2182  1.2463
  342MOL0     H46145   7.837   3.033   0.315  0.4186  2.6946  2.0050
  342MOL0     H46146   8.110   2.931   0.277  0.2644  0.6880  0.4180
  342MOL0     H46147   8.003   2.941   0.143 -4.1352 -0.9442  0.4970
  342MOL0     H46148   7.833   2.791   0.267 -1.4081  1.4357  4.6743
  342MOL0     H46149   8.001   2.730   0.227 -0.5540 -0.2168 -1.3044
  342MOL0     H46150   7.303   3.514   0.329 -2.1017  1.2726  1.5689
  342MOL0     H46151   7.164   3.638   0.162  0.8060  1.7462 -2.5250
  342MOL0     H46152   6.878   3.764  -0.100 -0.4947  0.5129  1.4079
  342MOL0     H46153   6.783   3.863  -0.284 -2.1165  3.3368  0.3049
  342MOL0     H46154   6.816   3.923   0.169 -1.0099  0.8729 -1.9154
  342MOL0     H46155   6.877   4.161   0.194  0.1702 -2.0888 -0.1259
  342MOL0     H46156   6.780   4.253  -0.064 -0.0098 -0.0179 -2.5585
  342MOL0     H46157   6.630   4.136  -0.223  0.9412 -1.5728  3.0878
  342MOL0     H46158   6.285   4.378  -0.257  1.2531 -1.1901  1.5303
  342MOL0     H46159   6.180   4.240  -0.229 -0.9270  0.0388 -1.9718
  342MOL0     H46160   6.318   4.273  -0.489 -0.1527 -2.7203 -1.4982
  342MOL0     H46161   6.160   4.348  -0.436 -1.9528 -1.9414  1.4300
  342MOL0     H46162   6.062   4.125  -0.423  0.4043 -2.1070  0.4494
  342MOL0     H46163   6.218   4.053  -0.460  1.5318  1.2594  0.6776
  342MOL0     H46164   6.050   4.226  -0.632  1.0045  1.7509  2.7087
  342MOL0     H46165   6.217   4.213  -0.671  1.3131 -2.6573  0.4044
  342MOL0     H46166   6.039   3.844  -0.786 -0.2343 -0.5780  0.8649
  342MOL0     H46167   6.294   4.337  -0.050 -0.6922 -2.1316 -3.0478
  342MOL0     H46168   6.417   4.425   0.245 -0.4682  2.7704  1.8079
  342MOL0     H46169   6.497   4.557   0.173 -1.4152  0.7283 -0.6966
  342MOL0     H46170   6.336   4.533   0.123  0.1244  2.2288  0.0379
  343MOL0     O46171   0.971   0.419   4.493 -0.5234 -0.0081  0.1312
  343MOL0     C46172   0.948   0.297   4.469 -0.3132  0.6460  0.0334
  343MOL0     O46173   1.022   0.212   4.393 -0.7495  0.1380  0.4733
  343MOL0     C46174   1.096   0.265   4.287 -0.2518  0.8029  0.3790
  343MOL0     C46175   1.076   0.397   4.230  0.2288 -0.7010 -0.0271
  343MOL0     C46176   1.174   0.445   4.142  0.1669  0.0562 -0.3671
  343MOL0     C46177   1.275   0.370   4.088 -0.4798  0.2205  0.2271
  343MOL0     O46178   1.368   0.409   3.998 -0.1854  0.2326  0.3353
  343MOL0     C46179   1.329   0.507   3.908  0.4500 -0.0099  0.2606
  343MOL0     C46180   1.213   0.453   3.824 -0.0500  0.5581  0.4028
  343MOL0     C46181   1.242   0.309   3.771  0.4242 -0.8016  0.3414
  343MOL0     C46182   1.203   0.281   3.634 -0.7224 -0.3214  0.7286
  343MOL0     C46183   1.304   0.325   3.532 -1.0067  0.3345 -0.4326
  343MOL0     C46184   1.251   0.288   3.400  0.8093 -0.4629 -0.6545
  343MOL0     C46185   1.124   0.375   3.350  0.2374 -0.7358  0.3694
  343MOL0     C46186   1.060   0.357   3.213 -0.5592  0.4976  0.6726
  343MOL0     N46187   0.960   0.459   3.205  0.4448  0.0287 -0.5397
  343MOL0     C46188   0.840   0.471   3.276  0.4146 -0.5499  0.3583
  343MOL0     C46189   0.771   0.572   3.214 -0.0555 -0.0045 -0.1788
  343MOL0     C46190   0.627   0.612   3.234  0.9860  0.3109  0.8776
  343MOL0     C46191   0.544   0.487   3.266 -0.5534 -0.2810 -0.2994
  343MOL0     C46192   0.528   0.393   3.142 -0.1482 -0.6551 -0.5272
  343MOL0     C46193   0.426   0.290   3.160  0.0729 -0.2510 -1.2913
  343MOL0     O46194   0.469   0.190   3.257 -0.2353 -0.0754 -0.6275
  343MOL0     C46195   0.404   0.070   3.274  0.6392 -0.1545 -0.9572
  343MOL0     C46196   0.453  -0.021   3.378  0.1922  1.0250  0.9061
  343MOL0     C46197   0.379  -0.134   3.426 -0.3225  0.7329  0.0712
  343MOL0     C46198   0.242  -0.152   3.376 -1.0754  0.3904 -0.2846
  343MOL0     C46199   0.161  -0.253   3.433  0.8325 -0.2515 -0.6078
  343MOL0     O46200   0.203  -0.324   3.545 -0.4743  0.3314 -1.0234
  343MOL0     C46201   0.122  -0.416   3.602  0.6244 -0.1521  1.0371
  343MOL0     C46202  -0.015  -0.390   3.639 -1.7181  0.0266  0.5550
  343MOL0     C46203  -0.099  -0.480   3.698 -0.9684  0.0455 -0.4631
  343MOL0     C46204  -0.067  -0.604   3.733 -0.1417  0.4864  1.0047
  343MOL0     O46205  -0.167  -0.692   3.785 -1.3154 -0.1308  1.2689
  343MOL0     C46206  -0.147  -0.835   3.794  0.0522 -0.2703 -0.2364
  343MOL0     C46207  -0.158  -0.903   3.655 -0.2820 -0.3730  0.0221
  343MOL0     C46208  -0.074  -1.025   3.646 -0.5069 -0.6440  0.5175
  343MOL0     C46209  -0.073  -1.088   3.513  0.3417  0.5798  0.7667
  343MOL0     C46210  -0.004  -1.219   3.512 -0.8249  0.0060  0.4830
  343MOL0     C46211   0.058  -1.263   3.381 -0.4051 -0.5708 -0.5473
  343MOL0     C46212  -0.039  -1.255   3.267 -0.4822  0.4192  0.5474
  343MOL0     C46213   0.028  -1.327   3.143  0.1706 -0.3655 -0.3027
  343MOL0    Cl46214  -0.078  -1.304   3.002  0.1704 -0.0445 -0.1066
  343MOL0     C46215   0.073  -0.639   3.703  0.4826  0.8748 -0.7497
  343MOL0     C46216   0.168  -0.542   3.648  0.2644  1.3263  0.2340
  343MOL0     O46217   0.059  -0.281   3.368 -0.1740  0.5267 -0.4083
  343MOL0     C46218   0.205  -0.059   3.276  0.1982 -0.2763 -0.0065
  343MOL0     C46219   0.281   0.043   3.228  0.9035  0.0662  0.5484
  343MOL0     N46220   0.851   0.614   3.113 -0.8936 -0.1026  0.5967
  343MOL0     N46221   0.963   0.550   3.113  0.0039 -0.1598  0.0140
  343MOL0     C46222   1.285   0.239   4.134  0.0128  0.2819  0.5581
  343MOL0     C46223   1.203   0.190   4.239 -0.6597  0.3121 -0.4277
  343MOL0     C46224   0.830   0.244   4.542 -0.5600 -0.4329  0.5214
  343MOL0     C46225   0.771   0.138   4.471 -0.2621  0.2619  0.2486
  343MOL0     C46226   0.656   0.073   4.523 -0.2917  1.9445 -0.1942
  343MOL0     C46227   0.593   0.119   4.636 -0.6606  0.1590  0.4854
  343MOL0     O46228   0.485   0.050   4.681 -0.1204  0.0891 -0.0523
  343MOL0     C46229   0.382   0.106   4.748 -0.8453  0.3644 -0.1122
  343MOL0     C46230   0.289  -0.008   4.814  0.3553  0.5312 -0.7572
  343MOL0     C46231   0.373  -0.105   4.910  0.2589  0.1028  0.4879
  343MOL0     C46232   0.306  -0.193   5.015 -0.5100 -1.1686 -0.3431
  343MOL0     C46233   0.189  -0.243   4.953  0.1556 -0.3278 -1.0305
  343MOL0     C46234   0.099  -0.313   4.906 -0.2473 -0.4195  0.1502
  343MOL0     C46235   0.649   0.226   4.705  0.4797 -1.0850  0.1310
  343MOL0     C46236   0.768   0.289   4.662  0.3990  0.3317  0.2220
  343MOL0     C46237   0.821   0.391   4.756  0.0361  0.5832  0.2835
  343MOL0     H46238   0.993   0.462   4.255 -1.2735 -2.3744 -0.4570
  343MOL0     H46239   1.154   0.548   4.114 -0.0947 -0.0869 -0.7184
  343MOL0     H46240   1.289   0.601   3.946 -1.6023  1.2547 -4.2676
  343MOL0     H46241   1.415   0.532   3.844 -0.1792  0.0230 -0.5975
  343MOL0     H46242   1.196   0.525   3.743  0.5046 -0.5661 -0.7418
  343MOL0     H46243   1.122   0.451   3.885  0.4699 -1.4721  1.1865
  343MOL0     H46244   1.184   0.235   3.827 -0.0984 -0.8103 -0.1998
  343MOL0     H46245   1.348   0.287   3.785  1.0431  2.3519  1.2653
  343MOL0     H46246   1.178   0.175   3.635  0.1705 -0.5427  1.6969
  343MOL0     H46247   1.111   0.334   3.608 -0.1642  0.2849 -0.0624
  343MOL0     H46248   1.325   0.432   3.547  1.2982 -0.0617 -0.3799
  343MOL0     H46249   1.406   0.284   3.536 -1.1516 -0.0214 -0.3784
  343MOL0     H46250   1.332   0.303   3.327  3.9644  2.8666  3.0234
  343MOL0     H46251   1.217   0.185   3.404  0.7669 -0.4177  2.1320
  343MOL0     H46252   1.164   0.476   3.337 -3.7184  0.6146 -3.6466
  343MOL0     H46253   1.040   0.366   3.419  0.2640  0.7648  0.6398
  343MOL0     H46254   1.118   0.364   3.121 -0.0528 -5.3838  0.1797
  343MOL0     H46255   0.995   0.269   3.213 -2.1471  1.6008 -0.6598
  343MOL0     H46256   0.799   0.405   3.352  0.8824  0.1756  1.2562
  343MOL0     H46257   0.614   0.690   3.310 -1.7916  0.6699  0.1266
  343MOL0     H46258   0.591   0.656   3.141  0.1980 -1.7266  0.1702
  343MOL0     H46259   0.580   0.428   3.351 -0.8908 -0.4025 -0.2390
  343MOL0     H46260   0.443   0.521   3.292 -1.4118 -1.4697 -1.8416
  343MOL0     H46261   0.627   0.351   3.123  0.4421  0.5498 -0.2131
  343MOL0     H46262   0.495   0.456   3.058 -1.2811  1.5724  1.4453
  343MOL0     H46263   0.400   0.241   3.066 -3.9215 -3.0019  0.9494
  343MOL0     H46264   0.333   0.336   3.195  1.8483  3.2691 -0.6740
  343MOL0     H46265   0.554   0.003   3.408  0.9887  5.0332 -3.7487
  343MOL0     H46266   0.423  -0.207   3.493 -1.1942 -0.6497 -0.7975
  343MOL0     H46267  -0.056  -0.292   3.620 -2.0223 -0.3733 -0.9806
  343MOL0     H46268  -0.198  -0.449   3.730 -1.5431 -0.9671 -1.1871
  343MOL0     H46269  -0.055  -0.864   3.844 -0.9658 -0.6292  1.5223
  343MOL0     H46270  -0.219  -0.868   3.870 -1.0163  1.4623 -0.4448
  343MOL0     H46271  -0.263  -0.930   3.637 -0.3795  0.7414 -1.2890
  343MOL0     H46272  -0.128  -0.834   3.575 -1.7949  0.6184  0.2713
  343MOL0     H46273   0.028  -1.000   3.677 -0.9250 -0.2460  1.6358
  343MOL0     H46274  -0.119  -1.098   3.714 -1.2055 -1.0049 -0.3171
  343MOL0     H46275  -0.006  -1.023   3.455 -1.1882  0.2085 -1.5798
  343MOL0     H46276  -0.171  -1.080   3.464  1.1872  0.6041 -0.9821
  343MOL0     H46277  -0.070  -1.300   3.545  1.9990 -1.8013  2.0817
  343MOL0     H46278   0.077  -1.202   3.584 -2.1894  2.5825  1.5672
  343MOL0     H46279   0.141  -1.196   3.356  0.2275 -1.9399 -2.3761
  343MOL0     H46280   0.104  -1.361   3.400 -0.5696 -0.0846  3.1560
  343MOL0     H46281  -0.061  -1.151   3.240 -0.7737  0.2521  0.1337
  343MOL0     H46282  -0.131  -1.304   3.301  0.2748  0.3193  2.5928
  343MOL0     H46283   0.133  -1.309   3.121 -0.0602  0.4111 -0.8368
  343MOL0     H46284   0.031  -1.433   3.171  1.5818 -0.0153  0.9988
  343MOL0     H46285   0.109  -0.737   3.730 -0.1952  0.7758 -0.1866
  343MOL0     H46286   0.265  -0.590   3.635 -0.2477 -0.6657  2.8591
  343MOL0     H46287   0.111  -0.088   3.230 -0.1280 -1.4862  1.3599
  343MOL0     H46288   0.237   0.114   3.159 -0.2264 -1.4671 -0.3540
  343MOL0     H46289   1.362   0.170   4.102 -0.4071 -0.7214  1.6384
  343MOL0     H46290   1.230   0.090   4.271 -0.5612  0.9622  1.6719
  343MOL0     H46291   0.803   0.088   4.381  1.0479 -1.6250  1.6872
  343MOL0     H46292   0.610  -0.012   4.474  1.4985 -0.1363  1.4482
  343MOL0     H46293   0.331   0.169   4.675 -0.5048 -0.2038 -0.8483
  343MOL0     H46294   0.414   0.169   4.832  0.2167 -0.0979 -0.1507
  343MOL0     H46295   0.239  -0.077   4.745  0.9030 -2.8273  1.9528
  343MOL0     H46296   0.210   0.049   4.863  1.0135  1.6567 -0.9643
  343MOL0     H46297   0.444  -0.053   4.975 -1.2256  1.4268  1.1004
  343MOL0     H46298   0.435  -0.169   4.845 -1.0518 -2.5475  1.6839
  343MOL0     H46299   0.371  -0.276   5.047 -1.9063 -2.6415 -1.1567
  343MOL0     H46300   0.280  -0.130   5.101 -3.8427  0.7165 -2.5044
  343MOL0     H46301   0.049  -0.390   4.851  1.6790 -0.9241 -0.9737
  343MOL0     H46302   0.602   0.249   4.800  2.6815 -2.3814  1.6031
  343MOL0     H46303   0.783   0.369   4.857  2.7769 -1.6404  0.9726
  343MOL0     H46304   0.930   0.390   4.761 -0.0231 -0.1434  2.5100
  343MOL0     H46305   0.787   0.490   4.725 -5.4244 -0.6022  1.3784
  344MOL0     O46306   9.874   5.196   5.370 -0.3034  0.5884 -0.3596
  344MOL0     C46307   9.968   5.133   5.326 -0.4219 -0.1281  0.1049
  344MOL0     O46308   9.965   5.033   5.232  0.3043  0.3779  0.0734
  344MOL0     C46309   9.842   4.982   5.197 -0.4843  0.6989 -0.3192
  344MOL0     C46310   9.775   5.037   5.090  0.4498 -1.2339  0.5972
  344MOL0     C46311   9.647   4.994   5.055  0.3235 -0.3717 -0.7268
  344MOL0     C46312   9.588   4.895   5.126  1.2179  0.7034  0.3453
  344MOL0     O46313   9.471   4.848   5.076 -0.5662  0.5023 -0.3183
  344MOL0     C46314   9.358   4.927   5.047  0.2062  0.3788 -0.2801
  344MOL0     C46315   9.314   4.894   4.903 -0.3400 -0.1834  0.1012
  344MOL0     C46316   9.275   4.744   4.906  0.8613 -0.4745  0.2006
  344MOL0     C46317   9.173   4.710   4.791 -0.0831  0.6405 -0.4942
  344MOL0     C46318   9.121   4.574   4.787  0.2880 -0.6053  0.3280
  344MOL0     C46319   9.002   4.551   4.709  0.4927 -0.8208 -0.1266
  344MOL0     C46320   8.921   4.424   4.749  0.8824  0.1909  0.9042
  344MOL0     C46321   8.977   4.297   4.677  0.0245 -0.9077 -0.5905
  344MOL0     N46322   9.108   4.253   4.729  0.5910  0.8955 -0.3793
  344MOL0     C46323   9.147   4.257   4.862  0.9025  0.2291 -0.2461
  344MOL0     C46324   9.279   4.231   4.862  0.0972  0.4973 -0.2265
  344MOL0     C46325   9.381   4.218   4.972 -0.0887  0.5485  0.3504
  344MOL0     C46326   9.490   4.326   4.974 -0.5643  0.7716  0.5320
  344MOL0     C46327   9.601   4.318   4.862  0.8005  0.1185 -0.1930
  344MOL0     C46328   9.690   4.434   4.846 -0.1735 -1.1236  1.3795
  344MOL0     O46329   9.795   4.453   4.942  0.2612  0.1357  0.3732
  344MOL0     C46330   9.875   4.563   4.926 -0.4939  0.2614  0.0542
  344MOL0     C46331   9.977   4.571   5.025 -0.6310  0.0589 -0.8891
  344MOL0     C46332  10.069   4.676   5.026 -0.9271 -0.1859  0.5612
  344MOL0     C46333  10.061   4.783   4.927  0.4225  0.5007  0.3958
  344MOL0     C46334  10.154   4.898   4.926  0.1123  0.3088  0.4686
  344MOL0     O46335  10.265   4.899   5.012  0.1409  0.0849  0.7361
  344MOL0     C46336  10.342   5.007   4.999 -0.9910  0.5611  0.7568
  344MOL0     C46337  10.447   4.994   4.912 -0.8469 -0.3735 -0.6336
  344MOL0     C46338  10.524   5.107   4.895  0.2489  0.1954 -0.1985
  344MOL0     C46339  10.505   5.223   4.971 -0.2717 -0.4217 -0.1601
  344MOL0     O46340  10.602   5.321   4.946  0.0833  0.7193  0.0573
  344MOL0     C46341  10.594   5.434   5.032 -0.3907  0.9935 -0.2169
  344MOL0     C46342  10.693   5.536   4.984 -0.6007  0.8327 -0.1220
  344MOL0     C46343  10.681   5.600   4.852  0.0553 -0.0312  0.7146
  344MOL0     C46344  10.803   5.676   4.802  0.4027 -0.3155 -0.5516
  344MOL0     C46345  10.872   5.771   4.905  0.0203  1.2058 -0.0724
  344MOL0     C46346  10.983   5.847   4.841 -0.1505 -0.4525 -0.1944
  344MOL0     C46347  11.032   5.944   4.938  0.3871 -0.5774 -0.1045
  344MOL0     C46348  11.185   5.945   4.937 -0.2670  1.0251  0.3339
  344MOL0    Cl46349  11.251   6.070   5.049  0.3814  0.2275  0.0128
  344MOL0     C46350  10.397   5.230   5.059 -0.0682 -0.1065 -0.0641
  344MOL0     C46351  10.315   5.118   5.074  0.0745  0.8400  0.5926
  344MOL0     O46352  10.112   4.995   4.859 -0.0030  0.0311 -0.3622
  344MOL0     C46353   9.970   4.762   4.817 -0.9433 -0.3268  0.4572
  344MOL0     C46354   9.873   4.656   4.821  0.3989 -0.3084 -0.2164
  344MOL0     N46355   9.315   4.224   4.728 -0.6581 -0.0186 -0.0842
  344MOL0     N46356   9.217   4.241   4.652  0.8937 -0.3493  0.7761
  344MOL0     C46357   9.649   4.841   5.235  0.2884 -0.2080 -0.1646
  344MOL0     C46358   9.770   4.885   5.265  0.3513 -0.0630  0.0974
  344MOL0     C46359  10.103   5.182   5.376 -0.4545 -0.7293  0.3835
  344MOL0     C46360  10.123   5.324   5.374  0.4295 -0.9450  0.7098
  344MOL0     C46361  10.247   5.383   5.426 -0.1495  0.0376  0.2560
  344MOL0     C46362  10.347   5.298   5.458  0.1705 -0.6364  0.7404
  344MOL0     O46363  10.482   5.328   5.499  0.0137 -0.5207  0.0263
  344MOL0     C46364  10.513   5.465   5.527  0.7598  0.6007  0.3129
  344MOL0     C46365  10.531   5.567   5.409  0.5503  0.0073 -0.8751
  344MOL0     C46366  10.497   5.710   5.459 -0.6621  0.6829 -0.0342
  344MOL0     C46367  10.620   5.769   5.525  0.4629 -0.1240  0.7908
  344MOL0     C46368  10.726   5.790   5.430 -0.3785 -0.2399  0.0497
  344MOL0     C46369  10.814   5.807   5.349 -1.3391  0.4711  0.1251
  344MOL0     C46370  10.322   5.162   5.465  0.8768  0.3846  0.1072
  344MOL0     C46371  10.202   5.099   5.429 -0.3751 -0.1770 -0.1646
  344MOL0     C46372  10.195   4.952   5.449  0.4981 -0.6083 -0.0315
  344MOL0     H46373   9.822   5.115   5.031 -0.4518 -0.2776  1.1192
  344MOL0     H46374   9.607   5.036   4.963 -1.3198  0.6069  0.3782
  344MOL0     H46375   9.277   4.905   5.117 -1.2935 -1.9921 -2.5654
  344MOL0     H46376   9.378   5.034   5.050 -2.4115  0.9923  3.7835
  344MOL0     H46377   9.401   4.899   4.837 -1.4807  0.1659 -1.4318
  344MOL0     H46378   9.233   4.963   4.877  0.6602  0.6572 -0.9245
  344MOL0     H46379   9.223   4.711   4.997  1.4256 -1.5555  0.1525
  344MOL0     H46380   9.366   4.684   4.892  1.2561 -0.1837  1.3718
  344MOL0     H46381   9.091   4.781   4.804 -1.8039 -1.0641 -1.6213
  344MOL0     H46382   9.228   4.737   4.700  0.9165 -0.8303 -0.3503
  344MOL0     H46383   9.206   4.515   4.751  2.7201  2.9222 -0.2813
  344MOL0     H46384   9.104   4.536   4.888  0.4920 -1.6676 -0.0306
  344MOL0     H46385   8.935   4.637   4.713  0.1039 -1.1034 -0.4243
  344MOL0     H46386   9.037   4.539   4.606  1.3865  0.5522 -0.0082
  344MOL0     H46387   8.820   4.448   4.716  0.5946 -0.2107  1.4694
  344MOL0     H46388   8.919   4.412   4.858 -0.0612  0.0860  0.8845
  344MOL0     H46389   8.921   4.210   4.713 -1.0230 -0.8448 -2.0239
  344MOL0     H46390   8.983   4.310   4.569 -0.2888  3.1876 -0.2538
  344MOL0     H46391   9.080   4.282   4.944 -2.0495  0.6603 -2.6058
  344MOL0     H46392   9.331   4.215   5.070 -0.4320 -3.7981  0.2723
  344MOL0     H46393   9.423   4.117   4.962  0.2020  0.5420  1.5206
  344MOL0     H46394   9.448   4.427   4.974 -0.9483  0.6114  0.4455
  344MOL0     H46395   9.553   4.313   5.063  0.3099 -0.9214 -0.3062
  344MOL0     H46396   9.561   4.291   4.763  2.2137 -2.5517 -0.1434
  344MOL0     H46397   9.674   4.242   4.892  1.2568  0.5421 -0.2013
  344MOL0     H46398   9.637   4.529   4.857  1.2347 -0.3799  2.0736
  344MOL0     H46399   9.727   4.440   4.744  1.4304  1.9571  2.0083
  344MOL0     H46400   9.975   4.483   5.088 -0.9955 -1.6827 -3.2217
  344MOL0     H46401  10.137   4.682   5.110  5.1809  0.8116 -3.7692
  344MOL0     H46402  10.469   4.894   4.877  1.6165 -1.7851  4.0052
  344MOL0     H46403  10.614   5.117   4.835  0.2394  1.1883 -0.0694
  344MOL0     H46404  10.492   5.473   5.032 -2.3719 -3.5043 -1.5702
  344MOL0     H46405  10.623   5.393   5.129  0.6445 -0.5571 -1.1418
  344MOL0     H46406  10.688   5.617   5.058 -0.8654  1.3506 -0.6948
  344MOL0     H46407  10.794   5.494   4.986 -1.8097 -2.3208  1.2957
  344MOL0     H46408  10.663   5.527   4.773 -1.8390  0.7251  0.3951
  344MOL0     H46409  10.593   5.664   4.867  0.1078  0.2368 -0.0622
  344MOL0     H46410  10.759   5.738   4.724  2.1978  0.9121 -0.6538
  344MOL0     H46411  10.879   5.614   4.752  1.9714  1.3935 -0.3744
  344MOL0     H46412  10.900   5.710   4.991 -0.6534  0.1152 -0.5927
  344MOL0     H46413  10.790   5.834   4.941 -1.2088 -0.1943 -0.3040
  344MOL0     H46414  11.064   5.778   4.816  3.0286  2.5145  1.0193
  344MOL0     H46415  10.947   5.897   4.751  1.1162  1.4846  0.2993
  344MOL0     H46416  10.988   5.940   5.038  3.4788 -1.1382  1.3218
  344MOL0     H46417  11.001   6.044   4.905  0.2542  0.2014  2.1705
  344MOL0     H46418  11.219   5.849   4.978 -1.0650 -0.0910 -1.5277
  344MOL0     H46419  11.224   5.955   4.836 -1.2150 -2.3939 -0.4836
  344MOL0     H46420  10.382   5.314   5.127  3.4839  0.1805  0.5470
  344MOL0     H46421  10.222   5.129   5.129 -0.6372 -2.4475  0.2012
  344MOL0     H46422   9.963   4.841   4.743  0.5080  1.1428  1.8025
  344MOL0     H46423   9.804   4.652   4.736 -1.5767  0.0140  1.2940
  344MOL0     H46424   9.603   4.769   5.302  2.3084 -0.1400  1.3952
  344MOL0     H46425   9.816   4.849   5.357 -2.3276  0.8323  1.9004
  344MOL0     H46426  10.033   5.367   5.332 -0.4750 -1.5936  1.9193
  344MOL0     H46427  10.260   5.489   5.446  0.7834  0.4695 -2.2737
  344MOL0     H46428  10.608   5.458   5.581  0.5529  0.0397  0.6148
  344MOL0     H46429  10.441   5.505   5.599  0.6063 -2.8954  2.3358
  344MOL0     H46430  10.466   5.532   5.329 -0.4192 -0.4752  0.0913
  344MOL0     H46431  10.630   5.563   5.363  1.1449 -1.6541  0.4458
  344MOL0     H46432  10.403   5.704   5.515 -1.2125  2.9840 -0.5778
  344MOL0     H46433  10.470   5.778   5.377  1.0210  0.0937 -1.1147
  344MOL0     H46434  10.603   5.865   5.576 -1.1529  0.2023 -0.2937
  344MOL0     H46435  10.659   5.691   5.591  0.0440  0.6773  2.0246
  344MOL0     H46436  10.890   5.816   5.274 -1.9280  1.0971 -0.4144
  344MOL0     H46437  10.405   5.106   5.507  1.3661  1.5662  0.7841
  344MOL0     H46438  10.095   4.924   5.484 -0.3850  0.7604 -1.3191
  344MOL0     H46439  10.210   4.903   5.352  2.1319  0.1868 -0.2103
  344MOL0     H46440  10.278   4.915   5.510  0.4023  1.3052  1.3456
  345MOL0     O46441   7.986   2.934   5.241 -0.1147  0.2734  0.4161
  345MOL0     C46442   7.873   2.898   5.209  0.6531 -0.1547  1.2242
  345MOL0     O46443   7.790   2.954   5.112  0.1012  0.5525 -0.5730
  345MOL0     C46444   7.821   3.049   5.022 -0.6501  0.4746  0.5745
  345MOL0     C46445   7.721   3.126   4.951 -0.8837 -0.5201 -0.5663
  345MOL0     C46446   7.745   3.244   4.879 -0.1732 -0.3044  1.1542
  345MOL0     C46447   7.878   3.288   4.857  0.5399  0.8896  0.0498
  345MOL0     O46448   7.910   3.398   4.787 -0.1406  0.4476  0.8679
  345MOL0     C46449   7.828   3.519   4.794  0.4314  0.8500  1.2769
  345MOL0     C46450   7.927   3.628   4.790  0.3117 -0.7008  0.3824
  345MOL0     C46451   8.009   3.632   4.920  0.3173  0.2680  0.1380
  345MOL0     C46452   8.125   3.729   4.910 -0.0126 -0.1660  0.0771
  345MOL0     C46453   8.215   3.700   5.029  0.9929  0.3335 -0.1765
  345MOL0     C46454   8.342   3.785   5.058 -0.5637  0.5610  0.0186
  345MOL0     C46455   8.439   3.725   5.159  0.5692  0.2115 -0.8987
  345MOL0     C46456   8.582   3.794   5.145  0.2854  0.2350  0.3080
  345MOL0     N46457   8.672   3.744   5.250 -0.1287 -0.0256 -0.3146
  345MOL0     C46458   8.693   3.612   5.282  0.5451 -0.1627 -0.1894
  345MOL0     C46459   8.779   3.619   5.395 -0.5794  0.0074  0.4972
  345MOL0     C46460   8.835   3.496   5.467  0.2816  0.5205 -0.0407
  345MOL0     C46461   8.988   3.507   5.446  0.3565  0.3128 -0.5839
  345MOL0     C46462   9.054   3.613   5.542  0.5628 -0.2817  0.2745
  345MOL0     C46463   9.199   3.583   5.564 -0.3564  0.2311  0.5460
  345MOL0     O46464   9.248   3.644   5.691 -0.4208 -0.5374 -0.0293
  345MOL0     C46465   9.261   3.562   5.799 -0.2353 -0.3699  0.8331
  345MOL0     C46466   9.183   3.451   5.827  0.3180 -0.1428 -0.3833
  345MOL0     C46467   9.212   3.381   5.950  0.5046  0.4251 -0.1715
  345MOL0     C46468   9.303   3.438   6.041  1.1386 -0.3527 -0.9053
  345MOL0     C46469   9.311   3.386   6.174  0.1223 -0.1526 -0.2001
  345MOL0     O46470   9.313   3.250   6.184 -0.7318 -0.1073 -0.1052
  345MOL0     C46471   9.306   3.190   6.310  1.3328  0.1941  0.5478
  345MOL0     C46472   9.380   3.233   6.417  0.6919  0.0406 -0.3871
  345MOL0     C46473   9.361   3.173   6.550  0.0571 -0.6943 -0.3844
  345MOL0     C46474   9.278   3.066   6.569 -0.3842  0.8724 -0.3387
  345MOL0     O46475   9.284   3.008   6.695  0.1283 -0.5398 -0.3535
  345MOL0     C46476   9.220   2.889   6.725 -0.9082  0.5656 -0.0181
  345MOL0     C46477   9.248   2.825   6.855  0.2244  0.4265 -0.4601
  345MOL0     C46478   9.127   2.866   6.946  0.3247 -0.1813  0.7185
  345MOL0     C46479   9.139   2.798   7.085  0.5360 -0.1092  0.6152
  345MOL0     C46480   9.088   2.886   7.202 -0.3972 -0.0580  0.0053
  345MOL0     C46481   9.118   2.835   7.348 -0.5479  0.1666 -0.3633
  345MOL0     C46482   9.050   2.927   7.449  0.1271 -0.3066  0.4356
  345MOL0     C46483   9.060   2.878   7.594  0.4372 -0.4998  0.9149
  345MOL0    Cl46484   8.962   2.722   7.628  0.1498  0.2117  0.0724
  345MOL0     C46485   9.206   3.023   6.458 -0.1130 -0.3084 -0.4871
  345MOL0     C46486   9.223   3.080   6.332  0.1747  0.0833  0.7612
  345MOL0     O46487   9.294   3.471   6.263 -0.5204 -0.3904  0.2389
  345MOL0     C46488   9.377   3.554   6.014  0.0861  0.2024  0.6385
  345MOL0     C46489   9.349   3.615   5.891 -0.4284 -0.7002 -0.7809
  345MOL0     N46490   8.801   3.750   5.433  0.2243  0.5658 -0.2424
  345MOL0     N46491   8.732   3.826   5.345  0.2604  0.7326  0.8312
  345MOL0     C46492   7.979   3.201   4.908  0.9841  0.8162  1.2375
  345MOL0     C46493   7.954   3.083   4.982 -0.2129  0.3863  0.0906
  345MOL0     C46494   7.824   2.765   5.263  0.0562  0.0632 -0.5624
  345MOL0     C46495   7.805   2.747   5.399  0.2857 -0.0642 -0.4248
  345MOL0     C46496   7.773   2.616   5.456 -0.2287  0.0149 -0.8121
  345MOL0     C46497   7.773   2.502   5.375 -0.7217 -0.5423 -0.4502
  345MOL0     O46498   7.747   2.379   5.421  0.4025  0.0286 -0.3831
  345MOL0     C46499   7.613   2.340   5.423 -0.3174 -0.8118  0.2819
  345MOL0     C46500   7.565   2.303   5.559 -0.4314  0.3546 -0.3082
  345MOL0     C46501   7.619   2.165   5.605 -0.7531  0.1221 -0.4757
  345MOL0     C46502   7.554   2.116   5.737  0.2512 -0.0144  0.2866
  345MOL0     C46503   7.610   1.986   5.776  0.3618 -0.6861 -0.0586
  345MOL0     C46504   7.655   1.880   5.814 -0.3014  0.2981 -0.0018
  345MOL0     C46505   7.798   2.522   5.241  0.0658  0.1529  0.2195
  345MOL0     C46506   7.829   2.649   5.183 -0.3326  0.5767  0.7454
  345MOL0     C46507   7.872   2.664   5.030 -0.3051  1.0890 -0.3754
  345MOL0     H46508   7.624   3.082   4.973  0.7651 -4.0749  0.2656
  345MOL0     H46509   7.655   3.287   4.836 -1.0254 -1.9666  1.1748
  345MOL0     H46510   7.765   3.517   4.706 -2.0739 -0.8792  2.9820
  345MOL0     H46511   7.757   3.535   4.876 -0.4056  2.7747  0.2373
  345MOL0     H46512   7.878   3.725   4.776  0.3658 -0.5986  0.8681
  345MOL0     H46513   7.994   3.609   4.706 -2.1847 -0.9643 -1.6674
  345MOL0     H46514   8.038   3.532   4.952 -2.7401 -0.4506  0.9790
  345MOL0     H46515   7.941   3.675   4.994  0.1180  1.5344 -0.7497
  345MOL0     H46516   8.175   3.705   4.816  2.2686 -4.8997  2.1732
  345MOL0     H46517   8.090   3.833   4.912  1.6658  0.4291  0.3232
  345MOL0     H46518   8.169   3.708   5.128  2.0045  1.1888  0.2520
  345MOL0     H46519   8.246   3.599   5.003  1.3745 -0.0128  1.4902
  345MOL0     H46520   8.395   3.813   4.966 -1.0707 -2.5113 -1.3466
  345MOL0     H46521   8.301   3.876   5.102 -1.9657  0.7324 -1.5414
  345MOL0     H46522   8.446   3.617   5.144 -0.0492  0.0257  0.0271
  345MOL0     H46523   8.393   3.745   5.257 -4.9563  1.5746 -3.3922
  345MOL0     H46524   8.627   3.773   5.047 -0.6880  0.3379 -0.1717
  345MOL0     H46525   8.567   3.902   5.154 -3.2391 -0.0869 -0.2724
  345MOL0     H46526   8.647   3.521   5.247 -1.3367 -0.2274  2.1693
  345MOL0     H46527   8.815   3.483   5.574  2.3794  1.9822  0.5791
  345MOL0     H46528   8.791   3.408   5.418 -0.0533  1.2041 -0.9987
  345MOL0     H46529   9.038   3.411   5.462  1.4278  0.9438 -0.0231
  345MOL0     H46530   9.015   3.549   5.348  0.3321  1.3637 -0.1563
  345MOL0     H46531   9.000   3.612   5.637  0.8164 -2.2378  0.4363
  345MOL0     H46532   9.049   3.714   5.502  4.3723 -0.3518 -0.7972
  345MOL0     H46533   9.247   3.633   5.479 -0.1558 -0.4299  0.2634
  345MOL0     H46534   9.221   3.476   5.566 -1.0641  0.0289  3.9652
  345MOL0     H46535   9.113   3.407   5.757  0.4913 -0.4072 -0.3909
  345MOL0     H46536   9.174   3.284   5.983 -0.5680  1.3078  1.3139
  345MOL0     H46537   9.446   3.317   6.394 -1.5534  1.0584 -3.7899
  345MOL0     H46538   9.418   3.203   6.637  0.3860 -2.6769  0.1410
  345MOL0     H46539   9.116   2.898   6.691 -1.1861  3.7595  1.3049
  345MOL0     H46540   9.272   2.823   6.655  2.7268  0.7313  2.2820
  345MOL0     H46541   9.242   2.720   6.827 -1.2089  0.6674 -1.1513
  345MOL0     H46542   9.348   2.859   6.885  0.3131 -0.1940 -0.0503
  345MOL0     H46543   9.127   2.975   6.948  1.7699 -0.1502  0.1298
  345MOL0     H46544   9.034   2.829   6.901  0.4219 -0.1301  0.4738
  345MOL0     H46545   9.243   2.766   7.100  0.4855 -1.6070 -1.7653
  345MOL0     H46546   9.084   2.704   7.078  0.7884 -0.1379 -1.6949
  345MOL0     H46547   8.983   2.901   7.178 -0.7700 -1.1598  0.8646
  345MOL0     H46548   9.142   2.980   7.184  0.0827 -0.1470  0.9176
  345MOL0     H46549   9.083   2.732   7.356 -1.7736  0.3062 -2.8822
  345MOL0     H46550   9.225   2.825   7.370 -1.0935 -1.2384  2.0970
  345MOL0     H46551   8.947   2.947   7.419  1.1273  0.2324 -3.1553
  345MOL0     H46552   9.101   3.024   7.440  1.2994 -1.0027 -0.9902
  345MOL0     H46553   9.165   2.854   7.612  1.4535  1.8455 -1.2848
  345MOL0     H46554   9.012   2.957   7.652 -0.0523  0.4082 -0.6645
  345MOL0     H46555   9.149   2.932   6.472  1.1309 -1.5295 -2.8060
  345MOL0     H46556   9.166   3.050   6.245  3.1023  3.6308 -2.8099
  345MOL0     H46557   9.455   3.590   6.081  1.9545 -2.2608 -0.0912
  345MOL0     H46558   9.387   3.710   5.855 -0.1109 -1.0896 -1.4975
  345MOL0     H46559   8.079   3.243   4.896  0.0226  2.3638 -2.7644
  345MOL0     H46560   8.042   3.024   5.008 -1.0323 -0.9660 -0.0895
  345MOL0     H46561   7.814   2.837   5.459 -1.3744  2.1001 -3.1619
  345MOL0     H46562   7.737   2.595   5.556  0.9452  2.0781  0.1060
  345MOL0     H46563   7.589   2.259   5.354  2.1461 -0.7059 -0.7954
  345MOL0     H46564   7.554   2.429   5.395 -2.5405 -0.5764  4.7543
  345MOL0     H46565   7.457   2.288   5.555 -0.3682 -0.3027  0.3425
  345MOL0     H46566   7.588   2.377   5.636  4.3577 -3.4211  2.4533
  345MOL0     H46567   7.725   2.184   5.626 -0.3753 -1.4441 -0.8766
  345MOL0     H46568   7.608   2.094   5.523 -0.8390 -1.7839  1.1251
  345MOL0     H46569   7.566   2.179   5.826  0.8668 -0.6957  0.6932
  345MOL0     H46570   7.447   2.108   5.715  1.0811 -1.8109 -4.1441
  345MOL0     H46571   7.687   1.784   5.849  1.3522  1.5797  2.2738
  345MOL0     H46572   7.794   2.434   5.177  0.6409  2.6813 -3.6546
  345MOL0     H46573   7.809   2.731   4.971  1.4699 -0.0979 -3.8875
  345MOL0     H46574   7.974   2.701   5.023  0.2219  0.1390  1.6646
  345MOL0     H46575   7.860   2.566   4.984 -3.0724  1.3820 -0.4437
  346MOL0     O46576  11.053   4.620   7.415  1.3975  0.5267  0.3586
  346MOL0     C46577  11.097   4.682   7.511  0.5773 -0.7718 -0.5194
  346MOL0     O46578  11.041   4.807   7.556  0.2185 -0.0791  0.3753
  346MOL0     C46579  10.928   4.845   7.496  0.2471  0.1914  0.1884
  346MOL0     C46580  10.806   4.776   7.496  0.0661 -0.1810  0.3868
  346MOL0     C46581  10.699   4.830   7.423  0.5906 -0.3991  0.2533
  346MOL0     C46582  10.699   4.960   7.372 -0.2722  0.0381  0.0292
  346MOL0     O46583  10.586   5.007   7.305 -0.1792  0.3004  0.0657
  346MOL0     C46584  10.575   5.133   7.242  1.1454 -0.1153  1.2069
  346MOL0     C46585  10.448   5.149   7.165  0.4700 -0.2699  0.6791
  346MOL0     C46586  10.421   5.028   7.076 -0.4452 -0.1457 -1.0069
  346MOL0     C46587  10.538   4.968   6.994  1.0255  0.0459  0.0112
  346MOL0     C46588  10.488   4.854   6.898 -0.6752 -0.1617  1.2059
  346MOL0     C46589  10.418   4.916   6.776  0.3521  1.3455  0.7049
  346MOL0     C46590  10.395   4.820   6.659  0.1259 -0.5818 -0.1309
  346MOL0     C46591  10.512   4.839   6.570  0.0575  0.4854 -0.7245
  346MOL0     N46592  10.515   4.755   6.450  0.0763  0.1788  0.3007
  346MOL0     C46593  10.524   4.620   6.433  0.0957  0.6770 -0.5569
  346MOL0     C46594  10.511   4.588   6.301  0.3832  0.1585  0.3260
  346MOL0     C46595  10.537   4.456   6.234  0.0544  0.5840  0.9768
  346MOL0     C46596  10.478   4.454   6.098  0.1505  1.7048  1.5005
  346MOL0     C46597  10.453   4.310   6.028 -0.0636 -0.9119 -0.8966
  346MOL0     C46598  10.591   4.251   6.008  0.1853 -0.3871  0.0639
  346MOL0     O46599  10.696   4.351   5.982  0.2482 -1.5703 -0.0522
  346MOL0     C46600  10.803   4.293   5.923 -0.4287  0.3782 -0.5886
  346MOL0     C46601  10.893   4.221   5.991 -0.4511  0.7750 -0.2414
  346MOL0     C46602  11.001   4.159   5.925 -0.5429 -0.2244  0.2222
  346MOL0     C46603  11.020   4.169   5.788 -0.4891 -0.0147  0.1916
  346MOL0     C46604  11.118   4.094   5.712 -0.6335  0.3918  0.1070
  346MOL0     O46605  11.184   3.981   5.767  0.5620  0.3430  0.2319
  346MOL0     C46606  11.295   3.912   5.719 -0.1473  0.2112  0.9871
  346MOL0     C46607  11.381   3.978   5.628  0.3754  0.1214  0.6571
  346MOL0     C46608  11.485   3.905   5.568 -0.6995 -0.0839 -1.1240
  346MOL0     C46609  11.519   3.779   5.609 -1.0083  1.0850  0.0896
  346MOL0     O46610  11.612   3.714   5.541  0.2368 -0.2535  0.6963
  346MOL0     C46611  11.693   3.611   5.598 -0.3761  0.2548  0.2305
  346MOL0     C46612  11.813   3.669   5.682  0.5199 -0.4994  1.1513
  346MOL0     C46613  11.896   3.557   5.753 -0.7074  0.6123 -0.3094
  346MOL0     C46614  11.821   3.518   5.880 -0.3313 -0.1861 -0.8183
  346MOL0     C46615  11.880   3.408   5.951 -0.4606 -0.0886  0.5961
  346MOL0     C46616  11.805   3.384   6.086  0.7833 -0.3053  0.0078
  346MOL0     C46617  11.868   3.295   6.192 -0.8278 -0.8082 -0.5271
  346MOL0     C46618  11.923   3.157   6.149 -0.4956 -0.3831  0.3613
  346MOL0    Cl46619  11.982   3.070   6.305 -0.1188 -0.4312  0.1436
  346MOL0     C46620  11.438   3.724   5.715 -0.6121  0.6864  1.4014
  346MOL0     C46621  11.324   3.787   5.763 -0.2520 -0.1526  0.9503
  346MOL0     O46622  11.115   4.123   5.595  0.5219  0.0622 -0.1236
  346MOL0     C46623  10.923   4.247   5.723  0.7185  0.6317  0.2829
  346MOL0     C46624  10.817   4.308   5.789  0.0613  0.1547 -0.7336
  346MOL0     N46625  10.471   4.708   6.238  0.2645  0.1534 -0.4503
  346MOL0     N46626  10.468   4.802   6.326  0.6745  0.3064  0.4394
  346MOL0     C46627  10.812   5.036   7.389  0.0314  0.7033 -0.4015
  346MOL0     C46628  10.923   4.976   7.447 -0.7704  0.7535  0.0704
  346MOL0     C46629  11.225   4.623   7.574  0.6326  0.1654 -0.9034
  346MOL0     C46630  11.222   4.497   7.630  0.6366  0.9230  0.1461
  346MOL0     C46631  11.330   4.432   7.692  0.2225 -0.0344 -0.9969
  346MOL0     C46632  11.451   4.498   7.710  1.0636 -0.7010  0.0660
  346MOL0     O46633  11.548   4.428   7.772 -0.2180 -0.8119 -1.2702
  346MOL0     C46634  11.678   4.494   7.810  0.4845  0.8035  0.3387
  346MOL0     C46635  11.642   4.607   7.913 -0.3510  0.0660 -0.4227
  346MOL0     C46636  11.722   4.740   7.909  0.3387 -0.2179 -0.1736
  346MOL0     C46637  11.863   4.750   7.863 -0.2496 -0.9086 -0.6840
  346MOL0     C46638  11.952   4.641   7.911 -0.2382 -0.3439 -0.1550
  346MOL0     C46639  12.037   4.566   7.941  0.4158  0.5465  0.2117
  346MOL0     C46640  11.457   4.632   7.654  0.5913  0.1003  0.4968
  346MOL0     C46641  11.351   4.692   7.593  0.3011 -0.6081  0.4029
  346MOL0     C46642  11.353   4.834   7.554 -0.0721  0.8460 -0.5733
  346MOL0     H46643  10.783   4.680   7.541  0.5059 -0.7925 -0.6728
  346MOL0     H46644  10.609   4.770   7.428 -1.5536  2.6553  1.4573
  346MOL0     H46645  10.584   5.214   7.314  4.8981  2.7928 -2.0634
  346MOL0     H46646  10.661   5.149   7.176  2.0590  1.9333  2.7882
  346MOL0     H46647  10.457   5.238   7.103  1.8544 -0.3089  0.8097
  346MOL0     H46648  10.361   5.157   7.232 -2.0615 -4.8810 -1.5170
  346MOL0     H46649  10.338   5.048   7.008  0.8496 -0.2976 -2.6785
  346MOL0     H46650  10.378   4.951   7.142 -1.5711  1.4309  0.1846
  346MOL0     H46651  10.605   5.041   6.948 -1.1857  1.1861 -1.5797
  346MOL0     H46652  10.595   4.915   7.072 -0.1117  0.0333  0.8686
  346MOL0     H46653  10.567   4.788   6.860  0.0848  0.5676  1.4656
  346MOL0     H46654  10.426   4.781   6.950 -0.9719  0.8368  2.2897
  346MOL0     H46655  10.316   4.945   6.804  0.8047  0.9871  2.9394
  346MOL0     H46656  10.468   5.011   6.756  0.8363  1.2975  1.6378
  346MOL0     H46657  10.311   4.848   6.596 -1.6232 -0.9213  1.9498
  346MOL0     H46658  10.379   4.717   6.692 -1.5729 -0.6069 -0.9192
  346MOL0     H46659  10.515   4.946   6.550 -0.0577  0.3841 -1.3042
  346MOL0     H46660  10.603   4.825   6.629 -1.5343 -0.4457  1.7224
  346MOL0     H46661  10.552   4.557   6.517 -0.9956  0.5116 -0.2980
  346MOL0     H46662  10.646   4.455   6.229  0.1293  3.4404  0.3166
  346MOL0     H46663  10.500   4.383   6.307  2.3552 -0.9648  0.6965
  346MOL0     H46664  10.378   4.497   6.096  0.7003  3.3162 -3.2385
  346MOL0     H46665  10.543   4.510   6.030  1.3470 -1.4134 -0.1569
  346MOL0     H46666  10.394   4.325   5.937  0.2873  0.6818 -0.8951
  346MOL0     H46667  10.381   4.257   6.091 -1.7172  1.9499 -0.1823
  346MOL0     H46668  10.582   4.173   5.932 -2.4294  1.7765 -2.0366
  346MOL0     H46669  10.629   4.216   6.104 -0.8796  0.3168  0.7692
  346MOL0     H46670  10.878   4.188   6.093  1.3850 -1.6842 -0.6453
  346MOL0     H46671  11.056   4.091   5.989  1.8450  1.0101 -0.4150
  346MOL0     H46672  11.380   4.082   5.596  1.5157 -0.6355 -2.1880
  346MOL0     H46673  11.558   3.951   5.502  1.3205  0.8601  1.5602
  346MOL0     H46674  11.634   3.540   5.656  1.8404 -1.3512  0.6555
  346MOL0     H46675  11.723   3.539   5.522 -1.0956 -0.9384  1.0353
  346MOL0     H46676  11.881   3.718   5.610 -1.6860 -0.8123 -1.2996
  346MOL0     H46677  11.778   3.750   5.746 -0.2434 -0.2001  0.3678
  346MOL0     H46678  11.898   3.470   5.687 -1.7676 -1.6222  2.3855
  346MOL0     H46679  11.997   3.592   5.777  0.8282 -2.8650 -1.1221
  346MOL0     H46680  11.713   3.511   5.868 -0.7763  1.5980  1.3366
  346MOL0     H46681  11.841   3.605   5.943 -2.3502 -0.5894  0.4732
  346MOL0     H46682  11.985   3.433   5.974 -0.9013  3.2507 -0.4569
  346MOL0     H46683  11.862   3.319   5.891 -1.1236  0.6590 -0.3395
  346MOL0     H46684  11.794   3.468   6.156  3.7331 -1.8188  2.4873
  346MOL0     H46685  11.703   3.353   6.059  1.2795 -0.3006 -2.0602
  346MOL0     H46686  11.799   3.272   6.274  0.4013 -0.6912  0.5766
  346MOL0     H46687  11.946   3.350   6.246 -1.2293  0.4477 -1.1674
  346MOL0     H46688  11.859   3.088   6.094  0.7643 -0.8068 -0.6358
  346MOL0     H46689  12.016   3.179   6.095  1.4424  0.5454  3.7942
  346MOL0     H46690  11.450   3.622   5.751 -2.2035  0.0001  0.0615
  346MOL0     H46691  11.263   3.741   5.839  1.5073 -2.4583  1.0735
  346MOL0     H46692  10.906   4.253   5.616 -2.3199  1.6291  0.7222
  346MOL0     H46693  10.740   4.358   5.733 -1.0413 -0.7695 -0.0853
  346MOL0     H46694  10.810   5.136   7.347 -1.2181 -0.4840 -3.4664
  346MOL0     H46695  11.014   5.034   7.450 -0.3586  0.2705 -1.8414
  346MOL0     H46696  11.131   4.443   7.606  1.7793  0.0676 -2.5987
  346MOL0     H46697  11.306   4.333   7.728  1.8718 -0.0790  0.0605
  346MOL0     H46698  11.721   4.543   7.722  1.9952 -0.8902  0.0854
  346MOL0     H46699  11.746   4.421   7.855  0.2083  0.4915  0.2531
  346MOL0     H46700  11.674   4.555   8.004 -3.0582 -0.6141  0.2347
  346MOL0     H46701  11.533   4.607   7.922 -0.4211 -3.3207 -0.0578
  346MOL0     H46702  11.716   4.781   8.011  0.6123 -0.8726  0.1110
  346MOL0     H46703  11.662   4.813   7.854 -0.2567 -0.4592  0.1352
  346MOL0     H46704  11.845   4.743   7.755 -1.4678 -1.0471 -0.4943
  346MOL0     H46705  11.897   4.849   7.894 -1.7248 -0.4127 -0.5412
  346MOL0     H46706  12.116   4.500   7.971  0.6769  1.0809  0.7201
  346MOL0     H46707  11.543   4.698   7.657 -0.8446  2.0229  1.2063
  346MOL0     H46708  11.457   4.859   7.527  1.1578 -4.7649 -2.3941
  346MOL0     H46709  11.286   4.848   7.468 -1.3962  2.2671  0.6334
  346MOL0     H46710  11.315   4.900   7.632  0.9654  2.2043 -1.1667
  347MOL0     O46711   1.669   6.527   8.636  0.0569 -0.8855 -0.6554
  347MOL0     C46712   1.545   6.543   8.598 -0.9412  0.8391  0.2636
  347MOL0     O46713   1.486   6.666   8.569  0.4011 -0.1935 -0.1333
  347MOL0     C46714   1.576   6.756   8.527  0.5618  0.0880  0.6196
  347MOL0     C46715   1.636   6.849   8.612 -0.9630  0.6760  0.2524
  347MOL0     C46716   1.724   6.941   8.563  0.3171 -0.0890 -1.5940
  347MOL0     C46717   1.736   6.963   8.426  0.9100  0.2693  0.5358
  347MOL0     O46718   1.815   7.072   8.380 -0.0783  1.1129  0.2427
  347MOL0     C46719   1.748   7.154   8.286 -0.9763  0.3860  0.1397
  347MOL0     C46720   1.801   7.122   8.151 -0.3014 -0.4554  0.9844
  347MOL0     C46721   1.780   7.235   8.054 -1.2813 -0.2526 -0.1687
  347MOL0     C46722   1.879   7.246   7.936  0.0626  0.2738 -0.1588
  347MOL0     C46723   1.834   7.322   7.817  1.0724  0.7318  0.5187
  347MOL0     C46724   1.825   7.474   7.845  0.2682  0.9207 -0.6503
  347MOL0     C46725   1.945   7.545   7.923  0.9425  1.3130  0.3590
  347MOL0     C46726   1.927   7.701   7.930  0.4436  0.4743  0.2811
  347MOL0     N46727   1.976   7.765   7.807 -0.2622  0.0278 -0.4018
  347MOL0     C46728   2.103   7.768   7.767  0.2236  2.2270  0.1423
  347MOL0     C46729   2.108   7.808   7.636 -0.0136 -0.1563  0.3569
  347MOL0     C46730   2.222   7.832   7.544 -0.2857 -0.4982 -0.3654
  347MOL0     C46731   2.356   7.854   7.624 -0.1385  1.2325  0.3202
  347MOL0     C46732   2.419   7.720   7.687  0.4828 -0.8269  0.3068
  347MOL0     C46733   2.475   7.745   7.828  0.7306 -0.4509  0.1816
  347MOL0     O46734   2.475   7.627   7.908 -0.4037 -0.0596  0.6164
  347MOL0     C46735   2.523   7.635   8.032  0.0783  0.8487  0.7006
  347MOL0     C46736   2.653   7.684   8.061  0.6765  0.5070 -0.2380
  347MOL0     C46737   2.696   7.678   8.198  0.5850  0.0407  0.9461
  347MOL0     C46738   2.613   7.616   8.292  1.0799 -0.6793  0.0065
  347MOL0     C46739   2.656   7.614   8.430 -0.8777 -0.0629 -0.0308
  347MOL0     O46740   2.755   7.702   8.468 -0.1184 -1.0774 -0.0140
  347MOL0     C46741   2.819   7.700   8.585 -0.0832 -0.7429 -0.8740
  347MOL0     C46742   2.949   7.759   8.588  0.4355 -0.5505  0.3972
  347MOL0     C46743   3.020   7.747   8.714 -0.1821  0.1161 -0.4177
  347MOL0     C46744   2.972   7.684   8.832  0.8940  0.3771  0.2299
  347MOL0     O46745   3.056   7.685   8.949  0.3567  0.1754  0.3934
  347MOL0     C46746   2.993   7.651   9.073  0.5895  0.3952 -0.6908
  347MOL0     C46747   3.092   7.672   9.182 -0.2515  0.7628 -0.4959
  347MOL0     C46748   3.094   7.821   9.201  0.7329 -0.4600 -0.8407
  347MOL0     C46749   3.198   7.850   9.314 -0.5246 -0.3902  0.0658
  347MOL0     C46750   3.234   8.001   9.330  1.3996  0.0886  0.4483
  347MOL0     C46751   3.110   8.072   9.381 -0.4338  0.4256  0.8383
  347MOL0     C46752   3.128   8.218   9.380  0.1943  0.2003  0.0161
  347MOL0     C46753   2.999   8.294   9.415  0.7449 -0.1021  0.6686
  347MOL0    Cl46754   2.872   8.263   9.293  0.0181  0.0323 -0.0624
  347MOL0     C46755   2.838   7.642   8.829  0.3450  0.6281  0.6859
  347MOL0     C46756   2.760   7.654   8.712  0.3696 -0.6240  0.0006
  347MOL0     O46757   2.623   7.520   8.493 -0.1354 -0.4101 -0.3308
  347MOL0     C46758   2.488   7.572   8.257 -0.1695 -0.5064 -0.6419
  347MOL0     C46759   2.442   7.578   8.127  0.6588 -0.4342  0.1903
  347MOL0     N46760   1.976   7.842   7.600 -1.4606  0.3187 -1.0234
  347MOL0     N46761   1.903   7.819   7.706 -0.6602 -0.4303 -0.1619
  347MOL0     C46762   1.675   6.870   8.343  0.2523  0.4966  0.7058
  347MOL0     C46763   1.579   6.775   8.393 -0.0305  0.3067 -0.6169
  347MOL0     C46764   1.452   6.419   8.600  1.0371 -1.0964  0.3299
  347MOL0     C46765   1.347   6.412   8.500 -0.0294  0.0579 -0.1221
  347MOL0     C46766   1.269   6.290   8.488 -1.0806  0.3797  0.1353
  347MOL0     C46767   1.297   6.178   8.572  0.3403 -0.3267  0.0231
  347MOL0     O46768   1.228   6.064   8.568  0.6862 -0.0425  0.4052
  347MOL0     C46769   1.132   6.035   8.459  0.5031 -1.0889  0.6289
  347MOL0     C46770   1.094   5.887   8.477 -0.5869  0.4952  0.4618
  347MOL0     C46771   1.219   5.802   8.441  0.4247 -0.4530 -0.3615
  347MOL0     C46772   1.191   5.651   8.447  0.1989 -0.2535 -0.6029
  347MOL0     C46773   1.193   5.585   8.312  0.7848 -0.0943  0.6403
  347MOL0     C46774   1.185   5.524   8.208  1.0599 -0.9309  0.9319
  347MOL0     C46775   1.400   6.191   8.670  0.6404  0.0313  0.5573
  347MOL0     C46776   1.475   6.312   8.693 -0.6840  0.3823  0.8426
  347MOL0     C46777   1.556   6.328   8.817 -0.6854  0.1598  0.2970
  347MOL0     H46778   1.624   6.836   8.719 -1.2604  0.5102  0.2002
  347MOL0     H46779   1.778   6.994   8.641  0.7149 -1.5313 -0.8365
  347MOL0     H46780   1.641   7.134   8.277 -0.7983 -0.9371  0.6287
  347MOL0     H46781   1.755   7.258   8.319 -2.1995  0.4532  0.2207
  347MOL0     H46782   1.740   7.041   8.110  0.9016 -1.6736  1.5291
  347MOL0     H46783   1.907   7.093   8.146 -0.3194 -0.4103 -2.0492
  347MOL0     H46784   1.786   7.330   8.107  3.0617 -1.0223  1.0942
  347MOL0     H46785   1.678   7.225   8.013 -1.3131 -1.6076  0.1879
  347MOL0     H46786   1.977   7.291   7.958  1.4934 -1.2930 -2.7343
  347MOL0     H46787   1.899   7.145   7.899 -0.5052  0.8985 -2.2886
  347MOL0     H46788   1.896   7.305   7.729 -0.0198  0.6103 -0.2516
  347MOL0     H46789   1.733   7.290   7.788  1.8300  1.4718 -3.4675
  347MOL0     H46790   1.821   7.526   7.749 -0.8441  1.2835 -0.4259
  347MOL0     H46791   1.731   7.499   7.896  1.1602 -1.2300  2.3213
  347MOL0     H46792   2.034   7.524   7.863  0.9190 -0.0183  0.7624
  347MOL0     H46793   1.959   7.509   8.025  0.6256  1.3243  0.4072
  347MOL0     H46794   1.822   7.725   7.946  0.8484  2.0312  0.7478
  347MOL0     H46795   1.990   7.739   8.011  0.4505  3.5499 -1.0516
  347MOL0     H46796   2.190   7.740   7.825 -1.0978 -1.4034  0.6454
  347MOL0     H46797   2.227   7.750   7.472 -1.6042 -0.9499  0.0367
  347MOL0     H46798   2.199   7.928   7.499  1.1277 -0.5542 -1.2794
  347MOL0     H46799   2.431   7.885   7.551  0.3952 -1.1639 -0.2269
  347MOL0     H46800   2.348   7.932   7.701 -0.4740  1.4214  0.0942
  347MOL0     H46801   2.510   7.697   7.631  0.8908 -1.0794  1.0651
  347MOL0     H46802   2.353   7.633   7.679 -1.0095  0.3910 -2.1721
  347MOL0     H46803   2.405   7.803   7.889  1.1720  0.8413 -0.5205
  347MOL0     H46804   2.571   7.796   7.822 -0.5744  2.0692 -0.5525
  347MOL0     H46805   2.709   7.736   7.984  0.1079  0.3642 -0.7532
  347MOL0     H46806   2.789   7.728   8.219  2.0206 -2.4390  0.8943
  347MOL0     H46807   2.992   7.814   8.505 -1.3704  0.8253  0.3095
  347MOL0     H46808   3.122   7.784   8.705  0.2611  0.1588  3.1009
  347MOL0     H46809   2.912   7.716   9.110 -0.4423 -0.6314 -1.0842
  347MOL0     H46810   2.951   7.550   9.073  0.2332  0.4079 -3.9531
  347MOL0     H46811   3.064   7.602   9.261  0.0767 -0.4257 -1.4143
  347MOL0     H46812   3.191   7.641   9.150 -0.9026 -2.4921  0.3289
  347MOL0     H46813   3.115   7.886   9.116  0.1896  1.9074  0.7364
  347MOL0     H46814   2.994   7.859   9.227  0.9334 -0.7840  0.5094
  347MOL0     H46815   3.287   7.798   9.280 -0.6471 -0.0838 -0.7360
  347MOL0     H46816   3.160   7.805   9.406 -1.2869  1.0979  0.5219
  347MOL0     H46817   3.258   8.047   9.234 -0.8217  2.4207  0.9030
  347MOL0     H46818   3.321   8.017   9.395  1.9595  2.1687 -0.7173
  347MOL0     H46819   3.034   8.040   9.310  2.5642  1.0278 -3.0215
  347MOL0     H46820   3.088   8.038   9.482 -2.8575  4.9251  2.1078
  347MOL0     H46821   3.164   8.245   9.280 -3.0251  0.1376 -1.2981
  347MOL0     H46822   3.207   8.241   9.452 -1.8732  5.4684  1.1208
  347MOL0     H46823   2.963   8.270   9.516 -3.8927  2.9009  0.0014
  347MOL0     H46824   3.013   8.402   9.410  4.0684 -0.4782 -1.2384
  347MOL0     H46825   2.781   7.580   8.898  0.4834 -2.1637 -1.5195
  347MOL0     H46826   2.658   7.617   8.709  0.3100 -0.4439 -0.1601
  347MOL0     H46827   2.439   7.501   8.324  1.8767 -1.6089 -0.2278
  347MOL0     H46828   2.348   7.530   8.099  1.6404 -2.2681 -0.1414
  347MOL0     H46829   1.713   6.882   8.242  3.0783 -2.4353  1.2643
  347MOL0     H46830   1.519   6.714   8.326 -0.8918 -0.2137  0.5848
  347MOL0     H46831   1.339   6.495   8.430 -1.4548 -0.9396 -1.1915
  347MOL0     H46832   1.185   6.286   8.419 -1.9927 -2.1790  1.2613
  347MOL0     H46833   1.164   6.039   8.354  1.5581 -3.5271  0.7695
  347MOL0     H46834   1.044   6.099   8.462  1.7246  0.6376  1.9695
  347MOL0     H46835   1.001   5.872   8.422 -0.5468 -2.5661  1.0484
  347MOL0     H46836   1.070   5.868   8.581  1.5498 -0.3821  0.8587
  347MOL0     H46837   1.283   5.826   8.526  0.2729 -4.6187  1.1645
  347MOL0     H46838   1.255   5.834   8.342 -1.0112 -1.7294 -1.3469
  347MOL0     H46839   1.264   5.600   8.510  0.3210 -0.8097 -1.1824
  347MOL0     H46840   1.099   5.628   8.502  2.2067  0.7223  3.5447
  347MOL0     H46841   1.185   5.466   8.118 -0.7035  0.9630 -0.3857
  347MOL0     H46842   1.395   6.121   8.753 -0.1549  0.2819  0.7296
  347MOL0     H46843   1.497   6.302   8.906 -1.2291 -0.1334 -0.1400
  347MOL0     H46844   1.647   6.268   8.810 -0.7831 -0.0534  0.8236
  347MOL0     H46845   1.604   6.423   8.841  1.7260 -0.2916 -2.2579
  348MOL0     O46846   4.046  11.488   9.955 -0.7617  0.4113 -0.0622
  348MOL0     C46847   4.055  11.580   9.876  0.3028 -0.1698  0.1076
  348MOL0     O46848   4.145  11.679   9.884  0.2409 -0.1427 -0.1222
  348MOL0     C46849   4.246  11.675   9.978  0.2699 -0.0201 -1.7192
  348MOL0     C46850   4.368  11.615   9.951 -0.1281  1.0526 -0.0369
  348MOL0     C46851   4.472  11.626  10.047  0.2258 -0.0545  0.2920
  348MOL0     C46852   4.461  11.697  10.169  0.4285 -0.1352  0.1115
  348MOL0     O46853   4.554  11.698  10.272  0.2013 -0.1056 -0.2630
  348MOL0     C46854   4.685  11.643  10.249 -0.1852  0.2998  0.2577
  348MOL0     C46855   4.685  11.489  10.281  0.2083  0.1366  0.7994
  348MOL0     C46856   4.820  11.414  10.276 -0.8514  0.0895  0.7616
  348MOL0     C46857   4.890  11.412  10.144 -0.1430  0.4295 -0.1817
  348MOL0     C46858   5.005  11.319  10.131  0.5480  0.3357 -0.0552
  348MOL0     C46859   5.045  11.320   9.979 -0.3217 -0.3205 -0.7635
  348MOL0     C46860   4.975  11.207   9.894  0.0619  0.0849  1.2675
  348MOL0     C46861   5.001  11.232   9.744  0.1689 -0.4510 -0.9950
  348MOL0     N46862   4.956  11.111   9.674 -0.9113  0.4138  0.2217
  348MOL0     C46863   5.027  10.986   9.644  0.4132 -0.4226  0.0436
  348MOL0     C46864   4.945  10.926   9.559 -0.9857 -0.3519  1.6246
  348MOL0     C46865   4.986  10.797   9.488 -0.4416 -1.2351 -1.5929
  348MOL0     C46866   5.079  10.820   9.368  0.1594  0.1664 -0.5481
  348MOL0     C46867   5.157  10.688   9.336 -0.4963 -0.0852 -0.4584
  348MOL0     C46868   5.274  10.719   9.245 -0.6829 -0.0595  1.1073
  348MOL0     O46869   5.331  10.599   9.194  1.0196 -0.0982 -0.3018
  348MOL0     C46870   5.407  10.517   9.272 -0.3913  0.4480  0.1421
  348MOL0     C46871   5.472  10.560   9.396 -0.1837 -0.2372  0.2787
  348MOL0     C46872   5.557  10.476   9.471  0.1912 -0.3553  0.7168
  348MOL0     C46873   5.590  10.348   9.418  0.6520 -0.6259  0.6580
  348MOL0     C46874   5.675  10.249   9.492  0.3214 -0.4443 -0.4469
  348MOL0     O46875   5.680  10.119   9.436  0.0142  0.3648  0.0286
  348MOL0     C46876   5.716  10.014   9.517  0.2494 -0.5606  0.9311
  348MOL0     C46877   5.834   9.939   9.494 -0.4930 -0.0520  0.8712
  348MOL0     C46878   5.872   9.845   9.584 -0.8216 -0.2720  0.7697
  348MOL0     C46879   5.787   9.813   9.686 -1.1964 -0.0746 -0.0026
  348MOL0     O46880   5.805   9.706   9.781  0.0926 -0.1221 -0.5048
  348MOL0     C46881   5.940   9.669   9.818  0.6695 -0.2091 -0.8880
  348MOL0     C46882   5.943   9.605   9.944  0.4989  0.4775 -0.6992
  348MOL0     C46883   5.938   9.717  10.048  0.2301 -0.6949 -0.1342
  348MOL0     C46884   6.080   9.786  10.066 -0.5352  0.6583  0.1472
  348MOL0     C46885   6.074   9.855  10.210  0.1717  0.8759 -0.5872
  348MOL0     C46886   6.189   9.948  10.246 -0.8247 -0.7779  0.1420
  348MOL0     C46887   6.321   9.881  10.271 -0.1990  0.2938 -0.2344
  348MOL0     C46888   6.414   9.966  10.357 -0.7449 -0.1333  0.1388
  348MOL0    Cl46889   6.549   9.865  10.394  0.3644 -0.0706 -0.3721
  348MOL0     C46890   5.668   9.880   9.700  0.5465  0.7068  0.0642
  348MOL0     C46891   5.638   9.986   9.619  0.1744  0.3671 -0.0593
  348MOL0     O46892   5.726  10.282   9.598 -0.0096  0.6499  0.0018
  348MOL0     C46893   5.536  10.304   9.293  0.2245 -0.0447  0.0865
  348MOL0     C46894   5.443  10.386   9.221 -0.7527 -1.0048 -0.0687
  348MOL0     N46895   4.837  11.008   9.540  0.9547 -0.3016  0.4510
  348MOL0     N46896   4.841  11.119   9.608  0.0055 -0.2638  0.1343
  348MOL0     C46897   4.345  11.771  10.184  0.4100  0.3027  0.9680
  348MOL0     C46898   4.234  11.753  10.094 -0.1703 -0.6822  0.6449
  348MOL0     C46899   3.971  11.564   9.751 -1.0178  0.1776 -0.7450
  348MOL0     C46900   3.839  11.506   9.744  0.1334  0.2789 -0.6698
  348MOL0     C46901   3.765  11.490   9.627 -0.3370 -0.3024  0.0698
  348MOL0     C46902   3.822  11.534   9.511  0.4969 -0.1025  0.2144
  348MOL0     O46903   3.755  11.508   9.395  0.9012 -0.5474 -0.0836
  348MOL0     C46904   3.684  11.612   9.333 -0.3658  0.0234 -0.4023
  348MOL0     C46905   3.578  11.673   9.427 -0.3275  0.2736  0.2003
  348MOL0     C46906   3.526  11.799   9.368 -0.3469  0.3254 -0.7715
  348MOL0     C46907   3.408  11.853   9.450 -0.3223  0.1681 -0.0714
  348MOL0     C46908   3.364  11.979   9.395 -0.3988  0.2978  0.7764
  348MOL0     C46909   3.335  12.090   9.350 -0.0420 -0.4787 -0.4813
  348MOL0     C46910   3.950  11.592   9.508  0.0822  0.3046  0.3058
  348MOL0     C46911   4.030  11.599   9.621 -0.5895  0.4008 -0.3308
  348MOL0     C46912   4.173  11.636   9.616 -0.0850  0.5629  0.9489
  348MOL0     H46913   4.401  11.565   9.860  2.6298  1.9383  0.3709
  348MOL0     H46914   4.560  11.564  10.032  1.0210  1.2327 -0.5331
  348MOL0     H46915   4.736  11.660  10.153 -0.7173  1.8206  0.2166
  348MOL0     H46916   4.744  11.695  10.326  2.2201 -2.1798  0.2390
  348MOL0     H46917   4.615  11.440  10.212  1.1685  0.3039 -0.3261
  348MOL0     H46918   4.638  11.476  10.379 -2.0218  3.1333  0.2756
  348MOL0     H46919   4.803  11.310  10.306  1.2507 -0.5610 -0.0656
  348MOL0     H46920   4.895  11.442  10.352  1.0832 -1.1157 -0.5991
  348MOL0     H46921   4.820  11.387  10.064  1.3912  4.2537 -3.0587
  348MOL0     H46922   4.925  11.513  10.121 -0.0430  0.1337 -1.4100
  348MOL0     H46923   5.086  11.358  10.193 -0.5606  3.9278 -0.6326
  348MOL0     H46924   4.976  11.215  10.153  1.0508  0.1040 -0.4731
  348MOL0     H46925   5.028  11.422   9.943  2.4152  1.1715  1.7630
  348MOL0     H46926   5.153  11.299   9.979 -0.2509  0.0429 -0.7402
  348MOL0     H46927   4.867  11.205   9.915 -0.0337 -0.5208  0.7463
  348MOL0     H46928   5.014  11.107   9.916  5.7656  1.7027 -0.0628
  348MOL0     H46929   4.949  11.320   9.705 -0.9469 -0.5194  0.2934
  348MOL0     H46930   5.109  11.250   9.736 -0.1014  1.8164 -0.2246
  348MOL0     H46931   5.128  10.963   9.679 -0.1827 -1.4675  1.1687
  348MOL0     H46932   5.038  10.745   9.568 -1.5320  1.0950  0.7952
  348MOL0     H46933   4.906  10.727   9.464 -1.2286 -1.8332  2.1859
  348MOL0     H46934   5.021  10.856   9.283  0.5694 -0.0047 -0.9015
  348MOL0     H46935   5.146  10.905   9.386  0.6133  0.1530 -2.1056
  348MOL0     H46936   5.091  10.624   9.276 -1.5777  0.3083  0.2819
  348MOL0     H46937   5.195  10.641   9.427 -1.7274 -1.5471 -0.6533
  348MOL0     H46938   5.361  10.774   9.283 -0.7481  0.7424  0.1525
  348MOL0     H46939   5.245  10.776   9.157 -0.4516 -1.8814 -0.2090
  348MOL0     H46940   5.449  10.656   9.440  1.3547  1.1815 -1.8266
  348MOL0     H46941   5.579  10.491   9.576 -3.8433 -2.7017  2.1473
  348MOL0     H46942   5.892   9.957   9.404  1.8461 -2.2288  1.8066
  348MOL0     H46943   5.965   9.792   9.566 -1.2091 -0.1826 -1.8917
  348MOL0     H46944   5.980   9.603   9.741  1.8705 -1.8795  1.0842
  348MOL0     H46945   5.994   9.764   9.822  0.7167 -0.2722  0.8695
  348MOL0     H46946   5.856   9.540   9.954 -0.7625  2.2360  0.4198
  348MOL0     H46947   6.029   9.541   9.964 -0.8646 -0.3576  3.7077
  348MOL0     H46948   5.864   9.796  10.035 -2.2042 -2.0786  3.5576
  348MOL0     H46949   5.924   9.658  10.140  0.6285 -0.4691  0.0766
  348MOL0     H46950   6.106   9.859   9.989  2.1099 -0.7455 -0.4098
  348MOL0     H46951   6.160   9.711  10.064 -1.5897 -0.5435  1.1701
  348MOL0     H46952   6.071   9.772  10.280  0.6674  0.5953 -0.8924
  348MOL0     H46953   5.978   9.908  10.206  1.0386  2.4387 -2.5465
  348MOL0     H46954   6.203  10.026  10.170  3.0489  0.5239  1.9086
  348MOL0     H46955   6.157   9.989  10.342 -3.0365 -0.3615 -0.7067
  348MOL0     H46956   6.374   9.848  10.181  3.8956  5.3182 -0.0757
  348MOL0     H46957   6.297   9.789  10.325  0.1502 -0.0287 -0.6255
  348MOL0     H46958   6.458  10.053  10.307 -1.6724  0.7115  0.7605
  348MOL0     H46959   6.358   9.984  10.449 -1.6022 -0.7593 -0.2536
  348MOL0     H46960   5.596   9.849   9.775 -1.8394  2.1332 -1.5136
  348MOL0     H46961   5.552  10.043   9.654  1.6822  1.9882  1.2371
  348MOL0     H46962   5.560  10.201   9.266  1.3826  0.1399  0.3753
  348MOL0     H46963   5.429  10.369   9.114 -1.5426 -2.5083  0.2445
  348MOL0     H46964   4.329  11.826  10.276 -0.3442 -4.0561  3.7267
  348MOL0     H46965   4.150  11.816  10.123  1.0165 -0.2133  3.3808
  348MOL0     H46966   3.785  11.474   9.833 -1.2296 -2.2507 -2.2916
  348MOL0     H46967   3.673  11.434   9.640 -0.0880 -0.3546  1.8299
  348MOL0     H46968   3.634  11.565   9.248  0.9882 -0.7704 -0.7914
  348MOL0     H46969   3.762  11.685   9.309  1.2172 -0.8015  1.8508
  348MOL0     H46970   3.614  11.693   9.528 -0.9129 -0.5829  0.5845
  348MOL0     H46971   3.502  11.596   9.443  2.6938 -2.9056  0.2907
  348MOL0     H46972   3.504  11.789   9.261  1.3386  1.3357 -1.2578
  348MOL0     H46973   3.606  11.873   9.370  1.5121 -1.5942 -0.1322
  348MOL0     H46974   3.323  11.789   9.476  0.2308 -1.1197 -1.3471
  348MOL0     H46975   3.444  11.884   9.549  0.3948  0.8518 -0.5351
  348MOL0     H46976   3.310  12.184   9.305  1.3745 -0.5179 -1.4078
  348MOL0     H46977   3.984  11.618   9.409  0.3618 -0.0357  0.3102
  348MOL0     H46978   4.221  11.609   9.521  1.8418  0.9238  1.7784
  348MOL0     H46979   4.188  11.744   9.613  1.6181  0.3857  1.8119
  348MOL0     H46980   4.237  11.589   9.690  0.2964 -0.4078  0.0312
  349MOL0     O46981   7.483   1.259  11.346 -0.1892 -0.4666  0.4511
  349MOL0     C46982   7.514   1.377  11.376 -0.4831 -0.3363 -0.7425
  349MOL0     O46983   7.581   1.408  11.487 -0.4451  0.1783  0.1644
  349MOL0     C46984   7.613   1.310  11.577 -0.2101 -0.2184  0.6191
  349MOL0     C46985   7.531   1.257  11.676  0.1676 -0.6762  0.8376
  349MOL0     C46986   7.565   1.161  11.769  0.1709 -0.3587  0.1965
  349MOL0     C46987   7.697   1.123  11.768 -0.4326  0.5994 -0.1367
  349MOL0     O46988   7.725   1.026  11.858 -0.3546 -0.2318 -1.3078
  349MOL0     C46989   7.853   1.023  11.913 -0.7279 -0.7826  0.0745
  349MOL0     C46990   7.867   0.965  12.050  0.0648  0.5595  0.3807
  349MOL0     C46991   7.782   1.055  12.150 -0.5328  0.3759  0.8026
  349MOL0     C46992   7.829   1.045  12.304 -0.4526  0.1540 -0.0208
  349MOL0     C46993   7.736   1.113  12.402  0.3055  0.2950  0.2494
  349MOL0     C46994   7.698   1.260  12.372  0.8176 -0.3823 -0.4853
  349MOL0     C46995   7.603   1.332  12.480 -1.7291  0.3930 -0.2513
  349MOL0     C46996   7.670   1.354  12.621  0.5764  0.8611 -0.4423
  349MOL0     N46997   7.747   1.473  12.631  0.2690 -0.5745 -0.6512
  349MOL0     C46998   7.787   1.525  12.750  0.2628 -0.6525  0.5010
  349MOL0     C46999   7.824   1.654  12.713  0.2308 -0.0072  0.4274
  349MOL0     C47000   7.863   1.765  12.807  0.4389  0.2925 -1.1294
  349MOL0     C47001   7.938   1.885  12.759 -0.7412 -0.6248  0.3094
  349MOL0     C47002   7.850   1.978  12.686  1.2277  0.8637  0.1257
  349MOL0     C47003   7.942   2.100  12.658 -0.7446  0.0391 -0.6288
  349MOL0     O47004   7.965   2.178  12.774  0.5397 -0.4190 -0.1956
  349MOL0     C47005   8.077   2.252  12.765  0.6267 -0.4226 -0.2325
  349MOL0     C47006   8.064   2.390  12.755 -0.4603 -0.0329 -0.5007
  349MOL0     C47007   8.177   2.463  12.725 -1.0929 -0.3248 -0.7442
  349MOL0     C47008   8.309   2.415  12.730  0.0332 -0.1792 -0.7768
  349MOL0     C47009   8.432   2.500  12.720  0.6460 -0.2424 -1.5735
  349MOL0     O47010   8.533   2.479  12.808  0.6071 -0.1101 -0.2578
  349MOL0     C47011   8.646   2.560  12.800 -0.4166  0.8697 -0.0162
  349MOL0     C47012   8.715   2.601  12.680  0.9961  0.1475 -0.3878
  349MOL0     C47013   8.820   2.688  12.688  0.2630  0.7488  0.3483
  349MOL0     C47014   8.872   2.730  12.810 -0.2221  0.0352  0.5895
  349MOL0     O47015   8.975   2.825  12.824  0.6149  0.2557 -0.5342
  349MOL0     C47016   8.956   2.951  12.753 -0.7398 -0.1633  0.1182
  349MOL0     C47017   9.070   3.051  12.800  0.0796 -0.2600  0.9748
  349MOL0     C47018   9.068   3.176  12.715  0.4635  0.2959 -0.8018
  349MOL0     C47019   9.097   3.300  12.806  0.4308  0.4643 -0.2537
  349MOL0     C47020   9.073   3.446  12.743  0.6100 -0.3497  0.9083
  349MOL0     C47021   9.176   3.484  12.627 -0.8690  0.2904 -0.4214
  349MOL0     C47022   9.135   3.613  12.564 -0.2113  0.2504 -0.3549
  349MOL0     C47023   9.249   3.659  12.479 -1.2426  0.9071 -0.2228
  349MOL0    Cl47024   9.318   3.532  12.360 -0.0659  0.0757  0.3733
  349MOL0     C47025   8.833   2.662  12.927  0.1567  0.5790  0.1981
  349MOL0     C47026   8.720   2.578  12.918 -0.2867 -0.1314  0.0255
  349MOL0     O47027   8.428   2.591  12.641 -0.3835  0.4900 -0.5934
  349MOL0     C47028   8.320   2.273  12.752  0.8059 -0.1510  0.0880
  349MOL0     C47029   8.202   2.193  12.769 -0.4374 -0.0595 -0.0456
  349MOL0     N47030   7.813   1.669  12.575  0.8591 -0.1022 -0.2911
  349MOL0     N47031   7.774   1.563  12.527 -0.3195 -0.4656  0.3160
  349MOL0     C47032   7.787   1.173  11.684 -0.6345  0.1176  1.7297
  349MOL0     C47033   7.749   1.261  11.582  1.1317  0.4102  0.4293
  349MOL0     C47034   7.463   1.485  11.298  1.6241 -0.4540 -0.0585
  349MOL0     C47035   7.424   1.450  11.171 -0.2251 -0.1638  0.1533
  349MOL0     C47036   7.388   1.542  11.074  0.4703  0.9542 -0.6324
  349MOL0     C47037   7.357   1.671  11.106 -0.1733 -0.3201  0.0407
  349MOL0     O47038   7.294   1.752  11.016  0.1263  0.4394 -0.5643
  349MOL0     C47039   7.385   1.817  10.918 -0.0285  0.0905 -0.3444
  349MOL0     C47040   7.303   1.933  10.859 -0.0409 -0.8906  0.1644
  349MOL0     C47041   7.378   2.028  10.764 -0.0132  0.7676 -0.7703
  349MOL0     C47042   7.281   2.111  10.675 -0.6049 -0.6451  0.2716
  349MOL0     C47043   7.351   2.163  10.569  0.0855 -0.6424 -0.1084
  349MOL0     C47044   7.399   2.210  10.471  0.2479  0.8055  0.4272
  349MOL0     C47045   7.390   1.707  11.234 -0.1875  0.0618 -0.4645
  349MOL0     C47046   7.447   1.623  11.328 -1.3676  0.5648  0.1457
  349MOL0     C47047   7.476   1.675  11.462  0.1783 -0.2381 -0.0139
  349MOL0     H47048   7.427   1.286  11.664  0.3096 -0.8712 -1.3850
  349MOL0     H47049   7.493   1.119  11.839 -0.0257  0.7317  0.6596
  349MOL0     H47050   7.916   0.966  11.844 -0.9080  0.8235 -1.4721
  349MOL0     H47051   7.897   1.123  11.906 -0.4570 -0.7788  1.5357
  349MOL0     H47052   7.974   0.951  12.066  0.1666  0.6813 -0.1804
  349MOL0     H47053   7.822   0.865  12.051  2.9382 -0.8434  1.4770
  349MOL0     H47054   7.677   1.024  12.146  0.0415 -2.0078  2.3831
  349MOL0     H47055   7.797   1.159  12.117  0.5176 -0.0632 -0.1839
  349MOL0     H47056   7.853   0.942  12.333  1.3811  0.2510 -0.9916
  349MOL0     H47057   7.928   1.091  12.318 -0.0768  0.7561 -3.6209
  349MOL0     H47058   7.649   1.047  12.404  1.2163 -1.0335  3.0255
  349MOL0     H47059   7.777   1.101  12.503  2.9973 -0.6575 -0.8674
  349MOL0     H47060   7.789   1.322  12.371  2.4666 -2.5330 -4.1347
  349MOL0     H47061   7.653   1.266  12.273  1.3706 -1.2346 -0.7953
  349MOL0     H47062   7.504   1.288  12.493 -0.4777 -2.0322  1.9817
  349MOL0     H47063   7.592   1.434  12.443  1.5005  1.5953  1.6361
  349MOL0     H47064   7.587   1.369  12.690  0.3988  1.2523 -0.7416
  349MOL0     H47065   7.737   1.273  12.652  3.8370  2.9227 -1.5422
  349MOL0     H47066   7.782   1.488  12.852 -0.2690  1.6085  1.3678
  349MOL0     H47067   7.768   1.794  12.854 -0.1275 -3.2617  0.1914
  349MOL0     H47068   7.912   1.716  12.892 -2.3235  2.6826  2.1658
  349MOL0     H47069   7.973   1.936  12.848  1.1789 -0.8989 -0.2384
  349MOL0     H47070   8.028   1.861  12.701 -0.8490  0.5442 -0.3777
  349MOL0     H47071   7.780   2.018  12.760  2.7236 -0.0409  2.1072
  349MOL0     H47072   7.792   1.925  12.610  0.3811  0.1694  1.2191
  349MOL0     H47073   7.888   2.162  12.586  1.4203  0.8886 -1.6217
  349MOL0     H47074   8.037   2.085  12.606 -0.7797 -0.3712 -0.5801
  349MOL0     H47075   7.966   2.434  12.771 -0.2789  0.5035 -0.8628
  349MOL0     H47076   8.176   2.569  12.705  1.8351  0.2407  1.3523
  349MOL0     H47077   8.665   2.593  12.584  0.5208  2.1508 -0.3474
  349MOL0     H47078   8.852   2.734  12.595 -0.4805  0.2896 -0.1393
  349MOL0     H47079   8.958   2.948  12.643 -3.3369  3.1304 -0.1667
  349MOL0     H47080   8.864   3.001  12.782 -0.0278  1.4177 -0.1981
  349MOL0     H47081   9.061   3.078  12.906  0.3961  1.5126  0.5863
  349MOL0     H47082   9.165   2.997  12.802 -2.0401 -4.3125  1.2463
  349MOL0     H47083   9.150   3.160  12.645  2.4348 -1.0261  1.6121
  349MOL0     H47084   8.969   3.195  12.673 -0.2277 -1.1813  0.1056
  349MOL0     H47085   9.194   3.291  12.856  0.2541 -1.6277 -0.2114
  349MOL0     H47086   9.033   3.293  12.895  0.4853 -2.0562 -0.3535
  349MOL0     H47087   9.091   3.521  12.821 -0.6518 -0.3710  1.2345
  349MOL0     H47088   8.967   3.454  12.719  0.4913 -0.9693  1.2199
  349MOL0     H47089   9.277   3.476  12.669 -1.5959  1.4117  1.6943
  349MOL0     H47090   9.181   3.405  12.552  0.7510 -0.0037 -0.0417
  349MOL0     H47091   9.129   3.688  12.644 -1.5961 -0.9154  0.6941
  349MOL0     H47092   9.036   3.598  12.521  0.2739 -4.0297 -0.4067
  349MOL0     H47093   9.206   3.742  12.422 -0.6632  1.5645  0.2794
  349MOL0     H47094   9.333   3.688  12.544 -1.6746  0.3422  0.6035
  349MOL0     H47095   8.871   2.672  13.028 -0.1773 -5.5055  1.3400
  349MOL0     H47096   8.691   2.527  13.009 -2.2739  2.7954  1.1783
  349MOL0     H47097   8.416   2.221  12.752 -0.5132 -2.8722 -2.1610
  349MOL0     H47098   8.208   2.084  12.772 -2.9248 -0.2560 -0.2908
  349MOL0     H47099   7.894   1.155  11.689  0.5073  2.4789 -4.5721
  349MOL0     H47100   7.820   1.305  11.513  1.8101 -0.5465  0.4943
  349MOL0     H47101   7.434   1.347  11.138 -3.0792 -1.0597  1.8069
  349MOL0     H47102   7.367   1.506  10.974 -2.0804  0.0794  0.1504
  349MOL0     H47103   7.413   1.744  10.841 -0.6529 -1.2851  0.7058
  349MOL0     H47104   7.478   1.843  10.968 -0.6934  1.4256  0.2710
  349MOL0     H47105   7.264   1.997  10.939 -0.3070 -0.1882 -0.5086
  349MOL0     H47106   7.223   1.885  10.803  1.5284 -1.7391 -1.4396
  349MOL0     H47107   7.456   1.977  10.707  1.9077  2.0237  0.6468
  349MOL0     H47108   7.421   2.099  10.834 -1.7004  0.6696  0.4412
  349MOL0     H47109   7.201   2.045  10.642 -0.0196 -0.5615 -1.3740
  349MOL0     H47110   7.230   2.192  10.728 -0.2929 -0.0505 -0.3259
  349MOL0     H47111   7.448   2.266  10.394  1.2251 -1.3197 -0.5804
  349MOL0     H47112   7.367   1.810  11.255  3.9492  1.3467 -1.3217
  349MOL0     H47113   7.451   1.782  11.464  2.3058  0.3195 -0.6047
  349MOL0     H47114   7.413   1.642  11.546  0.7020 -1.0714  0.0619
  349MOL0     H47115   7.579   1.660  11.497 -0.7254  0.9622  3.7015
  350MOL0     O47116   2.731   2.060   9.527  0.2542  0.1504  0.4126
  350MOL0     C47117   2.679   2.159   9.483 -0.2771 -0.1655 -0.3191
  350MOL0     O47118   2.730   2.283   9.492  0.2433 -0.0045  0.5394
  350MOL0     C47119   2.867   2.297   9.508 -0.2609  0.4506  0.0269
  350MOL0     C47120   2.958   2.225   9.424  0.0012 -0.7181 -0.9030
  350MOL0     C47121   3.100   2.231   9.451  0.3636 -0.4055  0.0469
  350MOL0     C47122   3.144   2.324   9.545 -0.0241 -0.2614 -1.0286
  350MOL0     O47123   3.279   2.326   9.549 -0.0607 -0.0728  0.2199
  350MOL0     C47124   3.333   2.399   9.657 -0.3599 -0.3740 -0.1343
  350MOL0     C47125   3.483   2.373   9.649 -0.3220 -1.0316 -0.7492
  350MOL0     C47126   3.575   2.428   9.760 -0.0466  0.3577  0.2684
  350MOL0     C47127   3.640   2.563   9.742 -0.1138  0.1834 -0.8845
  350MOL0     C47128   3.717   2.615   9.863  0.8550  0.7572 -0.0925
  350MOL0     C47129   3.821   2.719   9.815  0.4851  0.1352 -0.7428
  350MOL0     C47130   3.888   2.784   9.935  0.4900 -0.4935  0.0513
  350MOL0     C47131   3.971   2.908   9.906 -0.3376 -0.2004  0.2224
  350MOL0     N47132   4.039   2.945  10.031  0.1839  0.0428  1.3639
  350MOL0     C47133   3.981   3.026  10.124  0.3797 -0.3771 -0.2827
  350MOL0     C47134   4.074   3.041  10.229 -0.1106  0.0332 -0.5024
  350MOL0     C47135   4.052   3.123  10.348  0.1774 -1.8436 -0.8938
  350MOL0     C47136   4.056   3.267  10.322  0.1006  0.4563 -0.3078
  350MOL0     C47137   4.076   3.351  10.452  0.1728 -0.3114  0.2980
  350MOL0     C47138   4.027   3.495  10.439 -0.1405 -0.8056  0.1644
  350MOL0     O47139   4.058   3.591  10.542  0.4090  0.4342 -0.9107
  350MOL0     C47140   4.075   3.545  10.665  0.3366  0.1478  0.3887
  350MOL0     C47141   4.197   3.499  10.703 -0.1372 -0.3774 -0.7098
  350MOL0     C47142   4.224   3.468  10.832  0.5783 -0.5216  0.7076
  350MOL0     C47143   4.123   3.493  10.925 -0.5011 -0.3538  0.6119
  350MOL0     C47144   4.150   3.487  11.074  0.2643  0.3488 -0.0249
  350MOL0     O47145   4.038   3.492  11.153  0.2245  0.1674  0.0364
  350MOL0     C47146   4.023   3.461  11.287  0.1775 -0.9319  0.0399
  350MOL0     C47147   3.884   3.486  11.331 -0.9101  0.6107  0.0289
  350MOL0     C47148   3.852   3.470  11.460  0.5212  0.8139  0.2367
  350MOL0     C47149   3.938   3.425  11.554  0.2615  0.1346 -0.1277
  350MOL0     O47150   3.889   3.407  11.673 -0.1071  1.2193 -0.0293
  350MOL0     C47151   3.970   3.337  11.764  0.2038  0.1207 -0.2752
  350MOL0     C47152   3.892   3.291  11.893 -0.0358  0.0531  0.4056
  350MOL0     C47153   3.887   3.392  11.995 -0.1140  0.5382 -0.7956
  350MOL0     C47154   3.838   3.337  12.134 -0.4395 -0.1188 -0.2900
  350MOL0     C47155   3.785   3.437  12.243 -0.8936 -0.9464 -0.3534
  350MOL0     C47156   3.643   3.475  12.217  0.0937  0.0967  0.3749
  350MOL0     C47157   3.585   3.565  12.322 -0.1656 -0.1661  0.5851
  350MOL0     C47158   3.441   3.602  12.279  0.5999 -1.2393  0.0830
  350MOL0    Cl47159   3.372   3.681  12.420  0.1562 -0.2831  0.0159
  350MOL0     C47160   4.077   3.400  11.518 -0.5584  0.3862  0.2940
  350MOL0     C47161   4.116   3.415  11.382  0.2582 -0.2076  0.0962
  350MOL0     O47162   4.267   3.459  11.117  0.5189  0.1669  0.3732
  350MOL0     C47163   3.999   3.553  10.881  0.5198  0.6907 -0.2223
  350MOL0     C47164   3.981   3.569  10.744 -0.2484 -0.4185  0.5132
  350MOL0     N47165   4.186   2.966  10.198  0.0193 -0.5511 -0.0288
  350MOL0     N47166   4.165   2.927  10.073  0.2288  0.7727  0.4502
  350MOL0     C47167   3.057   2.410   9.613 -0.0717  0.2099 -0.8625
  350MOL0     C47168   2.916   2.396   9.594  0.4545  0.4488 -0.0863
  350MOL0     C47169   2.539   2.143   9.415  1.1322 -0.0194  0.3079
  350MOL0     C47170   2.483   2.257   9.351  0.3202 -0.4504  0.0578
  350MOL0     C47171   2.353   2.249   9.296 -0.8110  0.6400  0.2491
  350MOL0     C47172   2.281   2.130   9.309 -0.4852  0.6059  0.7278
  350MOL0     O47173   2.166   2.126   9.248  0.6536 -0.4280  0.0745
  350MOL0     C47174   2.058   2.220   9.304  0.1366 -0.4871 -0.0632
  350MOL0     C47175   1.924   2.146   9.311 -0.6195  0.0836 -0.3733
  350MOL0     C47176   1.813   2.213   9.398 -0.3969  0.2262  0.0279
  350MOL0     C47177   1.777   2.360   9.347 -0.1874 -0.8179  0.2771
  350MOL0     C47178   1.716   2.438   9.450  0.2401 -0.6241 -0.2119
  350MOL0     C47179   1.653   2.516   9.529  0.1186  0.2330 -0.2110
  350MOL0     C47180   2.333   2.019   9.365  0.5218  0.0906 -0.0155
  350MOL0     C47181   2.462   2.013   9.411  0.0873 -0.8937 -0.2398
  350MOL0     C47182   2.510   1.879   9.479  0.5328 -0.1903 -0.6363
  350MOL0     H47183   2.909   2.174   9.342  0.8093  1.7331 -3.0649
  350MOL0     H47184   3.170   2.176   9.390 -0.2046  0.5161 -1.4970
  350MOL0     H47185   3.314   2.507   9.649 -1.9939 -0.6143  0.1677
  350MOL0     H47186   3.286   2.359   9.748  2.0375 -0.5752  1.0836
  350MOL0     H47187   3.521   2.416   9.555 -2.2871  4.7774  0.7221
  350MOL0     H47188   3.495   2.265   9.657  3.4893 -0.6184  2.3841
  350MOL0     H47189   3.640   2.342   9.781 -3.6697 -2.9831 -0.9265
  350MOL0     H47190   3.516   2.432   9.852  1.0991 -0.0942  1.0492
  350MOL0     H47191   3.714   2.552   9.662  3.9336 -0.2593  2.5325
  350MOL0     H47192   3.561   2.635   9.719 -2.0020 -1.2462  0.7376
  350MOL0     H47193   3.654   2.657   9.942  4.6057 -0.6607  4.1204
  350MOL0     H47194   3.769   2.531   9.911 -1.5538 -1.7343 -1.5432
  350MOL0     H47195   3.888   2.669   9.745  0.4348 -2.4187  0.9013
  350MOL0     H47196   3.767   2.800   9.764 -1.8495 -1.6507 -1.2662
  350MOL0     H47197   3.949   2.709   9.986  0.5262 -0.1815  0.4740
  350MOL0     H47198   3.815   2.823  10.007  0.8740  0.1607  0.0951
  350MOL0     H47199   4.038   2.891   9.821 -3.0734 -0.9809 -1.9452
  350MOL0     H47200   3.911   2.994   9.874  0.4924  0.9888  1.7428
  350MOL0     H47201   3.891   3.083  10.107  1.3452  0.7368 -1.8853
  350MOL0     H47202   3.951   3.104  10.387 -1.2334 -0.1018 -3.3879
  350MOL0     H47203   4.130   3.104  10.422 -0.9134  2.0167  1.5152
  350MOL0     H47204   4.142   3.282  10.256  0.2703 -0.8469 -0.4060
  350MOL0     H47205   3.964   3.297  10.273  0.3018 -1.6377 -2.1187
  350MOL0     H47206   4.177   3.348  10.494  0.7710  1.6532 -0.8468
  350MOL0     H47207   4.014   3.309  10.532  0.0850 -0.1643  0.3069
  350MOL0     H47208   3.918   3.493  10.430 -0.0193  0.8240 -3.0303
  350MOL0     H47209   4.077   3.543  10.355 -1.9799  1.6133  0.3186
  350MOL0     H47210   4.273   3.488  10.626  2.9803  0.3715  2.0583
  350MOL0     H47211   4.329   3.458  10.854  0.6031  0.9274  1.3946
  350MOL0     H47212   3.804   3.510  11.262 -0.9826 -1.8891 -0.8795
  350MOL0     H47213   3.748   3.483  11.487 -0.1484 -1.8146 -0.7583
  350MOL0     H47214   3.999   3.241  11.720 -2.7010 -0.8494 -0.2978
  350MOL0     H47215   4.057   3.396  11.797 -0.0369  1.6552 -2.2153
  350MOL0     H47216   3.789   3.263  11.872 -0.0755  0.6246 -0.1894
  350MOL0     H47217   3.937   3.200  11.934 -1.1525  0.1718  1.9677
  350MOL0     H47218   3.983   3.443  12.012  0.4330 -0.5822 -0.4480
  350MOL0     H47219   3.816   3.468  11.961 -1.6716  0.4353  1.9426
  350MOL0     H47220   3.915   3.275  12.180  2.0222  1.4543 -2.0829
  350MOL0     H47221   3.755   3.269  12.110 -1.2402 -0.9811  4.0505
  350MOL0     H47222   3.851   3.524  12.248 -0.8343 -1.0002  3.9596
  350MOL0     H47223   3.793   3.395  12.344 -0.0134 -1.5412 -0.6611
  350MOL0     H47224   3.626   3.515  12.116 -0.2365 -3.2033 -0.9977
  350MOL0     H47225   3.585   3.383  12.216  0.9235 -0.4797 -2.2592
  350MOL0     H47226   3.646   3.655  12.325 -1.9491  1.1337 -0.4907
  350MOL0     H47227   3.587   3.505  12.414  2.1468 -0.0771  0.6452
  350MOL0     H47228   3.438   3.664  12.189 -0.1368  1.8139  2.0326
  350MOL0     H47229   3.397   3.506  12.249  1.4720 -1.2589 -1.2057
  350MOL0     H47230   4.157   3.380  11.588  1.4778  1.0053 -1.7725
  350MOL0     H47231   4.224   3.406  11.371  0.3906  0.8973  0.4162
  350MOL0     H47232   3.917   3.586  10.945 -0.3493 -1.1909 -0.2982
  350MOL0     H47233   3.883   3.606  10.714 -0.1526  2.8132  3.5148
  350MOL0     H47234   3.100   2.487   9.676 -2.0389 -0.5968  1.6079
  350MOL0     H47235   2.851   2.451   9.662 -1.3037 -2.6707  0.9872
  350MOL0     H47236   2.530   2.354   9.354  1.2605 -0.9068  0.4949
  350MOL0     H47237   2.316   2.334   9.241 -2.4711 -0.5039 -0.4717
  350MOL0     H47238   2.027   2.306   9.245 -2.2765  0.4002  2.2687
  350MOL0     H47239   2.076   2.252   9.407 -2.0266 -0.0218  0.2051
  350MOL0     H47240   1.954   2.049   9.354 -2.0932  0.5957  2.0253
  350MOL0     H47241   1.885   2.134   9.210 -0.9900 -2.4898 -0.0114
  350MOL0     H47242   1.851   2.205   9.500 -0.3392 -0.9571 -0.0717
  350MOL0     H47243   1.720   2.157   9.386  0.9585 -1.9932 -0.7532
  350MOL0     H47244   1.867   2.416   9.317  0.8060 -2.7996 -0.6458
  350MOL0     H47245   1.705   2.363   9.265  1.1078 -1.1190 -0.9140
  350MOL0     H47246   1.615   2.585   9.601  2.0582  0.4470  0.6759
  350MOL0     H47247   2.272   1.929   9.362 -0.5024  0.7210  1.1190
  350MOL0     H47248   2.513   1.897   9.587 -0.1130  0.3304 -0.6995
  350MOL0     H47249   2.441   1.796   9.457 -1.7157  1.3029  0.4357
  350MOL0     H47250   2.607   1.842   9.445  0.4619 -0.0585 -0.9839
  351MOL0     O47251  10.579  10.049  10.448  1.1065  0.6127 -0.0940
  351MOL0     C47252  10.593  10.107  10.344  0.1162  0.3489 -0.4347
  351MOL0     O47253  10.691  10.185  10.317 -0.5868  0.5326  0.4896
  351MOL0     C47254  10.761  10.238  10.420  0.1727  0.8571  1.1540
  351MOL0     C47255  10.897  10.212  10.414  0.4884  0.1681  0.3791
  351MOL0     C47256  10.974  10.245  10.534 -0.4623 -1.1395  0.7865
  351MOL0     C47257  10.923  10.311  10.640  0.9411 -0.0972 -0.3650
  351MOL0     O47258  11.002  10.344  10.748 -0.0701  1.0489 -0.4138
  351MOL0     C47259  10.961  10.322  10.885  0.6317 -0.1423  0.4081
  351MOL0     C47260  11.076  10.367  10.968 -0.0193 -0.8350 -0.1558
  351MOL0     C47261  11.101  10.514  10.955 -0.6116 -0.5473  1.0492
  351MOL0     C47262  10.978  10.602  10.987  0.6172 -0.7567 -0.9282
  351MOL0     C47263  11.007  10.761  10.981  0.0243  0.3295 -0.2466
  351MOL0     C47264  10.918  10.841  11.066  0.2479 -0.2656  0.1752
  351MOL0     C47265  10.953  10.988  11.056  0.4634  1.1629  0.4556
  351MOL0     C47266  10.926  11.073  11.183  0.8952 -0.0333  0.2876
  351MOL0     N47267  11.022  11.042  11.293  0.1352  1.1008 -1.2242
  351MOL0     C47268  11.154  11.084  11.294  0.2526  0.3461  0.0697
  351MOL0     C47269  11.193  11.062  11.415 -0.5291 -0.4618  0.6596
  351MOL0     C47270  11.338  11.090  11.461 -1.0597  0.0006  0.3325
  351MOL0     C47271  11.355  11.225  11.526  1.0004  0.7238 -0.6280
  351MOL0     C47272  11.436  11.326  11.448 -0.2610 -0.0526 -0.0278
  351MOL0     C47273  11.441  11.460  11.510 -0.1395  0.0310 -0.5108
  351MOL0     O47274  11.499  11.461  11.642  0.1644  0.4799  0.4161
  351MOL0     C47275  11.567  11.571  11.690 -0.4197 -0.1161 -0.5629
  351MOL0     C47276  11.655  11.543  11.803 -0.3560 -0.0430  0.8836
  351MOL0     C47277  11.720  11.641  11.857  0.0936 -0.3110 -0.5229
  351MOL0     C47278  11.724  11.776  11.799  0.3633 -0.2603  0.1832
  351MOL0     C47279  11.806  11.876  11.869  0.6626  0.4498 -0.9859
  351MOL0     O47280  11.919  11.840  11.915  0.1311 -0.2748  0.7500
  351MOL0     C47281  12.024  11.931  11.931  0.0237 -0.0357  0.4271
  351MOL0     C47282  12.077  11.995  11.817 -0.4139 -1.0457 -0.2481
  351MOL0     C47283  12.169  12.090  11.828  0.4431 -0.5373 -0.0566
  351MOL0     C47284  12.229  12.126  11.953 -0.1085 -0.1824 -0.5188
  351MOL0     O47285  12.325  12.227  11.969 -0.1876  0.7916  0.5871
  351MOL0     C47286  12.408  12.262  11.852 -0.5489  0.1923  0.2405
  351MOL0     C47287  12.494  12.382  11.896  0.6657  0.4610  0.2858
  351MOL0     C47288  12.588  12.431  11.783  0.1348  0.6050 -0.7715
  351MOL0     C47289  12.598  12.583  11.773  0.2568  0.3743 -0.4460
  351MOL0     C47290  12.702  12.646  11.687  0.6941 -0.7876 -0.6272
  351MOL0     C47291  12.848  12.610  11.709  0.9072 -0.0030  0.6892
  351MOL0     C47292  12.938  12.681  11.612 -0.2380 -0.7691  0.2667
  351MOL0     C47293  13.090  12.649  11.628  0.5777  0.1358 -0.0887
  351MOL0    Cl47294  13.163  12.755  11.764  0.3476  0.1034 -0.1921
  351MOL0     C47295  12.192  12.046  12.063 -0.2728  0.1152 -0.6337
  351MOL0     C47296  12.087  11.950  12.055 -0.1225  0.1366 -0.4806
  351MOL0     O47297  11.762  11.990  11.870 -0.0315  0.2114 -0.1958
  351MOL0     C47298  11.628  11.812  11.704 -0.1197  0.2044 -0.3264
  351MOL0     C47299  11.555  11.703  11.649 -0.3510  0.0619 -0.4721
  351MOL0     N47300  11.092  11.009  11.490  0.1832 -0.8567  0.0619
  351MOL0     N47301  10.993  10.988  11.418  0.2046 -0.0442  0.1749
  351MOL0     C47302  10.779  10.337  10.639  0.0181  0.2261 -0.5116
  351MOL0     C47303  10.700  10.307  10.528  0.2172  0.1636 -0.6187
  351MOL0     C47304  10.486  10.083  10.236  0.0910  0.6372  0.4068
  351MOL0     C47305  10.487   9.957  10.170  0.2567 -0.2613  0.1990
  351MOL0     C47306  10.388   9.930  10.074  0.3392 -0.0063 -1.0760
  351MOL0     C47307  10.290  10.026  10.036 -0.7961  0.0705  0.8019
  351MOL0     O47308  10.201  10.020   9.933  0.0687  0.1204  0.0192
  351MOL0     C47309  10.177   9.901   9.845 -0.8358  0.7132 -0.2340
  351MOL0     C47310  10.286   9.877   9.738  0.4033  0.3534  1.4926
  351MOL0     C47311  10.283   9.985   9.625 -0.3347  0.0992  0.2592
  351MOL0     C47312  10.373   9.938   9.512 -0.6573 -0.2307 -0.5917
  351MOL0     C47313  10.516   9.976   9.516  0.2460  0.0205 -0.5099
  351MOL0     C47314  10.628  10.029   9.535  0.8641  1.2280  0.3276
  351MOL0     C47315  10.299  10.148  10.102 -0.6732 -0.1207 -0.0717
  351MOL0     C47316  10.394  10.171  10.197 -0.0713  0.4064 -0.8823
  351MOL0     C47317  10.382  10.305  10.262 -0.0837 -0.4692  0.2373
  351MOL0     H47318  10.942  10.166  10.326  3.8038  1.4479  1.2679
  351MOL0     H47319  11.078  10.215  10.549 -0.5957 -2.1810 -0.2994
  351MOL0     H47320  10.873  10.377  10.919  0.6074  2.9206 -3.8660
  351MOL0     H47321  10.946  10.217  10.914 -0.8484  0.6264  2.7002
  351MOL0     H47322  11.165  10.314  10.933  0.4381 -3.0779  3.7900
  351MOL0     H47323  11.069  10.344  11.075 -0.8155  3.4243  0.8567
  351MOL0     H47324  11.112  10.537  10.848  2.7841 -2.8839  0.7558
  351MOL0     H47325  11.191  10.546  11.008  1.8182 -3.2164 -1.1590
  351MOL0     H47326  10.902  10.572  10.915 -1.3830  0.3368  0.6303
  351MOL0     H47327  10.939  10.582  11.088  0.6146  0.2043 -0.7381
  351MOL0     H47328  11.108  10.787  11.014 -0.0907  5.0937 -2.7768
  351MOL0     H47329  10.996  10.802  10.880 -6.0155  0.2532  0.0088
  351MOL0     H47330  10.812  10.827  11.043  0.3544 -1.9289  0.5806
  351MOL0     H47331  10.926  10.805  11.169 -2.7344  1.4713  1.1205
  351MOL0     H47332  10.892  11.028  10.974  0.9956 -0.7070 -0.9149
  351MOL0     H47333  11.058  10.994  11.028 -0.7081  2.1480 -4.8161
  351MOL0     H47334  10.936  11.181  11.168 -1.5949  0.0579 -1.1732
  351MOL0     H47335  10.823  11.061  11.220  0.4454 -1.9454 -1.4045
  351MOL0     H47336  11.215  11.112  11.208  0.7587  0.5281  0.4872
  351MOL0     H47337  11.372  11.016  11.534  1.4898  0.3619 -0.3895
  351MOL0     H47338  11.404  11.076  11.375  0.9828  0.5912  1.7298
  351MOL0     H47339  11.254  11.266  11.541 -0.0141 -1.4685 -1.0276
  351MOL0     H47340  11.408  11.215  11.621  3.4061  1.1584 -1.8611
  351MOL0     H47341  11.415  11.335  11.341  0.6987  0.8324 -0.1623
  351MOL0     H47342  11.534  11.278  11.453  0.7002  1.5022 -2.3710
  351MOL0     H47343  11.346  11.513  11.505  1.9189  4.1988  0.1157
  351MOL0     H47344  11.508  11.518  11.446  3.8351 -0.4854  2.7317
  351MOL0     H47345  11.651  11.444  11.847  0.2561 -1.5374 -2.1684
  351MOL0     H47346  11.800  11.611  11.924 -0.5264 -1.7800 -0.4078
  351MOL0     H47347  12.038  11.971  11.718  2.7800 -0.7429 -1.7151
  351MOL0     H47348  12.190  12.138  11.733  1.5419 -1.8908 -0.5345
  351MOL0     H47349  12.464  12.171  11.828 -1.2632 -0.7382  1.8932
  351MOL0     H47350  12.363  12.283  11.755  3.7062  1.6968 -1.6251
  351MOL0     H47351  12.421  12.458  11.923  3.7352  3.1876  1.5186
  351MOL0     H47352  12.551  12.359  11.987  1.6655 -0.7223 -0.5965
  351MOL0     H47353  12.692  12.413  11.810  0.2406  1.2489 -0.7169
  351MOL0     H47354  12.560  12.377  11.692 -2.5021 -0.4183  0.5459
  351MOL0     H47355  12.603  12.618  11.877  3.3445  0.6283 -0.5898
  351MOL0     H47356  12.504  12.628  11.738 -0.1553  0.4501  0.6937
  351MOL0     H47357  12.693  12.747  11.727 -0.0908 -1.1007  0.0104
  351MOL0     H47358  12.677  12.650  11.581 -0.4944 -1.8495 -0.4102
  351MOL0     H47359  12.866  12.627  11.815 -2.9501 -3.7660  2.2500
  351MOL0     H47360  12.863  12.502  11.699  2.7496  0.4604 -3.4785
  351MOL0     H47361  12.951  12.787  11.635  2.3604 -1.4909  2.6540
  351MOL0     H47362  12.906  12.658  11.510  0.9420 -1.0959 -0.0452
  351MOL0     H47363  13.103  12.541  11.644 -1.4866  0.1076  1.8626
  351MOL0     H47364  13.145  12.670  11.536  1.4461  3.2366  0.9931
  351MOL0     H47365  12.240  12.060  12.159  0.4577 -4.3988 -0.1255
  351MOL0     H47366  12.058  11.900  12.147 -0.8372  0.3187 -0.6080
  351MOL0     H47367  11.630  11.910  11.658  0.8633  1.5960  2.4920
  351MOL0     H47368  11.481  11.728  11.573  0.3459 -0.2647 -1.2650
  351MOL0     H47369  10.727  10.394  10.715 -2.8426  0.9533 -2.8145
  351MOL0     H47370  10.592  10.320  10.523  0.5123  3.5250 -0.5467
  351MOL0     H47371  10.555   9.883  10.213 -1.0592 -1.5406  0.1522
  351MOL0     H47372  10.392   9.831  10.028 -0.0262 -0.2186 -0.6615
  351MOL0     H47373  10.075   9.913   9.808 -1.1110  2.2681  0.9462
  351MOL0     H47374  10.169   9.814   9.912 -1.4784  1.0738  0.1670
  351MOL0     H47375  10.260   9.783   9.689  1.7167 -0.0950  1.6091
  351MOL0     H47376  10.383   9.872   9.788  1.1078 -0.2023  0.1183
  351MOL0     H47377  10.323  10.080   9.659  1.0708  0.4231 -2.0373
  351MOL0     H47378  10.180  10.003   9.595 -0.1864 -1.3872 -1.3069
  351MOL0     H47379  10.369   9.830   9.497 -1.9815 -0.3827  0.7424
  351MOL0     H47380  10.332   9.967   9.415  0.5351 -0.1852 -1.1101
  351MOL0     H47381  10.720  10.076   9.562  0.3039  1.2644  2.4208
  351MOL0     H47382  10.243  10.236  10.071 -2.6375 -0.6384  1.7547
  351MOL0     H47383  10.292  10.314  10.323 -0.3972 -3.0297  0.2378
  351MOL0     H47384  10.461  10.338  10.330  0.8856  3.2268 -2.3658
  351MOL0     H47385  10.392  10.371  10.175  2.2027 -2.9671 -1.5692
  352MOL0     O47386   6.888   9.626  10.806 -0.0464  0.4502  0.9778
  352MOL0     C47387   6.819   9.717  10.789  0.1523 -0.2412 -0.4963
  352MOL0     O47388   6.808   9.776  10.672 -0.2165  0.0074 -0.4869
  352MOL0     C47389   6.914   9.785  10.591  0.1941 -0.0094 -0.4814
  352MOL0     C47390   6.985   9.907  10.585  0.5613 -0.5126 -0.2156
  352MOL0     C47391   7.103   9.931  10.510  0.4316 -1.1311  0.2165
  352MOL0     C47392   7.160   9.823  10.452 -0.1666 -0.5583 -0.3085
  352MOL0     O47393   7.276   9.853  10.382  0.3749 -0.4994  0.5335
  352MOL0     C47394   7.401   9.862  10.458  0.4394  0.6166  0.6534
  352MOL0     C47395   7.514   9.931  10.398 -0.6000 -0.9516 -0.0862
  352MOL0     C47396   7.548   9.882  10.257 -0.6266 -0.1345 -0.0861
  352MOL0     C47397   7.647   9.976  10.192 -0.5380  0.1267 -1.0261
  352MOL0     C47398   7.700   9.931  10.054 -0.0968 -0.9479  0.4954
  352MOL0     C47399   7.819  10.017   9.999 -0.1016 -0.5749 -1.0289
  352MOL0     C47400   7.892   9.936   9.893 -0.5054 -0.6284 -0.2506
  352MOL0     C47401   7.802   9.921   9.770  0.2765  0.2247  0.4656
  352MOL0     N47402   7.862   9.837   9.667  0.1402 -0.5018 -0.1817
  352MOL0     C47403   7.970   9.877   9.592  0.5120  0.6757 -0.0983
  352MOL0     C47404   7.988   9.787   9.496  0.0438 -0.1027  0.2027
  352MOL0     C47405   8.108   9.795   9.399  0.7700 -0.0930 -0.2308
  352MOL0     C47406   8.076   9.746   9.263 -0.0012 -0.1657 -0.4868
  352MOL0     C47407   8.184   9.772   9.145  0.8202  0.5110  0.6852
  352MOL0     C47408   8.261   9.905   9.161  0.4714  1.3010  0.6026
  352MOL0     O47409   8.353   9.907   9.047  0.8464  0.2597 -0.0983
  352MOL0     C47410   8.440   9.809   9.041 -0.1499 -1.0376 -0.4677
  352MOL0     C47411   8.444   9.728   8.936  0.2988 -0.6139 -0.4356
  352MOL0     C47412   8.522   9.619   8.931  0.2025  0.9029 -0.2762
  352MOL0     C47413   8.605   9.587   9.039  0.5934  0.1373  0.9541
  352MOL0     C47414   8.685   9.455   9.031 -0.0295 -0.4205 -0.2035
  352MOL0     O47415   8.645   9.364   8.937 -0.3398 -0.1843  0.7121
  352MOL0     C47416   8.706   9.239   8.948  0.7678  0.0345  0.2689
  352MOL0     C47417   8.777   9.187   8.844  0.1634  0.7471 -0.8382
  352MOL0     C47418   8.816   9.048   8.841  0.7762 -0.6994 -0.1370
  352MOL0     C47419   8.803   8.970   8.959  1.1874  0.3235  0.5157
  352MOL0     O47420   8.843   8.837   8.967  0.8290 -0.2084 -0.6468
  352MOL0     C47421   8.960   8.791   8.898  0.2965  0.3203 -0.6124
  352MOL0     C47422   8.980   8.639   8.935  0.5622 -0.4771 -1.3287
  352MOL0     C47423   9.111   8.578   8.881  0.9724 -0.7710  0.2907
  352MOL0     C47424   9.144   8.601   8.739 -0.3241 -0.6917  0.4088
  352MOL0     C47425   9.054   8.535   8.631 -0.7622 -0.4173  1.1532
  352MOL0     C47426   9.038   8.383   8.636 -0.0448 -0.3589  0.4652
  352MOL0     C47427   8.949   8.339   8.517 -0.2114  0.7893 -0.0411
  352MOL0     C47428   8.891   8.196   8.546  0.1717  0.3542  0.4842
  352MOL0    Cl47429   8.749   8.167   8.440  0.1331 -0.3163 -0.3878
  352MOL0     C47430   8.729   9.029   9.061 -0.1735  0.1824 -0.0382
  352MOL0     C47431   8.681   9.156   9.057  0.0821 -0.0255 -0.1023
  352MOL0     O47432   8.784   9.442   9.107  0.1618 -0.3793  0.5370
  352MOL0     C47433   8.627   9.678   9.145 -0.7644 -0.7904  0.8781
  352MOL0     C47434   8.540   9.791   9.140  0.2086  0.5776 -0.3672
  352MOL0     N47435   7.892   9.689   9.504  0.0513 -0.3504  0.0709
  352MOL0     N47436   7.812   9.718   9.609 -0.2612  0.3337  0.7344
  352MOL0     C47437   7.106   9.697  10.459  0.1623 -0.6259  0.8135
  352MOL0     C47438   6.986   9.683  10.531  0.4501  0.0343  0.7850
  352MOL0     C47439   6.740   9.761  10.909 -1.0990 -0.3143  0.5093
  352MOL0     C47440   6.691   9.892  10.904 -1.2993  0.3985 -0.6743
  352MOL0     C47441   6.629   9.950  11.014  0.2573 -0.5164  0.1375
  352MOL0     C47442   6.605   9.884  11.131  0.6259  0.8622  0.2748
  352MOL0     O47443   6.536   9.952  11.230  0.2858 -0.7785  0.1531
  352MOL0     C47444   6.476   9.885  11.341  0.5921 -0.4620 -0.0570
  352MOL0     C47445   6.371   9.987  11.401  0.3121  0.4647 -0.9662
  352MOL0     C47446   6.255  10.021  11.305  0.1159  0.6394 -0.0002
  352MOL0     C47447   6.143   9.919  11.308 -0.5965  0.3382 -0.7916
  352MOL0     C47448   6.084   9.913  11.447  0.0204  0.6420  0.2286
  352MOL0     C47449   6.046   9.888  11.558  0.3192 -0.0873  0.3257
  352MOL0     C47450   6.639   9.758  11.137  0.2718 -0.0535 -1.1382
  352MOL0     C47451   6.716   9.698  11.034  0.5102  0.3695  0.0133
  352MOL0     C47452   6.751   9.557  11.058 -0.3622 -0.0200 -0.0624
  352MOL0     H47453   6.941   9.989  10.641  1.4627  0.5460 -1.0101
  352MOL0     H47454   7.156  10.025  10.500  1.6159 -1.6246  1.4961
  352MOL0     H47455   7.381   9.897  10.559  2.0588 -1.9491  1.9817
  352MOL0     H47456   7.452   9.766  10.472 -0.9792 -0.2075  0.3852
  352MOL0     H47457   7.601   9.929  10.463 -2.2270 -1.0975  2.1969
  352MOL0     H47458   7.475  10.033  10.396 -2.1389 -1.4808  0.9749
  352MOL0     H47459   7.458   9.890  10.195 -1.2667  1.3567  0.9798
  352MOL0     H47460   7.596   9.784  10.261 -0.8876 -0.4283 -2.6102
  352MOL0     H47461   7.599  10.073  10.175 -1.3030  0.8706  4.0375
  352MOL0     H47462   7.730   9.990  10.262 -0.1417 -3.3273 -0.6106
  352MOL0     H47463   7.706   9.824  10.078 -0.2377 -0.2912  4.0419
  352MOL0     H47464   7.624   9.960   9.981  0.6437  3.8345  1.2950
  352MOL0     H47465   7.784  10.114   9.964 -0.2532 -0.7492 -1.3676
  352MOL0     H47466   7.886  10.027  10.085 -3.1312 -0.1514  1.4644
  352MOL0     H47467   7.918   9.843   9.945  1.5783  0.8171  1.4462
  352MOL0     H47468   7.983   9.986   9.860  0.2202 -3.2457 -2.6228
  352MOL0     H47469   7.711   9.868   9.799 -0.1878  0.6410 -0.2269
  352MOL0     H47470   7.775  10.018   9.729 -1.4388 -0.0269  0.9127
  352MOL0     H47471   8.022   9.971   9.601 -1.3738  1.8181 -0.5889
  352MOL0     H47472   8.131   9.901   9.390  0.2403  0.1029  0.6029
  352MOL0     H47473   8.194   9.739   9.438  0.4443 -1.3829 -1.2950
  352MOL0     H47474   8.066   9.640   9.285 -3.2480  0.2209  0.4475
  352MOL0     H47475   7.971   9.775   9.250 -0.4990 -0.0182  2.8582
  352MOL0     H47476   8.128   9.768   9.051  0.2264  0.8554  1.0164
  352MOL0     H47477   8.248   9.684   9.150 -0.5339 -0.5749 -0.5020
  352MOL0     H47478   8.313   9.913   9.256 -0.8177  1.4535  1.3210
  352MOL0     H47479   8.189   9.987   9.168 -1.2734 -0.2545  2.3210
  352MOL0     H47480   8.387   9.744   8.846 -0.1078 -0.7437 -0.2031
  352MOL0     H47481   8.514   9.551   8.847  0.9772 -0.4729  0.7157
  352MOL0     H47482   8.790   9.241   8.751 -1.7590 -0.8628 -2.1161
  352MOL0     H47483   8.856   9.003   8.750  1.2600  2.2719 -1.5193
  352MOL0     H47484   8.946   8.797   8.789 -1.1176  1.4148 -0.4055
  352MOL0     H47485   9.045   8.854   8.928 -0.9202 -0.1305  4.6218
  352MOL0     H47486   8.978   8.628   9.044  2.3291  0.2994 -1.1778
  352MOL0     H47487   8.890   8.588   8.902  0.9671 -0.3189 -2.7272
  352MOL0     H47488   9.200   8.601   8.941  0.8089  0.0979  0.2062
  352MOL0     H47489   9.101   8.469   8.893 -1.6671 -0.3362  3.4639
  352MOL0     H47490   9.249   8.570   8.730 -0.9794 -2.4387 -3.3678
  352MOL0     H47491   9.151   8.708   8.718 -2.2473  0.1092  3.3327
  352MOL0     H47492   9.100   8.555   8.534  1.0451 -2.0104  1.6092
  352MOL0     H47493   8.957   8.584   8.633 -1.4267 -1.5708 -0.7841
  352MOL0     H47494   9.134   8.333   8.629  0.1356 -0.2542  1.9020
  352MOL0     H47495   8.992   8.354   8.731  1.6141  0.5338  1.5913
  352MOL0     H47496   9.004   8.337   8.422  0.0819 -0.6811  0.1253
  352MOL0     H47497   8.862   8.404   8.507  0.4594  1.8163  0.5566
  352MOL0     H47498   8.962   8.117   8.520 -2.3630 -0.8883 -3.6490
  352MOL0     H47499   8.876   8.171   8.651  1.2212 -2.4462  0.0684
  352MOL0     H47500   8.690   8.971   9.144 -0.3891  1.0586  0.4816
  352MOL0     H47501   8.619   9.188   9.141 -0.2116  0.5480 -0.5294
  352MOL0     H47502   8.692   9.667   9.231 -0.1292 -1.2866  0.3436
  352MOL0     H47503   8.563   9.871   9.210 -0.2709  0.4911 -0.1073
  352MOL0     H47504   7.153   9.605  10.423  0.0162 -0.7164  0.8537
  352MOL0     H47505   6.935   9.589  10.545  3.2168 -1.8796 -0.9175
  352MOL0     H47506   6.713   9.947  10.813 -1.8746  1.2296 -0.3160
  352MOL0     H47507   6.593  10.051  10.995  4.7772  1.3591  0.2063
  352MOL0     H47508   6.556   9.858  11.411 -0.5874 -0.5188  1.3017
  352MOL0     H47509   6.422   9.795  11.314  0.0438  0.1572 -1.0892
  352MOL0     H47510   6.426  10.077  11.426  0.1769  0.8787 -2.1057
  352MOL0     H47511   6.330   9.933  11.487 -0.4794  0.6017 -1.2498
  352MOL0     H47512   6.289  10.041  11.203  1.7736 -0.8559  0.2244
  352MOL0     H47513   6.195  10.108  11.334  0.4622  0.0388  2.7037
  352MOL0     H47514   6.056   9.941  11.245 -0.8525  0.0589 -0.5352
  352MOL0     H47515   6.173   9.817  11.282  1.7937 -0.2138  3.2635
  352MOL0     H47516   5.998   9.862  11.650 -1.8368  1.9187 -0.1244
  352MOL0     H47517   6.596   9.714  11.226  0.2471  2.0863 -0.0154
  352MOL0     H47518   6.757   9.524  11.162  1.6649  1.6050  0.3852
  352MOL0     H47519   6.692   9.484  11.001  0.6492 -0.5870 -0.4193
  352MOL0     H47520   6.852   9.535  11.022 -0.6480 -0.5723 -0.5571
  353MOL0     O47521   5.854   0.291   2.721 -0.4391 -0.2076  0.2680
  353MOL0     C47522   5.850   0.396   2.664  0.8027 -0.6389 -0.0568
  353MOL0     O47523   5.953   0.450   2.591 -0.6306 -0.0139  0.2001
  353MOL0     C47524   6.072   0.392   2.619 -0.0917 -0.0164 -0.0592
  353MOL0     C47525   6.123   0.312   2.525  0.4392 -0.0333  0.4802
  353MOL0     C47526   6.244   0.242   2.546 -0.1332 -0.0428  0.2520
  353MOL0     C47527   6.316   0.272   2.665 -0.8878 -0.0244 -0.1434
  353MOL0     O47528   6.440   0.196   2.682 -0.0936 -0.0844 -0.4490
  353MOL0     C47529   6.469   0.118   2.798 -0.1189 -0.1923 -0.5340
  353MOL0     C47530   6.552  -0.004   2.753 -1.0464  0.4817  0.4206
  353MOL0     C47531   6.501  -0.122   2.665  0.6958 -0.1922 -0.8268
  353MOL0     C47532   6.520  -0.267   2.717 -0.4897  0.8575  0.9531
  353MOL0     C47533   6.485  -0.369   2.606 -0.8576 -0.2149  0.5862
  353MOL0     C47534   6.491  -0.511   2.649  0.5798 -0.4074  0.3506
  353MOL0     C47535   6.473  -0.617   2.538 -0.0967 -0.1721 -0.4718
  353MOL0     C47536   6.523  -0.759   2.574  0.0847 -0.3293  0.0838
  353MOL0     N47537   6.465  -0.821   2.703 -0.0007 -0.2648  0.1138
  353MOL0     C47538   6.340  -0.892   2.696 -0.2485 -0.5489 -0.3012
  353MOL0     C47539   6.344  -0.941   2.828 -0.1811 -0.0705  0.4753
  353MOL0     C47540   6.236  -1.027   2.898 -0.5735 -0.8415  0.2026
  353MOL0     C47541   6.251  -1.176   2.872  0.0141  0.4129  0.3452
  353MOL0     C47542   6.159  -1.269   2.947  0.5403 -0.4620 -0.6602
  353MOL0     C47543   6.170  -1.418   2.916  0.2851  0.2028 -0.2727
  353MOL0     O47544   6.095  -1.495   3.007 -0.1184 -0.8254 -1.1149
  353MOL0     C47545   6.143  -1.512   3.139 -0.8635 -0.4036 -0.2413
  353MOL0     C47546   6.068  -1.585   3.229  0.2269 -0.4954 -0.4747
  353MOL0     C47547   6.106  -1.609   3.360  0.1434 -0.3787  0.2930
  353MOL0     C47548   6.233  -1.566   3.404  0.3979 -0.5682  0.1128
  353MOL0     C47549   6.293  -1.611   3.537  0.1099 -0.3282 -0.0359
  353MOL0     O47550   6.211  -1.643   3.643 -0.3644  0.9660  0.3471
  353MOL0     C47551   6.273  -1.644   3.769  0.8984 -0.1886  0.3075
  353MOL0     C47552   6.345  -1.539   3.827  0.3866 -0.2986 -0.1585
  353MOL0     C47553   6.406  -1.556   3.956 -1.3243  0.0282 -0.2086
  353MOL0     C47554   6.378  -1.670   4.034 -0.0753 -0.1584 -0.9514
  353MOL0     O47555   6.420  -1.689   4.173  0.3144  0.0905  0.6457
  353MOL0     C47556   6.440  -1.568   4.252 -0.9146  0.7042  0.0091
  353MOL0     C47557   6.308  -1.536   4.306  1.2258  0.8955  0.0326
  353MOL0     C47558   6.270  -1.605   4.439 -0.0862  0.0900  0.6121
  353MOL0     C47559   6.317  -1.535   4.557 -0.4621  0.9097 -0.1789
  353MOL0     C47560   6.278  -1.586   4.694  0.5309 -0.3526  0.5003
  353MOL0     C47561   6.368  -1.514   4.798 -0.5273  0.2928 -0.0055
  353MOL0     C47562   6.415  -1.604   4.912  1.2867 -0.4385  0.2553
  353MOL0     C47563   6.545  -1.554   4.979  0.0167 -0.0191  0.2213
  353MOL0    Cl47564   6.544  -1.388   5.043  0.3669 -0.7271 -0.4298
  353MOL0     C47565   6.295  -1.770   3.977 -0.4644 -0.5282 -0.0209
  353MOL0     C47566   6.252  -1.753   3.852 -0.0518 -0.2059  0.0751
  353MOL0     O47567   6.416  -1.594   3.546 -0.0872 -0.5219  0.3266
  353MOL0     C47568   6.311  -1.494   3.307  0.3513 -0.5122  0.0808
  353MOL0     C47569   6.261  -1.456   3.182 -0.7378  0.1463  0.4846
  353MOL0     N47570   6.459  -0.900   2.900  0.0102 -0.5125 -0.1558
  353MOL0     N47571   6.526  -0.831   2.825  0.3072  0.4492  0.4053
  353MOL0     C47572   6.266   0.365   2.764  0.2605 -0.7380  1.3133
  353MOL0     C47573   6.147   0.424   2.734  0.6226  0.1056 -0.4435
  353MOL0     C47574   5.738   0.479   2.697  0.2446  0.1663 -0.1615
  353MOL0     C47575   5.738   0.620   2.703  0.3409  0.1880  0.3670
  353MOL0     C47576   5.633   0.695   2.748  0.0689 -0.8584  0.3499
  353MOL0     C47577   5.501   0.634   2.763 -0.0607 -0.5048  0.8633
  353MOL0     O47578   5.381   0.685   2.790 -0.0495 -0.5379 -0.6417
  353MOL0     C47579   5.366   0.803   2.858 -0.0753  0.4388 -0.0969
  353MOL0     C47580   5.329   0.924   2.771  0.2582  0.4205 -0.4580
  353MOL0     C47581   5.452   0.988   2.698 -0.2658 -0.2014  0.4191
  353MOL0     C47582   5.414   1.104   2.597 -1.3529  0.6388  0.0538
  353MOL0     C47583   5.542   1.160   2.545  0.1306 -0.5920 -0.1108
  353MOL0     C47584   5.631   1.244   2.508  0.5672 -1.0744  0.0732
  353MOL0     C47585   5.489   0.495   2.742 -0.5676  0.9819  0.1453
  353MOL0     C47586   5.604   0.424   2.705  0.1098 -0.3741  0.3473
  353MOL0     C47587   5.583   0.277   2.676  0.6119  0.3941  1.1278
  353MOL0     H47588   6.062   0.279   2.441 -0.0799  0.7583  0.5365
  353MOL0     H47589   6.286   0.176   2.471 -0.5613  0.3855 -0.3717
  353MOL0     H47590   6.515   0.176   2.879 -0.0828 -2.5899  1.2608
  353MOL0     H47591   6.375   0.085   2.843  0.3115 -1.5270 -0.5939
  353MOL0     H47592   6.566  -0.049   2.852  2.2192 -0.0740 -0.1712
  353MOL0     H47593   6.651   0.027   2.718 -0.0672  1.1954  3.4668
  353MOL0     H47594   6.549  -0.105   2.568  0.5768  1.3097 -0.6505
  353MOL0     H47595   6.393  -0.115   2.650  0.9040 -1.2290 -3.1009
  353MOL0     H47596   6.623  -0.294   2.741  0.2918  0.1408 -2.6329
  353MOL0     H47597   6.469  -0.289   2.811  3.0818  0.3057  2.9062
  353MOL0     H47598   6.384  -0.345   2.571 -0.7340 -1.2651 -0.5374
  353MOL0     H47599   6.546  -0.346   2.518 -0.5771  2.0428  1.2868
  353MOL0     H47600   6.594  -0.522   2.684  0.8008 -3.7735 -0.9440
  353MOL0     H47601   6.411  -0.525   2.722  1.4203  0.9304  1.5715
  353MOL0     H47602   6.531  -0.579   2.454 -1.1507  1.0297 -0.6855
  353MOL0     H47603   6.370  -0.628   2.502  0.1699 -1.5224 -0.8706
  353MOL0     H47604   6.510  -0.837   2.498 -2.1103 -0.1324  0.1870
  353MOL0     H47605   6.629  -0.735   2.580  0.8610 -3.3592 -0.1288
  353MOL0     H47606   6.261  -0.903   2.623  0.8607  1.3997 -1.8872
  353MOL0     H47607   6.247  -1.011   3.005 -0.0190 -2.3211  0.3952
  353MOL0     H47608   6.143  -0.987   2.856 -1.0329 -1.5583  0.5197
  353MOL0     H47609   6.236  -1.178   2.763  1.5757 -2.8830  0.0459
  353MOL0     H47610   6.351  -1.207   2.903  0.8539  2.9092  0.3780
  353MOL0     H47611   6.053  -1.241   2.939  0.1164 -1.3903  1.0499
  353MOL0     H47612   6.171  -1.243   3.053 -2.3236  0.1287 -0.3847
  353MOL0     H47613   6.277  -1.439   2.924 -0.0574 -2.2977 -1.1615
  353MOL0     H47614   6.143  -1.443   2.813 -2.3454 -0.9737  0.6079
  353MOL0     H47615   5.974  -1.619   3.187 -2.9573  5.0252  1.1680
  353MOL0     H47616   6.045  -1.670   3.426 -0.9877  1.0303  0.5859
  353MOL0     H47617   6.385  -1.456   3.769  2.2147 -1.3707 -0.5242
  353MOL0     H47618   6.474  -1.481   3.996 -0.1554 -1.4957  0.7600
  353MOL0     H47619   6.501  -1.577   4.342 -1.5731  2.3469  0.6614
  353MOL0     H47620   6.494  -1.487   4.201  2.2656 -0.0125  1.9343
  353MOL0     H47621   6.296  -1.428   4.315 -0.3204  0.5779  2.8420
  353MOL0     H47622   6.235  -1.564   4.230 -1.0664  4.0771  0.8648
  353MOL0     H47623   6.163  -1.626   4.451  0.0398 -1.2459 -0.3701
  353MOL0     H47624   6.314  -1.705   4.446  0.3039  0.2198  0.0712
  353MOL0     H47625   6.286  -1.430   4.555 -0.7642  0.8094 -1.6679
  353MOL0     H47626   6.426  -1.535   4.548 -0.4283 -2.9149 -1.7281
  353MOL0     H47627   6.295  -1.695   4.689  0.0306 -0.3895 -3.1916
  353MOL0     H47628   6.176  -1.559   4.721  1.0185 -0.1752  2.3079
  353MOL0     H47629   6.460  -1.471   4.759  0.0561 -1.2258 -0.3452
  353MOL0     H47630   6.303  -1.440   4.848 -1.0822  0.3211 -0.7509
  353MOL0     H47631   6.425  -1.707   4.877  0.6662 -0.9364  1.4908
  353MOL0     H47632   6.348  -1.608   4.998  2.2231  1.8070  1.1750
  353MOL0     H47633   6.575  -1.626   5.055  0.6395  0.1263  0.1267
  353MOL0     H47634   6.618  -1.546   4.897  0.0778  2.1336  0.4083
  353MOL0     H47635   6.250  -1.850   4.035 -1.0513  0.6884  1.2471
  353MOL0     H47636   6.177  -1.828   3.828 -0.6722  1.1990 -2.8232
  353MOL0     H47637   6.412  -1.461   3.330 -0.4971  2.1950  0.3194
  353MOL0     H47638   6.322  -1.397   3.115  0.0151  0.7468  1.6673
  353MOL0     H47639   6.326   0.397   2.849  4.4927  4.8779 -3.0541
  353MOL0     H47640   6.112   0.503   2.799  2.7801  2.0175 -1.4772
  353MOL0     H47641   5.829   0.677   2.686  0.9455 -0.6934  0.5794
  353MOL0     H47642   5.641   0.804   2.753 -0.7447 -0.5315 -3.0336
  353MOL0     H47643   5.456   0.831   2.914  1.7550 -1.2346 -2.0295
  353MOL0     H47644   5.295   0.786   2.939  1.2625  1.5713  1.3809
  353MOL0     H47645   5.295   0.995   2.847  2.3071  0.5673  0.3703
  353MOL0     H47646   5.246   0.914   2.699  1.6302  1.6275 -2.3138
  353MOL0     H47647   5.500   0.913   2.635  3.0122  0.7539  1.5902
  353MOL0     H47648   5.521   1.034   2.769 -0.1210  1.5828 -0.8230
  353MOL0     H47649   5.359   1.063   2.512 -0.7581 -1.0585  0.4492
  353MOL0     H47650   5.347   1.178   2.643 -0.9091  0.0622  1.7063
  353MOL0     H47651   5.710   1.313   2.488 -1.4910  1.0059 -1.4971
  353MOL0     H47652   5.397   0.449   2.775  0.4572 -0.0455  1.6939
  353MOL0     H47653   5.604   0.220   2.767 -0.3090 -1.8729 -0.0047
  353MOL0     H47654   5.474   0.274   2.664  0.6425 -2.2821  0.9226
  353MOL0     H47655   5.634   0.245   2.585 -3.2510  1.0538 -1.5313
  354MOL0     O47656   8.172   6.429   6.027 -0.7018  0.5829  1.2080
  354MOL0     C47657   8.188   6.313   6.065  0.1664  0.1839 -0.2901
  354MOL0     O47658   8.093   6.216   6.057  0.4280  0.6112  0.5431
  354MOL0     C47659   8.007   6.198   6.165  0.0463 -0.3953 -0.3827
  354MOL0     C47660   8.060   6.190   6.292 -1.6089  0.1864 -0.3581
  354MOL0     C47661   7.975   6.191   6.397  0.1514  0.0514 -0.8013
  354MOL0     C47662   7.837   6.199   6.388  0.4791  0.5122 -0.9128
  354MOL0     O47663   7.751   6.191   6.494 -0.4146 -1.1891 -0.4412
  354MOL0     C47664   7.624   6.261   6.486 -0.0720 -0.9379 -0.0645
  354MOL0     C47665   7.571   6.251   6.625  0.2615  0.6612 -0.1300
  354MOL0     C47666   7.464   6.349   6.656  0.5429 -0.0219  1.1273
  354MOL0     C47667   7.333   6.293   6.597 -0.1849 -0.0179 -0.1741
  354MOL0     C47668   7.234   6.417   6.616  0.4068  0.4208 -0.1911
  354MOL0     C47669   7.084   6.383   6.612 -0.0527 -0.4171 -0.1040
  354MOL0     C47670   7.045   6.301   6.480  0.2951 -0.6174  0.0946
  354MOL0     C47671   6.891   6.296   6.457 -0.0084  0.2985 -1.8259
  354MOL0     N47672   6.849   6.370   6.339  0.0081  0.1467  0.0946
  354MOL0     C47673   6.782   6.315   6.232  0.6610  0.1037  0.0938
  354MOL0     C47674   6.769   6.408   6.140  0.4462 -0.7330  0.0149
  354MOL0     C47675   6.715   6.406   5.997 -1.3684 -0.1667  0.2586
  354MOL0     C47676   6.759   6.523   5.913 -0.1521  0.4572  0.3753
  354MOL0     C47677   6.728   6.501   5.761 -0.0199 -0.5039  0.1241
  354MOL0     C47678   6.831   6.411   5.685 -0.0549 -0.0040  0.6949
  354MOL0     O47679   6.934   6.490   5.628 -0.4925 -0.5287  0.7006
  354MOL0     C47680   6.959   6.463   5.500  1.0505  0.7169 -0.1290
  354MOL0     C47681   6.989   6.341   5.455  0.2014  0.3762  0.2709
  354MOL0     C47682   7.046   6.320   5.327  0.9591 -0.3495 -0.3604
  354MOL0     C47683   7.072   6.422   5.235  0.1611  0.6811  0.5325
  354MOL0     C47684   7.129   6.404   5.107 -0.3452 -0.0141  0.3113
  354MOL0     O47685   7.191   6.513   5.047 -0.2674 -0.5414 -0.4610
  354MOL0     C47686   7.262   6.486   4.937  0.5941  0.2091 -1.3189
  354MOL0     C47687   7.210   6.532   4.817 -0.1183  0.1661  0.0368
  354MOL0     C47688   7.252   6.474   4.698 -0.4814 -0.2901 -0.3874
  354MOL0     C47689   7.382   6.414   4.700 -0.9636  0.4864  0.0087
  354MOL0     O47690   7.451   6.386   4.584 -0.3491  0.4986  0.3467
  354MOL0     C47691   7.394   6.289   4.503  0.1499 -0.6984 -0.2720
  354MOL0     C47692   7.481   6.164   4.505 -0.9586 -0.6870  0.7668
  354MOL0     C47693   7.622   6.195   4.449  0.3000  0.6123  0.7549
  354MOL0     C47694   7.718   6.097   4.505 -0.1259  0.3743 -0.1212
  354MOL0     C47695   7.850   6.098   4.429 -0.2568  0.2255  0.4183
  354MOL0     C47696   7.980   6.054   4.505 -0.4891 -1.6561 -0.0008
  354MOL0     C47697   7.952   5.949   4.605  0.1668 -0.3183 -0.7592
  354MOL0     C47698   8.082   5.876   4.655  0.1113  0.5150 -0.0734
  354MOL0    Cl47699   8.176   5.988   4.762  0.9251 -0.2793  0.6646
  354MOL0     C47700   7.443   6.390   4.821  0.0815  1.0156  1.2324
  354MOL0     C47701   7.387   6.420   4.946  0.1101 -0.0231  0.8203
  354MOL0     O47702   7.138   6.291   5.072 -0.0632  0.8174  0.5916
  354MOL0     C47703   7.044   6.545   5.286  0.2892 -0.2955 -0.3373
  354MOL0     C47704   6.992   6.569   5.412 -0.1301 -0.3730 -0.7460
  354MOL0     N47705   6.823   6.521   6.193  0.0143  0.9695 -0.5527
  354MOL0     N47706   6.884   6.496   6.310  1.3987 -0.2448  0.4063
  354MOL0     C47707   7.785   6.204   6.258 -0.3988  0.1591 -0.4992
  354MOL0     C47708   7.871   6.210   6.156 -0.3220  0.3841  1.3106
  354MOL0     C47709   8.325   6.273   6.115 -0.9599  0.8165 -0.2426
  354MOL0     C47710   8.354   6.132   6.127  0.2108 -0.5608  0.5500
  354MOL0     C47711   8.479   6.096   6.165 -0.4075  0.4844 -0.5302
  354MOL0     C47712   8.585   6.184   6.199  0.7870 -0.0051  0.2883
  354MOL0     O47713   8.699   6.125   6.224 -0.6715 -0.3115  0.2554
  354MOL0     C47714   8.813   6.193   6.179 -0.4758 -0.2278  0.2951
  354MOL0     C47715   8.918   6.093   6.150 -0.0991  0.7666 -0.3450
  354MOL0     C47716   9.000   6.138   6.024 -0.4012 -0.5396 -0.0617
  354MOL0     C47717   9.068   6.272   6.048  0.0578 -0.9106 -0.1821
  354MOL0     C47718   9.188   6.275   6.140 -0.5040  0.4152 -0.2976
  354MOL0     C47719   9.297   6.279   6.207  0.6262  0.4377 -0.4678
  354MOL0     C47720   8.562   6.325   6.188 -0.1448 -0.0214 -0.7361
  354MOL0     C47721   8.434   6.368   6.147 -0.4387 -0.1514  0.6318
  354MOL0     C47722   8.414   6.522   6.147  0.3009 -0.1459  0.6624
  354MOL0     H47723   8.166   6.178   6.314 -1.1015  3.4020 -0.6166
  354MOL0     H47724   8.023   6.183   6.494  0.0113  1.5091 -0.5915
  354MOL0     H47725   7.649   6.365   6.461  0.3936 -0.2904  2.8175
  354MOL0     H47726   7.549   6.227   6.414 -1.2690  0.7493  0.3368
  354MOL0     H47727   7.648   6.273   6.699  0.8804 -0.2231 -0.4839
  354MOL0     H47728   7.538   6.150   6.651  0.3928  0.3337 -1.1974
  354MOL0     H47729   7.483   6.450   6.620 -0.0461  0.0687  1.0515
  354MOL0     H47730   7.450   6.364   6.764 -1.3535  4.0887  0.5095
  354MOL0     H47731   7.339   6.271   6.490  0.5105  0.1411 -0.1740
  354MOL0     H47732   7.292   6.208   6.653 -1.2333  0.5593 -0.0315
  354MOL0     H47733   7.246   6.474   6.709 -1.7464  1.6729 -0.6200
  354MOL0     H47734   7.260   6.490   6.539  1.0138  1.8438  1.3047
  354MOL0     H47735   7.044   6.319   6.691  0.0509 -3.8554 -2.5861
  354MOL0     H47736   7.037   6.481   6.626 -1.2913 -1.0637  0.4123
  354MOL0     H47737   7.077   6.197   6.496  1.6144 -0.0983  1.0011
  354MOL0     H47738   7.096   6.344   6.393 -1.9636  0.6233 -0.6844
  354MOL0     H47739   6.851   6.195   6.466 -1.0869  0.8581  0.5928
  354MOL0     H47740   6.848   6.358   6.537 -1.9305 -1.5156 -1.3814
  354MOL0     H47741   6.740   6.215   6.221 -0.0767  0.6962 -4.5569
  354MOL0     H47742   6.753   6.314   5.953  0.2199  0.2245  0.7563
  354MOL0     H47743   6.609   6.380   6.001 -1.9056  1.9583  2.7975
  354MOL0     H47744   6.701   6.607   5.953 -0.4704 -0.0345  0.9657
  354MOL0     H47745   6.867   6.541   5.915  1.6233 -6.9666  1.0629
  354MOL0     H47746   6.726   6.598   5.710  1.7498 -0.1851  0.6208
  354MOL0     H47747   6.625   6.463   5.760 -1.3983  2.7784  1.2776
  354MOL0     H47748   6.774   6.347   5.617  0.4733  0.1923  0.0562
  354MOL0     H47749   6.875   6.337   5.753 -1.9893 -1.9050 -0.0210
  354MOL0     H47750   6.974   6.259   5.525 -2.2916  1.7590  1.4955
  354MOL0     H47751   7.077   6.219   5.304  2.3351 -0.0006 -0.1518
  354MOL0     H47752   7.112   6.577   4.811 -0.7728 -0.8592  2.0849
  354MOL0     H47753   7.181   6.491   4.618 -1.3366  3.6649  1.0079
  354MOL0     H47754   7.295   6.255   4.535  0.6539 -0.5076  1.6451
  354MOL0     H47755   7.380   6.330   4.403 -4.3334 -1.5896 -0.2032
  354MOL0     H47756   7.494   6.140   4.611  1.1809  3.7841  1.7530
  354MOL0     H47757   7.433   6.081   4.453 -0.9813 -1.0385  1.3325
  354MOL0     H47758   7.613   6.181   4.341 -1.4947  0.3847  0.9055
  354MOL0     H47759   7.659   6.297   4.461 -3.3271  2.2571 -0.6342
  354MOL0     H47760   7.679   5.995   4.502  3.5433 -1.2222  1.1768
  354MOL0     H47761   7.735   6.118   4.611 -1.4717 -2.8273  0.8387
  354MOL0     H47762   7.871   6.194   4.380  1.4650  0.3428  1.3143
  354MOL0     H47763   7.853   6.015   4.357  0.5548 -3.1763  4.0213
  354MOL0     H47764   8.050   6.016   4.430 -1.5885 -0.8213 -1.5030
  354MOL0     H47765   8.022   6.142   4.554  2.0899 -2.5978 -0.3941
  354MOL0     H47766   7.894   5.866   4.564 -2.6411  0.4174  1.4539
  354MOL0     H47767   7.906   5.996   4.692  1.4056  3.2810 -1.8706
  354MOL0     H47768   8.054   5.790   4.717  0.5630 -1.8895 -2.9521
  354MOL0     H47769   8.142   5.844   4.569 -1.9481 -3.1857 -0.3721
  354MOL0     H47770   7.542   6.344   4.822  0.0516  0.8960 -0.0544
  354MOL0     H47771   7.402   6.371   5.042 -1.9757 -2.8634 -0.1456
  354MOL0     H47772   7.050   6.626   5.214  0.9041 -0.5373 -0.5716
  354MOL0     H47773   6.994   6.673   5.442  0.5485  0.3754 -3.1231
  354MOL0     H47774   7.682   6.222   6.229 -0.3678  2.5369  0.6230
  354MOL0     H47775   7.834   6.226   6.055  0.0979  1.4137  1.3092
  354MOL0     H47776   8.293   6.047   6.101 -1.6916  0.7861  0.3601
  354MOL0     H47777   8.492   5.988   6.170 -3.0152  0.0701 -1.0745
  354MOL0     H47778   8.845   6.265   6.254  0.7057 -1.2032  0.7613
  354MOL0     H47779   8.784   6.255   6.093 -0.0708 -1.9401 -1.1491
  354MOL0     H47780   8.881   5.994   6.122  1.9913 -0.0937 -0.2814
  354MOL0     H47781   8.978   6.085   6.242  1.1908 -0.7314 -1.2704
  354MOL0     H47782   8.926   6.151   5.944  1.6162  0.3901 -1.8682
  354MOL0     H47783   9.075   6.063   5.997 -0.2196 -1.6228  3.0737
  354MOL0     H47784   9.096   6.306   5.948 -3.6358 -0.0049 -1.0636
  354MOL0     H47785   8.997   6.346   6.085 -0.1340 -1.1691 -0.0280
  354MOL0     H47786   9.376   6.279   6.279  0.0615  2.0291  0.1917
  354MOL0     H47787   8.630   6.406   6.213 -0.1432  0.3201 -1.7900
  354MOL0     H47788   8.331   6.545   6.214  1.4791 -1.7702  2.8273
  354MOL0     H47789   8.497   6.579   6.191  1.1621  0.6772 -1.8754
  354MOL0     H47790   8.398   6.557   6.045  1.1279 -2.0505 -0.1827
  355MOL0     O47791   5.097   5.761   4.036 -0.5395 -0.8093 -0.2092
  355MOL0     C47792   5.038   5.838   3.964 -0.4908  0.4027 -0.0526
  355MOL0     O47793   5.079   5.891   3.847 -0.0396  0.1931  0.0042
  355MOL0     C47794   5.199   5.854   3.806 -0.7692  0.6088  0.2590
  355MOL0     C47795   5.300   5.941   3.825 -0.4249  0.0783 -0.4359
  355MOL0     C47796   5.428   5.914   3.781 -0.7718  0.9285 -1.0271
  355MOL0     C47797   5.467   5.791   3.717  0.9658  0.6577 -0.2149
  355MOL0     O47798   5.589   5.765   3.668  0.0451 -0.1828 -0.6087
  355MOL0     C47799   5.685   5.873   3.671 -0.2938  0.0419 -0.1428
  355MOL0     C47800   5.810   5.828   3.585 -0.5168  0.0749  0.3566
  355MOL0     C47801   5.877   5.699   3.640 -0.5865  0.8523  0.4031
  355MOL0     C47802   5.954   5.745   3.766  0.3590  0.8565 -0.1932
  355MOL0     C47803   6.034   5.620   3.807  1.3461 -0.5649  0.3524
  355MOL0     C47804   6.135   5.657   3.909  1.0189 -0.5644  0.2532
  355MOL0     C47805   6.243   5.553   3.915 -0.2854  0.0195  0.5003
  355MOL0     C47806   6.371   5.597   3.832  0.4962  0.2201  0.7902
  355MOL0     N47807   6.344   5.601   3.685  0.3628 -0.4112  0.3027
  355MOL0     C47808   6.318   5.715   3.619  0.3660 -0.4273  0.1722
  355MOL0     C47809   6.275   5.661   3.496 -0.3194 -0.5001 -1.3250
  355MOL0     C47810   6.241   5.743   3.371  0.1736  0.2792 -0.8256
  355MOL0     C47811   6.358   5.776   3.280 -0.4215 -0.1119 -0.4162
  355MOL0     C47812   6.309   5.853   3.150 -0.5570  0.8231 -0.1810
  355MOL0     C47813   6.412   5.929   3.069  0.2461  0.7753 -0.3250
  355MOL0     O47814   6.529   5.864   3.020  0.0091 -0.5898  0.1523
  355MOL0     C47815   6.535   5.814   2.890 -0.3701 -0.2757 -0.4001
  355MOL0     C47816   6.425   5.766   2.831 -0.1356  0.7698  0.4612
  355MOL0     C47817   6.437   5.705   2.704  0.0854 -0.5762 -0.5258
  355MOL0     C47818   6.556   5.709   2.626 -0.1812 -0.0515 -0.1163
  355MOL0     C47819   6.554   5.656   2.497  0.0286  0.0212 -0.0520
  355MOL0     O47820   6.677   5.639   2.437 -0.4314 -0.1977 -0.4985
  355MOL0     C47821   6.678   5.608   2.301 -0.3649 -0.1857 -0.2192
  355MOL0     C47822   6.784   5.524   2.265 -0.1467  0.0954  0.0611
  355MOL0     C47823   6.785   5.477   2.126  0.3537  0.3925 -0.4605
  355MOL0     C47824   6.691   5.528   2.035  0.1818 -0.5188 -0.4229
  355MOL0     O47825   6.695   5.482   1.905 -0.1570 -0.2765  0.2828
  355MOL0     C47826   6.620   5.550   1.802 -0.2384  0.4801 -0.6125
  355MOL0     C47827   6.686   5.502   1.674  0.1782  0.3506 -0.4229
  355MOL0     C47828   6.712   5.348   1.652  0.6781 -0.9664 -1.2045
  355MOL0     C47829   6.808   5.316   1.529  0.7162 -0.3990 -0.2842
  355MOL0     C47830   6.792   5.171   1.486 -0.2295  0.0302 -0.9015
  355MOL0     C47831   6.840   5.084   1.600 -0.0424  1.2396  0.4578
  355MOL0     C47832   6.889   4.953   1.551  0.0247  1.1247 -0.1940
  355MOL0     C47833   6.784   4.879   1.469  0.5076  0.5881 -0.0473
  355MOL0    Cl47834   6.646   4.835   1.577  0.7667 -0.0042 -0.0483
  355MOL0     C47835   6.603   5.627   2.073  0.8649  1.1394 -0.1324
  355MOL0     C47836   6.586   5.657   2.209  0.6021 -1.1132 -0.1033
  355MOL0     O47837   6.445   5.618   2.448  0.5631 -0.2621  0.3878
  355MOL0     C47838   6.659   5.774   2.688 -0.2008  0.6645 -0.2369
  355MOL0     C47839   6.656   5.820   2.816 -0.7189  0.4712  0.7274
  355MOL0     N47840   6.279   5.526   3.493  0.3061  0.3464 -0.0692
  355MOL0     N47841   6.321   5.487   3.611 -0.0170  0.0611 -0.0618
  355MOL0     C47842   5.360   5.698   3.712 -1.2740 -0.0425 -0.3608
  355MOL0     C47843   5.229   5.731   3.746 -0.4897 -0.7397 -0.4374
  355MOL0     C47844   4.896   5.855   4.007  0.8565 -0.3184 -0.1132
  355MOL0     C47845   4.830   5.763   4.088  0.0759  0.6137  1.3605
  355MOL0     C47846   4.701   5.776   4.136  1.0038  0.3449 -0.0088
  355MOL0     C47847   4.629   5.896   4.109  0.5720  0.6923  0.2292
  355MOL0     O47848   4.493   5.901   4.154  0.8249  0.3056 -0.3710
  355MOL0     C47849   4.401   5.987   4.080  0.5120  1.0764  0.7173
  355MOL0     C47850   4.357   6.119   4.138  0.5078  0.1069 -0.5236
  355MOL0     C47851   4.479   6.193   4.217  1.3765 -0.1212 -0.2200
  355MOL0     C47852   4.443   6.299   4.324  0.3480  0.0442  0.0421
  355MOL0     C47853   4.349   6.401   4.273  0.8057  0.2872 -0.0984
  355MOL0     C47854   4.282   6.491   4.225 -0.8154 -0.8622 -0.2539
  355MOL0     C47855   4.689   5.998   4.034  0.1288  0.2213  0.2306
  355MOL0     C47856   4.821   5.982   3.983 -0.0759 -0.7443 -0.3883
  355MOL0     C47857   4.884   6.103   3.915 -0.2236  0.3701  0.0722
  355MOL0     H47858   5.274   6.031   3.880 -1.6073 -0.8225  0.5188
  355MOL0     H47859   5.503   5.990   3.802  1.8251 -1.3669 -1.4561
  355MOL0     H47860   5.640   5.956   3.616  2.7347  1.2460 -1.0159
  355MOL0     H47861   5.713   5.894   3.775 -3.2552 -1.8340  1.1433
  355MOL0     H47862   5.881   5.910   3.567 -1.4162  0.5653 -1.0813
  355MOL0     H47863   5.782   5.809   3.481 -1.0425  4.2103 -0.4525
  355MOL0     H47864   5.950   5.671   3.564 -3.9939  0.8035 -3.2068
  355MOL0     H47865   5.812   5.613   3.660  0.8413  0.4259  3.8044
  355MOL0     H47866   6.013   5.832   3.737 -1.2855  2.2616  0.4809
  355MOL0     H47867   5.880   5.766   3.844 -0.7304  1.2573 -1.3095
  355MOL0     H47868   5.968   5.539   3.839 -1.2980  0.4949 -2.0407
  355MOL0     H47869   6.078   5.581   3.715 -1.1421 -0.2767 -1.0548
  355MOL0     H47870   6.167   5.760   3.893 -2.0267  0.9771  2.9263
  355MOL0     H47871   6.097   5.641   4.010 -3.6594 -4.3261 -1.7034
  355MOL0     H47872   6.204   5.456   3.884 -2.3281  0.5309  1.3025
  355MOL0     H47873   6.276   5.546   4.019  3.6675 -0.7101 -0.6124
  355MOL0     H47874   6.410   5.695   3.862 -0.0878  0.6392  0.2311
  355MOL0     H47875   6.457   5.532   3.850 -1.4078 -4.0780 -3.4451
  355MOL0     H47876   6.312   5.821   3.638 -1.4695 -0.0029 -2.2836
  355MOL0     H47877   6.178   5.686   3.301 -1.0376  0.7479 -0.1571
  355MOL0     H47878   6.173   5.820   3.410  0.3753 -1.3259  3.0943
  355MOL0     H47879   6.436   5.831   3.333 -0.5256 -2.4511  2.3946
  355MOL0     H47880   6.413   5.688   3.246 -0.5216  0.5190 -2.3991
  355MOL0     H47881   6.223   5.919   3.167  0.2455  1.5308  1.2725
  355MOL0     H47882   6.269   5.768   3.093 -0.6111 -0.4012  1.5843
  355MOL0     H47883   6.456   6.006   3.134 -0.9423  0.6257  0.7030
  355MOL0     H47884   6.354   5.977   2.990 -0.8744  0.5014  0.3114
  355MOL0     H47885   6.330   5.761   2.883 -0.3534  1.5965  0.1575
  355MOL0     H47886   6.364   5.640   2.657 -1.7490 -0.3480  1.8630
  355MOL0     H47887   6.862   5.477   2.324  1.0905  0.8701 -0.8971
  355MOL0     H47888   6.841   5.388   2.100 -3.9121 -2.7888 -0.0214
  355MOL0     H47889   6.518   5.516   1.785  0.5179  0.1992 -7.0693
  355MOL0     H47890   6.608   5.659   1.802 -1.0400  0.4360 -2.6451
  355MOL0     H47891   6.623   5.537   1.592  0.7473  1.4216 -0.4203
  355MOL0     H47892   6.781   5.556   1.663  0.3205 -0.2718 -2.8803
  355MOL0     H47893   6.757   5.306   1.743 -1.7040  0.0920  0.5834
  355MOL0     H47894   6.613   5.302   1.643  0.5867 -1.6244  1.9737
  355MOL0     H47895   6.913   5.340   1.547  0.6252  0.3665 -0.6974
  355MOL0     H47896   6.776   5.370   1.439 -0.0356 -1.3321 -0.5819
  355MOL0     H47897   6.854   5.148   1.399 -1.0519 -1.8557 -1.0224
  355MOL0     H47898   6.686   5.165   1.460 -0.2919  2.7243 -1.5606
  355MOL0     H47899   6.931   5.128   1.641 -0.7617  2.6326  0.6256
  355MOL0     H47900   6.770   5.066   1.683  0.1189  1.8835  0.7360
  355MOL0     H47901   6.925   4.895   1.637  1.0305 -1.0819 -2.0026
  355MOL0     H47902   6.977   4.971   1.487 -0.7478  0.8192 -1.3723
  355MOL0     H47903   6.759   4.936   1.380 -0.9380 -1.9599 -1.3775
  355MOL0     H47904   6.828   4.782   1.444  0.1008 -0.0084  1.3956
  355MOL0     H47905   6.530   5.678   2.011  1.7694  3.4138  0.5626
  355MOL0     H47906   6.516   5.735   2.237 -0.6119 -1.9079 -0.8270
  355MOL0     H47907   6.759   5.781   2.646 -0.3382  1.4928 -0.4501
  355MOL0     H47908   6.743   5.869   2.858  2.7571 -0.7452 -4.1630
  355MOL0     H47909   5.388   5.602   3.670 -0.6057 -0.5967  1.2767
  355MOL0     H47910   5.159   5.648   3.742  0.8631 -1.9454  0.0453
  355MOL0     H47911   4.878   5.667   4.106 -2.2273 -1.0210 -0.4584
  355MOL0     H47912   4.671   5.689   4.193  0.0186  2.0751  2.3028
  355MOL0     H47913   4.303   5.938   4.077  1.0076  0.1169 -1.0631
  355MOL0     H47914   4.436   5.999   3.977  2.2682 -0.2496  1.1075
  355MOL0     H47915   4.292   6.089   4.221  1.8662  1.4861  1.1251
  355MOL0     H47916   4.299   6.187   4.075  0.3957  0.1144 -0.4154
  355MOL0     H47917   4.538   6.241   4.138 -1.8231  1.9300 -1.5789
  355MOL0     H47918   4.528   6.110   4.267  2.0201  0.6311  0.4291
  355MOL0     H47919   4.406   6.243   4.411 -0.5814 -0.3015 -0.5605
  355MOL0     H47920   4.532   6.354   4.355 -0.2187  1.4201 -0.7074
  355MOL0     H47921   4.228   6.576   4.188 -0.9418 -0.2001  1.3625
  355MOL0     H47922   4.638   6.093   4.019 -2.7172 -1.0776  1.0162
  355MOL0     H47923   4.910   6.067   3.815 -2.3524  1.2053 -0.8432
  355MOL0     H47924   4.816   6.186   3.893 -1.3683 -0.0824  1.6765
  355MOL0     H47925   4.965   6.138   3.978  0.8310 -0.3972 -0.8147
  356MOL0     O47926   7.492   3.197   0.566  0.4852  0.0197  0.1026
  356MOL0     C47927   7.517   3.185   0.693  0.3167  0.7599 -0.3803
  356MOL0     O47928   7.475   3.263   0.800 -0.0653 -0.1165 -0.0944
  356MOL0     C47929   7.400   3.376   0.768 -0.1771  0.1524  0.0593
  356MOL0     C47930   7.451   3.486   0.697 -0.2527  0.0362 -0.4408
  356MOL0     C47931   7.379   3.599   0.668 -0.4774 -0.5775 -1.2815
  356MOL0     C47932   7.248   3.612   0.700 -0.6733  0.0749 -0.0862
  356MOL0     O47933   7.167   3.723   0.679 -0.2832 -0.0807 -0.4190
  356MOL0     C47934   7.185   3.786   0.562  0.3714  0.6905  0.5181
  356MOL0     C47935   7.080   3.895   0.541 -0.4982 -0.0388 -0.4283
  356MOL0     C47936   7.096   4.010   0.645  0.3197  0.2715 -0.6500
  356MOL0     C47937   6.981   4.114   0.645 -0.3937  0.3885 -0.2639
  356MOL0     C47938   7.027   4.260   0.695  0.4997  0.3239  0.7610
  356MOL0     C47939   7.038   4.259   0.850  1.2476 -0.7155 -0.3611
  356MOL0     C47940   7.076   4.399   0.911 -0.2764  0.5271  0.5321
  356MOL0     C47941   7.036   4.403   1.060 -0.0066  0.0511  0.6782
  356MOL0     N47942   7.099   4.515   1.127  0.5484 -0.8020  0.2777
  356MOL0     C47943   7.230   4.531   1.164  0.7228  0.9219 -0.3862
  356MOL0     C47944   7.243   4.651   1.215  0.0894 -0.2179 -0.5654
  356MOL0     C47945   7.382   4.692   1.270  0.5559 -0.0244  0.7563
  356MOL0     C47946   7.474   4.733   1.154  0.7164  0.2812  0.1790
  356MOL0     C47947   7.449   4.867   1.087  0.3318 -0.5521 -0.4199
  356MOL0     C47948   7.543   4.896   0.973 -0.3371 -0.0662  0.6259
  356MOL0     O47949   7.548   5.026   0.928  0.8137  0.5544 -0.0584
  356MOL0     C47950   7.438   5.075   0.862 -0.7087 -0.3478 -1.1111
  356MOL0     C47951   7.434   5.220   0.852 -0.2395 -1.2956  0.0595
  356MOL0     C47952   7.323   5.291   0.800  0.9534 -0.4212  0.4048
  356MOL0     C47953   7.210   5.220   0.753 -0.5210 -1.4489  0.0604
  356MOL0     C47954   7.104   5.302   0.686 -0.1650 -0.1020  0.5010
  356MOL0     O47955   7.024   5.232   0.612 -0.0146 -0.3402  0.0822
  356MOL0     C47956   6.926   5.293   0.544 -1.0126 -0.6508 -0.0665
  356MOL0     C47957   6.906   5.268   0.410  0.1805  0.0799 -0.5547
  356MOL0     C47958   6.777   5.289   0.347  0.5128 -0.9189 -0.2036
  356MOL0     C47959   6.690   5.380   0.407  0.0079  0.1125 -0.4996
  356MOL0     O47960   6.598   5.439   0.332 -0.4695  0.3906  0.5219
  356MOL0     C47961   6.483   5.504   0.382  0.3870  0.3287 -0.7827
  356MOL0     C47962   6.373   5.396   0.399  0.2766 -0.1040 -0.0309
  356MOL0     C47963   6.265   5.425   0.511 -0.5119  0.1082 -0.0979
  356MOL0     C47964   6.329   5.414   0.653 -0.4796 -0.5029 -0.0433
  356MOL0     C47965   6.243   5.490   0.750 -0.1885  0.1433  0.4954
  356MOL0     C47966   6.295   5.517   0.889 -1.1551 -0.0386 -0.5682
  356MOL0     C47967   6.436   5.591   0.889  0.2486  0.5360  0.4256
  356MOL0     C47968   6.459   5.683   1.008 -0.1483  0.1539 -0.0616
  356MOL0    Cl47969   6.610   5.774   0.972 -0.3820  0.5770  0.2742
  356MOL0     C47970   6.715   5.425   0.538  0.6453  0.2702 -0.9282
  356MOL0     C47971   6.826   5.381   0.605  0.3380  0.0642 -0.7002
  356MOL0     O47972   7.104   5.423   0.703 -0.3315  0.4500 -0.6012
  356MOL0     C47973   7.216   5.083   0.758  0.0416  0.6111 -0.5395
  356MOL0     C47974   7.328   5.005   0.815  0.5733  0.8681  0.8633
  356MOL0     N47975   7.121   4.718   1.209 -0.1532 -0.5382  0.8905
  356MOL0     N47976   7.038   4.636   1.150  0.9974 -0.3994 -0.2880
  356MOL0     C47977   7.188   3.504   0.758  0.2056  1.9829 -0.2535
  356MOL0     C47978   7.256   3.383   0.795 -1.2230  0.2383 -0.5568
  356MOL0     C47979   7.604   3.083   0.733 -0.7444  0.1367 -0.9083
  356MOL0     C47980   7.667   3.085   0.862 -0.2321  0.0058 -0.2518
  356MOL0     C47981   7.757   2.980   0.891 -0.6050 -0.2255 -0.2831
  356MOL0     C47982   7.801   2.885   0.797 -0.0866  0.8147 -0.6878
  356MOL0     O47983   7.891   2.790   0.837 -0.4911 -0.6140  0.6517
  356MOL0     C47984   8.029   2.854   0.818  0.6074 -0.2223  0.1657
  356MOL0     C47985   8.130   2.760   0.755 -0.1094 -0.0941  0.5549
  356MOL0     C47986   8.265   2.829   0.740  0.3468  0.1512 -0.3281
  356MOL0     C47987   8.306   2.846   0.600  0.4375 -0.6069  0.1538
  356MOL0     C47988   8.342   2.732   0.522  0.3011  0.0738  0.0288
  356MOL0     C47989   8.379   2.640   0.444 -0.6243  0.5047  0.0931
  356MOL0     C47990   7.732   2.880   0.681  1.2774  0.4858 -0.6035
  356MOL0     C47991   7.636   2.975   0.646 -0.3589  0.4696 -1.2545
  356MOL0     C47992   7.572   2.944   0.514 -0.8084  0.5370  0.2122
  356MOL0     H47993   7.558   3.495   0.683 -0.3724  4.4477  0.2336
  356MOL0     H47994   7.433   3.682   0.623  1.2173 -0.4691  0.7819
  356MOL0     H47995   7.286   3.829   0.564  0.8572 -0.4253  2.3284
  356MOL0     H47996   7.172   3.718   0.478 -0.3702  0.1124  1.0866
  356MOL0     H47997   6.985   3.846   0.565 -1.2644  1.1360 -0.9666
  356MOL0     H47998   7.069   3.937   0.441  0.0633  0.5394 -0.2501
  356MOL0     H47999   7.190   4.065   0.636  0.1995  0.5847 -0.0161
  356MOL0     H48000   7.097   3.951   0.737 -1.7698  1.5473  0.2637
  356MOL0     H48001   6.939   4.129   0.545  1.1109  1.1140 -0.8221
  356MOL0     H48002   6.897   4.075   0.703 -1.2979  0.8966 -1.2114
  356MOL0     H48003   7.116   4.293   0.642 -0.7619 -0.7750 -2.2822
  356MOL0     H48004   6.953   4.329   0.653  1.6516 -0.3095 -2.6186
  356MOL0     H48005   6.938   4.236   0.890  0.8006 -1.4551 -1.8162
  356MOL0     H48006   7.114   4.189   0.886  0.4501 -0.8777  1.0775
  356MOL0     H48007   7.010   4.474   0.867 -1.6114 -0.9489 -0.0703
  356MOL0     H48008   7.181   4.423   0.894  1.0094 -4.1296  0.5348
  356MOL0     H48009   6.928   4.410   1.071 -0.0191  1.5957 -0.1416
  356MOL0     H48010   7.074   4.312   1.107  2.8554  0.5299 -0.4512
  356MOL0     H48011   7.300   4.450   1.147 -1.3102 -0.8295 -0.8723
  356MOL0     H48012   7.368   4.776   1.339 -1.2366  0.1842  0.2061
  356MOL0     H48013   7.435   4.617   1.329 -0.9378 -0.9165  1.0359
  356MOL0     H48014   7.578   4.746   1.186  0.8239 -0.7315  0.2851
  356MOL0     H48015   7.474   4.652   1.080  2.1162 -0.0615  0.5109
  356MOL0     H48016   7.462   4.944   1.163 -1.1424  1.2146 -1.8775
  356MOL0     H48017   7.348   4.880   1.049 -0.4909  0.3795  1.9293
  356MOL0     H48018   7.519   4.831   0.888  1.3008  1.2552 -0.9087
  356MOL0     H48019   7.636   4.869   1.024  0.0498  0.4349  0.1969
  356MOL0     H48020   7.515   5.273   0.900 -0.5079 -0.5324 -0.3108
  356MOL0     H48021   7.325   5.400   0.796 -2.0769 -0.2993 -2.2655
  356MOL0     H48022   6.978   5.194   0.379  0.7148  0.2790  0.1860
  356MOL0     H48023   6.754   5.238   0.254  3.8845 -0.9368 -1.1445
  356MOL0     H48024   6.502   5.558   0.476 -1.5240 -3.6650  2.2446
  356MOL0     H48025   6.452   5.576   0.307 -1.3420  0.7142  0.2610
  356MOL0     H48026   6.340   5.391   0.295  1.1131 -0.6482 -0.2787
  356MOL0     H48027   6.420   5.300   0.422  0.5806 -1.7162 -5.8633
  356MOL0     H48028   6.226   5.526   0.491 -0.0463  0.5735  1.2330
  356MOL0     H48029   6.182   5.354   0.507  1.4961 -2.3806 -0.4361
  356MOL0     H48030   6.430   5.455   0.662 -1.5102  2.6419 -1.1263
  356MOL0     H48031   6.325   5.308   0.677 -3.3158 -0.2544  0.9534
  356MOL0     H48032   6.155   5.426   0.761 -1.4698  1.9702  1.4552
  356MOL0     H48033   6.214   5.587   0.709  0.0640  0.3203  0.7313
  356MOL0     H48034   6.222   5.568   0.952 -1.2558  1.6422 -1.9786
  356MOL0     H48035   6.318   5.418   0.930 -0.7218  0.5223  0.5821
  356MOL0     H48036   6.440   5.655   0.800 -4.1091  2.7244  1.5472
  356MOL0     H48037   6.513   5.513   0.892  0.6664  0.9141 -0.2368
  356MOL0     H48038   6.373   5.749   0.999 -0.4162 -0.2941 -0.9726
  356MOL0     H48039   6.460   5.639   1.108  2.6412  2.8399  1.2653
  356MOL0     H48040   6.646   5.488   0.593 -0.7514 -1.9722  0.0071
  356MOL0     H48041   6.825   5.398   0.713  2.3306 -0.2667 -0.5911
  356MOL0     H48042   7.135   5.035   0.704  0.6693  3.3817 -4.3369
  356MOL0     H48043   7.317   4.898   0.800 -0.1391  0.5961  2.9521
  356MOL0     H48044   7.082   3.510   0.781  0.0995  0.8730 -0.3906
  356MOL0     H48045   7.192   3.308   0.841 -3.8716  2.0223 -1.1623
  356MOL0     H48046   7.657   3.167   0.932  3.0493 -0.6557  1.1619
  356MOL0     H48047   7.801   2.979   0.990 -3.9529  2.4035  1.4224
  356MOL0     H48048   8.064   2.897   0.912 -2.0849 -0.9850  1.6354
  356MOL0     H48049   8.020   2.937   0.748  3.0057 -0.5636 -0.6382
  356MOL0     H48050   8.090   2.707   0.669 -1.9449 -2.0579  2.4926
  356MOL0     H48051   8.149   2.690   0.836 -1.5142  0.4229  1.3668
  356MOL0     H48052   8.338   2.763   0.786  0.5257  1.7244  1.8176
  356MOL0     H48053   8.266   2.921   0.799 -1.5058  1.3031 -1.9508
  356MOL0     H48054   8.231   2.899   0.541 -0.4913 -1.8355  0.1776
  356MOL0     H48055   8.393   2.911   0.604 -0.7076  0.9131  1.6162
  356MOL0     H48056   8.394   2.563   0.370 -0.0649 -0.1463  0.8564
  356MOL0     H48057   7.760   2.804   0.608 -0.3453  3.3529 -4.6099
  356MOL0     H48058   7.585   2.839   0.487  1.0772  1.4161 -2.7513
  356MOL0     H48059   7.466   2.969   0.508 -1.1978 -1.3448 -3.1834
  356MOL0     H48060   7.632   2.998   0.441  0.2421 -0.7995  0.0363
  357MOL0     O48061   3.458  10.290  10.253 -0.6006  0.7760  0.0421
  357MOL0     C48062   3.431  10.185  10.190  0.7119 -0.2451  0.0858
  357MOL0     O48063   3.502  10.126  10.085  0.0913 -0.0499  0.0707
  357MOL0     C48064   3.630  10.169  10.050  0.4221 -0.5123 -0.1161
  357MOL0     C48065   3.705  10.242  10.141 -0.8182  0.3467 -0.2351
  357MOL0     C48066   3.837  10.279  10.104  0.0138 -0.1327 -0.2239
  357MOL0     C48067   3.889  10.253   9.973  0.6007 -0.6317  0.2710
  357MOL0     O48068   4.005  10.310   9.925  0.4639  0.1746  0.0148
  357MOL0     C48069   4.054  10.423   9.983 -0.1324  0.3020 -1.0446
  357MOL0     C48070   4.167  10.386  10.078  0.5889  0.6395 -0.6071
  357MOL0     C48071   4.199  10.500  10.163  0.8166  0.3926 -0.0506
  357MOL0     C48072   4.099  10.552  10.276 -0.2605 -0.8950 -0.2383
  357MOL0     C48073   4.162  10.682  10.333  0.4447 -0.0534 -0.7024
  357MOL0     C48074   4.079  10.732  10.452 -0.1902  0.1676  0.7898
  357MOL0     C48075   4.088  10.638  10.573 -0.9818 -1.0410  0.5605
  357MOL0     C48076   4.220  10.652  10.648 -0.5143  0.1551 -0.0115
  357MOL0     N48077   4.208  10.584  10.777 -0.1747 -0.1222 -0.7552
  357MOL0     C48078   4.177  10.453  10.794  0.2703  0.1492 -0.1928
  357MOL0     C48079   4.163  10.441  10.928  0.0229 -0.4921 -0.3681
  357MOL0     C48080   4.114  10.308  10.980 -0.3593  0.9160  0.0781
  357MOL0     C48081   4.139  10.277  11.124  0.6411  0.8280 -0.3357
  357MOL0     C48082   4.286  10.294  11.179 -0.2533 -0.1069  1.3531
  357MOL0     C48083   4.382  10.174  11.155 -0.1699  0.1669 -0.4413
  357MOL0     O48084   4.401  10.138  11.022 -0.1780 -0.0019 -0.3661
  357MOL0     C48085   4.342  10.030  10.962 -0.5575  0.1305 -0.6100
  357MOL0     C48086   4.339  10.026  10.821  0.1814  0.7791 -0.0994
  357MOL0     C48087   4.280   9.928  10.743 -0.1292 -0.3882  0.3814
  357MOL0     C48088   4.223   9.819  10.817  0.3161  0.1876  0.4111
  357MOL0     C48089   4.156   9.708  10.740  0.4754  0.2804  0.2505
  357MOL0     O48090   4.077   9.618  10.810  0.9346 -0.5353  0.5931
  357MOL0     C48091   4.018   9.514  10.744  1.4596  0.3918  0.3734
  357MOL0     C48092   4.098   9.396  10.724 -0.5649  0.2227 -0.3691
  357MOL0     C48093   4.041   9.292  10.651  0.1435  0.4795 -0.0504
  357MOL0     C48094   3.913   9.297  10.599  1.3661 -0.2848  0.0206
  357MOL0     O48095   3.855   9.191  10.531 -0.3988  0.3905  0.4690
  357MOL0     C48096   3.930   9.076  10.479 -0.1853  0.4236  0.4854
  357MOL0     C48097   3.993   9.128  10.348 -0.7257  0.3928  0.6732
  357MOL0     C48098   3.893   9.151  10.226 -0.4439 -0.7015 -0.5263
  357MOL0     C48099   3.954   9.176  10.088  1.0304  0.6761 -0.0385
  357MOL0     C48100   4.017   9.322  10.091  0.5289  0.1841 -0.5880
  357MOL0     C48101   4.098   9.327   9.963  0.3164  0.0309  0.9489
  357MOL0     C48102   4.179   9.456   9.930  0.8220  0.2364  0.9520
  357MOL0     C48103   4.249   9.447   9.797 -0.1220 -0.4677 -1.6232
  357MOL0    Cl48104   4.349   9.586   9.747  0.0096  0.4860 -0.3048
  357MOL0     C48105   3.840   9.417  10.621 -0.7509  0.7915 -0.6350
  357MOL0     C48106   3.893   9.517  10.699  0.1722 -0.2891  0.1790
  357MOL0     O48107   4.192   9.702  10.620  0.3108  0.3131 -0.1706
  357MOL0     C48108   4.209   9.824  10.955  0.1532  0.3240  0.3770
  357MOL0     C48109   4.271   9.923  11.028  0.5558  0.7535  0.2664
  357MOL0     N48110   4.176  10.565  10.990 -0.0802  0.1604 -0.4755
  357MOL0     N48111   4.197  10.648  10.897  0.8781  0.2974  0.3877
  357MOL0     C48112   3.801  10.187   9.887 -0.7300  0.1529  0.3602
  357MOL0     C48113   3.685  10.134   9.936  0.4193 -0.3561  0.9025
  357MOL0     C48114   3.299  10.107  10.226 -1.2905 -0.1814 -0.0410
  357MOL0     C48115   3.258  10.002  10.152 -0.4752  0.0399 -0.7112
  357MOL0     C48116   3.132   9.933  10.168 -0.4223 -0.0383 -0.4673
  357MOL0     C48117   3.055   9.982  10.271 -0.0378  0.7783  0.5527
  357MOL0     O48118   2.930   9.945  10.295  1.1365 -0.2964 -0.5407
  357MOL0     C48119   2.914   9.808  10.287  0.8313  0.7413 -0.4585
  357MOL0     C48120   2.796   9.763  10.365  0.7758  0.3962 -0.1496
  357MOL0     C48121   2.667   9.800  10.293  0.2213  0.3911  0.2615
  357MOL0     C48122   2.538   9.818  10.378  0.5485 -0.2458 -0.1655
  357MOL0     C48123   2.561   9.892  10.504  0.9076 -0.7363  0.3955
  357MOL0     C48124   2.578   9.947  10.608 -0.6346 -0.8729 -0.2268
  357MOL0     C48125   3.098  10.090  10.352  0.0487  0.1937  0.0566
  357MOL0     C48126   3.220  10.148  10.334 -0.4210  0.5924 -0.1387
  357MOL0     C48127   3.241  10.259  10.427  0.1704  0.1460 -0.5864
  357MOL0     H48128   3.671  10.277  10.238  0.6601  0.9849  0.0785
  357MOL0     H48129   3.900  10.323  10.179 -0.4549  0.4177 -0.1458
  357MOL0     H48130   4.107  10.487   9.912  0.6761 -1.5108 -2.1204
  357MOL0     H48131   3.977  10.487  10.028  0.1138 -0.9748  1.3103
  357MOL0     H48132   4.253  10.353  10.019  1.3376 -0.1954  0.8836
  357MOL0     H48133   4.150  10.299  10.143  1.0589 -0.0341 -1.3742
  357MOL0     H48134   4.224  10.591  10.108  3.9683  0.0986  0.7162
  357MOL0     H48135   4.297  10.474  10.203  2.2113  2.4443 -1.8781
  357MOL0     H48136   3.997  10.572  10.242 -1.4629 -0.6447  3.1264
  357MOL0     H48137   4.104  10.478  10.356  3.3692 -0.7307 -0.1454
  357MOL0     H48138   4.263  10.656  10.365 -0.6591 -1.1386  2.2390
  357MOL0     H48139   4.161  10.755  10.252  1.0442  0.8816  0.1105
  357MOL0     H48140   4.123  10.822  10.497  1.1170 -1.6504  3.4338
  357MOL0     H48141   3.978  10.762  10.424 -0.5837  1.2558  3.1316
  357MOL0     H48142   4.046  10.539  10.552 -3.0371 -0.6608  2.5230
  357MOL0     H48143   4.013  10.685  10.637 -1.1969  0.2284 -0.5803
  357MOL0     H48144   4.297  10.607  10.584  1.1831  2.3896  0.3173
  357MOL0     H48145   4.231  10.760  10.657 -3.6792  0.5413  0.2259
  357MOL0     H48146   4.177  10.369  10.725  5.3380 -4.2581  4.1624
  357MOL0     H48147   4.009  10.320  10.953 -0.6828 -2.6248 -0.6334
  357MOL0     H48148   4.163  10.227  10.925 -0.6625 -0.2190  1.4121
  357MOL0     H48149   4.074  10.336  11.190  1.3230  2.4413 -1.0655
  357MOL0     H48150   4.098  10.176  11.139  1.0096  0.7935  0.4677
  357MOL0     H48151   4.284  10.323  11.284 -2.9175  1.1820  1.0246
  357MOL0     H48152   4.339  10.376  11.129  1.5192 -2.0961 -0.2445
  357MOL0     H48153   4.344  10.089  11.213 -3.7840 -0.0877 -2.8350
  357MOL0     H48154   4.478  10.194  11.203  0.6715  0.4382 -2.1528
  357MOL0     H48155   4.365  10.117  10.769  2.6648  0.0369 -0.2680
  357MOL0     H48156   4.272   9.941  10.636 -0.9733 -1.2631  0.3218
  357MOL0     H48157   4.204   9.397  10.749 -0.9563  1.2689  1.4260
  357MOL0     H48158   4.113   9.216  10.623 -0.6894  0.2587 -1.7522
  357MOL0     H48159   4.017   9.061  10.543 -1.4667  1.5846  2.6176
  357MOL0     H48160   3.867   8.988  10.463 -1.2471  1.7472 -4.5234
  357MOL0     H48161   4.054   9.218  10.364  1.8076 -1.0364 -0.3399
  357MOL0     H48162   4.068   9.052  10.326 -0.7883  0.6461 -0.5352
  357MOL0     H48163   3.843   9.055  10.210  0.5749 -0.8376 -3.6518
  357MOL0     H48164   3.824   9.230  10.254  1.0620  0.3389  0.4094
  357MOL0     H48165   3.884   9.169  10.004  1.6908  0.0532 -0.5421
  357MOL0     H48166   4.031   9.100  10.079 -1.2706 -1.8755  0.4290
  357MOL0     H48167   4.077   9.336  10.180 -2.0661  0.3758  1.2564
  357MOL0     H48168   3.944   9.402  10.109  2.3675  1.4552  1.6266
  357MOL0     H48169   4.173   9.248   9.963  0.7984  0.4528  2.2275
  357MOL0     H48170   4.031   9.309   9.879 -1.9135 -0.7261  2.7678
  357MOL0     H48171   4.270   9.457   9.990  0.2539 -1.5324  1.9241
  357MOL0     H48172   4.128   9.552   9.937  0.6463  0.1250  1.2091
  357MOL0     H48173   4.303   9.352   9.793  2.1396  0.7735 -2.1720
  357MOL0     H48174   4.171   9.442   9.721 -1.4739 -1.6770 -0.2258
  357MOL0     H48175   3.737   9.420  10.588 -2.5373 -0.6793  3.9066
  357MOL0     H48176   3.824   9.600  10.715 -1.0271 -1.4571  1.2975
  357MOL0     H48177   4.147   9.759  11.017  0.5284 -0.3423  0.0720
  357MOL0     H48178   4.258   9.923  11.136  2.9011  0.5522  0.5940
  357MOL0     H48179   3.822  10.178   9.781 -2.7519 -1.1490  0.0160
  357MOL0     H48180   3.619  10.080   9.869  0.8514 -0.3632  0.4703
  357MOL0     H48181   3.316   9.964  10.069  0.3796 -1.4544  0.5146
  357MOL0     H48182   3.107   9.834  10.129  0.6767 -0.5470  0.0756
  357MOL0     H48183   2.997   9.749  10.327 -0.6283 -0.6401  0.6810
  357MOL0     H48184   2.909   9.770  10.185  0.2917 -2.5442  0.6889
  357MOL0     H48185   2.798   9.828  10.453 -0.0431  0.4309 -0.1458
  357MOL0     H48186   2.796   9.657  10.392 -1.8307  0.4103  0.1940
  357MOL0     H48187   2.644   9.745  10.201  0.2960  2.9237 -1.3785
  357MOL0     H48188   2.672   9.897  10.241  0.1174  0.3013  0.0835
  357MOL0     H48189   2.469   9.876  10.316 -0.4506  1.6130  2.5217
  357MOL0     H48190   2.495   9.719  10.398  3.5353 -1.4423  0.8850
  357MOL0     H48191   2.576  10.003  10.699 -0.0211 -2.6098  0.9138
  357MOL0     H48192   3.020  10.130  10.416 -0.2936 -2.1374  1.1896
  357MOL0     H48193   3.347  10.260  10.452  0.0433  2.4583  0.0257
  357MOL0     H48194   3.224  10.352  10.372 -0.7611  0.9663  1.0265
  357MOL0     H48195   3.180  10.261  10.517  1.0293 -3.5452  0.2752
  358MOL0     O48196   6.609  10.208   3.613 -0.5663  0.5124 -0.3399
  358MOL0     C48197   6.704  10.149   3.557 -1.4034 -0.4574  0.1693
  358MOL0     O48198   6.815  10.091   3.626  0.1940 -0.8443 -0.7217
  358MOL0     C48199   6.808  10.030   3.746 -1.1032 -0.2940  0.8051
  358MOL0     C48200   6.873  10.078   3.859 -0.0510  0.1481  0.3782
  358MOL0     C48201   6.876  10.002   3.970 -0.6620  0.0198 -0.5590
  358MOL0     C48202   6.832   9.874   3.981  0.1332 -0.9192  0.9522
  358MOL0     O48203   6.855   9.816   4.101 -0.2017 -0.2462 -0.2748
  358MOL0     C48204   6.761   9.729   4.155 -0.4808 -1.1471  0.1456
  358MOL0     C48205   6.831   9.644   4.259  0.3736  0.9671 -0.2508
  358MOL0     C48206   6.869   9.732   4.377 -0.8886 -0.7681 -1.0795
  358MOL0     C48207   6.964   9.657   4.481  0.0742  0.3262  0.8190
  358MOL0     C48208   6.927   9.703   4.633 -0.3320 -0.0040  0.2381
  358MOL0     C48209   6.806   9.621   4.679  0.3034 -0.3022 -0.4725
  358MOL0     C48210   6.741   9.664   4.814  0.1970  0.8855 -0.2163
  358MOL0     C48211   6.835   9.623   4.929  0.7965 -0.3283  0.1499
  358MOL0     N48212   6.776   9.507   4.997  0.0358  0.8881 -0.2348
  358MOL0     C48213   6.665   9.503   5.080 -0.1488  0.2880 -0.6677
  358MOL0     C48214   6.653   9.369   5.107  0.5369  0.3838  0.0977
  358MOL0     C48215   6.536   9.311   5.195 -1.1471 -0.0334  0.3847
  358MOL0     C48216   6.583   9.259   5.330 -0.7370  0.4113  0.8733
  358MOL0     C48217   6.474   9.280   5.436 -0.5030 -0.0082  0.2375
  358MOL0     C48218   6.514   9.229   5.575  0.6234 -0.1825 -0.4408
  358MOL0     O48219   6.582   9.110   5.560  1.0196 -0.1318 -0.6479
  358MOL0     C48220   6.642   9.049   5.667 -0.1588  1.1348 -0.2508
  358MOL0     C48221   6.706   8.926   5.645  0.0563  0.1551  0.2930
  358MOL0     C48222   6.775   8.854   5.745 -1.2019 -0.0666 -0.6951
  358MOL0     C48223   6.776   8.909   5.877 -0.9377 -1.3998 -0.8377
  358MOL0     C48224   6.841   8.844   5.986 -0.2065  0.0730  0.4743
  358MOL0     O48225   6.857   8.705   5.975 -0.2729  0.5802 -0.3244
  358MOL0     C48226   6.853   8.623   6.089 -0.5738  0.1865 -0.4714
  358MOL0     C48227   6.848   8.667   6.221 -0.7239  0.4738 -0.6804
  358MOL0     C48228   6.842   8.576   6.330  0.6994 -0.3515  0.7094
  358MOL0     C48229   6.833   8.436   6.298  0.6085  0.1094  0.1500
  358MOL0     O48230   6.819   8.337   6.395 -1.0220  0.5332  0.0237
  358MOL0     C48231   6.849   8.378   6.528  0.1312 -0.5280 -0.0725
  358MOL0     C48232   6.839   8.269   6.629  0.1244  0.5580  0.1878
  358MOL0     C48233   6.874   8.317   6.770 -0.4482  0.4947  0.2962
  358MOL0     C48234   6.892   8.186   6.856 -1.0896 -1.3008 -0.3831
  358MOL0     C48235   6.766   8.094   6.843  0.3531  1.1832 -0.1095
  358MOL0     C48236   6.749   7.992   6.957 -0.1953 -0.8578 -0.1985
  358MOL0     C48237   6.616   7.914   6.935  0.0696 -0.6585 -0.2965
  358MOL0     C48238   6.486   7.987   6.909  0.6151  0.3708 -0.2329
  358MOL0    Cl48239   6.390   7.868   6.824 -0.3175 -0.3853 -0.0309
  358MOL0     C48240   6.851   8.392   6.162  0.8294 -0.6334  0.3939
  358MOL0     C48241   6.861   8.489   6.056 -0.0693  0.5088 -0.4540
  358MOL0     O48242   6.871   8.910   6.080 -0.2660 -0.2860 -0.7395
  358MOL0     C48243   6.695   9.025   5.899  1.4541  0.0049 -0.2568
  358MOL0     C48244   6.634   9.096   5.798  0.0441  0.7406  0.0678
  358MOL0     N48245   6.762   9.305   5.055  0.1498 -0.2383 -0.0563
  358MOL0     N48246   6.844   9.385   5.003  0.0754 -0.2507  0.0891
  358MOL0     C48247   6.750   9.827   3.865  0.7027  0.2205  0.3128
  358MOL0     C48248   6.734   9.905   3.750  0.2879 -0.1096 -0.9076
  358MOL0     C48249   6.698  10.155   3.409  0.7888  0.7323 -0.1848
  358MOL0     C48250   6.634  10.273   3.355 -0.8295  0.2740 -0.2719
  358MOL0     C48251   6.610  10.291   3.217 -0.7469 -0.1253 -0.1569
  358MOL0     C48252   6.653  10.195   3.138 -0.7907  0.0258 -0.9898
  358MOL0     O48253   6.638  10.194   3.001  0.1490 -0.5895  0.0177
  358MOL0     C48254   6.677  10.315   2.931  0.5340 -0.1046  0.1035
  358MOL0     C48255   6.707  10.294   2.784 -0.3094 -0.6380  0.2844
  358MOL0     C48256   6.717  10.430   2.720  0.6795 -0.8711 -0.4840
  358MOL0     C48257   6.771  10.413   2.572 -0.6626 -0.1443 -0.2736
  358MOL0     C48258   6.666  10.391   2.469  0.1640 -0.1924  0.2637
  358MOL0     C48259   6.584  10.383   2.381 -0.6977 -0.1966 -0.6146
  358MOL0     C48260   6.724  10.076   3.187  0.7124  0.2650  0.9382
  358MOL0     C48261   6.747  10.060   3.321  0.3893  0.9794 -0.4482
  358MOL0     C48262   6.809   9.933   3.376  0.2951 -0.1622  0.8484
  358MOL0     H48263   6.924  10.174   3.856  0.0496  0.0935 -2.4080
  358MOL0     H48264   6.939  10.031   4.054  5.3225 -3.4018 -3.2178
  358MOL0     H48265   6.690   9.785   4.217 -3.3828 -3.5747 -0.8210
  358MOL0     H48266   6.719   9.659   4.083  0.3548 -1.1834 -0.3211
  358MOL0     H48267   6.930   9.611   4.227 -0.3940  0.5341 -2.3109
  358MOL0     H48268   6.773   9.561   4.299  0.4815  1.7300  1.6014
  358MOL0     H48269   6.776   9.759   4.427 -0.0558  0.6321 -0.2445
  358MOL0     H48270   6.918   9.826   4.353 -1.4971  0.5396  2.3079
  358MOL0     H48271   6.947   9.549   4.477 -4.1028  0.8468  0.1349
  358MOL0     H48272   7.072   9.670   4.470  0.4236 -0.4915  2.8664
  358MOL0     H48273   7.012   9.676   4.696  0.6114  2.9005  0.3504
  358MOL0     H48274   6.914   9.811   4.641  0.4132  0.0396  0.9621
  358MOL0     H48275   6.717   9.633   4.616 -0.9513 -0.0076  1.2628
  358MOL0     H48276   6.823   9.514   4.692  1.5030 -0.1912 -1.0661
  358MOL0     H48277   6.639   9.629   4.828  0.2174  1.7199  2.9339
  358MOL0     H48278   6.738   9.773   4.819 -1.7354  0.8258  2.3438
  358MOL0     H48279   6.938   9.607   4.893 -0.4844  1.8734 -5.4412
  358MOL0     H48280   6.851   9.708   4.995  1.5698 -1.8983  2.1170
  358MOL0     H48281   6.591   9.582   5.091 -2.2412 -1.5180 -1.1668
  358MOL0     H48282   6.460   9.387   5.214 -1.5229 -0.1254 -0.7107
  358MOL0     H48283   6.481   9.229   5.146  2.2630 -1.0477 -2.0926
  358MOL0     H48284   6.588   9.150   5.319 -0.2422  0.2493  2.5428
  358MOL0     H48285   6.678   9.303   5.361 -0.6659 -1.8863  4.3720
  358MOL0     H48286   6.391   9.225   5.390  0.5493 -0.1793 -1.5473
  358MOL0     H48287   6.449   9.386   5.450  0.2017  0.3311 -0.9265
  358MOL0     H48288   6.417   9.221   5.624 -0.4118 -6.1134 -2.5663
  358MOL0     H48289   6.580   9.291   5.636  2.0599 -3.3614  1.4723
  358MOL0     H48290   6.707   8.886   5.545  2.0760  0.9117 -0.0573
  358MOL0     H48291   6.830   8.766   5.713 -2.1522 -0.2923 -1.8186
  358MOL0     H48292   6.846   8.770   6.255 -1.1066  0.3558 -0.3455
  358MOL0     H48293   6.838   8.626   6.427 -0.2684  1.2167 -0.0904
  358MOL0     H48294   6.945   8.428   6.543  0.3583 -1.2265  0.9056
  358MOL0     H48295   6.764   8.445   6.545  0.2403 -0.7451  1.4665
  358MOL0     H48296   6.733   8.245   6.621  0.2852  0.4967 -4.4517
  358MOL0     H48297   6.894   8.176   6.611 -2.2042 -0.7589 -0.4634
  358MOL0     H48298   6.965   8.377   6.762  1.3523 -2.0963 -0.1048
  358MOL0     H48299   6.786   8.372   6.804 -1.9714 -0.3715 -2.0069
  358MOL0     H48300   6.891   8.215   6.961 -1.3082 -2.0135 -0.1817
  358MOL0     H48301   6.974   8.121   6.824  0.6318  0.2459  0.7229
  358MOL0     H48302   6.765   8.045   6.745  0.8964  2.3121 -0.7008
  358MOL0     H48303   6.675   8.155   6.838 -0.4822  0.8644  5.3025
  358MOL0     H48304   6.837   7.928   6.947 -1.3100 -2.8639  1.7919
  358MOL0     H48305   6.751   8.043   7.053 -1.8441  1.5792 -1.3504
  358MOL0     H48306   6.612   7.852   7.025  1.1382 -0.6884 -0.2563
  358MOL0     H48307   6.623   7.848   6.848 -3.7668 -1.4076 -0.2268
  358MOL0     H48308   6.438   8.000   7.006  1.0313 -2.4805  0.4482
  358MOL0     H48309   6.482   8.078   6.848 -1.3456  0.7010  0.3397
  358MOL0     H48310   6.850   8.288   6.130  1.2812 -0.5790  0.2010
  358MOL0     H48311   6.879   8.451   5.956  4.2629 -2.5962  1.1890
  358MOL0     H48312   6.690   9.058   6.002  3.1862 -3.8380  1.2395
  358MOL0     H48313   6.569   9.179   5.822 -1.2115 -0.5865  1.5049
  358MOL0     H48314   6.699   9.733   3.877 -0.0534  0.5462 -0.2489
  358MOL0     H48315   6.677   9.864   3.668  2.3166  0.3715 -2.6460
  358MOL0     H48316   6.594  10.349   3.421 -2.2144  0.4593 -1.2783
  358MOL0     H48317   6.574  10.390   3.192 -1.4226  0.4456  2.6355
  358MOL0     H48318   6.767  10.349   2.983 -1.4856  0.0060  3.9123
  358MOL0     H48319   6.604  10.397   2.941  1.6436  1.1261 -1.4123
  358MOL0     H48320   6.636  10.235   2.726 -1.0088  1.2326 -0.8202
  358MOL0     H48321   6.807  10.250   2.789  0.7019  1.5104 -0.0117
  358MOL0     H48322   6.778  10.501   2.777  0.8248  0.0851 -1.7659
  358MOL0     H48323   6.620  10.480   2.714  0.4787 -1.4232 -2.4463
  358MOL0     H48324   6.834  10.499   2.544 -0.5772  0.5444  1.8770
  358MOL0     H48325   6.847  10.334   2.577  2.4042  2.4992 -1.2434
  358MOL0     H48326   6.519  10.370   2.297 -1.8313  1.4094 -0.0577
  358MOL0     H48327   6.743  10.002   3.110 -1.6395  0.1776  0.3428
  358MOL0     H48328   6.916   9.942   3.394  1.4726  2.7023 -5.0830
  358MOL0     H48329   6.764   9.894   3.467 -2.0418 -1.7784 -0.8497
  358MOL0     H48330   6.794   9.855   3.301  0.5989 -1.0549  1.6974
  359MOL0     O48331   5.159  11.182   9.067  0.8103  0.1203  0.0642
  359MOL0     C48332   5.075  11.142   9.144  1.2640 -0.5869  0.2691
  359MOL0     O48333   5.082  11.137   9.282  1.4638  1.3092  0.1870
  359MOL0     C48334   5.188  11.182   9.343 -0.2412  0.9833  0.3031
  359MOL0     C48335   5.323  11.122   9.332 -0.4047 -0.4642 -0.6438
  359MOL0     C48336   5.429  11.166   9.410  0.2120  0.5649 -0.0530
  359MOL0     C48337   5.410  11.274   9.500  0.9147  0.5387  0.9205
  359MOL0     O48338   5.526  11.299   9.578 -0.1277 -0.0191 -0.0989
  359MOL0     C48339   5.514  11.413   9.663  0.5249 -0.1068  0.4476
  359MOL0     C48340   5.636  11.415   9.761 -0.4185 -1.1367  0.0256
  359MOL0     C48341   5.765  11.419   9.681  0.7627 -0.9995  0.5553
  359MOL0     C48342   5.854  11.541   9.702 -0.4385 -0.5850 -1.3937
  359MOL0     C48343   5.786  11.668   9.661 -0.1948 -0.2229 -0.4712
  359MOL0     C48344   5.773  11.708   9.514 -0.5612 -0.0347 -0.0736
  359MOL0     C48345   5.694  11.844   9.501 -0.5558 -0.1625 -0.3102
  359MOL0     C48346   5.605  11.853   9.364  0.0113 -0.4905 -0.2414
  359MOL0     N48347   5.697  11.838   9.249 -0.4131 -0.0212 -0.0536
  359MOL0     C48348   5.682  11.782   9.124  0.2814 -0.2446  0.0148
  359MOL0     C48349   5.784  11.822   9.041  0.0603 -0.3052 -0.8862
  359MOL0     C48350   5.792  11.798   8.894  0.0604  0.0525 -0.3623
  359MOL0     C48351   5.921  11.853   8.836  0.5266 -0.7376 -0.6476
  359MOL0     C48352   5.911  11.852   8.689 -0.7069  0.1575 -0.6647
  359MOL0     C48353   6.044  11.815   8.627 -0.9746 -0.8885  0.0509
  359MOL0     O48354   6.032  11.852   8.489 -0.4217 -0.7503 -0.4763
  359MOL0     C48355   6.148  11.865   8.411 -0.2777  0.4417 -0.0437
  359MOL0     C48356   6.131  11.863   8.273  1.1379  0.4065  0.1106
  359MOL0     C48357   6.240  11.876   8.183 -0.5017 -1.0289 -0.6026
  359MOL0     C48358   6.369  11.903   8.234 -0.0126 -0.0905  0.8303
  359MOL0     C48359   6.484  11.918   8.132 -0.0107  0.2373 -0.1227
  359MOL0     O48360   6.602  11.953   8.195  0.4736 -0.6825  0.0591
  359MOL0     C48361   6.711  11.968   8.114  0.2431  0.3112  0.8014
  359MOL0     C48362   6.793  11.866   8.079  0.2081 -0.2210 -0.3404
  359MOL0     C48363   6.907  11.871   8.002 -0.7095  0.0149  0.2661
  359MOL0     C48364   6.944  11.995   7.950  0.6977  0.1138 -0.5700
  359MOL0     O48365   7.054  12.023   7.879 -0.2734  0.0637 -0.5512
  359MOL0     C48366   7.175  11.950   7.902 -0.2096 -0.7673 -0.1522
  359MOL0     C48367   7.249  11.930   7.772 -0.2036 -0.0184 -0.8384
  359MOL0     C48368   7.190  11.800   7.707  0.1142 -1.2419  0.1542
  359MOL0     C48369   7.266  11.777   7.568  0.2122  0.3382 -1.0040
  359MOL0     C48370   7.185  11.672   7.487  0.1127  0.0381  0.4113
  359MOL0     C48371   7.275  11.599   7.392  1.0500  0.4909  0.1688
  359MOL0     C48372   7.208  11.478   7.333 -0.2567  0.5457  1.4664
  359MOL0     C48373   7.093  11.503   7.236  0.8334  0.2667  0.1896
  359MOL0    Cl48374   7.150  11.593   7.096 -0.0688 -0.0328  0.0779
  359MOL0     C48375   6.859  12.104   7.970 -0.8574 -1.0931 -0.2818
  359MOL0     C48376   6.742  12.093   8.056  0.6149 -0.4196  0.5248
  359MOL0     O48377   6.465  11.893   8.012  1.2188  0.3380 -0.2148
  359MOL0     C48378   6.385  11.921   8.370  1.3229  0.7137 -0.5098
  359MOL0     C48379   6.278  11.891   8.457 -0.0770  0.1202  0.2438
  359MOL0     N48380   5.871  11.914   9.114 -0.1751 -1.1769 -0.2863
  359MOL0     N48381   5.816  11.908   9.236  0.0979 -0.3121  0.3451
  359MOL0     C48382   5.283  11.326   9.511  0.4083  0.0302  0.3867
  359MOL0     C48383   5.174  11.287   9.435  1.1485  0.7047  0.0294
  359MOL0     C48384   4.948  11.081   9.094  0.5176 -0.0856  1.0154
  359MOL0     C48385   4.838  11.061   9.181 -0.1248 -0.0236 -0.2040
  359MOL0     C48386   4.710  11.008   9.143  0.6239  1.0177  0.3878
  359MOL0     C48387   4.674  10.993   9.006 -0.1912 -0.3615  0.0120
  359MOL0     O48388   4.554  10.955   8.949  0.5444  0.3417 -0.5568
  359MOL0     C48389   4.441  10.974   9.042 -0.4245  0.1177 -0.1778
  359MOL0     C48390   4.319  10.932   8.968 -0.5985 -0.1601  0.8853
  359MOL0     C48391   4.188  10.961   9.035 -0.8550 -0.5134  0.4790
  359MOL0     C48392   4.067  10.930   8.952  0.0942  0.2584  0.5915
  359MOL0     C48393   4.071  11.010   8.826 -0.3468 -1.0317  0.0638
  359MOL0     C48394   4.065  11.091   8.738  0.3584 -0.3166 -0.2826
  359MOL0     C48395   4.782  11.014   8.923  0.2010  0.3895  0.0571
  359MOL0     C48396   4.917  11.051   8.960  0.4105 -0.0757 -0.5343
  359MOL0     C48397   5.014  11.063   8.843 -0.1367 -0.5752 -0.5443
  359MOL0     H48398   5.336  11.042   9.260 -0.5981 -1.5971  0.5470
  359MOL0     H48399   5.523  11.114   9.394  1.4629  1.6855  2.9527
  359MOL0     H48400   5.507  11.502   9.601  1.4986  0.8776  1.6958
  359MOL0     H48401   5.431  11.405   9.734  0.5699  1.1497  0.6605
  359MOL0     H48402   5.642  11.328   9.827 -0.2503  0.9688  2.9625
  359MOL0     H48403   5.616  11.495   9.833 -4.9133 -3.4468  1.7398
  359MOL0     H48404   5.735  11.420   9.575  0.1880  3.9427  0.5254
  359MOL0     H48405   5.827  11.330   9.697  0.5190 -1.4170 -0.6907
  359MOL0     H48406   5.880  11.542   9.808 -3.8832  2.8750 -0.3327
  359MOL0     H48407   5.944  11.532   9.640 -0.8548 -0.3543 -2.0489
  359MOL0     H48408   5.693  11.688   9.716 -0.4167 -2.2480 -0.0393
  359MOL0     H48409   5.857  11.745   9.696 -0.0624 -0.3879 -0.3754
  359MOL0     H48410   5.864  11.707   9.454 -1.6750 -1.1441 -1.8357
  359MOL0     H48411   5.724  11.628   9.459  0.5642 -0.5905 -0.2931
  359MOL0     H48412   5.754  11.934   9.522  0.1419 -1.1386  2.3097
  359MOL0     H48413   5.620  11.857   9.581  0.1658  3.4891 -0.0578
  359MOL0     H48414   5.532  11.772   9.371 -3.8344  2.7455  1.9505
  359MOL0     H48415   5.552  11.949   9.371 -0.7361 -0.8819 -0.5140
  359MOL0     H48416   5.600  11.718   9.094  0.5932  0.0073 -1.4149
  359MOL0     H48417   5.775  11.690   8.885 -0.4798  0.1308 -0.3105
  359MOL0     H48418   5.708  11.859   8.859  0.2403  0.7100  0.3207
  359MOL0     H48419   5.946  11.957   8.857  1.5256 -0.3734 -3.2853
  359MOL0     H48420   5.999  11.794   8.886 -1.6133 -0.0763  4.0694
  359MOL0     H48421   5.884  11.954   8.659 -2.9885 -0.1387  0.1660
  359MOL0     H48422   5.832  11.786   8.654 -2.1690 -0.1307  2.7787
  359MOL0     H48423   6.076  11.710   8.631  0.7124 -0.5026 -1.6531
  359MOL0     H48424   6.128  11.872   8.667 -1.5653 -0.1792  0.2878
  359MOL0     H48425   6.032  11.854   8.229  0.7127  0.2309  1.0618
  359MOL0     H48426   6.219  11.884   8.077 -0.1980  0.5821 -0.5663
  359MOL0     H48427   6.747  11.771   8.108 -1.6730  0.2433 -1.6095
  359MOL0     H48428   6.953  11.774   7.981  4.3083  2.1829 -0.1926
  359MOL0     H48429   7.238  12.008   7.969 -1.2659 -1.9945  2.0305
  359MOL0     H48430   7.161  11.848   7.940  3.0261 -1.3899 -0.3551
  359MOL0     H48431   7.244  12.019   7.709 -1.3250 -0.7338 -1.7894
  359MOL0     H48432   7.353  11.907   7.797 -0.4112 -1.4506 -1.1842
  359MOL0     H48433   7.208  11.714   7.772 -1.8846 -0.1448  2.3061
  359MOL0     H48434   7.085  11.811   7.681 -1.5960 -0.9146  5.8860
  359MOL0     H48435   7.369  11.749   7.593  0.0702  2.0971  1.9537
  359MOL0     H48436   7.278  11.869   7.509  1.1268  0.7416 -0.2157
  359MOL0     H48437   7.104  11.713   7.426  1.5159 -0.9644 -2.3318
  359MOL0     H48438   7.132  11.607   7.557 -0.3168 -0.3316 -0.2434
  359MOL0     H48439   7.308  11.672   7.317 -0.1029  1.8942  0.9789
  359MOL0     H48440   7.368  11.560   7.434  0.3140 -1.1979  0.2976
  359MOL0     H48441   7.174  11.414   7.415  0.2424 -0.6766  0.7430
  359MOL0     H48442   7.284  11.420   7.279  1.4901  2.2079  2.0209
  359MOL0     H48443   7.057  11.408   7.197 -1.9997  1.0101  0.7196
  359MOL0     H48444   7.012  11.558   7.286  0.4372 -1.5782  1.6746
  359MOL0     H48445   6.877  12.207   7.939 -1.4290 -1.1278 -0.7390
  359MOL0     H48446   6.672  12.174   8.072  1.7055  0.7725 -0.5041
  359MOL0     H48447   6.484  11.951   8.405  2.2900  1.4061 -3.4938
  359MOL0     H48448   6.294  11.882   8.563  0.7075 -2.4858 -0.0342
  359MOL0     H48449   5.278  11.415   9.573  0.8098 -0.0122  0.4839
  359MOL0     H48450   5.074  11.330   9.439  1.0541  0.6814 -1.4787
  359MOL0     H48451   4.855  11.088   9.284 -1.1970 -1.8518  0.5116
  359MOL0     H48452   4.636  10.998   9.222  1.5316  0.8950  1.2418
  359MOL0     H48453   4.438  11.080   9.067  0.2892 -0.1503  1.1167
  359MOL0     H48454   4.443  10.906   9.127  0.0342 -0.4021 -0.5913
  359MOL0     H48455   4.313  10.824   8.956  0.1173  0.0020 -1.5432
  359MOL0     H48456   4.326  10.973   8.866 -1.3865 -0.8414  0.5581
  359MOL0     H48457   4.190  11.067   9.061  3.8385 -0.5571  1.2212
  359MOL0     H48458   4.194  10.906   9.129 -0.1822  1.7814  1.8376
  359MOL0     H48459   4.057  10.822   8.941  1.5806  0.0985  0.5335
  359MOL0     H48460   3.978  10.957   9.010 -0.9662  0.4120 -1.0581
  359MOL0     H48461   4.070  11.149   8.648 -0.5262 -1.1127 -0.8644
  359MOL0     H48462   4.766  11.010   8.816 -0.2575  1.8154  0.0447
  359MOL0     H48463   5.112  11.028   8.874  1.3633  3.1336 -0.6070
  359MOL0     H48464   4.982  11.006   8.755 -1.7410  2.3074 -1.9866
  359MOL0     H48465   5.028  11.166   8.807 -2.5256  0.0460  0.1106
  360MOL0     O48466   8.537   8.489   5.130  0.6130 -0.8745 -0.2454
  360MOL0     C48467   8.450   8.571   5.158  0.4953 -0.5831 -0.8875
  360MOL0     O48468   8.440   8.631   5.285 -0.2555  0.4618 -0.2890
  360MOL0     C48469   8.505   8.578   5.396 -0.1904  0.3734 -0.8764
  360MOL0     C48470   8.642   8.552   5.408 -0.2270 -0.6846 -0.2858
  360MOL0     C48471   8.691   8.493   5.527  0.1555 -0.2257  0.1681
  360MOL0     C48472   8.600   8.475   5.638 -0.2126 -0.1294 -0.1068
  360MOL0     O48473   8.642   8.416   5.754  0.4530  0.6241 -0.3980
  360MOL0     C48474   8.773   8.445   5.793 -0.6467  0.6508 -0.1866
  360MOL0     C48475   8.796   8.426   5.943  0.5567  0.3522  0.8463
  360MOL0     C48476   8.928   8.494   5.989 -0.8213  0.1179  0.3139
  360MOL0     C48477   8.952   8.474   6.138 -0.0765 -0.0101  0.1950
  360MOL0     C48478   9.098   8.498   6.181 -0.6694  0.4598  0.2002
  360MOL0     C48479   9.143   8.646   6.171 -0.2253 -0.2423  0.4773
  360MOL0     C48480   9.091   8.740   6.287  0.3630  0.4924 -0.2623
  360MOL0     C48481   9.121   8.878   6.242  1.8321 -0.2591  0.1536
  360MOL0     N48482   9.259   8.914   6.247 -0.4726  0.0615  0.0812
  360MOL0     C48483   9.329   8.934   6.361  0.3788 -0.7454 -0.2122
  360MOL0     C48484   9.461   8.940   6.327  0.7254  0.6218  0.3244
  360MOL0     C48485   9.586   8.952   6.418 -0.0967  1.0531  0.1227
  360MOL0     C48486   9.642   9.099   6.395 -0.2966  0.1546 -0.3051
  360MOL0     C48487   9.761   9.126   6.486  0.9195  0.0644 -0.2228
  360MOL0     C48488   9.796   9.278   6.466 -0.2341 -0.8940  0.3592
  360MOL0     O48489   9.813   9.321   6.331 -0.2516 -0.0243  0.5355
  360MOL0     C48490   9.890   9.433   6.293 -0.5804  0.6246 -0.3122
  360MOL0     C48491   9.952   9.523   6.381  0.9916  0.2640  0.2120
  360MOL0     C48492  10.038   9.626   6.334 -0.4394 -0.5761  0.8051
  360MOL0     C48493  10.044   9.664   6.206 -0.0218 -0.2957  0.5602
  360MOL0     C48494  10.128   9.774   6.148  0.5642  0.2876  0.1293
  360MOL0     O48495  10.120   9.779   6.011  0.4565 -0.9197 -0.2372
  360MOL0     C48496  10.183   9.889   5.948  0.4086  0.9490 -0.0714
  360MOL0     C48497  10.148  10.022   5.970  0.1122  0.7380 -0.1539
  360MOL0     C48498  10.211  10.127   5.906  0.1225 -0.1614  0.6834
  360MOL0     C48499  10.311  10.098   5.808 -0.2622 -0.7005  0.3941
  360MOL0     O48500  10.367  10.198   5.738 -0.3624  0.0130  1.3373
  360MOL0     C48501  10.367  10.192   5.587  0.1863 -0.6646  0.0604
  360MOL0     C48502  10.330  10.331   5.525  0.4439 -0.4554  0.1639
  360MOL0     C48503  10.181  10.359   5.523 -0.4187 -0.6390  0.4391
  360MOL0     C48504  10.171  10.503   5.464  0.3598  0.2241 -0.3079
  360MOL0     C48505  10.025  10.543   5.471 -0.1809  0.8374  0.0496
  360MOL0     C48506  10.008  10.689   5.436 -0.2780 -0.5824 -0.2891
  360MOL0     C48507   9.863  10.738   5.458 -0.3215 -0.3776 -0.4833
  360MOL0     C48508   9.864  10.889   5.472 -0.0138  0.1092  0.2102
  360MOL0    Cl48509   9.698  10.949   5.501  0.4075 -0.3809 -0.2711
  360MOL0     C48510  10.358   9.965   5.782 -0.2027 -0.4141  0.1256
  360MOL0     C48511  10.278   9.862   5.849 -0.6807 -1.2801  0.1315
  360MOL0     O48512  10.199   9.853   6.219  0.1224 -0.3372 -0.0168
  360MOL0     C48513   9.969   9.575   6.118  0.9754  0.5932 -0.1682
  360MOL0     C48514   9.905   9.456   6.152  1.0101  0.1198  1.0302
  360MOL0     N48515   9.460   8.938   6.189 -0.1150  0.2943  0.1539
  360MOL0     N48516   9.338   8.904   6.143 -0.8074  0.5745 -0.5772
  360MOL0     C48517   8.463   8.516   5.621 -0.2007 -0.2943  0.2564
  360MOL0     C48518   8.424   8.571   5.503  0.1129 -0.3518  0.3905
  360MOL0     C48519   8.338   8.590   5.067  0.6773  0.5587  0.2860
  360MOL0     C48520   8.246   8.695   5.099  0.2208 -0.3310 -0.2905
  360MOL0     C48521   8.149   8.737   5.001 -0.1065 -0.2982  0.3293
  360MOL0     C48522   8.134   8.681   4.878 -1.0808  1.0565 -0.1255
  360MOL0     O48523   8.045   8.711   4.787  0.9375 -0.5583  0.0545
  360MOL0     C48524   7.992   8.842   4.783 -0.3044 -0.1071 -0.0173
  360MOL0     C48525   8.084   8.962   4.760  0.2332 -0.9937 -0.1403
  360MOL0     C48526   8.006   9.091   4.752 -0.6078 -1.1351 -0.1107
  360MOL0     C48527   7.984   9.153   4.891 -0.8388  0.2109 -0.7783
  360MOL0     C48528   8.103   9.228   4.937  0.8008 -0.4460  0.6930
  360MOL0     C48529   8.217   9.261   4.965 -0.2558  0.0762  0.5085
  360MOL0     C48530   8.211   8.565   4.862 -0.4572  0.4216  0.6249
  360MOL0     C48531   8.314   8.519   4.943 -0.1007 -0.0737  0.6730
  360MOL0     C48532   8.404   8.402   4.895  1.0214 -0.6356 -0.4485
  360MOL0     H48533   8.711   8.563   5.325 -2.9133 -1.2627 -2.7328
  360MOL0     H48534   8.797   8.472   5.529  0.5555  0.8810 -2.9842
  360MOL0     H48535   8.850   8.388   5.740 -1.9704 -1.6476  0.2171
  360MOL0     H48536   8.783   8.553   5.780 -2.5029  0.9253  0.3786
  360MOL0     H48537   8.795   8.319   5.962  0.2633 -0.0164 -1.0159
  360MOL0     H48538   8.717   8.471   6.003  0.5172  1.2131  0.1744
  360MOL0     H48539   8.928   8.601   5.967  2.7541  0.9648  3.5352
  360MOL0     H48540   9.005   8.460   5.919 -2.6366  1.3923 -2.4897
  360MOL0     H48541   8.892   8.544   6.196  1.0153  2.3340 -1.3747
  360MOL0     H48542   8.927   8.371   6.166 -0.4214  0.0542  0.1294
  360MOL0     H48543   9.109   8.455   6.281 -0.4140 -2.0647 -0.8222
  360MOL0     H48544   9.161   8.437   6.115 -0.1097  0.0050  1.1239
  360MOL0     H48545   9.252   8.644   6.180 -0.3243 -0.1867  1.9382
  360MOL0     H48546   9.105   8.677   6.073  0.4027  3.7243  1.3237
  360MOL0     H48547   9.154   8.711   6.371  2.1277  1.1016 -1.3053
  360MOL0     H48548   8.984   8.732   6.308  0.6528  0.3576  1.2779
  360MOL0     H48549   9.068   8.897   6.148  1.7811 -0.9181  0.0404
  360MOL0     H48550   9.070   8.936   6.319 -0.9413 -2.5096  0.1708
  360MOL0     H48551   9.285   8.944   6.459  0.2432  0.7486 -0.3994
  360MOL0     H48552   9.562   8.944   6.524 -0.5661 -1.4762 -0.1043
  360MOL0     H48553   9.667   8.883   6.392  1.2129  1.6993  2.2698
  360MOL0     H48554   9.692   9.090   6.298  3.0706 -2.4700  1.4385
  360MOL0     H48555   9.564   9.175   6.400  2.9847  3.7437  3.3653
  360MOL0     H48556   9.845   9.066   6.451  0.7196 -1.0705  1.1649
  360MOL0     H48557   9.741   9.106   6.592 -1.5950 -0.3554 -0.6985
  360MOL0     H48558   9.893   9.288   6.516 -0.8703 -0.0745  1.4762
  360MOL0     H48559   9.724   9.342   6.517  0.5186  0.3188 -0.0768
  360MOL0     H48560   9.937   9.504   6.487 -3.4954 -0.5674 -0.3501
  360MOL0     H48561  10.104   9.678   6.402  1.2050 -0.5147 -0.7357
  360MOL0     H48562  10.080  10.040   6.053  1.7273  0.0137  1.3952
  360MOL0     H48563  10.193  10.233   5.922  1.0076  0.5584 -2.4139
  360MOL0     H48564  10.465  10.161   5.551  0.2394 -3.3938  2.2728
  360MOL0     H48565  10.293  10.121   5.549  4.2566 -4.3806 -1.7799
  360MOL0     H48566  10.381  10.409   5.583 -0.7012  1.7080 -1.5964
  360MOL0     H48567  10.369  10.340   5.423  3.9799  0.0957  1.4448
  360MOL0     H48568  10.122  10.276   5.482  0.5133 -1.0537 -0.1194
  360MOL0     H48569  10.148  10.368   5.626  0.1673  2.4202  0.4360
  360MOL0     H48570  10.203  10.503   5.360  1.0639  0.0694 -0.0944
  360MOL0     H48571  10.218  10.578   5.529 -0.8192  0.4989  0.2655
  360MOL0     H48572   9.995  10.528   5.575  2.7471 -0.6936  0.7948
  360MOL0     H48573   9.970  10.469   5.411  1.4240 -0.3114 -0.0928
  360MOL0     H48574  10.069  10.749   5.505  3.3421 -2.5985 -1.4945
  360MOL0     H48575  10.053  10.704   5.338 -0.0491  1.6856  0.1108
  360MOL0     H48576   9.838  10.693   5.554  1.6105  0.1717  0.3265
  360MOL0     H48577   9.798  10.708   5.375  1.7648 -0.2047 -2.2819
  360MOL0     H48578   9.936  10.922   5.548  1.0443 -0.0803 -0.6893
  360MOL0     H48579   9.898  10.933   5.379  0.9627  1.5555  1.2073
  360MOL0     H48580  10.429   9.955   5.700  2.6284  5.4941  1.3313
  360MOL0     H48581  10.296   9.757   5.826 -0.3705 -1.0517 -0.7111
  360MOL0     H48582   9.972   9.598   6.012 -2.1345 -0.0577 -0.4990
  360MOL0     H48583   9.848   9.387   6.090  2.8000 -1.7672  1.3397
  360MOL0     H48584   8.388   8.520   5.700 -3.1546 -2.1384 -2.2475
  360MOL0     H48585   8.320   8.597   5.489  0.8770  2.1121 -1.4181
  360MOL0     H48586   8.243   8.735   5.200 -0.4133 -0.1157 -0.3883
  360MOL0     H48587   8.092   8.825   5.031  2.5397  1.4511  0.6247
  360MOL0     H48588   7.944   8.852   4.881  1.7271  0.6147  0.9779
  360MOL0     H48589   7.918   8.847   4.703  0.4991 -0.2779 -0.7905
  360MOL0     H48590   8.146   8.947   4.671  1.8269 -0.6472  0.8646
  360MOL0     H48591   8.158   8.971   4.840  0.8560 -1.4672 -0.6584
  360MOL0     H48592   7.909   9.068   4.707 -1.3711  1.5287  0.0344
  360MOL0     H48593   8.063   9.156   4.685 -1.6634 -0.5386 -0.4438
  360MOL0     H48594   7.901   9.224   4.882  3.0340  5.6723  1.0804
  360MOL0     H48595   7.955   9.075   4.962  3.4955 -0.1451  0.8712
  360MOL0     H48596   8.315   9.300   4.984 -0.3736 -0.9498  3.9180
  360MOL0     H48597   8.200   8.511   4.768  0.3976  0.2276  0.6260
  360MOL0     H48598   8.354   8.328   4.832 -0.1523 -2.1181  2.0545
  360MOL0     H48599   8.489   8.448   4.843  1.0553  0.1735  0.3000
  360MOL0     H48600   8.429   8.341   4.982 -1.0497  1.3901  1.7273
  361MOL0     O48601   6.295   7.578   9.934 -0.5060 -1.1471 -0.1531
  361MOL0     C48602   6.191   7.574   9.868  0.3830 -0.1636  0.4318
  361MOL0     O48603   6.136   7.681   9.810 -0.3228 -0.2956  0.1435
  361MOL0     C48604   6.206   7.799   9.805  0.7308 -0.3551  0.1147
  361MOL0     C48605   6.153   7.906   9.878 -0.3634  0.4604 -1.0216
  361MOL0     C48606   6.208   8.034   9.875 -0.1234  0.3864  0.3945
  361MOL0     C48607   6.313   8.056   9.791 -0.7876  0.8632 -0.6881
  361MOL0     O48608   6.389   8.170   9.792  0.5434  0.5000  0.5609
  361MOL0     C48609   6.317   8.292   9.809  0.3158  0.6677 -0.4443
  361MOL0     C48610   6.392   8.396   9.734 -0.1756  0.0448  0.3349
  361MOL0     C48611   6.376   8.376   9.581  0.9026  0.1964  0.4751
  361MOL0     C48612   6.469   8.482   9.510 -1.1850 -0.8229 -0.2221
  361MOL0     C48613   6.481   8.454   9.367  0.7960 -0.0138  0.2092
  361MOL0     C48614   6.517   8.574   9.268 -0.3482 -0.3064 -0.8381
  361MOL0     C48615   6.413   8.691   9.276  0.4257 -0.0978  0.1580
  361MOL0     C48616   6.272   8.656   9.244  0.6957 -0.1724 -0.6583
  361MOL0     N48617   6.193   8.779   9.261 -0.1858  1.1614 -0.4219
  361MOL0     C48618   6.189   8.880   9.162  0.7031  1.2720  0.0514
  361MOL0     C48619   6.141   8.989   9.235 -0.7611  0.8228  0.1180
  361MOL0     C48620   6.134   9.128   9.179  0.3022  0.6038 -0.3461
  361MOL0     C48621   6.059   9.127   9.046 -0.0856  1.0426  1.7921
  361MOL0     C48622   6.059   9.262   8.963  0.1252  0.4528 -0.4313
  361MOL0     C48623   5.955   9.275   8.850 -0.5089 -0.4157  0.0519
  361MOL0     O48624   5.954   9.153   8.772 -0.0624  0.3641  0.3003
  361MOL0     C48625   5.910   9.159   8.642 -0.7792  0.6243 -0.2914
  361MOL0     C48626   5.859   9.270   8.575  0.1007 -0.0178 -0.2826
  361MOL0     C48627   5.814   9.261   8.437 -0.3723 -0.4579 -0.0402
  361MOL0     C48628   5.825   9.141   8.372  0.1544  0.8411 -0.3659
  361MOL0     C48629   5.796   9.136   8.228 -0.4998  0.5938 -0.1848
  361MOL0     O48630   5.867   9.041   8.158 -1.1850 -0.8528  0.1683
  361MOL0     C48631   5.820   9.019   8.034 -0.8360  0.3183  0.1343
  361MOL0     C48632   5.899   9.030   7.926 -1.1355  0.2085 -0.4885
  361MOL0     C48633   5.861   9.022   7.793 -0.2941  0.0860 -0.0589
  361MOL0     C48634   5.734   8.981   7.766 -0.1248 -0.2252  0.0987
  361MOL0     O48635   5.708   8.966   7.636  0.2056 -0.0515  0.5261
  361MOL0     C48636   5.630   8.849   7.588  0.1857 -0.2523  0.3032
  361MOL0     C48637   5.604   8.853   7.439 -0.6547  0.4157  0.3499
  361MOL0     C48638   5.501   8.752   7.392 -0.3135 -0.5472  0.2796
  361MOL0     C48639   5.495   8.726   7.242  0.0214  0.7076  0.2710
  361MOL0     C48640   5.352   8.668   7.200 -1.1650  1.1017 -0.1380
  361MOL0     C48641   5.358   8.628   7.054 -0.1336  0.3459  0.1493
  361MOL0     C48642   5.244   8.532   7.009 -0.2416 -0.6513 -1.4323
  361MOL0     C48643   5.256   8.502   6.863  0.3722 -0.1167  0.0909
  361MOL0    Cl48644   5.092   8.425   6.831 -0.5461  0.0681 -0.2468
  361MOL0     C48645   5.647   8.956   7.875  0.0292 -0.1519  1.2030
  361MOL0     C48646   5.688   8.969   8.011  0.7872 -0.8272 -0.9557
  361MOL0     O48647   5.716   9.218   8.179 -0.5466  0.1863 -0.5498
  361MOL0     C48648   5.866   9.020   8.437  0.5219 -0.3016 -0.4030
  361MOL0     C48649   5.912   9.037   8.569  0.9840 -0.0604 -0.7008
  361MOL0     N48650   6.137   8.953   9.363  1.3100 -0.3125 -0.4654
  361MOL0     N48651   6.156   8.829   9.382 -0.1436 -0.0013  0.6335
  361MOL0     C48652   6.372   7.958   9.720 -0.0471 -0.1826  0.6955
  361MOL0     C48653   6.320   7.827   9.722 -0.6980 -0.2468 -0.2981
  361MOL0     C48654   6.126   7.440   9.859 -0.7037 -0.3477  0.7854
  361MOL0     C48655   6.134   7.346   9.960 -0.6933 -0.3466 -0.4477
  361MOL0     C48656   6.070   7.219   9.947 -0.7960  1.2555 -0.1686
  361MOL0     C48657   6.003   7.182   9.830  0.7394  0.2404  0.0064
  361MOL0     O48658   5.943   7.057   9.803  0.5784  0.2048  0.4549
  361MOL0     C48659   5.934   6.980   9.922 -0.9258 -0.4305 -0.0582
  361MOL0     C48660   5.842   6.861   9.896 -0.6195  0.7645  0.9348
  361MOL0     C48661   5.904   6.759   9.798  1.0506 -0.0272 -0.2732
  361MOL0     C48662   5.807   6.653   9.759 -0.1400  0.5252 -0.4190
  361MOL0     C48663   5.879   6.553   9.672  0.3815 -0.0827 -0.2482
  361MOL0     C48664   5.942   6.481   9.586  0.1001 -0.1439 -1.3128
  361MOL0     C48665   5.996   7.277   9.726 -0.0699 -0.1517 -0.3914
  361MOL0     C48666   6.063   7.401   9.729 -0.3410 -0.2977 -0.5148
  361MOL0     C48667   6.053   7.480   9.597 -0.2730  0.2443 -0.3213
  361MOL0     H48668   6.061   7.900   9.934  0.0394 -3.2492 -0.4852
  361MOL0     H48669   6.161   8.103   9.945  1.2680 -1.0823  2.9178
  361MOL0     H48670   6.212   8.285   9.778  0.8002 -1.8868 -1.8256
  361MOL0     H48671   6.311   8.312   9.916 -4.0010  1.2359 -0.6243
  361MOL0     H48672   6.498   8.382   9.754  0.0233 -0.8951 -1.1648
  361MOL0     H48673   6.367   8.499   9.761 -0.2906  1.0835 -3.2001
  361MOL0     H48674   6.273   8.392   9.546  1.1095  1.0266  0.2372
  361MOL0     H48675   6.415   8.281   9.545 -0.9741 -0.9654  1.3118
  361MOL0     H48676   6.441   8.584   9.537  3.7711 -0.0928  3.6331
  361MOL0     H48677   6.566   8.483   9.561  0.2360  0.5440 -2.7135
  361MOL0     H48678   6.560   8.378   9.355 -1.5215 -2.2331 -2.3995
  361MOL0     H48679   6.389   8.409   9.329  2.2727 -2.5318 -0.6525
  361MOL0     H48680   6.613   8.621   9.293 -1.3951  0.7341  1.5001
  361MOL0     H48681   6.534   8.533   9.168 -0.8068 -2.6909  0.0011
  361MOL0     H48682   6.448   8.775   9.216  0.0994  0.6991  1.0627
  361MOL0     H48683   6.408   8.728   9.379 -0.2468  1.3057 -0.3652
  361MOL0     H48684   6.265   8.620   9.141  0.9267 -0.5792 -0.5328
  361MOL0     H48685   6.227   8.580   9.308  0.4349  0.6397  0.1491
  361MOL0     H48686   6.221   8.881   9.058  1.7089  1.8253  0.3531
  361MOL0     H48687   6.083   9.194   9.250 -1.8202  0.4910 -1.6726
  361MOL0     H48688   6.238   9.156   9.163  0.9239 -0.0922  2.0153
  361MOL0     H48689   6.090   9.054   8.971 -2.7709  3.2815 -1.8835
  361MOL0     H48690   5.956   9.096   9.065  0.1596 -2.1919 -1.2329
  361MOL0     H48691   6.163   9.266   8.929  0.9083 -5.9090 -0.0219
  361MOL0     H48692   6.039   9.352   9.022  1.5423 -0.9410  2.4082
  361MOL0     H48693   5.987   9.355   8.783 -2.0725 -0.1499 -0.4403
  361MOL0     H48694   5.858   9.306   8.891 -0.5572 -1.5751  0.8508
  361MOL0     H48695   5.848   9.367   8.621  0.4384  0.0035 -0.2409
  361MOL0     H48696   5.786   9.354   8.389 -0.7153  0.0963  1.1866
  361MOL0     H48697   6.000   9.062   7.951 -0.1109 -2.9635 -0.0527
  361MOL0     H48698   5.924   9.037   7.706 -1.7088  1.8844 -0.8574
  361MOL0     H48699   5.710   8.775   7.598  1.6173  1.0482 -0.9983
  361MOL0     H48700   5.541   8.828   7.649  0.7382  0.8773  1.5413
  361MOL0     H48701   5.565   8.951   7.410  0.0956  0.2360 -1.4191
  361MOL0     H48702   5.698   8.829   7.389 -1.4485 -2.0698 -0.1247
  361MOL0     H48703   5.522   8.657   7.442  1.4027  0.0199  0.7198
  361MOL0     H48704   5.405   8.798   7.419  1.7864  2.1416  4.2573
  361MOL0     H48705   5.567   8.646   7.222 -0.7249  0.0573  0.1855
  361MOL0     H48706   5.515   8.813   7.178 -1.9937 -0.3489 -1.9337
  361MOL0     H48707   5.267   8.730   7.233 -0.8136 -0.2131  3.6791
  361MOL0     H48708   5.335   8.573   7.251  0.8683 -0.5223 -2.2557
  361MOL0     H48709   5.361   8.714   6.986 -0.6108 -1.1045 -1.7676
  361MOL0     H48710   5.454   8.578   7.038  0.2683  0.0000  3.0963
  361MOL0     H48711   5.146   8.576   7.030 -0.3561 -1.2151 -0.7320
  361MOL0     H48712   5.245   8.438   7.065 -1.1724 -0.1383 -0.5282
  361MOL0     H48713   5.270   8.590   6.800 -1.0340  0.7022  0.8714
  361MOL0     H48714   5.331   8.426   6.840 -0.7989 -0.4814 -2.9267
  361MOL0     H48715   5.551   8.907   7.862  0.0144  0.2658 -0.4534
  361MOL0     H48716   5.622   8.938   8.091  1.1250 -1.9025 -1.0760
  361MOL0     H48717   5.867   8.922   8.392 -1.2477  0.0345 -1.2584
  361MOL0     H48718   5.961   8.945   8.599  2.2706  1.0934  0.8964
  361MOL0     H48719   6.457   7.996   9.663 -0.0842  0.4798  1.0646
  361MOL0     H48720   6.372   7.754   9.660 -0.0391 -0.6482  0.7110
  361MOL0     H48721   6.189   7.372  10.050 -1.9404  0.1483  0.1942
  361MOL0     H48722   6.080   7.144  10.026  1.2256 -1.1773 -2.5511
  361MOL0     H48723   5.898   7.037  10.008  0.0150  0.3396 -0.1656
  361MOL0     H48724   6.033   6.938   9.941 -0.5131  0.6514  0.2312
  361MOL0     H48725   5.750   6.895   9.847  1.7971  3.4653 -2.1577
  361MOL0     H48726   5.818   6.817   9.994 -5.9130  0.9884  0.0608
  361MOL0     H48727   5.989   6.711   9.846  1.5759  1.2244  0.0812
  361MOL0     H48728   5.927   6.806   9.701  2.7678  0.9282  0.5521
  361MOL0     H48729   5.764   6.598   9.843  1.9382 -1.1961 -0.4003
  361MOL0     H48730   5.726   6.709   9.712 -1.0590  0.0077  0.4904
  361MOL0     H48731   5.996   6.412   9.524  1.9426 -1.9196  2.0168
  361MOL0     H48732   5.953   7.237   9.635 -1.6524 -1.4462  0.8593
  361MOL0     H48733   5.976   7.557   9.590  0.0723  0.6051 -0.2369
  361MOL0     H48734   6.148   7.532   9.580 -1.9062  2.7448 -2.4992
  361MOL0     H48735   6.039   7.415   9.511 -2.8372  0.1456  0.0982
  362MOL0     O48736   4.037   7.546  10.673  0.5915  0.1759  0.2402
  362MOL0     C48737   4.068   7.638  10.593  0.3491 -0.3125  0.1083
  362MOL0     O48738   4.084   7.769  10.636  0.2249 -0.3681 -0.3263
  362MOL0     C48739   4.091   7.800  10.774  0.1307 -0.1238  0.4365
  362MOL0     C48740   4.023   7.919  10.812 -0.3563 -0.6342 -0.3133
  362MOL0     C48741   4.021   7.953  10.951  0.0802  0.2999 -0.6332
  362MOL0     C48742   4.098   7.873  11.044 -0.3971 -0.0870 -0.2908
  362MOL0     O48743   4.094   7.901  11.177 -0.8620  0.1908  0.2151
  362MOL0     C48744   3.976   7.967  11.228  0.5114  0.1853 -0.4430
  362MOL0     C48745   3.960   7.909  11.369 -0.5191 -1.7525  0.1631
  362MOL0     C48746   3.860   7.977  11.448  0.3292 -0.5025 -0.6823
  362MOL0     C48747   3.828   7.919  11.585  0.5088  0.4555 -0.2460
  362MOL0     C48748   3.947   7.909  11.684 -0.3236 -0.1792 -0.2822
  362MOL0     C48749   3.910   7.865  11.821  0.5131 -0.9676 -0.7326
  362MOL0     C48750   3.789   7.949  11.880 -0.5409  0.5708  0.1887
  362MOL0     C48751   3.765   7.896  12.015  0.8258 -0.4590 -0.4350
  362MOL0     N48752   3.737   7.751  12.025 -0.1427  0.2349  0.1506
  362MOL0     C48753   3.616   7.695  12.001 -0.3743 -0.4361  0.3062
  362MOL0     C48754   3.622   7.582  12.065 -0.3241  0.4954 -1.2673
  362MOL0     C48755   3.511   7.490  12.099  0.3134 -0.3401  0.1693
  362MOL0     C48756   3.423   7.550  12.207 -0.1889 -0.3970 -0.3841
  362MOL0     C48757   3.281   7.489  12.214  0.5470  0.0643  0.3104
  362MOL0     C48758   3.270   7.332  12.207  0.8006  0.2949  0.1448
  362MOL0     O48759   3.131   7.298  12.244  0.4518  0.1925  0.0944
  362MOL0     C48760   3.095   7.167  12.251  0.0985 -0.0227  0.4529
  362MOL0     C48761   2.975   7.137  12.321 -0.2568  0.6688  0.5498
  362MOL0     C48762   2.936   7.002  12.349 -0.1855 -0.1215  0.8139
  362MOL0     C48763   3.009   6.899  12.289 -0.7878 -0.4927 -0.1486
  362MOL0     C48764   2.964   6.759  12.315  0.1135 -0.2829  0.4156
  362MOL0     O48765   3.000   6.671  12.212 -0.2288 -0.8784  0.6566
  362MOL0     C48766   2.934   6.554  12.196 -0.7036  1.6571 -0.3997
  362MOL0     C48767   3.007   6.452  12.149 -0.6267 -0.2866  0.5119
  362MOL0     C48768   2.963   6.334  12.103 -0.0948 -0.0661  0.5619
  362MOL0     C48769   2.827   6.316  12.098  0.5737 -0.2285  0.3133
  362MOL0     O48770   2.751   6.208  12.054  0.0024 -0.0823 -0.1799
  362MOL0     C48771   2.808   6.085  12.121 -0.5370  0.2100  0.0149
  362MOL0     C48772   2.729   5.963  12.082  0.1734  1.1910  0.3025
  362MOL0     C48773   2.760   5.845  12.176 -0.2160 -0.6405 -0.6042
  362MOL0     C48774   2.908   5.790  12.151 -0.5870 -0.3726 -0.5998
  362MOL0     C48775   2.934   5.671  12.235  0.6082 -0.1773 -0.3196
  362MOL0     C48776   3.034   5.565  12.193  0.5265  0.3747 -0.0327
  362MOL0     C48777   3.069   5.456  12.285  0.0552 -0.5515 -0.8183
  362MOL0     C48778   3.201   5.467  12.357 -0.5118 -0.8664  0.9921
  362MOL0    Cl48779   3.233   5.333  12.462 -0.3029  0.5856  0.0646
  362MOL0     C48780   2.747   6.423  12.149  0.5129  0.2107  0.3443
  362MOL0     C48781   2.799   6.542  12.197 -0.9337  0.4545  0.7836
  362MOL0     O48782   2.884   6.737  12.404 -0.1250 -0.2398 -0.6649
  362MOL0     C48783   3.126   6.928  12.219  0.6600  1.3789  0.3271
  362MOL0     C48784   3.160   7.060  12.190 -0.7813 -0.2847 -0.7116
  362MOL0     N48785   3.748   7.561  12.118  0.2290  0.3701 -0.3779
  362MOL0     N48786   3.817   7.660  12.087  0.2958 -0.7237 -0.6000
  362MOL0     C48787   4.158   7.758  10.999  0.2634 -0.5630  0.3533
  362MOL0     C48788   4.158   7.715  10.862 -0.1066 -0.4147 -0.2239
  362MOL0     C48789   4.088   7.601  10.448  0.7358 -0.1266 -0.8083
  362MOL0     C48790   4.181   7.682  10.372  0.6934 -0.8562 -0.7185
  362MOL0     C48791   4.198   7.657  10.232  1.1420  1.0276  0.2536
  362MOL0     C48792   4.117   7.552  10.164  0.1034 -0.2714  1.3424
  362MOL0     O48793   4.138   7.528  10.028  0.8439 -0.1991 -0.6022
  362MOL0     C48794   4.254   7.581   9.961 -0.5012 -0.0511 -0.2082
  362MOL0     C48795   4.299   7.482   9.852 -0.3823  0.3446 -0.1073
  362MOL0     C48796   4.214   7.494   9.735  0.1705 -0.6291  0.9789
  362MOL0     C48797   4.252   7.418   9.610  0.0772  0.0909  0.3590
  362MOL0     C48798   4.165   7.442   9.492  1.2733 -0.3000 -1.1762
  362MOL0     C48799   4.104   7.497   9.402  0.2573  0.5728  0.1915
  362MOL0     C48800   4.041   7.469  10.248 -0.6579  0.1967  0.3027
  362MOL0     C48801   4.016   7.497  10.386  0.8347 -0.1243  0.3893
  362MOL0     C48802   3.909   7.419  10.460  0.1997  1.2184 -0.2003
  362MOL0     H48803   3.984   7.975  10.728 -0.7885  1.2471  1.1017
  362MOL0     H48804   3.960   8.032  10.993 -0.9551 -0.2298 -1.0959
  362MOL0     H48805   3.995   8.074  11.217 -0.0509  0.3966  0.5380
  362MOL0     H48806   3.880   7.950  11.178  0.4612  0.1574 -0.3373
  362MOL0     H48807   4.057   7.928  11.415 -1.3515 -1.0493  1.7295
  362MOL0     H48808   3.942   7.802  11.359  0.3991 -2.0563  1.5150
  362MOL0     H48809   3.759   7.982  11.406  0.0749 -1.0823 -0.1358
  362MOL0     H48810   3.902   8.078  11.455 -0.4019 -0.0015 -2.8049
  362MOL0     H48811   3.750   7.975  11.637 -1.9579 -3.8414  1.2088
  362MOL0     H48812   3.788   7.820  11.561  0.9863  0.5093 -1.3431
  362MOL0     H48813   4.031   7.847  11.652  1.0433  1.9194 -1.0259
  362MOL0     H48814   3.996   8.007  11.688  0.8048 -0.7178 -0.4445
  362MOL0     H48815   3.871   7.763  11.818 -2.0161 -0.1692  1.0908
  362MOL0     H48816   3.994   7.865  11.891 -0.9164 -2.2604  1.0861
  362MOL0     H48817   3.694   7.942  11.825  0.1090  0.6739 -0.9745
  362MOL0     H48818   3.827   8.052  11.878  1.2476 -0.0675  0.2030
  362MOL0     H48819   3.854   7.919  12.075  0.8360  2.4132 -1.4133
  362MOL0     H48820   3.679   7.949  12.057 -1.7393 -3.8693 -0.9602
  362MOL0     H48821   3.535   7.740  11.944 -0.9175 -3.2672 -1.3494
  362MOL0     H48822   3.457   7.480  12.005 -1.7656 -0.7443  1.3464
  362MOL0     H48823   3.542   7.389  12.127  0.2033 -0.4536 -0.1203
  362MOL0     H48824   3.474   7.532  12.302  2.8974  1.2857 -1.5772
  362MOL0     H48825   3.406   7.655  12.184  0.4914  0.5260  2.7943
  362MOL0     H48826   3.216   7.526  12.134  3.0754  0.5119 -1.7039
  362MOL0     H48827   3.229   7.531  12.300  4.1445  1.6549  1.9276
  362MOL0     H48828   3.343   7.289  12.276 -0.2341 -0.8113  0.5892
  362MOL0     H48829   3.296   7.292  12.108  0.9392  0.4663  0.1115
  362MOL0     H48830   2.916   7.225  12.346 -0.8627  0.6333 -0.6726
  362MOL0     H48831   2.859   6.978  12.423 -3.1835 -1.9837 -2.5848
  362MOL0     H48832   3.109   6.477  12.123  0.1654 -3.9838 -0.5599
  362MOL0     H48833   3.018   6.248  12.067 -3.6293 -1.6459 -1.7248
  362MOL0     H48834   2.912   6.075  12.090 -0.5537  2.9826 -1.2313
  362MOL0     H48835   2.789   6.111  12.226  1.2239 -0.7415  0.5970
  362MOL0     H48836   2.624   5.985  12.100 -1.1153 -2.8855 -1.0398
  362MOL0     H48837   2.751   5.935  11.979 -0.2668  2.1155 -0.0494
  362MOL0     H48838   2.745   5.879  12.279 -1.3352 -1.6849 -0.3964
  362MOL0     H48839   2.697   5.757  12.161  0.4266 -1.4047  0.9456
  362MOL0     H48840   2.976   5.866  12.192  2.0673 -2.7324 -0.3629
  362MOL0     H48841   2.937   5.767  12.048  1.1025 -3.6350  0.4789
  362MOL0     H48842   2.842   5.620  12.264  0.1084  0.7532 -0.2135
  362MOL0     H48843   2.965   5.708  12.334 -2.7593  0.5977  0.5808
  362MOL0     H48844   2.984   5.523  12.104  2.3718  0.5321 -1.1956
  362MOL0     H48845   3.122   5.615  12.151 -1.1993  4.9591  1.1433
  362MOL0     H48846   3.066   5.355  12.245  0.0759 -0.6586 -0.5503
  362MOL0     H48847   2.991   5.452  12.362  0.8452  0.3366  0.0573
  362MOL0     H48848   3.283   5.473  12.284  0.2756 -0.6300  1.8724
  362MOL0     H48849   3.209   5.558  12.417  1.0139 -1.7185  2.1736
  362MOL0     H48850   2.641   6.397  12.145  0.2329  0.5483  3.4616
  362MOL0     H48851   2.721   6.614  12.218 -3.6678 -1.0156 -3.0384
  362MOL0     H48852   3.182   6.841  12.185  0.3944  2.6193 -3.8041
  362MOL0     H48853   3.255   7.069  12.137 -0.0453 -1.0789  0.4220
  362MOL0     H48854   4.210   7.708  11.080  0.6689 -1.4023 -0.4106
  362MOL0     H48855   4.222   7.630  10.843 -1.0056 -0.4461 -3.8488
  362MOL0     H48856   4.239   7.766  10.407 -2.8879  2.3673 -1.7604
  362MOL0     H48857   4.266   7.718  10.174  0.3971 -1.5167 -3.6878
  362MOL0     H48858   4.337   7.595  10.031 -1.6098  2.4832  0.7210
  362MOL0     H48859   4.241   7.677   9.911  0.1215  1.2811  2.0546
  362MOL0     H48860   4.300   7.377   9.881  0.0281 -0.1758 -1.8793
  362MOL0     H48861   4.404   7.502   9.828 -0.4833  1.0325 -0.0095
  362MOL0     H48862   4.208   7.600   9.712 -0.7096 -1.1958 -1.6909
  362MOL0     H48863   4.109   7.474   9.757  0.0378  1.1325  2.1072
  362MOL0     H48864   4.354   7.435   9.576  0.0404  0.9843  0.6853
  362MOL0     H48865   4.250   7.312   9.638 -0.5221  0.8265  3.4378
  362MOL0     H48866   4.079   7.553   9.314  4.2844 -1.1681 -2.3878
  362MOL0     H48867   3.983   7.395  10.194  0.5026 -0.7760  0.3460
  362MOL0     H48868   3.845   7.372  10.386  4.5919 -3.8185 -1.4497
  362MOL0     H48869   3.953   7.335  10.514 -1.6231  0.7353  0.6052
  362MOL0     H48870   3.847   7.488  10.518 -0.2612 -0.4530  1.3793
  363MOL0     O48871  10.192   1.279   2.795  0.6053  0.6584  0.4378
  363MOL0     C48872  10.263   1.179   2.817 -0.4654 -1.0678 -0.0698
  363MOL0     O48873  10.251   1.096   2.923  0.1664  0.6875 -0.2531
  363MOL0     C48874  10.184   1.125   3.045  0.2761 -0.7260  0.4607
  363MOL0     C48875  10.132   1.019   3.108  0.0739 -0.3794  0.6228
  363MOL0     C48876  10.051   1.032   3.215 -0.6900  0.2723  0.5901
  363MOL0     C48877  10.020   1.156   3.266  0.5824  0.1193 -0.1427
  363MOL0     O48878   9.952   1.177   3.386  0.5634 -0.5437  0.5189
  363MOL0     C48879  10.040   1.222   3.489  0.5826  0.1802  0.0409
  363MOL0     C48880   9.977   1.196   3.629 -0.1956  0.3371  0.2209
  363MOL0     C48881   9.839   1.243   3.642  1.3137  0.1830 -0.7201
  363MOL0     C48882   9.780   1.199   3.779 -0.8485  0.3796  0.2856
  363MOL0     C48883   9.662   1.287   3.806  0.2806  1.4564 -0.2350
  363MOL0     C48884   9.707   1.424   3.862  0.5370  0.1644  0.6733
  363MOL0     C48885   9.582   1.496   3.905  0.1451 -0.1276  0.1877
  363MOL0     C48886   9.619   1.622   3.981  0.6786 -0.0186 -1.5986
  363MOL0     N48887   9.688   1.607   4.108 -0.0718  0.4695  0.6802
  363MOL0     C48888   9.826   1.603   4.111  0.3885 -0.1176 -0.0258
  363MOL0     C48889   9.870   1.630   4.237 -0.6483 -0.1482 -0.8787
  363MOL0     C48890  10.010   1.627   4.294  0.4467 -0.4056 -0.2846
  363MOL0     C48891  10.112   1.685   4.190  0.1667 -0.1349 -0.0679
  363MOL0     C48892  10.236   1.594   4.141 -0.6038  1.0293  0.5352
  363MOL0     C48893  10.198   1.451   4.093 -0.8478 -0.9596 -0.0518
  363MOL0     O48894  10.102   1.461   3.983  0.2915  0.5120 -0.1146
  363MOL0     C48895  10.130   1.504   3.860 -0.4570 -0.0767 -0.8777
  363MOL0     C48896  10.265   1.514   3.817 -0.1428  0.1426  0.5085
  363MOL0     C48897  10.289   1.569   3.694  0.6054  1.2795  0.1703
  363MOL0     C48898  10.186   1.618   3.612  0.1169 -0.6597 -0.3194
  363MOL0     C48899  10.232   1.682   3.485  0.0737  1.3027  0.1796
  363MOL0     O48900  10.140   1.765   3.429 -0.6416 -0.0354  0.4461
  363MOL0     C48901  10.151   1.788   3.286  0.4146  1.3240 -0.3190
  363MOL0     C48902  10.215   1.894   3.231  0.6897  0.5782 -0.6373
  363MOL0     C48903  10.215   1.916   3.092 -0.1063  0.7654  0.1913
  363MOL0     C48904  10.165   1.826   2.995  0.2387  0.8873 -0.1853
  363MOL0     O48905  10.169   1.836   2.857 -0.0746  0.3870  0.5616
  363MOL0     C48906  10.173   1.961   2.794 -0.6344 -0.4530 -0.1504
  363MOL0     C48907  10.186   1.960   2.644 -0.9929  0.2370  0.1048
  363MOL0     C48908  10.093   1.867   2.562 -0.9114  0.4123 -0.8290
  363MOL0     C48909  10.099   1.864   2.410 -0.1526  0.1013  0.1342
  363MOL0     C48910  10.011   1.756   2.356 -0.4940  0.9110 -0.4148
  363MOL0     C48911  10.026   1.743   2.204 -0.2577  0.7483 -0.4131
  363MOL0     C48912   9.955   1.615   2.160  0.4001 -0.8963 -0.0259
  363MOL0     C48913   9.984   1.579   2.010  0.4370 -0.2933  0.1010
  363MOL0    Cl48914   9.922   1.706   1.893 -0.1435 -0.7724 -0.1267
  363MOL0     C48915  10.098   1.716   3.057  0.0360 -0.4429  1.1296
  363MOL0     C48916  10.097   1.696   3.197  0.0229 -0.2215  0.0466
  363MOL0     O48917  10.332   1.645   3.431 -0.2626 -0.5700 -0.2765
  363MOL0     C48918  10.061   1.622   3.663 -0.1726  0.5641  0.1858
  363MOL0     C48919  10.027   1.566   3.786 -0.6620 -0.2208  0.4110
  363MOL0     N48920   9.752   1.649   4.308  0.2684 -0.2951  0.7398
  363MOL0     N48921   9.649   1.660   4.228  0.1672  0.1873  0.5760
  363MOL0     C48922  10.080   1.270   3.209  0.3734 -0.0853  0.4296
  363MOL0     C48923  10.166   1.254   3.096  0.0347  0.2671  0.3886
  363MOL0     C48924  10.376   1.160   2.714  0.0146 -0.6447  0.0392
  363MOL0     C48925  10.463   1.060   2.745  0.3128 -0.9828 -0.0214
  363MOL0     C48926  10.564   1.020   2.651  0.6921 -0.4447  0.4194
  363MOL0     C48927  10.577   1.088   2.527  0.3164 -0.2440  0.0231
  363MOL0     O48928  10.675   1.046   2.442 -0.5628 -1.0738 -0.2281
  363MOL0     C48929  10.693   1.118   2.320  0.0425 -0.1764 -0.3354
  363MOL0     C48930  10.757   1.261   2.338  0.6197  0.7313  0.7326
  363MOL0     C48931  10.744   1.357   2.207 -0.0135 -0.4623 -0.2227
  363MOL0     C48932  10.790   1.502   2.224 -1.7344  0.0510 -0.0739
  363MOL0     C48933  10.934   1.486   2.243 -0.6481 -0.3687  0.4162
  363MOL0     C48934  11.058   1.483   2.250  0.4553 -0.6885 -0.9595
  363MOL0     C48935  10.480   1.190   2.506 -0.5801  0.7902  0.8004
  363MOL0     C48936  10.380   1.231   2.594  0.1332 -0.0999 -0.4592
  363MOL0     C48937  10.283   1.328   2.532 -0.7365  0.4287  1.2173
  363MOL0     H48938  10.131   0.916   3.073 -0.0228 -0.6608  1.4071
  363MOL0     H48939  10.008   0.947   3.268 -2.1347  2.0880  2.4661
  363MOL0     H48940  10.143   1.188   3.478  0.0073 -1.0839 -1.9209
  363MOL0     H48941  10.052   1.330   3.474 -0.9964  0.0954 -2.4138
  363MOL0     H48942  10.032   1.245   3.709  1.3929 -2.5486  1.0306
  363MOL0     H48943   9.983   1.089   3.648 -1.8094  0.4492  1.6653
  363MOL0     H48944   9.785   1.198   3.557  0.3861 -0.1720  0.0339
  363MOL0     H48945   9.839   1.352   3.640  0.5346  0.1838 -1.4288
  363MOL0     H48946   9.750   1.094   3.782 -1.6796  0.6198  0.4651
  363MOL0     H48947   9.850   1.216   3.861 -1.9442 -0.2329  1.3806
  363MOL0     H48948   9.593   1.300   3.723  2.8488  4.4710 -2.1292
  363MOL0     H48949   9.611   1.235   3.887  1.7801 -1.3245 -0.9456
  363MOL0     H48950   9.782   1.421   3.941  1.9862  1.7409 -0.5648
  363MOL0     H48951   9.750   1.484   3.781  0.7901 -2.5708 -1.3852
  363MOL0     H48952   9.520   1.433   3.970  1.2120 -0.0802  1.3007
  363MOL0     H48953   9.532   1.531   3.815 -2.0782  5.1613  3.0209
  363MOL0     H48954   9.675   1.696   3.924  0.6584  2.8084  1.7398
  363MOL0     H48955   9.521   1.663   4.006  0.4041 -1.2924 -0.4414
  363MOL0     H48956   9.885   1.591   4.021  0.2289 -1.6138  0.0502
  363MOL0     H48957  10.009   1.698   4.378  0.6757 -0.3227 -0.3500
  363MOL0     H48958  10.037   1.525   4.320  1.1703 -0.1673 -0.0747
  363MOL0     H48959  10.050   1.727   4.110 -1.0175 -0.4285  0.6730
  363MOL0     H48960  10.153   1.780   4.225 -0.2731  0.7040 -1.7420
  363MOL0     H48961  10.310   1.584   4.221  3.5389  1.5699 -2.8493
  363MOL0     H48962  10.297   1.646   4.066 -2.0944  1.8939 -0.1246
  363MOL0     H48963  10.158   1.392   4.175  2.3370 -2.6653  0.4192
  363MOL0     H48964  10.296   1.407   4.070  1.3568  3.2117  0.3939
  363MOL0     H48965  10.352   1.480   3.872  0.7062 -0.4014 -1.1086
  363MOL0     H48966  10.387   1.564   3.648  1.2923  0.1686  1.7054
  363MOL0     H48967  10.257   1.962   3.304  1.2246 -2.2124  1.8577
  363MOL0     H48968  10.275   1.998   3.055 -1.5990  1.0980 -1.6478
  363MOL0     H48969  10.092   2.027   2.826  0.0635 -0.0893  0.9567
  363MOL0     H48970  10.262   2.011   2.834 -1.0434  1.3295 -1.3133
  363MOL0     H48971  10.180   2.066   2.619  4.2148  1.3834  2.3065
  363MOL0     H48972  10.290   1.927   2.637  0.2991  3.3613  2.3999
  363MOL0     H48973  10.112   1.767   2.600 -2.0714  1.3378  2.5178
  363MOL0     H48974   9.988   1.893   2.580 -0.4569  1.1883  0.8667
  363MOL0     H48975  10.199   1.849   2.369 -0.8729 -0.2402 -1.5920
  363MOL0     H48976  10.077   1.958   2.358  1.0774 -0.9196 -2.3921
  363MOL0     H48977   9.907   1.780   2.379 -0.5137  3.8452 -2.7981
  363MOL0     H48978  10.051   1.664   2.398 -1.5501 -0.4909 -2.3625
  363MOL0     H48979  10.005   1.829   2.140  1.2361  2.0787  0.8030
  363MOL0     H48980  10.133   1.742   2.183 -0.5426  1.2513 -2.0692
  363MOL0     H48981   9.846   1.627   2.166  0.6525  4.0234 -1.3188
  363MOL0     H48982   9.976   1.523   2.216 -2.1983 -1.4536  0.1596
  363MOL0     H48983  10.091   1.569   1.987  0.9129  1.3781  1.3417
  363MOL0     H48984   9.928   1.493   1.974 -1.0611  1.3725 -1.8228
  363MOL0     H48985  10.051   1.639   2.996  0.1452  2.1976 -2.6712
  363MOL0     H48986  10.047   1.609   3.240 -1.6837  2.1794  3.4510
  363MOL0     H48987   9.981   1.658   3.599  0.1841  1.0768  0.0259
  363MOL0     H48988   9.922   1.569   3.812  0.0143  0.5190  3.5150
  363MOL0     H48989  10.071   1.362   3.265  0.7171 -0.4347  1.0670
  363MOL0     H48990  10.212   1.335   3.041 -0.6544  1.5826  1.6681
  363MOL0     H48991  10.461   1.006   2.839 -0.2916  0.3593  0.7690
  363MOL0     H48992  10.630   0.940   2.681  1.4114 -0.8691 -2.0954
  363MOL0     H48993  10.601   1.148   2.268 -0.9318  2.6553  2.6858
  363MOL0     H48994  10.751   1.044   2.263 -0.0743 -1.6681  1.4046
  363MOL0     H48995  10.863   1.256   2.365  0.1966 -1.9060  2.3030
  363MOL0     H48996  10.693   1.307   2.414  1.8583  0.9412  1.6802
  363MOL0     H48997  10.639   1.376   2.183 -0.3306 -1.0202  0.6586
  363MOL0     H48998  10.794   1.301   2.128  0.8418 -1.7448  1.1521
  363MOL0     H48999  10.769   1.555   2.130  0.6229 -0.6595 -1.0760
  363MOL0     H49000  10.751   1.555   2.312  0.9051 -1.2851  2.0559
  363MOL0     H49001  11.163   1.500   2.262 -0.1334  1.4889  3.5518
  363MOL0     H49002  10.480   1.248   2.414  0.8176 -1.5300 -0.7904
  363MOL0     H49003  10.340   1.417   2.503  1.2411 -0.4595  2.1816
  363MOL0     H49004  10.240   1.292   2.438  2.3657  4.7908 -2.2886
  363MOL0     H49005  10.210   1.374   2.600 -0.4958 -1.5256  2.8944
  364MOL0     O49006   2.843  10.188   8.983 -0.1617  0.1202  0.2781
  364MOL0     C49007   2.877  10.152   8.868  1.0742  0.8302 -0.2308
  364MOL0     O49008   2.795  10.155   8.761  0.0137 -0.4114  0.5603
  364MOL0     C49009   2.660  10.180   8.779  0.1211  0.5098  0.2021
  364MOL0     C49010   2.565  10.073   8.807  0.8531 -1.0537 -0.3514
  364MOL0     C49011   2.430  10.100   8.816  1.1808 -0.6743 -0.0635
  364MOL0     C49012   2.380  10.222   8.763 -0.5723 -0.3192 -0.1662
  364MOL0     O49013   2.247  10.240   8.775 -0.7229 -0.0168 -0.3375
  364MOL0     C49014   2.197  10.374   8.774  0.7390  0.4766 -0.3530
  364MOL0     C49015   2.049  10.377   8.835 -0.6734 -0.1171  0.0479
  364MOL0     C49016   1.949  10.272   8.775 -0.1591 -0.6212  0.0041
  364MOL0     C49017   1.895  10.157   8.864 -0.1725  0.6788  0.2583
  364MOL0     C49018   2.007  10.085   8.937  0.0379 -0.1178 -0.1902
  364MOL0     C49019   1.955   9.948   8.998  0.9697 -0.0209  0.7669
  364MOL0     C49020   2.035   9.887   9.108 -0.9777 -0.3330  1.0739
  364MOL0     C49021   2.015   9.946   9.249  0.3955 -0.9439 -0.2042
  364MOL0     N49022   2.130   9.924   9.339  0.2301 -0.7378 -0.7643
  364MOL0     C49023   2.178   9.819   9.410  0.1788 -0.0119  0.1539
  364MOL0     C49024   2.256   9.876   9.504 -0.8934  0.7297  0.0417
  364MOL0     C49025   2.362   9.796   9.589  1.3433 -0.4056 -0.6277
  364MOL0     C49026   2.290   9.702   9.690  1.1025  0.0679 -0.5489
  364MOL0     C49027   2.175   9.767   9.773 -0.7604  0.4916 -0.0965
  364MOL0     C49028   2.116   9.663   9.872 -1.0634 -0.2735  0.4386
  364MOL0     O49029   2.181   9.658   9.996  0.2340 -0.4956  0.0778
  364MOL0     C49030   2.130   9.603  10.104  0.2772  0.0823  0.4468
  364MOL0     C49031   2.206   9.626  10.220  0.5848 -0.4253  0.0410
  364MOL0     C49032   2.169   9.577  10.348  0.1929  1.2366  0.0206
  364MOL0     C49033   2.058   9.504  10.367  0.8133  0.4783  0.3260
  364MOL0     C49034   2.012   9.437  10.494 -0.5890  0.7053  0.2023
  364MOL0     O49035   2.102   9.457  10.595 -0.4436 -0.1942 -0.8580
  364MOL0     C49036   2.074   9.377  10.703  0.0658 -0.3072 -0.6857
  364MOL0     C49037   2.168   9.289  10.753  0.3159 -0.2263 -0.0730
  364MOL0     C49038   2.152   9.222  10.874 -0.4433 -0.1131 -0.1577
  364MOL0     C49039   2.040   9.248  10.954  0.4224  0.4195  0.3852
  364MOL0     O49040   2.023   9.181  11.074 -0.1576  0.1232 -0.4620
  364MOL0     C49041   2.117   9.222  11.182 -0.2747 -0.3002 -0.0813
  364MOL0     C49042   2.089   9.358  11.252 -0.2520 -0.6451 -0.3224
  364MOL0     C49043   1.953   9.349  11.325 -0.9876 -0.7137  0.2879
  364MOL0     C49044   1.913   9.488  11.379 -0.3145  0.4096 -0.7730
  364MOL0     C49045   1.765   9.490  11.381 -0.8099 -0.6910 -0.3327
  364MOL0     C49046   1.721   9.630  11.414 -0.0619 -0.0378 -0.0507
  364MOL0     C49047   1.569   9.647  11.418 -0.4146 -0.4438 -0.7258
  364MOL0     C49048   1.513   9.726  11.532 -0.3011 -0.8703  0.1195
  364MOL0    Cl49049   1.466   9.630  11.682  0.3155 -0.3442  0.2052
  364MOL0     C49050   1.949   9.347  10.898 -0.0275 -0.0940  0.2746
  364MOL0     C49051   1.971   9.412  10.772  0.6714 -0.8782 -0.2107
  364MOL0     O49052   1.904   9.370  10.501 -0.3230 -0.0495  0.5270
  364MOL0     C49053   1.985   9.487  10.251  0.1654  0.7525  0.4041
  364MOL0     C49054   2.009   9.531  10.119  0.2049 -0.4873 -0.1902
  364MOL0     N49055   2.239  10.008   9.504  0.2767 -0.3586  0.4417
  364MOL0     N49056   2.166  10.038   9.400  0.5340 -0.8817 -0.6686
  364MOL0     C49057   2.472  10.322   8.730 -0.0358 -0.9545  1.4321
  364MOL0     C49058   2.610  10.306   8.741  0.7570  0.4700  0.2105
  364MOL0     C49059   3.014  10.111   8.852  0.5011 -0.3823  0.1304
  364MOL0     C49060   3.103  10.216   8.901  0.1693  1.2937  0.4469
  364MOL0     C49061   3.245  10.192   8.901  0.4501 -0.2383  1.5009
  364MOL0     C49062   3.287  10.067   8.847  0.6939 -0.4385 -0.4798
  364MOL0     O49063   3.424  10.049   8.846 -0.3100  0.1301 -0.0510
  364MOL0     C49064   3.465   9.940   8.938  0.1613  0.0671  0.0907
  364MOL0     C49065   3.599   9.943   8.993  0.1258  0.0875  0.4627
  364MOL0     C49066   3.710   9.919   8.898 -0.5602 -1.0397  0.2213
  364MOL0     C49067   3.707   9.775   8.851 -1.0859 -0.5626 -0.4402
  364MOL0     C49068   3.758   9.680   8.948  0.5906  0.2221 -0.0177
  364MOL0     C49069   3.803   9.600   9.029  0.0109 -0.4607 -0.3328
  364MOL0     C49070   3.204   9.971   8.793  0.1130  0.0990 -0.2996
  364MOL0     C49071   3.062   9.993   8.793 -0.1343 -0.5989  0.8794
  364MOL0     C49072   2.972   9.876   8.755  0.4758  0.6049 -0.7907
  364MOL0     H49073   2.601   9.972   8.821  0.1838 -1.4248 -1.2500
  364MOL0     H49074   2.355  10.025   8.838  0.0019  0.1035 -1.2454
  364MOL0     H49075   2.257  10.438   8.839 -1.7533  1.5178  1.1135
  364MOL0     H49076   2.182  10.416   8.674 -2.8963 -1.5470 -0.8351
  364MOL0     H49077   2.001  10.475   8.830 -0.1392  0.0859 -1.5095
  364MOL0     H49078   2.070  10.360   8.941  0.8871  1.2346  0.0059
  364MOL0     H49079   2.002  10.229   8.689  2.7103  1.2677  0.6684
  364MOL0     H49080   1.863  10.326   8.736  0.2433  0.6792  0.8453
  364MOL0     H49081   1.828  10.182   8.947  1.0795 -2.9699  2.5616
  364MOL0     H49082   1.842  10.087   8.799  0.6338  2.9764 -3.1590
  364MOL0     H49083   2.098  10.063   8.881  1.3588  0.7659  1.5146
  364MOL0     H49084   2.042  10.155   9.013 -1.8765  1.4837 -0.7066
  364MOL0     H49085   1.868   9.965   9.062 -0.2459 -3.0580  0.0864
  364MOL0     H49086   1.930   9.878   8.918  0.5666 -0.5247  1.3275
  364MOL0     H49087   2.141   9.906   9.090 -0.8932  0.9330  2.6544
  364MOL0     H49088   2.024   9.779   9.115 -3.1795 -0.2881 -0.6196
  364MOL0     H49089   1.996  10.053   9.254 -1.6653 -1.1361 -2.0553
  364MOL0     H49090   1.931   9.888   9.289 -0.7023 -2.2304 -3.8918
  364MOL0     H49091   2.169   9.713   9.389  1.7056 -0.5349  1.9111
  364MOL0     H49092   2.406   9.719   9.525 -0.8085  0.8300 -3.8433
  364MOL0     H49093   2.438   9.862   9.630  2.4331 -1.6209 -0.6107
  364MOL0     H49094   2.250   9.620   9.630 -0.2502 -0.2169  0.6852
  364MOL0     H49095   2.368   9.661   9.756  1.7286  0.9397 -0.7314
  364MOL0     H49096   2.090   9.804   9.716 -0.3929 -0.2852 -1.1858
  364MOL0     H49097   2.212   9.855   9.826 -0.9216  0.1130  0.6566
  364MOL0     H49098   2.098   9.563   9.830 -3.1663  0.7736 -1.3595
  364MOL0     H49099   2.014   9.698   9.892 -1.4186  0.0994 -1.7158
  364MOL0     H49100   2.295   9.688  10.218 -0.6205  1.3765  0.2472
  364MOL0     H49101   2.229   9.611  10.432  0.5479 -0.1087  0.3271
  364MOL0     H49102   2.258   9.281  10.693  1.7320  1.7376  1.6584
  364MOL0     H49103   2.235   9.167  10.916  1.1111 -0.3141 -3.2002
  364MOL0     H49104   2.093   9.153  11.263 -4.1971 -0.6282 -1.3488
  364MOL0     H49105   2.226   9.224  11.169 -0.3325  2.3226 -0.7671
  364MOL0     H49106   2.163   9.378  11.329 -0.0429  3.4327 -1.3598
  364MOL0     H49107   2.080   9.443  11.184 -1.8419 -0.9638 -0.5639
  364MOL0     H49108   1.872   9.314  11.261  0.6292  0.7091 -2.7614
  364MOL0     H49109   1.976   9.282  11.409  4.4240 -1.1991 -1.2062
  364MOL0     H49110   1.959   9.568  11.321 -1.0244  1.0870 -0.4033
  364MOL0     H49111   1.948   9.497  11.482  1.9367 -0.4821 -1.3965
  364MOL0     H49112   1.719   9.419  11.450 -2.7010  0.3464 -0.4383
  364MOL0     H49113   1.727   9.462  11.282  0.7142 -0.0739 -1.1298
  364MOL0     H49114   1.771   9.662  11.505  0.4145 -1.1134  0.0839
  364MOL0     H49115   1.757   9.693  11.332 -3.3074 -0.6515 -2.1759
  364MOL0     H49116   1.518   9.550  11.409 -4.9080  1.3526  2.0980
  364MOL0     H49117   1.542   9.713  11.335 -0.2439 -1.9586 -2.0381
  364MOL0     H49118   1.567   9.812  11.574 -1.2519 -0.8631  1.4063
  364MOL0     H49119   1.423   9.776  11.493  0.6614  2.2527  1.5367
  364MOL0     H49120   1.865   9.393  10.948 -1.2218  1.0475 -2.5190
  364MOL0     H49121   1.903   9.495  10.753  0.8986  0.5032  4.0729
  364MOL0     H49122   1.889   9.438  10.261  0.8280 -0.4106  1.3639
  364MOL0     H49123   1.940   9.513  10.037 -0.6856  2.4223 -0.1723
  364MOL0     H49124   2.440  10.418   8.692 -2.6660 -2.3827 -0.2772
  364MOL0     H49125   2.673  10.390   8.717  0.0261  0.6918 -1.0516
  364MOL0     H49126   3.062  10.306   8.946 -1.1697  0.9507 -0.0675
  364MOL0     H49127   3.299  10.281   8.933  6.4007 -2.8400  0.0694
  364MOL0     H49128   3.454   9.841   8.892  0.3535 -0.6227  1.4785
  364MOL0     H49129   3.383   9.938   9.010 -3.7675 -0.1140 -3.9944
  364MOL0     H49130   3.606   9.867   9.072 -3.1316 -1.0695 -0.2200
  364MOL0     H49131   3.622  10.030   9.055  1.3055 -2.1984  3.4905
  364MOL0     H49132   3.809   9.935   8.941 -0.6387 -1.2590  0.4823
  364MOL0     H49133   3.698   9.988   8.814 -0.1171 -0.7023  0.4293
  364MOL0     H49134   3.608   9.743   8.817 -1.3762 -0.7873  0.5907
  364MOL0     H49135   3.776   9.762   8.767 -1.2194  0.0612 -0.6523
  364MOL0     H49136   3.845   9.527   9.095 -2.4129 -0.3316  1.4833
  364MOL0     H49137   3.240   9.874   8.761  2.3534  0.2794  1.3578
  364MOL0     H49138   2.867   9.894   8.777  1.3139  6.1361  0.2283
  364MOL0     H49139   2.983   9.868   8.647 -1.3137 -1.5610 -0.8571
  364MOL0     H49140   3.007   9.789   8.811  1.2277  2.2378  1.4628
  365MOL0     O49141   5.490   3.825   5.412  0.2748  0.1821 -0.3699
  365MOL0     C49142   5.427   3.881   5.325  0.2285  0.1168  0.6503
  365MOL0     O49143   5.308   3.834   5.276 -0.2766  0.1586 -0.1246
  365MOL0     C49144   5.225   3.747   5.346  0.6295 -1.3249 -0.7440
  365MOL0     C49145   5.127   3.809   5.421  0.3928  0.4983 -0.4289
  365MOL0     C49146   5.023   3.736   5.488 -1.2494 -0.0553 -0.1388
  365MOL0     C49147   5.021   3.593   5.490 -0.9029  0.8811 -0.4258
  365MOL0     O49148   4.943   3.506   5.566 -0.2529  0.0505  0.2896
  365MOL0     C49149   4.834   3.566   5.637  0.0219 -0.5748  0.5783
  365MOL0     C49150   4.773   3.454   5.720 -0.4980  1.0996 -0.1915
  365MOL0     C49151   4.702   3.336   5.634 -0.1189 -0.4079 -0.2694
  365MOL0     C49152   4.797   3.247   5.552 -0.6826 -0.2616  0.6962
  365MOL0     C49153   4.891   3.165   5.650 -1.0255  0.0955  0.3137
  365MOL0     C49154   4.976   3.060   5.560  0.4761 -0.4132  0.6478
  365MOL0     C49155   5.076   2.975   5.643  0.1765  0.4301 -0.0861
  365MOL0     C49156   5.203   3.072   5.660  0.8333 -0.3299  0.2865
  365MOL0     N49157   5.323   3.006   5.726 -0.8440 -1.1780 -0.0912
  365MOL0     C49158   5.347   3.013   5.861 -0.2378  0.3905  0.6443
  365MOL0     C49159   5.460   2.937   5.872  0.1365 -0.3954  0.0869
  365MOL0     C49160   5.531   2.915   6.002  0.3076  0.1952  0.4759
  365MOL0     C49161   5.639   3.027   6.011  0.2040 -0.3674 -0.4125
  365MOL0     C49162   5.718   3.032   6.142 -0.8538 -0.5764 -0.6482
  365MOL0     C49163   5.803   2.915   6.184  0.6137 -0.2435  0.4387
  365MOL0     O49164   5.879   2.935   6.305 -0.7356 -0.1507 -0.5649
  365MOL0     C49165   5.956   2.841   6.360 -0.7464  0.2612 -0.4180
  365MOL0     C49166   6.006   2.860   6.488  0.5721  0.1013 -0.0772
  365MOL0     C49167   6.104   2.768   6.547  0.0305 -0.4815 -0.1808
  365MOL0     C49168   6.149   2.661   6.468  0.2097  0.5535  0.4423
  365MOL0     C49169   6.250   2.562   6.521 -0.2142 -0.8678  0.4736
  365MOL0     O49170   6.282   2.471   6.426 -0.4969  0.4257 -0.4523
  365MOL0     C49171   6.367   2.373   6.463 -0.1576 -0.2897  0.5717
  365MOL0     C49172   6.323   2.247   6.502 -0.1770  0.0963 -0.4175
  365MOL0     C49173   6.418   2.158   6.546 -0.3522 -0.0323  0.0335
  365MOL0     C49174   6.556   2.186   6.541  0.5740 -1.3508 -0.4655
  365MOL0     O49175   6.646   2.095   6.588  0.0042  0.0044  0.2412
  365MOL0     C49176   6.738   2.143   6.682 -0.6213 -0.3922 -0.0122
  365MOL0     C49177   6.805   2.027   6.759  0.4865 -0.0868 -0.3154
  365MOL0     C49178   6.709   1.971   6.865 -0.2576 -0.2616 -0.0563
  365MOL0     C49179   6.664   1.830   6.839  0.4366 -0.4321  0.1339
  365MOL0     C49180   6.550   1.797   6.926  0.9370 -0.1124  0.9289
  365MOL0     C49181   6.425   1.868   6.879 -0.2570  0.8190  1.2277
  365MOL0     C49182   6.291   1.821   6.930  0.3145  0.4174  0.1353
  365MOL0     C49183   6.277   1.667   6.895 -0.0772 -0.1722 -1.0043
  365MOL0    Cl49184   6.104   1.653   6.898  0.0341 -0.3646 -0.1841
  365MOL0     C49185   6.599   2.312   6.483  0.8248 -0.5525  0.0245
  365MOL0     C49186   6.502   2.412   6.454 -0.1730  0.1992 -0.1774
  365MOL0     O49187   6.291   2.565   6.638 -0.4470  0.5665 -0.4386
  365MOL0     C49188   6.086   2.644   6.342  0.8207  1.1695 -0.7285
  365MOL0     C49189   5.999   2.736   6.293  0.3911  0.1535  0.3283
  365MOL0     N49190   5.490   2.878   5.757 -1.2283 -0.4662  0.6659
  365MOL0     N49191   5.416   2.923   5.668  0.7253  0.0836 -0.5147
  365MOL0     C49192   5.121   3.532   5.412  1.1955 -0.4082  0.4313
  365MOL0     C49193   5.214   3.607   5.347 -0.5669  0.2215  0.4636
  365MOL0     C49194   5.466   4.012   5.267 -0.7355 -0.7710 -0.4848
  365MOL0     C49195   5.363   4.095   5.216 -0.5519  0.3626  0.5723
  365MOL0     C49196   5.397   4.212   5.144  0.1162  0.0443 -0.4235
  365MOL0     C49197   5.528   4.253   5.132 -0.5566 -0.0478  1.1580
  365MOL0     O49198   5.564   4.360   5.056 -0.5828  0.2094 -0.5433
  365MOL0     C49199   5.491   4.394   4.934 -0.1547  0.0050  0.8830
  365MOL0     C49200   5.572   4.402   4.811 -0.1441 -0.3973 -0.9131
  365MOL0     C49201   5.676   4.510   4.820  0.1653  0.3738 -0.1599
  365MOL0     C49202   5.618   4.644   4.858 -0.1122 -0.9868  0.0599
  365MOL0     C49203   5.708   4.763   4.829  0.2704 -0.0460  0.5322
  365MOL0     C49204   5.771   4.847   4.768  0.8767  0.3489  0.1253
  365MOL0     C49205   5.628   4.168   5.179 -0.3689  0.2402  0.1536
  365MOL0     C49206   5.599   4.051   5.244  0.1071 -1.2153 -0.2311
  365MOL0     C49207   5.710   3.950   5.278 -0.6500  0.9099 -0.3200
  365MOL0     H49208   5.132   3.917   5.426 -0.8486  0.5698 -0.4079
  365MOL0     H49209   4.958   3.794   5.553  0.3517  1.7849 -0.0848
  365MOL0     H49210   4.873   3.642   5.706 -2.6335 -0.8170  2.5024
  365MOL0     H49211   4.753   3.610   5.579  0.6829  2.6050  1.8514
  365MOL0     H49212   4.690   3.507   5.766 -0.5695  2.9383 -2.2597
  365MOL0     H49213   4.847   3.412   5.789 -2.4246  0.9690  1.9182
  365MOL0     H49214   4.638   3.379   5.556  0.7728  1.3183 -0.0932
  365MOL0     H49215   4.634   3.281   5.699 -1.0528  1.8761  0.7960
  365MOL0     H49216   4.745   3.174   5.489  0.2476 -0.1327 -0.2570
  365MOL0     H49217   4.854   3.303   5.477  2.5007  1.5472  4.1284
  365MOL0     H49218   4.964   3.228   5.702  0.2967 -1.3100  0.2257
  365MOL0     H49219   4.826   3.107   5.715  2.3541 -1.4578  2.5530
  365MOL0     H49220   4.917   2.990   5.500  0.0157 -0.6653  1.3694
  365MOL0     H49221   5.025   3.112   5.478  2.9392 -1.5649  1.3139
  365MOL0     H49222   5.121   2.893   5.586 -0.5077 -0.3983  0.5458
  365MOL0     H49223   5.029   2.949   5.738 -0.8413  2.5057  0.0515
  365MOL0     H49224   5.215   3.087   5.552  0.2941 -1.5949  0.0291
  365MOL0     H49225   5.188   3.168   5.708 -0.9371 -1.7248  2.7295
  365MOL0     H49226   5.295   3.068   5.939 -0.1718 -0.3607  1.2353
  365MOL0     H49227   5.461   2.926   6.085  1.2745 -1.4696  1.5622
  365MOL0     H49228   5.569   2.813   6.009 -0.4021 -0.0271  1.3340
  365MOL0     H49229   5.704   3.012   5.924  3.4190 -2.6470  2.1480
  365MOL0     H49230   5.608   3.131   6.003  2.6221  0.3862 -0.7276
  365MOL0     H49231   5.656   3.055   6.229 -0.2193 -1.4791  0.0585
  365MOL0     H49232   5.794   3.110   6.127  2.4976 -3.3646  0.4796
  365MOL0     H49233   5.874   2.906   6.101  1.0396  3.2367  0.2592
  365MOL0     H49234   5.748   2.821   6.181  3.9663 -2.3451 -0.5769
  365MOL0     H49235   5.960   2.947   6.535 -1.5253 -0.4991 -0.8890
  365MOL0     H49236   6.133   2.776   6.651  2.8405  0.0336 -0.9092
  365MOL0     H49237   6.219   2.219   6.499 -0.1614 -0.0679  0.2957
  365MOL0     H49238   6.383   2.058   6.569 -1.2252  0.4794  1.0277
  365MOL0     H49239   6.818   2.200   6.635 -2.4202  0.9910 -1.5484
  365MOL0     H49240   6.681   2.213   6.744  2.1263  1.0555  1.0419
  365MOL0     H49241   6.840   1.952   6.688 -1.1410  0.3063 -1.6002
  365MOL0     H49242   6.887   2.071   6.817 -1.1184  3.1665 -0.2930
  365MOL0     H49243   6.766   1.964   6.958 -0.6659 -0.4852  0.1822
  365MOL0     H49244   6.629   2.045   6.875  1.8281  2.2923 -1.1709
  365MOL0     H49245   6.747   1.759   6.843  0.6805 -0.1427  0.2316
  365MOL0     H49246   6.642   1.815   6.732 -0.6176  1.7708 -0.0050
  365MOL0     H49247   6.567   1.826   7.030 -0.6690  2.0199  0.6693
  365MOL0     H49248   6.529   1.690   6.923  1.5089 -0.3354  3.0418
  365MOL0     H49249   6.440   1.971   6.913 -1.2117  1.4611 -0.2043
  365MOL0     H49250   6.420   1.868   6.770 -2.0645 -2.0381  1.2306
  365MOL0     H49251   6.217   1.882   6.877 -1.8416 -1.2520  1.0581
  365MOL0     H49252   6.289   1.836   7.039 -2.8897  0.3664  0.1745
  365MOL0     H49253   6.331   1.639   6.804  1.9858 -3.0117  0.9274
  365MOL0     H49254   6.320   1.604   6.973 -0.7088  0.3955 -0.1756
  365MOL0     H49255   6.705   2.331   6.494  0.9860 -1.9677  1.2295
  365MOL0     H49256   6.526   2.507   6.408  5.4278 -1.0381 -0.5740
  365MOL0     H49257   6.114   2.556   6.284  0.7798  0.7919 -0.1852
  365MOL0     H49258   5.960   2.707   6.196  0.4755 -0.4886  0.4803
  365MOL0     H49259   5.125   3.424   5.406 -2.4650 -0.5661 -3.7804
  365MOL0     H49260   5.278   3.553   5.278  0.9386  4.0082 -1.4236
  365MOL0     H49261   5.261   4.058   5.208 -0.4574  0.3524 -0.8166
  365MOL0     H49262   5.317   4.278   5.114 -2.5986 -2.5183  0.7057
  365MOL0     H49263   5.430   4.484   4.940 -1.1477 -0.1240 -3.9454
  365MOL0     H49264   5.414   4.318   4.920  2.2045 -2.1840 -1.2268
  365MOL0     H49265   5.514   4.423   4.720 -1.7647 -1.5881 -0.1973
  365MOL0     H49266   5.617   4.303   4.799  0.8326  0.0264 -0.8751
  365MOL0     H49267   5.731   4.518   4.726 -2.5164  2.2124 -1.7330
  365MOL0     H49268   5.738   4.490   4.908  1.9906  1.8442 -1.0594
  365MOL0     H49269   5.524   4.663   4.805  0.9192  1.7941 -0.9340
  365MOL0     H49270   5.589   4.653   4.963  0.7510  0.9400  0.1823
  365MOL0     H49271   5.832   4.924   4.725  0.5020 -0.0626 -1.1723
  365MOL0     H49272   5.733   4.191   5.166 -0.5426  0.3201 -1.2831
  365MOL0     H49273   5.738   3.953   5.384 -0.7609  0.9432 -0.2910
  365MOL0     H49274   5.682   3.852   5.237 -0.8198  2.3914 -4.1891
  365MOL0     H49275   5.806   3.975   5.234  0.9231 -2.4188  0.9142
  366MOL0     O49276   3.000   1.644  11.098 -1.2032 -0.4391 -0.1602
  366MOL0     C49277   3.111   1.588  11.125 -0.7980 -0.4145  0.3385
  366MOL0     O49278   3.121   1.458  11.133 -0.8537  0.6311  0.8947
  366MOL0     C49279   3.009   1.375  11.116 -0.1740 -0.3483  0.7682
  366MOL0     C49280   2.933   1.343  11.234 -0.0863  0.8454  0.0690
  366MOL0     C49281   2.822   1.260  11.207  0.9587  0.8470 -0.1288
  366MOL0     C49282   2.776   1.213  11.087  0.4067 -0.9674  0.2542
  366MOL0     O49283   2.652   1.161  11.086 -0.0406  0.7246 -0.5235
  366MOL0     C49284   2.607   1.088  10.969  0.6000  0.5046  0.4884
  366MOL0     C49285   2.487   1.011  11.023 -0.1695 -0.2092  0.2605
  366MOL0     C49286   2.422   0.925  10.909 -0.4845  0.4050 -0.6371
  366MOL0     C49287   2.272   0.894  10.924 -0.2900 -0.8645 -0.3673
  366MOL0     C49288   2.220   0.770  10.859 -0.6751 -0.0193 -0.3495
  366MOL0     C49289   2.229   0.775  10.707 -0.2252  0.4850 -0.0622
  366MOL0     C49290   2.121   0.689  10.651 -0.1174 -0.5708 -0.1020
  366MOL0     C49291   1.981   0.730  10.680 -0.5611  0.8256  1.4616
  366MOL0     N49292   1.884   0.646  10.606 -0.0149 -1.0454 -0.9255
  366MOL0     C49293   1.900   0.556  10.507 -0.2978  0.6170 -0.7470
  366MOL0     C49294   1.768   0.524  10.490  0.9300  0.4324  0.9359
  366MOL0     C49295   1.724   0.421  10.388  0.1672 -0.3978 -0.2700
  366MOL0     C49296   1.782   0.467  10.261 -0.4500  0.1305  0.1449
  366MOL0     C49297   1.696   0.587  10.197  1.1002 -0.5286 -0.0419
  366MOL0     C49298   1.769   0.684  10.111  0.5215  0.4798  0.4065
  366MOL0     O49299   1.685   0.780  10.040 -0.8873  0.1757  0.2509
  366MOL0     C49300   1.753   0.835   9.940 -0.6036 -0.0971 -0.5589
  366MOL0     C49301   1.835   0.952   9.952 -0.0805 -0.2228 -0.0505
  366MOL0     C49302   1.913   0.997   9.847 -0.2091 -1.3142  0.5939
  366MOL0     C49303   1.894   0.938   9.723 -0.7084  0.0142  0.8016
  366MOL0     C49304   1.947   1.001   9.604 -0.1875  0.2165 -0.1107
  366MOL0     O49305   1.969   1.131   9.595  0.8171 -1.2220 -0.6737
  366MOL0     C49306   2.012   1.178   9.474 -0.0410  0.2018  1.0818
  366MOL0     C49307   1.926   1.202   9.369 -0.7650  0.9381  1.0976
  366MOL0     C49308   1.969   1.242   9.240 -0.4143  0.2787 -0.6196
  366MOL0     C49309   2.104   1.275   9.217 -1.0524  0.7210 -0.0361
  366MOL0     O49310   2.128   1.338   9.095 -0.8769  0.4267 -0.4846
  366MOL0     C49311   2.262   1.327   9.028  0.2886 -0.5563  0.2869
  366MOL0     C49312   2.293   1.191   8.989  0.1450  0.2724  0.9482
  366MOL0     C49313   2.395   1.192   8.869  0.2097 -0.0199 -1.2052
  366MOL0     C49314   2.325   1.214   8.732 -0.4753 -0.5752  0.1205
  366MOL0     C49315   2.437   1.231   8.634 -0.5348  0.1399 -0.2508
  366MOL0     C49316   2.381   1.255   8.491  0.2011 -0.3062 -0.3205
  366MOL0     C49317   2.477   1.252   8.371 -0.7095 -0.0463 -0.1349
  366MOL0     C49318   2.500   1.104   8.321 -0.6064  0.3680  0.1416
  366MOL0    Cl49319   2.640   1.105   8.221 -0.5260 -0.3891 -0.0119
  366MOL0     C49320   2.198   1.243   9.323  0.2759  0.3903  0.9075
  366MOL0     C49321   2.151   1.204   9.452  0.1439 -0.7124 -0.3927
  366MOL0     O49322   1.979   0.920   9.521  0.1468 -0.3236  0.4001
  366MOL0     C49323   1.811   0.827   9.712  0.3478  0.2941 -0.3991
  366MOL0     C49324   1.735   0.773   9.820 -0.1210 -0.1396 -0.1873
  366MOL0     N49325   1.681   0.600  10.570  0.8686  0.0862  0.7311
  366MOL0     N49326   1.758   0.675  10.641  0.8288  0.2050 -0.4082
  366MOL0     C49327   2.852   1.245  10.972  0.4655  1.4521 -0.4388
  366MOL0     C49328   2.972   1.312  10.994 -0.1733 -0.6886 -0.0906
  366MOL0     C49329   3.241   1.659  11.139 -0.2589 -0.2727  0.4830
  366MOL0     C49330   3.360   1.589  11.156 -0.1060 -0.2739 -1.4097
  366MOL0     C49331   3.488   1.650  11.167 -0.4755 -0.1759  0.5909
  366MOL0     C49332   3.498   1.788  11.138 -0.1783 -0.2456 -0.5078
  366MOL0     O49333   3.621   1.860  11.140 -0.1004  0.1002 -0.4779
  366MOL0     C49334   3.736   1.776  11.186 -0.9561 -0.7784 -0.1720
  366MOL0     C49335   3.852   1.873  11.212  0.0003 -0.1077 -0.5937
  366MOL0     C49336   3.967   1.789  11.273  0.4807  0.4700  0.5626
  366MOL0     C49337   4.063   1.769  11.161 -0.1324  0.3666 -0.5437
  366MOL0     C49338   4.187   1.730  11.225 -0.0840 -0.7255  0.2493
  366MOL0     C49339   4.286   1.679  11.267 -0.4468 -0.6849  0.2543
  366MOL0     C49340   3.374   1.854  11.121 -0.0483  0.1428  0.4415
  366MOL0     C49341   3.250   1.797  11.128  0.7249 -0.1901  0.7423
  366MOL0     C49342   3.128   1.893  11.116  0.3864 -0.9866 -0.1235
  366MOL0     H49343   2.958   1.398  11.325 -3.1928  1.7359  0.5167
  366MOL0     H49344   2.745   1.242  11.281  1.4609 -1.0614 -0.0144
  366MOL0     H49345   2.585   1.155  10.886  0.1157  0.9887  0.9976
  366MOL0     H49346   2.678   1.012  10.935  2.1477  2.3457 -0.6313
  366MOL0     H49347   2.411   1.082  11.057  0.6982  1.6233 -1.4221
  366MOL0     H49348   2.528   0.951  11.104 -1.5526  0.8318  1.7755
  366MOL0     H49349   2.474   0.829  10.903 -2.8163 -0.9864  0.1540
  366MOL0     H49350   2.450   0.986  10.823  2.6872  0.7586  0.5178
  366MOL0     H49351   2.251   0.889  11.031 -0.5810  1.5997 -0.2494
  366MOL0     H49352   2.214   0.986  10.912  3.5421  2.3152  2.7112
  366MOL0     H49353   2.270   0.683  10.903  4.1887  2.7480  0.2728
  366MOL0     H49354   2.114   0.763  10.884 -0.6410  0.8540  0.0512
  366MOL0     H49355   2.220   0.879  10.673 -1.0328  0.5055  0.1839
  366MOL0     H49356   2.327   0.744  10.670 -1.0587 -1.9482 -0.4126
  366MOL0     H49357   2.141   0.583  10.670  0.6008 -0.4852 -0.3273
  366MOL0     H49358   2.133   0.691  10.542  0.9475  1.9510 -0.0206
  366MOL0     H49359   1.962   0.708  10.786 -3.2786 -2.2873  0.4886
  366MOL0     H49360   1.950   0.835  10.667  0.6774  1.2125  1.5466
  366MOL0     H49361   1.989   0.517  10.458  0.5473  1.3265  0.1799
  366MOL0     H49362   1.764   0.320  10.406 -2.4836 -1.2031  1.8979
  366MOL0     H49363   1.617   0.401  10.385 -0.0853  1.0280 -1.4016
  366MOL0     H49364   1.886   0.498  10.263  1.8441 -5.9833 -1.7063
  366MOL0     H49365   1.789   0.392  10.181  2.2219  0.8374 -0.3575
  366MOL0     H49366   1.648   0.637  10.281 -0.3580 -0.5794 -0.8077
  366MOL0     H49367   1.616   0.536  10.141 -1.4909 -0.3285  3.1687
  366MOL0     H49368   1.806   0.613  10.036 -0.0759  1.4495 -0.8471
  366MOL0     H49369   1.851   0.724  10.171  1.6565 -0.6980 -0.3090
  366MOL0     H49370   1.824   0.993  10.052 -3.4563 -2.8159  0.8152
  366MOL0     H49371   1.994   1.068   9.862 -1.9758  0.8704  0.4562
  366MOL0     H49372   1.820   1.197   9.391 -0.5201 -1.3413  2.0419
  366MOL0     H49373   1.892   1.257   9.166 -0.0721  1.2413 -0.7947
  366MOL0     H49374   2.239   1.393   8.944 -1.7783  1.6452  2.4242
  366MOL0     H49375   2.341   1.368   9.091  0.0072  1.6438 -0.6931
  366MOL0     H49376   2.339   1.145   9.076  0.0280 -1.1315  0.2999
  366MOL0     H49377   2.207   1.130   8.961  1.3240 -1.1704  0.3293
  366MOL0     H49378   2.469   1.271   8.884 -1.3253  1.1979  0.4584
  366MOL0     H49379   2.453   1.099   8.865  1.4268  0.7404 -1.8206
  366MOL0     H49380   2.270   1.308   8.733  0.3010  0.0676 -3.7960
  366MOL0     H49381   2.249   1.139   8.708 -0.4713 -1.0872  1.5716
  366MOL0     H49382   2.503   1.144   8.635  1.3596  1.4991  2.2725
  366MOL0     H49383   2.500   1.314   8.667 -1.0206  1.0810 -1.5905
  366MOL0     H49384   2.309   1.178   8.460 -0.4336  0.7083 -1.4332
  366MOL0     H49385   2.324   1.348   8.495  3.0987  1.6239 -0.7418
  366MOL0     H49386   2.577   1.293   8.388  0.2875 -1.3371 -2.4169
  366MOL0     H49387   2.431   1.303   8.286 -0.6511 -2.4000 -1.6775
  366MOL0     H49388   2.527   1.031   8.398 -0.0225 -0.9194 -1.2147
  366MOL0     H49389   2.412   1.076   8.263 -0.1379  1.2360 -1.0259
  366MOL0     H49390   2.298   1.274   9.298  0.4368  2.0774  3.2601
  366MOL0     H49391   2.217   1.184   9.535  0.1681 -2.5231 -0.8041
  366MOL0     H49392   1.781   0.784   9.617 -2.6538  0.0560  0.5457
  366MOL0     H49393   1.674   0.684   9.812  1.7696 -1.5585  0.4368
  366MOL0     H49394   2.823   1.212  10.873  4.0104  2.3372 -1.9153
  366MOL0     H49395   3.009   1.327  10.893 -1.2527 -0.7295 -0.5165
  366MOL0     H49396   3.375   1.484  11.180  4.7703  0.2472 -1.2166
  366MOL0     H49397   3.572   1.583  11.180 -0.5068 -0.5200 -0.8856
  366MOL0     H49398   3.758   1.708  11.103 -2.1011  0.4734 -1.5495
  366MOL0     H49399   3.720   1.712  11.273  1.8604  0.8490  1.7270
  366MOL0     H49400   3.819   1.943  11.289 -0.2172 -0.7490 -0.0877
  366MOL0     H49401   3.886   1.930  11.125  1.2435 -0.2803 -0.2306
  366MOL0     H49402   3.932   1.691  11.309 -0.4619  0.7925  0.5665
  366MOL0     H49403   4.020   1.850  11.346  0.1406  1.6325 -0.1477
  366MOL0     H49404   4.041   1.688  11.090  1.8228  1.2222 -2.2274
  366MOL0     H49405   4.085   1.863  11.109  3.7294  0.0872  0.3357
  366MOL0     H49406   4.387   1.648  11.288  0.9839  2.6696 -1.0531
  366MOL0     H49407   3.384   1.960  11.101  0.5008 -0.1486 -0.9787
  366MOL0     H49408   3.141   2.001  11.110 -1.2766 -0.5197  2.8052
  366MOL0     H49409   3.072   1.866  11.026  1.9277  0.5318 -1.6160
  366MOL0     H49410   3.061   1.874  11.200  0.4539 -3.5618 -0.5497
  367MOL0     O49411   3.024   0.713   7.517  0.0818  0.2781  0.7552
  367MOL0     C49412   3.093   0.647   7.442  0.8405  0.6926  1.1989
  367MOL0     O49413   3.097   0.509   7.429 -0.0843 -0.3139 -0.0853
  367MOL0     C49414   3.012   0.434   7.506 -0.0665  1.3437  0.7223
  367MOL0     C49415   3.031   0.432   7.641 -0.4004  0.2909  0.2746
  367MOL0     C49416   2.935   0.370   7.723 -0.5831 -0.4504 -0.6631
  367MOL0     C49417   2.829   0.308   7.674 -0.3232  0.0771  0.6907
  367MOL0     O49418   2.733   0.265   7.768 -0.4603 -0.4264  0.0387
  367MOL0     C49419   2.639   0.167   7.724 -0.5675  0.2105 -1.2208
  367MOL0     C49420   2.582   0.097   7.844  0.5060 -0.7421  0.3833
  367MOL0     C49421   2.511   0.188   7.955 -0.2366 -0.1167 -0.7568
  367MOL0     C49422   2.484   0.104   8.083 -0.1823 -0.6258  0.3591
  367MOL0     C49423   2.374  -0.008   8.072  0.2667 -0.5159  0.7799
  367MOL0     C49424   2.302  -0.039   8.199  0.6497  0.5035  0.5833
  367MOL0     C49425   2.186   0.062   8.205 -0.5764 -0.3598 -0.7170
  367MOL0     C49426   2.108   0.053   8.337 -0.2750 -0.0146 -0.3782
  367MOL0     N49427   2.070  -0.083   8.378 -0.6260 -0.1728  0.5017
  367MOL0     C49428   1.991  -0.165   8.299  0.9926 -0.4195  0.9116
  367MOL0     C49429   1.972  -0.275   8.372  0.1804 -0.3139  0.3887
  367MOL0     C49430   1.925  -0.414   8.329 -0.8351 -0.4890  1.6567
  367MOL0     C49431   1.790  -0.446   8.394 -0.3958  0.2629 -0.3205
  367MOL0     C49432   1.751  -0.592   8.404  0.7025 -0.4596 -0.6674
  367MOL0     C49433   1.597  -0.605   8.445 -0.4612 -0.8412 -0.2115
  367MOL0     O49434   1.517  -0.562   8.336  0.0300 -0.0619 -0.1738
  367MOL0     C49435   1.390  -0.534   8.367  0.2235 -0.3801 -0.8693
  367MOL0     C49436   1.311  -0.462   8.275 -0.2318 -0.8566  0.0202
  367MOL0     C49437   1.180  -0.432   8.306  0.5911 -0.1225  0.3648
  367MOL0     C49438   1.122  -0.459   8.429  0.4813  0.6189  0.0768
  367MOL0     C49439   0.986  -0.407   8.462 -0.2047  0.1407 -0.3889
  367MOL0     O49440   0.916  -0.469   8.561 -0.2493  0.5643 -1.3627
  367MOL0     C49441   0.828  -0.401   8.645 -0.4787 -0.2497  0.5546
  367MOL0     C49442   0.838  -0.255   8.679 -1.0399  1.0447  0.7959
  367MOL0     C49443   0.739  -0.194   8.761 -0.0404 -0.5797  0.6861
  367MOL0     C49444   0.650  -0.264   8.842 -0.0898  0.2464  0.1904
  367MOL0     O49445   0.557  -0.222   8.929 -0.4692 -0.0814 -0.7625
  367MOL0     C49446   0.560  -0.084   8.969  0.6943  0.2766 -0.3757
  367MOL0     C49447   0.470  -0.067   9.096  0.3536 -0.1846 -0.2988
  367MOL0     C49448   0.523  -0.156   9.205 -0.3140 -0.6374 -0.2174
  367MOL0     C49449   0.454  -0.159   9.334  0.4103 -1.1376  0.5159
  367MOL0     C49450   0.516  -0.265   9.434  0.1068 -0.1370  0.1422
  367MOL0     C49451   0.440  -0.279   9.566 -0.1078 -0.4038  0.1006
  367MOL0     C49452   0.293  -0.319   9.551 -0.0328 -0.3850  0.3917
  367MOL0     C49453   0.220  -0.316   9.690  0.9178  0.6488  0.2471
  367MOL0    Cl49454   0.292  -0.456   9.782 -0.1359 -0.4508 -0.5244
  367MOL0     C49455   0.650  -0.404   8.814  0.7285  0.1304  0.2632
  367MOL0     C49456   0.734  -0.471   8.722  0.2104 -0.6297  0.6630
  367MOL0     O49457   0.948  -0.310   8.404 -0.3718 -0.0141  0.5779
  367MOL0     C49458   1.202  -0.522   8.529 -0.2215 -0.2270 -0.2539
  367MOL0     C49459   1.327  -0.556   8.494 -0.1821 -0.0409 -0.3633
  367MOL0     N49460   2.042  -0.255   8.487 -0.1828  0.7290  0.0300
  367MOL0     N49461   2.113  -0.139   8.490  0.2106  0.0345 -0.0439
  367MOL0     C49462   2.818   0.295   7.538 -0.2198 -0.2629 -0.1260
  367MOL0     C49463   2.908   0.357   7.450 -0.9836 -0.4983  0.2274
  367MOL0     C49464   3.176   0.731   7.346 -0.5552  0.0435 -0.3361
  367MOL0     C49465   3.236   0.847   7.405 -0.9419 -0.3189 -0.2844
  367MOL0     C49466   3.321   0.934   7.332  1.2386 -0.5689  0.2256
  367MOL0     C49467   3.355   0.894   7.199 -0.7663 -0.1585  0.0364
  367MOL0     O49468   3.427   0.959   7.100  0.1431 -0.2190  0.2609
  367MOL0     C49469   3.482   1.087   7.123  0.4683 -0.7940 -0.4418
  367MOL0     C49470   3.573   1.140   7.012  0.0268  0.3883 -1.0565
  367MOL0     C49471   3.612   1.286   7.038  0.5333 -0.6653 -0.3679
  367MOL0     C49472   3.701   1.335   6.932 -0.7940  0.4917  0.4983
  367MOL0     C49473   3.730   1.481   6.952 -0.0624  0.4307  0.6700
  367MOL0     C49474   3.725   1.600   6.965  0.6504 -0.3982  0.1633
  367MOL0     C49475   3.302   0.781   7.139  0.5374 -0.0833  0.0788
  367MOL0     C49476   3.209   0.701   7.210  0.3039  0.3957  0.3034
  367MOL0     C49477   3.123   0.603   7.134 -1.1312  0.1994  0.3715
  367MOL0     H49478   3.111   0.481   7.696 -2.4240  0.3043  3.4610
  367MOL0     H49479   2.958   0.384   7.828  0.5992  2.5031 -1.2168
  367MOL0     H49480   2.560   0.217   7.666  0.7413  3.2819 -0.5982
  367MOL0     H49481   2.679   0.091   7.656 -0.7754 -2.2919  1.2957
  367MOL0     H49482   2.664   0.035   7.881  0.1207 -1.5273 -0.0475
  367MOL0     H49483   2.501   0.032   7.809  1.9598 -0.4930 -4.0587
  367MOL0     H49484   2.414   0.224   7.918 -0.1947  1.7301  0.7728
  367MOL0     H49485   2.565   0.279   7.984 -0.8738 -0.5973  2.2960
  367MOL0     H49486   2.578   0.052   8.105  0.7124 -1.0238 -3.5980
  367MOL0     H49487   2.457   0.177   8.160 -0.3288 -1.2213  0.8812
  367MOL0     H49488   2.294   0.017   8.001  2.3178 -2.0781 -2.2741
  367MOL0     H49489   2.433  -0.095   8.044 -0.7832 -0.8956 -0.3789
  367MOL0     H49490   2.256  -0.137   8.184  1.2822  0.6457 -3.4812
  367MOL0     H49491   2.359  -0.035   8.292  0.4952 -0.2968  0.7166
  367MOL0     H49492   2.113   0.055   8.125  2.4780  2.1916 -4.0154
  367MOL0     H49493   2.223   0.165   8.207 -0.2894 -0.4600  0.5323
  367MOL0     H49494   2.161   0.105   8.417 -3.4021 -0.4058  2.1708
  367MOL0     H49495   2.022   0.117   8.315  0.5555  0.0394 -4.2168
  367MOL0     H49496   1.947  -0.129   8.206 -0.4131 -2.8595  0.5625
  367MOL0     H49497   1.914  -0.414   8.220  1.3684  0.6879  1.3680
  367MOL0     H49498   2.008  -0.478   8.359  0.3391 -1.4190 -2.8317
  367MOL0     H49499   1.796  -0.413   8.498  0.7994 -0.3694 -0.1765
  367MOL0     H49500   1.703  -0.396   8.349 -0.8204 -2.1011 -2.3156
  367MOL0     H49501   1.810  -0.653   8.473  0.1058 -2.7307 -2.0642
  367MOL0     H49502   1.780  -0.628   8.305 -0.9410  1.1032 -1.7858
  367MOL0     H49503   1.594  -0.544   8.536 -1.0007 -0.6207 -0.3732
  367MOL0     H49504   1.575  -0.709   8.470 -0.6243 -0.0942  3.3562
  367MOL0     H49505   1.354  -0.435   8.179  2.1075 -2.1882  0.6181
  367MOL0     H49506   1.124  -0.375   8.232 -0.7816  1.3601  2.4171
  367MOL0     H49507   0.921  -0.204   8.632 -1.6514  0.4454 -1.0118
  367MOL0     H49508   0.748  -0.086   8.769  1.8618 -0.8474  3.5400
  367MOL0     H49509   0.662  -0.061   9.001  1.4663 -1.0443 -1.7580
  367MOL0     H49510   0.527  -0.015   8.891 -1.9374  1.8347  1.9325
  367MOL0     H49511   0.473   0.039   9.121  2.1611  0.2243 -2.0346
  367MOL0     H49512   0.370  -0.105   9.072  0.2339 -0.3784  0.4792
  367MOL0     H49513   0.532  -0.257   9.164  1.6885 -1.0520  1.0795
  367MOL0     H49514   0.624  -0.124   9.233 -0.6679 -0.3320  0.7446
  367MOL0     H49515   0.349  -0.177   9.310  0.4036 -0.8907  0.3588
  367MOL0     H49516   0.463  -0.065   9.390 -0.5322 -1.0829  0.5873
  367MOL0     H49517   0.623  -0.259   9.459  0.3862  0.4738 -1.1530
  367MOL0     H49518   0.493  -0.363   9.391 -3.0383 -0.7003  2.7334
  367MOL0     H49519   0.481  -0.353   9.636 -1.1716 -3.1485 -1.9884
  367MOL0     H49520   0.436  -0.180   9.611 -4.2125  0.2396 -1.2985
  367MOL0     H49521   0.289  -0.422   9.514 -2.6130  0.0786 -0.8500
  367MOL0     H49522   0.248  -0.252   9.476  0.8180 -0.6299 -0.3530
  367MOL0     H49523   0.242  -0.216   9.728 -0.5112  0.9603  0.2910
  367MOL0     H49524   0.112  -0.332   9.685  0.9241  0.5824  0.3096
  367MOL0     H49525   0.585  -0.467   8.874 -0.0079 -0.4772 -1.1257
  367MOL0     H49526   0.738  -0.579   8.737 -1.8708 -0.8975 -0.4189
  367MOL0     H49527   1.181  -0.531   8.635 -0.3856  3.0109  0.0860
  367MOL0     H49528   1.378  -0.594   8.581 -0.0675 -0.1448 -0.4751
  367MOL0     H49529   2.729   0.250   7.495  1.1611 -2.9830 -0.3747
  367MOL0     H49530   2.883   0.380   7.347 -0.0360 -0.4652  0.0013
  367MOL0     H49531   3.208   0.861   7.509 -0.6712 -0.8076 -0.1449
  367MOL0     H49532   3.362   1.027   7.371 -0.7259  0.7744 -0.7734
  367MOL0     H49533   3.528   1.085   7.223 -0.0996  0.0980 -0.1503
  367MOL0     H49534   3.402   1.159   7.141 -0.0211 -1.5114  0.3213
  367MOL0     H49535   3.518   1.137   6.918 -3.4852  3.1695  0.6739
  367MOL0     H49536   3.665   1.080   7.011  1.5392  2.5564  0.4290
  367MOL0     H49537   3.677   1.284   7.126  0.3804 -0.8996 -0.2587
  367MOL0     H49538   3.526   1.348   7.065  1.9120  0.7189  1.1493
  367MOL0     H49539   3.782   1.262   6.936 -1.6325 -0.4163  1.8200
  367MOL0     H49540   3.643   1.336   6.839 -1.9562 -1.6840  1.1486
  367MOL0     H49541   3.706   1.703   6.942  0.0990 -1.0334 -2.5602
  367MOL0     H49542   3.310   0.779   7.031 -1.0428  1.8210 -0.1318
  367MOL0     H49543   3.198   0.531   7.098 -1.6625  0.5287 -1.5024
  367MOL0     H49544   3.048   0.549   7.193 -1.0185 -2.8526 -1.9955
  367MOL0     H49545   3.087   0.658   7.047  0.0870 -0.8176 -0.8177
  368MOL0     O49546  10.327  10.789   2.246  0.3689 -0.3842 -0.6034
  368MOL0     C49547  10.252  10.878   2.306  0.5997 -0.6493 -0.1956
  368MOL0     O49548  10.286  10.955   2.405  0.2327  0.1000 -0.9666
  368MOL0     C49549  10.408  10.931   2.468 -0.7463  0.3581 -0.0939
  368MOL0     C49550  10.519  11.011   2.427 -0.4368 -0.6555 -0.0598
  368MOL0     C49551  10.643  10.998   2.488 -0.0666 -0.3133  0.0951
  368MOL0     C49552  10.662  10.896   2.586  1.2746 -1.6327  0.0378
  368MOL0     O49553  10.788  10.874   2.634  0.3204  0.3854 -0.2144
  368MOL0     C49554  10.837  10.739   2.640  0.4332  0.6028 -0.1603
  368MOL0     C49555  10.991  10.735   2.673 -0.5132 -0.1429 -0.7650
  368MOL0     C49556  11.038  10.589   2.687 -0.1782  0.2642  0.0348
  368MOL0     C49557  10.969  10.509   2.798  0.7229 -1.5225  0.2885
  368MOL0     C49558  11.046  10.383   2.829 -0.5717 -0.5126 -0.5509
  368MOL0     C49559  10.989  10.312   2.941  0.3937 -0.5142 -0.1986
  368MOL0     C49560  11.089  10.205   2.995 -0.4312  0.2291  0.4522
  368MOL0     C49561  11.054  10.069   2.925  0.1504 -0.4201 -0.3145
  368MOL0     N49562  11.085  10.064   2.785 -0.2816  0.1176  0.0835
  368MOL0     C49563  11.192  10.094   2.712  0.0634 -0.4468 -0.0439
  368MOL0     C49564  11.145  10.058   2.587 -0.2290  0.4971  0.0039
  368MOL0     C49565  11.211  10.060   2.451 -0.1433  0.4057 -0.2350
  368MOL0     C49566  11.151  10.158   2.345 -0.1963  0.1835 -0.1029
  368MOL0     C49567  11.205  10.299   2.352  0.1203  0.6110  0.4183
  368MOL0     C49568  11.151  10.373   2.244 -0.0656  0.6910 -0.4840
  368MOL0     O49569  11.214  10.354   2.118  0.0336  0.8092  0.0063
  368MOL0     C49570  11.319  10.447   2.094  0.3005 -0.0309  0.3929
  368MOL0     C49571  11.313  10.589   2.084 -0.1792 -0.4678  0.5130
  368MOL0     C49572  11.424  10.670   2.048  0.1243 -0.4843  0.2013
  368MOL0     C49573  11.546  10.603   2.028  1.1701 -0.2551  0.8333
  368MOL0     C49574  11.664  10.676   1.987 -0.9325 -0.8731 -0.2225
  368MOL0     O49575  11.692  10.802   2.042 -0.9501 -0.3167 -0.3981
  368MOL0     C49576  11.803  10.872   1.996 -0.4083 -0.2699 -0.4576
  368MOL0     C49577  11.820  10.923   1.864 -0.4205  0.5543  0.7412
  368MOL0     C49578  11.938  10.992   1.835  0.7329 -0.2663 -0.1585
  368MOL0     C49579  12.044  11.011   1.929 -0.0518 -0.5450  0.2642
  368MOL0     O49580  12.155  11.077   1.887  0.4516 -0.2113 -0.2739
  368MOL0     C49581  12.273  10.991   1.858  0.0319 -0.8246  0.3391
  368MOL0     C49582  12.355  11.063   1.753  0.0355  0.0817  0.1102
  368MOL0     C49583  12.456  10.966   1.689  0.2933  0.6697  0.1849
  368MOL0     C49584  12.388  10.861   1.600 -0.0194 -0.6712 -0.2108
  368MOL0     C49585  12.503  10.792   1.520 -0.4963 -0.1643 -0.3188
  368MOL0     C49586  12.576  10.884   1.432 -0.2562  0.2655 -0.6245
  368MOL0     C49587  12.482  10.947   1.332  0.4907  0.1590 -0.3036
  368MOL0     C49588  12.553  11.037   1.229 -0.4241 -0.5689 -0.5970
  368MOL0    Cl49589  12.450  11.045   1.086 -0.5093  0.0738 -0.1525
  368MOL0     C49590  12.022  10.957   2.055  0.3460 -0.4407  0.2360
  368MOL0     C49591  11.907  10.896   2.094  0.5112  0.5852 -0.3376
  368MOL0     O49592  11.739  10.617   1.912 -0.1250 -0.1489 -0.1438
  368MOL0     C49593  11.552  10.462   2.039 -0.4975 -0.1064 -0.3923
  368MOL0     C49594  11.440  10.386   2.066  0.7716 -0.3986  0.0674
  368MOL0     N49595  11.011  10.035   2.590  0.2811 -0.8308 -0.6268
  368MOL0     N49596  10.977  10.031   2.714  0.0162  0.3640 -0.4052
  368MOL0     C49597  10.547  10.836   2.635 -0.6683  0.8962  0.1377
  368MOL0     C49598  10.422  10.847   2.584 -0.0469 -0.6546  0.9597
  368MOL0     C49599  10.115  10.910   2.252  1.2786  1.0383 -0.3607
  368MOL0     C49600  10.070  11.047   2.262  0.4995 -0.1516  0.1622
  368MOL0     C49601   9.942  11.081   2.219 -0.1580 -0.3683 -0.0259
  368MOL0     C49602   9.865  10.985   2.152 -0.5051 -1.5737 -0.3487
  368MOL0     O49603   9.739  11.007   2.108  0.4319 -0.8306  0.4754
  368MOL0     C49604   9.660  11.122   2.148  0.4416 -0.7262 -0.5467
  368MOL0     C49605   9.526  11.095   2.082 -0.8153 -0.5805 -0.6819
  368MOL0     C49606   9.421  11.200   2.142 -0.5644  0.3638  0.4205
  368MOL0     C49607   9.289  11.210   2.059  0.1929 -0.3644 -0.9343
  368MOL0     C49608   9.220  11.079   2.046  0.4173  0.3747 -0.4734
  368MOL0     C49609   9.164  10.975   2.029  0.5688 -0.1236 -0.8359
  368MOL0     C49610   9.919  10.857   2.120  0.3549 -0.8822 -0.3931
  368MOL0     C49611  10.037  10.810   2.175  0.4450 -0.3054  0.7072
  368MOL0     C49612  10.078  10.659   2.143 -0.5813  0.3162 -0.1931
  368MOL0     H49613  10.495  11.068   2.337  0.3486 -0.1298  0.0458
  368MOL0     H49614  10.724  11.062   2.454  0.0410 -0.2782  0.4161
  368MOL0     H49615  10.787  10.684   2.720 -0.6092  1.4064 -0.2283
  368MOL0     H49616  10.815  10.685   2.548 -2.7236  0.9007  0.3084
  368MOL0     H49617  11.011  10.793   2.763  0.8174  0.9484 -1.7092
  368MOL0     H49618  11.038  10.791   2.591  1.3411 -0.1313  0.2663
  368MOL0     H49619  11.147  10.592   2.697 -0.0144 -0.8546 -1.1074
  368MOL0     H49620  11.025  10.521   2.603  1.2993 -1.0302  0.7995
  368MOL0     H49621  10.952  10.564   2.891 -1.6649 -0.3205 -0.7619
  368MOL0     H49622  10.873  10.472   2.760  2.6990 -5.1678 -1.6608
  368MOL0     H49623  11.052  10.310   2.748 -2.5146 -1.6633  0.2842
  368MOL0     H49624  11.145  10.412   2.866 -0.5426 -0.4312 -0.6909
  368MOL0     H49625  10.964  10.375   3.027 -2.4389 -2.0589  0.2161
  368MOL0     H49626  10.890  10.272   2.918 -0.4483 -0.0241  2.2720
  368MOL0     H49627  11.067  10.191   3.101 -1.3937  0.8794  0.3595
  368MOL0     H49628  11.194  10.231   2.983  0.6376 -4.2950 -2.4782
  368MOL0     H49629  11.113   9.987   2.968  2.0199 -0.5986 -2.9751
  368MOL0     H49630  10.947  10.058   2.944  0.0900 -0.7486 -0.8422
  368MOL0     H49631  11.285  10.139   2.745  0.4028  0.0158 -1.5814
  368MOL0     H49632  11.315  10.089   2.471  0.8670 -2.3112 -1.0120
  368MOL0     H49633  11.212   9.964   2.398  3.8424  0.8442 -1.3025
  368MOL0     H49634  11.142  10.122   2.242 -2.5015 -0.8494  0.3762
  368MOL0     H49635  11.044  10.153   2.368 -0.3431 -1.8059 -1.1044
  368MOL0     H49636  11.314  10.294   2.345  0.0235 -1.0619 -0.2662
  368MOL0     H49637  11.183  10.344   2.449 -1.4906 -0.6474  0.6778
  368MOL0     H49638  11.163  10.479   2.267  0.0033  0.9026 -1.4359
  368MOL0     H49639  11.043  10.356   2.244 -0.0441 -2.0327  5.8687
  368MOL0     H49640  11.222  10.647   2.090  0.9400  1.4208 -0.1436
  368MOL0     H49641  11.425  10.779   2.044 -1.7730 -0.3754  1.5143
  368MOL0     H49642  11.751  10.924   1.781  2.8666  0.6967 -2.2617
  368MOL0     H49643  11.955  11.041   1.740 -2.7896  0.2635 -0.6438
  368MOL0     H49644  12.335  10.961   1.942  1.9619  0.0657 -0.6845
  368MOL0     H49645  12.242  10.895   1.815 -0.9477  0.5414 -2.2229
  368MOL0     H49646  12.284  11.101   1.679 -0.4666 -0.1353  0.4793
  368MOL0     H49647  12.401  11.156   1.788  0.4684  0.4691 -1.4286
  368MOL0     H49648  12.517  11.031   1.625 -0.0868 -0.0540 -0.9282
  368MOL0     H49649  12.532  10.925   1.756  2.1776  3.7456  0.1652
  368MOL0     H49650  12.319  10.907   1.529  4.1569  4.2198 -1.7753
  368MOL0     H49651  12.344  10.774   1.650 -0.3113 -0.8336 -0.7432
  368MOL0     H49652  12.469  10.707   1.461  2.2171 -0.2669 -1.9129
  368MOL0     H49653  12.579  10.767   1.595  2.8599  3.2486 -2.2177
  368MOL0     H49654  12.631  10.963   1.484 -1.0657 -1.6983  3.6740
  368MOL0     H49655  12.649  10.827   1.373  1.8478  0.7687  1.3475
  368MOL0     H49656  12.401  11.004   1.378 -0.4936 -1.3903 -0.0295
  368MOL0     H49657  12.435  10.864   1.278  2.7029 -0.1720 -1.8573
  368MOL0     H49658  12.579  11.139   1.261  0.3727 -2.0117  4.1557
  368MOL0     H49659  12.655  11.003   1.207  0.2601 -0.0785  1.5293
  368MOL0     H49660  12.101  10.962   2.128  0.2856  0.2867  0.2644
  368MOL0     H49661  11.866  10.876   2.193 -3.7899  0.5280 -1.9215
  368MOL0     H49662  11.643  10.406   2.021 -2.1650 -2.6652 -1.4817
  368MOL0     H49663  11.442  10.278   2.077  1.7834 -0.0906  5.4588
  368MOL0     H49664  10.551  10.760   2.712  1.5126  1.8896  1.0806
  368MOL0     H49665  10.337  10.798   2.629 -1.1033 -1.3780 -1.6208
  368MOL0     H49666  10.133  11.124   2.306  4.0383 -1.7057 -1.7221
  368MOL0     H49667   9.916  11.186   2.205 -0.5659 -0.6319 -1.4669
  368MOL0     H49668   9.706  11.216   2.118  1.0557 -0.1379  1.9934
  368MOL0     H49669   9.646  11.127   2.256 -5.8035 -1.2094 -0.9485
  368MOL0     H49670   9.490  10.999   2.123 -2.8381  0.1340 -0.6798
  368MOL0     H49671   9.544  11.092   1.975  0.3478  0.4906 -0.5320
  368MOL0     H49672   9.466  11.299   2.153  0.1783  0.2291 -1.1565
  368MOL0     H49673   9.384  11.178   2.243  1.1684  0.5063  1.1267
  368MOL0     H49674   9.216  11.270   2.114  1.9550  0.8620  0.1580
  368MOL0     H49675   9.317  11.262   1.967  1.8506 -1.1401 -0.9018
  368MOL0     H49676   9.122  10.878   2.015  0.0692 -0.0174 -0.1380
  368MOL0     H49677   9.852  10.799   2.057  1.3080  0.9805 -3.3038
  368MOL0     H49678  10.162  10.640   2.076 -0.8354 -1.8398  0.0148
  368MOL0     H49679  10.096  10.621   2.244 -1.0007  3.6680  1.2658
  368MOL0     H49680   9.989  10.610   2.102  0.6108  1.3177 -4.5561
  369MOL0     O49681   3.177  11.450  10.392 -0.1908  0.0018 -1.5048
  369MOL0     C49682   3.255  11.364  10.357 -0.4586 -0.2684  0.1186
  369MOL0     O49683   3.238  11.294  10.245  0.1950 -0.4316 -0.8747
  369MOL0     C49684   3.142  11.350  10.164 -1.4308 -0.2443 -0.3926
  369MOL0     C49685   3.183  11.448  10.072 -0.4908 -0.0093  0.3169
  369MOL0     C49686   3.092  11.499   9.979 -0.4708 -0.7369  0.1314
  369MOL0     C49687   2.951  11.462   9.984 -0.2201  0.8238  0.3073
  369MOL0     O49688   2.865  11.511   9.897  0.7093  0.0037 -0.1497
  369MOL0     C49689   2.858  11.659   9.883 -0.9999 -0.4960  1.0357
  369MOL0     C49690   2.716  11.698   9.903 -0.5891  0.7357 -0.9809
  369MOL0     C49691   2.694  11.851   9.888  0.5142  0.2058  0.2454
  369MOL0     C49692   2.544  11.902   9.864 -0.0564  0.0855  0.0395
  369MOL0     C49693   2.460  11.878   9.991  0.3162 -1.0353  0.8114
  369MOL0     C49694   2.319  11.935   9.974 -0.2873  0.2675  0.0738
  369MOL0     C49695   2.296  12.069   9.882  1.0503  0.3538 -0.0125
  369MOL0     C49696   2.172  12.151   9.914 -0.7989 -0.0833  0.1248
  369MOL0     N49697   2.175  12.204  10.055  0.3173  0.4970 -0.0844
  369MOL0     C49698   2.219  12.326  10.099 -0.4989  0.7375 -0.5313
  369MOL0     C49699   2.182  12.333  10.232 -0.1262  0.3998  0.7113
  369MOL0     C49700   2.213  12.438  10.330  0.1604  0.0402  0.2961
  369MOL0     C49701   2.110  12.559  10.313  0.4159  0.0613 -0.2741
  369MOL0     C49702   2.038  12.593  10.448 -0.4012 -0.1568 -0.1121
  369MOL0     C49703   1.934  12.702  10.427 -0.7329 -0.2941 -0.0837
  369MOL0     O49704   1.832  12.659  10.329 -0.6422  0.3902 -0.4033
  369MOL0     C49705   1.719  12.585  10.381  0.5473 -0.1341  0.2036
  369MOL0     C49706   1.643  12.530  10.281  1.1620  0.0173  0.1048
  369MOL0     C49707   1.545  12.429  10.312 -0.5009  0.1680  0.1856
  369MOL0     C49708   1.509  12.417  10.444  0.4478 -0.1291 -0.2266
  369MOL0     C49709   1.396  12.328  10.469  1.1845  0.4908 -0.0996
  369MOL0     O49710   1.335  12.357  10.591  0.6409  1.0065  0.5914
  369MOL0     C49711   1.257  12.260  10.656  0.6690  0.0277  0.2406
  369MOL0     C49712   1.130  12.221  10.614 -0.2559 -1.1301  0.0780
  369MOL0     C49713   1.062  12.128  10.676 -0.2140  0.3569  0.1540
  369MOL0     C49714   1.126  12.057  10.784 -0.0867 -0.2495 -0.9339
  369MOL0     O49715   1.075  11.948  10.850 -0.8029  0.2139 -0.3655
  369MOL0     C49716   0.947  11.894  10.806  0.6066 -0.2247  0.0662
  369MOL0     C49717   0.916  11.768  10.884 -0.4474  0.3276 -1.2942
  369MOL0     C49718   0.771  11.712  10.870 -0.5792 -0.1192  0.1681
  369MOL0     C49719   0.739  11.620  10.988  0.6135 -0.3512  0.2167
  369MOL0     C49720   0.594  11.594  11.024 -0.6422  0.0440 -0.0524
  369MOL0     C49721   0.518  11.521  10.905 -0.3207  0.0894 -0.0265
  369MOL0     C49722   0.574  11.379  10.880 -0.2845 -0.3029  0.1810
  369MOL0     C49723   0.499  11.292  10.779 -0.6394  0.7224  0.3746
  369MOL0    Cl49724   0.517  11.354  10.611  0.1796 -0.0763 -0.0529
  369MOL0     C49725   1.250  12.091  10.827 -0.2172 -0.6314 -0.5553
  369MOL0     C49726   1.315  12.200  10.769  0.2329 -0.4563 -0.2745
  369MOL0     O49727   1.368  12.237  10.392  0.5725 -0.1352  0.2474
  369MOL0     C49728   1.561  12.498  10.542  0.1618 -0.1063 -0.1213
  369MOL0     C49729   1.680  12.574  10.515  0.4580 -0.0193  0.1935
  369MOL0     N49730   2.112  12.213  10.263 -0.1490 -0.5269 -0.6345
  369MOL0     N49731   2.114  12.135  10.159  0.6169 -0.1504 -0.4577
  369MOL0     C49732   2.919  11.366  10.076  0.5886 -0.1690  0.5080
  369MOL0     C49733   3.014  11.305  10.164  0.3622 -0.2657 -1.1604
  369MOL0     C49734   3.357  11.319  10.455 -0.2157 -0.3117  0.1913
  369MOL0     C49735   3.380  11.188  10.472  0.2649  1.1981  0.6268
  369MOL0     C49736   3.487  11.138  10.543  0.0352 -0.5889 -0.2971
  369MOL0     C49737   3.563  11.220  10.618  0.3764 -0.3701 -0.3745
  369MOL0     O49738   3.665  11.162  10.684  1.5334  0.2001 -0.1502
  369MOL0     C49739   3.778  11.237  10.705  1.1890  0.2061 -0.0592
  369MOL0     C49740   3.874  11.152  10.789 -0.2001  0.6860  0.4776
  369MOL0     C49741   3.852  11.141  10.935 -0.7360 -0.1015  0.1525
  369MOL0     C49742   3.853  11.281  10.985  0.9344 -0.0655 -0.5465
  369MOL0     C49743   3.960  11.376  10.949 -0.7180 -0.7220 -0.6295
  369MOL0     C49744   4.043  11.463  10.913  0.2278  0.7879  0.0867
  369MOL0     C49745   3.537  11.358  10.607  0.5327  0.1807 -0.1726
  369MOL0     C49746   3.431  11.412  10.535 -1.4080  0.6877  1.0635
  369MOL0     C49747   3.413  11.564  10.524 -1.1690 -0.4977  0.1888
  369MOL0     H49748   3.290  11.464  10.064 -0.4687  0.1543  0.9147
  369MOL0     H49749   3.126  11.571   9.905 -1.1054  0.5291  1.0244
  369MOL0     H49750   2.920  11.714   9.954  0.6850  1.1369 -1.5407
  369MOL0     H49751   2.889  11.686   9.782 -3.3075  0.9940  0.6330
  369MOL0     H49752   2.675  11.656   9.995  0.2050 -0.8826 -1.3316
  369MOL0     H49753   2.651  11.650   9.829 -0.2932 -2.6933  0.7636
  369MOL0     H49754   2.750  11.875   9.797  1.3676 -0.4088  0.5957
  369MOL0     H49755   2.737  11.906   9.973 -0.4714  0.3772  0.6407
  369MOL0     H49756   2.542  12.008   9.841 -0.4854  0.0197 -0.2304
  369MOL0     H49757   2.516  11.847   9.773 -1.1479 -0.5992  0.7730
  369MOL0     H49758   2.455  11.772  10.021 -2.1226 -0.4668  2.7337
  369MOL0     H49759   2.501  11.930  10.078 -2.6999  0.2700  1.5873
  369MOL0     H49760   2.253  11.861   9.926 -1.7019  1.4398  0.1518
  369MOL0     H49761   2.280  11.955  10.074  0.4959 -3.6240  1.3433
  369MOL0     H49762   2.286  12.033   9.779  0.1594 -3.4192  1.2424
  369MOL0     H49763   2.384  12.133   9.895  1.2750  0.2350 -0.8964
  369MOL0     H49764   2.167  12.231   9.840  0.7063 -1.1707 -1.2342
  369MOL0     H49765   2.091  12.080   9.894 -2.4066  1.5001  0.7955
  369MOL0     H49766   2.293  12.389  10.051 -0.6558  1.4953  0.2088
  369MOL0     H49767   2.216  12.399  10.433  2.7371  2.5524  1.3006
  369MOL0     H49768   2.306  12.493  10.314  0.0605  0.3656  0.8000
  369MOL0     H49769   2.168  12.641  10.270  1.7734 -0.1010  1.1742
  369MOL0     H49770   2.028  12.538  10.243  1.4167  0.5497 -1.6374
  369MOL0     H49771   2.111  12.618  10.526 -1.2766  1.0050  0.3629
  369MOL0     H49772   1.990  12.504  10.491 -0.1256 -0.1546  0.2086
  369MOL0     H49773   1.982  12.793  10.391 -2.5096  1.3252  1.4923
  369MOL0     H49774   1.902  12.727  10.528  2.3436 -1.0056  1.1789
  369MOL0     H49775   1.670  12.548  10.178  1.2537 -1.9829 -0.2695
  369MOL0     H49776   1.488  12.383  10.232  0.3539  0.8651 -0.8562
  369MOL0     H49777   1.081  12.274  10.533 -1.0353  0.4358  1.5163
  369MOL0     H49778   0.970  12.089  10.634 -0.6281  0.6372  0.7918
  369MOL0     H49779   0.867  11.964  10.832  2.5165  0.8525  3.9181
  369MOL0     H49780   0.944  11.870  10.700 -0.3925 -1.0474  0.2677
  369MOL0     H49781   0.994  11.693  10.867  0.9251  0.5151  2.8646
  369MOL0     H49782   0.931  11.792  10.990 -0.0628  0.5983 -1.4067
  369MOL0     H49783   0.696  11.792  10.874 -1.3209 -0.8398  1.4336
  369MOL0     H49784   0.768  11.647  10.782  0.1447  1.2130 -0.8767
  369MOL0     H49785   0.771  11.687  11.069  0.0151  3.0133 -2.0944
  369MOL0     H49786   0.790  11.524  10.994  0.4339 -0.4192  4.9760
  369MOL0     H49787   0.536  11.685  11.042 -2.2680 -1.4900  3.4715
  369MOL0     H49788   0.586  11.529  11.112 -2.5032 -1.8129 -1.4884
  369MOL0     H49789   0.410  11.514  10.916 -0.5629  1.9215 -0.8206
  369MOL0     H49790   0.518  11.586  10.817  1.1922  0.7397  0.4172
  369MOL0     H49791   0.577  11.337  10.981 -1.6733  1.1752  0.8888
  369MOL0     H49792   0.680  11.376  10.854 -0.6735  0.0783 -1.5887
  369MOL0     H49793   0.555  11.199  10.791  1.7794  2.1827  1.2057
  369MOL0     H49794   0.393  11.292  10.805 -0.5858  4.1696  1.0374
  369MOL0     H49795   1.308  12.046  10.906  0.0836  0.8416  0.0826
  369MOL0     H49796   1.410  12.239  10.804 -1.0421  0.9536  1.8577
  369MOL0     H49797   1.523  12.480  10.642  0.7181 -4.6992 -0.5311
  369MOL0     H49798   1.740  12.618  10.594  0.7615 -1.2555  0.6802
  369MOL0     H49799   2.815  11.333  10.075 -0.7129  3.4522  1.3015
  369MOL0     H49800   2.993  11.217  10.225  3.1119  0.6317  1.3785
  369MOL0     H49801   3.312  11.115  10.429  4.0387 -3.2889  1.4595
  369MOL0     H49802   3.499  11.030  10.547 -1.7777 -0.7949  0.9255
  369MOL0     H49803   3.754  11.332  10.754 -0.2175 -0.1077 -0.1074
  369MOL0     H49804   3.827  11.263  10.611  2.9204 -0.5676  0.5755
  369MOL0     H49805   3.978  11.176  10.767 -0.0705 -1.9825 -2.4586
  369MOL0     H49806   3.863  11.050  10.749 -2.7233  0.3974  1.6967
  369MOL0     H49807   3.930  11.082  10.983 -0.7727  0.2000  0.5953
  369MOL0     H49808   3.756  11.100  10.968 -0.5485 -0.0236  0.8056
  369MOL0     H49809   3.760  11.336  10.971  1.5145  1.2493  0.5062
  369MOL0     H49810   3.858  11.278  11.095 -0.0261 -2.0498 -0.5133
  369MOL0     H49811   4.115  11.542  10.906  1.8160 -0.6160 -0.0149
  369MOL0     H49812   3.614  11.421  10.652  0.7493  0.1426 -0.4851
  369MOL0     H49813   3.399  11.581  10.417  0.4253 -0.3515 -0.0177
  369MOL0     H49814   3.336  11.601  10.592  0.3772  2.4695  0.4714
  369MOL0     H49815   3.497  11.624  10.559 -1.4483 -0.2051  0.3678
  370MOL0     O49816  10.948   6.481   6.082  0.5079  0.3468 -0.0074
  370MOL0     C49817  10.924   6.481   5.957 -0.1296  0.3639  0.0373
  370MOL0     O49818  10.799   6.455   5.907  1.0384 -0.9387  0.5302
  370MOL0     C49819  10.712   6.440   6.012  0.1470 -0.9996 -0.1127
  370MOL0     C49820  10.666   6.556   6.067  0.5728  0.3338 -1.4040
  370MOL0     C49821  10.576   6.555   6.172  0.5484 -0.7602  0.3566
  370MOL0     C49822  10.518   6.435   6.216 -0.1508 -0.0361  0.4745
  370MOL0     O49823  10.432   6.442   6.329 -0.1688 -0.2977  0.5744
  370MOL0     C49824  10.342   6.337   6.369  0.1159  0.4299  0.7056
  370MOL0     C49825  10.283   6.376   6.501  0.1047 -0.2226 -0.3823
  370MOL0     C49826  10.369   6.342   6.619 -0.1043 -0.0825 -0.6926
  370MOL0     C49827  10.290   6.361   6.759 -0.3072 -0.2967  1.0873
  370MOL0     C49828  10.397   6.344   6.872  0.2988 -0.0866  1.0201
  370MOL0     C49829  10.532   6.416   6.854  0.3427 -0.5126 -0.3400
  370MOL0     C49830  10.608   6.427   6.986  0.1721  0.3675  0.0215
  370MOL0     C49831  10.709   6.318   7.007 -0.0095 -0.8779  0.0206
  370MOL0     N49832  10.784   6.359   7.129  0.4587  0.1814  0.4141
  370MOL0     C49833  10.892   6.440   7.128  1.2873 -0.4100  0.1364
  370MOL0     C49834  10.923   6.465   7.259 -0.0603  0.1722  0.1925
  370MOL0     C49835  11.040   6.540   7.313 -0.4771  0.1444  0.4900
  370MOL0     C49836  11.038   6.566   7.463  0.0289 -0.7162  0.1096
  370MOL0     C49837  11.163   6.641   7.506  1.2142  0.6771  0.3314
  370MOL0     C49838  11.144   6.796   7.484  0.4241 -0.3387 -0.3786
  370MOL0     O49839  11.028   6.844   7.550 -0.6969 -0.0330  0.7417
  370MOL0     C49840  10.994   6.978   7.526  0.1184 -0.6168  0.5602
  370MOL0     C49841  10.886   7.026   7.594 -0.7831  1.0720 -0.0694
  370MOL0     C49842  10.846   7.159   7.588  0.8316  0.2474 -0.2190
  370MOL0     C49843  10.917   7.243   7.500 -0.2349  0.3557 -0.6458
  370MOL0     C49844  10.871   7.391   7.497  0.0091 -0.2996 -0.2697
  370MOL0     O49845  10.752   7.425   7.541 -0.2499 -0.3226  0.9310
  370MOL0     C49846  10.722   7.554   7.579  0.4121 -0.6445 -0.7589
  370MOL0     C49847  10.824   7.663   7.601  0.0362  0.5367  0.4590
  370MOL0     C49848  10.785   7.792   7.639 -0.3817  1.2751 -0.1288
  370MOL0     C49849  10.646   7.825   7.664  0.4349  0.8969  0.8077
  370MOL0     O49850  10.608   7.953   7.681  0.0434 -0.4431 -0.9842
  370MOL0     C49851  10.700   8.047   7.742  0.4650  0.0473  0.6198
  370MOL0     C49852  10.641   8.138   7.853  0.0977 -0.6714  0.3261
  370MOL0     C49853  10.537   8.058   7.936  0.8936 -0.3082 -0.6811
  370MOL0     C49854  10.458   8.150   8.042 -1.3968 -0.6436 -0.0573
  370MOL0     C49855  10.314   8.096   8.080 -0.9858 -0.1075 -0.7729
  370MOL0     C49856  10.210   8.092   7.961 -0.5748  0.2312  0.4224
  370MOL0     C49857  10.070   8.131   8.004 -0.8555 -0.1432 -0.0255
  370MOL0     C49858   9.967   8.023   7.974  0.0057 -1.0937  0.6080
  370MOL0    Cl49859   9.819   8.093   8.046  0.7383 -0.1412  0.1541
  370MOL0     C49860  10.552   7.728   7.641  0.7296  0.1389 -0.3654
  370MOL0     C49861  10.589   7.595   7.603  0.6580 -0.2986  0.1249
  370MOL0     O49862  10.953   7.467   7.453  0.9698  0.7154  0.3631
  370MOL0     C49863  11.016   7.197   7.412 -0.9313  0.9638  0.1468
  370MOL0     C49864  11.055   7.066   7.434 -1.1137  0.1769 -0.1796
  370MOL0     N49865  10.823   6.404   7.336 -1.4166  0.2472  0.1663
  370MOL0     N49866  10.750   6.334   7.258 -0.4020 -0.1269  0.7856
  370MOL0     C49867  10.568   6.311   6.165  0.1454 -0.2295  0.5673
  370MOL0     C49868  10.666   6.317   6.057  0.6356 -0.2497 -0.0339
  370MOL0     C49869  11.043   6.519   5.875  0.3010 -0.3476 -0.4948
  370MOL0     C49870  11.172   6.508   5.936  0.7842 -0.2708  0.5394
  370MOL0     C49871  11.291   6.529   5.867  0.9018  0.1881 -0.5089
  370MOL0     C49872  11.291   6.539   5.730 -0.4100 -0.0107 -0.2501
  370MOL0     O49873  11.402   6.549   5.654 -0.8521  0.5313  0.3077
  370MOL0     C49874  11.531   6.504   5.706 -1.0697 -0.9398  0.2296
  370MOL0     C49875  11.607   6.641   5.724  0.0187 -0.6929 -0.4754
  370MOL0     C49876  11.698   6.650   5.604 -0.0617 -0.4266 -0.4541
  370MOL0     C49877  11.790   6.766   5.600 -0.1696 -0.8662 -0.3699
  370MOL0     C49878  11.889   6.797   5.717  0.1596 -0.3351  1.1607
  370MOL0     C49879  11.976   6.819   5.806  0.0157  0.0341 -0.5956
  370MOL0     C49880  11.164   6.544   5.667  0.0116 -0.1200  0.4093
  370MOL0     C49881  11.037   6.544   5.734 -0.2502  0.0695  0.3674
  370MOL0     C49882  10.918   6.540   5.643 -0.4012 -0.1244 -0.0958
  370MOL0     H49883  10.703   6.645   6.018  2.3308  1.2278  1.3307
  370MOL0     H49884  10.541   6.648   6.215 -2.0852 -0.8314 -1.4258
  370MOL0     H49885  10.260   6.338   6.297  0.4649  0.3778  0.3001
  370MOL0     H49886  10.396   6.243   6.379  0.3052  0.5191  0.5378
  370MOL0     H49887  10.191   6.318   6.510 -1.2557  1.9789  0.9887
  370MOL0     H49888  10.254   6.482   6.503  0.1142 -0.2010  2.3316
  370MOL0     H49889  10.459   6.403   6.621 -1.7446  2.4605 -0.3346
  370MOL0     H49890  10.388   6.234   6.618 -0.8627 -0.4515  3.5958
  370MOL0     H49891  10.236   6.456   6.767 -0.1407 -0.3293  2.8528
  370MOL0     H49892  10.218   6.280   6.769 -0.5063 -0.2140  0.3974
  370MOL0     H49893  10.345   6.382   6.960 -1.0452 -1.4149  0.8285
  370MOL0     H49894  10.414   6.236   6.866 -0.7750 -0.1786 -2.2029
  370MOL0     H49895  10.588   6.353   6.784  3.0009  1.0422  0.2587
  370MOL0     H49896  10.515   6.513   6.807 -0.0083 -1.3834 -2.1025
  370MOL0     H49897  10.534   6.424   7.066 -1.7315 -1.1912 -1.7129
  370MOL0     H49898  10.672   6.516   6.976  4.8526 -2.8528 -2.8412
  370MOL0     H49899  10.655   6.224   7.017  0.5394 -1.3927 -1.4822
  370MOL0     H49900  10.780   6.300   6.925  0.7823 -2.8651  1.0659
  370MOL0     H49901  10.948   6.478   7.043  0.8957  1.1923  0.5615
  370MOL0     H49902  11.127   6.484   7.276  0.4699  1.3537  0.8264
  370MOL0     H49903  11.033   6.639   7.267  2.0934  0.0854 -0.2266
  370MOL0     H49904  10.945   6.608   7.504  0.9196  1.0669  0.3823
  370MOL0     H49905  11.042   6.466   7.507 -2.4082 -0.8871  0.1091
  370MOL0     H49906  11.248   6.606   7.447  0.3686  0.1707 -0.6330
  370MOL0     H49907  11.182   6.632   7.613 -2.0002  4.2189  1.4291
  370MOL0     H49908  11.115   6.800   7.379  2.6142 -0.8996 -1.0679
  370MOL0     H49909  11.238   6.848   7.506  1.2238 -1.2445 -1.5165
  370MOL0     H49910  10.842   6.955   7.662 -2.7575 -1.2070 -3.4232
  370MOL0     H49911  10.768   7.198   7.652  0.3180 -2.4295  0.9132
  370MOL0     H49912  10.930   7.640   7.596 -0.3109 -1.2099  0.1548
  370MOL0     H49913  10.857   7.873   7.640  0.7183  0.3296  0.6913
  370MOL0     H49914  10.783   7.995   7.790 -0.8097 -2.0925  0.6524
  370MOL0     H49915  10.743   8.112   7.666  0.2550 -0.3067  0.1895
  370MOL0     H49916  10.721   8.188   7.907  2.9101 -0.1201 -3.8902
  370MOL0     H49917  10.588   8.226   7.817  0.5503 -0.8203 -0.7446
  370MOL0     H49918  10.456   8.031   7.868  1.9174 -0.2539 -1.9582
  370MOL0     H49919  10.576   7.973   7.993  1.9982 -0.3768 -1.5120
  370MOL0     H49920  10.432   8.243   7.991 -1.9823 -0.0628  1.2398
  370MOL0     H49921  10.520   8.159   8.132  0.0372 -5.5766 -0.2728
  370MOL0     H49922  10.279   8.169   8.153 -1.3213 -2.7282  1.8633
  370MOL0     H49923  10.330   8.006   8.139  5.3460  1.2396  0.2681
  370MOL0     H49924  10.238   8.157   7.877 -1.1813  0.1480  0.1516
  370MOL0     H49925  10.203   7.989   7.924  2.0314  0.0485  0.2295
  370MOL0     H49926  10.042   8.231   7.972 -0.3246  1.4012  3.8624
  370MOL0     H49927  10.071   8.150   8.112  0.6739 -1.0682  0.1540
  370MOL0     H49928   9.964   7.998   7.868  2.5105  0.2744  0.1657
  370MOL0     H49929  10.000   7.931   8.023  0.9760 -3.0076 -3.2933
  370MOL0     H49930  10.446   7.745   7.657  0.4255 -2.4732  0.9588
  370MOL0     H49931  10.506   7.526   7.613  2.4131 -2.4935  0.5230
  370MOL0     H49932  11.072   7.262   7.344  1.7520 -0.9359  0.4103
  370MOL0     H49933  11.144   7.039   7.377 -1.1137  0.4131 -0.2927
  370MOL0     H49934  10.509   6.223   6.189 -1.4231  0.9687  1.3127
  370MOL0     H49935  10.701   6.225   6.010  1.8099 -0.0473  0.4152
  370MOL0     H49936  11.176   6.512   6.044 -4.1200  2.1265  0.9045
  370MOL0     H49937  11.388   6.534   5.916  0.0546 -0.4851  1.3195
  370MOL0     H49938  11.577   6.435   5.634  0.5107 -0.3463  0.6284
  370MOL0     H49939  11.529   6.455   5.804  0.7599 -1.4505  0.0427
  370MOL0     H49940  11.660   6.632   5.819 -0.2264  0.5125 -0.1997
  370MOL0     H49941  11.536   6.722   5.742  2.0641  1.7558 -2.5713
  370MOL0     H49942  11.640   6.651   5.511  1.3870 -0.1445 -1.3953
  370MOL0     H49943  11.765   6.563   5.607 -1.1545 -1.2654  0.3346
  370MOL0     H49944  11.855   6.749   5.514 -2.4539  2.7030 -3.1391
  370MOL0     H49945  11.741   6.860   5.570 -2.7432 -2.1696 -0.5175
  370MOL0     H49946  12.056   6.824   5.877  0.9213  2.3137 -1.6582
  370MOL0     H49947  11.175   6.558   5.560  1.0122  0.3243  0.5605
  370MOL0     H49948  10.873   6.441   5.653  0.7405 -0.4622  2.6068
  370MOL0     H49949  10.843   6.613   5.674 -1.5205 -1.8681  1.5966
  370MOL0     H49950  10.957   6.555   5.542  0.4553 -1.5566 -0.0123
  371MOL0     O49951   2.649   0.552   4.454  0.6757 -0.1820  0.0012
  371MOL0     C49952   2.649   0.574   4.573  0.8912 -0.0580 -0.5556
  371MOL0     O49953   2.705   0.497   4.670  0.3337 -0.3411 -0.3237
  371MOL0     C49954   2.735   0.369   4.639 -0.2661 -0.2153 -1.1915
  371MOL0     C49955   2.692   0.272   4.734  0.3631  0.2424  0.0133
  371MOL0     C49956   2.696   0.138   4.705  0.5338  0.7424 -0.1467
  371MOL0     C49957   2.757   0.091   4.589  0.6933  0.1258  0.8682
  371MOL0     O49958   2.758  -0.040   4.562  0.2051 -1.0553 -0.1076
  371MOL0     C49959   2.822  -0.101   4.455 -0.2807 -0.1461  0.5334
  371MOL0     C49960   2.750  -0.085   4.314  0.3913  0.4095 -0.0770
  371MOL0     C49961   2.601  -0.133   4.325 -0.0121 -0.7633  0.2780
  371MOL0     C49962   2.505  -0.064   4.227 -0.6930 -0.2391  0.3937
  371MOL0     C49963   2.369  -0.126   4.205 -0.2609 -0.3798 -1.1861
  371MOL0     C49964   2.276  -0.015   4.147  0.4792 -0.6469 -0.1040
  371MOL0     C49965   2.211   0.068   4.250  0.0039  0.0499 -1.1044
  371MOL0     C49966   2.087   0.151   4.187  0.0440  0.2668 -0.2045
  371MOL0     N49967   1.994   0.212   4.280 -0.6330 -0.6863 -0.1806
  371MOL0     C49968   1.914   0.154   4.374  0.2344  0.2490 -0.0188
  371MOL0     C49969   1.865   0.264   4.450 -0.1084  0.3060 -0.2166
  371MOL0     C49970   1.787   0.251   4.578 -0.4323 -0.5849 -0.9889
  371MOL0     C49971   1.873   0.190   4.688 -0.5280  0.6074 -0.2652
  371MOL0     C49972   1.803   0.168   4.824 -0.2516 -0.6074 -0.5226
  371MOL0     C49973   1.906   0.169   4.938  0.2453 -0.3575 -0.4054
  371MOL0     O49974   1.852   0.138   5.065  0.8016  0.1721 -0.2689
  371MOL0     C49975   1.754   0.218   5.115 -0.1429  0.1371  0.0519
  371MOL0     C49976   1.763   0.360   5.123 -1.0789  0.9288  0.5958
  371MOL0     C49977   1.656   0.425   5.182  0.1604  0.5162  0.0280
  371MOL0     C49978   1.538   0.364   5.225 -0.3722  0.3267 -0.3064
  371MOL0     C49979   1.429   0.444   5.278 -0.3972 -0.9489  0.3402
  371MOL0     O49980   1.455   0.583   5.274  0.7329 -0.0980 -0.4932
  371MOL0     C49981   1.340   0.654   5.305  0.1954  0.6166 -1.0232
  371MOL0     C49982   1.258   0.694   5.201  0.0873 -0.2411 -0.4793
  371MOL0     C49983   1.149   0.775   5.225 -0.1356  0.2355 -0.4109
  371MOL0     C49984   1.101   0.804   5.360 -0.2613 -0.0240  0.7126
  371MOL0     O49985   0.990   0.882   5.371  0.2054  0.1367 -0.1413
  371MOL0     C49986   0.942   0.935   5.496 -0.9175 -0.9150 -0.0068
  371MOL0     C49987   0.817   1.014   5.473 -0.2937 -0.5880 -1.0443
  371MOL0     C49988   0.706   0.923   5.439 -0.7570 -0.2285 -0.0751
  371MOL0     C49989   0.586   0.982   5.495  1.0113  0.5285 -0.2528
  371MOL0     C49990   0.464   0.906   5.447 -0.4840 -0.0428  0.0746
  371MOL0     C49991   0.336   0.983   5.496 -0.7027  0.2007 -0.1867
  371MOL0     C49992   0.210   0.905   5.486  0.4569 -0.6187 -0.4595
  371MOL0     C49993   0.074   0.979   5.520 -0.5254 -1.2280  0.3612
  371MOL0    Cl49994  -0.063   0.871   5.480 -0.2786 -0.6405  0.0772
  371MOL0     C49995   1.172   0.751   5.463  0.4277 -0.0061 -0.9711
  371MOL0     C49996   1.293   0.682   5.435  0.2572  0.2743 -0.2038
  371MOL0     O49997   1.341   0.388   5.339  0.5548  0.3828 -0.3213
  371MOL0     C49998   1.534   0.225   5.193 -0.0076  0.5093  0.1434
  371MOL0     C49999   1.647   0.150   5.151  1.0132 -0.3999 -0.6220
  371MOL0     N50000   1.931   0.379   4.414  0.4582  0.8906  0.0041
  371MOL0     N50001   2.004   0.351   4.313 -0.5055  0.6979 -0.0743
  371MOL0     C50002   2.821   0.191   4.509  0.2675 -0.2499  0.0348
  371MOL0     C50003   2.813   0.328   4.534  0.2512  0.7119  0.5623
  371MOL0     C50004   2.600   0.708   4.616 -0.8115 -0.2488 -0.2705
  371MOL0     C50005   2.673   0.764   4.715  0.6826 -0.2207 -0.7170
  371MOL0     C50006   2.636   0.892   4.767 -0.5430  0.4488 -0.7163
  371MOL0     C50007   2.533   0.967   4.704 -0.1086  0.7971  0.1268
  371MOL0     O50008   2.477   1.075   4.765 -0.1053  0.6844  0.2726
  371MOL0     C50009   2.377   1.160   4.699 -0.3165  0.3208  0.2592
  371MOL0     C50010   2.433   1.266   4.603 -0.7851  0.7997 -0.4016
  371MOL0     C50011   2.337   1.380   4.597 -0.5582 -0.3099 -0.1199
  371MOL0     C50012   2.356   1.493   4.704  0.0249  0.0265  0.1314
  371MOL0     C50013   2.478   1.573   4.695  0.3858 -0.4780 -0.5696
  371MOL0     C50014   2.584   1.627   4.695  0.3286 -0.8070 -0.2093
  371MOL0     C50015   2.471   0.915   4.588 -0.4528 -0.2827 -0.8714
  371MOL0     C50016   2.490   0.781   4.548  0.8372 -0.7299  0.8361
  371MOL0     C50017   2.404   0.732   4.427 -0.2285 -0.2907  0.2687
  371MOL0     H50018   2.635   0.304   4.821 -0.7553  1.0825 -0.9848
  371MOL0     H50019   2.644   0.071   4.773  0.3022  2.5288  1.5218
  371MOL0     H50020   2.916  -0.055   4.423 -1.9341  3.0272 -0.2352
  371MOL0     H50021   2.833  -0.208   4.472 -1.9040 -0.9847 -2.8324
  371MOL0     H50022   2.788  -0.163   4.248 -1.4747 -2.3355  1.9073
  371MOL0     H50023   2.754   0.015   4.269 -3.0217  0.8154  0.2688
  371MOL0     H50024   2.565  -0.123   4.428  0.7193  1.4958  0.3768
  371MOL0     H50025   2.593  -0.239   4.299  0.2887 -0.2564 -2.0734
  371MOL0     H50026   2.489   0.040   4.257 -1.1147  0.1325 -1.0033
  371MOL0     H50027   2.549  -0.059   4.127 -0.3436 -0.4120  0.5371
  371MOL0     H50028   2.387  -0.194   4.120  4.2705 -1.0659  0.0277
  371MOL0     H50029   2.321  -0.185   4.284 -1.4958  2.2030  0.1011
  371MOL0     H50030   2.340   0.052   4.087 -0.9928 -1.6904 -3.0158
  371MOL0     H50031   2.207  -0.044   4.068  1.5859  2.8023 -2.5859
  371MOL0     H50032   2.279   0.134   4.305 -2.0238 -0.1631  1.8534
  371MOL0     H50033   2.169  -0.002   4.323  3.1131 -0.6720  0.1617
  371MOL0     H50034   2.123   0.232   4.123 -0.3107  1.4742  1.0617
  371MOL0     H50035   2.032   0.078   4.128 -0.9881 -0.6525  1.7648
  371MOL0     H50036   1.884   0.050   4.369 -0.7518  0.5642 -0.7442
  371MOL0     H50037   1.757   0.350   4.612  1.9229 -0.7267  1.9121
  371MOL0     H50038   1.695   0.193   4.569 -0.8469 -0.3798  1.4004
  371MOL0     H50039   1.909   0.090   4.659 -3.7942 -1.3207  1.7242
  371MOL0     H50040   1.953   0.264   4.701  0.3738 -0.4528  0.4208
  371MOL0     H50041   1.755   0.070   4.835  3.8187 -2.5983  1.9752
  371MOL0     H50042   1.728   0.246   4.843  1.7080  0.5132  3.7524
  371MOL0     H50043   1.970   0.258   4.938 -1.1979  0.7255 -1.1287
  371MOL0     H50044   1.977   0.088   4.915 -0.0897 -1.1234  1.1563
  371MOL0     H50045   1.857   0.400   5.086 -0.8724 -1.0454 -1.2258
  371MOL0     H50046   1.677   0.531   5.186  2.5990  0.2576 -2.6221
  371MOL0     H50047   1.283   0.659   5.101  2.5493  2.6893 -1.0407
  371MOL0     H50048   1.100   0.802   5.132 -0.3425  0.4359 -0.2438
  371MOL0     H50049   0.925   0.856   5.570  0.3414 -2.1557 -0.9743
  371MOL0     H50050   1.021   1.001   5.532  1.7875 -3.6911 -0.4172
  371MOL0     H50051   0.799   1.074   5.563 -1.9458  1.6694 -2.7378
  371MOL0     H50052   0.837   1.090   5.397  1.3492  0.7150  0.6050
  371MOL0     H50053   0.681   0.924   5.332 -3.9395  0.1400  0.5903
  371MOL0     H50054   0.721   0.822   5.477 -3.1495 -0.4641  0.4170
  371MOL0     H50055   0.570   1.083   5.456 -0.2460 -0.8634 -3.8060
  371MOL0     H50056   0.580   0.985   5.604  0.6099  2.5282 -0.2947
  371MOL0     H50057   0.455   0.810   5.497 -1.6991  2.1384  4.5681
  371MOL0     H50058   0.448   0.904   5.339 -0.9008 -1.6703  0.1397
  371MOL0     H50059   0.334   1.030   5.595 -0.0834 -1.5523  0.7142
  371MOL0     H50060   0.327   1.073   5.436 -0.1192 -2.4561 -4.6768
  371MOL0     H50061   0.210   0.816   5.550  0.4940 -1.9532 -2.2217
  371MOL0     H50062   0.184   0.877   5.383 -4.4118 -1.0525  0.6647
  371MOL0     H50063   0.063   1.014   5.623 -0.7622 -0.6003  0.1263
  371MOL0     H50064   0.064   1.075   5.467  1.3417 -0.4081  1.3790
  371MOL0     H50065   1.148   0.768   5.567  1.2321 -1.6858 -0.4753
  371MOL0     H50066   1.347   0.644   5.522  2.0424 -0.6668 -1.6549
  371MOL0     H50067   1.437   0.182   5.217 -0.9325 -0.6840 -4.7395
  371MOL0     H50068   1.649   0.042   5.139  0.5190 -0.9475  3.0385
  371MOL0     H50069   2.882   0.166   4.423 -1.5602 -0.2168 -1.3245
  371MOL0     H50070   2.869   0.392   4.467  0.3716  0.2240  0.1916
  371MOL0     H50071   2.762   0.716   4.755  2.1142  1.0247 -2.2525
  371MOL0     H50072   2.691   0.922   4.856 -1.7822  0.2819  0.1458
  371MOL0     H50073   2.316   1.212   4.773 -3.1546  1.1607 -2.4454
  371MOL0     H50074   2.311   1.093   4.642  0.3679 -1.0619  1.0553
  371MOL0     H50075   2.433   1.235   4.497  1.5158  0.3821 -0.3326
  371MOL0     H50076   2.537   1.292   4.622  0.1553 -1.2948 -2.2232
  371MOL0     H50077   2.232   1.350   4.592 -0.9426  0.4582  2.0838
  371MOL0     H50078   2.359   1.439   4.508 -1.3317 -2.4685 -1.8284
  371MOL0     H50079   2.268   1.557   4.694  1.8329  2.4846 -0.7266
  371MOL0     H50080   2.354   1.452   4.806  4.3771  1.6884  1.0911
  371MOL0     H50081   2.675   1.683   4.697 -1.1535  1.8471 -1.2433
  371MOL0     H50082   2.396   0.973   4.536 -0.6115  4.8960  4.0792
  371MOL0     H50083   2.458   0.730   4.332 -2.6613 -1.9748 -1.1594
  371MOL0     H50084   2.369   0.629   4.437 -2.3716  0.2989 -0.7576
  371MOL0     H50085   2.313   0.790   4.412 -0.8568 -1.3062  0.1157
  372MOL0     O50086   0.617   7.141   6.934 -0.4546  0.1863  0.5860
  372MOL0     C50087   0.677   7.099   6.831 -0.9038  0.4695  0.4907
  372MOL0     O50088   0.664   6.971   6.785  1.0883  0.4867 -0.4971
  372MOL0     C50089   0.557   6.888   6.812  0.5104 -0.7703 -0.1111
  372MOL0     C50090   0.529   6.792   6.719  0.0121  0.3556 -0.0776
  372MOL0     C50091   0.437   6.684   6.744  0.1578  0.5464 -0.2163
  372MOL0     C50092   0.358   6.680   6.865 -0.0226  0.4645 -0.1841
  372MOL0     O50093   0.264   6.592   6.913  0.6673  0.5297 -0.0703
  372MOL0     C50094   0.234   6.476   6.837  0.3968  0.0865 -0.6751
  372MOL0     C50095   0.334   6.353   6.834  0.3957 -0.9216 -0.2450
  372MOL0     C50096   0.282   6.235   6.765 -0.4627  0.6988 -0.2490
  372MOL0     C50097   0.142   6.194   6.814  0.2726 -0.8762  0.1145
  372MOL0     C50098   0.086   6.049   6.781  0.3419 -0.3482 -0.3825
  372MOL0     C50099  -0.057   6.032   6.853 -0.2541  0.6213  0.0679
  372MOL0     C50100  -0.101   5.876   6.844  0.1145 -0.6733  0.5191
  372MOL0     C50101  -0.252   5.865   6.893  0.5954 -2.0330  0.5914
  372MOL0     N50102  -0.299   5.740   6.830 -0.6440 -0.1747 -0.1796
  372MOL0     C50103  -0.259   5.608   6.857 -0.8345 -0.3362  0.2937
  372MOL0     C50104  -0.314   5.533   6.758  0.1227 -0.6853  0.0492
  372MOL0     C50105  -0.311   5.387   6.749 -0.1889  1.2354  0.3268
  372MOL0     C50106  -0.221   5.335   6.871 -0.4251 -1.2894 -0.4048
  372MOL0     C50107  -0.221   5.185   6.868  0.2847  0.2751  0.6217
  372MOL0     C50108  -0.139   5.140   6.984  0.5700  0.2844 -0.7129
  372MOL0     O50109  -0.212   5.167   7.104  0.3942 -0.0842  0.0341
  372MOL0     C50110  -0.134   5.140   7.215  1.1248 -0.2708  0.0300
  372MOL0     C50111  -0.174   5.220   7.317 -0.7101 -0.1811 -0.4897
  372MOL0     C50112  -0.114   5.215   7.450 -0.3753  0.3212  0.3820
  372MOL0     C50113  -0.007   5.118   7.470  0.3110 -0.6778  0.3961
  372MOL0     C50114   0.051   5.094   7.602 -0.0141  0.1788  0.3898
  372MOL0     O50115   0.035   5.201   7.697  0.2777 -0.5826  1.4821
  372MOL0     C50116   0.087   5.173   7.822 -0.8444 -0.2729  0.0393
  372MOL0     C50117   0.021   5.085   7.912 -0.4536  0.9757  0.8512
  372MOL0     C50118   0.086   5.061   8.032 -0.1204  0.1706  0.2072
  372MOL0     C50119   0.216   5.117   8.054  0.9917  0.1499  0.6000
  372MOL0     O50120   0.288   5.095   8.173 -0.7451  1.2843  0.3354
  372MOL0     C50121   0.312   4.961   8.218 -0.2109  1.5056  0.0117
  372MOL0     C50122   0.452   4.992   8.281 -0.0678 -0.5769 -0.5704
  372MOL0     C50123   0.555   5.012   8.173  0.6169  0.3198  0.2765
  372MOL0     C50124   0.696   5.026   8.237 -0.2816  0.2799  0.1625
  372MOL0     C50125   0.711   5.145   8.332 -0.1485 -0.0117 -0.7646
  372MOL0     C50126   0.694   5.289   8.275 -0.2647  0.0464 -0.8312
  372MOL0     C50127   0.720   5.398   8.379 -0.1163 -0.3375 -0.6504
  372MOL0     C50128   0.689   5.539   8.322  0.4478 -0.3074  0.1354
  372MOL0    Cl50129   0.752   5.653   8.447 -0.0848  0.2106  0.5012
  372MOL0     C50130   0.260   5.216   7.976 -0.6112 -0.3499  0.3359
  372MOL0     C50131   0.191   5.252   7.872 -0.8890  0.0815  0.0516
  372MOL0     O50132   0.112   4.985   7.614 -0.4267  0.3545  0.4665
  372MOL0     C50133   0.034   5.042   7.355 -1.1296 -0.6170 -0.3295
  372MOL0     C50134  -0.024   5.060   7.232  0.3114 -0.1990  0.3818
  372MOL0     N50135  -0.371   5.614   6.664  0.7496  0.4759 -0.0498
  372MOL0     N50136  -0.358   5.736   6.709  0.1081  0.4633 -0.6063
  372MOL0     C50137   0.383   6.783   6.952  0.4261 -0.6161 -0.8393
  372MOL0     C50138   0.482   6.882   6.935  0.0976 -0.2227  0.5321
  372MOL0     C50139   0.774   7.202   6.767 -0.1839  1.0238 -0.5885
  372MOL0     C50140   0.807   7.315   6.843  0.6281 -0.2992  0.0740
  372MOL0     C50141   0.900   7.411   6.782  0.8245  0.0446  0.0647
  372MOL0     C50142   0.951   7.399   6.652 -0.5013 -0.8466  0.0718
  372MOL0     O50143   1.064   7.465   6.615  0.1053  0.4274 -0.0742
  372MOL0     C50144   1.097   7.584   6.685  0.6904  0.0182 -0.8881
  372MOL0     C50145   1.182   7.686   6.606  0.5819  0.2572  0.1957
  372MOL0     C50146   1.122   7.699   6.468 -0.6713  1.0988  1.4169
  372MOL0     C50147   1.170   7.831   6.403  0.4851 -0.1635 -0.5043
  372MOL0     C50148   1.314   7.850   6.415 -0.4008  1.0523  0.7527
  372MOL0     C50149   1.432   7.864   6.426 -0.1920  0.7661  0.5994
  372MOL0     C50150   0.909   7.284   6.587 -0.3810 -0.2496 -0.5720
  372MOL0     C50151   0.814   7.197   6.633  0.5322  0.0779 -0.2699
  372MOL0     C50152   0.776   7.096   6.543 -0.4366 -0.3427  0.2734
  372MOL0     H50153   0.592   6.778   6.632  0.5647 -4.1164  0.7858
  372MOL0     H50154   0.415   6.606   6.672 -2.9545  1.2937 -0.2240
  372MOL0     H50155   0.144   6.439   6.887  0.1039  4.0450  2.2195
  372MOL0     H50156   0.213   6.505   6.734  3.3720  4.5715 -0.2909
  372MOL0     H50157   0.348   6.321   6.938 -1.5358  3.3199  1.5524
  372MOL0     H50158   0.417   6.395   6.776 -0.1667 -0.2100 -0.5503
  372MOL0     H50159   0.356   6.155   6.780 -4.3329 -2.8936  1.6383
  372MOL0     H50160   0.284   6.257   6.658  0.1874  1.5265 -0.0742
  372MOL0     H50161   0.161   6.191   6.922  3.9451 -1.1965 -0.4413
  372MOL0     H50162   0.065   6.269   6.790 -0.3651 -1.1973  1.0898
  372MOL0     H50163   0.070   6.033   6.674  2.1971 -1.3858 -0.5474
  372MOL0     H50164   0.172   5.989   6.812  1.7109  1.1473 -1.1485
  372MOL0     H50165  -0.054   6.053   6.961  3.3031 -1.7568  0.6091
  372MOL0     H50166  -0.123   6.096   6.794 -1.5434  1.5346  2.3628
  372MOL0     H50167  -0.035   5.809   6.900 -2.4525 -3.9991 -0.1331
  372MOL0     H50168  -0.100   5.843   6.740  2.0512 -5.2462  1.7098
  372MOL0     H50169  -0.271   5.876   7.000  4.8730 -0.6352  1.3571
  372MOL0     H50170  -0.312   5.941   6.842  0.2410 -2.5487  0.2264
  372MOL0     H50171  -0.195   5.570   6.936 -0.0441 -1.4584 -0.8526
  372MOL0     H50172  -0.412   5.346   6.753  0.3786 -0.2628  0.0641
  372MOL0     H50173  -0.267   5.362   6.652 -1.8507  0.0119 -0.1588
  372MOL0     H50174  -0.121   5.376   6.885 -0.6892 -1.4795  2.6206
  372MOL0     H50175  -0.274   5.364   6.963  0.9473 -0.3518  0.1081
  372MOL0     H50176  -0.165   5.154   6.779 -0.5573  0.7766 -0.0922
  372MOL0     H50177  -0.323   5.147   6.866  0.3236  0.2189 -0.9715
  372MOL0     H50178  -0.040   5.186   6.980  1.1762 -1.0010 -4.1159
  372MOL0     H50179  -0.119   5.032   6.976  0.3211  0.2031 -0.2687
  372MOL0     H50180  -0.254   5.288   7.290 -0.9257  0.8451  2.3656
  372MOL0     H50181  -0.145   5.286   7.526 -1.6826 -0.7467  0.8947
  372MOL0     H50182  -0.069   5.034   7.880  1.1926 -1.8305  0.3894
  372MOL0     H50183   0.041   4.997   8.107 -1.1702  0.5152 -0.1045
  372MOL0     H50184   0.244   4.930   8.299 -1.6188  2.3107 -0.8333
  372MOL0     H50185   0.311   4.885   8.140 -1.0616  2.0506 -0.5168
  372MOL0     H50186   0.428   5.074   8.350  2.7592 -2.3759  2.8542
  372MOL0     H50187   0.476   4.906   8.344  0.3907 -0.3222 -0.3920
  372MOL0     H50188   0.556   4.932   8.098  0.0736  0.6437 -0.0825
  372MOL0     H50189   0.533   5.102   8.115  1.1422  1.7449  2.1913
  372MOL0     H50190   0.774   5.021   8.162 -0.1585 -1.0644  0.3496
  372MOL0     H50191   0.709   4.932   8.293 -1.4524 -1.4198 -2.2240
  372MOL0     H50192   0.810   5.140   8.377 -0.9399  2.8712  1.5753
  372MOL0     H50193   0.640   5.128   8.413  0.6997 -3.7189 -0.6413
  372MOL0     H50194   0.772   5.296   8.197 -0.7060  1.1250 -1.1969
  372MOL0     H50195   0.595   5.294   8.230 -0.8675 -0.8263  0.3575
  372MOL0     H50196   0.820   5.373   8.415  0.2865 -0.0010 -1.4911
  372MOL0     H50197   0.643   5.393   8.456 -0.0016  2.9465 -0.1455
  372MOL0     H50198   0.733   5.548   8.222 -1.1510  1.4774 -0.4649
  372MOL0     H50199   0.581   5.553   8.315 -0.0192 -2.7469  1.3232
  372MOL0     H50200   0.358   5.256   8.001 -0.5091 -0.2548 -0.2120
  372MOL0     H50201   0.231   5.339   7.821  1.6886 -1.6764 -1.1764
  372MOL0     H50202   0.120   4.976   7.365 -0.4295  0.4327  0.8616
  372MOL0     H50203  -0.001   4.999   7.146  1.8300  0.5935  0.1856
  372MOL0     H50204   0.337   6.785   7.051 -0.5168 -0.0344 -1.2724
  372MOL0     H50205   0.499   6.951   7.017 -1.6987 -0.3420  1.0494
  372MOL0     H50206   0.782   7.333   6.947  0.0457  0.3589 -0.1746
  372MOL0     H50207   0.924   7.502   6.837 -0.1115  0.2830  0.0929
  372MOL0     H50208   1.143   7.566   6.783 -2.3544 -4.4881 -0.0000
  372MOL0     H50209   1.007   7.635   6.720  0.9308  1.8279 -2.7070
  372MOL0     H50210   1.284   7.649   6.608  0.4566 -0.1384 -0.4151
  372MOL0     H50211   1.161   7.777   6.663  0.3079 -0.1019  0.6742
  372MOL0     H50212   1.013   7.702   6.471 -0.8152 -0.4273 -0.1371
  372MOL0     H50213   1.153   7.612   6.408  0.9032  1.0518  2.2373
  372MOL0     H50214   1.134   7.834   6.300 -2.6781  1.6762  0.5060
  372MOL0     H50215   1.121   7.918   6.448  0.9419  0.3322 -0.9503
  372MOL0     H50216   1.537   7.879   6.440 -0.0838 -0.9871  2.0851
  372MOL0     H50217   0.952   7.273   6.488 -1.3497  1.3561 -1.2264
  372MOL0     H50218   0.814   7.112   6.442 -2.7217 -2.5464 -1.0670
  372MOL0     H50219   0.803   6.999   6.586 -2.0660 -1.8406 -1.8687
  372MOL0     H50220   0.668   7.103   6.527 -1.0693 -0.7393  3.5358
  373MOL0     O50221   1.203  11.471   2.366 -0.0957  0.4852 -0.0803
  373MOL0     C50222   1.234  11.353   2.366 -0.6092  0.8574 -0.2209
  373MOL0     O50223   1.230  11.271   2.255 -0.9027 -0.1197  0.3955
  373MOL0     C50224   1.217  11.312   2.123 -0.7877 -0.5742  0.3882
  373MOL0     C50225   1.158  11.218   2.035 -0.0607 -0.2512  1.0001
  373MOL0     C50226   1.137  11.239   1.892  0.5123  0.1558 -0.2550
  373MOL0     C50227   1.174  11.367   1.845 -0.2075  0.7076 -0.6304
  373MOL0     O50228   1.160  11.392   1.707  0.6521  0.0053  0.6290
  373MOL0     C50229   1.160  11.522   1.654  0.5146  0.6258  1.0270
  373MOL0     C50230   1.091  11.527   1.517  0.6126  1.0011  0.6948
  373MOL0     C50231   1.142  11.431   1.404 -0.5741  1.3942  0.3598
  373MOL0     C50232   1.279  11.477   1.348 -0.0488 -0.3139  0.4462
  373MOL0     C50233   1.344  11.365   1.264 -0.3135 -0.0557 -0.3582
  373MOL0     C50234   1.273  11.357   1.130  0.9847  0.0379  0.9367
  373MOL0     C50235   1.325  11.233   1.057  0.3065 -0.5765 -0.1665
  373MOL0     C50236   1.245  11.185   0.936  1.0831 -0.5538  0.5896
  373MOL0     N50237   1.313  11.084   0.854 -0.1231 -0.1406 -0.4028
  373MOL0     C50238   1.266  10.956   0.807 -0.2749 -0.0488 -0.4346
  373MOL0     C50239   1.378  10.907   0.748  0.3436  0.7511  0.3530
  373MOL0     C50240   1.377  10.765   0.705  0.5155  0.2881 -0.1724
  373MOL0     C50241   1.347  10.756   0.553  0.2439  0.0889 -0.2852
  373MOL0     C50242   1.199  10.719   0.526 -0.2879  0.5788  0.0772
  373MOL0     C50243   1.171  10.734   0.378 -0.1877 -0.2617  0.3466
  373MOL0     O50244   1.198  10.869   0.330  0.1819  0.2159  0.0538
  373MOL0     C50245   1.195  10.885   0.194 -0.2815 -0.9522  0.4959
  373MOL0     C50246   1.208  11.018   0.143 -0.4507  0.0746 -0.8409
  373MOL0     C50247   1.198  11.039   0.003  0.6551  0.0017 -1.0460
  373MOL0     C50248   1.176  10.935  -0.092  0.4860  0.2332  0.7677
  373MOL0     C50249   1.140  10.972  -0.235  0.0581 -0.2973 -0.0528
  373MOL0     O50250   1.159  11.100  -0.266  0.7556  0.1692 -0.0528
  373MOL0     C50251   1.113  11.158  -0.387 -0.3592  0.2693  0.0700
  373MOL0     C50252   1.102  11.301  -0.390 -0.0856  0.0171  0.3850
  373MOL0     C50253   1.074  11.373  -0.510  0.1048 -0.1288 -0.7680
  373MOL0     C50254   1.043  11.302  -0.622 -0.7640 -0.6476  0.0314
  373MOL0     O50255   1.016  11.372  -0.731 -0.8340 -0.4471 -0.4455
  373MOL0     C50256   0.959  11.309  -0.848 -0.0386  0.6402  0.1332
  373MOL0     C50257   0.970  11.405  -0.970 -0.5136  0.6535 -0.1698
  373MOL0     C50258   0.892  11.367  -1.099  0.0532 -0.4692 -0.1008
  373MOL0     C50259   0.907  11.464  -1.217 -0.4307  0.6154 -0.2283
  373MOL0     C50260   0.846  11.389  -1.346 -0.1779 -1.0218 -0.3753
  373MOL0     C50261   0.701  11.425  -1.364 -0.0753 -0.2431  0.8246
  373MOL0     C50262   0.630  11.306  -1.447 -0.4482 -0.9716  0.0048
  373MOL0     C50263   0.714  11.268  -1.573  1.0258  0.1255 -0.5130
  373MOL0    Cl50264   0.616  11.146  -1.661 -0.6312  0.0574 -0.2678
  373MOL0     C50265   1.045  11.163  -0.615 -0.8930 -0.1721  0.1351
  373MOL0     C50266   1.079  11.095  -0.506 -0.5664  0.2050 -0.2184
  373MOL0     O50267   1.089  10.888  -0.301 -0.2783 -0.4191 -0.0385
  373MOL0     C50268   1.173  10.805  -0.043  0.7831  0.5293  0.5198
  373MOL0     C50269   1.182  10.782   0.097 -1.2422  0.4206 -0.5286
  373MOL0     N50270   1.487  11.001   0.748  0.2788  0.0021 -0.6018
  373MOL0     N50271   1.440  11.113   0.807 -0.3623 -0.2194  0.0162
  373MOL0     C50272   1.238  11.462   1.929 -1.1324  0.4819 -0.6898
  373MOL0     C50273   1.252  11.442   2.066  0.5277  0.1364  0.3635
  373MOL0     C50274   1.274  11.280   2.493  0.3227  0.2636  0.4351
  373MOL0     C50275   1.324  11.148   2.497  0.1543  0.4902 -0.4501
  373MOL0     C50276   1.357  11.067   2.607  0.6342  0.6357  0.1337
  373MOL0     C50277   1.356  11.121   2.730 -0.2218  0.1705  1.1126
  373MOL0     O50278   1.372  11.055   2.845 -0.4506  0.2809 -0.0057
  373MOL0     C50279   1.442  10.939   2.840 -0.7386  0.2462 -0.1025
  373MOL0     C50280   1.510  10.894   2.967 -0.5334 -1.4363 -0.3238
  373MOL0     C50281   1.617  10.985   3.036 -0.5916 -0.4406 -0.6098
  373MOL0     C50282   1.751  10.919   3.088  0.1057 -1.3138  0.2489
  373MOL0     C50283   1.718  10.819   3.195  0.2492 -0.2151  1.1354
  373MOL0     C50284   1.701  10.740   3.286 -0.3243  0.4388 -0.7787
  373MOL0     C50285   1.308  11.254   2.740 -0.7233 -0.7658 -0.3608
  373MOL0     C50286   1.274  11.335   2.628  0.5645  0.6688  0.2122
  373MOL0     C50287   1.229  11.475   2.646 -0.7338  0.0264  0.5942
  373MOL0     H50288   1.126  11.123   2.076  1.4589 -2.4647 -2.4144
  373MOL0     H50289   1.094  11.156   1.837 -0.0276  0.1003  0.2404
  373MOL0     H50290   1.109  11.589   1.724  1.3170  2.7568 -0.3139
  373MOL0     H50291   1.260  11.564   1.637 -0.4619  2.5657 -0.4228
  373MOL0     H50292   1.092  11.631   1.482  2.4747  0.0635 -2.4998
  373MOL0     H50293   0.989  11.500   1.545 -0.0266  0.9585 -1.5124
  373MOL0     H50294   1.066  11.427   1.325  0.8974  2.7853 -1.2012
  373MOL0     H50295   1.147  11.333   1.453 -1.4996  0.5508 -1.1553
  373MOL0     H50296   1.268  11.574   1.299  1.5854  0.4395  1.4753
  373MOL0     H50297   1.348  11.499   1.430 -0.8617 -2.3335  1.7423
  373MOL0     H50298   1.451  11.388   1.259  0.6267 -3.1794  2.3617
  373MOL0     H50299   1.328  11.268   1.311  0.2286 -0.1757 -0.4137
  373MOL0     H50300   1.165  11.347   1.139  0.6000 -0.4480 -2.6090
  373MOL0     H50301   1.298  11.445   1.069  1.9238 -1.7927 -1.4855
  373MOL0     H50302   1.336  11.154   1.132  1.1473 -0.1613  0.1664
  373MOL0     H50303   1.426  11.264   1.030 -0.2552 -0.1258 -1.8064
  373MOL0     H50304   1.150  11.138   0.962  0.7456 -1.3714 -1.8287
  373MOL0     H50305   1.215  11.269   0.872  1.2705  0.4175  1.7358
  373MOL0     H50306   1.179  10.898   0.833  0.0144 -0.7824 -1.0713
  373MOL0     H50307   1.476  10.729   0.733  0.7165  0.2638 -0.9122
  373MOL0     H50308   1.289  10.717   0.750  0.3954 -0.2141 -0.9361
  373MOL0     H50309   1.395  10.841   0.503  3.6872 -0.2702  2.0339
  373MOL0     H50310   1.415  10.675   0.525 -1.5753 -1.3076 -0.8189
  373MOL0     H50311   1.142  10.796   0.580 -1.1380  2.1896 -2.8942
  373MOL0     H50312   1.174  10.617   0.555  0.7587  0.6182  1.2015
  373MOL0     H50313   1.067  10.707   0.356 -0.0300  1.0171 -2.3215
  373MOL0     H50314   1.226  10.655   0.326 -0.6602  0.5367 -1.4476
  373MOL0     H50315   1.232  11.106   0.203  1.3613 -1.0349  0.1838
  373MOL0     H50316   1.201  11.142  -0.031  2.4768  0.2871 -0.1559
  373MOL0     H50317   1.130  11.353  -0.299 -1.3649  3.0814 -0.8427
  373MOL0     H50318   1.075  11.482  -0.514  0.4946 -0.1253 -0.6499
  373MOL0     H50319   1.001  11.220  -0.895 -0.3378  0.9088 -0.6608
  373MOL0     H50320   0.854  11.283  -0.833  0.6699 -1.8524  1.2807
  373MOL0     H50321   0.924  11.499  -0.937 -0.5717  0.1139  1.3203
  373MOL0     H50322   1.078  11.421  -0.983 -0.2653 -1.5198 -1.3015
  373MOL0     H50323   0.931  11.268  -1.124 -2.6536 -1.6674  0.1330
  373MOL0     H50324   0.788  11.344  -1.077 -0.0430 -0.6532 -0.7252
  373MOL0     H50325   1.015  11.465  -1.232  0.0962 -0.9471  2.6151
  373MOL0     H50326   0.875  11.560  -1.176  2.4895  0.5554  2.5934
  373MOL0     H50327   0.843  11.282  -1.324  0.6206 -0.8975  0.3870
  373MOL0     H50328   0.909  11.425  -1.427  0.9670  1.9011  1.6099
  373MOL0     H50329   0.658  11.435  -1.264  0.2491 -0.1280  0.9559
  373MOL0     H50330   0.673  11.513  -1.422 -3.1484 -0.5698  1.6434
  373MOL0     H50331   0.526  11.332  -1.468 -0.3837  0.3650  1.1727
  373MOL0     H50332   0.614  11.216  -1.388 -2.5877  0.5373  1.9494
  373MOL0     H50333   0.733  11.360  -1.629  0.5497  1.2844  1.1489
  373MOL0     H50334   0.811  11.222  -1.552 -0.7655 -3.7927 -0.1536
  373MOL0     H50335   1.035  11.096  -0.700  0.1176 -0.5600  0.2998
  373MOL0     H50336   1.072  10.987  -0.510  1.0078  0.1008 -2.2920
  373MOL0     H50337   1.134  10.738  -0.119 -0.7262  0.4366  1.3351
  373MOL0     H50338   1.154  10.678   0.114  1.0820 -0.3915 -1.2228
  373MOL0     H50339   1.273  11.556   1.889  0.1810  0.1147 -0.4832
  373MOL0     H50340   1.274  11.533   2.122  2.3553 -0.1705  0.1946
  373MOL0     H50341   1.340  11.108   2.397  2.8676 -1.6536  0.6951
  373MOL0     H50342   1.382  10.963   2.592  2.7236  0.7574  2.2283
  373MOL0     H50343   1.505  10.943   2.751 -4.7416  0.8694 -3.1706
  373MOL0     H50344   1.375  10.856   2.815  1.5973 -2.2282  1.2835
  373MOL0     H50345   1.559  10.797   2.958  0.1801 -0.9842 -1.6371
  373MOL0     H50346   1.429  10.885   3.039 -0.3461  1.7662  0.4688
  373MOL0     H50347   1.577  11.036   3.124  0.1920 -0.9558  0.0614
  373MOL0     H50348   1.634  11.063   2.961  0.2527  1.4514  1.4171
  373MOL0     H50349   1.803  10.874   3.003  0.4924 -1.8513  0.7706
  373MOL0     H50350   1.809  10.995   3.141 -3.0843  0.2731  1.7300
  373MOL0     H50351   1.681  10.665   3.360 -1.8469 -0.0713 -1.6526
  373MOL0     H50352   1.304  11.283   2.844 -0.7753 -3.5980  0.5184
  373MOL0     H50353   1.132  11.501   2.602  0.4900 -1.0599 -3.0960
  373MOL0     H50354   1.225  11.504   2.751  0.6703  0.0194  0.6740
  373MOL0     H50355   1.313  11.534   2.607  1.0805 -1.0227  2.6862
  374MOL0     O50356   4.643  11.212   7.175  0.6487 -0.4651  0.5922
  374MOL0     C50357   4.725  11.123   7.188 -0.6737 -0.6041 -0.3112
  374MOL0     O50358   4.858  11.130   7.166 -0.0937  0.6986 -0.4147
  374MOL0     C50359   4.907  11.229   7.093 -0.0747  0.0865 -0.1089
  374MOL0     C50360   5.037  11.271   7.123 -0.4034  0.5935 -0.1759
  374MOL0     C50361   5.102  11.372   7.060 -1.4172 -0.3049 -0.5461
  374MOL0     C50362   5.058  11.430   6.935  0.8229  0.0704  0.6197
  374MOL0     O50363   5.123  11.530   6.874  0.3977  0.2630  0.9891
  374MOL0     C50364   5.047  11.627   6.789  0.3963  0.6829  0.4202
  374MOL0     C50365   4.989  11.747   6.864  0.1496 -0.5960  0.1711
  374MOL0     C50366   5.100  11.820   6.944 -0.5561 -0.3949 -0.1136
  374MOL0     C50367   5.037  11.932   7.033  0.0505 -0.5591  1.1318
  374MOL0     C50368   5.140  12.030   7.104  0.7862 -0.3686  0.0875
  374MOL0     C50369   5.076  12.169   7.148  0.0407 -0.9703 -0.2956
  374MOL0     C50370   4.992  12.165   7.269  0.4666  0.4773  0.2213
  374MOL0     C50371   4.941  12.291   7.329  0.4051  0.3080 -0.6091
  374MOL0     N50372   4.800  12.272   7.384 -0.2976 -0.2155 -0.0048
  374MOL0     C50373   4.767  12.207   7.498 -0.0862 -0.1326 -0.4870
  374MOL0     C50374   4.638  12.172   7.484 -0.0080  0.1951  0.0567
  374MOL0     C50375   4.559  12.094   7.580  0.6185 -0.4264 -0.5419
  374MOL0     C50376   4.511  11.964   7.517  0.2092  0.5607 -0.4125
  374MOL0     C50377   4.412  11.894   7.606  0.2466 -0.3827 -1.0821
  374MOL0     C50378   4.349  11.789   7.522  0.3426 -0.0818  0.2152
  374MOL0     O50379   4.317  11.677   7.607  0.2707 -0.3463 -0.2240
  374MOL0     C50380   4.271  11.562   7.551  0.4212  0.4472 -1.3200
  374MOL0     C50381   4.251  11.458   7.632 -0.3371  0.2351 -0.0486
  374MOL0     C50382   4.234  11.325   7.585  1.1127  0.2283 -0.4649
  374MOL0     C50383   4.218  11.299   7.448 -0.0692 -0.1031  1.0404
  374MOL0     C50384   4.186  11.165   7.397 -0.4677  0.0486  0.1469
  374MOL0     O50385   4.160  11.062   7.489 -0.5236 -0.3315  0.6994
  374MOL0     C50386   4.106  10.940   7.430  0.5536 -0.3157  0.0394
  374MOL0     C50387   4.004  10.878   7.484  0.1192  0.8331 -0.9166
  374MOL0     C50388   3.947  10.755   7.437 -0.8761 -0.7674  0.2446
  374MOL0     C50389   4.003  10.693   7.326  0.1055  0.0229 -0.8231
  374MOL0     O50390   3.932  10.580   7.297 -0.7699 -0.0700  0.6162
  374MOL0     C50391   3.962  10.499   7.185  0.2902 -0.1346  0.2250
  374MOL0     C50392   3.879  10.371   7.207  0.1850 -0.0732 -0.5012
  374MOL0     C50393   3.889  10.261   7.099  0.3392  0.8535  0.2456
  374MOL0     C50394   3.836  10.134   7.154  0.1311 -0.3436 -1.0428
  374MOL0     C50395   3.825  10.027   7.049  0.1252 -0.1575  0.1769
  374MOL0     C50396   3.728   9.918   7.100  0.8032 -0.6723 -0.1676
  374MOL0     C50397   3.673   9.833   6.987  1.5907 -0.4027 -0.0958
  374MOL0     C50398   3.569   9.903   6.891 -0.8732  0.0813  0.3796
  374MOL0    Cl50399   3.415   9.935   6.968 -0.2687 -0.1683  0.0048
  374MOL0     C50400   4.111  10.751   7.267  0.0045  0.7059  0.4910
  374MOL0     C50401   4.158  10.872   7.321  0.1410 -0.3592 -0.6034
  374MOL0     O50402   4.172  11.159   7.274 -0.5026  0.4515 -0.6429
  374MOL0     C50403   4.242  11.407   7.358  0.0710 -0.0638 -0.4473
  374MOL0     C50404   4.267  11.534   7.409 -0.3740 -0.1674  0.0908
  374MOL0     N50405   4.597  12.219   7.356 -0.9279  0.0707 -0.6387
  374MOL0     N50406   4.690  12.280   7.304 -0.0421 -0.3736 -0.2268
  374MOL0     C50407   4.933  11.373   6.890  0.6771  0.2372 -0.4609
  374MOL0     C50408   4.859  11.277   6.969  0.5367 -0.1070 -0.4675
  374MOL0     C50409   4.680  10.991   7.226  0.3994  0.3576 -0.4345
  374MOL0     C50410   4.760  10.915   7.322  0.2805  0.2895 -1.0035
  374MOL0     C50411   4.717  10.780   7.362 -0.4238 -0.8156  0.2068
  374MOL0     C50412   4.600  10.723   7.314 -0.2251  0.1481 -0.1634
  374MOL0     O50413   4.561  10.595   7.338 -0.1820  0.3283 -0.0168
  374MOL0     C50414   4.654  10.499   7.411  0.8174  0.7315  0.1776
  374MOL0     C50415   4.780  10.453   7.338  0.1903  0.3253 -0.6972
  374MOL0     C50416   4.875  10.369   7.428  0.0582 -0.9451  0.0233
  374MOL0     C50417   5.013  10.354   7.365  0.5758 -0.7134 -0.8862
  374MOL0     C50418   5.092  10.271   7.444  0.4857 -0.3109 -0.3031
  374MOL0     C50419   5.173  10.214   7.515  0.0746 -0.2504  0.4444
  374MOL0     C50420   4.520  10.804   7.233 -1.0283  0.3364  1.0605
  374MOL0     C50421   4.558  10.930   7.187  0.7201  0.2806 -0.3736
  374MOL0     C50422   4.449  10.985   7.090  0.1671 -0.3787 -0.2683
  374MOL0     H50423   5.081  11.220   7.208  0.7598 -1.8592 -2.1277
  374MOL0     H50424   5.187  11.414   7.111 -0.7961 -0.6184 -1.2971
  374MOL0     H50425   5.122  11.665   6.719 -0.1052  2.2094  0.6853
  374MOL0     H50426   4.971  11.577   6.729  2.2403  0.4167 -1.8329
  374MOL0     H50427   4.904  11.720   6.928  0.1997 -2.1530 -0.3734
  374MOL0     H50428   4.947  11.823   6.798 -0.6661  0.1836  1.5386
  374MOL0     H50429   5.181  11.871   6.891  0.4699  1.0788  2.6063
  374MOL0     H50430   5.147  11.747   7.010  3.0112  4.0679  2.9857
  374MOL0     H50431   4.993  12.004   6.965 -0.9710  0.5151  2.8454
  374MOL0     H50432   4.956  11.903   7.100 -2.3341  3.4442  0.2854
  374MOL0     H50433   5.188  11.981   7.190  0.3292 -1.6082 -0.3363
  374MOL0     H50434   5.216  12.053   7.029  0.1092  3.3894  0.3707
  374MOL0     H50435   5.158  12.236   7.174 -1.8139  1.2598  0.1566
  374MOL0     H50436   5.021  12.223   7.071  0.1772 -0.5981 -0.1340
  374MOL0     H50437   5.041  12.106   7.347 -0.3920  0.2686  0.6139
  374MOL0     H50438   4.904  12.106   7.240  0.6399  0.3830 -0.1291
  374MOL0     H50439   5.008  12.322   7.409  0.6555 -0.4818 -0.4963
  374MOL0     H50440   4.931  12.362   7.247 -0.7464 -1.5677 -2.2060
  374MOL0     H50441   4.832  12.167   7.575 -1.1994  1.5925  1.4438
  374MOL0     H50442   4.619  12.070   7.668 -1.3591  1.0414  1.3203
  374MOL0     H50443   4.473  12.148   7.621  2.3513  4.5257 -2.6280
  374MOL0     H50444   4.462  12.009   7.430  2.3372  1.4732 -1.2209
  374MOL0     H50445   4.587  11.895   7.478 -0.3684 -0.8104  0.8128
  374MOL0     H50446   4.329  11.957   7.637 -1.1635 -2.1048 -1.2115
  374MOL0     H50447   4.470  11.850   7.689  1.1654 -0.3880 -1.7095
  374MOL0     H50448   4.406  11.774   7.430 -2.1258  0.3367 -1.4851
  374MOL0     H50449   4.256  11.830   7.481 -0.6713 -3.7919 -1.6268
  374MOL0     H50450   4.259  11.470   7.739  0.4261 -2.1621  0.2323
  374MOL0     H50451   4.233  11.245   7.657  2.4753 -0.6524 -1.3826
  374MOL0     H50452   3.967  10.915   7.579 -0.5138  0.4876 -1.0201
  374MOL0     H50453   3.879  10.694   7.496 -1.1288  0.2315  1.0382
  374MOL0     H50454   3.937  10.553   7.093 -0.4915  2.2733  1.7561
  374MOL0     H50455   4.065  10.462   7.194 -1.0387 -3.5753  4.3739
  374MOL0     H50456   3.915  10.328   7.301  1.9836 -1.6825 -1.8434
  374MOL0     H50457   3.780  10.416   7.213  0.7617  1.0621  1.7831
  374MOL0     H50458   3.844  10.292   7.004 -2.6911 -1.4304  0.7912
  374MOL0     H50459   3.994  10.241   7.076  0.5238  2.6334 -0.6411
  374MOL0     H50460   3.742  10.153   7.207  0.3909 -2.7957  0.4365
  374MOL0     H50461   3.906  10.103   7.232 -1.1037 -0.7297 -0.0572
  374MOL0     H50462   3.926   9.999   7.016  1.2067  0.8040  2.4377
  374MOL0     H50463   3.774  10.075   6.965 -1.9780 -0.9856  0.9172
  374MOL0     H50464   3.801   9.856   7.153 -0.8636 -0.1450  2.9554
  374MOL0     H50465   3.647   9.964   7.156  0.6178 -3.3129  1.9520
  374MOL0     H50466   3.631   9.741   7.029  2.0816 -0.1196  1.0612
  374MOL0     H50467   3.759   9.811   6.923  0.7989  0.9542 -1.7024
  374MOL0     H50468   3.614   9.995   6.852 -2.3665  1.2223  1.2341
  374MOL0     H50469   3.552   9.840   6.804 -2.3190 -2.5215  2.3832
  374MOL0     H50470   4.155  10.710   7.177 -0.7706  1.4968 -0.2626
  374MOL0     H50471   4.249  10.911   7.277 -1.2849  0.2396 -3.2194
  374MOL0     H50472   4.228  11.396   7.251 -1.1826  0.9786 -0.4178
  374MOL0     H50473   4.295  11.602   7.329  0.0707 -0.4155  0.0311
  374MOL0     H50474   4.894  11.395   6.791  0.3630 -1.6994 -0.8209
  374MOL0     H50475   4.764  11.231   6.943  0.2827  0.8900 -1.3749
  374MOL0     H50476   4.853  10.956   7.360 -0.3396  0.7923  0.0356
  374MOL0     H50477   4.791  10.731   7.425  0.6854 -1.1020 -1.2513
  374MOL0     H50478   4.591  10.418   7.448 -0.5733  1.8673  0.4002
  374MOL0     H50479   4.681  10.557   7.501  0.0917 -0.2270  1.0406
  374MOL0     H50480   4.829  10.547   7.311 -1.5859  1.7222  0.7384
  374MOL0     H50481   4.743  10.391   7.255  0.2342  0.9466 -1.1862
  374MOL0     H50482   4.840  10.268   7.449  3.3543 -2.3512 -0.6422
  374MOL0     H50483   4.870  10.429   7.520  3.6848  2.7507 -1.8770
  374MOL0     H50484   4.999  10.307   7.267  2.3107 -1.5053 -0.7859
  374MOL0     H50485   5.054  10.455   7.354  0.1383 -0.4084  0.1574
  374MOL0     H50486   5.251  10.155   7.558  0.2253  1.2054  2.2863
  374MOL0     H50487   4.430  10.754   7.200  1.9337 -3.0505 -3.0457
  374MOL0     H50488   4.485  11.050   7.009  1.1262 -1.1168 -0.4465
  374MOL0     H50489   4.398  10.904   7.037  0.6664 -0.0929 -1.2097
  374MOL0     H50490   4.384  11.052   7.148  0.4932 -0.8778  0.6798
  375MOL0     O50491   5.812  10.740   2.809  0.3194 -0.1823  0.9382
  375MOL0     C50492   5.887  10.655   2.761  0.0337  0.8414 -0.3028
  375MOL0     O50493   6.014  10.681   2.698  0.1298 -0.1595 -0.3632
  375MOL0     C50494   6.054  10.811   2.707 -0.3742 -0.5995 -0.7279
  375MOL0     C50495   6.067  10.866   2.843 -0.5122  0.0466  1.2837
  375MOL0     C50496   6.090  10.999   2.857  0.0490 -0.5088 -1.0155
  375MOL0     C50497   6.112  11.081   2.745  0.7020 -0.2017 -0.7351
  375MOL0     O50498   6.149  11.209   2.753 -0.2536 -0.0254  0.0472
  375MOL0     C50499   6.040  11.275   2.814  0.5502 -0.2961  0.3149
  375MOL0     C50500   6.058  11.428   2.801 -0.6759 -0.3517  0.1131
  375MOL0     C50501   6.058  11.472   2.669 -1.1192  0.4778  0.1120
  375MOL0     C50502   5.925  11.455   2.590 -0.7031 -0.5485 -0.1514
  375MOL0     C50503   5.916  11.509   2.452  0.2890  0.0143 -0.4198
  375MOL0     C50504   6.003  11.417   2.361 -0.6645 -0.8610 -0.2709
  375MOL0     C50505   6.143  11.465   2.329 -0.2831 -0.0118 -0.4254
  375MOL0     C50506   6.221  11.388   2.222  0.7372 -0.8568  0.0975
  375MOL0     N50507   6.364  11.441   2.225  0.5063  1.1344  0.1603
  375MOL0     C50508   6.475  11.368   2.236 -0.7103  0.8727  0.7413
  375MOL0     C50509   6.565  11.438   2.161 -0.1095 -0.2342 -0.4229
  375MOL0     C50510   6.703  11.397   2.157 -0.6573 -0.0865  0.4730
  375MOL0     C50511   6.774  11.439   2.280  0.1293 -0.1722 -0.0476
  375MOL0     C50512   6.900  11.348   2.301 -0.0165 -0.6113  0.4662
  375MOL0     C50513   6.893  11.202   2.299 -0.7277  0.7702 -0.4202
  375MOL0     O50514   6.796  11.153   2.396  0.1618  0.0548  0.1105
  375MOL0     C50515   6.847  11.080   2.494  0.8365 -0.5068 -0.2864
  375MOL0     C50516   6.860  11.131   2.623 -0.0686 -0.1806  0.7168
  375MOL0     C50517   6.895  11.039   2.725  0.8335  0.1461  0.5488
  375MOL0     C50518   6.905  10.906   2.709 -0.4018 -0.1416 -0.6195
  375MOL0     C50519   6.928  10.812   2.829  0.0535  0.9386 -0.9499
  375MOL0     O50520   6.920  10.871   2.953 -0.0150 -0.3789 -0.5337
  375MOL0     C50521   6.929  10.789   3.067 -0.4549 -0.3254 -0.1469
  375MOL0     C50522   7.036  10.818   3.158  0.2769  0.1178 -0.9172
  375MOL0     C50523   7.065  10.716   3.248 -0.6201  0.6319 -1.0130
  375MOL0     C50524   6.975  10.609   3.279  0.5611 -0.4473 -0.0078
  375MOL0     O50525   6.994  10.521   3.389 -0.7166  0.1105  0.6402
  375MOL0     C50526   7.059  10.573   3.502 -0.1450  0.1273 -0.3620
  375MOL0     C50527   7.009  10.492   3.617  0.6638 -0.1291 -0.9957
  375MOL0     C50528   6.866  10.535   3.666 -1.1672  0.1227 -0.9496
  375MOL0     C50529   6.827  10.448   3.788 -0.2526  0.0595 -0.1016
  375MOL0     C50530   6.681  10.470   3.823 -0.3145  0.0999 -1.0433
  375MOL0     C50531   6.651  10.370   3.942 -0.0157 -0.8215  0.3023
  375MOL0     C50532   6.521  10.415   4.017  0.0006 -0.0777 -0.3627
  375MOL0     C50533   6.397  10.424   3.923 -0.0804  1.0925 -0.9116
  375MOL0    Cl50534   6.386  10.585   3.847 -0.1690 -0.4636 -0.4319
  375MOL0     C50535   6.874  10.585   3.189  0.9706 -0.0301 -0.5079
  375MOL0     C50536   6.848  10.677   3.087 -0.7604 -0.6245  0.4614
  375MOL0     O50537   6.950  10.688   2.811 -0.0663 -0.1823  0.8262
  375MOL0     C50538   6.874  10.856   2.583  0.3378 -0.1891  0.2049
  375MOL0     C50539   6.851  10.948   2.475 -0.5302 -0.3065  0.0487
  375MOL0     N50540   6.513  11.558   2.124  0.1143  0.0585 -0.3388
  375MOL0     N50541   6.386  11.562   2.159 -1.0606  0.4417 -0.1157
  375MOL0     C50542   6.116  11.028   2.615  0.6383  0.0502 -0.4642
  375MOL0     C50543   6.081  10.892   2.598 -0.2067 -0.0393 -0.2413
  375MOL0     C50544   5.845  10.510   2.767 -0.2905  0.0121 -0.4221
  375MOL0     C50545   5.926  10.410   2.698  0.0951 -0.5365 -0.3307
  375MOL0     C50546   5.887  10.274   2.707 -0.4241 -0.2857 -0.1260
  375MOL0     C50547   5.772  10.233   2.766  0.0697 -0.3342  0.6957
  375MOL0     O50548   5.730  10.105   2.741 -0.2191 -0.0686  0.3965
  375MOL0     C50549   5.613  10.052   2.802 -0.5661 -0.4542 -0.3129
  375MOL0     C50550   5.596   9.903   2.770  0.2995  0.3427  0.3637
  375MOL0     C50551   5.605   9.861   2.621 -0.6537 -0.2255  0.3543
  375MOL0     C50552   5.539   9.726   2.607  0.3050  0.3062 -0.1250
  375MOL0     C50553   5.604   9.608   2.674 -0.2972 -0.1757  0.0818
  375MOL0     C50554   5.652   9.508   2.713 -0.7883  0.2330 -0.3790
  375MOL0     C50555   5.700  10.324   2.836  1.0894  0.4652  0.0251
  375MOL0     C50556   5.729  10.461   2.843  0.2285  0.1371 -0.0716
  375MOL0     C50557   5.638  10.546   2.935 -0.6875  0.2078  0.1898
  375MOL0     H50558   6.063  10.818   2.940  0.9788  0.5045  1.5920
  375MOL0     H50559   6.100  11.033   2.959 -2.9854 -2.3079  0.0016
  375MOL0     H50560   5.944  11.246   2.771 -0.1177  2.1635 -0.0069
  375MOL0     H50561   6.025  11.255   2.920 -1.1769 -1.9402 -0.1892
  375MOL0     H50562   6.153  11.453   2.851 -0.9928 -1.5327  1.3609
  375MOL0     H50563   5.981  11.477   2.861  1.3855  1.9295  1.0903
  375MOL0     H50564   6.133  11.413   2.616  1.1089  1.4098  2.0618
  375MOL0     H50565   6.106  11.570   2.661 -2.9781  1.5574  1.4997
  375MOL0     H50566   5.909  11.347   2.582  1.0237 -0.6992 -3.4898
  375MOL0     H50567   5.846  11.510   2.641  1.3881  1.6848  0.8413
  375MOL0     H50568   5.815  11.491   2.414  1.2977 -2.5510 -2.2246
  375MOL0     H50569   5.937  11.616   2.457 -0.3838  0.1017  3.0560
  375MOL0     H50570   6.010  11.315   2.402 -1.8821 -0.7965  0.1458
  375MOL0     H50571   5.957  11.406   2.263  0.4920  1.5757 -1.1517
  375MOL0     H50572   6.204  11.439   2.416  2.2584  0.3567 -2.0075
  375MOL0     H50573   6.128  11.572   2.311 -2.3871  0.2928  2.4254
  375MOL0     H50574   6.224  11.281   2.246 -1.3367 -0.8678  0.5614
  375MOL0     H50575   6.173  11.407   2.125  0.3633  1.7899  0.7238
  375MOL0     H50576   6.472  11.271   2.285  0.2610  0.6763  0.4362
  375MOL0     H50577   6.700  11.287   2.163  0.1630 -0.0513  3.0848
  375MOL0     H50578   6.752  11.421   2.063 -1.0806  1.4146  0.6063
  375MOL0     H50579   6.808  11.542   2.269  3.0058 -1.0201 -0.1787
  375MOL0     H50580   6.709  11.430   2.367  0.9376 -3.3626  0.3587
  375MOL0     H50581   6.928  11.365   2.406 -0.7443 -2.3478  0.9765
  375MOL0     H50582   6.989  11.377   2.244  2.3356 -1.1680  3.5543
  375MOL0     H50583   6.993  11.165   2.325 -0.9286  1.8056  2.1020
  375MOL0     H50584   6.857  11.164   2.203 -2.1101 -1.5721  0.9450
  375MOL0     H50585   6.857  11.238   2.645 -0.5221  0.7122 -3.0076
  375MOL0     H50586   6.904  11.074   2.827 -2.1674  4.3701 -0.3917
  375MOL0     H50587   7.114  10.892   3.144  0.1720  0.1177 -1.5734
  375MOL0     H50588   7.155  10.721   3.308 -0.9530  1.0190 -0.5342
  375MOL0     H50589   7.167  10.576   3.489  0.1789 -2.7248  0.7496
  375MOL0     H50590   7.025  10.674   3.525  2.4295  0.1260  5.1249
  375MOL0     H50591   7.015  10.385   3.596 -0.0030 -0.7307  1.4553
  375MOL0     H50592   7.084  10.524   3.691 -0.3520  2.1140 -0.8477
  375MOL0     H50593   6.856  10.643   3.678 -4.4010  0.4218 -4.3343
  375MOL0     H50594   6.796  10.502   3.588  0.6001  1.6122 -3.2877
  375MOL0     H50595   6.885  10.478   3.876  2.1449 -2.9380 -0.4879
  375MOL0     H50596   6.855  10.345   3.766  0.5454  0.5391 -1.4467
  375MOL0     H50597   6.609  10.442   3.746  1.1228 -0.4220 -2.2542
  375MOL0     H50598   6.652  10.571   3.854 -1.9752 -0.4812 -0.6122
  375MOL0     H50599   6.636  10.269   3.901 -3.2518  0.4964 -2.1551
  375MOL0     H50600   6.736  10.366   4.011 -0.4112 -1.4309  0.7672
  375MOL0     H50601   6.548  10.510   4.063  1.1542 -0.1022 -0.9471
  375MOL0     H50602   6.499  10.339   4.093 -1.7853  1.2392  0.5029
  375MOL0     H50603   6.430  10.361   3.840  4.3135  2.3651 -0.3763
  375MOL0     H50604   6.301  10.393   3.965  1.0233  0.2437  1.1375
  375MOL0     H50605   6.809  10.500   3.209 -0.9877  1.1765 -1.5572
  375MOL0     H50606   6.766  10.663   3.017  0.2181  1.3015 -1.1802
  375MOL0     H50607   6.875  10.750   2.558  2.1821  0.1766 -1.6408
  375MOL0     H50608   6.811  10.919   2.379  1.0766  0.0781 -0.7694
  375MOL0     H50609   6.116  11.092   2.528 -1.2661 -0.8603 -1.1883
  375MOL0     H50610   6.068  10.864   2.494  1.1078 -1.6552 -0.0018
  375MOL0     H50611   6.014  10.454   2.652 -1.2890  2.6787 -0.1596
  375MOL0     H50612   5.936  10.195   2.652 -1.3027 -2.2158  1.7443
  375MOL0     H50613   5.528  10.109   2.764  1.0678  2.0617 -0.3956
  375MOL0     H50614   5.628  10.072   2.908 -1.1334 -0.9511 -0.1302
  375MOL0     H50615   5.492   9.875   2.792  0.2622 -0.6785 -0.9962
  375MOL0     H50616   5.673   9.848   2.824  4.9470  3.6939 -2.1807
  375MOL0     H50617   5.709   9.849   2.588 -0.0003  1.4340  1.7053
  375MOL0     H50618   5.559   9.933   2.553  0.0269 -3.3126 -3.8291
  375MOL0     H50619   5.435   9.745   2.633  0.3887  3.2465 -1.5791
  375MOL0     H50620   5.543   9.709   2.499 -0.6487 -0.6693 -0.0240
  375MOL0     H50621   5.681   9.406   2.726 -1.4224 -0.2340 -2.2995
  375MOL0     H50622   5.621  10.306   2.908  0.4826  2.9439  0.0503
  375MOL0     H50623   5.705  10.576   3.016 -0.5425 -0.0957  0.1829
  375MOL0     H50624   5.615  10.640   2.883  0.1862  0.6633  0.6063
  375MOL0     H50625   5.549  10.502   2.980 -3.1619  2.4912 -2.0718
  376MOL0     O50626   8.401   4.849   8.706  0.4625 -0.1533  0.2919
  376MOL0     C50627   8.449   4.911   8.796 -0.1723 -0.1281  0.9820
  376MOL0     O50628   8.557   4.989   8.787  0.1229 -0.3728  1.1620
  376MOL0     C50629   8.608   5.031   8.661  0.2388 -0.9493 -0.0611
  376MOL0     C50630   8.593   5.164   8.623 -0.2019  0.1725 -0.8739
  376MOL0     C50631   8.650   5.207   8.497  0.6927 -0.0436  0.7092
  376MOL0     C50632   8.702   5.110   8.411  0.9010  0.8872  0.2582
  376MOL0     O50633   8.740   5.161   8.287 -0.3884 -0.2828  0.4253
  376MOL0     C50634   8.773   5.074   8.183  0.1177  0.1238  1.2594
  376MOL0     C50635   8.925   5.072   8.168  0.2907  0.1450  0.1932
  376MOL0     C50636   8.967   4.962   8.073 -0.5193 -0.1102  0.5734
  376MOL0     C50637   8.901   4.962   7.924 -0.2511  0.4496 -0.4777
  376MOL0     C50638   8.996   4.893   7.830 -0.0382 -0.1955  0.1819
  376MOL0     C50639   8.996   4.736   7.833 -0.8838  0.8738  0.2973
  376MOL0     C50640   9.100   4.655   7.749  0.2114  0.7450 -0.2098
  376MOL0     C50641   9.104   4.514   7.807 -1.0451  0.9844 -0.1940
  376MOL0     N50642   9.209   4.430   7.743 -0.0221  0.1055 -0.2777
  376MOL0     C50643   9.241   4.412   7.608 -0.1831 -0.0144  0.1842
  376MOL0     C50644   9.346   4.330   7.618  0.5785 -0.2094  0.0891
  376MOL0     C50645   9.425   4.274   7.507 -0.0638 -0.3141 -0.9766
  376MOL0     C50646   9.513   4.366   7.428 -0.6556  0.4420 -0.7825
  376MOL0     C50647   9.614   4.445   7.526 -0.6090  0.2374 -0.5135
  376MOL0     C50648   9.713   4.344   7.591 -0.3221 -0.4667 -0.2591
  376MOL0     O50649   9.826   4.323   7.506  0.1710  0.4706 -0.3142
  376MOL0     C50650   9.925   4.239   7.566 -0.3112  0.7359 -1.0116
  376MOL0     C50651   9.905   4.166   7.686 -0.1605 -0.3468  0.6862
  376MOL0     C50652  10.011   4.103   7.747 -0.3812 -0.5459  0.9514
  376MOL0     C50653  10.132   4.107   7.686  0.6681  1.4077 -0.6300
  376MOL0     C50654  10.244   4.045   7.752 -0.6887  0.5563 -1.0487
  376MOL0     O50655  10.363   4.043   7.681 -1.0223  1.4700  0.1821
  376MOL0     C50656  10.474   3.965   7.729 -0.1784 -0.4910  0.3632
  376MOL0     C50657  10.604   4.011   7.711 -0.8944 -0.2747 -0.2816
  376MOL0     C50658  10.715   3.922   7.718  0.6776  0.1061 -0.2974
  376MOL0     C50659  10.698   3.786   7.756 -0.5073 -0.6512  0.1018
  376MOL0     O50660  10.801   3.696   7.754 -0.2083  0.5200  0.1052
  376MOL0     C50661  10.810   3.616   7.635  0.2707  0.5020  0.4128
  376MOL0     C50662  10.804   3.466   7.668 -0.5867  0.1226 -0.7515
  376MOL0     C50663  10.850   3.376   7.550 -0.4313 -0.0393 -0.0427
  376MOL0     C50664  11.005   3.350   7.546  0.3410 -0.4094  0.3325
  376MOL0     C50665  11.030   3.295   7.401  0.0439 -0.4291  0.1973
  376MOL0     C50666  11.177   3.278   7.351  0.4994  0.8519  0.1365
  376MOL0     C50667  11.250   3.183   7.440  0.9136  0.3315 -0.0558
  376MOL0     C50668  11.391   3.167   7.390 -0.7027 -0.1209 -0.2067
  376MOL0    Cl50669  11.488   3.312   7.414 -0.1331 -0.0625  0.1746
  376MOL0     C50670  10.570   3.740   7.778  0.5385 -1.2517 -1.0516
  376MOL0     C50671  10.460   3.832   7.774 -0.0834  0.4138  0.7705
  376MOL0     O50672  10.240   4.003   7.874  0.0058 -0.2854 -0.2876
  376MOL0     C50673  10.151   4.170   7.566  0.6512  0.4510  0.2937
  376MOL0     C50674  10.048   4.242   7.508  0.1246  0.8400 -0.2708
  376MOL0     N50675   9.360   4.288   7.740  0.4365 -0.2525 -0.2865
  376MOL0     N50676   9.282   4.355   7.821 -0.2326  1.0785 -0.2707
  376MOL0     C50677   8.737   4.977   8.458 -0.1776 -0.4515  0.2896
  376MOL0     C50678   8.681   4.943   8.578  0.5246  0.4809 -0.0250
  376MOL0     C50679   8.392   4.893   8.934  0.2067  1.0150 -0.5370
  376MOL0     C50680   8.399   5.007   9.014  0.2409 -0.2730 -0.0638
  376MOL0     C50681   8.330   5.014   9.137  0.2906  0.7083 -0.5476
  376MOL0     C50682   8.255   4.906   9.185  1.0992  0.4200  0.5248
  376MOL0     O50683   8.177   4.934   9.305 -0.3824  0.1427  1.4569
  376MOL0     C50684   8.140   4.823   9.394 -0.2953 -0.6861  0.9911
  376MOL0     C50685   8.265   4.765   9.452  0.7808  0.1229 -0.3794
  376MOL0     C50686   8.367   4.864   9.519 -0.1876  0.3418  0.6011
  376MOL0     C50687   8.506   4.788   9.546  0.3089  0.6016  0.2584
  376MOL0     C50688   8.565   4.731   9.423  0.5014 -0.4186  0.5804
  376MOL0     C50689   8.620   4.694   9.327  0.3979 -0.2343 -0.1359
  376MOL0     C50690   8.253   4.789   9.105  0.1825 -0.3850  0.1493
  376MOL0     C50691   8.327   4.774   8.991 -0.4387 -0.4841 -0.2753
  376MOL0     C50692   8.358   4.634   8.942  0.0586 -0.6266 -1.0168
  376MOL0     H50693   8.537   5.232   8.686  3.4490  1.6489  1.0481
  376MOL0     H50694   8.628   5.298   8.442 -0.9193 -2.5346 -3.2298
  376MOL0     H50695   8.721   4.979   8.199  1.3264 -0.9708 -0.8148
  376MOL0     H50696   8.726   5.106   8.089 -1.1212 -4.3544  0.1189
  376MOL0     H50697   8.979   5.054   8.262 -1.1110  0.1689  1.0381
  376MOL0     H50698   8.962   5.168   8.131  1.5048 -0.0016  0.9545
  376MOL0     H50699   8.953   4.861   8.112 -0.2672 -1.1821 -1.9214
  376MOL0     H50700   9.075   4.977   8.074 -0.8728  3.1172  1.7826
  376MOL0     H50701   8.816   4.893   7.931 -0.6545  1.1018  2.3874
  376MOL0     H50702   8.879   5.061   7.883  1.5922 -0.5125 -4.2960
  376MOL0     H50703   8.976   4.924   7.727  0.4531 -1.3155 -0.2686
  376MOL0     H50704   9.093   4.926   7.867 -1.4151 -0.1830  4.3911
  376MOL0     H50705   8.992   4.699   7.936  1.2799  0.9456  0.4507
  376MOL0     H50706   8.901   4.697   7.794  0.4593 -1.5826 -0.7225
  376MOL0     H50707   9.194   4.707   7.769  2.4150 -3.2921  1.0971
  376MOL0     H50708   9.083   4.658   7.641  0.5142 -0.3768 -0.2944
  376MOL0     H50709   9.108   4.515   7.916  2.6201  1.2590 -0.2242
  376MOL0     H50710   9.013   4.460   7.777 -1.2701 -1.0963  3.5963
  376MOL0     H50711   9.199   4.461   7.520 -0.8529  2.7934  1.9558
  376MOL0     H50712   9.487   4.195   7.550  1.2294 -0.2503 -2.6136
  376MOL0     H50713   9.355   4.225   7.438  1.1207 -4.0058  0.2032
  376MOL0     H50714   9.565   4.311   7.349 -2.2671  0.0737 -1.6447
  376MOL0     H50715   9.463   4.445   7.370 -0.8571 -0.2651 -1.5977
  376MOL0     H50716   9.565   4.506   7.603 -0.5723 -0.3162 -0.0449
  376MOL0     H50717   9.672   4.519   7.470 -0.0489  0.8002  0.7705
  376MOL0     H50718   9.662   4.248   7.601 -1.6220  0.1208 -1.0575
  376MOL0     H50719   9.738   4.377   7.692 -2.9797  2.5447 -0.4460
  376MOL0     H50720   9.810   4.167   7.739  0.4498  0.4810  1.8169
  376MOL0     H50721  10.001   4.042   7.836 -1.0473 -0.8583  0.6681
  376MOL0     H50722  10.629   4.114   7.689 -0.8779  0.0017  0.9830
  376MOL0     H50723  10.818   3.938   7.688  0.7529 -1.2571 -0.8414
  376MOL0     H50724  10.734   3.641   7.561 -0.9717  0.9967  1.7958
  376MOL0     H50725  10.901   3.621   7.575 -0.9997 -1.4362 -1.8144
  376MOL0     H50726  10.868   3.455   7.757  0.1556  0.5695 -1.2139
  376MOL0     H50727  10.708   3.428   7.704 -0.3016 -2.2331 -2.2852
  376MOL0     H50728  10.807   3.276   7.554  2.4134 -1.3619 -0.4634
  376MOL0     H50729  10.802   3.430   7.467  2.3016  2.7290 -0.0144
  376MOL0     H50730  11.040   3.278   7.621  0.3293 -0.2877  0.4540
  376MOL0     H50731  11.057   3.445   7.533 -1.2287  0.0849 -3.8716
  376MOL0     H50732  10.982   3.369   7.337  0.4109  1.5518  2.0796
  376MOL0     H50733  10.974   3.202   7.385  0.2990 -0.2822 -1.8363
  376MOL0     H50734  11.167   3.236   7.250 -4.4006  2.1323 -0.1636
  376MOL0     H50735  11.223   3.377   7.339  1.8943  0.4187  1.6072
  376MOL0     H50736  11.200   3.087   7.450  1.7764 -0.0628  0.6166
  376MOL0     H50737  11.251   3.221   7.543 -1.8423 -0.9566  0.5424
  376MOL0     H50738  11.441   3.089   7.450  0.8579  0.2615 -0.9538
  376MOL0     H50739  11.406   3.143   7.285 -0.1297 -0.7170 -0.0015
  376MOL0     H50740  10.569   3.635   7.806  1.5900 -1.6605 -2.4147
  376MOL0     H50741  10.360   3.794   7.791 -0.2714  1.4097  2.0426
  376MOL0     H50742  10.249   4.200   7.530 -1.3308  4.9607 -2.2011
  376MOL0     H50743  10.068   4.306   7.423  0.4003  1.5392  0.3094
  376MOL0     H50744   8.797   4.905   8.404  0.4358 -0.5738  1.1359
  376MOL0     H50745   8.692   4.845   8.623 -1.1170  0.0198 -0.5434
  376MOL0     H50746   8.450   5.100   8.994  0.0800 -0.0499  0.5205
  376MOL0     H50747   8.315   5.114   9.177 -1.4689 -1.1838  4.2446
  376MOL0     H50748   8.085   4.751   9.333 -1.4756  2.7522 -2.4644
  376MOL0     H50749   8.065   4.854   9.468 -0.6989  1.8617 -0.3637
  376MOL0     H50750   8.313   4.702   9.377 -0.4009 -0.4257 -0.7066
  376MOL0     H50751   8.230   4.692   9.526 -1.7012  1.8167  0.2484
  376MOL0     H50752   8.340   4.906   9.616 -1.1679  0.9477  0.0841
  376MOL0     H50753   8.392   4.949   9.455 -1.2321  2.0326  2.3155
  376MOL0     H50754   8.576   4.860   9.589  2.5325  2.8237 -5.9620
  376MOL0     H50755   8.469   4.706   9.608  1.9608  1.0086  1.8604
  376MOL0     H50756   8.673   4.659   9.241 -0.3648 -2.8336  0.3693
  376MOL0     H50757   8.185   4.710   9.138  1.4565 -3.7645 -4.2979
  376MOL0     H50758   8.383   4.634   8.836 -0.0956 -0.2502 -1.0537
  376MOL0     H50759   8.438   4.612   9.013  0.1166  0.2227 -0.8074
  376MOL0     H50760   8.267   4.578   8.967  0.2981 -0.7887 -0.4822
  377MOL0     O50761   2.881   1.992   3.014  0.6335 -0.1483 -0.8742
  377MOL0     C50762   2.996   1.977   3.052 -0.8151 -0.8294  0.2100
  377MOL0     O50763   3.061   2.040   3.155 -0.4186 -0.0889 -0.2265
  377MOL0     C50764   2.962   2.099   3.239  0.3179 -0.6771  0.4537
  377MOL0     C50765   2.880   2.210   3.199 -0.5750  0.0016  0.7069
  377MOL0     C50766   2.776   2.252   3.280  0.5632 -0.4978 -1.0078
  377MOL0     C50767   2.768   2.203   3.410  0.0221 -0.7087 -0.6002
  377MOL0     O50768   2.688   2.286   3.486  0.2585  0.4053 -0.5703
  377MOL0     C50769   2.654   2.228   3.616  0.6910  0.1176 -0.6922
  377MOL0     C50770   2.586   2.336   3.697  1.5618 -0.9801  0.1008
  377MOL0     C50771   2.471   2.410   3.616  0.2896  0.3203 -1.0133
  377MOL0     C50772   2.403   2.514   3.698 -0.9682  0.6118 -0.1156
  377MOL0     C50773   2.332   2.474   3.824 -0.1531 -0.5438  0.2671
  377MOL0     C50774   2.238   2.347   3.800 -0.0758 -0.1678  1.1406
  377MOL0     C50775   2.125   2.352   3.895 -0.7921  0.7208  0.6421
  377MOL0     C50776   1.990   2.359   3.830 -0.4325 -0.7166 -0.1950
  377MOL0     N50777   1.973   2.470   3.726 -0.5241 -0.4495 -0.3499
  377MOL0     C50778   1.937   2.598   3.760 -0.7940 -0.3102  0.2314
  377MOL0     C50779   1.957   2.667   3.647  0.3147 -0.5243  0.1740
  377MOL0     C50780   1.943   2.809   3.613 -0.4107  0.2393  0.3766
  377MOL0     C50781   2.054   2.892   3.667  0.8776 -0.0599 -0.6318
  377MOL0     C50782   2.048   3.030   3.599  0.2991 -0.4007  0.2325
  377MOL0     C50783   2.184   3.100   3.618  0.2946 -0.1607 -0.3503
  377MOL0     O50784   2.207   3.133   3.759 -0.5256 -0.3503 -0.6663
  377MOL0     C50785   2.279   3.250   3.763 -0.1588 -0.6358  0.5093
  377MOL0     C50786   2.373   3.287   3.663  0.2361 -0.3410 -0.0084
  377MOL0     C50787   2.416   3.419   3.661 -0.3221 -0.6347 -1.2141
  377MOL0     C50788   2.372   3.519   3.758 -0.3557  0.0323  0.1880
  377MOL0     C50789   2.419   3.665   3.751  0.0530  0.7151 -0.2109
  377MOL0     O50790   2.503   3.704   3.648 -0.3889 -0.6197 -0.2396
  377MOL0     C50791   2.528   3.840   3.645  0.0945 -0.0026  0.5619
  377MOL0     C50792   2.491   3.899   3.526  0.6779 -0.3913  0.3203
  377MOL0     C50793   2.530   4.035   3.509 -0.2268  0.3433  0.3661
  377MOL0     C50794   2.602   4.112   3.591 -0.2963  0.0067 -0.6478
  377MOL0     O50795   2.624   4.251   3.589  0.4682  0.7779  0.0171
  377MOL0     C50796   2.551   4.339   3.505  0.6374 -0.3690  0.2381
  377MOL0     C50797   2.608   4.481   3.508  0.1334  0.2754  0.4521
  377MOL0     C50798   2.518   4.592   3.445 -1.0706  0.3357 -0.3954
  377MOL0     C50799   2.366   4.585   3.465 -0.7558  0.5830 -0.2200
  377MOL0     C50800   2.311   4.703   3.373  0.3147 -0.3887 -0.6811
  377MOL0     C50801   2.299   4.837   3.453  0.4572 -1.0314  0.3234
  377MOL0     C50802   2.236   4.952   3.368  0.6387 -0.1879 -0.7535
  377MOL0     C50803   2.256   5.091   3.439  0.3785  0.6091  0.3872
  377MOL0    Cl50804   2.157   5.210   3.361  0.2562  0.1536  0.4152
  377MOL0     C50805   2.646   4.038   3.705  0.1103 -0.0717 -0.1150
  377MOL0     C50806   2.601   3.908   3.735 -0.2573  0.2234  0.4410
  377MOL0     O50807   2.367   3.737   3.832  0.9519  0.3795 -0.1894
  377MOL0     C50808   2.297   3.466   3.866  0.2612 -0.1228 -0.5343
  377MOL0     C50809   2.249   3.339   3.870 -0.1143  0.9004  0.9199
  377MOL0     N50810   1.972   2.579   3.546  0.0876  0.6081  0.1432
  377MOL0     N50811   1.985   2.458   3.590  1.0461 -0.2816 -0.1946
  377MOL0     C50812   2.841   2.092   3.455  0.1593  0.4548  0.5057
  377MOL0     C50813   2.943   2.037   3.369  0.0571  0.4218  0.2270
  377MOL0     C50814   3.072   1.872   2.973  0.4912 -0.0478  0.7867
  377MOL0     C50815   3.013   1.838   2.846  0.6069  1.2346 -0.4804
  377MOL0     C50816   3.065   1.734   2.770 -0.7706  0.8914  2.1084
  377MOL0     C50817   3.188   1.675   2.798 -0.0842  0.4719  1.1405
  377MOL0     O50818   3.229   1.571   2.717  0.4991 -0.4441 -0.6647
  377MOL0     C50819   3.340   1.569   2.635  0.0986 -0.9665  0.3195
  377MOL0     C50820   3.303   1.586   2.490  0.6950  0.0341 -0.1366
  377MOL0     C50821   3.422   1.559   2.396  0.7420 -0.3180  0.6044
  377MOL0     C50822   3.378   1.577   2.252 -0.0885 -1.1404  1.0416
  377MOL0     C50823   3.379   1.722   2.206 -0.2447  0.2730 -0.0203
  377MOL0     C50824   3.373   1.831   2.163 -0.4158 -0.4027  0.0409
  377MOL0     C50825   3.251   1.715   2.917 -0.1465  0.0628  0.0251
  377MOL0     C50826   3.199   1.814   3.005 -0.4021 -0.4594  0.5949
  377MOL0     C50827   3.265   1.843   3.133 -0.4689  0.1406  0.0362
  377MOL0     H50828   2.893   2.253   3.100 -1.8233 -2.4314 -0.5973
  377MOL0     H50829   2.710   2.330   3.242  4.1437  0.7329 -5.6216
  377MOL0     H50830   2.574   2.154   3.617  0.6550  0.1612  0.2873
  377MOL0     H50831   2.740   2.181   3.664  1.3066  0.8760 -1.0202
  377MOL0     H50832   2.661   2.405   3.736  0.0846  0.6156  0.2433
  377MOL0     H50833   2.548   2.293   3.790 -0.7756 -0.3119 -0.4616
  377MOL0     H50834   2.400   2.330   3.593  2.6121 -2.9683  2.2612
  377MOL0     H50835   2.496   2.466   3.525 -1.0726  3.0342  0.1681
  377MOL0     H50836   2.480   2.590   3.713  0.9475 -1.0324 -1.0845
  377MOL0     H50837   2.328   2.560   3.633 -2.4896 -3.7069 -1.7946
  377MOL0     H50838   2.410   2.450   3.896  1.8622 -0.3966 -1.7769
  377MOL0     H50839   2.277   2.561   3.860 -0.2388 -1.0774  1.4934
  377MOL0     H50840   2.208   2.336   3.695 -0.6292  0.9248  1.1651
  377MOL0     H50841   2.297   2.258   3.820  0.7232  0.4241  1.4908
  377MOL0     H50842   2.134   2.424   3.978  1.9487  0.1965  0.8982
  377MOL0     H50843   2.117   2.251   3.936  2.1601 -0.4064 -1.2769
  377MOL0     H50844   1.962   2.261   3.792  1.1121 -1.1776 -0.1912
  377MOL0     H50845   1.921   2.374   3.914 -0.2238 -0.2126 -0.1053
  377MOL0     H50846   1.915   2.625   3.862  0.6961  0.1328  0.4555
  377MOL0     H50847   1.942   2.811   3.504 -0.3040 -1.1356  0.3388
  377MOL0     H50848   1.849   2.857   3.642  0.3789  2.1128  0.0284
  377MOL0     H50849   2.030   2.909   3.773 -1.6921  2.7630 -1.5188
  377MOL0     H50850   2.152   2.844   3.665  0.7465 -0.3536 -3.6674
  377MOL0     H50851   1.970   3.099   3.631 -0.9524 -1.3008 -0.7433
  377MOL0     H50852   2.027   3.027   3.491 -0.4857  0.6192  0.3525
  377MOL0     H50853   2.174   3.189   3.556 -1.2013  0.8015  1.1734
  377MOL0     H50854   2.267   3.034   3.593 -0.8768 -1.5545 -0.7093
  377MOL0     H50855   2.403   3.220   3.583  3.2456  1.2586 -0.3627
  377MOL0     H50856   2.485   3.452   3.584  1.4499 -0.8585  0.2126
  377MOL0     H50857   2.438   3.836   3.454  1.1153  1.0026 -1.2903
  377MOL0     H50858   2.505   4.076   3.411  1.5819  0.6655  0.0095
  377MOL0     H50859   2.538   4.309   3.401  0.4412  3.1619 -0.8868
  377MOL0     H50860   2.450   4.360   3.543  0.7603  2.6660 -0.8441
  377MOL0     H50861   2.632   4.515   3.610  0.2942  2.1510 -0.1750
  377MOL0     H50862   2.693   4.487   3.440 -0.5134  0.8703 -0.3164
  377MOL0     H50863   2.556   4.687   3.484  1.8606 -0.1640 -1.7640
  377MOL0     H50864   2.531   4.592   3.337  0.1096  0.0270 -0.2558
  377MOL0     H50865   2.337   4.607   3.568  0.6739  1.5440  0.0023
  377MOL0     H50866   2.327   4.488   3.433  2.9276 -0.4932 -1.9703
  377MOL0     H50867   2.212   4.676   3.335  1.8062  0.9668 -6.4665
  377MOL0     H50868   2.377   4.728   3.290  0.7869  0.3309 -0.0981
  377MOL0     H50869   2.245   4.819   3.546  1.1582 -1.8081  0.5905
  377MOL0     H50870   2.395   4.877   3.487 -1.2858  3.4745  0.6235
  377MOL0     H50871   2.128   4.935   3.367  0.7934 -1.2932 -2.7659
  377MOL0     H50872   2.286   4.966   3.272 -1.1436  1.0943 -1.5529
  377MOL0     H50873   2.225   5.088   3.544 -0.7121  0.1471  0.0706
  377MOL0     H50874   2.359   5.125   3.430  0.6382 -0.5015 -1.3080
  377MOL0     H50875   2.697   4.099   3.778  0.2327 -0.9433  0.5495
  377MOL0     H50876   2.621   3.841   3.818 -1.8990 -1.1802 -0.2452
  377MOL0     H50877   2.267   3.533   3.945 -2.9342 -1.2475 -0.6467
  377MOL0     H50878   2.195   3.309   3.960  0.9323  0.0395  1.2761
  377MOL0     H50879   2.839   2.052   3.556 -3.0087 -3.7964 -0.9423
  377MOL0     H50880   3.014   1.964   3.406  0.1103 -0.5536 -1.6906
  377MOL0     H50881   2.919   1.884   2.816  0.3103  1.0912  0.2114
  377MOL0     H50882   3.024   1.708   2.673  1.3868  4.2146  0.0977
  377MOL0     H50883   3.387   1.470   2.644 -1.2814 -1.5567  1.6175
  377MOL0     H50884   3.405   1.645   2.679 -0.3324 -3.2456  5.7285
  377MOL0     H50885   3.255   1.681   2.465 -1.4265 -0.4046  1.8917
  377MOL0     H50886   3.231   1.505   2.474 -0.2814  0.9594 -0.5267
  377MOL0     H50887   3.463   1.460   2.417 -2.4591 -1.3163  2.8781
  377MOL0     H50888   3.504   1.629   2.417  0.4453  0.0116  0.6769
  377MOL0     H50889   3.440   1.516   2.186  0.3670 -0.3676  0.7475
  377MOL0     H50890   3.272   1.547   2.252 -0.6104  0.4736  2.8485
  377MOL0     H50891   3.389   1.933   2.132  0.4743 -0.1798  1.1853
  377MOL0     H50892   3.355   1.686   2.933 -0.1315  0.2903  0.3474
  377MOL0     H50893   3.281   1.947   3.163 -0.8424 -0.3650  2.0939
  377MOL0     H50894   3.205   1.799   3.213 -2.2438  1.2438 -0.6396
  377MOL0     H50895   3.365   1.799   3.144 -0.6631 -0.3188 -0.0118
  378MOL0     O50896   6.166  10.697   4.198  0.0972  0.6008 -0.2083
  378MOL0     C50897   6.207  10.812   4.170  0.4618 -1.1522 -0.1766
  378MOL0     O50898   6.291  10.880   4.255 -0.7215  1.2704  0.3210
  378MOL0     C50899   6.371  10.809   4.347 -0.1704 -0.4792  0.5438
  378MOL0     C50900   6.458  10.705   4.326  0.4551  0.3269  0.7199
  378MOL0     C50901   6.528  10.652   4.436 -0.2407  0.0087 -0.2643
  378MOL0     C50902   6.523  10.722   4.562 -0.1637  0.7131  0.6994
  378MOL0     O50903   6.599  10.667   4.659  0.1686 -0.3553  0.8013
  378MOL0     C50904   6.531  10.677   4.788  0.0084  0.2101  0.5689
  378MOL0     C50905   6.624  10.600   4.879 -1.1774 -0.0225  0.3987
  378MOL0     C50906   6.608  10.622   5.028 -0.4636  0.4016  0.2063
  378MOL0     C50907   6.481  10.567   5.088 -0.5893  0.1207 -0.4380
  378MOL0     C50908   6.459  10.622   5.223 -0.7925  0.7113  0.5032
  378MOL0     C50909   6.359  10.525   5.293 -0.8513 -0.0394  0.6634
  378MOL0     C50910   6.349  10.558   5.445  0.3062 -0.0333  0.3456
  378MOL0     C50911   6.476  10.560   5.522  0.2755  0.6900 -0.3284
  378MOL0     N50912   6.450  10.515   5.667 -0.5813  0.5006 -0.4454
  378MOL0     C50913   6.541  10.529   5.768  0.5061 -0.3956 -0.9790
  378MOL0     C50914   6.473  10.502   5.882  0.1699 -0.2426 -0.2069
  378MOL0     C50915   6.516  10.519   6.025 -0.6203  0.4404  0.1575
  378MOL0     C50916   6.604  10.400   6.071  0.6504  0.3756 -0.3099
  378MOL0     C50917   6.533  10.313   6.167 -0.0104  0.5355  0.1657
  378MOL0     C50918   6.525  10.364   6.305 -0.1318  0.9242  0.4154
  378MOL0     O50919   6.651  10.360   6.376 -0.7336 -0.4656  0.7029
  378MOL0     C50920   6.655  10.347   6.517 -0.2909 -1.1834 -0.0390
  378MOL0     C50921   6.785  10.334   6.565 -0.3290 -0.0722 -0.4951
  378MOL0     C50922   6.804  10.324   6.702 -0.2255  0.2685  0.0293
  378MOL0     C50923   6.695  10.314   6.785 -0.8855  0.3316 -0.3219
  378MOL0     C50924   6.722  10.284   6.930 -0.4756 -0.5984 -0.1317
  378MOL0     O50925   6.852  10.281   6.979 -0.0974  0.4363  0.0027
  378MOL0     C50926   6.883  10.280   7.114 -1.0129 -0.6491  1.1559
  378MOL0     C50927   6.802  10.278   7.233 -0.3765 -0.2081 -0.6499
  378MOL0     C50928   6.864  10.281   7.357 -0.1198  0.3883  0.0491
  378MOL0     C50929   6.999  10.301   7.370 -0.9193 -0.5034  0.5015
  378MOL0     O50930   7.055  10.322   7.498  0.1954 -0.2534 -0.3826
  378MOL0     C50931   7.044  10.458   7.539 -0.9206  0.6618 -1.0729
  378MOL0     C50932   6.953  10.465   7.671 -0.3972  0.0847  0.0654
  378MOL0     C50933   6.986  10.366   7.785 -0.0241  0.4871  0.9367
  378MOL0     C50934   7.116  10.411   7.848 -0.5229 -0.0744  0.1788
  378MOL0     C50935   7.124  10.325   7.972 -1.0043  1.0053 -0.2221
  378MOL0     C50936   7.263  10.347   8.030  0.0220 -0.4069 -1.4737
  378MOL0     C50937   7.293  10.279   8.167 -0.6103  0.3654  0.7520
  378MOL0     C50938   7.181  10.301   8.272  0.3587  0.3902  0.0916
  378MOL0    Cl50939   7.183  10.473   8.300  0.0568  0.3946 -0.0571
  378MOL0     C50940   7.080  10.323   7.251 -0.3840 -0.1973  0.5357
  378MOL0     C50941   7.021  10.314   7.125  0.3511  0.9432  0.0345
  378MOL0     O50942   6.628  10.252   7.005  0.5060  0.5140  0.2628
  378MOL0     C50943   6.563  10.330   6.738 -0.7093  0.5292 -0.6161
  378MOL0     C50944   6.544  10.357   6.603  0.5992 -0.1045 -0.4401
  378MOL0     N50945   6.347  10.452   5.845  0.6267  0.3893 -0.3486
  378MOL0     N50946   6.335  10.463   5.715  0.0637 -0.0109 -1.0295
  378MOL0     C50947   6.431  10.824   4.576 -0.1766 -0.8869  0.4980
  378MOL0     C50948   6.355  10.872   4.466 -0.7358 -0.1921 -1.5783
  378MOL0     C50949   6.129  10.886   4.074 -0.5160 -0.5828  0.2176
  378MOL0     C50950   6.125  10.833   3.949 -0.4019 -0.5186  0.9066
  378MOL0     C50951   6.069  10.903   3.840  0.1641 -0.5421 -0.0906
  378MOL0     C50952   6.002  11.017   3.866 -0.3623  1.0927 -0.5952
  378MOL0     O50953   5.925  11.078   3.769  0.4066 -0.5126 -1.0967
  378MOL0     C50954   5.900  11.004   3.648 -0.2037 -0.6133 -0.3456
  378MOL0     C50955   5.793  10.899   3.630  0.2715 -0.3956  0.5999
  378MOL0     C50956   5.662  10.959   3.692 -0.0793  0.6785 -0.0582
  378MOL0     C50957   5.602  11.086   3.630  0.0287 -0.2145 -0.6748
  378MOL0     C50958   5.467  11.113   3.680  0.2551 -0.1315 -0.0403
  378MOL0     C50959   5.355  11.144   3.725 -0.2397  1.2614  0.0682
  378MOL0     C50960   6.007  11.070   3.996  0.2451  0.3075  0.5553
  378MOL0     C50961   6.061  11.003   4.100 -0.5943 -0.3210 -0.3125
  378MOL0     C50962   6.071  11.067   4.239  0.0796 -1.4729 -0.6452
  378MOL0     H50963   6.474  10.662   4.228 -0.9118  0.4941  0.4018
  378MOL0     H50964   6.587  10.562   4.418  1.5453  0.9207  0.7133
  378MOL0     H50965   6.529  10.777   4.833 -0.6730 -0.8869  3.1721
  378MOL0     H50966   6.433  10.631   4.773 -0.0625  1.2710 -2.9554
  378MOL0     H50967   6.726  10.612   4.840 -2.0669 -1.2710 -2.6078
  378MOL0     H50968   6.607  10.494   4.862 -2.4291  0.1313  0.6317
  378MOL0     H50969   6.597  10.728   5.051  0.0556  0.5977 -0.4191
  378MOL0     H50970   6.692  10.581   5.085  1.8538  3.5438 -0.6946
  378MOL0     H50971   6.394  10.591   5.027  1.3884  5.1338 -1.7826
  378MOL0     H50972   6.495  10.461   5.112  1.1022  0.6651  1.2987
  378MOL0     H50973   6.557  10.615   5.273 -0.6054 -2.7023 -0.1093
  378MOL0     H50974   6.428  10.727   5.213  0.7375  1.0191 -1.6717
  378MOL0     H50975   6.257  10.533   5.254 -1.2427 -1.2346  1.3941
  378MOL0     H50976   6.383  10.418   5.294 -0.9801 -0.0657  1.5433
  378MOL0     H50977   6.276  10.482   5.477  0.0895 -0.6236 -1.4725
  378MOL0     H50978   6.299  10.654   5.462  1.9965  0.8214  0.7257
  378MOL0     H50979   6.544  10.486   5.480  0.2655 -0.3665  1.4375
  378MOL0     H50980   6.523  10.659   5.509 -0.7111  1.4560  1.6232
  378MOL0     H50981   6.641  10.570   5.761 -0.5368  2.4245 -0.8816
  378MOL0     H50982   6.572  10.613   6.035  1.3566 -0.2649 -2.8285
  378MOL0     H50983   6.424  10.519   6.084  0.3055 -0.8544  1.6746
  378MOL0     H50984   6.624  10.340   5.982  0.4640  1.0740 -0.8344
  378MOL0     H50985   6.699  10.439   6.109  0.9069  0.0880 -0.6646
  378MOL0     H50986   6.598  10.225   6.178 -0.9728 -0.1081  0.9205
  378MOL0     H50987   6.431  10.291   6.134 -0.0332  0.6863  0.1371
  378MOL0     H50988   6.459  10.291   6.352 -0.1231 -0.4194 -1.5222
  378MOL0     H50989   6.483  10.465   6.305 -3.6249 -0.2553 -3.2494
  378MOL0     H50990   6.865  10.327   6.492  0.1669  0.5137 -0.0252
  378MOL0     H50991   6.901  10.313   6.751  0.4575  1.0104 -1.1005
  378MOL0     H50992   6.697  10.252   7.224  0.0967 -1.8409 -2.4074
  378MOL0     H50993   6.809  10.279   7.450 -1.3839  2.2609 -0.5909
  378MOL0     H50994   7.136  10.499   7.582 -1.8603  0.4199  1.3087
  378MOL0     H50995   6.999  10.524   7.465 -4.3916  1.0011  1.1060
  378MOL0     H50996   6.955  10.556   7.732  0.4447  1.2991 -1.6903
  378MOL0     H50997   6.851  10.441   7.637 -0.7768  1.6291  0.0764
  378MOL0     H50998   6.908  10.360   7.862 -2.7976  0.6696 -1.7086
  378MOL0     H50999   7.005  10.267   7.743 -2.9800  0.4667 -0.5911
  378MOL0     H51000   7.116  10.517   7.875  2.5355  0.2308 -0.6318
  378MOL0     H51001   7.183  10.384   7.766 -0.8343  0.7714 -0.3659
  378MOL0     H51002   7.117  10.222   7.936  0.4928  0.5285  0.7764
  378MOL0     H51003   7.045  10.328   8.047  1.1913 -2.1396  2.4973
  378MOL0     H51004   7.343  10.321   7.960 -0.0799  1.4486 -2.3409
  378MOL0     H51005   7.288  10.453   8.042  1.2011 -0.5226 -2.6586
  378MOL0     H51006   7.382  10.329   8.207  0.1098 -0.2109 -0.0591
  378MOL0     H51007   7.308  10.172   8.149 -4.1428  0.1194 -1.8200
  378MOL0     H51008   7.093  10.258   8.223  0.2453  1.8455 -1.0487
  378MOL0     H51009   7.200  10.249   8.367  1.4829 -0.2767 -0.4783
  378MOL0     H51010   7.188  10.336   7.246 -0.4414  0.2300  0.2948
  378MOL0     H51011   7.088  10.334   7.042 -0.8080  1.1284 -0.8813
  378MOL0     H51012   6.477  10.324   6.803 -0.2396 -0.7539 -0.0771
  378MOL0     H51013   6.444  10.365   6.561 -0.3764  1.3278  1.9124
  378MOL0     H51014   6.420  10.878   4.670  1.0567  1.0335 -0.4033
  378MOL0     H51015   6.283  10.953   4.471 -0.8137 -0.3150  1.3212
  378MOL0     H51016   6.180  10.741   3.931 -1.0123 -0.7206 -0.0203
  378MOL0     H51017   6.068  10.862   3.739 -2.3244 -0.3017 -0.2268
  378MOL0     H51018   5.984  10.953   3.599  0.4581 -1.8551  1.9406
  378MOL0     H51019   5.878  11.082   3.574 -0.2836 -1.4182 -1.1903
  378MOL0     H51020   5.813  10.818   3.702 -1.5378 -0.2621  1.3042
  378MOL0     H51021   5.770  10.864   3.529 -2.6057  0.2249  0.9643
  378MOL0     H51022   5.663  10.973   3.800  0.1818  1.0227 -0.1022
  378MOL0     H51023   5.589  10.879   3.678  1.8363 -1.2766  0.6872
  378MOL0     H51024   5.670  11.170   3.645  1.0548 -1.2103  0.4446
  378MOL0     H51025   5.599  11.069   3.522 -0.2895  2.0071 -1.0752
  378MOL0     H51026   5.261  11.168   3.772  0.6229  1.6310  1.6899
  378MOL0     H51027   5.955  11.166   4.003  0.5425  0.9868 -3.6432
  378MOL0     H51028   6.084  10.995   4.320  2.2143 -0.5384 -0.1038
  378MOL0     H51029   6.165  11.122   4.245 -0.3227 -0.9480  2.7216
  378MOL0     H51030   5.992  11.139   4.264  0.5141 -1.2903  0.2332
  379MOL0     O51031   7.358   1.551   8.000 -0.4604  0.0880 -0.2359
  379MOL0     C51032   7.378   1.430   8.006  0.3327  0.8639 -0.6263
  379MOL0     O51033   7.445   1.346   7.917  0.8217  0.1832 -0.8318
  379MOL0     C51034   7.512   1.407   7.808 -0.3687  0.3867  0.2287
  379MOL0     C51035   7.495   1.528   7.741  0.5658 -0.2572  0.2240
  379MOL0     C51036   7.559   1.563   7.627  1.0400 -1.4270  0.2456
  379MOL0     C51037   7.657   1.476   7.575  0.8360  0.8646  0.7872
  379MOL0     O51038   7.739   1.498   7.466 -0.4273  0.4813 -0.1087
  379MOL0     C51039   7.812   1.622   7.466  0.3358 -0.2587  0.9193
  379MOL0     C51040   7.916   1.628   7.352  0.5363 -0.2463  0.6710
  379MOL0     C51041   7.842   1.621   7.219 -0.3431 -0.1735 -0.7141
  379MOL0     C51042   7.866   1.758   7.146  1.6047 -0.1817 -0.4859
  379MOL0     C51043   7.803   1.759   7.002  0.2469 -0.0064 -0.0274
  379MOL0     C51044   7.808   1.896   6.935  0.2614 -0.7502 -0.1784
  379MOL0     C51045   7.727   1.891   6.807  0.1258 -0.3281  0.0665
  379MOL0     C51046   7.727   2.030   6.733  1.1780 -0.0345  0.3754
  379MOL0     N51047   7.846   2.059   6.660 -0.1115  0.2455 -1.0063
  379MOL0     C51048   7.938   2.145   6.710 -0.4339  0.3014 -0.5465
  379MOL0     C51049   8.022   2.177   6.607 -0.4443  0.9577  0.6755
  379MOL0     C51050   8.138   2.265   6.610 -0.3144 -0.5902 -0.2467
  379MOL0     C51051   8.117   2.412   6.577  1.0555  0.1647  0.4902
  379MOL0     C51052   8.241   2.482   6.538  0.4458 -0.2472 -0.9631
  379MOL0     C51053   8.251   2.517   6.392 -0.1069 -0.1437  0.2404
  379MOL0     O51054   8.255   2.388   6.332 -0.2339 -0.2027  0.0448
  379MOL0     C51055   8.295   2.380   6.199  0.5725 -0.5297  0.2741
  379MOL0     C51056   8.277   2.494   6.110 -0.6973  0.3064 -0.3001
  379MOL0     C51057   8.302   2.482   5.977 -0.1080  1.2436  0.0010
  379MOL0     C51058   8.354   2.357   5.923 -0.2626  0.4651 -0.4592
  379MOL0     C51059   8.376   2.345   5.780 -1.7680 -1.0528 -0.0861
  379MOL0     O51060   8.356   2.463   5.703 -0.3055  0.4782  0.3326
  379MOL0     C51061   8.341   2.459   5.560  0.3966  0.0484  0.1616
  379MOL0     C51062   8.284   2.576   5.514 -0.3819  0.2521 -0.5689
  379MOL0     C51063   8.263   2.592   5.377 -0.2147 -0.7808  0.1470
  379MOL0     C51064   8.280   2.485   5.293 -0.1365  0.4655  0.6939
  379MOL0     O51065   8.272   2.519   5.161 -0.3767 -0.4632  0.1245
  379MOL0     C51066   8.245   2.402   5.067 -0.3706 -0.3016 -0.8512
  379MOL0     C51067   8.213   2.469   4.939 -0.0393 -0.9221 -0.0716
  379MOL0     C51068   8.092   2.413   4.863 -0.5593 -0.1525 -0.4376
  379MOL0     C51069   8.082   2.476   4.719 -0.0644 -0.1181 -0.9681
  379MOL0     C51070   7.980   2.402   4.637  0.0369  0.4243 -0.5009
  379MOL0     C51071   7.997   2.429   4.489  0.4684  0.8016 -0.1416
  379MOL0     C51072   7.903   2.347   4.400  0.0159  0.4388  0.1285
  379MOL0     C51073   7.951   2.381   4.252 -0.2400 -0.3230 -0.9415
  379MOL0    Cl51074   7.956   2.552   4.209 -0.1255  0.1413 -0.2797
  379MOL0     C51075   8.321   2.357   5.341 -0.6373 -0.7812  0.7544
  379MOL0     C51076   8.350   2.349   5.476 -0.9804  0.3120  0.3056
  379MOL0     O51077   8.386   2.235   5.737  0.9747  1.3382 -0.8996
  379MOL0     C51078   8.368   2.244   6.011  0.2788 -0.1644  0.6910
  379MOL0     C51079   8.342   2.258   6.146  0.6458 -0.0340  0.1222
  379MOL0     N51080   7.988   2.099   6.496 -0.2235  0.5977  1.2747
  379MOL0     N51081   7.884   2.034   6.532 -0.3576 -0.4934  0.4334
  379MOL0     C51082   7.678   1.354   7.647  0.1562  0.2378 -0.5606
  379MOL0     C51083   7.607   1.327   7.762 -0.3809 -0.1283 -0.4207
  379MOL0     C51084   7.367   1.370   8.145 -0.4916 -0.3718  0.7662
  379MOL0     C51085   7.482   1.310   8.197  0.0162  0.4668  0.2381
  379MOL0     C51086   7.475   1.235   8.309  0.1934 -0.3467 -1.3566
  379MOL0     C51087   7.355   1.234   8.381 -0.4411 -0.2410 -0.5428
  379MOL0     O51088   7.367   1.177   8.506  0.2704 -0.3276 -0.7158
  379MOL0     C51089   7.368   1.035   8.507 -0.2769 -0.3870  1.3005
  379MOL0     C51090   7.262   0.983   8.601  0.3673 -1.2458 -1.5955
  379MOL0     C51091   7.322   0.941   8.745 -0.7543 -0.4338  0.0821
  379MOL0     C51092   7.205   0.919   8.842 -0.4914  0.4672 -0.0828
  379MOL0     C51093   7.135   0.799   8.805  0.1691  1.2234 -0.5524
  379MOL0     C51094   7.062   0.705   8.780 -0.1154  0.3791 -0.8029
  379MOL0     C51095   7.248   1.308   8.339  0.8119 -0.8986 -1.0872
  379MOL0     C51096   7.247   1.379   8.224 -1.1251  0.2501 -0.7166
  379MOL0     C51097   7.135   1.476   8.188  0.4478  0.4735 -0.1874
  379MOL0     H51098   7.418   1.595   7.777 -0.4749 -1.3310  0.0729
  379MOL0     H51099   7.532   1.657   7.579  1.0928 -0.4601  2.0392
  379MOL0     H51100   7.744   1.705   7.445 -2.1608 -2.2993  0.3167
  379MOL0     H51101   7.859   1.634   7.564 -1.4105 -1.0208  1.9077
  379MOL0     H51102   7.977   1.538   7.359 -0.7470 -1.1233  0.9996
  379MOL0     H51103   7.973   1.721   7.365  1.4812 -0.9347  1.5607
  379MOL0     H51104   7.735   1.607   7.230 -0.6565  0.2800 -2.7255
  379MOL0     H51105   7.874   1.540   7.153 -0.6789 -0.6340 -0.3191
  379MOL0     H51106   7.826   1.838   7.210 -1.4104 -0.9350 -1.3039
  379MOL0     H51107   7.975   1.763   7.136  1.5723 -1.3118 -1.6429
  379MOL0     H51108   7.871   1.697   6.943  0.9243  1.4854 -0.8721
  379MOL0     H51109   7.710   1.703   7.010  0.8716 -0.9392  0.9752
  379MOL0     H51110   7.757   1.970   6.997 -2.5181 -2.3172 -0.4310
  379MOL0     H51111   7.911   1.924   6.910 -0.1091  2.5422  1.5501
  379MOL0     H51112   7.624   1.866   6.833 -0.3505  1.3311 -0.1076
  379MOL0     H51113   7.762   1.812   6.740  2.0601 -0.6425  1.3381
  379MOL0     H51114   7.634   2.021   6.676  0.9428 -0.7881  0.8507
  379MOL0     H51115   7.713   2.112   6.804 -1.8794  1.2511 -1.5199
  379MOL0     H51116   7.939   2.191   6.808 -2.2247 -1.7336  0.4921
  379MOL0     H51117   8.180   2.248   6.710 -1.4491 -0.3072  0.2980
  379MOL0     H51118   8.219   2.220   6.552 -0.0581 -0.7224  0.2103
  379MOL0     H51119   8.048   2.414   6.493  1.1982 -1.8906  0.2803
  379MOL0     H51120   8.069   2.467   6.658 -5.0007 -1.8337 -1.2587
  379MOL0     H51121   8.329   2.429   6.576 -1.6781 -1.8877  1.9897
  379MOL0     H51122   8.247   2.576   6.594 -0.8411  1.8908 -4.1264
  379MOL0     H51123   8.337   2.581   6.371  0.5335 -1.0689 -0.0394
  379MOL0     H51124   8.163   2.577   6.369 -1.4116 -2.2293 -0.5200
  379MOL0     H51125   8.232   2.588   6.141 -2.1687  0.2623 -2.1311
  379MOL0     H51126   8.266   2.566   5.917  0.3503  1.0204 -0.6032
  379MOL0     H51127   8.268   2.663   5.577  1.5742  0.5602 -0.4358
  379MOL0     H51128   8.238   2.689   5.336 -0.6561 -0.8239  0.3050
  379MOL0     H51129   8.336   2.342   5.054 -1.3156 -1.4401 -2.5674
  379MOL0     H51130   8.162   2.337   5.096  0.7654 -1.4022  0.0470
  379MOL0     H51131   8.201   2.576   4.959  0.9435 -0.6619 -0.7761
  379MOL0     H51132   8.300   2.461   4.872  0.2937  0.8980  0.0916
  379MOL0     H51133   8.111   2.308   4.839  2.0547  0.2880 -0.6253
  379MOL0     H51134   8.000   2.423   4.921  0.3274 -0.5838  1.1030
  379MOL0     H51135   8.184   2.466   4.680  0.5827 -0.6381  0.7665
  379MOL0     H51136   8.068   2.584   4.731  3.1252  0.1354  1.9998
  379MOL0     H51137   7.879   2.412   4.679  0.9576  0.5271  1.7796
  379MOL0     H51138   8.002   2.298   4.660  0.4585  0.6417  0.0920
  379MOL0     H51139   7.963   2.532   4.478 -2.1257  0.1999  1.1697
  379MOL0     H51140   8.101   2.410   4.463  0.8916 -0.7547  2.2616
  379MOL0     H51141   7.799   2.379   4.413 -0.6340 -1.8776  1.1512
  379MOL0     H51142   7.911   2.240   4.422 -0.6337  0.4748  0.5506
  379MOL0     H51143   8.050   2.337   4.243  0.3095  0.5089  0.7039
  379MOL0     H51144   7.895   2.326   4.175 -3.0045  0.1680  0.5755
  379MOL0     H51145   8.333   2.274   5.272 -3.1366 -0.4859 -0.1290
  379MOL0     H51146   8.363   2.249   5.516 -0.7003  0.1978 -0.0626
  379MOL0     H51147   8.397   2.143   5.984  1.7767  0.3727  0.1816
  379MOL0     H51148   8.350   2.181   6.222  1.6151  0.6328  0.7193
  379MOL0     H51149   7.751   1.279   7.618  4.0104  2.5697  2.1858
  379MOL0     H51150   7.645   1.238   7.811  2.3950  0.6463 -0.9512
  379MOL0     H51151   7.571   1.322   8.137  0.1960  0.5098  0.5078
  379MOL0     H51152   7.560   1.185   8.355  0.6759  0.8333 -0.9299
  379MOL0     H51153   7.467   1.009   8.547  0.7058 -0.7786 -1.1408
  379MOL0     H51154   7.361   0.999   8.404 -2.4459  0.9579  0.9285
  379MOL0     H51155   7.210   0.899   8.553 -1.6731 -1.1985  0.3820
  379MOL0     H51156   7.190   1.062   8.623  0.7846 -0.7019 -2.1539
  379MOL0     H51157   7.382   1.026   8.780 -0.0619 -1.2890  1.0107
  379MOL0     H51158   7.388   0.854   8.739 -0.6685 -0.5725  2.3535
  379MOL0     H51159   7.243   0.894   8.942  0.5837 -2.9051 -1.1625
  379MOL0     H51160   7.150   1.013   8.838  1.1055  1.4016 -2.2891
  379MOL0     H51161   6.999   0.620   8.766  0.3808 -1.0701  4.0421
  379MOL0     H51162   7.172   1.323   8.416  1.2711  0.6157 -0.8954
  379MOL0     H51163   7.076   1.431   8.108 -1.1922  1.8047  0.2146
  379MOL0     H51164   7.080   1.493   8.282 -0.5229 -1.2279 -0.4056
  379MOL0     H51165   7.153   1.572   8.140  2.7885 -0.4166 -1.2598
  380MOL0     O51166   5.422   3.478   7.596  0.3281  0.3569  0.3718
  380MOL0     C51167   5.400   3.385   7.673 -0.0734 -0.0901 -0.2311
  380MOL0     O51168   5.452   3.375   7.799  0.0784  0.4333  0.1030
  380MOL0     C51169   5.528   3.480   7.849 -0.3247  0.0063 -0.3815
  380MOL0     C51170   5.485   3.617   7.845 -0.3881 -0.0308 -0.5693
  380MOL0     C51171   5.562   3.718   7.874 -0.1652  0.3516 -0.3512
  380MOL0     C51172   5.679   3.697   7.952 -1.0880  0.2180 -0.5905
  380MOL0     O51173   5.762   3.805   7.972 -0.1133  0.1973 -0.0139
  380MOL0     C51174   5.866   3.796   8.069 -1.1347  0.4860 -0.2707
  380MOL0     C51175   5.947   3.926   8.071  0.3062  0.0218  0.2191
  380MOL0     C51176   6.066   3.922   8.165  0.2708  0.0988  0.1978
  380MOL0     C51177   6.165   4.037   8.146  1.0280  0.7230  0.2631
  380MOL0     C51178   6.283   4.041   8.247  0.7799 -1.1186 -0.0316
  380MOL0     C51179   6.385   3.930   8.220 -0.1181  0.9890  0.2026
  380MOL0     C51180   6.445   3.864   8.339 -0.7991 -0.2370  0.6157
  380MOL0     C51181   6.568   3.766   8.307 -0.2853  0.3835 -0.5210
  380MOL0     N51182   6.643   3.744   8.433  1.0645 -0.3272  0.8183
  380MOL0     C51183   6.703   3.848   8.490  0.1790  0.1412  1.0074
  380MOL0     C51184   6.774   3.783   8.588 -0.3491  0.2910 -0.3524
  380MOL0     C51185   6.857   3.861   8.691  0.5218 -0.2159  0.3056
  380MOL0     C51186   7.012   3.874   8.698  0.2146 -0.3165  0.3618
  380MOL0     C51187   7.070   3.732   8.673 -0.4792 -0.3202  1.2413
  380MOL0     C51188   7.228   3.737   8.693  0.4268  0.0049 -0.1424
  380MOL0     O51189   7.309   3.818   8.607  0.2705  0.2979  0.1520
  380MOL0     C51190   7.356   3.776   8.482  1.1764 -0.1559  0.2343
  380MOL0     C51191   7.321   3.659   8.410  0.2268 -0.2011  0.5457
  380MOL0     C51192   7.381   3.614   8.289 -0.5086 -0.2265  0.2652
  380MOL0     C51193   7.483   3.702   8.243 -0.9611  0.6685 -0.6840
  380MOL0     C51194   7.555   3.660   8.122 -0.4526  0.9750  0.0502
  380MOL0     O51195   7.527   3.541   8.054  0.6040  0.5090  0.4172
  380MOL0     C51196   7.604   3.514   7.939 -0.2050 -0.4181 -0.4133
  380MOL0     C51197   7.545   3.424   7.851  1.2119 -0.3977  0.3179
  380MOL0     C51198   7.614   3.380   7.736  0.1274 -0.1317 -0.0743
  380MOL0     C51199   7.748   3.425   7.708 -0.2549 -0.2065  0.6173
  380MOL0     O51200   7.823   3.398   7.598  0.4430  0.3577  0.8808
  380MOL0     C51201   7.805   3.277   7.521  0.5452  0.8421 -1.0146
  380MOL0     C51202   7.852   3.152   7.601  0.5052 -1.4097  0.1376
  380MOL0     C51203   7.825   3.025   7.524 -1.2112 -0.7403 -0.0277
  380MOL0     C51204   7.855   2.911   7.618  0.4832  0.0369 -0.3109
  380MOL0     C51205   7.836   2.774   7.552  0.3973 -0.2081 -0.2788
  380MOL0     C51206   7.944   2.709   7.468 -0.3273 -0.3479 -0.1790
  380MOL0     C51207   8.067   2.663   7.549 -0.5462  0.5965  0.2441
  380MOL0     C51208   8.074   2.516   7.567 -0.2863 -0.9703  0.6644
  380MOL0    Cl51209   8.214   2.468   7.676 -0.4128 -0.4173  0.2203
  380MOL0     C51210   7.813   3.491   7.814  0.4465 -0.0653 -1.0632
  380MOL0     C51211   7.742   3.538   7.927  1.3462 -0.4199 -0.7923
  380MOL0     O51212   7.627   3.751   8.085  0.2142 -0.2369 -0.4102
  380MOL0     C51213   7.510   3.823   8.313 -0.5896 -0.2206  0.2723
  380MOL0     C51214   7.456   3.861   8.435 -0.4629 -0.1046 -0.1231
  380MOL0     N51215   6.743   3.647   8.588 -0.1955  0.4651  0.0726
  380MOL0     N51216   6.670   3.626   8.490  0.5696  0.0488  0.0329
  380MOL0     C51217   5.708   3.561   7.985 -0.2267  0.9104 -0.6774
  380MOL0     C51218   5.634   3.454   7.935 -0.0603 -0.1334  1.1093
  380MOL0     C51219   5.311   3.280   7.618  0.6822 -0.0539 -0.4750
  380MOL0     C51220   5.323   3.241   7.480 -0.3671 -0.0393 -1.3325
  380MOL0     C51221   5.249   3.136   7.424  0.3113  0.7266 -0.5847
  380MOL0     C51222   5.156   3.064   7.504  0.0902 -0.1398 -0.0196
  380MOL0     O51223   5.096   2.954   7.447 -0.0804  1.1547  0.5274
  380MOL0     C51224   5.190   2.866   7.375 -0.6568  0.0878 -0.0434
  380MOL0     C51225   5.299   2.805   7.470 -0.3045  0.2180 -1.3351
  380MOL0     C51226   5.249   2.691   7.566 -0.7169 -0.2770 -0.0114
  380MOL0     C51227   5.364   2.603   7.619  0.2239 -0.1364  0.5551
  380MOL0     C51228   5.434   2.524   7.525 -0.7607  0.3854  0.2565
  380MOL0     C51229   5.479   2.468   7.429  0.0684 -0.4717 -0.2679
  380MOL0     C51230   5.145   3.102   7.638 -0.1562 -0.2384  0.4587
  380MOL0     C51231   5.210   3.215   7.692 -0.1342  1.2296 -0.4769
  380MOL0     C51232   5.194   3.235   7.841 -0.3790  0.6257  0.4319
  380MOL0     H51233   5.393   3.635   7.791 -0.3640 -3.2940 -1.9344
  380MOL0     H51234   5.534   3.816   7.836  0.7341  0.5155 -0.6392
  380MOL0     H51235   5.818   3.778   8.166 -1.1392 -3.2935 -0.8174
  380MOL0     H51236   5.930   3.711   8.045 -2.9184 -0.8046 -0.6614
  380MOL0     H51237   5.884   4.007   8.109  0.0930  0.8507 -1.8011
  380MOL0     H51238   5.984   3.946   7.970 -0.4179  1.5033  0.2128
  380MOL0     H51239   6.123   3.831   8.144  1.3630  1.1943 -1.8693
  380MOL0     H51240   6.024   3.923   8.267 -1.8424 -1.6563 -0.5716
  380MOL0     H51241   6.209   4.028   8.047 -1.6677 -1.6806 -0.8630
  380MOL0     H51242   6.109   4.131   8.146  0.9030  0.6502 -0.1661
  380MOL0     H51243   6.341   4.133   8.240  1.6013 -1.7140 -5.7281
  380MOL0     H51244   6.231   4.029   8.343  0.6772  0.9472  0.2027
  380MOL0     H51245   6.339   3.849   8.164  1.8985 -0.9061  1.1182
  380MOL0     H51246   6.458   3.972   8.151  0.1809 -0.0691 -0.1361
  380MOL0     H51247   6.371   3.817   8.404  0.4443 -0.0591  2.2337
  380MOL0     H51248   6.477   3.951   8.396 -2.3603 -0.1459  1.3943
  380MOL0     H51249   6.530   3.667   8.280  1.5925  0.6971 -5.3485
  380MOL0     H51250   6.632   3.808   8.229  1.0965 -2.6698 -1.1476
  380MOL0     H51251   6.708   3.955   8.471  1.7644  0.1249  1.1875
  380MOL0     H51252   6.822   3.964   8.702 -0.3006 -0.6322  1.9152
  380MOL0     H51253   6.839   3.806   8.784 -0.4884 -1.4316 -0.5740
  380MOL0     H51254   7.046   3.937   8.615  2.0501 -1.2217  0.3675
  380MOL0     H51255   7.050   3.916   8.792 -2.0257  3.4100 -0.1824
  380MOL0     H51256   7.054   3.697   8.571 -1.2874 -4.2393  2.5655
  380MOL0     H51257   7.020   3.653   8.729 -1.2894 -1.5388 -1.0710
  380MOL0     H51258   7.250   3.631   8.680 -0.5722 -0.4418  1.5450
  380MOL0     H51259   7.269   3.758   8.792  0.1777 -3.1218  0.7292
  380MOL0     H51260   7.257   3.585   8.458  0.7700 -0.3087  1.1195
  380MOL0     H51261   7.347   3.523   8.242 -1.2412  0.7433 -1.1606
  380MOL0     H51262   7.441   3.401   7.872  0.8293  1.0242  0.0951
  380MOL0     H51263   7.546   3.318   7.678 -0.6439 -0.9911  1.6676
  380MOL0     H51264   7.700   3.257   7.499  0.8756 -0.1877 -1.7546
  380MOL0     H51265   7.850   3.280   7.421  0.3276 -1.0773 -1.2068
  380MOL0     H51266   7.959   3.155   7.625  0.3171  1.5204  0.9809
  380MOL0     H51267   7.790   3.149   7.691 -0.5169  2.0627 -0.3108
  380MOL0     H51268   7.719   3.033   7.497 -1.0277  1.8358 -0.3061
  380MOL0     H51269   7.880   3.027   7.430 -4.2109  0.9454 -1.9194
  380MOL0     H51270   7.785   2.920   7.701 -1.1447  0.2283 -1.6443
  380MOL0     H51271   7.959   2.912   7.653  0.8872  0.2652 -1.4420
  380MOL0     H51272   7.753   2.776   7.481 -0.0002 -4.9423 -0.2607
  380MOL0     H51273   7.813   2.705   7.634 -1.3652  1.2330  0.5065
  380MOL0     H51274   7.912   2.621   7.412  2.2064 -2.6076  1.5976
  380MOL0     H51275   7.976   2.787   7.400  1.1087 -0.3309  0.4716
  380MOL0     H51276   8.076   2.716   7.644  0.6171 -0.0418  0.5106
  380MOL0     H51277   8.165   2.689   7.507 -0.1140 -1.8436 -0.4035
  380MOL0     H51278   7.980   2.470   7.596 -1.2169  1.0390  0.9966
  380MOL0     H51279   8.082   2.479   7.465  4.9318 -3.6391  1.6696
  380MOL0     H51280   7.920   3.506   7.806  0.8918 -2.5683 -0.7375
  380MOL0     H51281   7.791   3.596   8.004 -0.7026 -0.7255  0.8328
  380MOL0     H51282   7.577   3.894   8.264 -1.9054  0.2588 -0.8944
  380MOL0     H51283   7.497   3.948   8.484  1.4165 -0.3434 -1.1813
  380MOL0     H51284   5.782   3.532   8.059 -0.8517 -0.3912 -0.5258
  380MOL0     H51285   5.648   3.349   7.960  0.3971 -1.2501 -2.9686
  380MOL0     H51286   5.395   3.295   7.419  0.7210  1.0293  0.7844
  380MOL0     H51287   5.267   3.111   7.320  1.3660  1.4308 -0.5901
  380MOL0     H51288   5.248   2.918   7.299  1.6299 -0.1452  1.4352
  380MOL0     H51289   5.146   2.780   7.323  1.6602 -1.1216 -0.1519
  380MOL0     H51290   5.339   2.883   7.535 -0.3286 -1.2891  0.5966
  380MOL0     H51291   5.371   2.754   7.404 -0.3228  1.1589 -2.1105
  380MOL0     H51292   5.186   2.632   7.498  0.2152 -1.3065 -0.0059
  380MOL0     H51293   5.213   2.741   7.656  1.7561  3.4944 -0.9305
  380MOL0     H51294   5.436   2.668   7.669 -0.3335 -0.7321  2.2061
  380MOL0     H51295   5.324   2.543   7.701  0.9311  1.5279  2.1868
  380MOL0     H51296   5.512   2.424   7.337  1.4718  1.9776 -1.0224
  380MOL0     H51297   5.076   3.036   7.691 -2.7325  2.3550  0.6154
  380MOL0     H51298   5.087   3.224   7.861 -0.5913  2.2771  0.3190
  380MOL0     H51299   5.258   3.162   7.893 -2.0111 -1.7903 -0.7859
  380MOL0     H51300   5.220   3.339   7.861  1.0275  0.3661  0.0747
  381MOL0     O51301   5.471  10.609   8.920 -0.0387 -0.7737 -0.0177
  381MOL0     C51302   5.423  10.729   8.911  0.7475 -0.6386 -0.4065
  381MOL0     O51303   5.302  10.762   8.849 -0.4222 -0.6121 -0.5551
  381MOL0     C51304   5.234  10.668   8.777 -0.6801  0.3106  0.4429
  381MOL0     C51305   5.278  10.620   8.647  0.1546 -0.3397  0.5443
  381MOL0     C51306   5.212  10.514   8.584  0.1138 -0.3652 -0.3725
  381MOL0     C51307   5.099  10.448   8.643 -1.1411  0.1421  0.0955
  381MOL0     O51308   5.042  10.340   8.585  0.1341 -0.9580 -0.0985
  381MOL0     C51309   4.938  10.378   8.488  0.6206  0.6188  0.6113
  381MOL0     C51310   4.880  10.245   8.440  0.3110  0.1865 -0.1138
  381MOL0     C51311   4.804  10.252   8.304 -0.3061  0.8061  0.0514
  381MOL0     C51312   4.649  10.266   8.314 -0.2069 -0.0455 -0.2946
  381MOL0     C51313   4.603  10.384   8.219 -0.5437  0.1959 -1.0195
  381MOL0     C51314   4.653  10.530   8.257 -0.0103  0.4040 -0.3603
  381MOL0     C51315   4.581  10.627   8.156 -1.0785  0.3129 -0.3053
  381MOL0     C51316   4.604  10.775   8.187 -0.2565 -0.8794 -0.9417
  381MOL0     N51317   4.552  10.832   8.317 -1.9246  0.0786  0.2993
  381MOL0     C51318   4.465  10.775   8.394 -0.5218  0.1179 -0.5776
  381MOL0     C51319   4.443  10.856   8.504 -0.2096 -1.1848  0.8463
  381MOL0     C51320   4.346  10.848   8.619 -0.3958  0.9366  0.8117
  381MOL0     C51321   4.240  10.730   8.617  0.8851 -0.1939  1.4297
  381MOL0     C51322   4.153  10.731   8.487  0.2559 -0.6997 -0.6612
  381MOL0     C51323   4.030  10.626   8.501  0.5886 -0.5219 -0.3213
  381MOL0     O51324   3.975  10.583   8.369 -0.0008  0.0499  0.5139
  381MOL0     C51325   4.058  10.498   8.294  0.5038 -1.4652  1.2249
  381MOL0     C51326   4.064  10.367   8.332 -0.4246  0.5224 -0.0287
  381MOL0     C51327   4.172  10.281   8.277  0.8072 -0.2158  0.6153
  381MOL0     C51328   4.241  10.323   8.167 -0.3206 -0.6582  0.4887
  381MOL0     C51329   4.337  10.237   8.081  0.0005 -0.8358  0.1548
  381MOL0     O51330   4.323  10.101   8.082  0.7293  0.1776  0.4998
  381MOL0     C51331   4.395  10.015   7.996 -0.2770  0.3603 -0.4636
  381MOL0     C51332   4.491   9.926   8.046 -0.9847  1.2094  0.2696
  381MOL0     C51333   4.550   9.832   7.963  0.7937  0.0081  0.1491
  381MOL0     C51334   4.530   9.842   7.826 -0.4014  0.2870 -0.5183
  381MOL0     O51335   4.600   9.754   7.746 -0.2489 -0.7877  0.3448
  381MOL0     C51336   4.742   9.777   7.738  0.4402 -0.5520 -0.4667
  381MOL0     C51337   4.821   9.646   7.695 -1.0845  0.3370 -1.0927
  381MOL0     C51338   4.758   9.527   7.765  0.2466 -0.1078 -0.0384
  381MOL0     C51339   4.853   9.414   7.798 -0.2995  0.0850 -0.1440
  381MOL0     C51340   4.783   9.278   7.817  0.2438  0.1663 -0.0879
  381MOL0     C51341   4.863   9.166   7.861 -0.5811 -0.2278 -0.4331
  381MOL0     C51342   4.950   9.128   7.738 -0.5493 -0.7483 -0.1176
  381MOL0     C51343   5.045   9.021   7.782  0.6894  0.9712  0.1452
  381MOL0    Cl51344   5.008   8.848   7.758  0.3578  0.7956  0.0463
  381MOL0     C51345   4.452   9.933   7.768  0.4685 -0.1384  0.4036
  381MOL0     C51346   4.377  10.017   7.857 -0.2755 -0.0609 -0.1050
  381MOL0     O51347   4.428  10.291   8.017  0.6311  0.4671  0.1026
  381MOL0     C51348   4.220  10.458   8.123 -0.0197  0.1917 -0.9550
  381MOL0     C51349   4.138  10.548   8.192 -0.9958  0.3954  1.2044
  381MOL0     N51350   4.536  10.956   8.488  0.5142  1.1509 -0.0235
  381MOL0     N51351   4.610  10.930   8.384 -0.9313  0.1047  0.2241
  381MOL0     C51352   5.042  10.510   8.759 -0.4302 -0.1720 -0.1784
  381MOL0     C51353   5.111  10.615   8.826 -0.7164 -0.0268 -0.9051
  381MOL0     C51354   5.492  10.844   8.972  0.6582  0.4468 -0.6902
  381MOL0     C51355   5.451  10.975   8.947 -1.0632  0.0139  0.0307
  381MOL0     C51356   5.512  11.090   9.000 -0.2857 -0.6031 -0.2274
  381MOL0     C51357   5.623  11.075   9.083  0.2076 -1.1838 -0.6808
  381MOL0     O51358   5.694  11.169   9.145  0.6615 -0.1855 -0.5249
  381MOL0     C51359   5.637  11.298   9.145 -0.4170  0.2506 -0.1016
  381MOL0     C51360   5.717  11.384   9.247  0.0930  0.1250  0.8018
  381MOL0     C51361   5.863  11.379   9.209 -0.2369 -0.6157  0.0202
  381MOL0     C51362   5.949  11.480   9.285  0.0807  0.8016 -0.6611
  381MOL0     C51363   6.091  11.446   9.277 -0.1360 -0.4115  0.2071
  381MOL0     C51364   6.206  11.423   9.276 -0.5838 -0.2403  0.0676
  381MOL0     C51365   5.663  10.943   9.107 -1.0097  0.5698 -0.1563
  381MOL0     C51366   5.596  10.831   9.058  0.2097 -0.2644 -0.0342
  381MOL0     C51367   5.654  10.708   9.124 -0.2740 -0.5296 -0.3912
  381MOL0     H51368   5.379  10.638   8.610 -0.7474  2.2925 -0.8790
  381MOL0     H51369   5.252  10.467   8.495 -1.0273 -2.5025  0.1642
  381MOL0     H51370   4.871  10.447   8.542  0.6236  0.4498  0.8329
  381MOL0     H51371   4.977  10.429   8.400  2.4600 -0.5986  0.6862
  381MOL0     H51372   4.826  10.187   8.515  0.5357 -1.9334 -1.4987
  381MOL0     H51373   4.967  10.185   8.410  1.7361  2.4324 -0.7254
  381MOL0     H51374   4.815  10.166   8.238 -1.0760  0.9567 -0.2844
  381MOL0     H51375   4.839  10.338   8.247 -0.4028  1.1437  0.4951
  381MOL0     H51376   4.601  10.176   8.274 -2.3767  1.9787 -2.6425
  381MOL0     H51377   4.609  10.281   8.415 -0.1897 -1.3857 -0.0726
  381MOL0     H51378   4.626  10.363   8.114  1.4109  0.2111 -0.6473
  381MOL0     H51379   4.496  10.370   8.234  0.0958 -2.5124  2.5620
  381MOL0     H51380   4.617  10.542   8.360 -1.2953  0.9601 -0.8559
  381MOL0     H51381   4.762  10.541   8.261 -0.1622  1.9228  0.3219
  381MOL0     H51382   4.474  10.609   8.146 -0.9379  0.5887 -2.7781
  381MOL0     H51383   4.622  10.605   8.057  0.1820 -3.4576  0.8732
  381MOL0     H51384   4.711  10.797   8.182 -0.8228  2.2733 -1.6340
  381MOL0     H51385   4.563  10.845   8.113 -0.4227  0.8996  0.7301
  381MOL0     H51386   4.426  10.677   8.370 -1.1162  0.4619 -1.0671
  381MOL0     H51387   4.406  10.832   8.710 -2.7947 -2.9479  1.9348
  381MOL0     H51388   4.287  10.940   8.610 -1.9209 -0.2672 -2.8084
  381MOL0     H51389   4.287  10.633   8.632 -0.6112 -1.4405 -1.2274
  381MOL0     H51390   4.170  10.759   8.697 -0.5070 -0.0594  0.2153
  381MOL0     H51391   4.211  10.683   8.408 -1.7396 -3.2176 -0.7005
  381MOL0     H51392   4.123  10.829   8.449  0.9029 -1.2289 -2.6609
  381MOL0     H51393   3.952  10.676   8.561  1.7808  1.2239 -0.1463
  381MOL0     H51394   4.062  10.545   8.566  1.2130 -1.0405 -1.2578
  381MOL0     H51395   4.018  10.321   8.419  3.4002 -2.8664  0.5002
  381MOL0     H51396   4.193  10.182   8.316 -1.2712 -0.6799  0.6910
  381MOL0     H51397   4.491   9.920   8.155 -2.4931 -1.9860  0.2144
  381MOL0     H51398   4.602   9.745   8.001 -0.7250 -1.6074 -1.2648
  381MOL0     H51399   4.769   9.865   7.679 -1.3763  0.2168 -0.2417
  381MOL0     H51400   4.777   9.806   7.837  2.4620  3.3954 -2.1137
  381MOL0     H51401   4.798   9.627   7.590 -0.9568  0.6203 -1.1703
  381MOL0     H51402   4.930   9.644   7.702 -1.1221  1.9535  1.1277
  381MOL0     H51403   4.717   9.562   7.860  3.2344 -1.4035  1.8684
  381MOL0     H51404   4.677   9.481   7.707  1.9883 -2.2770 -0.8893
  381MOL0     H51405   4.912   9.428   7.890  0.5413 -2.3811 -0.2190
  381MOL0     H51406   4.932   9.402   7.723  0.7461 -1.9592  1.1639
  381MOL0     H51407   4.718   9.257   7.732 -1.5068  1.4649  0.8627
  381MOL0     H51408   4.709   9.284   7.897  0.5848  2.4301  0.1318
  381MOL0     H51409   4.921   9.218   7.938 -2.2319  0.7699  0.1765
  381MOL0     H51410   4.815   9.077   7.901 -1.6512  2.1850  4.3723
  381MOL0     H51411   5.011   9.208   7.697  1.5839 -2.7749 -1.1562
  381MOL0     H51412   4.886   9.098   7.655 -2.2587  2.9904 -0.3230
  381MOL0     H51413   5.136   9.021   7.720 -0.1840 -1.0355 -1.2690
  381MOL0     H51414   5.076   9.026   7.887  3.4716 -0.4893 -0.4825
  381MOL0     H51415   4.428   9.937   7.662  2.5158 -1.0151 -0.1326
  381MOL0     H51416   4.293  10.076   7.825 -0.7745  1.9373  4.1302
  381MOL0     H51417   4.275  10.503   8.041 -1.2794  1.3394 -1.2075
  381MOL0     H51418   4.149  10.654   8.169  1.4302  0.0664  0.5752
  381MOL0     H51419   4.956  10.455   8.795 -0.6449 -0.1633 -0.6700
  381MOL0     H51420   5.069  10.651   8.920  0.9268 -2.9726  1.1155
  381MOL0     H51421   5.366  10.989   8.881  0.6119 -0.3368 -2.3383
  381MOL0     H51422   5.455  11.180   8.979 -2.5127 -1.4755  1.7282
  381MOL0     H51423   5.529  11.296   9.165 -0.6922 -1.3644 -1.5496
  381MOL0     H51424   5.660  11.329   9.043  0.3698 -3.9294 -1.3899
  381MOL0     H51425   5.702  11.350   9.351  2.0058  1.7574  1.6697
  381MOL0     H51426   5.670  11.483   9.243 -0.5438 -0.1045  1.9766
  381MOL0     H51427   5.869  11.404   9.103  0.2208  2.6292  0.6959
  381MOL0     H51428   5.907  11.280   9.221  0.6823 -0.0955  1.1760
  381MOL0     H51429   5.933  11.584   9.255 -3.1025  0.8867  0.9562
  381MOL0     H51430   5.927  11.480   9.392 -2.3914  1.5123 -1.1079
  381MOL0     H51431   6.306  11.385   9.272 -0.0985 -0.3134  5.7198
  381MOL0     H51432   5.749  10.937   9.174 -1.1661 -2.7458 -0.0512
  381MOL0     H51433   5.695  10.637   9.052  1.1267 -1.0805  0.9081
  381MOL0     H51434   5.741  10.732   9.185 -0.0827 -0.2170 -0.7792
  381MOL0     H51435   5.582  10.657   9.190  0.4108 -0.7105  0.2232
  382MOL0     O51436   5.647   2.218  11.466  0.7520 -0.8078 -0.2372
  382MOL0     C51437   5.602   2.323  11.515  0.1793  0.3193  0.7031
  382MOL0     O51438   5.566   2.337  11.649  0.1105 -0.7651  0.1896
  382MOL0     C51439   5.597   2.239  11.745  0.3139 -1.0567  0.1254
  382MOL0     C51440   5.667   2.279  11.865 -0.6773 -1.0741 -0.2109
  382MOL0     C51441   5.666   2.180  11.972 -1.2739  0.2803 -0.3259
  382MOL0     C51442   5.614   2.046  11.961 -0.0072 -0.0717  0.1135
  382MOL0     O51443   5.622   1.951  12.055 -0.7500 -0.1967  0.0069
  382MOL0     C51444   5.658   1.984  12.188 -0.5456 -0.4078  0.1774
  382MOL0     C51445   5.641   1.867  12.283  0.4207  0.6523  0.0302
  382MOL0     C51446   5.576   1.892  12.423  1.2722  0.0406  1.4314
  382MOL0     C51447   5.652   1.988  12.505  0.2523  0.5343 -0.4443
  382MOL0     C51448   5.573   2.013  12.633  0.5915 -0.6359  1.0848
  382MOL0     C51449   5.646   2.093  12.749  0.0467 -0.7172  0.2731
  382MOL0     C51450   5.556   2.169  12.849  0.2681 -0.1948 -0.1580
  382MOL0     C51451   5.461   2.267  12.782 -0.0313 -0.3342  1.0449
  382MOL0     N51452   5.538   2.372  12.719  0.8813  0.3724 -0.1813
  382MOL0     C51453   5.599   2.474  12.794  0.2054 -0.5562 -0.5368
  382MOL0     C51454   5.698   2.518  12.701 -0.2407 -0.0619 -0.1805
  382MOL0     C51455   5.820   2.611  12.731  0.4447  0.0887  0.1775
  382MOL0     C51456   5.916   2.627  12.616 -0.2731 -0.2387 -0.3168
  382MOL0     C51457   6.058   2.664  12.663  0.6380 -0.5368 -0.2246
  382MOL0     C51458   6.159   2.615  12.558  0.4577 -0.2835 -0.3879
  382MOL0     O51459   6.289   2.668  12.596  1.1164  0.3887  0.6285
  382MOL0     C51460   6.362   2.589  12.677 -0.5538  0.5237  0.0476
  382MOL0     C51461   6.436   2.494  12.600 -0.5098  0.2869 -0.5601
  382MOL0     C51462   6.520   2.406  12.672  0.4663  0.2701  0.0968
  382MOL0     C51463   6.528   2.415  12.809  0.2861 -0.1910 -0.7971
  382MOL0     C51464   6.617   2.314  12.877  0.1876 -0.9133 -0.1176
  382MOL0     O51465   6.723   2.282  12.805 -0.1860 -0.0405 -0.1498
  382MOL0     C51466   6.819   2.206  12.868 -0.5729  0.1163 -0.2868
  382MOL0     C51467   6.955   2.245  12.852  0.0861 -0.0983 -0.0232
  382MOL0     C51468   7.054   2.158  12.884 -0.2126  0.4762  0.4506
  382MOL0     C51469   7.029   2.022  12.925 -0.6635  0.4774 -0.4098
  382MOL0     O51470   7.127   1.920  12.939 -0.0839  0.4135 -0.1757
  382MOL0     C51471   7.219   1.911  12.832  1.1186 -0.6497  0.7438
  382MOL0     C51472   7.337   1.830  12.857  0.3798  0.1090  0.9937
  382MOL0     C51473   7.309   1.688  12.888 -0.1156  0.1646  0.2100
  382MOL0     C51474   7.263   1.600  12.784  0.6583 -0.2248  0.9487
  382MOL0     C51475   7.273   1.443  12.817  0.0852 -0.1330 -0.0939
  382MOL0     C51476   7.225   1.346  12.712 -0.1000  0.6419  0.6792
  382MOL0     C51477   7.079   1.319  12.715 -0.1895  0.6633 -0.3970
  382MOL0     C51478   7.028   1.226  12.595  0.2474 -0.3389  0.6448
  382MOL0    Cl51479   7.093   1.271  12.432 -0.1989  0.2282 -0.5354
  382MOL0     C51480   6.898   1.984  12.946 -0.0603  1.0300  0.4786
  382MOL0     C51481   6.797   2.074  12.919 -0.0057 -0.1688 -0.3797
  382MOL0     O51482   6.593   2.287  12.995 -0.4336 -0.9599 -0.8777
  382MOL0     C51483   6.467   2.515  12.878  0.4298  0.2834 -1.0874
  382MOL0     C51484   6.371   2.599  12.817 -0.3191  0.0203  0.7361
  382MOL0     N51485   5.675   2.453  12.577  0.0388 -0.1639 -0.3880
  382MOL0     N51486   5.570   2.377  12.592 -0.4421 -0.0667  0.4971
  382MOL0     C51487   5.562   2.021  11.835  0.7839 -0.1313  0.8921
  382MOL0     C51488   5.543   2.115  11.736  0.7132  0.2181 -1.0006
  382MOL0     C51489   5.565   2.433  11.417 -0.0103  0.5717 -0.7060
  382MOL0     C51490   5.480   2.541  11.456 -0.2967 -0.4603  0.0793
  382MOL0     C51491   5.448   2.654  11.374  0.7810  0.0648 -0.5354
  382MOL0     C51492   5.469   2.645  11.233 -0.8817 -0.4679 -0.8401
  382MOL0     O51493   5.447   2.743  11.138 -0.0920 -0.6792  0.1949
  382MOL0     C51494   5.467   2.883  11.182  0.0257 -0.2801 -0.3712
  382MOL0     C51495   5.470   3.001  11.088 -0.1104 -0.4089  0.8082
  382MOL0     C51496   5.468   3.142  11.154  0.4450 -0.5572 -0.2772
  382MOL0     C51497   5.566   3.243  11.095  0.0106  0.0511 -0.5318
  382MOL0     C51498   5.697   3.214  11.118  0.1578  0.1925 -0.3276
  382MOL0     C51499   5.820   3.195  11.127  0.3144 -0.6857 -0.0090
  382MOL0     C51500   5.543   2.534  11.186 -1.1711 -0.4674 -0.1232
  382MOL0     C51501   5.595   2.433  11.275 -0.9360 -0.4337 -0.0261
  382MOL0     C51502   5.686   2.332  11.207 -0.0008 -0.2001 -0.4438
  382MOL0     H51503   5.710   2.379  11.859 -3.9311  0.3820 -1.6959
  382MOL0     H51504   5.720   2.211  12.060 -0.1805  2.0230 -1.5422
  382MOL0     H51505   5.760   2.024  12.190  0.1606 -2.1119  2.2314
  382MOL0     H51506   5.600   2.064  12.235  0.5007 -0.6963  2.0817
  382MOL0     H51507   5.738   1.817  12.290  0.4253  0.8749  2.0539
  382MOL0     H51508   5.581   1.790  12.234  0.6374  0.8867 -0.6155
  382MOL0     H51509   5.568   1.793  12.469  0.8804 -0.1309  1.0075
  382MOL0     H51510   5.479   1.938  12.402  0.7816 -0.7792  1.8733
  382MOL0     H51511   5.742   1.931  12.529 -2.0680 -2.0736  3.0640
  382MOL0     H51512   5.668   2.075  12.441 -2.5574 -0.4322 -2.7121
  382MOL0     H51513   5.481   2.069  12.612  0.2692 -0.8193  1.9608
  382MOL0     H51514   5.541   1.919  12.679 -0.3140 -1.3985 -0.9878
  382MOL0     H51515   5.694   2.020  12.815  0.6931 -1.4524 -0.9743
  382MOL0     H51516   5.721   2.160  12.705  0.7055  0.0670  2.4802
  382MOL0     H51517   5.604   2.211  12.938 -0.7134  0.0367  0.2688
  382MOL0     H51518   5.496   2.089  12.893  1.1100 -2.2997 -2.5892
  382MOL0     H51519   5.409   2.209  12.705  1.7167  0.7738 -1.0889
  382MOL0     H51520   5.385   2.297  12.855 -0.3880  0.7876  0.2286
  382MOL0     H51521   5.596   2.512  12.895  1.5515  1.8564 -1.3236
  382MOL0     H51522   5.795   2.714  12.755 -0.8779 -0.2262  0.2242
  382MOL0     H51523   5.872   2.560  12.814  1.1376 -2.0601 -1.4668
  382MOL0     H51524   5.914   2.539  12.550  0.3467 -1.1265  0.8066
  382MOL0     H51525   5.882   2.715  12.561  0.2327  0.5888  0.6754
  382MOL0     H51526   6.076   2.614  12.758  0.7329 -2.0026 -0.9888
  382MOL0     H51527   6.067   2.773  12.668  0.2637 -0.3962 -1.9256
  382MOL0     H51528   6.133   2.648  12.457  1.4919  1.8472 -0.0202
  382MOL0     H51529   6.163   2.506  12.558 -3.8563 -0.6463  2.1924
  382MOL0     H51530   6.425   2.481  12.493  1.3667 -3.3519 -0.4843
  382MOL0     H51531   6.548   2.319  12.614 -1.6422 -0.3459 -0.0884
  382MOL0     H51532   6.988   2.333  12.798  3.6210 -2.9023 -2.8808
  382MOL0     H51533   7.155   2.192  12.867 -0.5449  1.5475  0.5204
  382MOL0     H51534   7.163   1.882  12.743 -0.2733  3.6947 -0.0208
  382MOL0     H51535   7.243   2.011  12.794  1.3036 -1.1917 -0.6030
  382MOL0     H51536   7.389   1.818  12.761 -2.0816 -0.3046 -0.3532
  382MOL0     H51537   7.393   1.875  12.939  1.7755 -0.5849  0.4660
  382MOL0     H51538   7.402   1.652  12.933  0.6801  2.2789  0.3980
  382MOL0     H51539   7.238   1.685  12.971 -1.8579 -1.4258 -1.2753
  382MOL0     H51540   7.317   1.615  12.689 -0.8461  1.6267  0.3298
  382MOL0     H51541   7.162   1.628  12.753  0.3503 -1.1025  1.1269
  382MOL0     H51542   7.205   1.435  12.902 -1.0300  3.9736 -0.3905
  382MOL0     H51543   7.373   1.423  12.859  0.5297  1.4722 -0.3020
  382MOL0     H51544   7.236   1.397  12.616 -0.5416 -1.0581 -0.3320
  382MOL0     H51545   7.280   1.252  12.720  1.7967  1.3772 -2.1069
  382MOL0     H51546   7.032   1.417  12.715 -0.5251  0.5416  1.7608
  382MOL0     H51547   7.051   1.273  12.810 -4.5476  0.0770 -1.7468
  382MOL0     H51548   7.050   1.120  12.608 -1.4642 -0.8995 -0.6341
  382MOL0     H51549   6.921   1.251  12.598  0.2641  0.1894 -1.5676
  382MOL0     H51550   6.891   1.876  12.957  1.2277  0.7713 -0.8780
  382MOL0     H51551   6.691   2.049  12.925 -0.5638  2.0237 -0.3146
  382MOL0     H51552   6.465   2.517  12.987  0.3605 -0.3716 -1.0747
  382MOL0     H51553   6.316   2.670  12.877  1.6954  1.0913  1.3999
  382MOL0     H51554   5.545   1.919  11.804  3.9287 -0.1389 -1.3013
  382MOL0     H51555   5.483   2.091  11.649  3.2656  0.8634 -3.0501
  382MOL0     H51556   5.462   2.544  11.563 -1.4055 -1.9514 -0.0354
  382MOL0     H51557   5.406   2.747  11.412 -2.8255 -1.8806  0.7369
  382MOL0     H51558   5.556   2.893  11.244  0.2962 -2.8457 -0.2586
  382MOL0     H51559   5.374   2.903  11.236  0.1188  2.2904 -1.0130
  382MOL0     H51560   5.375   2.994  11.033  0.2672 -0.5532  0.1697
  382MOL0     H51561   5.548   2.976  11.015  2.7281 -3.5560  4.4657
  382MOL0     H51562   5.486   3.136  11.262  0.6713  2.9277 -0.0161
  382MOL0     H51563   5.363   3.172  11.146 -0.6337 -3.8171  0.0330
  382MOL0     H51564   5.543   3.251  10.988  0.9427 -2.0380 -0.9359
  382MOL0     H51565   5.541   3.341  11.137  1.5058 -0.2270  1.0902
  382MOL0     H51566   5.926   3.203  11.118  0.5160 -4.1667 -4.6643
  382MOL0     H51567   5.565   2.527  11.080  2.0160 -1.5431  0.5003
  382MOL0     H51568   5.709   2.368  11.107 -1.6139  0.6741 -0.5183
  382MOL0     H51569   5.775   2.319  11.270  1.2676 -2.3191 -2.5200
  382MOL0     H51570   5.647   2.230  11.194  1.4391 -1.0759  1.4487
  383MOL0     O51571   1.055   3.234   4.392 -0.2043  0.2852  0.4386
  383MOL0     C51572   1.113   3.128   4.387 -0.8138  0.1094 -0.1474
  383MOL0     O51573   1.256   3.113   4.386  0.4544 -0.4038 -0.0779
  383MOL0     C51574   1.325   3.206   4.321  1.3195  0.1063  0.3987
  383MOL0     C51575   1.294   3.246   4.182 -0.8702 -0.4902 -1.3533
  383MOL0     C51576   1.375   3.352   4.133  0.4992 -0.8885 -0.3591
  383MOL0     C51577   1.477   3.413   4.206 -0.1960  0.5677  0.4805
  383MOL0     O51578   1.574   3.488   4.146  0.1830  0.3666  0.0202
  383MOL0     C51579   1.644   3.584   4.224 -0.6374 -0.2499 -0.0598
  383MOL0     C51580   1.759   3.649   4.150  0.6571  0.1806  0.1230
  383MOL0     C51581   1.891   3.554   4.145  0.0316  0.7594  0.4372
  383MOL0     C51582   2.006   3.636   4.088 -0.1041  0.7831 -0.4217
  383MOL0     C51583   2.065   3.743   4.180 -0.2245  0.5512 -0.0779
  383MOL0     C51584   2.181   3.814   4.109 -0.0085 -0.3408 -0.2541
  383MOL0     C51585   2.239   3.935   4.196  0.8228 -0.7355 -1.2739
  383MOL0     C51586   2.366   3.990   4.125 -0.1877  0.1266 -0.4982
  383MOL0     N51587   2.421   4.095   4.211  0.1313  0.1481  0.7076
  383MOL0     C51588   2.380   4.227   4.200  0.2792 -0.0193 -0.2509
  383MOL0     C51589   2.447   4.295   4.293 -0.1608 -0.3829 -0.1841
  383MOL0     C51590   2.432   4.446   4.313  0.1332  1.1693 -0.3943
  383MOL0     C51591   2.450   4.520   4.183 -0.4319 -0.4600  0.7043
  383MOL0     C51592   2.345   4.634   4.158 -0.3962  0.2180 -0.5274
  383MOL0     C51593   2.208   4.584   4.090 -0.3901  0.3590  0.4366
  383MOL0     O51594   2.143   4.484   4.168  0.6084 -0.3300 -0.4726
  383MOL0     C51595   2.049   4.402   4.113 -0.1008 -0.7144  0.8398
  383MOL0     C51596   1.965   4.438   4.018 -0.1209  0.9801  0.0852
  383MOL0     C51597   1.863   4.351   3.966  0.2621 -0.9125  1.1044
  383MOL0     C51598   1.838   4.232   4.034 -0.2537 -0.2020  0.0856
  383MOL0     C51599   1.730   4.143   3.980  0.3281 -0.0297 -0.7057
  383MOL0     O51600   1.705   4.025   4.041  0.5093  0.0027 -0.6045
  383MOL0     C51601   1.643   3.938   3.957  0.7638  0.2950 -0.9205
  383MOL0     C51602   1.722   3.867   3.875  0.1110 -0.4085  0.7662
  383MOL0     C51603   1.663   3.772   3.789 -0.4810  0.1859 -0.5453
  383MOL0     C51604   1.524   3.744   3.800 -1.0179 -0.5636  0.9740
  383MOL0     O51605   1.482   3.642   3.708  0.1318 -0.0639 -0.1894
  383MOL0     C51606   1.361   3.572   3.739 -0.3834 -0.1292 -0.6662
  383MOL0     C51607   1.328   3.443   3.666 -0.3044 -0.3004  0.0319
  383MOL0     C51608   1.212   3.353   3.725  1.3655 -1.1957 -1.1840
  383MOL0     C51609   1.171   3.220   3.632 -0.1831  0.1572 -0.6866
  383MOL0     C51610   1.245   3.092   3.676 -0.2393 -0.5930  0.0370
  383MOL0     C51611   1.174   2.995   3.766  0.5305  0.6410  0.5911
  383MOL0     C51612   1.047   2.939   3.694 -0.0731 -0.2270  0.5542
  383MOL0     C51613   0.980   2.809   3.761  1.0979 -1.2020  0.3107
  383MOL0    Cl51614   0.949   2.834   3.939  0.4576  0.4578 -0.1896
  383MOL0     C51615   1.446   3.812   3.895  0.7702 -1.0425 -0.3470
  383MOL0     C51616   1.506   3.910   3.970  0.3117 -0.0074 -0.5360
  383MOL0     O51617   1.670   4.181   3.881  0.6460 -0.8602 -0.1673
  383MOL0     C51618   1.930   4.194   4.139 -0.3757  0.6689 -0.1385
  383MOL0     C51619   2.035   4.275   4.164  0.5370 -0.0714 -1.3374
  383MOL0     N51620   2.509   4.207   4.382 -0.6052  0.0932  0.5826
  383MOL0     N51621   2.492   4.085   4.332  0.1097 -0.3739 -0.0070
  383MOL0     C51622   1.501   3.363   4.334  0.5942 -0.4828  0.0972
  383MOL0     C51623   1.420   3.268   4.394 -0.0353  0.0778  0.0723
  383MOL0     C51624   1.025   3.012   4.392  0.4284  0.6308 -0.1701
  383MOL0     C51625   1.076   2.895   4.451 -0.4716  0.3116  1.3073
  383MOL0     C51626   1.013   2.771   4.442 -0.1183  0.0084 -0.3313
  383MOL0     C51627   0.889   2.764   4.384  0.3095 -0.0296 -0.2183
  383MOL0     O51628   0.824   2.636   4.377  0.4432  0.2819 -0.1519
  383MOL0     C51629   0.705   2.618   4.305  0.6777 -0.0740 -0.2716
  383MOL0     C51630   0.726   2.612   4.147 -0.1412 -0.7361 -0.0335
  383MOL0     C51631   0.595   2.624   4.068  0.1288  0.5338 -0.2854
  383MOL0     C51632   0.627   2.620   3.920 -0.0793  0.4677 -0.1202
  383MOL0     C51633   0.496   2.608   3.851  1.3441  0.6223 -0.5945
  383MOL0     C51634   0.384   2.595   3.796 -1.0434  0.2530 -1.1791
  383MOL0     C51635   0.839   2.877   4.322  0.7393  0.1967 -1.0211
  383MOL0     C51636   0.909   2.998   4.319 -0.9869  1.0847 -0.2908
  383MOL0     C51637   0.842   3.118   4.239  0.2120  0.6353  0.3979
  383MOL0     H51638   1.219   3.199   4.120  0.5297 -1.3830 -2.4125
  383MOL0     H51639   1.362   3.396   4.035 -0.8196 -0.9466 -0.2265
  383MOL0     H51640   1.576   3.658   4.269 -0.1637  1.4207 -1.9265
  383MOL0     H51641   1.688   3.539   4.313 -0.6596  0.9167  0.5614
  383MOL0     H51642   1.784   3.737   4.210  0.4447  1.2365 -1.2757
  383MOL0     H51643   1.728   3.685   4.051 -0.7379  1.8711  1.0991
  383MOL0     H51644   1.861   3.471   4.081  0.5500  2.3668 -2.0040
  383MOL0     H51645   1.910   3.525   4.249 -2.2606 -2.4194  0.1469
  383MOL0     H51646   2.076   3.563   4.045 -1.3854 -0.0069 -1.2444
  383MOL0     H51647   1.959   3.694   4.008 -2.4495 -0.8978 -0.3715
  383MOL0     H51648   1.988   3.817   4.205 -2.6556 -1.2673 -1.6118
  383MOL0     H51649   2.100   3.700   4.274  1.7675  2.7901  0.2820
  383MOL0     H51650   2.253   3.732   4.108  1.9511  1.2778  0.4812
  383MOL0     H51651   2.155   3.836   4.005  1.9086 -0.5229 -0.8093
  383MOL0     H51652   2.266   3.907   4.298  1.3071  1.8643 -0.6206
  383MOL0     H51653   2.158   4.009   4.202  0.6576 -0.9415 -0.9814
  383MOL0     H51654   2.449   3.923   4.103 -0.0001 -0.6586  2.2694
  383MOL0     H51655   2.342   4.028   4.025  2.4551  0.9493 -0.9025
  383MOL0     H51656   2.319   4.273   4.124  1.1926 -0.6516 -1.3960
  383MOL0     H51657   2.331   4.464   4.352  0.1541 -3.1455  2.2047
  383MOL0     H51658   2.502   4.483   4.388  0.2093 -2.3343  1.4344
  383MOL0     H51659   2.552   4.562   4.185 -0.0417 -1.2011 -1.1002
  383MOL0     H51660   2.458   4.457   4.094 -1.4952  0.9100 -0.4072
  383MOL0     H51661   2.392   4.707   4.092  0.5488  2.2351  2.1672
  383MOL0     H51662   2.329   4.692   4.250 -2.3902  1.2766 -1.4756
  383MOL0     H51663   2.227   4.533   3.996 -1.8827  2.1571 -0.9341
  383MOL0     H51664   2.141   4.668   4.069 -0.2963  1.2695  3.2765
  383MOL0     H51665   1.983   4.533   3.971 -0.6536  2.3437  2.4647
  383MOL0     H51666   1.814   4.377   3.873  2.0255 -0.1337  0.3429
  383MOL0     H51667   1.828   3.882   3.888  0.3862 -0.6289 -0.9850
  383MOL0     H51668   1.724   3.724   3.714  1.9801 -1.0138  2.0446
  383MOL0     H51669   1.361   3.563   3.849  2.1412  1.1803 -0.4848
  383MOL0     H51670   1.279   3.643   3.726  0.3618  0.8830  0.0255
  383MOL0     H51671   1.308   3.456   3.560 -3.3185 -0.9273  0.4264
  383MOL0     H51672   1.416   3.378   3.678  0.5841  1.0447  1.0766
  383MOL0     H51673   1.247   3.324   3.825 -0.3323 -0.5819 -0.3795
  383MOL0     H51674   1.121   3.409   3.747  1.4311 -1.6805  0.4353
  383MOL0     H51675   1.203   3.243   3.530  2.3332  2.0616  0.4322
  383MOL0     H51676   1.063   3.201   3.638 -0.5470  1.9638 -1.0375
  383MOL0     H51677   1.340   3.128   3.717 -0.8147  0.8959  0.1341
  383MOL0     H51678   1.272   3.042   3.583  2.7642  1.2184 -0.1795
  383MOL0     H51679   1.240   2.911   3.790 -0.9325 -0.4670  0.8677
  383MOL0     H51680   1.155   3.046   3.861  0.0892  2.3376 -0.3660
  383MOL0     H51681   1.059   2.917   3.587  1.9019 -1.0132  0.8776
  383MOL0     H51682   0.971   3.016   3.706  3.3313  3.2989  1.6947
  383MOL0     H51683   0.882   2.803   3.711  1.4475  0.0028 -0.5631
  383MOL0     H51684   1.038   2.718   3.746  4.4250  0.4674  2.0501
  383MOL0     H51685   1.338   3.797   3.893  0.5361  0.4253  0.2096
  383MOL0     H51686   1.450   3.969   4.042 -2.2409 -1.0562 -1.5681
  383MOL0     H51687   1.910   4.094   4.178 -3.0131  0.1206 -2.6109
  383MOL0     H51688   2.107   4.241   4.238 -1.0922 -0.1493  0.3053
  383MOL0     H51689   1.574   3.406   4.403 -0.8309 -0.3409  1.5724
  383MOL0     H51690   1.417   3.251   4.502 -1.8675  1.7071  0.3300
  383MOL0     H51691   1.169   2.904   4.507 -1.3151  0.8042  2.6869
  383MOL0     H51692   1.065   2.686   4.485 -0.5405 -1.2153 -2.1258
  383MOL0     H51693   0.641   2.702   4.336 -1.0528 -2.9645  5.5150
  383MOL0     H51694   0.652   2.529   4.340 -1.5692  1.0390 -0.7039
  383MOL0     H51695   0.791   2.533   4.109  0.9082  0.9790 -1.9964
  383MOL0     H51696   0.772   2.709   4.125 -1.8505  0.3681  0.9893
  383MOL0     H51697   0.553   2.723   4.086 -3.9838 -1.0387 -0.0262
  383MOL0     H51698   0.519   2.547   4.088  2.5427 -1.5433  1.5223
  383MOL0     H51699   0.682   2.713   3.903 -0.2891  0.4974 -0.6643
  383MOL0     H51700   0.697   2.542   3.890  0.6061  1.5697 -1.4782
  383MOL0     H51701   0.295   2.595   3.737  0.3968  1.7166 -3.4901
  383MOL0     H51702   0.739   2.880   4.279 -0.8368  1.4897  2.3819
  383MOL0     H51703   0.780   3.070   4.162  0.3141 -0.1347  0.7897
  383MOL0     H51704   0.798   3.195   4.303 -1.4954  1.2453 -1.3938
  383MOL0     H51705   0.918   3.162   4.174  1.9250 -6.1837 -3.0950
  384MOL0     O51706   7.840   2.175   4.986 -0.4419  0.2629  0.6435
  384MOL0     C51707   7.731   2.154   5.037  0.1955 -0.1052 -0.6091
  384MOL0     O51708   7.610   2.214   4.994 -0.5323 -0.3564 -0.0451
  384MOL0     C51709   7.604   2.352   4.969 -0.2834 -0.6515  0.3648
  384MOL0     C51710   7.632   2.402   4.841 -0.4055 -0.3790 -0.3859
  384MOL0     C51711   7.607   2.530   4.804  0.5893  0.6038  0.7052
  384MOL0     C51712   7.530   2.609   4.896 -0.0061  0.3898  0.1059
  384MOL0     O51713   7.468   2.728   4.861  0.1089 -0.1557 -0.3629
  384MOL0     C51714   7.431   2.740   4.724 -0.1556 -0.0159 -0.3027
  384MOL0     C51715   7.340   2.865   4.705 -0.0271  0.4401  0.2581
  384MOL0     C51716   7.424   2.999   4.720 -0.0463  0.3944  1.1986
  384MOL0     C51717   7.336   3.122   4.689 -0.5176  0.3321 -0.6815
  384MOL0     C51718   7.241   3.156   4.805 -0.4659 -1.0246 -0.3601
  384MOL0     C51719   7.319   3.232   4.912  0.6177  0.0335 -0.0549
  384MOL0     C51720   7.237   3.278   5.040 -0.2272  0.7634 -0.1049
  384MOL0     C51721   7.119   3.358   4.998 -1.0673 -0.3777 -0.3222
  384MOL0     N51722   7.062   3.397   5.125 -0.1685 -0.2972  0.5146
  384MOL0     C51723   6.948   3.344   5.194 -0.6577 -0.7952  0.1001
  384MOL0     C51724   6.941   3.432   5.296  1.0151  0.0806 -0.7998
  384MOL0     C51725   6.819   3.439   5.399  0.3880 -0.0007  0.7254
  384MOL0     C51726   6.726   3.559   5.386 -0.1659 -0.4702 -0.3986
  384MOL0     C51727   6.792   3.682   5.453  0.5990 -0.0675 -0.7578
  384MOL0     C51728   6.711   3.810   5.430  0.4854  0.4386  0.2364
  384MOL0     O51729   6.801   3.923   5.437  0.3391 -0.8009  0.2616
  384MOL0     C51730   6.844   3.961   5.564 -0.4954 -0.4002  0.0506
  384MOL0     C51731   6.951   4.054   5.560 -0.4039  0.1172 -0.2368
  384MOL0     C51732   7.015   4.101   5.676 -0.1105  0.2885 -0.2699
  384MOL0     C51733   6.978   4.041   5.801  0.7160 -0.7152  0.7620
  384MOL0     C51734   7.051   4.071   5.928  0.4556  0.0553 -0.1673
  384MOL0     O51735   6.996   4.011   6.041  0.0652  0.1223  0.8578
  384MOL0     C51736   7.070   4.030   6.160 -0.7480  0.3105 -0.6925
  384MOL0     C51737   7.159   3.928   6.185 -0.4452  0.1576 -0.2393
  384MOL0     C51738   7.257   3.949   6.286 -0.3943 -0.5906  0.9242
  384MOL0     C51739   7.255   4.053   6.374 -1.1730 -0.3398  0.5077
  384MOL0     O51740   7.337   4.039   6.482  0.0082  0.1183  0.6594
  384MOL0     C51741   7.392   4.147   6.557  1.0387  0.1694  0.8105
  384MOL0     C51742   7.539   4.132   6.543  0.4073  0.2797 -0.1596
  384MOL0     C51743   7.613   4.212   6.649  0.2137  0.4504  0.6567
  384MOL0     C51744   7.753   4.266   6.607  0.0246 -0.7436 -0.2952
  384MOL0     C51745   7.819   4.349   6.722  0.2729  0.7287  1.0033
  384MOL0     C51746   7.753   4.484   6.764  0.3764  0.8764 -0.0210
  384MOL0     C51747   7.769   4.589   6.652 -0.1050  0.5493 -1.0825
  384MOL0     C51748   7.776   4.732   6.706  0.4771  0.4604 -0.5273
  384MOL0    Cl51749   7.641   4.768   6.824 -0.0785  0.3275 -0.0704
  384MOL0     C51750   7.172   4.160   6.333  0.0904 -0.1811  0.9176
  384MOL0     C51751   7.090   4.151   6.224  0.3409 -1.3137 -0.3094
  384MOL0     O51752   7.148   4.142   5.920  0.0676 -0.6039 -0.3856
  384MOL0     C51753   6.869   3.957   5.808  0.5716  0.4826 -0.4237
  384MOL0     C51754   6.802   3.923   5.693 -0.3203 -0.2332  1.4909
  384MOL0     N51755   7.037   3.524   5.298 -0.2379  0.3231 -0.1804
  384MOL0     N51756   7.103   3.512   5.183  0.2168  0.0356 -0.3698
  384MOL0     C51757   7.511   2.565   5.020 -0.4406 -0.3165 -0.0540
  384MOL0     C51758   7.545   2.444   5.061 -0.1884  0.7276 -1.0425
  384MOL0     C51759   7.726   2.034   5.128  0.2399 -0.0862 -0.1498
  384MOL0     C51760   7.609   1.951   5.113  0.5191 -0.4519  0.3287
  384MOL0     C51761   7.600   1.834   5.195 -0.7006  0.4513 -0.6214
  384MOL0     C51762   7.702   1.794   5.289  0.6854 -0.8064  0.1987
  384MOL0     O51763   7.678   1.691   5.370  0.3068  0.1800  0.6817
  384MOL0     C51764   7.631   1.747   5.499  0.5366  0.2753 -0.4144
  384MOL0     C51765   7.483   1.769   5.506  0.5028 -0.4203  0.4789
  384MOL0     C51766   7.404   1.642   5.474 -0.3399 -1.0655  0.1866
  384MOL0     C51767   7.349   1.557   5.596 -0.9661  1.1761  0.1111
  384MOL0     C51768   7.457   1.521   5.684 -0.1844  0.7854  0.1623
  384MOL0     C51769   7.551   1.490   5.762 -0.3634  0.6692 -0.1700
  384MOL0     C51770   7.815   1.886   5.302 -0.2382  0.3779  0.5734
  384MOL0     C51771   7.814   2.013   5.229  0.4338  1.2551 -0.5378
  384MOL0     C51772   7.921   2.116   5.270 -0.4962  0.3617  0.2719
  384MOL0     H51773   7.671   2.333   4.766  0.8951 -0.5696  0.4366
  384MOL0     H51774   7.647   2.564   4.709 -0.8195 -0.6633 -0.3904
  384MOL0     H51775   7.517   2.743   4.657  1.1524  0.7297  1.3525
  384MOL0     H51776   7.381   2.649   4.689  1.1858 -0.8475 -0.1221
  384MOL0     H51777   7.269   2.862   4.788 -1.1468  3.3995 -0.4555
  384MOL0     H51778   7.285   2.864   4.611  1.3669 -3.9394 -0.7402
  384MOL0     H51779   7.502   2.999   4.643 -0.9640 -0.7422  0.2409
  384MOL0     H51780   7.475   3.009   4.816 -0.1149 -1.9994  1.5323
  384MOL0     H51781   7.403   3.203   4.658  0.5964 -0.6718 -0.9810
  384MOL0     H51782   7.281   3.093   4.600  0.2458  0.7933 -1.3172
  384MOL0     H51783   7.157   3.214   4.768  0.4513  0.6626  0.0931
  384MOL0     H51784   7.186   3.070   4.845 -0.1189 -0.9997  0.1867
  384MOL0     H51785   7.413   3.181   4.935  1.4653  1.4714 -0.1685
  384MOL0     H51786   7.356   3.324   4.865 -0.0428 -0.7918 -2.3242
  384MOL0     H51787   7.301   3.326   5.113 -0.4334 -0.0558  0.6362
  384MOL0     H51788   7.195   3.192   5.094  0.2264  1.8698  2.0996
  384MOL0     H51789   7.147   3.448   4.943 -0.0389 -0.9188 -0.6879
  384MOL0     H51790   7.054   3.298   4.934 -2.8041  2.0513 -0.9714
  384MOL0     H51791   6.898   3.250   5.173  1.7112 -2.1232  0.0090
  384MOL0     H51792   6.753   3.351   5.397  0.5640 -0.2710 -3.5411
  384MOL0     H51793   6.863   3.435   5.498  2.3566 -2.5855 -0.1229
  384MOL0     H51794   6.707   3.567   5.278  1.6661  0.9156 -0.6615
  384MOL0     H51795   6.635   3.540   5.444 -2.2599  3.0098 -2.2152
  384MOL0     H51796   6.893   3.689   5.413  2.2223 -2.6806  2.4390
  384MOL0     H51797   6.791   3.680   5.563  0.7700  1.9067 -0.6800
  384MOL0     H51798   6.623   3.819   5.495  0.5188  0.8509  0.2277
  384MOL0     H51799   6.668   3.812   5.329  1.7839 -0.6777 -0.3681
  384MOL0     H51800   6.987   4.085   5.463 -1.2750 -4.0667 -2.1036
  384MOL0     H51801   7.099   4.168   5.662  0.2265  0.1726  1.0579
  384MOL0     H51802   7.172   3.836   6.129 -0.8395 -1.0368  1.5250
  384MOL0     H51803   7.330   3.873   6.310  1.6291  1.1634  0.6509
  384MOL0     H51804   7.360   4.248   6.528  2.3588  0.0630 -1.2470
  384MOL0     H51805   7.363   4.131   6.661  0.4759  4.6408  1.5391
  384MOL0     H51806   7.570   4.027   6.552 -0.1608  0.2643  5.7391
  384MOL0     H51807   7.569   4.175   6.447  0.5317 -1.1825 -0.8128
  384MOL0     H51808   7.559   4.293   6.698 -1.5020  0.9931 -1.9500
  384MOL0     H51809   7.632   4.145   6.734  0.3217  1.6977  1.6316
  384MOL0     H51810   7.758   4.340   6.526  0.7146  3.4327  3.1893
  384MOL0     H51811   7.814   4.180   6.577  0.9440 -0.7938  1.5676
  384MOL0     H51812   7.922   4.373   6.696  0.5590  2.3820  3.3694
  384MOL0     H51813   7.820   4.288   6.812  1.4075 -0.5615  0.1554
  384MOL0     H51814   7.649   4.466   6.794  0.1631 -0.7381 -1.5780
  384MOL0     H51815   7.798   4.517   6.858  1.6722  1.8133 -0.9332
  384MOL0     H51816   7.681   4.561   6.594 -2.3134 -0.9345  2.5758
  384MOL0     H51817   7.865   4.591   6.598  2.2538  1.0479  2.7173
  384MOL0     H51818   7.873   4.733   6.757  1.5139 -2.3427 -2.2015
  384MOL0     H51819   7.776   4.804   6.624 -1.9519  3.3758  1.8081
  384MOL0     H51820   7.172   4.251   6.392  1.9463  2.7209 -3.1001
  384MOL0     H51821   7.017   4.230   6.206 -0.2363 -1.5328  0.9404
  384MOL0     H51822   6.830   3.914   5.900  3.5669 -1.0847  0.2352
  384MOL0     H51823   6.724   3.848   5.700  0.7511 -1.3553  1.8876
  384MOL0     H51824   7.465   2.621   5.101  2.3955 -2.2708  3.1971
  384MOL0     H51825   7.533   2.408   5.163 -0.1019  0.6709 -1.0519
  384MOL0     H51826   7.525   1.988   5.055  0.9352  0.5205  0.3279
  384MOL0     H51827   7.516   1.768   5.177 -1.2404  0.7644  0.6539
  384MOL0     H51828   7.682   1.837   5.533  0.2177  1.5818 -3.1595
  384MOL0     H51829   7.665   1.670   5.569  1.6081  0.7574 -0.3872
  384MOL0     H51830   7.465   1.848   5.434  0.0070 -0.0402  1.0132
  384MOL0     H51831   7.450   1.809   5.602 -0.0940  0.6147 -0.1448
  384MOL0     H51832   7.457   1.569   5.414 -1.4204 -1.4202 -0.3610
  384MOL0     H51833   7.321   1.680   5.414  0.4119  0.9523  0.3541
  384MOL0     H51834   7.272   1.615   5.648  1.0669  0.9004  3.7495
  384MOL0     H51835   7.296   1.468   5.561  3.3907 -0.3334 -3.7594
  384MOL0     H51836   7.626   1.460   5.833  1.6413  1.7929 -1.7335
  384MOL0     H51837   7.900   1.876   5.368 -1.3432  1.2551  2.2082
  384MOL0     H51838   7.871   2.213   5.283  2.3169  1.8614  0.5982
  384MOL0     H51839   7.973   2.086   5.361  0.1124 -0.6792 -0.3987
  384MOL0     H51840   7.997   2.124   5.192 -0.0813 -1.1658  0.4817
  385MOL0     O51841   6.223   9.333   2.344 -0.3989 -0.0377  0.3525
  385MOL0     C51842   6.278   9.232   2.382  0.5395  0.2420 -1.1735
  385MOL0     O51843   6.259   9.104   2.329  0.3721 -0.9430 -0.0822
  385MOL0     C51844   6.197   9.076   2.211  1.3623 -0.0848 -0.3655
  385MOL0     C51845   6.124   9.171   2.131  0.3647 -0.0419  0.1659
  385MOL0     C51846   6.081   9.137   2.007  0.9423  0.3804  0.1206
  385MOL0     C51847   6.107   9.011   1.946 -0.5697 -1.1120 -0.7114
  385MOL0     O51848   6.059   8.988   1.817 -1.0522  0.1549  0.0538
  385MOL0     C51849   6.081   8.859   1.770  0.0700  0.0305 -1.0823
  385MOL0     C51850   6.000   8.816   1.655  0.5556  0.2161 -0.1929
  385MOL0     C51851   5.855   8.807   1.694  0.0247  0.0526 -0.3209
  385MOL0     C51852   5.764   8.756   1.580 -0.4695  0.1679  0.2789
  385MOL0     C51853   5.758   8.855   1.464  0.0491  0.4538 -0.9228
  385MOL0     C51854   5.623   8.910   1.418 -0.7636  1.3454  0.2179
  385MOL0     C51855   5.631   9.000   1.295  0.1182 -0.6014 -0.0822
  385MOL0     C51856   5.494   8.996   1.216 -0.9753 -0.9918 -0.1701
  385MOL0     N51857   5.493   9.040   1.070 -0.0626  0.2698  0.4829
  385MOL0     C51858   5.519   9.164   1.020  0.0281 -0.7463  0.5879
  385MOL0     C51859   5.543   9.144   0.889  0.7548 -0.0235 -0.6934
  385MOL0     C51860   5.556   9.264   0.794 -0.7843  0.2765 -0.5991
  385MOL0     C51861   5.539   9.228   0.641  0.4287  0.6469 -1.2163
  385MOL0     C51862   5.653   9.141   0.576  0.9463 -1.4555 -0.5392
  385MOL0     C51863   5.659   9.172   0.422 -0.2746 -0.4258  0.3725
  385MOL0     O51864   5.547   9.107   0.367  0.1255 -0.4778  0.3891
  385MOL0     C51865   5.527   9.094   0.227  0.9349 -1.4987 -0.8147
  385MOL0     C51866   5.592   9.164   0.127 -0.4469 -0.6097  0.5684
  385MOL0     C51867   5.565   9.147  -0.010  1.0289  0.8053  0.3882
  385MOL0     C51868   5.462   9.055  -0.043  0.0212  0.4341  0.1262
  385MOL0     C51869   5.414   9.029  -0.189 -1.4928 -1.0695 -0.9062
  385MOL0     O51870   5.314   8.939  -0.200 -0.2562 -0.5057  0.1217
  385MOL0     C51871   5.242   8.923  -0.310 -0.0079  0.4140  0.2517
  385MOL0     C51872   5.159   9.024  -0.352  0.5841  0.5963  0.4557
  385MOL0     C51873   5.089   9.005  -0.464 -0.3148  0.0671  0.5926
  385MOL0     C51874   5.101   8.886  -0.549  0.6742 -0.0629  0.5926
  385MOL0     O51875   5.035   8.882  -0.672  0.7729 -0.2156 -1.0769
  385MOL0     C51876   4.982   9.008  -0.716  0.4250 -0.3136 -0.3949
  385MOL0     C51877   4.941   9.002  -0.855  0.4050 -0.1223  0.8215
  385MOL0     C51878   4.877   9.132  -0.896  0.6035 -0.3413 -0.0019
  385MOL0     C51879   4.807   9.155  -1.031  0.2235  0.9079  0.3963
  385MOL0     C51880   4.883   9.085  -1.150 -0.2981  0.0790  0.5532
  385MOL0     C51881   4.836   9.135  -1.285  0.2432  0.3594 -0.3329
  385MOL0     C51882   4.708   9.078  -1.335  0.3217  1.0967 -0.6931
  385MOL0     C51883   4.680   9.101  -1.481 -0.6780  0.4487  1.2301
  385MOL0    Cl51884   4.566   8.972  -1.530  0.2015  0.0020  0.7001
  385MOL0     C51885   5.169   8.775  -0.491 -0.0784  0.0814 -0.0288
  385MOL0     C51886   5.244   8.802  -0.378 -0.5446 -0.6798 -0.3222
  385MOL0     O51887   5.467   9.095  -0.279 -0.5597  0.4317  0.2112
  385MOL0     C51888   5.395   8.991   0.061 -0.6247  0.2194  0.2513
  385MOL0     C51889   5.421   9.019   0.191 -0.3057 -0.1369  0.0095
  385MOL0     N51890   5.530   9.012   0.866  0.1499  0.9064 -0.4018
  385MOL0     N51891   5.505   8.939   0.978 -1.1267 -0.1246  0.2124
  385MOL0     C51892   6.183   8.919   2.026  1.2343  0.4976 -0.4065
  385MOL0     C51893   6.217   8.954   2.162  0.0045 -0.0436  0.0861
  385MOL0     C51894   6.374   9.255   2.499 -0.5901 -0.1763 -0.0837
  385MOL0     C51895   6.467   9.366   2.490  0.8642 -0.4743  0.1419
  385MOL0     C51896   6.556   9.404   2.594  0.8299  0.7916  0.4942
  385MOL0     C51897   6.548   9.328   2.714  0.9620 -0.1061  0.1689
  385MOL0     O51898   6.612   9.352   2.831 -0.1060  0.0495 -0.4371
  385MOL0     C51899   6.665   9.485   2.852  0.4107 -0.6528 -0.3446
  385MOL0     C51900   6.557   9.571   2.903 -0.5575  0.3444 -0.1302
  385MOL0     C51901   6.613   9.700   2.967  0.2613 -0.0895  1.2249
  385MOL0     C51902   6.498   9.806   2.988 -0.2261  0.0061  0.0743
  385MOL0     C51903   6.380   9.742   3.053  0.7405  0.4196 -0.1120
  385MOL0     C51904   6.275   9.689   3.080 -0.0003 -0.5994  0.3901
  385MOL0     C51905   6.456   9.216   2.729 -0.6912 -0.1209 -0.1749
  385MOL0     C51906   6.366   9.182   2.620  0.2191  1.0565 -0.0438
  385MOL0     C51907   6.270   9.062   2.638  0.8716 -0.2695 -1.5086
  385MOL0     H51908   6.087   9.271   2.153 -0.7864  0.7318 -4.3063
  385MOL0     H51909   6.020   9.212   1.957  2.1988  3.4744  2.8562
  385MOL0     H51910   6.186   8.846   1.745  0.0777 -1.5223 -0.3540
  385MOL0     H51911   6.054   8.781   1.842  3.0465 -0.9215 -0.8502
  385MOL0     H51912   6.035   8.720   1.615  1.8439  0.5284  0.1114
  385MOL0     H51913   6.007   8.891   1.576  0.1960  0.8508  0.3666
  385MOL0     H51914   5.830   8.907   1.732  0.3085 -0.0192  0.0692
  385MOL0     H51915   5.840   8.735   1.775 -0.1783  0.5007  0.0441
  385MOL0     H51916   5.812   8.666   1.540  3.4895  2.5579 -0.8800
  385MOL0     H51917   5.667   8.719   1.615 -0.0601 -2.3626 -1.0052
  385MOL0     H51918   5.802   8.950   1.499 -1.6412  0.4346  1.5139
  385MOL0     H51919   5.801   8.811   1.374 -0.6956 -0.5174 -0.8202
  385MOL0     H51920   5.558   8.827   1.390  0.6400  0.2464  0.0675
  385MOL0     H51921   5.572   8.972   1.493 -1.1208  2.3211 -0.8045
  385MOL0     H51922   5.709   8.970   1.224 -0.1880  0.6633 -0.9870
  385MOL0     H51923   5.659   9.100   1.331 -0.9886 -0.9309  1.8426
  385MOL0     H51924   5.456   8.894   1.229  1.6526 -2.1191 -0.5804
  385MOL0     H51925   5.417   9.056   1.266 -2.2078 -3.7516  1.4784
  385MOL0     H51926   5.534   9.254   1.078 -0.1571 -1.3683  1.6177
  385MOL0     H51927   5.484   9.343   0.815 -0.0644  0.9188 -0.4871
  385MOL0     H51928   5.657   9.304   0.809  0.4497 -1.7701 -2.6816
  385MOL0     H51929   5.443   9.177   0.633  1.2942 -0.9219 -2.2263
  385MOL0     H51930   5.531   9.326   0.593  0.7679  1.0837 -0.3957
  385MOL0     H51931   5.654   9.035   0.604 -0.5206 -1.2894  0.2482
  385MOL0     H51932   5.747   9.173   0.622 -0.0548  3.8723 -1.4442
  385MOL0     H51933   5.756   9.136   0.384 -0.6217  0.0360 -1.0435
  385MOL0     H51934   5.633   9.275   0.395 -3.5504 -2.1919 -4.8219
  385MOL0     H51935   5.677   9.226   0.153  0.2383  0.2731 -3.1102
  385MOL0     H51936   5.620   9.188  -0.093  1.6356  0.5655  0.6657
  385MOL0     H51937   5.141   9.108  -0.287 -1.0787 -0.1534  1.0188
  385MOL0     H51938   5.029   9.092  -0.490 -1.3170 -0.5290  0.8735
  385MOL0     H51939   4.907   9.034  -0.641  1.8964  0.9903  0.6977
  385MOL0     H51940   5.053   9.091  -0.713 -2.1101  1.9910 -0.4127
  385MOL0     H51941   5.024   8.976  -0.922 -2.1638 -2.2112 -1.8414
  385MOL0     H51942   4.856   8.934  -0.866 -0.4463  0.7395  1.8762
  385MOL0     H51943   4.807   9.139  -0.812 -1.3413 -4.1633 -1.0620
  385MOL0     H51944   4.956   9.207  -0.888  2.1200 -2.0039  1.7205
  385MOL0     H51945   4.807   9.263  -1.051 -0.1189  0.6401 -1.2044
  385MOL0     H51946   4.704   9.121  -1.019 -0.9491  4.4442  1.6864
  385MOL0     H51947   4.869   8.977  -1.136  1.2113  0.1606  3.2266
  385MOL0     H51948   4.986   9.120  -1.149 -0.1053 -0.2993 -1.4470
  385MOL0     H51949   4.823   9.243  -1.274 -0.8686  0.1937  0.0933
  385MOL0     H51950   4.910   9.114  -1.363 -1.0281  1.4282 -1.8955
  385MOL0     H51951   4.630   9.119  -1.270  1.1259  2.1633 -0.3644
  385MOL0     H51952   4.717   8.969  -1.325  2.8677  0.9886 -3.0744
  385MOL0     H51953   4.629   9.195  -1.506 -0.6717 -0.4492 -2.7550
  385MOL0     H51954   4.776   9.091  -1.531  0.6073 -1.5660  3.8747
  385MOL0     H51955   5.180   8.674  -0.530  1.8608 -0.7285  2.3894
  385MOL0     H51956   5.311   8.728  -0.334  1.0131 -0.3535 -2.0508
  385MOL0     H51957   5.311   8.923   0.044 -1.5941  1.0698  1.4890
  385MOL0     H51958   5.365   8.970   0.269 -0.8651 -0.0895 -0.3568
  385MOL0     H51959   6.208   8.821   1.987  1.9095  1.0044 -1.2974
  385MOL0     H51960   6.244   8.876   2.232 -2.8528 -1.6785 -0.5046
  385MOL0     H51961   6.463   9.443   2.413 -5.2580 -1.2259 -0.7426
  385MOL0     H51962   6.613   9.495   2.576  2.0815 -0.0877 -0.1883
  385MOL0     H51963   6.706   9.529   2.761  1.5139  0.9633  0.8810
  385MOL0     H51964   6.749   9.477   2.921 -0.7369 -2.3322  0.9292
  385MOL0     H51965   6.498   9.524   2.982 -0.9178  2.6043  1.0349
  385MOL0     H51966   6.496   9.580   2.813  1.2707  0.4823 -1.3983
  385MOL0     H51967   6.686   9.738   2.896 -1.3552  0.0830 -0.4300
  385MOL0     H51968   6.666   9.686   3.062 -0.7962  1.2226  2.0462
  385MOL0     H51969   6.522   9.889   3.055 -2.8092 -0.6498  1.9916
  385MOL0     H51970   6.463   9.845   2.892 -1.4158 -1.9021 -0.3263
  385MOL0     H51971   6.174   9.655   3.088 -1.6834  3.4484 -0.9565
  385MOL0     H51972   6.457   9.160   2.822 -0.9459 -2.8714 -1.7002
  385MOL0     H51973   6.225   9.057   2.737  0.2859  0.8358 -1.7048
  385MOL0     H51974   6.184   9.087   2.576 -3.2153 -1.6967  2.9796
  385MOL0     H51975   6.327   8.973   2.608  3.1835  1.0744 -1.4079
  386MOL0     O51976   1.108   6.204   7.919 -0.0067  0.2649  0.4208
  386MOL0     C51977   1.053   6.141   8.008  0.7044  0.1855 -0.3599
  386MOL0     O51978   1.023   6.190   8.134  0.4811  1.0135 -0.7108
  386MOL0     C51979   1.069   6.318   8.162 -0.0605 -0.2417 -0.9025
  386MOL0     C51980   1.195   6.362   8.144  0.2853 -0.6866  1.8288
  386MOL0     C51981   1.237   6.495   8.171 -0.0638  0.3107 -0.3429
  386MOL0     C51982   1.148   6.589   8.224 -0.2515  0.3481  0.7014
  386MOL0     O51983   1.188   6.717   8.242  0.3236  0.1026  0.7285
  386MOL0     C51984   1.102   6.791   8.328 -0.5190  0.8906 -0.2091
  386MOL0     C51985   1.114   6.739   8.485 -0.3479 -0.0532  0.6353
  386MOL0     C51986   1.040   6.836   8.582  1.4701 -0.2147 -1.1274
  386MOL0     C51987   1.104   6.975   8.595 -0.0706 -0.9271  0.0602
  386MOL0     C51988   1.065   7.071   8.697  1.1027 -0.8201 -0.0469
  386MOL0     C51989   0.915   7.105   8.713  1.4879  0.9637  0.0887
  386MOL0     C51990   0.889   7.215   8.826  0.4759  0.2831 -0.2776
  386MOL0     C51991   0.908   7.165   8.967 -0.8630  0.0534  0.2023
  386MOL0     N51992   0.887   7.269   9.067 -0.1799 -1.1000  0.8851
  386MOL0     C51993   0.955   7.387   9.093 -0.9981  0.6288 -0.2473
  386MOL0     C51994   0.885   7.435   9.198 -0.8087 -0.8463  0.2109
  386MOL0     C51995   0.934   7.566   9.253  0.1540  0.2053  0.6618
  386MOL0     C51996   0.844   7.676   9.189  0.2961 -0.2127 -0.8207
  386MOL0     C51997   0.897   7.817   9.200  0.4076  0.8656 -0.0575
  386MOL0     C51998   0.781   7.916   9.213  0.5482 -0.5005 -0.3114
  386MOL0     O51999   0.670   7.893   9.114 -0.4103 -0.2469 -0.4752
  386MOL0     C52000   0.551   7.973   9.115 -0.9214 -0.5075  0.2445
  386MOL0     C52001   0.516   8.073   9.208  0.5287  0.1226 -0.7167
  386MOL0     C52002   0.389   8.134   9.204 -0.4563  0.5104 -0.6999
  386MOL0     C52003   0.296   8.091   9.111 -0.2934  0.3039  0.3840
  386MOL0     C52004   0.162   8.155   9.113  0.1951 -0.0815  1.0273
  386MOL0     O52005   0.152   8.276   9.180 -0.4773  0.8351 -0.1175
  386MOL0     C52006   0.044   8.351   9.181  0.3423 -0.0188 -0.4276
  386MOL0     C52007   0.065   8.485   9.194  0.3552 -1.4647  0.1002
  386MOL0     C52008  -0.046   8.573   9.224 -0.0422 -0.0010 -0.8064
  386MOL0     C52009  -0.176   8.517   9.225  0.2158 -1.2831  0.3672
  386MOL0     O52010  -0.281   8.589   9.260 -0.2104 -0.4840 -0.6095
  386MOL0     C52011  -0.289   8.731   9.233 -0.0426 -0.1159  0.0447
  386MOL0     C52012  -0.435   8.765   9.246 -0.5803  0.8248 -0.0552
  386MOL0     C52013  -0.472   8.900   9.188  0.2100 -0.0766  0.3993
  386MOL0     C52014  -0.622   8.927   9.200 -0.4127 -0.4683  0.8261
  386MOL0     C52015  -0.648   9.045   9.095 -0.0303 -0.4219  0.1410
  386MOL0     C52016  -0.795   9.061   9.054 -0.8094 -0.3874  0.2470
  386MOL0     C52017  -0.837   9.186   8.965 -0.9682 -0.1296 -1.1214
  386MOL0     C52018  -0.983   9.217   8.956  0.5065 -0.3993 -0.7183
  386MOL0    Cl52019  -1.004   9.330   8.818  0.5270  0.3411  0.3129
  386MOL0     C52020  -0.197   8.389   9.201 -0.1839  0.5045 -0.6587
  386MOL0     C52021  -0.091   8.298   9.176  0.0493 -0.6990 -0.2435
  386MOL0     O52022   0.092   8.128   9.020  0.1443  0.8288  0.8028
  386MOL0     C52023   0.325   7.978   9.031  0.4276 -0.3819 -0.4186
  386MOL0     C52024   0.461   7.928   9.027 -0.0973 -0.4512  0.6472
  386MOL0     N52025   0.781   7.352   9.233  0.6796  0.1912 -0.1693
  386MOL0     N52026   0.789   7.252   9.158  0.1030 -0.1852 -0.9397
  386MOL0     C52027   1.016   6.533   8.262  0.3770 -0.0252  0.5439
  386MOL0     C52028   0.980   6.402   8.226 -0.1060  0.3931  0.6540
  386MOL0     C52029   0.988   6.009   7.968 -0.2336 -0.5084 -0.1562
  386MOL0     C52030   0.941   5.921   8.070 -0.4746  0.2055 -0.5734
  386MOL0     C52031   0.908   5.784   8.046  0.3317  0.3515  0.7945
  386MOL0     C52032   0.924   5.729   7.922  1.2370  0.0429  0.5613
  386MOL0     O52033   0.875   5.601   7.903 -0.7904  1.1372  1.0915
  386MOL0     C52034   0.904   5.532   7.779 -0.2290  0.1141  0.0933
  386MOL0     C52035   0.863   5.390   7.790  0.2014  1.5795 -0.3800
  386MOL0     C52036   0.938   5.321   7.907 -0.3666 -0.0857 -0.0767
  386MOL0     C52037   0.931   5.165   7.922 -0.2036 -0.4702  0.3868
  386MOL0     C52038   0.998   5.136   8.049 -0.3367 -0.8167 -1.0336
  386MOL0     C52039   1.058   5.103   8.154 -0.1082 -0.0184  0.6469
  386MOL0     C52040   0.951   5.818   7.825 -0.2917 -0.6289 -0.2197
  386MOL0     C52041   0.987   5.953   7.840  0.5826 -0.0650 -0.4739
  386MOL0     C52042   1.032   6.015   7.712 -0.5199  0.3872  0.6726
  386MOL0     H52043   1.266   6.288   8.107 -0.7186 -1.6349  1.7692
  386MOL0     H52044   1.340   6.528   8.159 -0.3099  1.2390  0.0592
  386MOL0     H52045   1.123   6.899   8.328  1.0816  0.6222 -2.0508
  386MOL0     H52046   0.999   6.778   8.297 -0.0452 -0.7585 -1.1999
  386MOL0     H52047   1.219   6.738   8.515 -0.0189  4.0916  0.2389
  386MOL0     H52048   1.075   6.637   8.494  1.0527 -0.5924  0.9434
  386MOL0     H52049   1.038   6.796   8.684  1.4525 -1.4173 -1.5833
  386MOL0     H52050   0.937   6.844   8.545 -0.2672 -5.9967  1.3610
  386MOL0     H52051   1.211   6.962   8.614  0.2936 -0.6210 -1.6134
  386MOL0     H52052   1.090   7.030   8.502  1.8639  1.8170  1.2641
  386MOL0     H52053   1.104   7.026   8.789  2.9445  0.2209 -0.2648
  386MOL0     H52054   1.139   7.151   8.685  2.5092 -2.2852 -1.7585
  386MOL0     H52055   0.884   7.144   8.616 -2.1211  0.6093  0.9600
  386MOL0     H52056   0.866   7.008   8.729 -1.5807  1.8190 -3.0128
  386MOL0     H52057   0.794   7.270   8.828  0.4371  0.3196  3.0280
  386MOL0     H52058   0.972   7.286   8.823  0.4770  0.5374  2.7744
  386MOL0     H52059   0.837   7.083   8.976  0.6369 -1.3031  0.2111
  386MOL0     H52060   1.011   7.129   8.975 -0.6308  0.9359  1.4255
  386MOL0     H52061   1.027   7.437   9.030 -2.4813 -1.0156 -3.4672
  386MOL0     H52062   0.931   7.569   9.363 -0.0998  0.7362  0.6415
  386MOL0     H52063   1.038   7.582   9.223  0.4549 -0.4929  1.2729
  386MOL0     H52064   0.841   7.651   9.082 -1.2076 -1.5178 -0.5103
  386MOL0     H52065   0.745   7.673   9.235  1.1441 -0.2415  1.0830
  386MOL0     H52066   0.957   7.830   9.110  0.1591 -2.7055 -0.8988
  386MOL0     H52067   0.974   7.820   9.277 -0.7390 -0.3414  1.1773
  386MOL0     H52068   0.824   8.012   9.183 -1.8512  0.5746 -0.5631
  386MOL0     H52069   0.743   7.917   9.316  0.9695 -0.6706 -0.1530
  386MOL0     H52070   0.579   8.101   9.292  0.7339 -3.2201  0.4069
  386MOL0     H52071   0.357   8.202   9.282 -0.3815 -0.6806  0.4046
  386MOL0     H52072   0.167   8.521   9.209  1.0857 -3.8801  1.5273
  386MOL0     H52073  -0.026   8.678   9.241 -0.7861 -0.2245  1.9871
  386MOL0     H52074  -0.241   8.783   9.317 -0.5402 -2.5672  1.9595
  386MOL0     H52075  -0.251   8.746   9.132  0.6065  0.3157  0.3428
  386MOL0     H52076  -0.496   8.689   9.195  1.6155 -0.4362 -0.9297
  386MOL0     H52077  -0.460   8.769   9.352  2.9946  2.0920  0.8820
  386MOL0     H52078  -0.410   8.984   9.219  2.0303 -1.6171  1.1499
  386MOL0     H52079  -0.441   8.888   9.083  0.6288 -0.6652  0.5871
  386MOL0     H52080  -0.659   8.957   9.298  0.8453 -4.0942  2.6011
  386MOL0     H52081  -0.679   8.835   9.185  1.5118 -1.5189 -0.5048
  386MOL0     H52082  -0.587   9.029   9.006 -2.6596 -0.8605 -1.7048
  386MOL0     H52083  -0.620   9.138   9.146  2.5861  0.6836 -3.0192
  386MOL0     H52084  -0.823   8.972   8.998 -1.4183  0.0801 -0.2050
  386MOL0     H52085  -0.856   9.065   9.145 -1.3023 -2.3225  0.0409
  386MOL0     H52086  -0.791   9.164   8.868  2.2881  1.1894 -0.0007
  386MOL0     H52087  -0.783   9.270   9.010  1.8576 -2.1372 -0.4840
  386MOL0     H52088  -1.042   9.125   8.945 -1.5342  0.6514  0.7058
  386MOL0     H52089  -1.018   9.263   9.049  1.0419  1.4233 -1.3882
  386MOL0     H52090  -0.302   8.362   9.207  0.1888 -0.9299  0.0696
  386MOL0     H52091  -0.101   8.192   9.158  2.8800 -0.7169 -2.6304
  386MOL0     H52092   0.244   7.925   8.981 -1.8784  0.3229  2.3155
  386MOL0     H52093   0.483   7.845   8.961  1.1920  0.1405  0.3031
  386MOL0     H52094   0.937   6.596   8.300 -2.5118 -1.0692 -3.0780
  386MOL0     H52095   0.884   6.356   8.247 -0.0475  1.9597  5.4842
  386MOL0     H52096   0.928   5.960   8.171  2.8052 -2.2389  0.9836
  386MOL0     H52097   0.871   5.720   8.126 -1.6568  0.1347 -0.2554
  386MOL0     H52098   1.010   5.535   7.751 -0.5231 -1.4247 -1.3378
  386MOL0     H52099   0.844   5.574   7.698 -0.0643 -2.8459 -1.6887
  386MOL0     H52100   0.889   5.339   7.696  1.4527 -0.8824  1.1936
  386MOL0     H52101   0.755   5.387   7.809 -0.1457 -0.8167 -2.2023
  386MOL0     H52102   0.883   5.350   7.997  1.1244 -3.3825  2.0679
  386MOL0     H52103   1.037   5.365   7.919 -0.6740  0.6479 -0.1750
  386MOL0     H52104   0.828   5.128   7.926 -0.5818  0.4531 -0.4964
  386MOL0     H52105   0.999   5.110   7.856  4.1205  1.1297  3.0528
  386MOL0     H52106   1.101   5.068   8.246  1.8438  0.7348  0.0560
  386MOL0     H52107   0.956   5.780   7.723  0.1203  1.3486 -0.9676
  386MOL0     H52108   1.139   5.996   7.700 -0.6850  0.2068 -0.5545
  386MOL0     H52109   0.994   5.960   7.626  1.1946  1.3548 -0.7631
  386MOL0     H52110   1.014   6.122   7.697  2.8793  0.9495 -0.1713
  387MOL0     O52111   0.126  10.481  10.645 -0.8553 -0.0861 -0.1187
  387MOL0     C52112   0.106  10.573  10.566  0.0719  0.6179 -0.4358
  387MOL0     O52113   0.184  10.601  10.456 -0.5265 -0.2487 -0.3938
  387MOL0     C52114   0.267  10.507  10.401 -0.2063  0.4668  0.0117
  387MOL0     C52115   0.398  10.504  10.439 -0.7923  0.5519 -0.4176
  387MOL0     C52116   0.480  10.385  10.423  0.2904 -0.0933  0.1961
  387MOL0     C52117   0.423  10.279  10.351 -0.0252 -0.1795  0.5175
  387MOL0     O52118   0.499  10.171  10.325 -0.2799 -0.3362 -0.1439
  387MOL0     C52119   0.445  10.043  10.308 -0.0960  0.1120  0.1201
  387MOL0     C52120   0.554   9.945  10.329 -0.1160 -0.6046 -0.0842
  387MOL0     C52121   0.688   9.967  10.254 -0.9093  0.4484 -0.8139
  387MOL0     C52122   0.787   9.854  10.287 -0.6934 -0.0573 -0.0697
  387MOL0     C52123   0.913   9.860  10.197  0.3917 -0.3422  0.3464
  387MOL0     C52124   0.877   9.801  10.059  0.2566 -0.1112 -0.1795
  387MOL0     C52125   1.003   9.801   9.970  0.7682 -0.2922  0.5269
  387MOL0     C52126   1.028   9.920   9.878 -0.6896 -0.7807  0.7582
  387MOL0     N52127   1.138   9.891   9.784  0.1477 -0.2344 -0.0277
  387MOL0     C52128   1.132   9.805   9.673 -0.6573  0.1657 -0.1889
  387MOL0     C52129   1.257   9.808   9.627  0.8686  0.4500 -0.4394
  387MOL0     C52130   1.294   9.729   9.498 -1.1792 -0.9105 -0.4669
  387MOL0     C52131   1.332   9.583   9.545  0.3750 -0.3262 -0.9764
  387MOL0     C52132   1.400   9.514   9.434 -0.1064 -0.9037  0.5158
  387MOL0     C52133   1.411   9.365   9.445  0.0298 -0.5576 -0.1256
  387MOL0     O52134   1.531   9.340   9.511 -0.0974  0.1627 -0.2736
  387MOL0     C52135   1.557   9.200   9.529  0.0865 -0.4182  1.0549
  387MOL0     C52136   1.676   9.170   9.589  0.9286 -0.8783  0.8692
  387MOL0     C52137   1.730   9.041   9.602 -0.5905  0.1299  0.5379
  387MOL0     C52138   1.663   8.932   9.541 -1.5634 -0.0189 -0.1694
  387MOL0     C52139   1.727   8.796   9.554 -1.5815  0.4542  0.7360
  387MOL0     O52140   1.637   8.694   9.555  0.4798  0.0506  0.3985
  387MOL0     C52141   1.675   8.563   9.539  0.2154  0.3658  0.6975
  387MOL0     C52142   1.794   8.517   9.477  0.2819 -0.0445 -0.3952
  387MOL0     C52143   1.815   8.377   9.445 -0.4128  0.2394 -0.7404
  387MOL0     C52144   1.719   8.290   9.501 -1.2775 -0.2357  0.3692
  387MOL0     O52145   1.727   8.158   9.489  0.7068 -0.6910  0.0496
  387MOL0     C52146   1.836   8.087   9.534  0.6596 -0.0526 -0.1137
  387MOL0     C52147   1.769   7.950   9.554 -1.1950  0.0061 -0.2054
  387MOL0     C52148   1.879   7.846   9.590  0.5891  0.0886 -0.1686
  387MOL0     C52149   1.838   7.716   9.642  0.5355  0.2263  0.1015
  387MOL0     C52150   1.951   7.621   9.702 -0.4147  0.1724  0.5677
  387MOL0     C52151   1.951   7.645   9.852 -0.9678  0.2776 -0.8496
  387MOL0     C52152   1.830   7.578   9.922 -0.2934 -0.0633  0.1833
  387MOL0     C52153   1.783   7.662  10.042  0.4515  0.4007 -0.1356
  387MOL0    Cl52154   1.919   7.674  10.155 -0.2569  0.0269  0.2866
  387MOL0     C52155   1.602   8.329   9.552  0.8091 -1.1731 -0.6821
  387MOL0     C52156   1.579   8.470   9.572 -0.1205  0.2451  0.5414
  387MOL0     O52157   1.848   8.787   9.560 -0.1460 -0.5461  0.1411
  387MOL0     C52158   1.539   8.962   9.484  0.2467  0.1122 -0.2365
  387MOL0     C52159   1.488   9.095   9.470 -0.0636  0.2115 -0.3390
  387MOL0     N52160   1.331   9.876   9.711  0.3453  0.2180 -0.9584
  387MOL0     N52161   1.260   9.932   9.809 -0.9699  0.7888  0.3919
  387MOL0     C52162   0.293  10.294  10.294  0.0328  0.2003 -0.3760
  387MOL0     C52163   0.217  10.406  10.318  0.5920  0.1657  0.3726
  387MOL0     C52164  -0.010  10.662  10.575 -0.2788 -0.5603 -0.9279
  387MOL0     C52165  -0.008  10.775  10.486 -0.0078 -0.4970 -0.8248
  387MOL0     C52166  -0.100  10.877  10.486 -1.2467 -0.3479  0.0013
  387MOL0     C52167  -0.214  10.856  10.574  1.3798  0.3012  0.5794
  387MOL0     O52168  -0.311  10.955  10.565 -0.0127  1.3643  0.2694
  387MOL0     C52169  -0.371  10.996  10.692  0.5429 -1.1067 -0.0926
  387MOL0     C52170  -0.346  11.149  10.695 -0.2088  0.2385  0.1673
  387MOL0     C52171  -0.390  11.236  10.570 -0.2819 -0.2817  0.3427
  387MOL0     C52172  -0.541  11.246  10.551  0.8690  0.7610  0.2567
  387MOL0     C52173  -0.590  11.366  10.487  0.5937 -0.0273 -0.4172
  387MOL0     C52174  -0.621  11.479  10.451 -0.0390 -0.2042 -0.5422
  387MOL0     C52175  -0.220  10.744  10.651  0.2414  0.3445 -0.1909
  387MOL0     C52176  -0.120  10.646  10.660  0.5598  0.5359  0.0265
  387MOL0     C52177  -0.142  10.526  10.749 -0.0738  0.5381 -0.1528
  387MOL0     H52178   0.440  10.580  10.504 -2.1986  0.1743  0.9690
  387MOL0     H52179   0.580  10.377  10.463 -0.0524 -2.8602  0.7504
  387MOL0     H52180   0.366  10.016  10.379  1.5364 -2.5249  1.1099
  387MOL0     H52181   0.416  10.031  10.203  1.8113 -3.1162 -0.1723
  387MOL0     H52182   0.525   9.846  10.294 -1.1109 -0.1499 -0.5865
  387MOL0     H52183   0.592   9.937  10.431 -0.6226 -2.2368 -0.0114
  387MOL0     H52184   0.738  10.061  10.281 -0.0092 -0.0303 -0.7677
  387MOL0     H52185   0.670   9.959  10.146 -2.9343 -1.8099 -0.3856
  387MOL0     H52186   0.828   9.867  10.388 -0.3588 -1.7049  0.0224
  387MOL0     H52187   0.728   9.762  10.292 -3.2570  1.4229 -1.0862
  387MOL0     H52188   0.952   9.962  10.187 -0.3715 -0.2179 -1.5757
  387MOL0     H52189   0.993   9.801  10.244 -1.2769 -3.2537 -0.2807
  387MOL0     H52190   0.840   9.698  10.059 -0.8472  0.2655 -0.1039
  387MOL0     H52191   0.796   9.858  10.013  2.8129  1.1534 -3.4595
  387MOL0     H52192   0.995   9.719   9.898 -3.6950  1.3667 -1.1859
  387MOL0     H52193   1.099   9.788  10.021  1.6861 -2.7093 -1.5906
  387MOL0     H52194   0.948   9.946   9.809 -0.5840 -1.6014  0.3161
  387MOL0     H52195   1.046  10.011   9.936  1.7898  1.5223 -3.1799
  387MOL0     H52196   1.048   9.748   9.636 -0.7304 -0.5158  0.9724
  387MOL0     H52197   1.214   9.722   9.423 -0.3297 -0.7639 -1.4060
  387MOL0     H52198   1.386   9.771   9.457 -1.2760 -0.7978 -0.5694
  387MOL0     H52199   1.402   9.585   9.629  1.1047  2.1684 -1.5786
  387MOL0     H52200   1.247   9.531   9.589 -0.5557  0.4881 -1.7599
  387MOL0     H52201   1.489   9.562   9.393  0.7742 -1.4778  1.6830
  387MOL0     H52202   1.327   9.524   9.354 -1.8290 -1.2038  1.9746
  387MOL0     H52203   1.424   9.321   9.347  0.6688  0.6647 -0.6114
  387MOL0     H52204   1.323   9.329   9.500  0.4867  1.3412  2.0275
  387MOL0     H52205   1.732   9.248   9.640  0.7448  0.4593 -0.8582
  387MOL0     H52206   1.828   9.020   9.644 -1.2589 -0.4381  1.8884
  387MOL0     H52207   1.875   8.583   9.446 -1.1924  2.5355  0.8600
  387MOL0     H52208   1.903   8.337   9.395 -2.0917 -2.5933 -1.7005
  387MOL0     H52209   1.904   8.081   9.449  0.9757 -0.4046  0.1606
  387MOL0     H52210   1.888   8.129   9.621 -2.5572  1.2043  1.3644
  387MOL0     H52211   1.710   7.946   9.647 -1.5779  1.1955 -0.3903
  387MOL0     H52212   1.705   7.923   9.470 -1.9869  2.1521 -0.3347
  387MOL0     H52213   1.933   7.821   9.498  0.1081 -1.5974 -0.0334
  387MOL0     H52214   1.943   7.898   9.662  1.4068 -0.8110 -0.2312
  387MOL0     H52215   1.791   7.668   9.556  0.5517 -1.3318  0.9272
  387MOL0     H52216   1.754   7.721   9.713  1.6270 -3.0026  1.8398
  387MOL0     H52217   2.048   7.629   9.651 -0.4581 -0.8538  0.3014
  387MOL0     H52218   1.919   7.517   9.693  0.1584 -0.0627  1.1637
  387MOL0     H52219   2.049   7.611   9.888 -0.9360  1.5600  0.3723
  387MOL0     H52220   1.945   7.754   9.855 -1.9085  0.2863 -2.3012
  387MOL0     H52221   1.859   7.479   9.958 -0.9891 -0.0308  0.8727
  387MOL0     H52222   1.748   7.548   9.856  0.2077  0.1349 -0.5424
  387MOL0     H52223   1.747   7.758  10.005 -1.2724 -1.1021 -2.6795
  387MOL0     H52224   1.701   7.626  10.104 -0.7080  0.9347 -1.3176
  387MOL0     H52225   1.529   8.262   9.598  0.8979 -1.0657 -0.3857
  387MOL0     H52226   1.487   8.500   9.621 -1.5247 -2.7277 -0.0443
  387MOL0     H52227   1.479   8.887   9.433 -0.7886  3.0295 -3.6570
  387MOL0     H52228   1.402   9.113   9.407  1.2103  0.6593 -2.0129
  387MOL0     H52229   0.247  10.214  10.236  0.7078  0.9342 -1.9972
  387MOL0     H52230   0.120  10.408  10.270 -0.6784  0.7807  2.8177
  387MOL0     H52231   0.076  10.789  10.419  1.2049 -0.6867  0.6114
  387MOL0     H52232  -0.093  10.971  10.432  2.7554  1.3092  2.8943
  387MOL0     H52233  -0.327  10.956  10.784 -0.9256  0.5670  1.4228
  387MOL0     H52234  -0.476  10.964  10.697  0.9236 -2.4645 -0.4488
  387MOL0     H52235  -0.243  11.164  10.729  0.2310 -0.3437 -0.8745
  387MOL0     H52236  -0.398  11.183  10.785  0.0904  0.6964  0.1671
  387MOL0     H52237  -0.335  11.196  10.485 -2.7714  2.0007 -2.5526
  387MOL0     H52238  -0.352  11.337  10.588  0.0383 -0.6780  2.1350
  387MOL0     H52239  -0.545  11.155  10.492 -2.1362  0.0397  1.4057
  387MOL0     H52240  -0.600  11.229  10.641 -3.0240 -0.7700 -2.3424
  387MOL0     H52241  -0.654  11.575  10.417 -0.7387 -1.2590 -3.0509
  387MOL0     H52242  -0.308  10.729  10.712  1.3667 -0.5486  1.2663
  387MOL0     H52243  -0.137  10.428  10.701 -3.6221 -0.6024  1.4422
  387MOL0     H52244  -0.077  10.525  10.837  0.5598  0.2452 -0.6142
  387MOL0     H52245  -0.247  10.537  10.779 -0.1493 -0.6897  0.0881
  388MOL0     O52246   6.581   8.095  11.505 -0.4287 -0.8024 -0.2861
  388MOL0     C52247   6.569   8.095  11.629  0.6332  0.4972 -0.2005
  388MOL0     O52248   6.502   8.204  11.698 -0.4742 -0.2130 -0.5721
  388MOL0     C52249   6.436   8.305  11.629 -0.5514 -0.5231 -0.1560
  388MOL0     C52250   6.489   8.431  11.626 -0.1925 -0.4492  1.5713
  388MOL0     C52251   6.418   8.531  11.553 -0.0516 -0.3668 -1.4868
  388MOL0     C52252   6.288   8.497  11.506 -0.1983  0.2891  0.2557
  388MOL0     O52253   6.214   8.597  11.458 -0.4068 -0.1075  0.4744
  388MOL0     C52254   6.062   8.597  11.464 -1.0190  0.4603  0.6476
  388MOL0     C52255   5.997   8.730  11.404  0.2359  0.0489  0.8429
  388MOL0     C52256   5.843   8.718  11.394  1.0566  0.2401 -0.1841
  388MOL0     C52257   5.795   8.827  11.302 -1.0163 -1.0381  0.4523
  388MOL0     C52258   5.663   8.792  11.240  0.0563  0.7040 -0.6229
  388MOL0     C52259   5.683   8.686  11.119 -0.7543  0.2062  0.3777
  388MOL0     C52260   5.567   8.681  11.020 -0.0491 -0.1528  0.0942
  388MOL0     C52261   5.603   8.578  10.904  0.0532  0.2754  0.8116
  388MOL0     N52262   5.495   8.573  10.803 -0.1674 -0.5017  0.5277
  388MOL0     C52263   5.379   8.651  10.793 -0.4188 -0.7739  0.1517
  388MOL0     C52264   5.305   8.587  10.702  0.1832 -1.0141  0.1009
  388MOL0     C52265   5.174   8.639  10.657  0.1143 -0.0301 -0.5045
  388MOL0     C52266   5.195   8.700  10.518  0.3350  0.8228  0.7631
  388MOL0     C52267   5.063   8.687  10.419 -0.8494  1.0595 -1.4649
  388MOL0     C52268   5.105   8.710  10.274 -1.3025 -0.5706  0.1902
  388MOL0     O52269   4.987   8.748  10.197 -0.3294 -0.4812  0.1267
  388MOL0     C52270   4.975   8.724  10.060 -0.2111  0.3063  0.5412
  388MOL0     C52271   4.842   8.753  10.011 -1.0354  0.7754 -0.1293
  388MOL0     C52272   4.812   8.730   9.882  0.2861  0.1877  0.4678
  388MOL0     C52273   4.905   8.685   9.788  0.1114  0.2499 -0.6519
  388MOL0     C52274   4.849   8.638   9.663 -0.3451 -0.6867  0.1629
  388MOL0     O52275   4.938   8.623   9.571 -0.0175 -0.5142  0.1670
  388MOL0     C52276   4.916   8.579   9.444 -0.4640  1.1204 -0.1360
  388MOL0     C52277   4.794   8.585   9.368 -0.0784 -0.0697  0.6450
  388MOL0     C52278   4.782   8.543   9.235 -1.1429 -0.4020 -0.6942
  388MOL0     C52279   4.909   8.500   9.174  0.4540 -0.4480  0.5028
  388MOL0     O52280   4.918   8.450   9.043 -0.2932  0.2213 -0.6326
  388MOL0     C52281   4.811   8.467   8.961  0.2005 -0.3791 -0.2219
  388MOL0     C52282   4.858   8.511   8.821  0.2364 -0.9031 -0.3121
  388MOL0     C52283   4.930   8.644   8.820 -0.2658 -0.7601  0.1671
  388MOL0     C52284   4.945   8.686   8.674 -0.6452 -0.2798 -0.1329
  388MOL0     C52285   5.016   8.824   8.676 -0.0196  0.2389  0.2739
  388MOL0     C52286   5.170   8.824   8.706 -0.6454  0.2603 -0.9196
  388MOL0     C52287   5.228   8.966   8.746  0.7622  0.5787 -0.1468
  388MOL0     C52288   5.377   8.959   8.769  0.1474  1.7234  0.3676
  388MOL0    Cl52289   5.465   8.860   8.660  0.5418 -0.4421  0.1009
  388MOL0     C52290   5.027   8.499   9.246 -0.4834  0.1869 -0.2115
  388MOL0     C52291   5.023   8.531   9.371  0.1530 -0.4402 -0.9928
  388MOL0     O52292   4.728   8.623   9.648 -0.1061 -0.5918  0.1192
  388MOL0     C52293   5.031   8.648   9.833  0.5729  0.3539  0.4985
  388MOL0     C52294   5.070   8.674   9.967 -0.0751  0.3947  0.4483
  388MOL0     N52295   5.372   8.472  10.652  0.9712  0.4833 -0.3444
  388MOL0     N52296   5.486   8.469  10.713 -0.3866  0.0412  0.7066
  388MOL0     C52297   6.243   8.368  11.505  0.8441  0.3613 -0.2106
  388MOL0     C52298   6.315   8.271  11.563  0.0712  0.7913  0.5115
  388MOL0     C52299   6.626   7.980  11.708  0.5004 -0.6424 -0.2132
  388MOL0     C52300   6.552   7.942  11.825 -0.5329 -0.4328  1.0552
  388MOL0     C52301   6.593   7.828  11.890  0.1864  0.5289 -0.9176
  388MOL0     C52302   6.688   7.742  11.848  0.3428  0.7166 -0.7975
  388MOL0     O52303   6.694   7.625  11.923  0.4060  0.3253 -0.3438
  388MOL0     C52304   6.786   7.524  11.898 -0.7682  1.1013 -0.0929
  388MOL0     C52305   6.773   7.423  12.009  1.0859  0.1701 -0.1406
  388MOL0     C52306   6.881   7.311  11.984  0.0615 -0.0132 -0.5154
  388MOL0     C52307   6.865   7.217  12.101  0.1283  0.3661  0.2946
  388MOL0     C52308   6.858   7.274  12.234 -1.0127 -1.2532  0.7903
  388MOL0     C52309   6.880   7.307  12.349  0.8114 -0.7785  0.4249
  388MOL0     C52310   6.761   7.782  11.738 -0.4017 -0.3566 -0.2155
  388MOL0     C52311   6.732   7.899  11.661  0.7375  0.6785  0.4876
  388MOL0     C52312   6.812   7.915  11.536 -0.0238  0.1530 -0.1704
  388MOL0     H52313   6.588   8.452  11.664  0.5548 -0.4990 -0.2427
  388MOL0     H52314   6.452   8.634  11.547 -2.7223  1.0301  2.7045
  388MOL0     H52315   6.029   8.505  11.415 -1.7837  1.2978 -0.4565
  388MOL0     H52316   6.035   8.597  11.569  2.7855  0.9973  1.7905
  388MOL0     H52317   6.044   8.751  11.307 -0.1984  0.8254  0.7961
  388MOL0     H52318   6.018   8.816  11.467 -1.9308  1.5829 -0.4086
  388MOL0     H52319   5.790   8.709  11.489  2.9281  2.5225  1.1859
  388MOL0     H52320   5.813   8.622  11.352  0.7551 -1.2384  3.1364
  388MOL0     H52321   5.778   8.917  11.362  2.0002 -0.8231  1.1073
  388MOL0     H52322   5.870   8.864  11.231 -2.1749 -1.7642 -1.2135
  388MOL0     H52323   5.600   8.743  11.315  1.0229  1.0157  0.4301
  388MOL0     H52324   5.615   8.881  11.199  0.9626  1.0528 -0.9746
  388MOL0     H52325   5.769   8.718  11.059 -0.1161  0.4850  1.4269
  388MOL0     H52326   5.710   8.585  11.151  0.8404  0.3169 -0.5328
  388MOL0     H52327   5.565   8.783  10.982 -1.8395  0.8098  2.5119
  388MOL0     H52328   5.474   8.654  11.070  0.5558 -0.5880  1.0236
  388MOL0     H52329   5.705   8.580  10.863 -0.3674 -2.0901 -0.5047
  388MOL0     H52330   5.609   8.480  10.951  0.4007  0.3150  0.8576
  388MOL0     H52331   5.354   8.747  10.835 -2.5998 -0.9222 -0.6929
  388MOL0     H52332   5.102   8.558  10.664  3.3808 -3.0805  2.0050
  388MOL0     H52333   5.119   8.712  10.717 -1.7094 -1.7585  0.0062
  388MOL0     H52334   5.202   8.809  10.528  0.1572  0.9307 -0.2437
  388MOL0     H52335   5.273   8.653  10.458 -1.4743 -0.6354 -0.5644
  388MOL0     H52336   4.996   8.767  10.452 -0.0316  0.8843  0.8246
  388MOL0     H52337   5.020   8.586  10.427 -2.7737  1.9646  1.1635
  388MOL0     H52338   5.159   8.622  10.239  1.6110  1.4535 -0.8021
  388MOL0     H52339   5.183   8.787  10.269 -0.8370 -1.0344  0.2396
  388MOL0     H52340   4.763   8.785  10.078 -2.0340 -0.2114 -0.7966
  388MOL0     H52341   4.706   8.747   9.867 -0.5688 -2.0912  3.1682
  388MOL0     H52342   4.705   8.633   9.408  0.3763  0.6348  0.8320
  388MOL0     H52343   4.687   8.513   9.192 -1.2388 -1.8675  0.4486
  388MOL0     H52344   4.765   8.368   8.966  2.8480 -1.6432  4.1700
  388MOL0     H52345   4.741   8.544   8.996  0.6847 -0.1754  0.3049
  388MOL0     H52346   4.906   8.430   8.765 -3.5469 -1.2735 -3.4065
  388MOL0     H52347   4.763   8.522   8.768  0.2506 -1.3885 -0.4446
  388MOL0     H52348   4.864   8.714   8.872 -0.6299 -0.8890 -0.1128
  388MOL0     H52349   5.023   8.646   8.877  2.1152  0.7305 -3.4284
  388MOL0     H52350   4.845   8.706   8.634 -1.2308 -0.6851  1.0731
  388MOL0     H52351   4.999   8.619   8.607 -1.2530 -0.4858 -0.4227
  388MOL0     H52352   4.957   8.877   8.752 -2.0734 -1.8135  0.2531
  388MOL0     H52353   4.996   8.875   8.581 -0.3166  0.7839  0.6245
  388MOL0     H52354   5.202   8.758   8.787  0.8892 -0.1305 -1.8055
  388MOL0     H52355   5.215   8.780   8.617  3.1609 -0.9119  1.3468
  388MOL0     H52356   5.178   8.988   8.840 -0.4182  0.0201 -0.6181
  388MOL0     H52357   5.194   9.038   8.672 -1.1257  0.2144  0.3212
  388MOL0     H52358   5.414   9.061   8.760  0.6193  1.7637  2.2193
  388MOL0     H52359   5.399   8.917   8.868  1.2302  0.0593 -0.5118
  388MOL0     H52360   5.115   8.469   9.190 -0.0260 -1.0965  1.1270
  388MOL0     H52361   5.118   8.535   9.423  1.9136  1.4508 -3.9896
  388MOL0     H52362   5.108   8.611   9.766 -0.4216 -0.6095 -0.1402
  388MOL0     H52363   5.172   8.653   9.998 -0.1772  0.1270  0.6155
  388MOL0     H52364   6.143   8.343  11.470  0.2412  0.5336  1.3300
  388MOL0     H52365   6.276   8.170  11.559 -0.3936  1.0023 -0.7967
  388MOL0     H52366   6.468   8.001  11.858 -1.7750 -2.0683  0.9428
  388MOL0     H52367   6.540   7.804  11.982 -1.2287  0.0298 -1.8263
  388MOL0     H52368   6.891   7.554  11.897 -0.5086  0.4197  2.1188
  388MOL0     H52369   6.762   7.466  11.808  3.2947 -0.0042 -0.6730
  388MOL0     H52370   6.671   7.385  12.013  0.2873  1.9946  5.0447
  388MOL0     H52371   6.775   7.473  12.107 -1.7766 -1.1619  0.7082
  388MOL0     H52372   6.978   7.362  11.990 -0.1788  0.2781  2.2952
  388MOL0     H52373   6.865   7.272  11.883 -1.3774  1.3030 -0.8484
  388MOL0     H52374   6.777   7.154  12.084 -0.9170  0.9674  3.0292
  388MOL0     H52375   6.952   7.151  12.090 -1.5187 -1.6083 -2.2411
  388MOL0     H52376   6.887   7.326  12.454 -1.7863 -2.8563  1.0626
  388MOL0     H52377   6.825   7.709  11.690  0.6931 -0.4044  1.2662
  388MOL0     H52378   6.802   8.003  11.470  0.1002 -0.4208 -0.9719
  388MOL0     H52379   6.918   7.898  11.558 -0.3244  1.0389  2.2116
  388MOL0     H52380   6.786   7.834  11.467 -1.0624  0.7410 -0.4851
  389MOL0     O52381   0.662   5.426   4.522 -0.6275 -0.6298 -0.0331
  389MOL0     C52382   0.619   5.332   4.454 -0.3296 -0.8480  0.0138
  389MOL0     O52383   0.534   5.348   4.344 -0.7834 -0.4637  0.4410
  389MOL0     C52384   0.479   5.464   4.313  0.5791 -0.5311 -0.7841
  389MOL0     C52385   0.411   5.536   4.408 -1.0677 -1.6647  0.7281
  389MOL0     C52386   0.367   5.672   4.379  0.0429  0.3989 -0.6651
  389MOL0     C52387   0.365   5.712   4.245 -0.4608  0.1049 -0.8201
  389MOL0     O52388   0.304   5.830   4.209 -0.8124  0.2869  0.1521
  389MOL0     C52389   0.233   5.851   4.081 -1.3608  0.5256 -0.3848
  389MOL0     C52390   0.124   5.748   4.060  0.7056 -0.1701 -0.1215
  389MOL0     C52391   0.022   5.798   3.966  0.1561 -0.9107  0.2134
  389MOL0     C52392   0.079   5.820   3.829 -0.7237  0.0850 -0.0372
  389MOL0     C52393  -0.012   5.915   3.754  0.3962  0.4684  0.3014
  389MOL0     C52394  -0.128   5.848   3.682  1.2136  0.0020 -0.2544
  389MOL0     C52395  -0.236   5.943   3.646 -1.1468  0.6742  0.5634
  389MOL0     C52396  -0.188   6.013   3.513  0.0784  0.1244 -0.1199
  389MOL0     N52397  -0.305   6.068   3.429  0.4259  0.2457  0.2058
  389MOL0     C52398  -0.420   6.139   3.469  0.9696 -0.7314  0.3255
  389MOL0     C52399  -0.493   6.144   3.350 -1.1204 -0.1496  0.3835
  389MOL0     C52400  -0.627   6.199   3.327  0.4824 -1.3661  0.4364
  389MOL0     C52401  -0.603   6.347   3.286 -0.2876  0.1708 -0.3895
  389MOL0     C52402  -0.742   6.390   3.247 -0.4446 -0.9455  1.0990
  389MOL0     C52403  -0.810   6.455   3.367  0.3138  0.6181  0.7555
  389MOL0     O52404  -0.906   6.545   3.324  0.1780  0.5030 -0.2986
  389MOL0     C52405  -0.951   6.638   3.408  0.2112  0.8377  1.0704
  389MOL0     C52406  -1.045   6.718   3.348 -0.0569  0.2877 -0.8040
  389MOL0     C52407  -1.104   6.824   3.420  0.6909  0.6794  0.4835
  389MOL0     C52408  -1.055   6.849   3.554 -0.3078 -0.0730 -0.2061
  389MOL0     C52409  -1.127   6.952   3.633  0.3773  0.6023  0.9454
  389MOL0     O52410  -1.112   6.957   3.768  0.1287  0.2630 -0.5330
  389MOL0     C52411  -1.190   7.042   3.831 -0.5597 -0.8619 -0.3683
  389MOL0     C52412  -1.332   7.030   3.829  0.7340  0.4688  0.0118
  389MOL0     C52413  -1.413   7.132   3.899  0.6831 -0.4263 -1.0717
  389MOL0     C52414  -1.357   7.247   3.953 -0.5738 -0.2879  0.2186
  389MOL0     O52415  -1.447   7.348   3.987 -0.0036 -0.6906 -0.0949
  389MOL0     C52416  -1.396   7.433   4.092  0.1177  0.2020  0.3180
  389MOL0     C52417  -1.493   7.509   4.173  0.8344 -0.1527  0.2701
  389MOL0     C52418  -1.425   7.587   4.286  0.1664 -0.3458 -0.5692
  389MOL0     C52419  -1.528   7.677   4.360  1.2474  0.6579  0.2430
  389MOL0     C52420  -1.446   7.738   4.476 -0.5341 -0.1582 -0.9147
  389MOL0     C52421  -1.505   7.865   4.540  0.4703 -0.4340 -0.8276
  389MOL0     C52422  -1.409   7.956   4.622  0.3574 -0.2148  0.3717
  389MOL0     C52423  -1.444   8.110   4.608  1.0306 -0.6201  0.4475
  389MOL0    Cl52424  -1.305   8.199   4.675 -0.6037 -0.5810  0.5016
  389MOL0     C52425  -1.219   7.261   3.936 -0.4854  0.1812  0.6952
  389MOL0     C52426  -1.136   7.162   3.882 -0.1305 -0.7570 -0.0538
  389MOL0     O52427  -1.189   7.034   3.570  0.0322  0.3178 -0.1455
  389MOL0     C52428  -0.958   6.771   3.611  0.6478 -0.7854 -0.4993
  389MOL0     C52429  -0.919   6.662   3.538  0.2327 -0.0038 -0.2244
  389MOL0     N52430  -0.427   6.076   3.257  0.6176 -0.0800 -0.1782
  389MOL0     N52431  -0.324   6.019   3.301 -0.1859  0.3477 -0.5697
  389MOL0     C52432   0.420   5.622   4.146  0.8228 -0.6406 -0.0594
  389MOL0     C52433   0.484   5.506   4.183 -0.4926 -0.9358 -0.1484
  389MOL0     C52434   0.682   5.194   4.481  1.0835 -1.1237  0.3338
  389MOL0     C52435   0.658   5.100   4.382 -0.2958  0.6531 -0.1875
  389MOL0     C52436   0.679   4.966   4.400  0.3289 -0.2631 -0.2734
  389MOL0     C52437   0.736   4.918   4.517 -0.1891  0.3250  0.2899
  389MOL0     O52438   0.787   4.793   4.540 -0.5464 -0.1909  0.1301
  389MOL0     C52439   0.723   4.685   4.469 -0.0418 -0.2915  0.3169
  389MOL0     C52440   0.833   4.619   4.369 -0.0687 -0.0585  0.1143
  389MOL0     C52441   0.778   4.594   4.228  0.3810  0.0422 -0.6059
  389MOL0     C52442   0.876   4.517   4.131  0.1330  0.1619 -0.6618
  389MOL0     C52443   1.006   4.591   4.126 -0.1009  0.3504  0.2497
  389MOL0     C52444   1.109   4.663   4.137  0.4755 -0.2177  0.3782
  389MOL0     C52445   0.764   5.014   4.617 -0.1165 -0.7503 -0.2886
  389MOL0     C52446   0.736   5.148   4.604  0.3741  0.6225  0.0355
  389MOL0     C52447   0.758   5.230   4.719 -0.0231  0.3432 -0.0003
  389MOL0     H52448   0.408   5.505   4.512  0.1846 -0.5259  1.1268
  389MOL0     H52449   0.314   5.736   4.449  0.7902 -0.7280  0.9847
  389MOL0     H52450   0.196   5.954   4.085 -0.4624  0.8844  4.1448
  389MOL0     H52451   0.289   5.832   3.989 -0.7964  0.9027 -0.1173
  389MOL0     H52452   0.081   5.726   4.159  0.4373 -1.5206 -0.5186
  389MOL0     H52453   0.166   5.654   4.024  0.4697  0.3234 -1.7821
  389MOL0     H52454   0.000   5.900   4.001  1.2078 -1.0584  1.3647
  389MOL0     H52455  -0.069   5.737   3.971 -0.2294 -0.3446  4.6571
  389MOL0     H52456   0.175   5.872   3.832 -1.5482  1.6393  0.0991
  389MOL0     H52457   0.095   5.725   3.776 -1.7760 -0.2315  0.1896
  389MOL0     H52458  -0.031   6.004   3.814  3.5102 -0.6489  3.3141
  389MOL0     H52459   0.039   5.965   3.671 -1.5847 -1.3888 -2.1644
  389MOL0     H52460  -0.096   5.806   3.587 -1.3272 -0.3695 -1.0156
  389MOL0     H52461  -0.158   5.766   3.749  1.6028  0.7882  0.9179
  389MOL0     H52462  -0.266   6.014   3.724 -1.5615 -0.5882  1.5933
  389MOL0     H52463  -0.332   5.891   3.631 -0.7680  0.3844 -1.0962
  389MOL0     H52464  -0.116   6.090   3.542  0.7808  0.1621 -1.8522
  389MOL0     H52465  -0.130   5.952   3.443 -2.3960 -0.6057 -1.6732
  389MOL0     H52466  -0.451   6.181   3.564  1.3147  1.1401 -0.3347
  389MOL0     H52467  -0.683   6.149   3.247 -1.2599 -0.9469  1.3454
  389MOL0     H52468  -0.690   6.206   3.416  0.1849  1.5706  0.0999
  389MOL0     H52469  -0.558   6.407   3.366 -1.7307  1.4519 -0.5048
  389MOL0     H52470  -0.532   6.362   3.204 -2.2301  3.2542 -1.6738
  389MOL0     H52471  -0.801   6.317   3.190 -0.2134  0.3371 -0.9017
  389MOL0     H52472  -0.727   6.472   3.176 -2.9132 -1.1353  0.2485
  389MOL0     H52473  -0.744   6.520   3.427 -0.1144  0.4692  1.4027
  389MOL0     H52474  -0.856   6.383   3.435 -0.6980  1.5809  1.1310
  389MOL0     H52475  -1.086   6.707   3.249 -1.0924  0.1502 -0.3729
  389MOL0     H52476  -1.172   6.897   3.377 -1.2618 -0.0972  2.1197
  389MOL0     H52477  -1.370   6.940   3.783  0.6669  0.3219  0.3469
  389MOL0     H52478  -1.519   7.109   3.905  0.9689 -1.8529 -0.8956
  389MOL0     H52479  -1.349   7.363   4.162 -0.2281  1.6854  2.0936
  389MOL0     H52480  -1.325   7.501   4.046 -1.8872  0.7230 -2.2997
  389MOL0     H52481  -1.539   7.580   4.104 -0.0968 -1.5436 -0.5913
  389MOL0     H52482  -1.569   7.434   4.199  2.8131 -2.8077 -1.0666
  389MOL0     H52483  -1.379   7.524   4.363  1.8607  2.1795  0.6122
  389MOL0     H52484  -1.346   7.642   4.234  1.7352 -0.2053  1.8335
  389MOL0     H52485  -1.617   7.626   4.399  1.9819 -2.1819 -1.4388
  389MOL0     H52486  -1.567   7.743   4.283  0.6760  0.4801  0.3764
  389MOL0     H52487  -1.345   7.767   4.445 -0.5073 -0.6548 -1.3026
  389MOL0     H52488  -1.430   7.663   4.553 -1.3356  2.3425  1.8563
  389MOL0     H52489  -1.552   7.923   4.459  2.2359 -1.1681 -2.4647
  389MOL0     H52490  -1.589   7.843   4.606  1.5534  0.4969  0.9311
  389MOL0     H52491  -1.307   7.936   4.588 -0.0109 -2.0438  0.2247
  389MOL0     H52492  -1.416   7.929   4.727 -2.0908 -1.7627 -0.0979
  389MOL0     H52493  -1.460   8.153   4.508 -1.1549  4.0412  2.4638
  389MOL0     H52494  -1.543   8.117   4.653  0.2067 -3.3792 -0.7297
  389MOL0     H52495  -1.171   7.353   3.969 -1.2566  0.0288  2.3326
  389MOL0     H52496  -1.029   7.179   3.875  0.1124  0.0181  3.5687
  389MOL0     H52497  -0.927   6.804   3.710  1.6090  0.6675 -1.2538
  389MOL0     H52498  -0.863   6.580   3.583 -0.5434 -0.7648 -0.6180
  389MOL0     H52499   0.424   5.663   4.045  1.7402 -2.2504 -0.7137
  389MOL0     H52500   0.532   5.449   4.104 -0.3607  0.7082 -1.3023
  389MOL0     H52501   0.623   5.126   4.283 -2.7655 -3.1818 -0.5093
  389MOL0     H52502   0.663   4.900   4.315 -3.7801 -1.2252  0.9881
  389MOL0     H52503   0.640   4.714   4.405  0.7137 -0.3353 -0.7202
  389MOL0     H52504   0.688   4.611   4.541 -0.9864 -0.5608 -0.4018
  389MOL0     H52505   0.854   4.526   4.422  1.1283 -0.6038 -1.2407
  389MOL0     H52506   0.920   4.685   4.368  2.2811 -2.9522 -1.2111
  389MOL0     H52507   0.746   4.691   4.189 -1.8804 -0.9794 -1.4394
  389MOL0     H52508   0.686   4.538   4.246 -0.2803  1.1803 -0.3172
  389MOL0     H52509   0.891   4.411   4.152  1.5233  0.2688 -0.9883
  389MOL0     H52510   0.826   4.523   4.034 -1.4607  0.5055  0.1440
  389MOL0     H52511   1.191   4.729   4.150 -0.4515  1.2288 -0.8280
  389MOL0     H52512   0.822   4.989   4.705  2.0530 -0.9563 -1.7109
  389MOL0     H52513   0.790   5.175   4.808 -1.2139  0.4969  0.5514
  389MOL0     H52514   0.814   5.322   4.703  0.1091  0.5688  1.5231
  389MOL0     H52515   0.663   5.270   4.757  2.7634  3.6296  4.6099
  390MOL0     O52516  10.692   8.670   0.670  0.5612 -0.5655  0.3377
  390MOL0     C52517  10.675   8.699   0.793 -0.2926 -0.1303  0.3264
  390MOL0     O52518  10.566   8.651   0.871  0.5298  0.4770 -0.3292
  390MOL0     C52519  10.482   8.552   0.817 -0.1689  0.3216 -0.0379
  390MOL0     C52520  10.347   8.567   0.862  0.3161 -0.1739 -0.1237
  390MOL0     C52521  10.268   8.454   0.817 -0.1425 -0.8189  0.3589
  390MOL0     C52522  10.316   8.349   0.729 -0.5908  0.6876 -0.2990
  390MOL0     O52523  10.232   8.245   0.681 -0.1264 -0.1591 -0.9280
  390MOL0     C52524  10.093   8.240   0.707  0.2721 -0.5518  0.6581
  390MOL0     C52525  10.046   8.092   0.659 -0.1847  0.3098 -0.8831
  390MOL0     C52526   9.978   8.087   0.530  0.5141 -0.5994 -0.2135
  390MOL0     C52527   9.832   8.129   0.535 -1.1618  0.9341  0.2048
  390MOL0     C52528   9.740   8.068   0.430  0.9586  0.2971 -0.1772
  390MOL0     C52529   9.600   8.130   0.446 -0.5127 -0.6654  0.7096
  390MOL0     C52530   9.487   8.048   0.374  0.0983  0.7525  0.6475
  390MOL0     C52531   9.341   8.097   0.407  0.2774  0.0939  0.0253
  390MOL0     N52532   9.302   8.034   0.530  0.7769  0.6029 -0.5033
  390MOL0     C52533   9.270   7.894   0.537  0.3174 -0.1969  0.3078
  390MOL0     C52534   9.224   7.883   0.667 -0.5503 -1.5986  0.4680
  390MOL0     C52535   9.177   7.760   0.744 -0.8391 -0.3410  0.2962
  390MOL0     C52536   9.127   7.638   0.666 -0.2260  0.7966  0.1092
  390MOL0     C52537   9.139   7.502   0.752 -0.6756 -0.4796 -0.0397
  390MOL0     C52538   9.124   7.361   0.689 -1.1387 -0.2074 -0.3201
  390MOL0     O52539   9.110   7.263   0.787 -1.1359 -0.1600 -0.6197
  390MOL0     C52540   9.223   7.192   0.836  0.4707  0.0009 -0.8984
  390MOL0     C52541   9.357   7.228   0.835  0.1700  0.0131  0.4725
  390MOL0     C52542   9.448   7.135   0.884 -0.5356  1.1418 -0.3776
  390MOL0     C52543   9.421   7.009   0.941 -0.6843 -1.3567 -0.7344
  390MOL0     C52544   9.532   6.925   1.002  0.8475  0.2120  0.1365
  390MOL0     O52545   9.657   6.968   0.979  0.2631  0.3595 -0.0281
  390MOL0     C52546   9.744   6.894   1.057 -0.0129 -0.0465  0.5268
  390MOL0     C52547   9.729   6.907   1.199 -0.7629 -0.4127  0.5272
  390MOL0     C52548   9.804   6.818   1.283 -0.3867  0.3355  0.3837
  390MOL0     C52549   9.902   6.722   1.221  0.0052 -0.4783  0.3969
  390MOL0     O52550   9.982   6.640   1.282 -0.1763 -0.2542  0.4116
  390MOL0     C52551   9.969   6.624   1.420  0.2093 -0.3900 -0.5748
  390MOL0     C52552  10.050   6.505   1.459  0.1307  0.3823  0.6000
  390MOL0     C52553  10.054   6.487   1.609  0.0050 -0.9301 -0.3842
  390MOL0     C52554  10.149   6.371   1.640  0.2426  0.0615 -0.6409
  390MOL0     C52555  10.110   6.301   1.767  0.0479  0.9446 -0.4749
  390MOL0     C52556  10.141   6.379   1.895  0.3353  0.2499  0.6705
  390MOL0     C52557  10.046   6.501   1.922  0.1354  0.3742 -0.2343
  390MOL0     C52558  10.060   6.539   2.073  0.3056  0.1983 -0.6430
  390MOL0    Cl52559   9.946   6.658   2.110 -0.3288 -0.3530  0.3389
  390MOL0     C52560   9.899   6.712   1.078  0.7207  0.0515 -1.1590
  390MOL0     C52561   9.827   6.794   1.002  0.8784  0.0677 -0.0158
  390MOL0     O52562   9.494   6.818   1.047  0.0338  0.1203 -0.0591
  390MOL0     C52563   9.283   6.984   0.941 -0.1882  0.5706 -0.1359
  390MOL0     C52564   9.181   7.068   0.887  0.0351 -0.2395 -0.0630
  390MOL0     N52565   9.246   8.000   0.734 -0.5922  0.1629 -0.5226
  390MOL0     N52566   9.297   8.089   0.656 -0.0523 -0.0755  0.0760
  390MOL0     C52567  10.449   8.334   0.706  0.0036 -0.4035 -0.5243
  390MOL0     C52568  10.529   8.437   0.747 -0.2594 -0.2829 -0.4943
  390MOL0     C52569  10.776   8.778   0.855 -1.0582  0.3217 -0.4891
  390MOL0     C52570  10.777   8.773   0.995 -1.4869  0.0621  0.3988
  390MOL0     C52571  10.854   8.858   1.074 -0.0749 -0.1382 -0.0575
  390MOL0     C52572  10.927   8.966   1.017  0.6864  0.2792 -0.3025
  390MOL0     O52573  10.965   9.063   1.099 -0.7370 -0.1640  0.3066
  390MOL0     C52574  11.039   9.177   1.053  0.6092  0.0745 -0.4912
  390MOL0     C52575  10.944   9.289   1.015  0.3960  0.1519  0.7892
  390MOL0     C52576  10.860   9.351   1.120  0.6226  0.1503 -0.5575
  390MOL0     C52577  10.942   9.386   1.247  0.0900 -0.0422 -1.0417
  390MOL0     C52578  10.868   9.462   1.349 -0.5788  0.0227  0.2454
  390MOL0     C52579  10.817   9.523   1.437 -0.3362 -0.0234  0.2087
  390MOL0     C52580  10.933   8.976   0.877  0.4784  0.1192 -0.1951
  390MOL0     C52581  10.854   8.880   0.801  0.7319 -0.4154  0.4368
  390MOL0     C52582  10.865   8.907   0.648  0.8440  0.9765  0.4764
  390MOL0     H52583  10.312   8.653   0.920  2.0119  0.8257 -0.5212
  390MOL0     H52584  10.167   8.446   0.855 -0.5658  0.5331 -0.4133
  390MOL0     H52585  10.067   8.264   0.810 -0.6703  0.3772  0.2161
  390MOL0     H52586  10.042   8.316   0.647  1.4796  1.1867  1.7475
  390MOL0     H52587   9.983   8.049   0.738 -0.0605 -1.3891 -1.6590
  390MOL0     H52588  10.130   8.022   0.659  0.1975  0.6920  1.3818
  390MOL0     H52589   9.975   7.987   0.487  0.3845  0.2978 -2.4060
  390MOL0     H52590  10.038   8.146   0.460  0.6513  1.4787  1.5329
  390MOL0     H52591   9.788   8.094   0.629  0.7505  1.5764  1.3790
  390MOL0     H52592   9.824   8.238   0.533  0.2730  1.0999  1.7679
  390MOL0     H52593   9.782   8.085   0.330  1.3996  2.1423  0.2895
  390MOL0     H52594   9.727   7.961   0.444  0.8977  0.2558 -0.5403
  390MOL0     H52595   9.562   8.126   0.548 -1.1212 -1.6215  0.4587
  390MOL0     H52596   9.595   8.232   0.408 -1.7054 -1.6535 -2.0524
  390MOL0     H52597   9.490   7.942   0.399  1.8143  0.9690  1.5741
  390MOL0     H52598   9.507   8.057   0.267  3.0981  0.9183  1.1332
  390MOL0     H52599   9.351   8.205   0.416 -0.2560  0.0992  0.6415
  390MOL0     H52600   9.265   8.074   0.331  1.0293  0.4950 -0.8691
  390MOL0     H52601   9.273   7.814   0.464 -3.6127  0.2455 -0.5182
  390MOL0     H52602   9.253   7.736   0.819  0.3115  1.3885 -0.2699
  390MOL0     H52603   9.094   7.797   0.805 -1.1399  0.2863 -0.4736
  390MOL0     H52604   9.025   7.651   0.630 -0.1976  1.5697  0.2784
  390MOL0     H52605   9.200   7.622   0.586  0.7326 -3.4858  1.5357
  390MOL0     H52606   9.064   7.519   0.830  1.5929  1.1315  1.9257
  390MOL0     H52607   9.236   7.510   0.802  0.0049  1.4121 -1.5502
  390MOL0     H52608   9.215   7.338   0.632  0.8308 -0.4051  2.6739
  390MOL0     H52609   9.041   7.368   0.619 -1.1676 -0.5806 -0.3277
  390MOL0     H52610   9.395   7.319   0.789 -1.0616 -0.5168 -1.7441
  390MOL0     H52611   9.552   7.164   0.885 -0.8140  2.1842 -0.7105
  390MOL0     H52612   9.660   6.979   1.243  1.1793  2.4875 -0.8203
  390MOL0     H52613   9.781   6.817   1.389  0.3862  4.9774  0.7648
  390MOL0     H52614  10.012   6.712   1.469 -1.5188  2.6420 -4.0067
  390MOL0     H52615   9.867   6.609   1.454 -0.4548  1.1019 -1.7878
  390MOL0     H52616  10.009   6.419   1.404  0.5447  0.1055  0.7126
  390MOL0     H52617  10.150   6.510   1.414 -0.3584 -2.6153 -1.1520
  390MOL0     H52618  10.098   6.576   1.655  0.4269  0.4688 -3.2957
  390MOL0     H52619   9.952   6.462   1.641  0.3704 -1.9198  0.0698
  390MOL0     H52620  10.250   6.412   1.655 -0.5815  2.0554 -0.3138
  390MOL0     H52621  10.154   6.308   1.551  0.8686  0.3685 -0.8322
  390MOL0     H52622  10.164   6.206   1.774  0.5420  1.2251 -0.4099
  390MOL0     H52623  10.006   6.267   1.765  1.2669 -3.3752 -1.6199
  390MOL0     H52624  10.123   6.304   1.973 -0.2007 -0.4226 -0.0816
  390MOL0     H52625  10.245   6.410   1.906 -0.0616  1.0571  2.6386
  390MOL0     H52626   9.945   6.468   1.896 -0.5862  1.8538  0.5714
  390MOL0     H52627  10.072   6.588   1.861  1.3615  0.8925  0.9672
  390MOL0     H52628  10.047   6.450   2.136 -1.0309  2.1797  2.0821
  390MOL0     H52629  10.163   6.569   2.093  0.5578 -0.6380 -0.6365
  390MOL0     H52630   9.952   6.629   1.033  1.0510 -1.3531  1.5841
  390MOL0     H52631   9.834   6.774   0.895  0.4984 -2.8394  0.4302
  390MOL0     H52632   9.245   6.889   0.977  1.0657  0.5832  1.3570
  390MOL0     H52633   9.083   7.025   0.875  0.8314 -2.4722  0.8499
  390MOL0     H52634  10.500   8.255   0.652  0.3385  0.5323 -1.6044
  390MOL0     H52635  10.633   8.431   0.719  0.6714  3.5987  1.4282
  390MOL0     H52636  10.714   8.705   1.051  1.4635 -0.3324  3.6264
  390MOL0     H52637  10.849   8.851   1.182  2.9320 -1.3862  0.0959
  390MOL0     H52638  11.108   9.143   0.976  0.7048 -0.0583 -0.3461
  390MOL0     H52639  11.099   9.213   1.137 -1.6929  2.6486  0.1951
  390MOL0     H52640  10.874   9.229   0.956  3.4571 -2.2170 -0.7152
  390MOL0     H52641  11.004   9.361   0.958  0.0587 -1.8952 -2.3937
  390MOL0     H52642  10.778   9.282   1.141  1.1546 -0.1761  0.5267
  390MOL0     H52643  10.826   9.449   1.084  3.0554  1.3461  0.1797
  390MOL0     H52644  10.971   9.295   1.301  1.3257  2.0305  2.0204
  390MOL0     H52645  11.028   9.447   1.217 -1.4311  1.1665 -3.1955
  390MOL0     H52646  10.776   9.566   1.526 -0.3682 -1.1395  0.7407
  390MOL0     H52647  10.996   9.055   0.838  2.1796  1.1650  4.0145
  390MOL0     H52648  10.761   8.934   0.624 -0.2233 -2.8153  0.0516
  390MOL0     H52649  10.930   8.991   0.625 -0.9760  2.1611 -0.6461
  390MOL0     H52650  10.889   8.812   0.599 -2.5145  1.1684 -1.9354
  391MOL0     O52651   9.009   5.087   3.697 -0.2159  0.0355 -0.3073
  391MOL0     C52652   8.905   5.151   3.710  0.0791 -0.7077 -0.4967
  391MOL0     O52653   8.783   5.116   3.657 -0.0744  0.2227  0.1680
  391MOL0     C52654   8.762   5.060   3.536 -0.4195  0.6780  0.1410
  391MOL0     C52655   8.637   5.001   3.506 -0.1551 -0.5424  0.4242
  391MOL0     C52656   8.625   4.927   3.389  0.2511 -0.0589  0.4003
  391MOL0     C52657   8.719   4.925   3.288  0.8103 -0.4221 -0.3035
  391MOL0     O52658   8.708   4.845   3.183 -0.0003  0.2116  0.1095
  391MOL0     C52659   8.596   4.757   3.174  0.1312  0.1024  0.0290
  391MOL0     C52660   8.624   4.662   3.067  0.3635  1.2183  0.5996
  391MOL0     C52661   8.602   4.714   2.922 -0.6712 -0.1469 -1.1735
  391MOL0     C52662   8.669   4.619   2.823 -0.4356  0.2140 -0.0867
  391MOL0     C52663   8.676   4.676   2.680 -0.8566  0.1237 -0.3537
  391MOL0     C52664   8.689   4.566   2.571 -0.0095 -0.0133  0.2372
  391MOL0     C52665   8.649   4.614   2.437  0.0939  0.3162 -0.0222
  391MOL0     C52666   8.772   4.654   2.352  0.2231  0.2076 -0.3848
  391MOL0     N52667   8.730   4.700   2.223 -0.2228  0.1803  0.3963
  391MOL0     C52668   8.714   4.830   2.196  0.2341 -0.1993 -0.4732
  391MOL0     C52669   8.698   4.839   2.061 -0.0295 -0.0895  0.5023
  391MOL0     C52670   8.702   4.965   1.983  0.4421 -0.5242  0.2168
  391MOL0     C52671   8.839   5.016   1.940 -0.5597 -0.6774 -0.5614
  391MOL0     C52672   8.937   5.048   2.056  0.3702 -0.0888 -0.3679
  391MOL0     C52673   9.081   5.092   2.009  0.4247 -0.0998 -0.3700
  391MOL0     O52674   9.073   5.228   1.960 -0.1047  0.2537 -0.2927
  391MOL0     C52675   9.114   5.261   1.831 -0.5217 -0.2734  0.0646
  391MOL0     C52676   9.199   5.371   1.818  0.4740  0.7278  0.4828
  391MOL0     C52677   9.250   5.416   1.694  0.6035  0.4655  0.1399
  391MOL0     C52678   9.215   5.339   1.579 -0.2539  0.0437  0.2558
  391MOL0     C52679   9.282   5.375   1.450  0.3359 -0.0809 -0.2905
  391MOL0     O52680   9.260   5.294   1.337 -0.5192 -0.3548 -0.8698
  391MOL0     C52681   9.315   5.319   1.215 -0.6193  0.0524  0.4138
  391MOL0     C52682   9.271   5.229   1.120 -0.0837 -0.1997 -0.5671
  391MOL0     C52683   9.307   5.248   0.984 -0.2583 -0.5286  0.7681
  391MOL0     C52684   9.381   5.364   0.933  0.0320 -0.0889 -0.5508
  391MOL0     O52685   9.433   5.395   0.810  0.1377 -0.3361 -0.3127
  391MOL0     C52686   9.383   5.313   0.698 -0.5924 -0.7185 -0.4123
  391MOL0     C52687   9.481   5.345   0.589 -0.2310  0.4478  0.7318
  391MOL0     C52688   9.483   5.237   0.483  0.2381  0.4453 -0.5074
  391MOL0     C52689   9.447   5.279   0.343 -0.0070 -0.4128 -0.0808
  391MOL0     C52690   9.296   5.300   0.339 -0.2880 -0.4502  0.6147
  391MOL0     C52691   9.231   5.323   0.197 -0.1229 -0.0313 -0.6226
  391MOL0     C52692   9.287   5.445   0.130 -0.5921 -1.1060  0.4229
  391MOL0     C52693   9.226   5.489  -0.003 -0.9630  0.0419  0.1475
  391MOL0    Cl52694   9.274   5.367  -0.102  0.3073  0.0911  0.4778
  391MOL0     C52695   9.417   5.456   1.038  0.1641 -0.0644  0.7611
  391MOL0     C52696   9.392   5.434   1.169  0.6480  0.7985 -1.1684
  391MOL0     O52697   9.366   5.461   1.463 -0.3315 -0.4669  0.6713
  391MOL0     C52698   9.131   5.224   1.591 -1.1595 -0.1538  1.1007
  391MOL0     C52699   9.077   5.180   1.718 -0.3507 -0.6277  0.1530
  391MOL0     N52700   8.703   4.710   2.010 -0.0203 -0.8616  0.6174
  391MOL0     N52701   8.726   4.627   2.107  0.0621 -0.1855  0.8625
  391MOL0     C52702   8.831   5.000   3.306 -0.8144 -0.0360  0.8114
  391MOL0     C52703   8.857   5.057   3.427  0.4780 -0.4009  0.2647
  391MOL0     C52704   8.907   5.261   3.816  0.8149 -0.1560  0.6653
  391MOL0     C52705   8.788   5.324   3.853 -0.3635 -0.3392 -0.8213
  391MOL0     C52706   8.773   5.430   3.944  0.2066  0.6625  0.0982
  391MOL0     C52707   8.883   5.458   4.027  0.1605 -0.9072  0.0397
  391MOL0     O52708   8.880   5.532   4.141 -0.7463  0.3673  0.0671
  391MOL0     C52709   8.860   5.677   4.138 -0.6967 -0.0336  0.1100
  391MOL0     C52710   8.722   5.717   4.193  0.2204  0.4972 -0.1967
  391MOL0     C52711   8.701   5.874   4.221 -0.2090  0.6630  1.2612
  391MOL0     C52712   8.559   5.920   4.160 -0.1238  0.1804 -0.6730
  391MOL0     C52713   8.552   6.064   4.160 -0.3743  0.1293 -0.3089
  391MOL0     C52714   8.539   6.185   4.156 -0.1668  0.4175 -0.8030
  391MOL0     C52715   9.006   5.398   3.997 -0.5527  0.9827 -0.0880
  391MOL0     C52716   9.015   5.304   3.892 -0.2743 -0.9760  0.3674
  391MOL0     C52717   9.160   5.241   3.880  0.6035 -0.3531 -0.4866
  391MOL0     H52718   8.555   5.005   3.577 -0.1175  0.9529  0.4092
  391MOL0     H52719   8.538   4.863   3.379  0.7385 -0.3928 -2.5076
  391MOL0     H52720   8.585   4.702   3.268  1.4104  1.9655  1.3400
  391MOL0     H52721   8.516   4.827   3.147  1.1963  0.9358 -1.0596
  391MOL0     H52722   8.570   4.568   3.084  1.6769  0.1632 -0.7417
  391MOL0     H52723   8.726   4.629   3.087  0.2900  2.4496  3.3363
  391MOL0     H52724   8.642   4.814   2.903 -2.1239  0.7317  0.1007
  391MOL0     H52725   8.493   4.722   2.917 -1.0267  0.1493  3.2135
  391MOL0     H52726   8.772   4.606   2.857 -0.1315  2.6544  0.1086
  391MOL0     H52727   8.612   4.526   2.834  0.2574 -0.0194  1.9460
  391MOL0     H52728   8.588   4.736   2.655 -0.1152  0.8016 -1.4189
  391MOL0     H52729   8.767   4.736   2.672  1.4868 -3.0416  0.4298
  391MOL0     H52730   8.790   4.524   2.568 -0.4637 -1.1124 -0.5221
  391MOL0     H52731   8.618   4.487   2.597 -1.4638  1.2427  0.2453
  391MOL0     H52732   8.579   4.699   2.431  0.2751  0.8687  3.6591
  391MOL0     H52733   8.607   4.526   2.388  1.0505  0.5969 -1.4386
  391MOL0     H52734   8.823   4.737   2.402  0.2321  1.6787 -2.6822
  391MOL0     H52735   8.830   4.562   2.341 -1.3287 -1.0249  1.1079
  391MOL0     H52736   8.694   4.910   2.266  0.1978 -2.4420  2.2448
  391MOL0     H52737   8.649   4.956   1.887  2.0668  0.6286 -0.8522
  391MOL0     H52738   8.646   5.045   2.034  1.4843  1.0970 -1.0636
  391MOL0     H52739   8.876   4.939   1.873  4.3035 -0.7582  1.8156
  391MOL0     H52740   8.827   5.113   1.891  1.1899  1.4964  2.9046
  391MOL0     H52741   8.947   4.952   2.107  0.3379  1.8209  3.6545
  391MOL0     H52742   8.892   5.117   2.128 -1.4996 -0.4883 -1.1046
  391MOL0     H52743   9.116   5.032   1.925 -1.1541 -1.4081 -0.1371
  391MOL0     H52744   9.149   5.073   2.092  1.5783 -2.2175 -1.7146
  391MOL0     H52745   9.236   5.410   1.912  1.5966 -0.5734  0.6154
  391MOL0     H52746   9.299   5.512   1.686  1.4858 -0.0341 -0.8810
  391MOL0     H52747   9.205   5.149   1.153  0.4948  0.6926  3.2195
  391MOL0     H52748   9.289   5.168   0.913  1.8429 -0.0796 -0.3515
  391MOL0     H52749   9.380   5.208   0.730  1.0633  0.1757  3.1443
  391MOL0     H52750   9.284   5.346   0.668 -1.8923 -2.6913  1.4535
  391MOL0     H52751   9.465   5.444   0.543  3.6611  0.7742 -0.3020
  391MOL0     H52752   9.584   5.335   0.625  0.2421 -1.7726 -0.9744
  391MOL0     H52753   9.577   5.184   0.500 -1.2490 -1.8859  0.9610
  391MOL0     H52754   9.407   5.168   0.521  0.7578  0.7881  1.2382
  391MOL0     H52755   9.468   5.192   0.279 -2.4814 -0.2230 -1.2484
  391MOL0     H52756   9.512   5.361   0.312  0.0885 -0.3533  0.2729
  391MOL0     H52757   9.285   5.390   0.400  1.3564  0.8036 -0.8222
  391MOL0     H52758   9.246   5.212   0.380 -1.2709 -1.1379 -1.8671
  391MOL0     H52759   9.245   5.232   0.137  0.6009 -0.4361  0.1378
  391MOL0     H52760   9.123   5.341   0.197 -0.1588 -0.2313 -0.1308
  391MOL0     H52761   9.392   5.419   0.113 -0.0122  0.3240  1.7088
  391MOL0     H52762   9.278   5.530   0.198  0.3217 -1.5948  1.1878
  391MOL0     H52763   9.116   5.495  -0.004 -1.2248 -2.9876  0.5749
  391MOL0     H52764   9.269   5.588  -0.022  1.0898 -0.6761  0.7808
  391MOL0     H52765   9.476   5.540   1.001  0.3167 -0.2602  0.5540
  391MOL0     H52766   9.424   5.505   1.244 -0.2227 -1.3651  1.3728
  391MOL0     H52767   9.105   5.174   1.498 -1.4573 -0.7625  1.5016
  391MOL0     H52768   9.009   5.095   1.728 -0.1979 -0.9222 -1.0678
  391MOL0     H52769   8.904   4.991   3.227 -0.4766 -1.9379  1.3060
  391MOL0     H52770   8.951   5.104   3.454 -0.0950  0.9424 -0.0119
  391MOL0     H52771   8.702   5.280   3.804 -0.9377 -0.7869  0.5430
  391MOL0     H52772   8.671   5.465   3.962  0.0658  0.5464 -0.4537
  391MOL0     H52773   8.875   5.706   4.034  1.1108 -2.2937 -0.3637
  391MOL0     H52774   8.933   5.721   4.207  0.0103  0.1365 -0.7382
  391MOL0     H52775   8.717   5.673   4.293  0.8563  0.1025 -0.3314
  391MOL0     H52776   8.652   5.673   4.121  1.0618 -0.9277 -0.1807
  391MOL0     H52777   8.785   5.930   4.179 -1.7824  1.3246 -1.2160
  391MOL0     H52778   8.703   5.887   4.330  5.0123 -0.1773  1.5179
  391MOL0     H52779   8.534   5.875   4.063  0.0638  0.1436 -0.7038
  391MOL0     H52780   8.487   5.887   4.236  1.6466 -0.3422  0.8518
  391MOL0     H52781   8.548   6.291   4.148 -0.8951  0.4344 -1.5615
  391MOL0     H52782   9.091   5.415   4.062 -0.4901  2.4582 -0.5120
  391MOL0     H52783   9.158   5.138   3.919  0.6206  0.0811  0.7208
  391MOL0     H52784   9.196   5.237   3.777 -1.6359  0.7079 -1.3628
  391MOL0     H52785   9.239   5.285   3.942 -0.9192  3.7189 -1.1597
  392MOL0     O52786   3.731   4.222   7.492 -0.4926 -0.1916  0.3228
  392MOL0     C52787   3.810   4.270   7.408 -0.2134  0.0827 -0.0012
  392MOL0     O52788   3.793   4.392   7.342  0.1379  0.7257  0.3252
  392MOL0     C52789   3.679   4.457   7.370 -0.4361  0.3167 -0.4929
  392MOL0     C52790   3.597   4.497   7.274  0.4962 -0.4197  0.7131
  392MOL0     C52791   3.482   4.575   7.305  0.1506  0.3703 -0.4784
  392MOL0     C52792   3.459   4.627   7.440 -0.6451  0.4565 -0.0087
  392MOL0     O52793   3.339   4.697   7.470  0.0524 -0.4868  0.6535
  392MOL0     C52794   3.303   4.795   7.370  0.5229 -0.4173 -0.3303
  392MOL0     C52795   3.169   4.854   7.414 -0.6476  0.5426 -0.1111
  392MOL0     C52796   3.095   4.945   7.315 -0.5611  0.2844 -0.1593
  392MOL0     C52797   3.025   5.054   7.389  1.3573  0.6819 -0.3766
  392MOL0     C52798   2.915   5.113   7.311  0.0888 -0.6223 -0.8871
  392MOL0     C52799   2.891   5.269   7.339 -0.7659  0.7511 -0.3897
  392MOL0     C52800   2.769   5.321   7.264 -0.1619 -0.6487 -0.7107
  392MOL0     C52801   2.741   5.458   7.309  1.0066  0.3512 -0.5638
  392MOL0     N52802   2.623   5.512   7.240 -0.4742  0.6975  1.0737
  392MOL0     C52803   2.490   5.527   7.276 -1.1871  0.4779 -0.4882
  392MOL0     C52804   2.428   5.622   7.207  0.4633 -0.2910  0.4710
  392MOL0     C52805   2.279   5.669   7.210  0.5023  0.0899  0.1170
  392MOL0     C52806   2.256   5.820   7.244 -1.0034 -0.0387  1.2544
  392MOL0     C52807   2.110   5.837   7.268 -0.3940 -0.3118  0.0050
  392MOL0     C52808   2.082   5.985   7.283 -0.5909  0.8994 -0.7082
  392MOL0     O52809   2.091   6.060   7.170  0.3091 -0.5767  0.5891
  392MOL0     C52810   1.991   6.154   7.160  0.2670  0.2688 -0.5870
  392MOL0     C52811   1.856   6.127   7.176  0.5938  0.0908 -0.4388
  392MOL0     C52812   1.767   6.237   7.186 -0.0112  0.5675 -0.4408
  392MOL0     C52813   1.822   6.372   7.177 -0.4936  0.0210 -1.1780
  392MOL0     C52814   1.724   6.489   7.181  0.1505 -0.4228 -1.0451
  392MOL0     O52815   1.778   6.613   7.188  0.6111 -0.2082 -0.3415
  392MOL0     C52816   1.700   6.729   7.216 -0.2358  0.2661  0.1011
  392MOL0     C52817   1.716   6.831   7.121  0.6686 -0.0051  0.9084
  392MOL0     C52818   1.651   6.961   7.141 -0.1052 -0.5641  0.1518
  392MOL0     C52819   1.555   6.965   7.246  0.9157  0.5386  0.5174
  392MOL0     O52820   1.480   7.077   7.250 -0.7518 -0.1569 -0.6390
  392MOL0     C52821   1.427   7.129   7.377 -0.9789 -0.6677  0.4220
  392MOL0     C52822   1.380   7.270   7.355  0.1432 -0.5400 -0.3329
  392MOL0     C52823   1.307   7.346   7.471  0.2270  0.2917  1.1993
  392MOL0     C52824   1.398   7.364   7.591  0.2598  1.0599 -0.6986
  392MOL0     C52825   1.326   7.432   7.708  0.1993 -1.2946 -0.5083
  392MOL0     C52826   1.440   7.497   7.787 -0.4051  0.1831  0.2422
  392MOL0     C52827   1.391   7.580   7.907 -0.4379  0.4136 -0.3256
  392MOL0     C52828   1.487   7.659   7.987 -0.0870  0.2038  0.4602
  392MOL0    Cl52829   1.585   7.564   8.102  0.6774  0.2909 -0.0153
  392MOL0     C52830   1.556   6.865   7.345  0.0053  0.2850 -0.3640
  392MOL0     C52831   1.627   6.745   7.334  0.1618 -0.4408 -0.0591
  392MOL0     O52832   1.603   6.460   7.183  0.0198 -0.7251  0.7952
  392MOL0     C52833   1.960   6.386   7.165 -0.0331 -0.2670  0.7610
  392MOL0     C52834   2.038   6.278   7.153 -0.7510 -0.8421  0.5829
  392MOL0     N52835   2.523   5.660   7.114 -0.4309 -0.4128  0.1793
  392MOL0     N52836   2.641   5.597   7.134  0.4440 -0.3258 -0.8877
  392MOL0     C52837   3.550   4.586   7.534 -0.6279 -0.2248  0.0811
  392MOL0     C52838   3.671   4.515   7.497  0.0189  0.0782 -0.0197
  392MOL0     C52839   3.944   4.196   7.374  0.2819 -0.1890 -0.7427
  392MOL0     C52840   4.025   4.246   7.272 -0.2368 -0.2390  0.0584
  392MOL0     C52841   4.158   4.203   7.256  0.0540 -0.0260  0.0572
  392MOL0     C52842   4.201   4.098   7.340 -0.5704  0.2141  0.4503
  392MOL0     O52843   4.330   4.042   7.333 -0.2113  0.2480  0.1443
  392MOL0     C52844   4.340   3.935   7.245 -0.3717  0.0029  0.5517
  392MOL0     C52845   4.460   3.975   7.152 -0.6552  0.4635  0.6469
  392MOL0     C52846   4.415   4.031   7.018 -0.7780  0.3802 -0.8655
  392MOL0     C52847   4.527   4.090   6.935 -0.7125 -0.1584 -0.0503
  392MOL0     C52848   4.476   4.119   6.793 -0.6608 -0.2120 -0.2859
  392MOL0     C52849   4.425   4.139   6.683 -0.5641 -0.4434 -0.0304
  392MOL0     C52850   4.118   4.050   7.445 -0.6141  0.7267  0.7713
  392MOL0     C52851   3.989   4.100   7.461 -0.6602  0.2042  0.8563
  392MOL0     C52852   3.920   4.041   7.578 -0.3260  0.0364 -0.5447
  392MOL0     H52853   3.613   4.468   7.170 -3.0065 -1.0217  0.2168
  392MOL0     H52854   3.413   4.593   7.224 -0.7445 -1.2842 -0.1418
  392MOL0     H52855   3.373   4.879   7.375 -3.0728  2.7344  1.6063
  392MOL0     H52856   3.289   4.755   7.269  0.4690  2.1821 -1.4130
  392MOL0     H52857   3.192   4.914   7.502  1.9922 -1.8763  1.0301
  392MOL0     H52858   3.104   4.769   7.434  0.6937 -0.7612 -1.0710
  392MOL0     H52859   3.015   4.893   7.260 -0.1542  0.5509 -1.0271
  392MOL0     H52860   3.160   4.990   7.239 -0.1206 -1.3407 -0.7857
  392MOL0     H52861   2.971   5.009   7.473  0.8591 -0.6578 -1.3782
  392MOL0     H52862   3.096   5.133   7.415  1.0482  1.9197 -3.0395
  392MOL0     H52863   2.931   5.099   7.204  1.3385 -1.4746 -0.6123
  392MOL0     H52864   2.829   5.053   7.342  0.3217 -1.6310 -2.1302
  392MOL0     H52865   2.863   5.275   7.445  1.2764 -0.9260  0.3056
  392MOL0     H52866   2.976   5.333   7.315 -0.5403  0.4643 -0.3593
  392MOL0     H52867   2.679   5.268   7.298 -2.5443  2.1727 -2.1185
  392MOL0     H52868   2.791   5.328   7.157  0.2641  0.6625 -0.5521
  392MOL0     H52869   2.719   5.450   7.416  0.0040 -1.9242 -0.8921
  392MOL0     H52870   2.829   5.522   7.297  0.3410  1.3477 -0.2453
  392MOL0     H52871   2.427   5.472   7.347 -1.3901 -1.1949 -1.8948
  392MOL0     H52872   2.242   5.653   7.108  2.7450 -0.1318 -0.7148
  392MOL0     H52873   2.218   5.605   7.274  2.0162 -0.3334  1.1788
  392MOL0     H52874   2.313   5.855   7.330  0.4047 -1.7216  1.0764
  392MOL0     H52875   2.276   5.872   7.150  0.7599  0.0543  1.6429
  392MOL0     H52876   2.059   5.793   7.355 -2.1503 -1.0685 -1.3454
  392MOL0     H52877   2.063   5.795   7.179  1.0546 -4.3006  0.9355
  392MOL0     H52878   2.159   6.024   7.350 -1.6388  0.7437  0.6310
  392MOL0     H52879   1.989   5.998   7.340  0.2191  0.4200  0.7766
  392MOL0     H52880   1.829   6.022   7.184  0.8016  0.1590  2.1805
  392MOL0     H52881   1.661   6.221   7.200 -0.0309  2.0552  1.5448
  392MOL0     H52882   1.777   6.819   7.032 -0.9036 -0.6532 -0.1262
  392MOL0     H52883   1.674   7.044   7.076  6.5988 -2.4703 -0.7297
  392MOL0     H52884   1.344   7.061   7.398 -0.2024 -0.9137  2.9656
  392MOL0     H52885   1.503   7.126   7.456 -0.5345 -0.0938  0.0279
  392MOL0     H52886   1.472   7.319   7.320  0.4098 -0.2671  0.7306
  392MOL0     H52887   1.317   7.265   7.265 -2.3137  0.6487  1.2338
  392MOL0     H52888   1.289   7.444   7.424  0.2507  1.1117  2.8258
  392MOL0     H52889   1.207   7.309   7.494  0.1577 -0.9737 -0.9209
  392MOL0     H52890   1.492   7.407   7.555 -0.9669  2.0333 -2.9446
  392MOL0     H52891   1.449   7.273   7.624  2.8373  2.0819 -1.5800
  392MOL0     H52892   1.263   7.362   7.765  0.2901 -0.1223  1.0761
  392MOL0     H52893   1.256   7.499   7.657  1.6990 -1.0272 -2.3371
  392MOL0     H52894   1.493   7.410   7.828 -1.7968 -0.7447  0.1511
  392MOL0     H52895   1.511   7.557   7.730 -1.4338  1.0552 -0.1500
  392MOL0     H52896   1.320   7.519   7.964  0.3335 -0.4224 -0.2252
  392MOL0     H52897   1.315   7.647   7.866  0.4832  1.0891 -0.9484
  392MOL0     H52898   1.557   7.719   7.928  2.2400 -1.6176  1.2134
  392MOL0     H52899   1.416   7.723   8.041  2.4992  4.4162 -0.6695
  392MOL0     H52900   1.489   6.879   7.429 -0.4032  1.1133 -0.8161
  392MOL0     H52901   1.619   6.674   7.415  0.8110  0.4558  0.8153
  392MOL0     H52902   2.005   6.485   7.154 -0.2746 -0.0658  1.5613
  392MOL0     H52903   2.142   6.308   7.146 -1.3453  0.9556 -2.0736
  392MOL0     H52904   3.542   4.628   7.634 -0.1421 -0.4226  0.2071
  392MOL0     H52905   3.749   4.490   7.568 -0.1618 -3.7797 -0.9718
  392MOL0     H52906   3.992   4.334   7.217 -1.2330  0.7640  2.1478
  392MOL0     H52907   4.221   4.262   7.191 -1.5356  0.6032 -0.9883
  392MOL0     H52908   4.258   3.926   7.173  0.4083  2.5908 -0.7833
  392MOL0     H52909   4.353   3.835   7.289  0.5647 -0.6268 -1.0572
  392MOL0     H52910   4.522   3.886   7.138 -1.3688 -0.5211  3.2319
  392MOL0     H52911   4.528   4.047   7.201 -0.8315 -0.1345  1.8047
  392MOL0     H52912   4.346   4.113   7.037  1.5034  2.1466  0.3213
  392MOL0     H52913   4.374   3.943   6.967  2.4135 -2.0411  0.4083
  392MOL0     H52914   4.565   4.182   6.979 -4.1070  2.0009 -1.2743
  392MOL0     H52915   4.612   4.020   6.938 -0.9320 -0.4668 -0.7673
  392MOL0     H52916   4.377   4.148   6.587  1.4005  2.0768 -0.8927
  392MOL0     H52917   4.169   3.974   7.503  0.9655 -0.5822 -2.1266
  392MOL0     H52918   3.969   3.949   7.611  0.7990  1.4347  1.9695
  392MOL0     H52919   3.919   4.110   7.663  0.6115  1.0517 -1.3368
  392MOL0     H52920   3.817   4.005   7.569 -0.6509  1.0640 -0.9741
  393MOL0     O52921   2.245   4.216   7.738  0.7470 -0.2580 -0.2114
  393MOL0     C52922   2.137   4.201   7.795 -0.6680 -0.2262  0.9535
  393MOL0     O52923   2.018   4.201   7.737 -0.5446  0.1131  0.4269
  393MOL0     C52924   2.022   4.242   7.606 -0.7777  0.5776 -1.1530
  393MOL0     C52925   1.960   4.356   7.576 -0.3089 -0.2009  0.7170
  393MOL0     C52926   1.955   4.400   7.446  0.1888 -0.8636 -0.2306
  393MOL0     C52927   2.009   4.339   7.337 -1.7308  0.2733  1.2515
  393MOL0     O52928   2.012   4.389   7.206  0.4625 -0.0621 -0.2994
  393MOL0     C52929   1.956   4.521   7.196  0.1570  0.3782  0.4313
  393MOL0     C52930   1.802   4.537   7.179  0.0518  0.4014  0.1814
  393MOL0     C52931   1.766   4.581   7.037 -0.9033  0.2910  1.0537
  393MOL0     C52932   1.611   4.623   7.046 -0.1823 -0.2164 -0.8558
  393MOL0     C52933   1.562   4.686   6.921 -0.6425 -0.1352  0.2687
  393MOL0     C52934   1.420   4.737   6.933  0.0837 -0.0142 -0.2865
  393MOL0     C52935   1.341   4.726   6.804 -0.0155  0.2635  0.4447
  393MOL0     C52936   1.342   4.850   6.708  0.8698 -0.1083  0.0354
  393MOL0     N52937   1.466   4.893   6.664 -1.2272 -0.3624  0.6054
  393MOL0     C52938   1.549   4.823   6.579 -0.7945 -0.5371 -0.3512
  393MOL0     C52939   1.671   4.892   6.575 -0.4373  0.9124 -0.5010
  393MOL0     C52940   1.790   4.833   6.510 -0.4557 -0.0014 -0.0378
  393MOL0     C52941   1.836   4.685   6.537  0.5256  1.1877 -0.0755
  393MOL0     C52942   1.914   4.679   6.668 -0.3012  0.4984 -0.6611
  393MOL0     C52943   1.984   4.543   6.684 -0.8358  0.3905  0.7377
  393MOL0     O52944   1.907   4.437   6.734 -0.4601  0.5035 -0.3697
  393MOL0     C52945   1.971   4.325   6.783  0.1536 -0.6221 -0.0675
  393MOL0     C52946   2.101   4.293   6.744 -0.1638 -0.0202 -0.5305
  393MOL0     C52947   2.158   4.173   6.790  0.0444  0.8311 -0.2386
  393MOL0     C52948   2.101   4.099   6.888 -0.2511  0.0075  1.0460
  393MOL0     C52949   2.158   3.974   6.936  0.5988  0.2022  0.7727
  393MOL0     O52950   2.291   3.950   6.922 -0.2333  0.0325  1.0264
  393MOL0     C52951   2.351   3.836   6.955  0.3827  0.4553 -0.9652
  393MOL0     C52952   2.488   3.852   6.956 -0.5123 -1.0240  0.2373
  393MOL0     C52953   2.578   3.752   6.983  1.1217  0.2743 -0.4860
  393MOL0     C52954   2.531   3.624   7.018 -0.3106 -0.0672  0.3874
  393MOL0     O52955   2.607   3.514   7.043 -0.4822 -0.4748  0.1642
  393MOL0     C52956   2.747   3.534   7.059 -0.5841  0.2281  0.0581
  393MOL0     C52957   2.815   3.414   7.138 -0.0861  0.4133  0.6749
  393MOL0     C52958   2.963   3.440   7.165 -0.6479  0.4379 -0.5784
  393MOL0     C52959   3.013   3.332   7.258 -0.8385  1.2438 -0.3409
  393MOL0     C52960   3.161   3.324   7.282 -0.0418  1.0144  0.1313
  393MOL0     C52961   3.217   3.203   7.360  0.0429 -0.0607 -0.3057
  393MOL0     C52962   3.368   3.197   7.349 -0.7744 -0.6307 -0.5169
  393MOL0     C52963   3.411   3.065   7.401 -0.6751  0.4588 -0.9091
  393MOL0    Cl52964   3.374   2.937   7.282  0.0592 -0.5121  0.1765
  393MOL0     C52965   2.391   3.601   7.016  0.2076  0.3337 -0.2787
  393MOL0     C52966   2.298   3.708   6.989 -0.7567  0.5680 -1.4545
  393MOL0     O52967   2.071   3.895   6.985 -0.6159 -0.5242 -0.0923
  393MOL0     C52968   1.972   4.139   6.935  0.2784  1.0609  0.2466
  393MOL0     C52969   1.904   4.254   6.874  0.4426  0.4257 -0.4402
  393MOL0     N52970   1.657   4.999   6.657  0.3708 -0.9757 -0.5624
  393MOL0     N52971   1.537   4.993   6.715  0.4127 -0.2364  0.1189
  393MOL0     C52972   2.086   4.222   7.362 -0.1437  0.0643 -0.2054
  393MOL0     C52973   2.085   4.166   7.499 -0.0223 -0.1813  0.4832
  393MOL0     C52974   2.120   4.219   7.934 -0.5396  0.1969 -0.2042
  393MOL0     C52975   2.082   4.343   7.985  0.3721 -0.0200  0.5727
  393MOL0     C52976   2.064   4.375   8.118  0.4947  0.3540 -0.0154
  393MOL0     C52977   2.109   4.290   8.209 -0.3210 -0.3051 -0.8924
  393MOL0     O52978   2.092   4.316   8.345 -0.0595 -0.4343  0.0353
  393MOL0     C52979   2.078   4.201   8.430  0.0826  0.5898  0.4500
  393MOL0     C52980   2.045   4.240   8.578 -0.0921 -0.3690  0.0844
  393MOL0     C52981   1.917   4.333   8.578 -1.2955  0.8365  0.6095
  393MOL0     C52982   1.860   4.354   8.717  0.5066 -0.9826 -0.7131
  393MOL0     C52983   1.937   4.459   8.780  0.2103  0.0883  0.2433
  393MOL0     C52984   2.013   4.547   8.827  1.4444  0.2898  0.5787
  393MOL0     C52985   2.147   4.161   8.166 -0.0420  0.7953  0.5275
  393MOL0     C52986   2.148   4.125   8.027 -1.0830 -0.3208 -0.4245
  393MOL0     C52987   2.205   3.995   7.990 -0.4632  0.0271 -0.5799
  393MOL0     H52988   1.917   4.415   7.656  1.8753  0.0362  1.8092
  393MOL0     H52989   1.897   4.491   7.432 -1.3895 -1.9323 -0.9503
  393MOL0     H52990   1.995   4.591   7.270  2.6856  1.1337 -1.4579
  393MOL0     H52991   2.011   4.556   7.108  1.3882  0.5878  1.2622
  393MOL0     H52992   1.775   4.626   7.237 -1.3610  2.7976 -3.7413
  393MOL0     H52993   1.739   4.452   7.208  1.9736 -0.8226  1.0371
  393MOL0     H52994   1.780   4.497   6.968 -0.5699  2.8702 -2.2420
  393MOL0     H52995   1.834   4.659   7.002 -3.3748  2.0789 -0.0920
  393MOL0     H52996   1.543   4.539   7.065 -1.7535  1.3787  1.1549
  393MOL0     H52997   1.592   4.698   7.124  0.7545  1.3621 -2.1016
  393MOL0     H52998   1.622   4.773   6.893 -2.2701  0.9015 -0.1721
  393MOL0     H52999   1.563   4.608   6.844 -0.9717 -2.6088  2.6351
  393MOL0     H53000   1.364   4.676   7.004 -0.2902  0.5013 -0.1228
  393MOL0     H53001   1.409   4.837   6.977  2.6467  0.3976 -0.4168
  393MOL0     H53002   1.243   4.714   6.852 -0.2302  2.8247  0.8074
  393MOL0     H53003   1.365   4.638   6.745 -1.3460  0.7689 -0.9333
  393MOL0     H53004   1.267   4.850   6.627  1.0981  2.7142 -0.2716
  393MOL0     H53005   1.309   4.943   6.756  2.2685  0.7408 -0.5913
  393MOL0     H53006   1.530   4.725   6.537 -3.6996 -0.4751  0.5684
  393MOL0     H53007   1.757   4.830   6.406 -2.4640  3.0445  0.3798
  393MOL0     H53008   1.874   4.900   6.527  0.3184 -1.5045  2.7840
  393MOL0     H53009   1.745   4.625   6.536  2.0270 -1.2900 -2.6950
  393MOL0     H53010   1.900   4.653   6.454  1.2307  1.5702  0.3111
  393MOL0     H53011   1.840   4.683   6.749 -1.6997 -1.1557 -1.7646
  393MOL0     H53012   1.993   4.753   6.680 -0.9789  0.9482  1.4804
  393MOL0     H53013   2.071   4.560   6.748  2.1441  1.1807 -3.1630
  393MOL0     H53014   2.038   4.514   6.593 -0.6793  1.4708  0.4684
  393MOL0     H53015   2.155   4.350   6.670  1.3001 -1.3394 -0.5207
  393MOL0     H53016   2.251   4.141   6.745 -0.0880  0.3821 -0.1911
  393MOL0     H53017   2.527   3.947   6.921 -3.7254  1.1293  1.9240
  393MOL0     H53018   2.683   3.779   6.976  0.4083  3.6115 -0.0047
  393MOL0     H53019   2.800   3.540   6.963 -2.0238 -2.2942 -1.0060
  393MOL0     H53020   2.760   3.617   7.129 -1.6641 -0.7543  1.4555
  393MOL0     H53021   2.764   3.386   7.231  0.7149 -1.9598  0.4663
  393MOL0     H53022   2.815   3.322   7.078 -1.7166  0.1839  0.9693
  393MOL0     H53023   3.023   3.430   7.075  0.2519 -1.3873  0.1836
  393MOL0     H53024   2.983   3.537   7.212  0.3340  0.0082 -0.0968
  393MOL0     H53025   2.973   3.236   7.226 -0.7430  0.8947  0.5409
  393MOL0     H53026   2.950   3.356   7.344 -1.3065  2.6063 -1.0339
  393MOL0     H53027   3.204   3.413   7.330 -1.4270 -0.0806  3.6398
  393MOL0     H53028   3.201   3.308   7.181 -0.8912 -2.9889  0.2683
  393MOL0     H53029   3.192   3.215   7.466 -1.6878 -0.8141 -0.5934
  393MOL0     H53030   3.170   3.112   7.320 -0.5178 -0.2454  0.7323
  393MOL0     H53031   3.397   3.275   7.420 -0.4140 -0.1918 -1.1275
  393MOL0     H53032   3.396   3.222   7.246  3.4245 -2.2502  0.0697
  393MOL0     H53033   3.519   3.060   7.417 -0.5482  2.8063 -0.7163
  393MOL0     H53034   3.357   3.035   7.491 -1.5765 -0.3862 -1.7054
  393MOL0     H53035   2.352   3.501   7.031 -1.0152  0.6164 -1.4236
  393MOL0     H53036   2.194   3.676   6.984  0.1146 -2.9394  0.0154
  393MOL0     H53037   1.913   4.092   7.013  1.5998 -1.9644 -0.4345
  393MOL0     H53038   1.805   4.281   6.910  0.5983  1.1675 -0.5563
  393MOL0     H53039   2.134   4.165   7.283 -0.2736  0.7193 -0.7644
  393MOL0     H53040   2.142   4.075   7.511  1.8724  0.6876 -1.4581
  393MOL0     H53041   2.044   4.421   7.919  0.4357  0.1768  0.7657
  393MOL0     H53042   2.034   4.471   8.160  1.5812  1.1386 -0.9724
  393MOL0     H53043   2.173   4.148   8.426  2.8991  5.2146 -0.5202
  393MOL0     H53044   1.995   4.139   8.393 -1.4755  2.0384  1.3327
  393MOL0     H53045   2.144   4.274   8.610  0.2249  0.5802 -1.7462
  393MOL0     H53046   2.029   4.147   8.632 -1.6833 -0.7711 -1.0042
  393MOL0     H53047   1.845   4.301   8.502  1.0685  2.3087 -2.4666
  393MOL0     H53048   1.955   4.427   8.537  0.8249  0.6040  1.8826
  393MOL0     H53049   1.758   4.390   8.700  0.6906  0.2679  0.6290
  393MOL0     H53050   1.843   4.262   8.774 -2.1318 -1.5283 -2.1700
  393MOL0     H53051   2.060   4.637   8.858 -0.6818  1.8295 -0.4182
  393MOL0     H53052   2.181   4.083   8.233 -0.3565  0.6276  0.4928
  393MOL0     H53053   2.158   3.952   7.901  0.8886 -3.0159  0.0425
  393MOL0     H53054   2.304   4.011   7.946  0.1801  0.7752  1.0720
  393MOL0     H53055   2.214   3.923   8.071 -0.1960  0.6066 -0.0875
  394MOL0     O53056   5.531   3.100   7.076  0.0485  0.1873 -0.4713
  394MOL0     C53057   5.524   3.214   7.028 -0.2907 -0.6373 -0.8885
  394MOL0     O53058   5.619   3.317   7.056  0.6133  0.3969 -0.1277
  394MOL0     C53059   5.696   3.303   7.165  0.2451  0.0773  0.2510
  394MOL0     C53060   5.819   3.238   7.166 -0.1596 -0.0222 -0.6274
  394MOL0     C53061   5.879   3.226   7.295 -0.2365 -0.0765  0.5931
  394MOL0     C53062   5.828   3.277   7.414  0.3934 -0.1465  1.1502
  394MOL0     O53063   5.906   3.249   7.526 -0.5827 -0.0727  0.5067
  394MOL0     C53064   5.894   3.334   7.638  0.1108 -0.2840  0.2834
  394MOL0     C53065   5.992   3.285   7.739 -0.0686 -0.9277 -0.3660
  394MOL0     C53066   5.985   3.351   7.876  0.9311 -0.2736 -0.0786
  394MOL0     C53067   6.124   3.364   7.929 -0.1122 -0.0823 -0.2787
  394MOL0     C53068   6.110   3.425   8.071  0.7840 -0.4524 -0.3834
  394MOL0     C53069   6.217   3.517   8.105  0.6534 -1.1286 -1.5109
  394MOL0     C53070   6.361   3.449   8.123  0.1158 -0.2403  1.1984
  394MOL0     C53071   6.368   3.328   8.212 -0.5054  0.9149 -1.1197
  394MOL0     N53072   6.323   3.363   8.351  0.6193 -0.2745  0.8543
  394MOL0     C53073   6.392   3.450   8.430 -0.7695 -0.1935  0.1800
  394MOL0     C53074   6.321   3.450   8.546 -0.6085  0.1045 -0.2872
  394MOL0     C53075   6.374   3.516   8.674  0.0016  0.2694  0.2843
  394MOL0     C53076   6.469   3.428   8.741  0.0227  0.6616 -0.0927
  394MOL0     C53077   6.520   3.490   8.868  0.3218  0.1237 -0.4571
  394MOL0     C53078   6.666   3.437   8.898  0.5570  0.9492 -0.1932
  394MOL0     O53079   6.705   3.484   9.029 -0.3547  0.1511 -0.5474
  394MOL0     C53080   6.836   3.522   9.036  0.5401 -0.9598  0.6922
  394MOL0     C53081   6.932   3.431   8.987  0.9019 -0.0101 -0.2528
  394MOL0     C53082   7.065   3.470   8.986  0.3535  0.3606 -0.0488
  394MOL0     C53083   7.112   3.597   9.028 -0.6541 -0.2632  0.3610
  394MOL0     C53084   7.250   3.641   9.024  0.3064  0.4993 -0.3365
  394MOL0     O53085   7.270   3.773   9.015 -0.5553 -0.3369  0.0302
  394MOL0     C53086   7.400   3.826   9.038  0.2287  0.4805  0.4064
  394MOL0     C53087   7.448   3.846   9.164 -0.4084  0.3425 -0.0228
  394MOL0     C53088   7.585   3.850   9.196 -0.0960  0.0780 -0.4198
  394MOL0     C53089   7.667   3.869   9.081  0.1969  0.4235 -0.6223
  394MOL0     O53090   7.795   3.911   9.099  0.1238 -0.1083 -0.0675
  394MOL0     C53091   7.828   4.022   9.181  0.5391 -1.0543 -0.2685
  394MOL0     C53092   7.768   4.157   9.132  0.4149  0.4456 -0.0689
  394MOL0     C53093   7.827   4.204   8.997  0.4093  0.3178  0.4383
  394MOL0     C53094   7.725   4.301   8.936 -0.1821  0.6737 -0.3952
  394MOL0     C53095   7.766   4.350   8.799  0.3315  0.1622  0.8129
  394MOL0     C53096   7.896   4.442   8.801 -0.4493  0.0560 -0.0760
  394MOL0     C53097   7.907   4.532   8.674  0.3100 -0.6654 -0.2713
  394MOL0     C53098   8.047   4.601   8.678  0.4305 -0.4680  0.2999
  394MOL0    Cl53099   8.038   4.715   8.809 -0.2318 -0.5344 -0.5179
  394MOL0     C53100   7.620   3.859   8.950 -0.0118 -1.2307 -0.5709
  394MOL0     C53101   7.486   3.842   8.927  0.1151 -0.6070 -1.1061
  394MOL0     O53102   7.338   3.554   9.018 -0.6680 -0.6350 -0.1350
  394MOL0     C53103   7.013   3.690   9.070 -0.1885  0.4004 -0.3932
  394MOL0     C53104   6.879   3.654   9.073  0.4273 -0.1431 -0.0948
  394MOL0     N53105   6.197   3.377   8.521  0.8008 -0.3164  0.3703
  394MOL0     N53106   6.201   3.329   8.396 -0.0218  0.1989  0.0846
  394MOL0     C53107   5.720   3.363   7.410 -0.4364 -0.0239  0.3254
  394MOL0     C53108   5.653   3.359   7.289  0.0893 -0.2727  0.2440
  394MOL0     C53109   5.412   3.236   6.928  0.2475 -1.3267 -0.4966
  394MOL0     C53110   5.441   3.342   6.831  0.3625  0.0989 -0.4502
  394MOL0     C53111   5.344   3.377   6.743  0.3886  0.4976  0.3648
  394MOL0     C53112   5.218   3.327   6.738  0.0891  0.3463 -0.0258
  394MOL0     O53113   5.131   3.379   6.646  1.3294 -0.0090 -0.7914
  394MOL0     C53114   4.999   3.321   6.644  0.0304 -0.7631  0.3439
  394MOL0     C53115   4.905   3.405   6.559  0.3740  0.3866 -0.5168
  394MOL0     C53116   4.882   3.544   6.607 -0.4718  0.3146  0.9083
  394MOL0     C53117   4.770   3.553   6.717 -0.7271  0.4937 -0.3408
  394MOL0     C53118   4.754   3.697   6.753  0.5708 -0.2782 -0.5523
  394MOL0     C53119   4.747   3.821   6.760 -0.1647  1.3153  0.0422
  394MOL0     C53120   5.188   3.216   6.823  0.4611 -0.1678  0.3753
  394MOL0     C53121   5.286   3.171   6.922 -0.0355 -0.3508  0.1790
  394MOL0     C53122   5.240   3.067   7.016  0.0968  0.8667 -0.3872
  394MOL0     H53123   5.869   3.202   7.077 -0.8527 -1.0810 -0.6082
  394MOL0     H53124   5.979   3.183   7.302 -1.0368 -2.2034 -0.0373
  394MOL0     H53125   5.924   3.438   7.622 -0.8701 -0.2084 -1.2205
  394MOL0     H53126   5.800   3.322   7.693  1.0493  0.2869  2.1049
  394MOL0     H53127   6.093   3.311   7.706  0.0944 -2.8327 -1.5288
  394MOL0     H53128   5.998   3.176   7.750 -2.2251 -1.0194  0.4016
  394MOL0     H53129   5.925   3.297   7.949  0.2022  1.2685  0.5040
  394MOL0     H53130   5.943   3.452   7.867  0.4244 -0.6442 -2.8290
  394MOL0     H53131   6.171   3.265   7.936  2.1127  0.9541  0.4658
  394MOL0     H53132   6.192   3.431   7.877 -0.0569  0.8812  0.9982
  394MOL0     H53133   6.015   3.480   8.074  0.6712 -0.6891  1.7794
  394MOL0     H53134   6.104   3.342   8.143  1.2787  1.3265  1.8216
  394MOL0     H53135   6.217   3.600   8.034 -0.6889 -1.1664 -1.5792
  394MOL0     H53136   6.200   3.549   8.209 -0.1795 -3.4445 -0.8874
  394MOL0     H53137   6.416   3.531   8.169 -1.9863  0.1174  3.2454
  394MOL0     H53138   6.405   3.417   8.028 -0.7519 -0.8362  0.9766
  394MOL0     H53139   6.328   3.232   8.180  0.8620  0.1857 -0.7490
  394MOL0     H53140   6.471   3.309   8.246 -0.2657  1.3291 -1.5957
  394MOL0     H53141   6.488   3.498   8.416  0.2404 -1.9786  0.7139
  394MOL0     H53142   6.417   3.613   8.647  2.1530 -0.2254  1.7409
  394MOL0     H53143   6.290   3.535   8.741  0.1470  2.3702 -0.0690
  394MOL0     H53144   6.410   3.341   8.772  1.9208 -0.3940  0.6872
  394MOL0     H53145   6.551   3.403   8.673  0.6377 -0.2702  0.9595
  394MOL0     H53146   6.459   3.460   8.953  0.7200  1.1498  0.2095
  394MOL0     H53147   6.532   3.598   8.861 -0.6678  0.3161  0.6452
  394MOL0     H53148   6.726   3.461   8.810  1.0613  1.6881  0.3461
  394MOL0     H53149   6.657   3.330   8.919 -1.1779  1.7160  4.1457
  394MOL0     H53150   6.896   3.331   8.963 -2.6209  1.3278 -1.3164
  394MOL0     H53151   7.137   3.393   8.956  1.2242  1.6739 -1.4880
  394MOL0     H53152   7.386   3.822   9.250  1.6900  2.9948  2.4413
  394MOL0     H53153   7.613   3.860   9.300 -1.6452 -2.5399  0.3441
  394MOL0     H53154   7.796   4.014   9.285 -1.4038  0.4868 -0.6853
  394MOL0     H53155   7.937   4.023   9.176  0.4883 -0.8244 -3.1776
  394MOL0     H53156   7.659   4.153   9.129  0.4450 -0.4066 -0.1226
  394MOL0     H53157   7.787   4.241   9.199  2.2545 -1.2638  1.6691
  394MOL0     H53158   7.923   4.255   9.008  2.1908 -2.3759 -1.3517
  394MOL0     H53159   7.832   4.115   8.933 -1.0954 -0.9272  1.9699
  394MOL0     H53160   7.710   4.384   9.006  0.9623  0.6978 -0.1711
  394MOL0     H53161   7.632   4.246   8.920  0.3122 -0.4514  0.5069
  394MOL0     H53162   7.683   4.410   8.761  1.0706  2.7810  3.0000
  394MOL0     H53163   7.772   4.264   8.732 -0.3811  2.2448 -2.1095
  394MOL0     H53164   7.897   4.501   8.893 -0.3821 -0.4788  0.2690
  394MOL0     H53165   7.977   4.369   8.810 -0.7223 -0.1631  0.6811
  394MOL0     H53166   7.827   4.606   8.664  2.2886  1.2164 -5.5520
  394MOL0     H53167   7.890   4.470   8.586  0.8839  0.2137 -1.0169
  394MOL0     H53168   8.132   4.532   8.686  2.4590  1.9535  0.7600
  394MOL0     H53169   8.050   4.654   8.583 -0.3884  1.7827  1.4621
  394MOL0     H53170   7.696   3.864   8.873 -1.3522 -3.2002 -2.1173
  394MOL0     H53171   7.452   3.840   8.824 -0.2249  0.4953 -1.0302
  394MOL0     H53172   7.035   3.790   9.106 -0.6135  0.4855 -0.3687
  394MOL0     H53173   6.792   3.717   9.095 -0.7013 -0.4780 -3.0997
  394MOL0     H53174   5.690   3.420   7.497  0.3479 -1.1341  1.3579
  394MOL0     H53175   5.561   3.416   7.288 -0.5939 -1.3250  0.5920
  394MOL0     H53176   5.532   3.402   6.830 -0.4648  1.5041  1.7319
  394MOL0     H53177   5.354   3.469   6.686 -0.9351 -0.2299 -1.1241
  394MOL0     H53178   4.963   3.329   6.747 -0.0896 -0.6316  0.2925
  394MOL0     H53179   5.006   3.218   6.608 -0.1719  0.1502 -2.6139
  394MOL0     H53180   4.806   3.360   6.567  1.0416 -1.0302  0.3124
  394MOL0     H53181   4.942   3.398   6.456 -0.7267 -2.3595 -0.8257
  394MOL0     H53182   4.856   3.613   6.526  0.0816  0.6545  1.0121
  394MOL0     H53183   4.981   3.573   6.643  0.9507 -2.0191 -0.8559
  394MOL0     H53184   4.674   3.515   6.681 -0.8224 -0.2988  0.7202
  394MOL0     H53185   4.799   3.493   6.803 -2.6811  0.1630  0.1293
  394MOL0     H53186   4.739   3.924   6.786 -3.0225  1.1064  0.2419
  394MOL0     H53187   5.089   3.172   6.818  0.4386 -0.1282  0.4641
  394MOL0     H53188   5.157   3.008   6.975 -0.4876  1.3951  0.0209
  394MOL0     H53189   5.321   2.994   7.030  1.8546  2.9528  1.0437
  394MOL0     H53190   5.215   3.101   7.117  2.8361 -2.0628  1.4907
  395MOL0     O53191   1.424   5.994   4.812 -0.0419  0.6534 -0.1085
  395MOL0     C53192   1.321   6.037   4.868  0.6180 -0.5143 -0.0091
  395MOL0     O53193   1.282   6.165   4.892 -0.4886  0.3234 -0.0305
  395MOL0     C53194   1.376   6.273   4.871 -0.3907 -0.0410 -0.6118
  395MOL0     C53195   1.393   6.321   4.743  0.3113  0.8474  0.6883
  395MOL0     C53196   1.489   6.410   4.711 -0.5629  0.7187 -0.0722
  395MOL0     C53197   1.572   6.465   4.807  0.0462 -0.5451 -0.4670
  395MOL0     O53198   1.667   6.554   4.762  0.0873 -0.3369  0.2943
  395MOL0     C53199   1.763   6.624   4.853  0.9446 -0.0665 -0.5845
  395MOL0     C53200   1.891   6.637   4.769 -0.3123  0.1055  0.4720
  395MOL0     C53201   1.984   6.520   4.800 -0.5457 -1.2464 -0.9479
  395MOL0     C53202   2.021   6.517   4.949 -0.0899 -0.0900 -0.4741
  395MOL0     C53203   2.145   6.428   4.969 -0.2585 -0.8482 -0.8331
  395MOL0     C53204   2.122   6.279   4.962  0.9829  0.2601 -0.5784
  395MOL0     C53205   2.259   6.212   4.987 -0.3446 -0.2263 -0.0208
  395MOL0     C53206   2.312   6.231   5.124 -0.2938 -0.4339 -0.7585
  395MOL0     N53207   2.224   6.179   5.229  0.1928  1.0393 -0.1110
  395MOL0     C53208   2.210   6.046   5.254  0.0585 -1.3454 -0.2282
  395MOL0     C53209   2.108   6.036   5.350  0.5916 -0.2310 -0.5403
  395MOL0     C53210   2.042   5.909   5.408 -0.3918  0.6351 -0.3154
  395MOL0     C53211   1.921   5.856   5.337  0.6732 -0.2721  0.7689
  395MOL0     C53212   1.893   5.723   5.406  0.4289  0.5445  0.1033
  395MOL0     C53213   1.755   5.677   5.367 -0.2046  0.6209  0.3970
  395MOL0     O53214   1.749   5.624   5.225  0.4826 -0.6533  0.0169
  395MOL0     C53215   1.821   5.511   5.195 -0.7494 -0.1514  0.8489
  395MOL0     C53216   1.874   5.418   5.290 -0.4710 -0.1668 -0.6757
  395MOL0     C53217   1.920   5.288   5.243 -0.0979 -0.5987  0.2151
  395MOL0     C53218   1.946   5.273   5.107  0.3034 -0.5629 -0.3486
  395MOL0     C53219   2.006   5.148   5.044 -0.3729 -0.0599  0.9844
  395MOL0     O53220   1.970   5.127   4.919 -0.0216 -0.1743  0.5958
  395MOL0     C53221   2.004   5.024   4.836  0.4956 -0.0529 -0.6430
  395MOL0     C53222   1.988   5.045   4.699  0.7344  0.1317 -0.7638
  395MOL0     C53223   2.029   4.951   4.609  0.1937 -0.6249 -0.2554
  395MOL0     C53224   2.068   4.826   4.643  0.3649  0.6531 -0.5420
  395MOL0     O53225   2.080   4.736   4.545  0.1812  0.8231  0.8641
  395MOL0     C53226   2.013   4.608   4.566 -0.9072  0.1488  0.3156
  395MOL0     C53227   1.859   4.612   4.550  1.1115  0.5132 -0.2841
  395MOL0     C53228   1.806   4.592   4.400 -0.0753 -0.2126 -0.8998
  395MOL0     C53229   1.659   4.635   4.410  0.0038  0.2216  0.3018
  395MOL0     C53230   1.566   4.620   4.289 -0.2655  0.7579 -0.3391
  395MOL0     C53231   1.526   4.475   4.256  0.0375  0.1528  0.2537
  395MOL0     C53232   1.427   4.468   4.145  0.0692  0.1238  0.0904
  395MOL0     C53233   1.405   4.321   4.111 -0.4589  0.1850  0.1988
  395MOL0    Cl53234   1.342   4.211   4.259 -0.0177 -0.1092  0.4574
  395MOL0     C53235   2.100   4.807   4.781 -0.3388 -0.2695 -0.4246
  395MOL0     C53236   2.069   4.899   4.876  0.3209  0.1592  0.0629
  395MOL0     O53237   2.071   5.071   5.122  0.8210 -0.1825  1.0774
  395MOL0     C53238   1.935   5.375   5.026 -0.7462  0.0603  0.1790
  395MOL0     C53239   1.872   5.492   5.068 -1.6139  0.3792  0.1463
  395MOL0     N53240   2.061   6.164   5.378 -0.6630  0.2188 -0.5707
  395MOL0     N53241   2.140   6.249   5.309 -0.3061 -0.4331  0.6881
  395MOL0     C53242   1.559   6.423   4.947 -0.1873  0.3759  0.5142
  395MOL0     C53243   1.456   6.329   4.977 -0.9807 -0.1873 -0.5526
  395MOL0     C53244   1.216   5.940   4.901 -0.0553 -0.4260 -0.0411
  395MOL0     C53245   1.134   5.878   4.801  0.2827 -0.4505  0.8601
  395MOL0     C53246   1.029   5.797   4.836  0.1557  0.4758  0.0495
  395MOL0     C53247   0.988   5.777   4.971 -0.1165 -0.5636  0.6910
  395MOL0     O53248   0.875   5.714   5.015  0.1261  0.0048  0.4387
  395MOL0     C53249   0.796   5.630   4.916 -0.0838  0.0875 -1.5834
  395MOL0     C53250   0.702   5.713   4.828  1.0363 -0.0765 -0.0426
  395MOL0     C53251   0.582   5.783   4.885  0.1756  0.2244 -1.0146
  395MOL0     C53252   0.442   5.710   4.851 -0.9603  0.1389  0.1356
  395MOL0     C53253   0.426   5.606   4.952 -0.0552  0.5909  0.4714
  395MOL0     C53254   0.426   5.519   5.030 -0.5537  0.5259  0.2958
  395MOL0     C53255   1.067   5.832   5.066  1.1721 -1.9093 -0.1107
  395MOL0     C53256   1.185   5.899   5.035 -1.3071 -1.0973 -0.4650
  395MOL0     C53257   1.286   5.937   5.141  0.2023  0.1872 -0.6925
  395MOL0     H53258   1.328   6.286   4.664 -2.3071  0.7921  2.7617
  395MOL0     H53259   1.509   6.434   4.607  1.6789 -1.2571 -0.1788
  395MOL0     H53260   1.721   6.722   4.875 -0.4130 -0.9437  1.0135
  395MOL0     H53261   1.780   6.567   4.945  1.1807  0.8180 -0.0739
  395MOL0     H53262   1.946   6.729   4.787  0.1648  0.0214 -0.4841
  395MOL0     H53263   1.870   6.627   4.662  1.7186 -0.1057  0.0347
  395MOL0     H53264   2.079   6.526   4.745 -0.5815  2.2466 -0.8302
  395MOL0     H53265   1.932   6.426   4.779 -0.6816 -1.4109  0.0667
  395MOL0     H53266   2.049   6.613   4.992  2.3422 -0.4845 -1.0245
  395MOL0     H53267   1.947   6.476   5.018 -1.5932  2.3522 -0.5336
  395MOL0     H53268   2.229   6.457   4.905  1.4831 -1.5076  1.0592
  395MOL0     H53269   2.174   6.456   5.071  3.4891 -0.2249 -1.9006
  395MOL0     H53270   2.044   6.261   5.036  1.4016  2.1309  0.3923
  395MOL0     H53271   2.081   6.257   4.863 -2.0997  1.5432  0.2989
  395MOL0     H53272   2.326   6.249   4.909  0.9853  1.7959  1.9898
  395MOL0     H53273   2.242   6.104   4.976 -5.3717  0.0607  2.3509
  395MOL0     H53274   2.403   6.172   5.114 -0.5777 -0.7487 -1.5114
  395MOL0     H53275   2.343   6.333   5.146 -3.5108  0.0440  2.6730
  395MOL0     H53276   2.259   5.968   5.197 -0.7937  0.9237 -4.5689
  395MOL0     H53277   2.117   5.829   5.407  0.3193  1.2907 -0.4321
  395MOL0     H53278   2.011   5.926   5.511  0.6450 -1.7902  0.4752
  395MOL0     H53279   1.839   5.926   5.357 -1.1732 -0.6701 -4.0063
  395MOL0     H53280   1.938   5.840   5.230 -0.2307  1.0497  0.4034
  395MOL0     H53281   1.887   5.737   5.515 -0.0505  1.2378 -0.0003
  395MOL0     H53282   1.972   5.652   5.383 -0.2711 -0.1892 -0.0649
  395MOL0     H53283   1.684   5.760   5.378 -2.1526 -0.9731  0.3939
  395MOL0     H53284   1.713   5.612   5.443  0.5435 -0.9528 -0.4915
  395MOL0     H53285   1.885   5.434   5.397 -0.7527 -1.6253 -0.3994
  395MOL0     H53286   1.938   5.206   5.312 -3.7116 -1.2225  0.6314
  395MOL0     H53287   1.937   5.141   4.688  1.0139  0.3123 -0.5192
  395MOL0     H53288   2.013   4.978   4.505 -0.9596  0.8507  0.2789
  395MOL0     H53289   2.050   4.532   4.497 -2.1677 -0.6750  0.5127
  395MOL0     H53290   2.036   4.577   4.668  1.9739 -0.2117 -0.3699
  395MOL0     H53291   1.819   4.535   4.616  1.4136  1.5290  1.1428
  395MOL0     H53292   1.819   4.710   4.580 -3.0381 -1.1627  0.2841
  395MOL0     H53293   1.864   4.662   4.339 -0.4399  0.0950 -0.9008
  395MOL0     H53294   1.817   4.489   4.365  4.7105  0.5664 -2.3026
  395MOL0     H53295   1.661   4.742   4.435  0.8172  0.4509 -0.7064
  395MOL0     H53296   1.615   4.577   4.492  0.3367  2.2990  2.0455
  395MOL0     H53297   1.634   4.654   4.210  2.5284 -4.4429 -0.6264
  395MOL0     H53298   1.477   4.684   4.297 -1.3357 -0.8002  0.5850
  395MOL0     H53299   1.619   4.426   4.228 -0.8644 -1.0685 -0.7162
  395MOL0     H53300   1.483   4.429   4.345 -0.1271 -2.5894 -1.1381
  395MOL0     H53301   1.462   4.524   4.058 -3.7426 -0.1498 -1.8428
  395MOL0     H53302   1.328   4.502   4.179  0.4822  2.9705 -1.3199
  395MOL0     H53303   1.341   4.320   4.022  0.1344  1.6973 -0.2717
  395MOL0     H53304   1.506   4.290   4.083 -0.2182  0.9189  0.2380
  395MOL0     H53305   2.130   4.708   4.813 -1.3813 -0.4108  0.1552
  395MOL0     H53306   2.099   4.882   4.979  0.5684  1.2842  0.1907
  395MOL0     H53307   1.964   5.384   4.922 -0.9236  0.0016  0.1238
  395MOL0     H53308   1.866   5.573   4.995 -2.0612  1.7314  1.6357
  395MOL0     H53309   1.617   6.471   5.026  1.8169 -0.7652 -0.1830
  395MOL0     H53310   1.438   6.305   5.082 -4.2397  0.3600 -0.8741
  395MOL0     H53311   1.152   5.904   4.697 -1.7717 -1.0717  0.3046
  395MOL0     H53312   0.973   5.752   4.754 -2.8988  0.7119  1.8452
  395MOL0     H53313   0.739   5.561   4.979  0.4454 -0.7280 -1.9945
  395MOL0     H53314   0.862   5.572   4.852  0.7954  0.7579 -1.2996
  395MOL0     H53315   0.665   5.639   4.757 -0.2220 -2.2578  2.6700
  395MOL0     H53316   0.756   5.790   4.772 -1.6536  3.2980  1.6442
  395MOL0     H53317   0.593   5.889   4.861 -2.5273  0.8993  0.2756
  395MOL0     H53318   0.595   5.784   4.994  3.8920 -0.8486 -1.3215
  395MOL0     H53319   0.370   5.792   4.861 -1.3642  0.6037 -4.6058
  395MOL0     H53320   0.434   5.662   4.754 -1.2212  1.0101 -0.2786
  395MOL0     H53321   0.427   5.432   5.093 -2.4114 -1.2034 -1.9011
  395MOL0     H53322   1.030   5.798   5.163 -0.2356 -2.0009 -0.6624
  395MOL0     H53323   1.390   5.930   5.108  1.0164  0.2417  1.6620
  395MOL0     H53324   1.266   6.041   5.168 -1.5601  0.4059 -2.5574
  395MOL0     H53325   1.267   5.878   5.231  4.1912  1.2534  1.0923
  396MOL0     O53326   3.998   4.134   5.893 -0.7365  0.6436 -0.4301
  396MOL0     C53327   3.890   4.118   5.840  0.1753 -0.3293 -1.0880
  396MOL0     O53328   3.868   4.049   5.729 -0.6362 -0.1956  0.0777
  396MOL0     C53329   3.974   3.989   5.655 -0.1073  0.3741  0.2889
  396MOL0     C53330   4.090   4.054   5.606 -0.3507 -0.7989 -0.1320
  396MOL0     C53331   4.182   3.990   5.530 -0.2014 -0.1339  0.4442
  396MOL0     C53332   4.163   3.851   5.500 -0.8275 -0.1877  1.1195
  396MOL0     O53333   4.266   3.778   5.447 -0.5473  0.1847 -0.6365
  396MOL0     C53334   4.391   3.823   5.441 -0.8558 -0.2365 -0.1765
  396MOL0     C53335   4.493   3.711   5.412  0.1055  0.6930 -0.7600
  396MOL0     C53336   4.470   3.647   5.273  0.5694 -0.4091  0.1232
  396MOL0     C53337   4.591   3.557   5.235 -0.5191  0.2561 -0.4664
  396MOL0     C53338   4.724   3.629   5.198  0.8914 -0.3065  0.3754
  396MOL0     C53339   4.700   3.726   5.077  0.0856  0.6208  0.5945
  396MOL0     C53340   4.823   3.772   5.011  0.6917 -0.6356  0.6930
  396MOL0     C53341   4.919   3.832   5.109 -0.2804  0.1095 -0.4801
  396MOL0     N53342   5.028   3.908   5.046 -0.0709  0.3387 -0.4062
  396MOL0     C53343   5.150   3.854   5.006 -0.7210  0.6566 -0.7150
  396MOL0     C53344   5.201   3.949   4.924  0.1896  0.7057 -0.2411
  396MOL0     C53345   5.331   3.938   4.852  0.7236 -0.0293 -0.5946
  396MOL0     C53346   5.307   3.888   4.709  0.1176  0.6058 -0.2789
  396MOL0     C53347   5.444   3.891   4.643  2.0600  0.7735 -0.5736
  396MOL0     C53348   5.436   3.809   4.516  0.3895 -0.0908 -0.5830
  396MOL0     O53349   5.558   3.816   4.446 -0.0228  0.7817 -0.6173
  396MOL0     C53350   5.580   3.913   4.366 -0.8176 -0.3590  1.0989
  396MOL0     C53351   5.704   3.900   4.296  0.0948 -0.2867 -0.1061
  396MOL0     C53352   5.739   4.006   4.209 -0.3506  0.4864 -0.1650
  396MOL0     C53353   5.656   4.118   4.188 -0.7712 -0.1378 -0.0312
  396MOL0     C53354   5.691   4.225   4.086  1.0565  0.4872 -0.5697
  396MOL0     O53355   5.584   4.292   4.031  0.0692  0.1143  0.0629
  396MOL0     C53356   5.622   4.386   3.943  0.5429 -0.0777 -0.1775
  396MOL0     C53357   5.635   4.517   3.994  0.4575  1.3987 -0.9279
  396MOL0     C53358   5.683   4.616   3.908  0.4656 -0.4908 -0.5120
  396MOL0     C53359   5.703   4.593   3.773  0.0744  0.4293  0.2495
  396MOL0     O53360   5.726   4.695   3.691  0.8605 -1.3058 -0.7171
  396MOL0     C53361   5.639   4.810   3.699 -0.2044 -0.3890 -0.0483
  396MOL0     C53362   5.623   4.866   3.552 -0.5274 -0.0079 -0.9199
  396MOL0     C53363   5.580   5.011   3.556  1.2551 -0.0835  0.2023
  396MOL0     C53364   5.582   5.072   3.414 -0.2683 -0.7839 -0.0297
  396MOL0     C53365   5.492   5.188   3.398  0.5595 -0.4501 -0.4871
  396MOL0     C53366   5.494   5.298   3.508 -0.5372  0.8283  1.0752
  396MOL0     C53367   5.625   5.375   3.516 -0.9576  0.2075  0.3510
  396MOL0     C53368   5.685   5.428   3.386 -0.1236 -0.8099  0.5253
  396MOL0    Cl53369   5.853   5.492   3.380 -0.3616 -0.0396  0.5481
  396MOL0     C53370   5.695   4.464   3.730 -0.8789  0.0891  0.2216
  396MOL0     C53371   5.650   4.361   3.811 -0.5292  0.3611 -1.4694
  396MOL0     O53372   5.805   4.244   4.054  0.1630  0.2861  0.6572
  396MOL0     C53373   5.542   4.133   4.264  0.8205  0.2104 -0.3918
  396MOL0     C53374   5.496   4.030   4.344  0.2238 -0.0724  0.3412
  396MOL0     N53375   5.110   4.053   4.904 -0.5474 -0.3450 -0.6305
  396MOL0     N53376   5.010   4.030   4.984  0.6041  0.0348  0.2262
  396MOL0     C53377   4.061   3.781   5.558  0.2419 -0.0771  0.0608
  396MOL0     C53378   3.962   3.850   5.631 -0.6442 -0.6849 -1.1566
  396MOL0     C53379   3.787   4.223   5.882 -0.1343  0.4426 -0.0281
  396MOL0     C53380   3.668   4.240   5.802 -0.4520 -0.4364  0.1830
  396MOL0     C53381   3.569   4.340   5.829  0.3509  0.1180 -0.3578
  396MOL0     C53382   3.585   4.425   5.946  0.5576 -0.3322  0.4562
  396MOL0     O53383   3.490   4.527   5.966  0.0569  0.1170 -0.0076
  396MOL0     C53384   3.521   4.653   6.021 -1.4913  0.4403 -0.3699
  396MOL0     C53385   3.428   4.754   5.949 -0.1071  0.3079 -0.4270
  396MOL0     C53386   3.438   4.902   6.005 -0.2822 -0.0452 -0.2023
  396MOL0     C53387   3.353   4.917   6.125  0.0696 -0.2143  0.0082
  396MOL0     C53388   3.211   4.945   6.086 -0.6729 -0.4189  0.0546
  396MOL0     C53389   3.098   4.981   6.072  0.3359  0.0910  0.2358
  396MOL0     C53390   3.704   4.409   6.019  0.4431  0.3084 -0.2986
  396MOL0     C53391   3.798   4.312   5.992  0.4141 -0.2094  1.2716
  396MOL0     C53392   3.911   4.321   6.082 -0.4430 -0.9033  0.3221
  396MOL0     H53393   4.114   4.157   5.630 -4.0310  0.2490 -0.3540
  396MOL0     H53394   4.263   4.047   5.486 -2.7720  1.8429 -2.1512
  396MOL0     H53395   4.406   3.906   5.370 -1.2383  0.2588  0.3115
  396MOL0     H53396   4.413   3.862   5.541 -3.9811 -0.2553  0.6157
  396MOL0     H53397   4.485   3.636   5.491  3.0129 -2.2539 -2.9987
  396MOL0     H53398   4.593   3.753   5.418  0.4755 -0.3976  2.6688
  396MOL0     H53399   4.452   3.730   5.205  1.2876 -0.5506 -0.2530
  396MOL0     H53400   4.382   3.582   5.265 -1.7222  2.3562  1.2749
  396MOL0     H53401   4.625   3.501   5.323  1.1779  2.0669  0.0933
  396MOL0     H53402   4.568   3.494   5.149  0.2776  1.7667 -1.8304
  396MOL0     H53403   4.764   3.683   5.285 -0.2133  0.5807  0.3553
  396MOL0     H53404   4.808   3.561   5.179  0.5942 -0.2944 -1.0875
  396MOL0     H53405   4.643   3.673   5.000 -0.3576  1.6401  0.2015
  396MOL0     H53406   4.635   3.813   5.087  1.3414  1.5431  0.9967
  396MOL0     H53407   4.797   3.831   4.922 -0.1596 -3.0677 -0.8041
  396MOL0     H53408   4.880   3.692   4.962 -0.7258 -1.6409  0.5973
  396MOL0     H53409   4.871   3.898   5.182  1.5518 -1.8400  2.7035
  396MOL0     H53410   4.959   3.753   5.173  0.6949 -0.6434 -1.9717
  396MOL0     H53411   5.201   3.761   5.027 -1.0619 -0.3301 -3.6969
  396MOL0     H53412   5.376   4.038   4.855  0.1155  0.2289  0.8515
  396MOL0     H53413   5.394   3.863   4.901  1.1443 -0.2723 -1.4849
  396MOL0     H53414   5.254   3.793   4.720  2.0645 -0.2533  2.7631
  396MOL0     H53415   5.242   3.961   4.658  0.8325  0.2932 -1.6929
  396MOL0     H53416   5.524   3.837   4.695  2.5620 -2.2788 -4.0980
  396MOL0     H53417   5.452   3.998   4.626  3.3387  1.1686  2.0576
  396MOL0     H53418   5.354   3.847   4.455 -0.9663 -0.9868  0.6196
  396MOL0     H53419   5.417   3.706   4.548 -1.3602  1.2219  3.3181
  396MOL0     H53420   5.766   3.811   4.297 -0.4931 -0.7024  0.6171
  396MOL0     H53421   5.829   3.984   4.152 -2.3046  1.3759 -3.8629
  396MOL0     H53422   5.618   4.533   4.100 -1.7217 -3.0821 -0.3442
  396MOL0     H53423   5.695   4.715   3.951  4.3950  0.6132 -3.5698
  396MOL0     H53424   5.539   4.778   3.731  0.3735  0.1281  2.5037
  396MOL0     H53425   5.679   4.889   3.762  0.3469  0.9658 -2.0150
  396MOL0     H53426   5.710   4.881   3.486  0.4328 -0.2271  0.2636
  396MOL0     H53427   5.552   4.807   3.493 -1.9701  2.4711 -1.7994
  396MOL0     H53428   5.474   5.007   3.584  0.2526 -3.8246 -3.1214
  396MOL0     H53429   5.642   5.071   3.623  2.6529 -2.3927  1.1038
  396MOL0     H53430   5.561   4.994   3.340 -0.5914 -1.9095  1.1897
  396MOL0     H53431   5.677   5.117   3.386 -0.1450 -1.5614 -0.9311
  396MOL0     H53432   5.389   5.152   3.396 -0.0961  1.2956 -0.3319
  396MOL0     H53433   5.509   5.227   3.297 -0.9424  1.9832  0.0898
  396MOL0     H53434   5.409   5.366   3.494 -1.9663 -0.4552  2.9344
  396MOL0     H53435   5.482   5.244   3.603 -1.2384  0.3625  0.7264
  396MOL0     H53436   5.705   5.313   3.560  0.8660  2.9084  1.1201
  396MOL0     H53437   5.608   5.459   3.583  2.7238  2.8215 -1.6160
  396MOL0     H53438   5.673   5.361   3.300 -1.1747  0.5219 -0.3981
  396MOL0     H53439   5.631   5.519   3.357  2.3308  0.2456 -1.1200
  396MOL0     H53440   5.729   4.449   3.628 -0.3833  0.9790  0.2458
  396MOL0     H53441   5.634   4.259   3.776 -0.9003 -0.2304  0.3109
  396MOL0     H53442   5.491   4.229   4.270  0.7180  0.0741  1.7204
  396MOL0     H53443   5.397   4.035   4.389  0.1043 -2.1482  0.4090
  396MOL0     H53444   4.045   3.678   5.528 -0.9110 -0.3719  1.5742
  396MOL0     H53445   3.886   3.788   5.677 -0.3307 -1.1883 -1.2981
  396MOL0     H53446   3.653   4.178   5.714 -0.5951 -2.8795  1.8522
  396MOL0     H53447   3.481   4.356   5.766 -0.6651  0.9543  1.2046
  396MOL0     H53448   3.627   4.680   6.007 -0.7832 -0.8245  2.0741
  396MOL0     H53449   3.501   4.665   6.128 -0.9121  3.7497 -0.5218
  396MOL0     H53450   3.321   4.731   5.943 -0.8368  2.5023  2.3353
  396MOL0     H53451   3.463   4.740   5.846  2.0515  0.9802  0.1775
  396MOL0     H53452   3.417   4.981   5.932  0.0479 -1.8978 -2.4117
  396MOL0     H53453   3.540   4.899   6.045 -0.2770 -3.9974 -0.1307
  396MOL0     H53454   3.360   4.834   6.196  0.3909  0.9272  1.3490
  396MOL0     H53455   3.386   5.005   6.180  1.5008 -1.4639  1.2489
  396MOL0     H53456   2.996   5.006   6.049  0.5377  0.4057 -0.3135
  396MOL0     H53457   3.709   4.474   6.106 -0.2352 -2.0780  1.6673
  396MOL0     H53458   3.942   4.223   6.120  0.8478  0.2846  2.6241
  396MOL0     H53459   4.002   4.356   6.032  0.6468 -1.5663  1.7350
  396MOL0     H53460   3.917   4.394   6.164  0.6896  0.6450 -1.0857
  397MOL0     O53461   9.866   8.547   0.347 -0.5659  0.8631 -1.0274
  397MOL0     C53462   9.896   8.664   0.327  0.5298 -0.9998  0.0737
  397MOL0     O53463   9.805   8.772   0.299  1.1231  0.3186 -1.1395
  397MOL0     C53464   9.674   8.740   0.283 -0.1998 -1.4550 -0.1494
  397MOL0     C53465   9.615   8.701   0.160  0.1281  0.1013 -0.7631
  397MOL0     C53466   9.485   8.658   0.151 -0.5995  0.5244  0.4882
  397MOL0     C53467   9.403   8.654   0.263  0.6584  0.1786  0.5305
  397MOL0     O53468   9.271   8.620   0.258 -0.4370 -0.2870 -0.1450
  397MOL0     C53469   9.229   8.519   0.174  0.4838 -0.8050 -1.0343
  397MOL0     C53470   9.081   8.486   0.193 -0.5830  0.2093 -1.0318
  397MOL0     C53471   9.065   8.391   0.317  0.0329 -0.6635 -0.8280
  397MOL0     C53472   8.932   8.306   0.315 -0.8060  0.2867 -0.1846
  397MOL0     C53473   8.968   8.180   0.397 -0.5234 -0.4789  0.0049
  397MOL0     C53474   8.843   8.089   0.418 -0.2898 -0.4727 -0.0843
  397MOL0     C53475   8.712   8.166   0.452  0.1818  0.2622  0.1831
  397MOL0     C53476   8.612   8.066   0.523 -0.1191  0.1707 -0.0646
  397MOL0     N53477   8.658   8.024   0.658 -0.8927 -0.2128 -0.0804
  397MOL0     C53478   8.732   8.103   0.749 -0.4192 -0.6723 -0.8657
  397MOL0     C53479   8.742   8.019   0.855  0.1087 -0.0183 -0.6189
  397MOL0     C53480   8.816   8.026   0.986  0.5186  0.0713 -0.1927
  397MOL0     C53481   8.934   7.933   0.984 -0.2786 -0.6654 -0.5055
  397MOL0     C53482   8.995   7.936   1.120 -1.4174  0.2474  0.1278
  397MOL0     C53483   9.134   7.868   1.127  0.0811  0.3799  0.5163
  397MOL0     O53484   9.136   7.726   1.087  0.5765 -0.1043  0.1540
  397MOL0     C53485   9.228   7.643   1.126 -0.3383 -0.1221  0.2755
  397MOL0     C53486   9.347   7.681   1.172 -0.0460  0.5508 -0.8311
  397MOL0     C53487   9.452   7.582   1.195  0.1714 -0.2953  1.6249
  397MOL0     C53488   9.446   7.452   1.163  0.6673 -0.9337  0.5619
  397MOL0     C53489   9.553   7.356   1.195 -0.0372  0.5790  0.4977
  397MOL0     O53490   9.676   7.410   1.219  0.5115 -0.4903 -0.1985
  397MOL0     C53491   9.788   7.331   1.230 -0.8915  0.8028 -0.2263
  397MOL0     C53492   9.876   7.383   1.326  0.4194  0.6639  0.6679
  397MOL0     C53493   9.999   7.323   1.328 -0.4590  0.5828  0.8932
  397MOL0     C53494  10.042   7.215   1.249 -0.3980 -0.8416  0.6410
  397MOL0     O53495  10.161   7.153   1.249 -0.3858  2.0389  0.0114
  397MOL0     C53496  10.259   7.190   1.337  0.5210 -0.7818 -0.6565
  397MOL0     C53497  10.390   7.160   1.264  0.9415  0.3253 -0.6031
  397MOL0     C53498  10.426   7.013   1.239 -0.6012 -0.2954  0.5642
  397MOL0     C53499  10.382   6.922   1.365  0.5356  0.2148 -0.7220
  397MOL0     C53500  10.442   6.782   1.330 -0.4990 -0.6563 -0.3348
  397MOL0     C53501  10.571   6.762   1.397 -0.0303  0.8545  0.3959
  397MOL0     C53502  10.558   6.720   1.550 -0.8644 -0.2368 -0.8442
  397MOL0     C53503  10.635   6.815   1.644  0.6306  0.8217  0.5779
  397MOL0    Cl53504  10.615   6.757   1.812  0.0860  0.5763  0.8014
  397MOL0     C53505   9.953   7.167   1.151  0.3892 -0.4919  0.1870
  397MOL0     C53506   9.827   7.229   1.143 -0.3440  0.9440 -0.2671
  397MOL0     O53507   9.531   7.234   1.193  0.3837 -0.1803  0.5492
  397MOL0     C53508   9.318   7.412   1.130 -0.4503 -0.7663  0.2227
  397MOL0     C53509   9.205   7.502   1.118 -0.1250 -0.1469  0.6356
  397MOL0     N53510   8.684   7.904   0.829 -0.4197  0.3086  0.8040
  397MOL0     N53511   8.647   7.898   0.706 -0.3438 -0.1062 -0.4237
  397MOL0     C53512   9.457   8.695   0.380 -0.9483  0.1230  0.7725
  397MOL0     C53513   9.596   8.728   0.393  0.7072 -0.5069  0.1892
  397MOL0     C53514  10.043   8.704   0.331  0.2243 -0.5943 -0.0310
  397MOL0     C53515  10.081   8.813   0.252  0.2693 -0.1824  0.0824
  397MOL0     C53516  10.211   8.861   0.252 -0.0171 -0.5273 -0.7801
  397MOL0     C53517  10.313   8.800   0.328  0.6879  0.5901 -0.0788
  397MOL0     O53518  10.426   8.877   0.334  0.0347  0.3820  0.1614
  397MOL0     C53519  10.535   8.835   0.421  0.7414  0.1101  0.6391
  397MOL0     C53520  10.635   8.740   0.359  0.9959 -0.6368  0.6687
  397MOL0     C53521  10.676   8.781   0.216 -0.0554  0.5061  0.5124
  397MOL0     C53522  10.730   8.925   0.210 -0.6920  0.7527  0.0473
  397MOL0     C53523  10.844   8.945   0.301 -0.7635  0.5097 -0.2975
  397MOL0     C53524  10.940   8.993   0.370  0.0679  0.5748  0.7228
  397MOL0     C53525  10.265   8.683   0.403  0.2095 -0.2253 -0.7184
  397MOL0     C53526  10.138   8.639   0.410  0.4713  0.2049  0.0435
  397MOL0     C53527  10.098   8.538   0.504 -0.0687 -0.2161  0.6354
  397MOL0     H53528   9.677   8.706   0.071 -1.0530  0.6977 -1.5691
  397MOL0     H53529   9.447   8.628   0.054 -3.0499  4.2694  0.0926
  397MOL0     H53530   9.230   8.559   0.072 -1.0614 -1.1726 -1.2029
  397MOL0     H53531   9.301   8.437   0.181  3.7285  1.8769 -0.4310
  397MOL0     H53532   9.060   8.439   0.096 -1.9865 -0.3706 -0.4614
  397MOL0     H53533   9.023   8.576   0.214  1.4871  1.1344  1.2437
  397MOL0     H53534   9.076   8.449   0.409  1.5305 -1.9791 -0.1344
  397MOL0     H53535   9.158   8.334   0.318 -0.2890 -1.4323 -3.7324
  397MOL0     H53536   8.853   8.374   0.347  0.9376  3.8574 -2.7496
  397MOL0     H53537   8.910   8.271   0.213 -2.9604  0.7019  0.1001
  397MOL0     H53538   9.052   8.135   0.345 -0.3024 -2.3672  1.8103
  397MOL0     H53539   9.019   8.201   0.491  3.7618 -2.2578 -1.6792
  397MOL0     H53540   8.834   8.037   0.322 -1.9027  1.0896 -0.8382
  397MOL0     H53541   8.863   8.021   0.501 -0.7461 -1.4527 -0.7676
  397MOL0     H53542   8.656   8.206   0.367 -1.7714  1.5010  1.9361
  397MOL0     H53543   8.721   8.253   0.519 -1.1456  2.0474 -1.8209
  397MOL0     H53544   8.514   8.113   0.526 -0.3901 -0.3685 -0.3481
  397MOL0     H53545   8.604   7.979   0.458 -2.8860  1.9281 -2.3503
  397MOL0     H53546   8.782   8.199   0.739 -1.2700  0.2561  2.4801
  397MOL0     H53547   8.867   8.121   1.005  3.0856 -0.4365 -3.5757
  397MOL0     H53548   8.742   7.998   1.062 -0.4530 -1.3060 -1.5852
  397MOL0     H53549   8.902   7.833   0.953  0.5063 -0.8505 -0.7460
  397MOL0     H53550   9.006   7.974   0.912  0.8098 -2.7925 -0.7088
  397MOL0     H53551   8.916   7.892   1.181 -2.2150 -2.5690 -2.6510
  397MOL0     H53552   9.018   8.036   1.159  2.6863 -0.3360 -0.4515
  397MOL0     H53553   9.175   7.872   1.228  2.6124 -0.3021 -0.3989
  397MOL0     H53554   9.195   7.927   1.057 -1.9051  1.8490 -0.0871
  397MOL0     H53555   9.385   7.781   1.189  2.5696 -0.5500  0.3595
  397MOL0     H53556   9.547   7.624   1.227 -0.5861  4.2109 -1.1106
  397MOL0     H53557   9.846   7.476   1.373 -0.4261  2.5112 -3.1621
  397MOL0     H53558  10.069   7.366   1.399  3.7799 -2.8948 -0.7127
  397MOL0     H53559  10.248   7.298   1.347 -0.7025 -1.0215  1.1885
  397MOL0     H53560  10.246   7.142   1.435 -0.4206 -4.2736 -2.3461
  397MOL0     H53561  10.401   7.218   1.173  0.2311  0.6250 -0.5035
  397MOL0     H53562  10.471   7.203   1.324  0.5962  1.5748 -1.0150
  397MOL0     H53563  10.395   6.980   1.140  2.1578 -3.4959  0.6064
  397MOL0     H53564  10.535   7.003   1.235 -0.6294 -0.3096 -0.3840
  397MOL0     H53565  10.274   6.926   1.380  0.4642  3.0925 -1.2665
  397MOL0     H53566  10.423   6.950   1.462  2.1848 -1.9657 -0.7128
  397MOL0     H53567  10.471   6.781   1.224  4.2605  2.3288  0.6834
  397MOL0     H53568  10.361   6.714   1.360 -1.3295 -0.6134 -2.3292
  397MOL0     H53569  10.630   6.700   1.329 -0.8404  1.5574 -0.9858
  397MOL0     H53570  10.622   6.859   1.400 -0.9912  1.3472  1.7497
  397MOL0     H53571  10.587   6.615   1.562  3.7594  0.7897 -1.2202
  397MOL0     H53572  10.453   6.731   1.578 -0.0782  2.5226  1.5227
  397MOL0     H53573  10.737   6.829   1.607 -0.0354  0.3458 -1.6202
  397MOL0     H53574  10.600   6.919   1.646 -1.3909  0.1898  2.5033
  397MOL0     H53575   9.979   7.076   1.099  0.2267 -0.5047  0.1272
  397MOL0     H53576   9.758   7.184   1.071 -1.5921 -2.2025  2.5920
  397MOL0     H53577   9.302   7.307   1.108  0.1469 -0.6116 -1.0414
  397MOL0     H53578   9.107   7.472   1.083 -0.6629  1.5450  0.6172
  397MOL0     H53579   9.395   8.690   0.470  1.3625 -3.5162  2.4216
  397MOL0     H53580   9.650   8.740   0.487  1.1720 -2.3480  0.1961
  397MOL0     H53581  10.017   8.856   0.175  0.7367  0.8712  0.2640
  397MOL0     H53582  10.225   8.954   0.197  0.1386  0.8612  1.4836
  397MOL0     H53583  10.484   8.784   0.503 -0.3976 -1.1406 -0.7864
  397MOL0     H53584  10.589   8.921   0.463  0.1171 -1.0941  4.3285
  397MOL0     H53585  10.592   8.640   0.366 -4.2074  0.3683 -6.1313
  397MOL0     H53586  10.725   8.737   0.422  0.8288 -0.3296  0.9297
  397MOL0     H53587  10.596   8.755   0.145 -0.5333  0.8878  0.9073
  397MOL0     H53588  10.754   8.712   0.183  0.1017  0.8335  0.1830
  397MOL0     H53589  10.770   8.930   0.109  0.8093  2.4104  0.6680
  397MOL0     H53590  10.641   8.983   0.237 -1.6982 -1.6258  2.2919
  397MOL0     H53591  11.022   9.037   0.422  0.0903 -0.1080  1.2778
  397MOL0     H53592  10.335   8.633   0.468 -1.3125  0.0618  1.2455
  397MOL0     H53593  10.107   8.439   0.460 -1.2221  0.3066 -0.8652
  397MOL0     H53594  10.167   8.549   0.588  1.3720  1.4133 -0.6692
  397MOL0     H53595   9.996   8.549   0.541 -0.0407 -1.0960  0.9876
  398MOL0     O53596   5.861   4.881   5.229 -0.3459 -0.5035  0.2895
  398MOL0     C53597   5.826   4.765   5.268  0.4545 -1.0258 -0.8735
  398MOL0     O53598   5.694   4.718   5.269 -1.1992 -0.2243 -0.3358
  398MOL0     C53599   5.592   4.810   5.281  0.2353 -0.0686 -1.4417
  398MOL0     C53600   5.505   4.810   5.392 -0.7855  0.1889 -0.2159
  398MOL0     C53601   5.387   4.887   5.391 -0.8390 -0.7490  0.0125
  398MOL0     C53602   5.374   4.979   5.287 -0.7424  0.0674 -0.4102
  398MOL0     O53603   5.265   5.049   5.304 -0.2792  0.5849 -0.1230
  398MOL0     C53604   5.176   5.047   5.195  0.8315 -0.1499 -0.1481
  398MOL0     C53605   5.101   5.179   5.181 -0.1558 -0.1326  0.0666
  398MOL0     C53606   4.989   5.168   5.076 -0.4306  0.0418  0.3522
  398MOL0     C53607   4.878   5.269   5.115 -0.1412  0.0166 -0.8355
  398MOL0     C53608   4.761   5.277   5.023  0.4993  0.0284 -0.7436
  398MOL0     C53609   4.674   5.152   5.009 -0.1041  0.2610  0.1507
  398MOL0     C53610   4.551   5.175   5.098 -0.6216  0.7094  0.2206
  398MOL0     C53611   4.515   5.054   5.171  0.3284  0.4937  0.5344
  398MOL0     N53612   4.587   5.063   5.299 -0.0249  0.9582 -0.2171
  398MOL0     C53613   4.723   5.022   5.312  0.0710 -0.2197  0.4259
  398MOL0     C53614   4.772   5.071   5.426  0.0367  0.2730  0.9834
  398MOL0     C53615   4.899   5.074   5.484  0.3301 -0.0518 -0.0534
  398MOL0     C53616   4.911   5.015   5.627  0.6151  0.0326  0.2570
  398MOL0     C53617   5.022   5.061   5.716  0.1574 -0.6290 -0.1110
  398MOL0     C53618   5.148   4.996   5.667  0.2231  0.1600 -0.0686
  398MOL0     O53619   5.186   4.871   5.726 -0.1507  0.7466  0.3838
  398MOL0     C53620   5.318   4.840   5.746 -0.5834 -0.1770 -0.1213
  398MOL0     C53621   5.345   4.705   5.751 -0.3380 -0.5299 -0.2973
  398MOL0     C53622   5.485   4.670   5.772  0.0069  0.3118 -0.4472
  398MOL0     C53623   5.588   4.756   5.786 -0.2274 -0.3442  0.5388
  398MOL0     C53624   5.728   4.714   5.802 -0.2274 -0.5935  0.3822
  398MOL0     O53625   5.825   4.813   5.778 -0.5003  0.4067 -0.1336
  398MOL0     C53626   5.952   4.764   5.820  0.7865 -0.4393  0.3002
  398MOL0     C53627   6.052   4.768   5.728  0.4048 -0.5868  0.0796
  398MOL0     C53628   6.183   4.742   5.767  0.0736  0.7619  0.3865
  398MOL0     C53629   6.213   4.690   5.889 -0.3255  0.6789 -0.1217
  398MOL0     O53630   6.352   4.654   5.911  0.0859  1.5933 -0.5503
  398MOL0     C53631   6.391   4.560   6.013 -0.5555 -0.2492 -0.3983
  398MOL0     C53632   6.540   4.535   6.025  0.0602 -0.2576  0.3017
  398MOL0     C53633   6.603   4.483   5.892 -0.3105 -1.0306  0.1407
  398MOL0     C53634   6.749   4.441   5.916  0.9716 -0.2122 -0.7485
  398MOL0     C53635   6.821   4.368   5.808 -0.2234  0.3660 -1.1296
  398MOL0     C53636   6.847   4.446   5.686 -0.3613  0.0668  0.0599
  398MOL0     C53637   6.959   4.549   5.705 -0.2273  0.4572  0.6574
  398MOL0     C53638   7.032   4.567   5.571 -1.0877  0.9232 -0.2691
  398MOL0    Cl53639   7.166   4.457   5.549 -0.3687 -0.3654  0.3132
  398MOL0     C53640   6.110   4.683   5.983  0.9150  0.3120  0.8873
  398MOL0     C53641   5.978   4.722   5.952 -0.2242 -0.0637 -0.4720
  398MOL0     O53642   5.750   4.600   5.837 -0.1942 -0.0452 -0.1293
  398MOL0     C53643   5.562   4.896   5.767  1.0425 -0.2413  0.1402
  398MOL0     C53644   5.423   4.930   5.737  0.2647  0.2773  0.0392
  398MOL0     N53645   4.662   5.131   5.492 -0.2478  0.6853 -0.2500
  398MOL0     N53646   4.557   5.121   5.417  0.4836  0.5744 -0.4376
  398MOL0     C53647   5.474   4.993   5.184 -0.2894  0.0236  0.5602
  398MOL0     C53648   5.581   4.904   5.185 -0.7063  0.0622  0.8466
  398MOL0     C53649   5.921   4.680   5.327  0.7059  0.6794  0.0166
  398MOL0     C53650   5.873   4.599   5.428  0.2825 -0.5367  0.8373
  398MOL0     C53651   5.959   4.512   5.488  0.5081 -0.0490 -1.4079
  398MOL0     C53652   6.088   4.492   5.439  0.2678 -0.1778  1.3019
  398MOL0     O53653   6.183   4.424   5.507  0.8987 -0.1197  0.0261
  398MOL0     C53654   6.305   4.385   5.459 -1.6560  0.3530  0.3440
  398MOL0     C53655   6.388   4.320   5.566 -0.1888  0.7382 -0.1082
  398MOL0     C53656   6.533   4.285   5.531 -0.0244  0.1524 -0.2889
  398MOL0     C53657   6.572   4.239   5.391 -0.6422 -0.1436  0.0237
  398MOL0     C53658   6.493   4.131   5.345  0.6039 -0.7833  0.4630
  398MOL0     C53659   6.428   4.044   5.283  0.4336  0.4773 -0.3502
  398MOL0     C53660   6.121   4.562   5.322 -0.6916 -0.5854  0.5020
  398MOL0     C53661   6.042   4.656   5.268 -0.6372 -0.1486 -0.5117
  398MOL0     C53662   6.107   4.733   5.165  0.1817 -0.9630 -0.4586
  398MOL0     H53663   5.509   4.731   5.466  0.0004  0.4625  0.0429
  398MOL0     H53664   5.314   4.874   5.471  0.3853  1.0397  1.4936
  398MOL0     H53665   5.230   5.035   5.100  1.8318 -2.9584  0.6790
  398MOL0     H53666   5.117   4.955   5.201  0.5838  0.0862  1.3682
  398MOL0     H53667   5.162   5.258   5.137  0.5325 -1.5641 -1.7138
  398MOL0     H53668   5.057   5.207   5.277 -0.5856 -3.0457  0.8283
  398MOL0     H53669   4.952   5.066   5.060  0.6576 -0.0905 -1.5470
  398MOL0     H53670   5.027   5.208   4.982 -1.5512  1.3500  0.4233
  398MOL0     H53671   4.843   5.253   5.217 -4.0677 -1.2716 -2.2060
  398MOL0     H53672   4.922   5.368   5.098  0.9489 -0.6146 -1.8567
  398MOL0     H53673   4.705   5.364   5.059  0.4847 -0.0933 -0.4704
  398MOL0     H53674   4.791   5.313   4.924  2.5654  1.1147  0.2309
  398MOL0     H53675   4.653   5.137   4.903 -0.0705 -2.1890  0.4501
  398MOL0     H53676   4.720   5.061   5.049 -3.4225 -0.4484  2.8900
  398MOL0     H53677   4.469   5.198   5.030 -1.6295 -0.6015  0.9326
  398MOL0     H53678   4.550   5.258   5.169 -2.0814 -1.6180  3.1349
  398MOL0     H53679   4.406   5.061   5.181  0.2963  1.2425 -0.2266
  398MOL0     H53680   4.540   4.964   5.115  0.3683  1.4080 -0.9472
  398MOL0     H53681   4.787   4.966   5.244  2.4410 -0.1718  2.4756
  398MOL0     H53682   4.977   5.025   5.425  1.2973  1.9107 -0.4884
  398MOL0     H53683   4.930   5.179   5.486 -0.8932  0.3130  0.8237
  398MOL0     H53684   4.814   5.035   5.674 -1.7776 -3.8015 -2.4947
  398MOL0     H53685   4.909   4.907   5.615  2.6227 -0.1543  1.1531
  398MOL0     H53686   5.017   5.025   5.819  1.4679  0.6114  0.4225
  398MOL0     H53687   5.020   5.170   5.708 -1.9499 -0.5619  0.7013
  398MOL0     H53688   5.220   5.076   5.685 -0.0056  0.3165  0.1516
  398MOL0     H53689   5.153   4.976   5.559  0.3585  0.2079 -0.0715
  398MOL0     H53690   5.276   4.621   5.748 -0.8173 -0.1323 -0.5048
  398MOL0     H53691   5.507   4.565   5.791 -0.9190 -0.4520 -3.1489
  398MOL0     H53692   6.019   4.784   5.626  2.2433 -2.2182 -0.8321
  398MOL0     H53693   6.260   4.742   5.691 -2.7319 -1.4708 -2.7007
  398MOL0     H53694   6.354   4.598   6.109 -1.6110  1.0371 -1.2780
  398MOL0     H53695   6.353   4.461   5.989 -0.6843 -0.0044 -1.2265
  398MOL0     H53696   6.592   4.629   6.044 -0.2462 -0.0680  0.2198
  398MOL0     H53697   6.566   4.482   6.117 -0.0838  1.7680  1.5758
  398MOL0     H53698   6.556   4.388   5.866 -0.4068 -0.3309 -2.4675
  398MOL0     H53699   6.585   4.553   5.810  0.4373  0.4550  1.2035
  398MOL0     H53700   6.751   4.374   6.002 -0.1006  1.8800  0.9966
  398MOL0     H53701   6.816   4.514   5.963  2.6357 -2.4124  0.5402
  398MOL0     H53702   6.755   4.290   5.771  1.9069 -2.8567  1.3265
  398MOL0     H53703   6.911   4.315   5.841 -1.4728 -1.3571 -0.3117
  398MOL0     H53704   6.887   4.377   5.610 -0.5460 -1.1696  1.0490
  398MOL0     H53705   6.759   4.486   5.635  0.3539  2.0141  0.2622
  398MOL0     H53706   7.030   4.520   5.783  0.7202  2.1046  0.4476
  398MOL0     H53707   6.917   4.638   5.753  1.5603  1.6357  0.1108
  398MOL0     H53708   6.959   4.558   5.490 -2.7468 -0.9635  1.3159
  398MOL0     H53709   7.065   4.671   5.575 -0.7266  0.7756  0.6975
  398MOL0     H53710   6.136   4.641   6.080  1.5427 -1.7611 -0.1156
  398MOL0     H53711   5.909   4.715   6.036  0.4019  3.1573  0.4204
  398MOL0     H53712   5.628   4.982   5.777 -3.2600  3.4339  0.6034
  398MOL0     H53713   5.411   5.032   5.703  0.4587  0.3801  0.2721
  398MOL0     H53714   5.465   5.070   5.108  0.2428 -0.5622 -0.1157
  398MOL0     H53715   5.655   4.921   5.107 -0.9773  0.5543  0.6936
  398MOL0     H53716   5.775   4.623   5.469 -0.9891  1.2205 -2.7745
  398MOL0     H53717   5.940   4.454   5.578  1.6306  1.8851  0.1750
  398MOL0     H53718   6.364   4.475   5.441  2.5335 -0.5823  6.2330
  398MOL0     H53719   6.303   4.321   5.370 -2.4973  0.1805  0.4758
  398MOL0     H53720   6.330   4.229   5.588  0.0308  1.3553  3.5291
  398MOL0     H53721   6.388   4.370   5.663  1.4820  1.4977 -0.4703
  398MOL0     H53722   6.564   4.202   5.596  1.8217 -0.0445 -1.3485
  398MOL0     H53723   6.595   4.371   5.557 -2.1830  1.7560 -0.1099
  398MOL0     H53724   6.552   4.324   5.325 -3.4428 -0.2991  0.5429
  398MOL0     H53725   6.678   4.215   5.379 -0.6991 -0.4220  0.0772
  398MOL0     H53726   6.381   3.950   5.263 -0.1609  0.2264  1.9383
  398MOL0     H53727   6.218   4.549   5.275 -0.2515  1.1190  0.8729
  398MOL0     H53728   6.184   4.686   5.102  0.0874 -0.5147 -0.9126
  398MOL0     H53729   6.038   4.769   5.089  2.9350  3.3715 -1.2513
  398MOL0     H53730   6.144   4.827   5.207  0.7900 -1.6510  0.5859
  399MOL0     O53731   5.872  11.008   6.373 -0.1484  0.8565  0.1099
  399MOL0     C53732   5.957  11.084   6.431 -0.7781 -0.9378 -0.9855
  399MOL0     O53733   6.044  11.177   6.370 -1.0633  0.4021 -0.0652
  399MOL0     C53734   6.004  11.262   6.264  0.4130  0.2307 -0.7299
  399MOL0     C53735   6.098  11.329   6.194 -0.4256  0.9437  0.5369
  399MOL0     C53736   6.076  11.400   6.082  0.2418  0.0085 -0.0023
  399MOL0     C53737   5.938  11.413   6.037  0.5090  0.0534  1.4035
  399MOL0     O53738   5.902  11.504   5.936  0.2118 -0.1978  0.8430
  399MOL0     C53739   6.020  11.569   5.865  0.7682  0.6326  0.2294
  399MOL0     C53740   5.964  11.667   5.763  0.1087  0.4620 -0.1652
  399MOL0     C53741   5.995  11.615   5.623 -0.2125  0.0017  0.3560
  399MOL0     C53742   5.906  11.659   5.499 -0.4084 -0.1593 -0.7102
  399MOL0     C53743   5.920  11.809   5.485  0.5792  0.6440 -0.0423
  399MOL0     C53744   5.842  11.870   5.365 -0.2431 -0.1047 -0.6956
  399MOL0     C53745   5.853  12.020   5.372  0.8381 -0.2339  0.4082
  399MOL0     C53746   5.775  12.096   5.261 -0.2548 -0.7562  0.3035
  399MOL0     N53747   5.863  12.093   5.143 -0.7387 -0.7257 -0.6924
  399MOL0     C53748   5.986  12.166   5.139  0.4030  0.5182 -0.0628
  399MOL0     C53749   6.070  12.096   5.054 -0.5323  0.5794 -0.3044
  399MOL0     C53750   6.200  12.129   4.996 -0.2238  0.3134 -0.8849
  399MOL0     C53751   6.310  12.140   5.103 -0.5094  0.6910 -0.0279
  399MOL0     C53752   6.348  11.992   5.148  0.7847 -0.5343 -0.6790
  399MOL0     C53753   6.460  11.999   5.250 -0.0766  0.4635 -0.4352
  399MOL0     O53754   6.478  11.878   5.320 -0.1290 -0.3905  0.3233
  399MOL0     C53755   6.444  11.863   5.448  0.6307  0.3298 -0.6856
  399MOL0     C53756   6.529  11.794   5.537  0.1223  0.3248  0.0734
  399MOL0     C53757   6.497  11.776   5.665 -0.1065  0.1569  0.5576
  399MOL0     C53758   6.380  11.835   5.721  0.0271 -0.1996 -0.8209
  399MOL0     C53759   6.375  11.831   5.868 -0.3277 -0.7984 -0.4957
  399MOL0     O53760   6.494  11.807   5.933  0.1501  0.5277 -0.3118
  399MOL0     C53761   6.510  11.807   6.060  0.2611 -0.8597 -0.8123
  399MOL0     C53762   6.465  11.912   6.148 -0.3801 -0.8366  0.0177
  399MOL0     C53763   6.490  11.910   6.281 -0.0837 -0.8775  0.0909
  399MOL0     C53764   6.556  11.803   6.338  1.0784  0.8341 -0.6911
  399MOL0     O53765   6.590  11.814   6.469  0.4416 -0.1257 -0.8194
  399MOL0     C53766   6.688  11.715   6.515  0.3170  0.4040  0.4853
  399MOL0     C53767   6.723  11.751   6.654  0.1777  0.1805 -0.9439
  399MOL0     C53768   6.626  11.701   6.766  0.4895  0.6683  0.2226
  399MOL0     C53769   6.514  11.803   6.798 -0.2472  0.6342 -0.4956
  399MOL0     C53770   6.399  11.745   6.890  1.2316  0.6990  0.1867
  399MOL0     C53771   6.445  11.742   7.040 -0.3859 -0.3602  0.6007
  399MOL0     C53772   6.330  11.696   7.131 -0.3064 -0.0568 -0.7707
  399MOL0     C53773   6.197  11.770   7.121  0.5684  0.2199 -1.0586
  399MOL0    Cl53774   6.095  11.723   6.976 -0.4011  0.5597  0.4994
  399MOL0     C53775   6.587  11.693   6.261 -0.0973  0.0422  0.8674
  399MOL0     C53776   6.573  11.703   6.124 -0.2560  0.1413  0.0099
  399MOL0     O53777   6.262  11.866   5.917 -0.6914  0.2420 -0.2563
  399MOL0     C53778   6.295  11.909   5.634 -0.5273 -0.0259 -0.0586
  399MOL0     C53779   6.320  11.913   5.500 -1.0335 -0.9168  0.7151
  399MOL0     N53780   5.999  11.977   5.023  0.4485  0.2299 -0.0743
  399MOL0     N53781   5.882  11.976   5.075  1.0218 -0.7554 -0.2925
  399MOL0     C53782   5.838  11.341   6.101  0.2933  0.9423 -0.7574
  399MOL0     C53783   5.867  11.273   6.216  0.0900  0.2708 -0.7544
  399MOL0     C53784   5.959  11.053   6.570 -1.3740 -0.2546 -0.6401
  399MOL0     C53785   5.967  10.914   6.606 -0.4436  0.4822  0.4078
  399MOL0     C53786   5.995  10.876   6.742  0.2193  0.9526 -0.3518
  399MOL0     C53787   6.022  10.976   6.839  0.4356 -0.5454 -1.0471
  399MOL0     O53788   6.049  10.937   6.967  0.8879  0.4574 -0.1306
  399MOL0     C53789   6.158  10.990   7.028 -0.2902  0.0720 -0.1082
  399MOL0     C53790   6.197  10.919   7.157  0.2073 -0.6297 -0.4857
  399MOL0     C53791   6.287  11.004   7.247  0.0087  0.1878  1.1444
  399MOL0     C53792   6.318  10.940   7.380  0.4529  0.3253 -0.3649
  399MOL0     C53793   6.378  10.806   7.365  0.7523 -0.8628 -0.9553
  399MOL0     C53794   6.422  10.694   7.373  0.6851  0.2128 -1.1780
  399MOL0     C53795   6.027  11.108   6.802 -0.1211 -0.0893  0.4618
  399MOL0     C53796   6.008  11.147   6.665 -0.3452  0.9495  0.4559
  399MOL0     C53797   6.030  11.293   6.628  0.4392  0.8443 -0.4026
  399MOL0     H53798   6.202  11.318   6.225 -0.3542 -0.1392 -0.0494
  399MOL0     H53799   6.161  11.456   6.042 -0.0165 -1.6522 -3.2253
  399MOL0     H53800   6.082  11.622   5.938 -0.9082  1.6845  0.9530
  399MOL0     H53801   6.078  11.486   5.824  2.1969  2.1287 -0.8978
  399MOL0     H53802   6.026  11.757   5.768 -0.5005  0.8793 -0.0395
  399MOL0     H53803   5.856  11.679   5.778 -0.0114  1.5929 -1.7125
  399MOL0     H53804   5.999  11.505   5.624 -1.8364 -0.1441  3.2495
  399MOL0     H53805   6.099  11.643   5.607 -0.3233 -0.5509 -1.5912
  399MOL0     H53806   5.933  11.598   5.412  1.8201 -0.3611  0.0757
  399MOL0     H53807   5.797  11.647   5.509 -0.5574  2.1321  1.3947
  399MOL0     H53808   5.882  11.850   5.580 -0.0575  1.2066 -0.5309
  399MOL0     H53809   6.025  11.833   5.467  0.2928  1.2108 -1.0055
  399MOL0     H53810   5.878  11.840   5.267  1.8285  2.1505 -0.7323
  399MOL0     H53811   5.737  11.842   5.377 -0.0722 -0.0634  1.2348
  399MOL0     H53812   5.959  12.046   5.363  1.2590 -1.8384  0.4996
  399MOL0     H53813   5.810  12.053   5.467 -3.3571  0.6116 -1.5553
  399MOL0     H53814   5.679  12.044   5.254 -0.1963 -0.7128 -1.1490
  399MOL0     H53815   5.751  12.201   5.282 -3.0573 -1.6074  1.8835
  399MOL0     H53816   6.001  12.267   5.177  1.9264  0.5371 -0.6210
  399MOL0     H53817   6.226  12.066   4.910 -1.6414  0.3014 -1.3349
  399MOL0     H53818   6.190  12.232   4.960 -3.8151  0.4146 -0.0229
  399MOL0     H53819   6.395  12.183   5.049 -1.2058  0.7836 -1.0806
  399MOL0     H53820   6.276  12.205   5.184  1.0624  4.9050 -2.4088
  399MOL0     H53821   6.373  11.934   5.059 -2.4670 -2.6930 -0.3492
  399MOL0     H53822   6.258  11.950   5.194 -0.3281 -0.1005 -2.3879
  399MOL0     H53823   6.451  12.088   5.313 -0.6628 -0.2548  0.5411
  399MOL0     H53824   6.550  12.031   5.196 -1.2959  2.5563 -1.3206
  399MOL0     H53825   6.621  11.741   5.512  0.9073  1.4120  0.5756
  399MOL0     H53826   6.566  11.717   5.724  0.1795  0.7224  0.7978
  399MOL0     H53827   6.423  11.995   6.093  0.7003  0.0897  0.5574
  399MOL0     H53828   6.478  11.993   6.350  3.2615 -0.5764  0.5111
  399MOL0     H53829   6.646  11.613   6.516  0.7084  0.1083 -2.8176
  399MOL0     H53830   6.777  11.708   6.452  0.5339  1.3925  0.6673
  399MOL0     H53831   6.812  11.690   6.671 -1.2611 -1.9361 -0.6118
  399MOL0     H53832   6.752  11.857   6.660 -0.1442  0.6303 -4.8877
  399MOL0     H53833   6.565  11.624   6.718 -1.9574  1.9460  1.0799
  399MOL0     H53834   6.687  11.675   6.853  0.7210  2.0934  0.5262
  399MOL0     H53835   6.465  11.839   6.707 -0.5009  0.0203 -0.6061
  399MOL0     H53836   6.561  11.895   6.836 -0.1302  0.0273  0.8726
  399MOL0     H53837   6.357  11.651   6.853 -0.1967  1.1514  0.6132
  399MOL0     H53838   6.319  11.818   6.875  3.8614  3.9979  1.0628
  399MOL0     H53839   6.532  11.678   7.059 -0.2988 -0.0966  1.1117
  399MOL0     H53840   6.467  11.845   7.068 -0.1805 -0.3375  0.3484
  399MOL0     H53841   6.385  11.704   7.226 -2.0018 -2.2404  0.4821
  399MOL0     H53842   6.313  11.588   7.131 -1.4615  0.0997  0.4657
  399MOL0     H53843   6.135  11.748   7.207 -1.0245 -1.1351 -2.4979
  399MOL0     H53844   6.215  11.877   7.138  1.0545 -0.1172  0.7671
  399MOL0     H53845   6.632  11.603   6.301 -2.0212 -1.2384  0.2685
  399MOL0     H53846   6.613  11.625   6.061  1.2079  1.6201 -0.9952
  399MOL0     H53847   6.207  11.954   5.680 -0.3056 -2.4027  2.9474
  399MOL0     H53848   6.266  11.960   5.419  1.8876  0.7778 -0.3867
  399MOL0     H53849   5.734  11.355   6.076 -0.0943 -1.1904 -0.5115
  399MOL0     H53850   5.794  11.220   6.277  0.6252  1.2868  0.8263
  399MOL0     H53851   5.968  10.825   6.545  3.2174 -0.4695  1.6417
  399MOL0     H53852   6.008  10.772   6.769  0.4726  0.8990 -0.6693
  399MOL0     H53853   6.133  11.088   7.069  0.0562 -0.7210  2.1511
  399MOL0     H53854   6.234  11.017   6.954 -0.4690 -1.4585 -0.9035
  399MOL0     H53855   6.254  10.833   7.121 -0.6983 -3.2503  3.6620
  399MOL0     H53856   6.103  10.888   7.204  0.1381  0.3513  0.0423
  399MOL0     H53857   6.245  11.105   7.257  0.5000  1.1155 -3.7530
  399MOL0     H53858   6.385  11.015   7.201  0.4411 -1.2082  1.6794
  399MOL0     H53859   6.380  11.003   7.445  0.5426  0.1365 -0.2667
  399MOL0     H53860   6.226  10.929   7.437  0.0353 -3.4519 -1.5294
  399MOL0     H53861   6.438  10.589   7.384 -1.9723 -0.1839 -0.0982
  399MOL0     H53862   6.049  11.181   6.879 -1.8243  0.5807  0.3457
  399MOL0     H53863   5.966  11.321   6.544 -1.2356  3.8339  1.6747
  399MOL0     H53864   6.012  11.365   6.708  1.1857  0.2788  0.2928
  399MOL0     H53865   6.133  11.313   6.597  1.8129  1.2768  3.7726
  400MOL0     O53866  11.484   1.136   8.480  0.0478 -0.0808 -0.4998
  400MOL0     C53867  11.598   1.167   8.506 -0.3551  0.2645 -0.8565
  400MOL0     O53868  11.666   1.274   8.453 -0.7285 -0.2289  0.6040
  400MOL0     C53869  11.612   1.340   8.338 -0.5255  0.2413 -0.0083
  400MOL0     C53870  11.577   1.268   8.219  0.8061  0.0702  0.0924
  400MOL0     C53871  11.532   1.348   8.107  0.4181  0.7070 -0.2707
  400MOL0     C53872  11.491   1.479   8.110 -0.0111  0.2055  0.8504
  400MOL0     O53873  11.454   1.540   7.993  0.4325  0.2467  0.3928
  400MOL0     C53874  11.388   1.668   8.005 -0.0911 -0.6819 -0.3319
  400MOL0     C53875  11.246   1.658   8.078 -0.5166  0.4464  0.5253
  400MOL0     C53876  11.183   1.798   8.098  0.4944 -0.6333 -0.3415
  400MOL0     C53877  11.046   1.779   8.155  0.2076 -0.0439 -0.5508
  400MOL0     C53878  10.981   1.909   8.194  0.3686  0.3088 -0.6565
  400MOL0     C53879  11.011   1.949   8.338 -0.3017  0.7648  1.4790
  400MOL0     C53880  10.910   2.066   8.381 -0.1922  0.7797  0.3156
  400MOL0     C53881  10.773   2.002   8.396  1.0993 -0.4883  0.3344
  400MOL0     N53882  10.696   2.088   8.490  0.1581 -0.0132  0.8143
  400MOL0     C53883  10.593   2.172   8.450  0.7760  0.3869  0.0436
  400MOL0     C53884  10.542   2.208   8.573 -0.6022 -0.2744 -0.4980
  400MOL0     C53885  10.426   2.290   8.587  0.1020  0.3384 -0.2022
  400MOL0     C53886  10.315   2.268   8.498 -0.0588  0.2916  1.1274
  400MOL0     C53887  10.215   2.380   8.484 -0.3425 -0.1415  0.0876
  400MOL0     C53888  10.086   2.334   8.408 -0.7113 -0.7666 -0.7272
  400MOL0     O53889   9.990   2.441   8.418 -0.0476 -0.5423 -0.0492
  400MOL0     C53890   9.875   2.396   8.381 -0.1058  1.1167  1.9687
  400MOL0     C53891   9.864   2.359   8.242  0.4442  0.6977 -1.0423
  400MOL0     C53892   9.739   2.306   8.196 -0.9183  0.1538  1.7694
  400MOL0     C53893   9.630   2.324   8.276  0.3879 -0.1491  0.1085
  400MOL0     C53894   9.496   2.328   8.215 -0.0719  0.1859  0.5588
  400MOL0     O53895   9.390   2.313   8.304  0.4583 -0.1858 -0.1149
  400MOL0     C53896   9.265   2.343   8.266  0.5803 -0.4200  0.4034
  400MOL0     C53897   9.227   2.468   8.195  0.2665  0.4392 -0.2254
  400MOL0     C53898   9.091   2.492   8.184 -0.9403 -0.0464  1.0547
  400MOL0     C53899   8.991   2.412   8.235 -0.8612 -0.3882 -0.4097
  400MOL0     O53900   8.864   2.436   8.195  0.7646  1.0287  0.0355
  400MOL0     C53901   8.802   2.559   8.204  0.1727  0.6668  0.0551
  400MOL0     C53902   8.797   2.613   8.351 -0.4686 -0.1237 -0.6411
  400MOL0     C53903   8.719   2.527   8.448 -0.3938 -0.3933 -0.6053
  400MOL0     C53904   8.575   2.493   8.411 -0.1802 -0.6890  0.7248
  400MOL0     C53905   8.500   2.412   8.520  0.5150 -0.1698  0.2465
  400MOL0     C53906   8.576   2.279   8.541  0.2018 -0.1700 -0.0776
  400MOL0     C53907   8.505   2.172   8.621  0.4386 -0.3244 -0.1063
  400MOL0     C53908   8.350   2.178   8.619 -0.3292 -0.2712  0.8681
  400MOL0    Cl53909   8.306   2.030   8.704  0.5149  0.0668  0.0536
  400MOL0     C53910   9.036   2.304   8.305  0.0635  0.0448  0.2832
  400MOL0     C53911   9.171   2.266   8.315  1.3202 -0.3065 -0.9475
  400MOL0     O53912   9.490   2.335   8.086  0.1237 -0.7030 -0.5359
  400MOL0     C53913   9.642   2.354   8.411  0.1258 -0.0243 -1.0446
  400MOL0     C53914   9.768   2.380   8.467  0.5031 -0.9404  0.8399
  400MOL0     N53915  10.616   2.147   8.679 -0.3618  0.3186 -0.6308
  400MOL0     N53916  10.715   2.080   8.619 -0.0474  0.3122 -0.4786
  400MOL0     C53917  11.539   1.549   8.222  0.6754  0.9653  0.5257
  400MOL0     C53918  11.612   1.479   8.326 -0.5042 -0.0596 -0.3233
  400MOL0     C53919  11.671   1.093   8.613 -0.1379 -1.2069 -0.2794
  400MOL0     C53920  11.770   1.165   8.684  0.1545 -1.2090 -0.5302
  400MOL0     C53921  11.826   1.099   8.797  0.6581 -0.0427 -0.6157
  400MOL0     C53922  11.804   0.964   8.828  0.1679 -0.1924  0.4924
  400MOL0     O53923  11.863   0.884   8.918 -0.3816 -0.3370  0.8445
  400MOL0     C53924  11.932   0.946   9.020  0.3116 -0.1654  0.9593
  400MOL0     C53925  11.842   1.019   9.116 -0.1191 -0.2246  0.2723
  400MOL0     C53926  11.716   0.942   9.172  0.0528  0.5112  0.3390
  400MOL0     C53927  11.637   1.044   9.266 -0.5207  0.1272 -0.8999
  400MOL0     C53928  11.583   1.155   9.190 -0.3333 -0.1728 -0.2336
  400MOL0     C53929  11.557   1.261   9.131  1.1704  0.0125 -1.0477
  400MOL0     C53930  11.695   0.909   8.761  0.6031  0.2384 -0.2558
  400MOL0     C53931  11.639   0.958   8.648 -0.8644  1.2623  0.6547
  400MOL0     C53932  11.538   0.863   8.579 -0.2707 -0.2244  0.1896
  400MOL0     H53933  11.577   1.160   8.205  0.6511 -0.0132  0.6829
  400MOL0     H53934  11.517   1.294   8.014 -1.6305 -0.8035  0.8485
  400MOL0     H53935  11.437   1.733   8.079  0.3698 -0.4340 -0.8506
  400MOL0     H53936  11.383   1.709   7.904  1.7783  0.2158 -0.0957
  400MOL0     H53937  11.242   1.599   8.170 -1.8917 -0.3914 -0.0514
  400MOL0     H53938  11.177   1.610   8.009  1.5777  0.6844 -1.8565
  400MOL0     H53939  11.195   1.866   8.013  0.3188 -2.1872 -1.6663
  400MOL0     H53940  11.248   1.849   8.170  0.6121  0.1671 -1.0086
  400MOL0     H53941  10.977   1.735   8.081 -1.9272 -0.0647  1.3318
  400MOL0     H53942  11.046   1.704   8.235  0.9339  0.6967  0.1550
  400MOL0     H53943  11.010   1.996   8.133 -0.1079  0.3566 -0.8211
  400MOL0     H53944  10.872   1.904   8.188  0.3734 -1.0721  0.1761
  400MOL0     H53945  10.991   1.864   8.403 -2.8272 -0.1169 -0.2611
  400MOL0     H53946  11.114   1.984   8.344  0.2056 -0.5434  0.8693
  400MOL0     H53947  10.906   2.147   8.307 -1.1152 -1.7488 -2.6102
  400MOL0     H53948  10.957   2.094   8.476  1.0984 -2.8964  0.9044
  400MOL0     H53949  10.704   1.984   8.313 -2.9494 -0.9772  3.4660
  400MOL0     H53950  10.788   1.902   8.436  1.4714 -1.1695 -1.4058
  400MOL0     H53951  10.547   2.187   8.353 -2.7316 -4.1778  0.6467
  400MOL0     H53952  10.393   2.290   8.691 -3.3351  0.0130 -1.1690
  400MOL0     H53953  10.458   2.392   8.561 -1.4954  1.0507  0.4789
  400MOL0     H53954  10.367   2.263   8.402 -1.1754  0.4383  0.4915
  400MOL0     H53955  10.262   2.174   8.513  0.5220 -0.6302 -1.8598
  400MOL0     H53956  10.271   2.459   8.432  1.1983 -1.1976  0.0673
  400MOL0     H53957  10.195   2.427   8.581  0.4875 -0.3380  0.3665
  400MOL0     H53958  10.052   2.240   8.452  2.6717 -0.8404  2.2533
  400MOL0     H53959  10.114   2.331   8.303 -2.3620  2.7197 -1.4086
  400MOL0     H53960   9.948   2.371   8.174  1.4740  3.7012  0.5888
  400MOL0     H53961   9.733   2.284   8.090  3.5807  3.0967  0.6248
  400MOL0     H53962   9.294   2.526   8.133 -0.5651  1.1085 -0.5117
  400MOL0     H53963   9.057   2.580   8.130  0.0324 -0.2092  0.1305
  400MOL0     H53964   8.850   2.643   8.152 -0.6376 -0.9727 -3.6317
  400MOL0     H53965   8.703   2.544   8.160  0.2337 -2.3043  0.7258
  400MOL0     H53966   8.891   2.647   8.397 -2.6687  0.8530  3.7286
  400MOL0     H53967   8.747   2.710   8.346 -0.3705 -0.0884 -0.9172
  400MOL0     H53968   8.777   2.434   8.461  2.3042  1.0741 -1.3897
  400MOL0     H53969   8.720   2.581   8.543  1.1348  0.1513 -0.8930
  400MOL0     H53970   8.592   2.429   8.324  0.5118 -3.1388  2.5243
  400MOL0     H53971   8.532   2.591   8.388  4.1825  0.4516 -4.3614
  400MOL0     H53972   8.403   2.391   8.475 -0.2654  1.9147  0.8402
  400MOL0     H53973   8.483   2.473   8.609 -0.4578  1.2807 -0.8911
  400MOL0     H53974   8.595   2.229   8.445 -0.8882 -0.1384 -0.3184
  400MOL0     H53975   8.674   2.294   8.586 -0.1471 -2.0837  1.4504
  400MOL0     H53976   8.547   2.179   8.721  0.7733  0.1527 -0.2755
  400MOL0     H53977   8.531   2.076   8.575 -1.9878 -1.7252  1.2096
  400MOL0     H53978   8.318   2.269   8.671 -0.3880  0.4005 -0.3036
  400MOL0     H53979   8.302   2.177   8.521 -1.3188  0.7079  1.3306
  400MOL0     H53980   8.961   2.238   8.346 -2.2640  1.8736 -0.7812
  400MOL0     H53981   9.191   2.187   8.387  0.1679 -0.7902 -1.1428
  400MOL0     H53982   9.553   2.356   8.474  1.5767 -1.0707  1.1417
  400MOL0     H53983   9.775   2.401   8.573  0.6178  1.9009  0.3321
  400MOL0     H53984  11.523   1.653   8.248  0.0827  1.4005 -1.4502
  400MOL0     H53985  11.655   1.525   8.414  1.3926 -0.8034 -0.8276
  400MOL0     H53986  11.801   1.267   8.661 -1.2585 -0.9065 -1.2010
  400MOL0     H53987  11.896   1.164   8.849 -0.1947 -0.0427  0.5642
  400MOL0     H53988  12.008   1.013   8.978  1.3284 -0.9730  1.4714
  400MOL0     H53989  11.980   0.862   9.071 -1.5441 -0.9498  1.4870
  400MOL0     H53990  11.810   1.108   9.061 -1.3293 -0.0839  1.1567
  400MOL0     H53991  11.899   1.049   9.203 -0.4299  1.3407 -0.0359
  400MOL0     H53992  11.767   0.863   9.229 -0.8704 -0.8523 -0.6686
  400MOL0     H53993  11.659   0.886   9.098  0.2236 -0.9687  1.2848
  400MOL0     H53994  11.559   0.993   9.324  0.1225 -0.5647 -0.6371
  400MOL0     H53995  11.700   1.074   9.349 -0.7287 -3.4483  0.7318
  400MOL0     H53996  11.531   1.356   9.090  1.9616  0.3388 -0.8122
  400MOL0     H53997  11.664   0.810   8.792  0.6074  0.1888 -0.4107
  400MOL0     H53998  11.541   0.758   8.611 -3.3306 -0.4756 -0.0555
  400MOL0     H53999  11.438   0.897   8.608 -1.0337 -2.0544 -0.1605
  400MOL0     H54000  11.550   0.868   8.471  0.5750  1.7832  0.3355
  401MOL0     O54001   3.016   0.760   8.910  0.1263  0.0228  0.2170
  401MOL0     C54002   2.916   0.803   8.856 -0.3133  0.2703  0.2378
  401MOL0     O54003   2.900   0.836   8.724 -0.4213 -0.5200 -0.2089
  401MOL0     C54004   3.014   0.839   8.642  1.0732 -0.1771  0.1069
  401MOL0     C54005   3.003   0.781   8.517  0.4780  0.2946  0.0302
  401MOL0     C54006   3.106   0.791   8.415  0.7053 -0.6668 -0.7696
  401MOL0     C54007   3.215   0.873   8.445  0.1052 -0.5493  0.0206
  401MOL0     O54008   3.319   0.914   8.362 -0.2559 -0.8788  0.0603
  401MOL0     C54009   3.331   0.860   8.228  1.1242 -0.3387 -0.3790
  401MOL0     C54010   3.463   0.884   8.166 -0.2752  0.1655  0.0744
  401MOL0     C54011   3.571   0.812   8.253 -0.1787  0.4637  0.8804
  401MOL0     C54012   3.697   0.785   8.166  0.4813  0.5872  0.7538
  401MOL0     C54013   3.813   0.728   8.241  0.1887  0.6318 -0.4246
  401MOL0     C54014   3.808   0.583   8.298  0.2402 -0.2683 -0.0593
  401MOL0     C54015   3.750   0.498   8.191 -0.9700  1.1122 -0.9329
  401MOL0     C54016   3.735   0.346   8.230  0.5763  0.9565 -0.6190
  401MOL0     N54017   3.670   0.315   8.362  0.3204 -0.0564 -0.2272
  401MOL0     C54018   3.669   0.192   8.419 -0.4049  0.1778 -0.0460
  401MOL0     C54019   3.589   0.205   8.531 -0.1095  0.1673 -0.4040
  401MOL0     C54020   3.555   0.091   8.620  1.2913  0.3455  0.1822
  401MOL0     C54021   3.668   0.070   8.716 -0.0530 -0.5599 -0.1093
  401MOL0     C54022   3.633  -0.039   8.812  0.3314 -0.5716 -0.1406
  401MOL0     C54023   3.733  -0.043   8.934 -0.0824  0.8025 -0.2814
  401MOL0     O54024   3.858  -0.094   8.890  0.4236  0.2714  0.6423
  401MOL0     C54025   3.955  -0.133   8.978 -0.5081  0.0537 -0.9520
  401MOL0     C54026   4.082  -0.172   8.939  0.3444 -0.3259  0.4105
  401MOL0     C54027   4.175  -0.222   9.026  0.4088  0.4129  0.4678
  401MOL0     C54028   4.153  -0.207   9.163  0.6985 -0.7318 -0.2060
  401MOL0     C54029   4.258  -0.229   9.254 -1.1531 -0.1698 -0.2281
  401MOL0     O54030   4.230  -0.256   9.383  0.1751  0.0752 -0.2763
  401MOL0     C54031   4.320  -0.291   9.481  1.4945 -0.3593 -0.5671
  401MOL0     C54032   4.250  -0.315   9.604  0.0253  0.8789 -0.4475
  401MOL0     C54033   4.325  -0.330   9.718  0.0733  0.4845  0.5474
  401MOL0     C54034   4.464  -0.319   9.713 -0.1636 -0.6843 -1.1903
  401MOL0     O54035   4.536  -0.348   9.824 -0.9014 -0.7501 -0.2536
  401MOL0     C54036   4.595  -0.482   9.831  0.2888  0.5490  0.1788
  401MOL0     C54037   4.555  -0.552   9.959 -0.4010 -0.3327  0.1899
  401MOL0     C54038   4.618  -0.487  10.085  0.1756  0.8031 -0.0857
  401MOL0     C54039   4.570  -0.557  10.214  0.5033 -0.2865 -0.4421
  401MOL0     C54040   4.679  -0.528  10.322 -0.0325 -0.0014  0.0251
  401MOL0     C54041   4.644  -0.611  10.445 -0.0298  0.0831  0.3333
  401MOL0     C54042   4.666  -0.760  10.430  0.0345 -0.1854  0.8850
  401MOL0     C54043   4.725  -0.810  10.551  1.2556  0.4560 -0.9367
  401MOL0    Cl54044   4.615  -0.797  10.699  0.1120  0.3866  0.2381
  401MOL0     C54045   4.529  -0.281   9.595 -1.0181  0.4888 -0.8141
  401MOL0     C54046   4.461  -0.265   9.485  1.1456  0.7736  0.5786
  401MOL0     O54047   4.376  -0.227   9.209  0.4031  0.3882  0.0950
  401MOL0     C54048   4.024  -0.172   9.201 -1.1210 -0.1413 -0.1741
  401MOL0     C54049   3.929  -0.130   9.111 -0.1638  1.1427 -0.9313
  401MOL0     N54050   3.534   0.335   8.527  0.7583  0.5101  0.4885
  401MOL0     N54051   3.567   0.385   8.414  0.1097 -0.7219 -0.9739
  401MOL0     C54052   3.230   0.920   8.574 -0.1560  0.3422  0.0081
  401MOL0     C54053   3.133   0.910   8.670 -0.2118  0.4667  0.1326
  401MOL0     C54054   2.790   0.806   8.949 -0.8294  0.0417 -0.3977
  401MOL0     C54055   2.810   0.767   9.081  0.1234  0.2741  0.1535
  401MOL0     C54056   2.706   0.764   9.179 -0.2609 -0.7329  0.3286
  401MOL0     C54057   2.575   0.787   9.154 -0.9189  0.1985 -0.7561
  401MOL0     O54058   2.475   0.787   9.245  0.8002 -0.3334 -0.1180
  401MOL0     C54059   2.504   0.723   9.367  0.1714  0.0299  0.1565
  401MOL0     C54060   2.381   0.725   9.462 -0.1549  0.5694 -0.2859
  401MOL0     C54061   2.369   0.862   9.528  0.5462 -1.0998 -1.1594
  401MOL0     C54062   2.436   0.860   9.673  0.3415  0.4088 -0.0146
  401MOL0     C54063   2.400   0.976   9.755 -0.8123 -0.4628 -0.6416
  401MOL0     C54064   2.387   1.054   9.849  0.1781  0.2168  1.1070
  401MOL0     C54065   2.547   0.820   9.016  0.6603 -0.8005  0.2716
  401MOL0     C54066   2.657   0.838   8.922  0.7152  0.5318 -0.2139
  401MOL0     C54067   2.611   0.855   8.780  1.0483 -0.1118  0.8613
  401MOL0     H54068   2.915   0.726   8.486 -0.4069  0.0949  2.6074
  401MOL0     H54069   3.086   0.750   8.316  2.8688 -1.4697 -0.9378
  401MOL0     H54070   3.298   0.756   8.225 -2.8292  0.7252  0.1416
  401MOL0     H54071   3.252   0.907   8.168  2.2125  0.6470 -1.0722
  401MOL0     H54072   3.485   0.991   8.159 -2.9118  0.7980  0.4151
  401MOL0     H54073   3.452   0.848   8.064 -2.9732  1.6218 -0.2449
  401MOL0     H54074   3.531   0.720   8.297 -1.0255 -0.1247 -1.0153
  401MOL0     H54075   3.615   0.875   8.331  2.2668 -2.9760  2.5607
  401MOL0     H54076   3.683   0.723   8.077  2.2471 -1.1937  1.6500
  401MOL0     H54077   3.726   0.883   8.127 -1.9425  1.1473  0.1942
  401MOL0     H54078   3.896   0.728   8.170 -1.9572  0.0874 -3.0874
  401MOL0     H54079   3.829   0.797   8.325 -5.0317  3.4436 -1.3406
  401MOL0     H54080   3.905   0.548   8.336  3.0929  5.3316 -1.0950
  401MOL0     H54081   3.745   0.588   8.386  0.2155 -2.5168  0.1096
  401MOL0     H54082   3.804   0.495   8.096 -1.2235  0.2104 -1.0625
  401MOL0     H54083   3.651   0.532   8.160 -0.0098  3.3299 -1.7071
  401MOL0     H54084   3.672   0.302   8.152 -1.2352 -0.3557  1.4979
  401MOL0     H54085   3.834   0.300   8.218  1.9740  3.0195  1.8644
  401MOL0     H54086   3.716   0.107   8.372 -0.2829 -0.0934  0.5565
  401MOL0     H54087   3.461   0.107   8.672  0.9746  0.3728 -0.3950
  401MOL0     H54088   3.545   0.004   8.553 -0.4810  0.9090 -0.3392
  401MOL0     H54089   3.764   0.045   8.671 -1.1122 -0.2739 -2.7116
  401MOL0     H54090   3.685   0.161   8.774  0.0929 -0.3616 -0.4630
  401MOL0     H54091   3.632  -0.136   8.762 -1.0696 -1.0445  0.7509
  401MOL0     H54092   3.532  -0.030   8.853  1.0493 -0.6387  1.7389
  401MOL0     H54093   3.683  -0.101   9.011  1.0075  2.2831  1.6372
  401MOL0     H54094   3.743   0.058   8.974  1.3292  0.8408 -0.6757
  401MOL0     H54095   4.083  -0.198   8.833 -2.6777 -3.3883  0.9354
  401MOL0     H54096   4.266  -0.254   8.976  0.1007  2.2788 -1.4370
  401MOL0     H54097   4.142  -0.311   9.603 -0.1639 -2.0880 -0.3627
  401MOL0     H54098   4.280  -0.364   9.811 -0.5812 -3.9243 -1.1653
  401MOL0     H54099   4.560  -0.544   9.748 -2.5720 -0.9574  2.2982
  401MOL0     H54100   4.703  -0.465   9.829  0.3770  0.0203  0.3131
  401MOL0     H54101   4.445  -0.550   9.963 -0.3678  0.1880  1.1577
  401MOL0     H54102   4.584  -0.657   9.954  0.0309 -0.2419  0.6789
  401MOL0     H54103   4.726  -0.499  10.084  0.1213 -0.3803  1.6508
  401MOL0     H54104   4.606  -0.379  10.089  2.3509  1.0431  1.3536
  401MOL0     H54105   4.553  -0.664  10.196 -0.0175 -0.5608  1.4915
  401MOL0     H54106   4.476  -0.522  10.257  0.1998 -1.0177 -0.4952
  401MOL0     H54107   4.681  -0.421  10.343 -1.4256  1.0043 -3.9897
  401MOL0     H54108   4.781  -0.552  10.289 -0.4545 -0.3179 -1.1042
  401MOL0     H54109   4.696  -0.568  10.531  0.4077  1.6460 -0.6798
  401MOL0     H54110   4.543  -0.585  10.480  0.8283  1.0318  2.2717
  401MOL0     H54111   4.737  -0.764  10.347  0.7723  0.2654  1.4797
  401MOL0     H54112   4.570  -0.810  10.411 -0.0285  0.2244  0.0618
  401MOL0     H54113   4.752  -0.915  10.537  3.1378  0.7246  0.1798
  401MOL0     H54114   4.812  -0.747  10.576 -0.2947  3.1544 -1.9602
  401MOL0     H54115   4.632  -0.249   9.612 -0.3403 -1.5559 -0.7555
  401MOL0     H54116   4.519  -0.215   9.409  0.7377  0.2353 -0.0965
  401MOL0     H54117   4.004  -0.176   9.307  2.3700 -4.0899  0.5830
  401MOL0     H54118   3.838  -0.095   9.160  1.4882  0.9411  2.5682
  401MOL0     H54119   3.317   0.982   8.594  3.1750 -3.8822 -0.0169
  401MOL0     H54120   3.159   0.969   8.758  0.1510  1.6429 -0.7355
  401MOL0     H54121   2.904   0.737   9.126 -0.1735  0.2403  0.7651
  401MOL0     H54122   2.727   0.730   9.280  0.6699 -0.3714  0.2669
  401MOL0     H54123   2.579   0.774   9.428 -1.6677 -0.1645  2.7898
  401MOL0     H54124   2.532   0.619   9.344 -0.9013  0.2890 -2.7195
  401MOL0     H54125   2.381   0.638   9.528 -0.1699 -0.9061 -2.1505
  401MOL0     H54126   2.298   0.712   9.393 -1.2515 -2.5164  1.4397
  401MOL0     H54127   2.267   0.886   9.558  1.5562  2.1700  0.0609
  401MOL0     H54128   2.405   0.948   9.470  0.7666  0.7436  1.5088
  401MOL0     H54129   2.436   0.769   9.734 -0.3488 -1.2236 -2.3179
  401MOL0     H54130   2.543   0.877   9.654  0.2769 -0.1496 -0.8997
  401MOL0     H54131   2.381   1.131   9.923  1.5455  0.9484  0.4747
  401MOL0     H54132   2.443   0.829   8.985  0.8010  1.3604  0.2707
  401MOL0     H54133   2.659   0.948   8.747  0.3047  1.0055  2.7156
  401MOL0     H54134   2.642   0.761   8.735 -1.6710 -1.1402  0.9498
  401MOL0     H54135   2.502   0.858   8.770  1.1839  0.0349 -0.8693
  402MOL0     O54136   7.649   5.740   4.351  0.5299 -0.9799 -0.3807
  402MOL0     C54137   7.604   5.632   4.305 -0.6941  0.3487  0.0883
  402MOL0     O54138   7.482   5.611   4.253  0.3727 -0.3313  0.3978
  402MOL0     C54139   7.400   5.716   4.215  0.1051  0.3799 -1.0400
  402MOL0     C54140   7.359   5.821   4.302 -0.2825  0.0292  0.3341
  402MOL0     C54141   7.267   5.911   4.261  0.1561 -0.1122  0.1489
  402MOL0     C54142   7.203   5.914   4.128 -0.2418  0.1458 -0.8073
  402MOL0     O54143   7.125   6.022   4.091  0.7737 -0.1440 -0.0903
  402MOL0     C54144   7.073   6.020   3.954 -0.6205 -0.2117  0.5029
  402MOL0     C54145   7.002   6.150   3.915 -0.3671 -0.0641  0.6594
  402MOL0     C54146   7.088   6.276   3.911 -0.2317  0.0300 -0.3873
  402MOL0     C54147   7.092   6.332   4.048  1.0325 -1.0153 -0.8234
  402MOL0     C54148   7.141   6.483   4.039 -0.2701  0.9107 -0.4167
  402MOL0     C54149   7.149   6.554   4.178 -0.8145  0.1437 -0.3231
  402MOL0     C54150   7.039   6.558   4.273 -0.4468 -0.1863  0.2225
  402MOL0     C54151   6.904   6.608   4.229  0.1490  0.4840  0.2344
  402MOL0     N54152   6.811   6.596   4.345 -0.7060 -0.4111 -0.7004
  402MOL0     C54153   6.688   6.656   4.359  0.2344  0.4788  0.9617
  402MOL0     C54154   6.656   6.633   4.493  0.1252 -0.4583  0.9577
  402MOL0     C54155   6.536   6.693   4.560 -0.2233 -0.3358  0.3777
  402MOL0     C54156   6.431   6.585   4.590  0.2358 -0.1403 -0.2923
  402MOL0     C54157   6.396   6.512   4.462  0.1394  0.4917  1.0454
  402MOL0     C54158   6.264   6.425   4.461 -0.9377 -0.2888  0.2198
  402MOL0     O54159   6.250   6.358   4.582  0.4612 -0.3406 -0.7493
  402MOL0     C54160   6.324   6.244   4.605 -0.2590  0.6167 -0.1945
  402MOL0     C54161   6.410   6.167   4.520  0.5912  0.2691  0.2919
  402MOL0     C54162   6.463   6.045   4.575  0.4650 -0.4961 -0.2518
  402MOL0     C54163   6.452   6.013   4.714 -0.1137 -0.2951 -0.2132
  402MOL0     C54164   6.533   5.909   4.765 -0.4539  0.4101 -0.2445
  402MOL0     O54165   6.610   5.830   4.685  0.2339 -0.1674  0.6072
  402MOL0     C54166   6.673   5.722   4.738 -0.5984 -0.2535  0.2787
  402MOL0     C54167   6.640   5.584   4.733  0.2328 -0.4745  0.2742
  402MOL0     C54168   6.719   5.495   4.800  0.7718 -0.2572  0.1999
  402MOL0     C54169   6.840   5.529   4.860 -0.2198  0.9373 -0.8195
  402MOL0     O54170   6.922   5.433   4.910 -0.3267 -0.7833 -1.1506
  402MOL0     C54171   7.054   5.449   4.853 -0.2278  0.3078  0.0501
  402MOL0     C54172   7.100   5.311   4.803 -0.5479  0.7040 -0.0505
  402MOL0     C54173   7.145   5.231   4.932 -0.4311  0.0232  0.4484
  402MOL0     C54174   7.256   5.134   4.902 -0.0389  0.5064  0.0860
  402MOL0     C54175   7.335   5.092   5.038  0.3355  0.2420  0.2041
  402MOL0     C54176   7.243   4.999   5.124 -1.1602  0.3262 -0.1111
  402MOL0     C54177   7.171   5.077   5.234  0.0789  0.1384  0.7817
  402MOL0     C54178   7.074   4.989   5.322  0.4546 -0.0709 -0.1083
  402MOL0    Cl54179   7.173   4.854   5.406  0.1485  0.3452 -0.6417
  402MOL0     C54180   6.868   5.669   4.870 -0.8954 -0.7050 -0.8972
  402MOL0     C54181   6.784   5.764   4.815 -0.0306 -0.2751 -0.7725
  402MOL0     O54182   6.506   5.883   4.884 -0.9194 -0.2249  0.1739
  402MOL0     C54183   6.383   6.096   4.798  0.5354 -0.6620  0.5001
  402MOL0     C54184   6.312   6.204   4.741 -0.4222 -0.0423 -0.2133
  402MOL0     N54185   6.744   6.560   4.548  0.0942  0.1447  0.8313
  402MOL0     N54186   6.836   6.535   4.463  0.0522 -0.3039  0.6083
  402MOL0     C54187   7.231   5.801   4.043 -0.8240 -0.6467 -0.9354
  402MOL0     C54188   7.318   5.707   4.097  0.7269  1.2861 -0.3760
  402MOL0     C54189   7.713   5.534   4.287  0.3069  0.4040  0.4513
  402MOL0     C54190   7.841   5.561   4.345 -0.2219 -0.4895 -0.1971
  402MOL0     C54191   7.947   5.461   4.353  1.2179 -0.2109  1.1030
  402MOL0     C54192   7.927   5.333   4.295 -0.7242 -0.2021  0.6136
  402MOL0     O54193   8.025   5.236   4.295 -0.3278 -1.0342 -0.7169
  402MOL0     C54194   8.100   5.244   4.170  0.6318 -0.5110 -0.9979
  402MOL0     C54195   8.236   5.319   4.169  0.5597  0.4687 -0.5468
  402MOL0     C54196   8.308   5.285   4.294 -0.3910 -1.2093  0.5358
  402MOL0     C54197   8.444   5.361   4.290 -0.0561  0.2067  0.3567
  402MOL0     C54198   8.418   5.503   4.294  0.0393 -0.9103 -0.3039
  402MOL0     C54199   8.381   5.618   4.291 -0.6858 -0.0597  0.0773
  402MOL0     C54200   7.804   5.312   4.229 -0.3318 -0.3638 -0.4293
  402MOL0     C54201   7.700   5.410   4.220  0.3189  0.0723 -0.8550
  402MOL0     C54202   7.573   5.365   4.158 -0.4878  0.3985  0.0491
  402MOL0     H54203   7.391   5.830   4.405 -0.6210  1.3629  0.3509
  402MOL0     H54204   7.240   5.975   4.344 -0.6583 -1.0396  0.6156
  402MOL0     H54205   7.146   6.006   3.873 -0.2215 -2.0116  1.1276
  402MOL0     H54206   7.005   5.935   3.945 -0.1350 -0.5233 -0.3920
  402MOL0     H54207   6.906   6.160   3.967  0.5395 -2.9719  3.1909
  402MOL0     H54208   6.969   6.140   3.811  0.8837  2.5460 -0.0890
  402MOL0     H54209   7.042   6.342   3.836 -1.1716  1.6918  1.5364
  402MOL0     H54210   7.190   6.248   3.882  2.8031  5.0950  3.5578
  402MOL0     H54211   6.994   6.328   4.094  1.5814 -0.2930  0.4640
  402MOL0     H54212   7.165   6.283   4.114  1.4612  0.3396 -0.2467
  402MOL0     H54213   7.235   6.501   3.987  0.9628  1.3259  1.8354
  402MOL0     H54214   7.069   6.536   3.976 -0.7279 -0.4743 -1.1072
  402MOL0     H54215   7.225   6.497   4.232 -0.9180 -3.7463 -3.7977
  402MOL0     H54216   7.182   6.658   4.167 -1.6302  0.8548  2.7614
  402MOL0     H54217   7.074   6.614   4.361  0.0407  1.7460 -1.1492
  402MOL0     H54218   7.034   6.455   4.310 -0.9813 -0.2118  0.0888
  402MOL0     H54219   6.910   6.711   4.193  0.6008 -0.2754 -2.0385
  402MOL0     H54220   6.866   6.555   4.141  3.4676 -1.4084 -0.2323
  402MOL0     H54221   6.624   6.710   4.290 -2.3179 -5.2892 -1.8646
  402MOL0     H54222   6.569   6.751   4.647  0.0505 -1.3751  0.9878
  402MOL0     H54223   6.492   6.771   4.497 -0.9497  0.4498  1.7951
  402MOL0     H54224   6.462   6.515   4.668 -2.5037 -1.5636 -0.3706
  402MOL0     H54225   6.337   6.625   4.629 -1.2183 -2.7763 -0.8375
  402MOL0     H54226   6.473   6.440   4.432 -0.4168  0.8841 -1.5648
  402MOL0     H54227   6.383   6.582   4.379 -1.6482  1.5814  2.1707
  402MOL0     H54228   6.272   6.355   4.377 -2.0846 -3.3804  2.5277
  402MOL0     H54229   6.183   6.497   4.444 -1.0226  0.2031  2.4708
  402MOL0     H54230   6.420   6.191   4.415 -0.4732 -2.3545 -0.4989
  402MOL0     H54231   6.518   5.984   4.504  2.1326 -0.0001  0.5674
  402MOL0     H54232   6.554   5.557   4.672 -0.7679  0.4419  1.2222
  402MOL0     H54233   6.689   5.391   4.793 -2.2999  0.5805 -0.7916
  402MOL0     H54234   7.065   5.521   4.772  1.9389  3.4114  2.8440
  402MOL0     H54235   7.125   5.505   4.914 -1.2043  1.8817 -0.2064
  402MOL0     H54236   7.013   5.263   4.756 -0.6439 -0.3115  1.0917
  402MOL0     H54237   7.180   5.318   4.729  0.9088 -0.8899  1.2666
  402MOL0     H54238   7.188   5.304   5.001 -2.6648  0.8178  1.0959
  402MOL0     H54239   7.062   5.185   4.987  0.2777  2.6413  4.0804
  402MOL0     H54240   7.333   5.168   4.833  1.5205  0.6713  1.8182
  402MOL0     H54241   7.222   5.036   4.865 -0.1395 -0.3166  2.1778
  402MOL0     H54242   7.349   5.190   5.087 -2.4127 -0.0654  1.7962
  402MOL0     H54243   7.432   5.048   5.015  0.1376 -0.9321  1.4738
  402MOL0     H54244   7.169   4.945   5.064 -0.5934  1.0935 -1.5615
  402MOL0     H54245   7.304   4.921   5.171 -1.9566  0.4433  1.1563
  402MOL0     H54246   7.108   5.156   5.193 -1.1969 -0.7428  0.9682
  402MOL0     H54247   7.254   5.109   5.298  1.9072  0.2906 -1.5489
  402MOL0     H54248   7.025   5.045   5.402  0.9951 -1.3229  1.1503
  402MOL0     H54249   7.004   4.941   5.253  1.2634 -0.3818 -0.7259
  402MOL0     H54250   6.964   5.698   4.912 -0.3334 -2.4685 -0.8911
  402MOL0     H54251   6.823   5.864   4.809 -2.6591  0.7658 -2.2836
  402MOL0     H54252   6.383   6.087   4.906 -1.9024  1.3457  0.7644
  402MOL0     H54253   6.248   6.262   4.806  1.4650  0.5159  1.2304
  402MOL0     H54254   7.190   5.787   3.944 -1.8661  2.7912 -1.0980
  402MOL0     H54255   7.305   5.611   4.049 -0.3109 -0.0617  2.4181
  402MOL0     H54256   7.869   5.658   4.384 -1.0485  0.2391 -1.3708
  402MOL0     H54257   8.041   5.487   4.401  2.7651  1.3791 -2.4034
  402MOL0     H54258   8.047   5.295   4.089 -0.5655 -1.0032 -0.5369
  402MOL0     H54259   8.115   5.143   4.132  5.0086  0.4380 -2.4310
  402MOL0     H54260   8.204   5.423   4.175 -0.2668  0.2571 -1.1247
  402MOL0     H54261   8.287   5.305   4.073  0.7319 -0.6024 -0.3104
  402MOL0     H54262   8.326   5.179   4.310  0.8683 -0.8073  2.0002
  402MOL0     H54263   8.244   5.324   4.374 -0.3726 -1.9938  0.9350
  402MOL0     H54264   8.504   5.340   4.379 -1.9188  0.3152  1.6853
  402MOL0     H54265   8.506   5.325   4.208 -0.5124 -1.3508  0.6664
  402MOL0     H54266   8.339   5.716   4.286  0.4241  0.5839  2.0410
  402MOL0     H54267   7.801   5.211   4.190 -0.2093 -0.5030 -0.0837
  402MOL0     H54268   7.587   5.267   4.110  1.9511  0.0255  1.3503
  402MOL0     H54269   7.500   5.352   4.238  0.6022 -0.6192  0.9159
  402MOL0     H54270   7.532   5.440   4.090  1.0360  1.6714  0.5011
  403MOL0     O54271   5.956   9.731   5.758 -0.7165 -0.7180 -0.5467
  403MOL0     C54272   6.020   9.653   5.833 -0.3723 -0.6619 -0.3578
  403MOL0     O54273   5.961   9.583   5.941 -1.1713 -0.4852  0.3318
  403MOL0     C54274   5.832   9.626   5.990 -0.1939 -0.4275 -0.3004
  403MOL0     C54275   5.715   9.617   5.908 -0.5422  0.3843  0.4996
  403MOL0     C54276   5.593   9.671   5.953  0.1662  0.0167  0.3521
  403MOL0     C54277   5.584   9.724   6.082 -0.3460 -0.2986  0.9397
  403MOL0     O54278   5.458   9.763   6.128  0.4506 -0.0455 -0.2154
  403MOL0     C54279   5.448   9.910   6.144 -0.3697  0.7389  0.7131
  403MOL0     C54280   5.370   9.983   6.034 -0.2482  0.0023 -0.2302
  403MOL0     C54281   5.377  10.134   6.055  0.2374 -0.0333 -0.4034
  403MOL0     C54282   5.313  10.205   5.936 -0.7353  0.0571 -0.0757
  403MOL0     C54283   5.406  10.199   5.807  0.2017  0.9551 -1.1800
  403MOL0     C54284   5.368  10.309   5.706  0.3912  0.6408  0.9085
  403MOL0     C54285   5.405  10.274   5.556  0.7023 -0.4226  0.1154
  403MOL0     C54286   5.562  10.265   5.553 -0.2042 -0.6720 -0.9618
  403MOL0     N54287   5.613  10.303   5.420 -1.2620 -0.6061  0.5031
  403MOL0     C54288   5.631  10.209   5.322 -0.5046 -0.3661 -0.8883
  403MOL0     C54289   5.646  10.274   5.208 -0.0757 -0.0220 -0.0654
  403MOL0     C54290   5.661  10.218   5.076 -0.3587 -0.4151  0.3155
  403MOL0     C54291   5.723  10.319   4.986  0.7570  1.1348 -0.3987
  403MOL0     C54292   5.754  10.261   4.848  0.0523  0.8499 -0.9119
  403MOL0     C54293   5.824  10.358   4.754  0.0614 -0.0137 -0.2988
  403MOL0     O54294   5.810  10.277   4.636 -0.2920 -0.0555  0.1098
  403MOL0     C54295   5.694  10.287   4.555  0.4246  0.2642  0.2171
  403MOL0     C54296   5.571  10.336   4.594  0.5497  0.0754  0.9040
  403MOL0     C54297   5.465  10.356   4.504  0.3685 -0.7943  0.1093
  403MOL0     C54298   5.487  10.303   4.376  0.5018  0.0947 -0.3064
  403MOL0     C54299   5.376  10.289   4.285  0.0485 -0.0331 -0.2050
  403MOL0     O54300   5.272  10.373   4.309  0.4131  1.2091 -0.1462
  403MOL0     C54301   5.166  10.368   4.236  0.3830 -0.2272  0.2108
  403MOL0     C54302   5.114  10.469   4.160 -1.2216 -0.2013 -0.0705
  403MOL0     C54303   4.993  10.456   4.086 -0.3425  0.0007 -0.3082
  403MOL0     C54304   4.915  10.341   4.091 -0.0335  0.6992 -0.1825
  403MOL0     O54305   4.799  10.325   4.017 -0.5017 -0.1629  0.0945
  403MOL0     C54306   4.690  10.244   4.064 -0.7424  0.3506  0.0344
  403MOL0     C54307   4.550  10.308   4.064  0.3666  0.4743  0.0991
  403MOL0     C54308   4.442  10.224   4.130 -0.5863  0.2497  1.0395
  403MOL0     C54309   4.297  10.278   4.093 -0.2851  0.9814 -0.1275
  403MOL0     C54310   4.194  10.212   4.184  1.0859  0.0590  1.1615
  403MOL0     C54311   4.204  10.262   4.328 -1.6435  0.5240 -0.3946
  403MOL0     C54312   4.135  10.171   4.432  0.0349  0.5398  0.8446
  403MOL0     C54313   4.139  10.223   4.571  0.8146 -0.4999  0.1868
  403MOL0    Cl54314   4.308  10.257   4.619  0.3992  0.2688  0.0488
  403MOL0     C54315   4.967  10.238   4.165 -0.0041  0.4593 -0.5124
  403MOL0     C54316   5.087  10.249   4.232 -0.0442 -0.0032  0.5315
  403MOL0     O54317   5.389  10.228   4.181  0.2664 -0.3261  0.2095
  403MOL0     C54318   5.601  10.239   4.340  0.4171  0.4958 -0.7501
  403MOL0     C54319   5.717  10.240   4.423  0.1974  0.3988 -1.1989
  403MOL0     N54320   5.649  10.409   5.240 -1.0593  0.5250  0.4765
  403MOL0     N54321   5.641  10.421   5.368  0.6045  0.8086 -0.5062
  403MOL0     C54322   5.699   9.724   6.161  0.4287 -0.3661 -0.2582
  403MOL0     C54323   5.823   9.688   6.115 -0.0250 -0.3929  0.2621
  403MOL0     C54324   6.162   9.624   5.801 -0.1010  0.4466  0.3329
  403MOL0     C54325   6.240   9.521   5.871  0.5964 -0.2214 -0.4759
  403MOL0     C54326   6.374   9.514   5.856  0.2340 -0.0805  0.1146
  403MOL0     C54327   6.444   9.585   5.759  0.7824 -0.4072 -0.7646
  403MOL0     O54328   6.575   9.554   5.752 -0.6775  0.4188 -1.3439
  403MOL0     C54329   6.638   9.565   5.622  0.1590  0.0813 -0.4979
  403MOL0     C54330   6.702   9.701   5.621 -0.5822 -0.1862  0.4858
  403MOL0     C54331   6.799   9.725   5.501  0.5758 -0.2296 -0.5517
  403MOL0     C54332   6.753   9.699   5.361 -0.1888 -0.1397 -0.3187
  403MOL0     C54333   6.613   9.731   5.336  0.1550  0.0590 -0.5134
  403MOL0     C54334   6.492   9.756   5.313 -0.4869 -0.2584  0.9810
  403MOL0     C54335   6.372   9.667   5.672 -0.0993  0.7203 -0.2597
  403MOL0     C54336   6.230   9.689   5.689 -0.6128 -0.5215  0.0388
  403MOL0     C54337   6.176   9.802   5.598  0.0317  0.2520 -0.8166
  403MOL0     H54338   5.714   9.574   5.808  3.4706 -0.4993  0.6614
  403MOL0     H54339   5.505   9.667   5.891  1.3193  1.2846 -1.4788
  403MOL0     H54340   5.396   9.920   6.239 -0.1339  1.3286  0.7860
  403MOL0     H54341   5.548   9.955   6.156 -0.7677  1.3460  1.9431
  403MOL0     H54342   5.266   9.950   6.044  0.4005 -1.6915  1.2877
  403MOL0     H54343   5.409   9.956   5.935 -2.7270  1.1391 -1.6163
  403MOL0     H54344   5.481  10.166   6.067 -0.0813  0.2494  2.1280
  403MOL0     H54345   5.335  10.166   6.151 -0.4120 -1.6103 -0.1269
  403MOL0     H54346   5.221  10.159   5.900  0.4395 -1.1554 -1.6671
  403MOL0     H54347   5.296  10.309   5.966 -0.2419  0.2007 -0.2867
  403MOL0     H54348   5.513  10.198   5.828 -0.1022 -0.5488  0.4988
  403MOL0     H54349   5.379  10.102   5.764 -1.6011  0.2034  1.4013
  403MOL0     H54350   5.262  10.326   5.725  0.0508  1.6993 -1.5666
  403MOL0     H54351   5.414  10.405   5.732 -0.0529  0.1722  3.8828
  403MOL0     H54352   5.380  10.362   5.495  0.7768 -0.2718  0.3001
  403MOL0     H54353   5.344  10.190   5.523  2.1205 -1.2179 -0.5432
  403MOL0     H54354   5.609  10.338   5.620 -0.2767 -2.6429  1.3981
  403MOL0     H54355   5.595  10.165   5.583  0.3577 -0.2244 -0.0503
  403MOL0     H54356   5.615  10.103   5.339  0.7113 -0.9462 -2.9725
  403MOL0     H54357   5.726  10.131   5.091 -1.3427 -1.2526 -0.1356
  403MOL0     H54358   5.566  10.193   5.028 -1.5611  4.5828 -0.4945
  403MOL0     H54359   5.652  10.402   4.982  0.1847  0.6289 -0.9690
  403MOL0     H54360   5.814  10.363   5.027 -1.1286  2.2326  2.9664
  403MOL0     H54361   5.654  10.222   4.824 -0.6749 -0.4735  3.3911
  403MOL0     H54362   5.805  10.168   4.873 -2.1091 -0.2547 -0.3959
  403MOL0     H54363   5.931  10.364   4.776  0.3130  0.5855 -1.5506
  403MOL0     H54364   5.766  10.450   4.744  0.6460  0.2848 -1.0584
  403MOL0     H54365   5.540  10.377   4.690 -1.6024  0.3201  0.1468
  403MOL0     H54366   5.375  10.403   4.542  0.1556  0.7433 -2.0693
  403MOL0     H54367   5.170  10.562   4.162 -0.8198 -0.4311  1.9466
  403MOL0     H54368   4.959  10.537   4.023  2.5800  2.6109  1.1496
  403MOL0     H54369   4.674  10.154   4.004  1.7876 -1.9421  2.5118
  403MOL0     H54370   4.701  10.203   4.165 -0.5349 -1.3829 -0.6523
  403MOL0     H54371   4.543  10.404   4.115  0.2893  2.0244 -2.6223
  403MOL0     H54372   4.519  10.329   3.961 -1.7511 -3.1330 -0.2053
  403MOL0     H54373   4.445  10.121   4.095  1.8155  0.3663  0.7863
  403MOL0     H54374   4.468  10.223   4.236  1.6283 -1.4087  0.5600
  403MOL0     H54375   4.275  10.244   3.992 -1.0438 -2.8024  1.1388
  403MOL0     H54376   4.289  10.385   4.113 -3.4811  0.4604  2.2149
  403MOL0     H54377   4.192  10.103   4.175 -1.7869  0.1606 -0.6668
  403MOL0     H54378   4.096  10.241   4.145  1.1470  0.5985  1.3987
  403MOL0     H54379   4.311  10.274   4.349 -1.9970  1.4296  1.0385
  403MOL0     H54380   4.163  10.363   4.321 -0.2261  1.0394 -1.9972
  403MOL0     H54381   4.175  10.070   4.426 -1.7262 -0.1448 -0.4282
  403MOL0     H54382   4.030  10.147   4.413  0.6668 -1.9922  0.1632
  403MOL0     H54383   4.077  10.312   4.580 -0.7563 -1.4454 -0.7823
  403MOL0     H54384   4.090  10.150   4.637 -0.3564 -2.3463 -2.5476
  403MOL0     H54385   4.920  10.141   4.164  1.5766 -0.4039  1.8552
  403MOL0     H54386   5.119  10.163   4.290  0.2238 -0.3852 -0.1603
  403MOL0     H54387   5.618  10.191   4.244 -3.0336  0.5263 -1.4924
  403MOL0     H54388   5.811  10.198   4.390  0.2735  0.6606 -1.3197
  403MOL0     H54389   5.695   9.756   6.265  1.8340  2.5607 -1.0166
  403MOL0     H54390   5.915   9.710   6.169 -1.5541  1.4109  2.2887
  403MOL0     H54391   6.195   9.465   5.953  1.4555  0.6693  0.6431
  403MOL0     H54392   6.431   9.439   5.909  0.7384  0.2186  0.0040
  403MOL0     H54393   6.563   9.543   5.545  0.9043 -3.1656 -0.4702
  403MOL0     H54394   6.727   9.502   5.612  1.0507  0.9135  1.5887
  403MOL0     H54395   6.759   9.718   5.713 -1.2484  2.6063  0.4644
  403MOL0     H54396   6.630   9.783   5.624 -1.2072 -0.5721 -1.7131
  403MOL0     H54397   6.887   9.660   5.511  1.6992  1.1594 -0.9966
  403MOL0     H54398   6.827   9.831   5.507 -0.4136 -0.0401  1.9291
  403MOL0     H54399   6.805   9.765   5.290  0.1207 -1.2257 -1.1243
  403MOL0     H54400   6.779   9.599   5.325 -0.1430 -0.6033  0.9802
  403MOL0     H54401   6.390   9.783   5.293  0.0186  1.7847  0.9270
  403MOL0     H54402   6.430   9.722   5.599 -0.3604 -1.6336 -2.4033
  403MOL0     H54403   6.251   9.808   5.518  1.0778  2.2993  0.2603
  403MOL0     H54404   6.086   9.768   5.547  0.4236  0.1819 -1.4795
  403MOL0     H54405   6.154   9.899   5.644 -0.6939  0.3684 -1.3743
  404MOL0     O54406   4.749   0.684   9.883  0.0964 -0.0258  1.2960
  404MOL0     C54407   4.660   0.737   9.813 -0.0461  0.0480  0.3385
  404MOL0     O54408   4.678   0.849   9.738  0.8885 -0.0091 -1.0648
  404MOL0     C54409   4.787   0.923   9.784 -0.7568  0.1211  0.0004
  404MOL0     C54410   4.780   0.996   9.896 -0.1097  1.1544  0.7790
  404MOL0     C54411   4.893   1.078   9.935 -0.6059 -0.4580  1.1698
  404MOL0     C54412   5.017   1.090   9.867  0.8550 -0.3383 -0.5587
  404MOL0     O54413   5.112   1.187   9.885  0.6506 -0.0533 -0.4185
  404MOL0     C54414   5.150   1.234  10.014 -0.7260  0.2145 -0.1188
  404MOL0     C54415   5.268   1.327   9.985  0.3637 -0.5092 -0.2723
  404MOL0     C54416   5.389   1.265   9.916 -0.0647  0.7510 -0.2621
  404MOL0     C54417   5.495   1.364   9.893 -0.6454  0.1848  0.2862
  404MOL0     C54418   5.604   1.308   9.798 -0.4335 -0.2964  0.9212
  404MOL0     C54419   5.720   1.412   9.765  0.0915 -0.2977  0.5137
  404MOL0     C54420   5.835   1.408   9.858 -0.2360  0.4899 -0.3695
  404MOL0     C54421   5.942   1.518   9.841 -0.8205  0.9584  0.6595
  404MOL0     N54422   6.062   1.471   9.915 -0.0383 -0.3458  0.3344
  404MOL0     C54423   6.086   1.494  10.046  1.0031 -0.4734 -0.5798
  404MOL0     C54424   6.193   1.430  10.089 -0.2038 -0.2914  1.1344
  404MOL0     C54425   6.246   1.411  10.232  0.0201 -0.0490  0.0348
  404MOL0     C54426   6.172   1.289  10.282 -0.4927  0.4126 -0.1339
  404MOL0     C54427   6.251   1.223  10.401 -0.0537  0.0765 -0.4073
  404MOL0     C54428   6.164   1.119  10.482 -0.7812 -0.6244  0.0855
  404MOL0     O54429   6.246   1.016  10.546 -0.0479 -0.1040  0.3381
  404MOL0     C54430   6.167   0.950  10.643  0.3499  0.2468  0.0304
  404MOL0     C54431   6.244   0.866  10.731 -0.3132 -0.2637  0.8711
  404MOL0     C54432   6.179   0.782  10.820 -0.0432  0.7767 -0.5652
  404MOL0     C54433   6.043   0.786  10.843 -0.4420 -0.8602 -0.0481
  404MOL0     C54434   5.968   0.705  10.951  0.0909  0.2151  0.5824
  404MOL0     O54435   6.041   0.644  11.047 -1.0268  1.1143  0.2810
  404MOL0     C54436   5.968   0.547  11.125  0.1311 -0.0573  0.5214
  404MOL0     C54437   5.889   0.596  11.227 -0.6312 -1.1554  0.5762
  404MOL0     C54438   5.814   0.516  11.311 -0.4700 -0.1604  0.6534
  404MOL0     C54439   5.819   0.374  11.286 -1.0106 -0.3755  0.7277
  404MOL0     O54440   5.723   0.295  11.353  0.7585  0.0892 -0.3208
  404MOL0     C54441   5.768   0.261  11.485 -0.1531  0.0925  0.4747
  404MOL0     C54442   5.670   0.238  11.598  0.1975 -0.0785 -0.3050
  404MOL0     C54443   5.725   0.154  11.714 -0.3436  0.6236  0.0885
  404MOL0     C54444   5.630   0.047  11.770  0.6452  1.3436  0.4134
  404MOL0     C54445   5.519   0.085  11.858 -0.3038  0.0996 -0.2551
  404MOL0     C54446   5.560   0.164  11.986 -0.0212  0.2154  0.5118
  404MOL0     C54447   5.433   0.185  12.070 -0.1621  0.8906 -0.3601
  404MOL0     C54448   5.499   0.234  12.195  0.3279  0.0382  0.3165
  404MOL0    Cl54449   5.366   0.303  12.296 -0.2400 -0.3455  0.2461
  404MOL0     C54450   5.906   0.321  11.182 -0.4196  0.4772 -0.1896
  404MOL0     C54451   5.982   0.402  11.107 -0.1202 -0.4985  0.7501
  404MOL0     O54452   5.843   0.709  10.943  0.2634 -0.2206 -0.6937
  404MOL0     C54453   5.962   0.871  10.760 -1.4936 -0.0163 -1.0510
  404MOL0     C54454   6.028   0.949  10.660  0.1698 -0.2677 -0.4872
  404MOL0     N54455   6.244   1.364   9.977  0.4806  0.8583 -0.8179
  404MOL0     N54456   6.164   1.393   9.877  0.1954 -0.1089 -0.2845
  404MOL0     C54457   5.020   1.011   9.746  0.1962  0.5067 -0.7055
  404MOL0     C54458   4.911   0.918   9.717 -0.5648 -0.1140  0.6753
  404MOL0     C54459   4.534   0.664   9.804 -0.2817  0.0567 -0.1828
  404MOL0     C54460   4.427   0.752   9.786  0.3165  0.7151 -0.2505
  404MOL0     C54461   4.296   0.695   9.808  0.3247 -0.5128  0.1257
  404MOL0     C54462   4.289   0.560   9.826 -0.0187  0.5086  0.2016
  404MOL0     O54463   4.178   0.479   9.828 -0.6024 -1.0369  0.0244
  404MOL0     C54464   4.071   0.543   9.767 -0.5519  0.5827  0.1844
  404MOL0     C54465   3.964   0.432   9.748 -0.5023  0.2570 -0.2006
  404MOL0     C54466   3.853   0.501   9.670 -0.7211  0.0678  0.0776
  404MOL0     C54467   3.737   0.391   9.649  0.5117  0.3646  0.1522
  404MOL0     C54468   3.680   0.353   9.780 -0.7501  0.5956 -0.5482
  404MOL0     C54469   3.662   0.319   9.891  0.5835 -0.0971 -0.0898
  404MOL0     C54470   4.399   0.476   9.831 -0.1303 -0.1774 -0.3323
  404MOL0     C54471   4.526   0.524   9.824 -0.0934 -0.6650  0.6264
  404MOL0     C54472   4.643   0.419   9.827  0.7484 -0.4241 -0.4150
  404MOL0     H54473   4.691   1.000   9.958 -2.4778  0.6782 -2.3435
  404MOL0     H54474   4.894   1.162  10.005 -1.8820  0.7718 -0.2155
  404MOL0     H54475   5.062   1.285  10.055 -0.9720 -0.6213  0.4006
  404MOL0     H54476   5.164   1.153  10.086 -0.3532  0.5843  0.2348
  404MOL0     H54477   5.294   1.359  10.087  1.5001  1.6137 -1.1500
  404MOL0     H54478   5.226   1.413   9.933 -0.2458 -1.7507 -1.9069
  404MOL0     H54479   5.350   1.220   9.825 -0.8857 -1.1062  0.9428
  404MOL0     H54480   5.443   1.189   9.973 -0.8605 -1.8328 -2.7754
  404MOL0     H54481   5.447   1.451   9.846 -5.0628 -1.1119  1.8943
  404MOL0     H54482   5.553   1.394   9.981  0.9747 -0.2604 -0.5957
  404MOL0     H54483   5.642   1.216   9.843  0.9551 -1.0724 -1.6637
  404MOL0     H54484   5.558   1.278   9.704  1.8399 -1.2111  0.0291
  404MOL0     H54485   5.761   1.379   9.670 -0.4548 -2.8570  1.0739
  404MOL0     H54486   5.675   1.511   9.761 -1.5828 -0.9511  1.7572
  404MOL0     H54487   5.877   1.308   9.843  0.7827  0.8109  0.2937
  404MOL0     H54488   5.801   1.414   9.961 -0.5991 -1.8757 -0.2987
  404MOL0     H54489   5.967   1.550   9.739 -4.1016 -0.1090 -0.6254
  404MOL0     H54490   5.903   1.609   9.888  1.3271  2.9385 -1.1541
  404MOL0     H54491   6.024   1.560  10.105 -2.4436 -0.2630 -4.0557
  404MOL0     H54492   6.354   1.403  10.223  0.0093 -0.5035  0.2737
  404MOL0     H54493   6.216   1.499  10.289 -2.0351  0.6682 -1.9881
  404MOL0     H54494   6.075   1.324  10.320  0.7202  5.1290 -0.7581
  404MOL0     H54495   6.156   1.218  10.200 -2.7812 -1.0433  1.4504
  404MOL0     H54496   6.293   1.294  10.472 -1.6285 -1.1551  1.8791
  404MOL0     H54497   6.340   1.173  10.362 -1.6199 -2.6347 -0.7641
  404MOL0     H54498   6.095   1.075  10.410  2.3148 -2.6471 -1.9380
  404MOL0     H54499   6.112   1.182  10.554  2.7275  1.2558  1.2557
  404MOL0     H54500   6.351   0.861  10.719 -0.5576  0.8514 -3.4011
  404MOL0     H54501   6.247   0.712  10.868 -0.4048 -1.1475 -2.6868
  404MOL0     H54502   5.881   0.702  11.247 -0.5020 -1.1791  0.7597
  404MOL0     H54503   5.755   0.558  11.392  2.4886  2.6951  1.5648
  404MOL0     H54504   5.825   0.167  11.476  0.3672  0.2895  1.4636
  404MOL0     H54505   5.842   0.330  11.528  1.4703 -2.2106  1.6210
  404MOL0     H54506   5.619   0.330  11.626  0.2816 -0.5019  1.3163
  404MOL0     H54507   5.593   0.170  11.560 -0.2148  0.5822 -0.6695
  404MOL0     H54508   5.813   0.095  11.690  0.3586  1.7963 -0.3121
  404MOL0     H54509   5.753   0.223  11.794 -3.8823  2.3444  0.0647
  404MOL0     H54510   5.693  -0.031  11.814 -0.3411 -0.4417 -1.1504
  404MOL0     H54511   5.583  -0.010  11.689  0.5704  0.2026  1.2344
  404MOL0     H54512   5.469  -0.009  11.884 -2.0195  0.9476 -0.3925
  404MOL0     H54513   5.448   0.153  11.811 -1.2527 -1.4058 -1.0530
  404MOL0     H54514   5.631   0.093  12.029 -0.9018 -2.8341 -2.5697
  404MOL0     H54515   5.603   0.259  11.953  2.8798 -1.4815 -1.0198
  404MOL0     H54516   5.372   0.101  12.102  1.1507  0.9867  2.7382
  404MOL0     H54517   5.364   0.257  12.026  0.5304 -0.1285 -3.3143
  404MOL0     H54518   5.537   0.155  12.260 -1.9349 -0.7131  0.8067
  404MOL0     H54519   5.576   0.310  12.178 -1.5110  1.9671  0.0502
  404MOL0     H54520   5.928   0.214  11.180 -1.0680  0.3424 -1.8448
  404MOL0     H54521   6.039   0.348  11.033 -3.7799 -4.9663  0.6797
  404MOL0     H54522   5.856   0.890  10.773 -0.5926  5.2266  0.9303
  404MOL0     H54523   5.961   1.026  10.624 -1.8250 -0.6539  2.0761
  404MOL0     H54524   5.112   1.014   9.688  2.1123 -1.2177  2.0233
  404MOL0     H54525   4.931   0.838   9.648 -0.4201  1.2650 -0.9321
  404MOL0     H54526   4.446   0.857   9.765  2.2910  0.7236  1.2441
  404MOL0     H54527   4.209   0.758   9.796 -1.6608 -2.0172  4.4043
  404MOL0     H54528   4.082   0.581   9.665 -2.3612  2.1946  0.5366
  404MOL0     H54529   4.042   0.629   9.828  2.3170  1.1780  0.8474
  404MOL0     H54530   3.936   0.383   9.842 -1.0781 -0.3885 -0.6935
  404MOL0     H54531   4.012   0.355   9.685  1.3179 -0.8563  2.3818
  404MOL0     H54532   3.894   0.539   9.576  0.2951  1.1352  0.9288
  404MOL0     H54533   3.817   0.595   9.711 -3.0234 -0.2743 -0.9885
  404MOL0     H54534   3.650   0.420   9.590  2.0486 -1.4599 -3.2925
  404MOL0     H54535   3.781   0.309   9.591  0.4844  1.5050 -1.5431
  404MOL0     H54536   3.632   0.294   9.991 -1.0111 -4.5917 -1.4521
  404MOL0     H54537   4.383   0.369   9.845  0.2919 -0.0442  1.3968
  404MOL0     H54538   4.612   0.338   9.760  2.2105 -1.7478  0.4380
  404MOL0     H54539   4.737   0.456   9.786  1.3373  2.7625  3.2418
  404MOL0     H54540   4.659   0.382   9.929 -0.5390 -0.5088 -0.2328
  405MOL0     O54541   6.889   1.774   7.278 -0.2079  0.2114 -0.1739
  405MOL0     C54542   6.894   1.699   7.184 -0.6274 -0.0478  0.4889
  405MOL0     O54543   6.796   1.606   7.152 -0.7136  0.1381  0.5004
  405MOL0     C54544   6.717   1.555   7.251  0.1983 -0.6801 -0.2633
  405MOL0     C54545   6.580   1.563   7.249 -0.7473 -0.8249 -0.7332
  405MOL0     C54546   6.493   1.498   7.334  0.5295 -0.6630 -0.3570
  405MOL0     C54547   6.546   1.429   7.446 -0.8167 -0.2117 -0.5017
  405MOL0     O54548   6.475   1.388   7.555 -0.6153  0.2509  0.5353
  405MOL0     C54549   6.337   1.417   7.565  0.0425 -0.0094 -0.2819
  405MOL0     C54550   6.261   1.313   7.489 -0.0573 -0.7146  0.4536
  405MOL0     C54551   6.116   1.331   7.540 -0.0187  0.3263  0.1133
  405MOL0     C54552   6.025   1.214   7.521 -0.2223 -0.7092  0.5826
  405MOL0     C54553   5.882   1.250   7.566 -0.5426 -0.5549 -0.3129
  405MOL0     C54554   5.787   1.127   7.541  0.3691  0.1283  0.1663
  405MOL0     C54555   5.641   1.174   7.576  0.7688 -0.5782 -0.4956
  405MOL0     C54556   5.575   1.274   7.474 -0.5808  1.3072  0.9367
  405MOL0     N54557   5.450   1.342   7.516 -0.3383  0.2381 -0.0637
  405MOL0     C54558   5.325   1.316   7.469 -1.3538  0.1760  0.2634
  405MOL0     C54559   5.232   1.373   7.551 -0.5190 -0.2157  1.0194
  405MOL0     C54560   5.086   1.377   7.542 -0.0619  0.4184 -0.3735
  405MOL0     C54561   5.027   1.509   7.499  0.7475 -1.1798 -0.0306
  405MOL0     C54562   4.995   1.518   7.352  0.4608 -0.0266 -0.1290
  405MOL0     C54563   4.882   1.430   7.312  0.0522  1.6320  1.3234
  405MOL0     O54564   4.909   1.285   7.313  0.5209  0.3861  0.1275
  405MOL0     C54565   5.016   1.231   7.235  0.1440  0.1434  0.5218
  405MOL0     C54566   5.051   1.106   7.260 -0.8939  0.8407  0.9953
  405MOL0     C54567   5.135   1.026   7.177  0.6780 -0.4836 -1.1507
  405MOL0     C54568   5.180   1.081   7.057  0.0298 -1.1639 -0.0250
  405MOL0     C54569   5.254   0.995   6.963  0.4116  0.1158  0.9361
  405MOL0     O54570   5.240   0.854   6.981 -0.8677  0.9713 -0.7973
  405MOL0     C54571   5.304   0.774   6.896  0.7767 -0.2733  0.6538
  405MOL0     C54572   5.232   0.708   6.797  0.2267 -0.0566 -0.5656
  405MOL0     C54573   5.304   0.630   6.700 -0.9514 -0.4129 -1.0211
  405MOL0     C54574   5.440   0.603   6.722  0.0546 -0.2374 -0.1164
  405MOL0     O54575   5.510   0.515   6.639 -0.0998  0.2057  0.0245
  405MOL0     C54576   5.622   0.437   6.697  0.2831 -0.3061 -0.1577
  405MOL0     C54577   5.647   0.322   6.612  0.1704 -0.0852 -0.2367
  405MOL0     C54578   5.682   0.351   6.467  0.1225 -0.0758 -0.3563
  405MOL0     C54579   5.666   0.231   6.378 -1.2891  0.0390  0.0986
  405MOL0     C54580   5.673   0.257   6.234 -0.5841  0.2245 -0.3707
  405MOL0     C54581   5.592   0.160   6.149 -0.6611 -1.2063 -1.6132
  405MOL0     C54582   5.623   0.156   5.997 -0.5908  1.7975 -1.0534
  405MOL0     C54583   5.605   0.295   5.928  0.3615  0.0206  0.2975
  405MOL0    Cl54584   5.652   0.263   5.749  0.5332  0.4503  0.5250
  405MOL0     C54585   5.504   0.675   6.820  0.8041  0.6209  0.2091
  405MOL0     C54586   5.439   0.760   6.909  1.1900  0.5740  0.6824
  405MOL0     O54587   5.312   1.035   6.868  0.6089  0.1556  0.4751
  405MOL0     C54588   5.164   1.227   7.035  0.6056 -0.4416 -0.0826
  405MOL0     C54589   5.075   1.296   7.121 -0.5918 -0.8586 -1.3193
  405MOL0     N54590   5.305   1.428   7.654  0.7884  0.2624 -1.1167
  405MOL0     N54591   5.429   1.409   7.630  0.2110  0.8290  0.3110
  405MOL0     C54592   6.685   1.419   7.452  0.0483  0.4310  0.0088
  405MOL0     C54593   6.772   1.476   7.353 -0.2449 -0.0736 -0.4288
  405MOL0     C54594   7.013   1.703   7.097 -0.1724 -0.0062  0.0842
  405MOL0     C54595   7.065   1.826   7.075  0.1670  0.3252 -0.2534
  405MOL0     C54596   7.185   1.832   6.998 -0.2273  1.2258 -0.4401
  405MOL0     C54597   7.249   1.717   6.946  0.6122 -0.4499  0.5015
  405MOL0     O54598   7.350   1.741   6.861  0.4865  0.4557 -0.8823
  405MOL0     C54599   7.413   1.633   6.785  0.2942 -0.0798  0.0654
  405MOL0     C54600   7.482   1.702   6.662  0.1274  1.1284  0.3568
  405MOL0     C54601   7.394   1.700   6.545 -0.3213 -0.0037 -0.4409
  405MOL0     C54602   7.472   1.714   6.412 -0.0039  0.0807  0.0483
  405MOL0     C54603   7.548   1.844   6.404  0.4394 -0.8346  0.4342
  405MOL0     C54604   7.605   1.949   6.405  0.6129  0.5392 -0.9916
  405MOL0     C54605   7.188   1.595   6.963  0.5049  0.3104 -0.6103
  405MOL0     C54606   7.069   1.584   7.033  0.0835 -0.2510 -0.2557
  405MOL0     C54607   7.016   1.443   7.056  0.3417  1.0675  0.4254
  405MOL0     H54608   6.546   1.621   7.163  2.4711  1.1164 -0.8259
  405MOL0     H54609   6.384   1.504   7.331  0.4574 -0.5060  1.3968
  405MOL0     H54610   6.315   1.406   7.672  1.8584 -1.6057 -0.0058
  405MOL0     H54611   6.306   1.515   7.530 -2.5529 -0.4880  0.4746
  405MOL0     H54612   6.312   1.218   7.505 -2.2677 -1.9662  0.3840
  405MOL0     H54613   6.257   1.338   7.383  1.4713  2.6905  1.0601
  405MOL0     H54614   6.089   1.423   7.487 -1.1033 -0.0395  0.0037
  405MOL0     H54615   6.109   1.347   7.648  2.8001  0.5017  0.3406
  405MOL0     H54616   6.028   1.188   7.415  5.8696  2.2058 -0.3947
  405MOL0     H54617   6.063   1.133   7.583 -0.2025  0.0675  1.6032
  405MOL0     H54618   5.892   1.275   7.672  0.3451  2.4436 -1.0067
  405MOL0     H54619   5.855   1.338   7.507  0.8022  0.0978  0.0005
  405MOL0     H54620   5.789   1.090   7.438  0.6708  1.2955 -0.2689
  405MOL0     H54621   5.811   1.043   7.607  2.9224 -0.0269 -0.8426
  405MOL0     H54622   5.641   1.227   7.672 -1.1362  0.9365 -1.2620
  405MOL0     H54623   5.584   1.082   7.592 -1.7737  1.2405  1.9769
  405MOL0     H54624   5.651   1.350   7.455  0.9113 -0.6478 -1.5430
  405MOL0     H54625   5.559   1.223   7.379  1.3424 -0.0003  1.2722
  405MOL0     H54626   5.325   1.257   7.378  1.3555  0.0723  0.2483
  405MOL0     H54627   5.042   1.289   7.496  4.1597 -2.3307  0.2630
  405MOL0     H54628   5.057   1.372   7.648 -0.3542  0.2157 -0.4652
  405MOL0     H54629   4.944   1.530   7.567  1.8586 -0.0741  1.0412
  405MOL0     H54630   5.094   1.590   7.531 -0.4411 -0.5815  1.0091
  405MOL0     H54631   5.091   1.502   7.302  0.3744 -1.3161  0.0998
  405MOL0     H54632   4.977   1.626   7.340  3.5443  0.5922  0.0994
  405MOL0     H54633   4.859   1.451   7.207  0.8443 -0.4570  0.6691
  405MOL0     H54634   4.786   1.448   7.362 -2.4455  2.6553 -3.2779
  405MOL0     H54635   4.999   1.059   7.343  0.8928  2.5139  3.1913
  405MOL0     H54636   5.143   0.923   7.210  1.0265  0.7751  3.4511
  405MOL0     H54637   5.125   0.725   6.806  0.4409  1.2867 -0.4778
  405MOL0     H54638   5.243   0.589   6.621 -1.7644 -3.4863  0.9980
  405MOL0     H54639   5.716   0.492   6.696  1.0690 -1.6041 -0.2683
  405MOL0     H54640   5.588   0.403   6.795 -1.1572 -0.7217 -0.7814
  405MOL0     H54641   5.723   0.259   6.660  1.7776 -1.1193 -3.7516
  405MOL0     H54642   5.562   0.254   6.614 -0.2629  0.4468 -0.3255
  405MOL0     H54643   5.616   0.435   6.446 -3.4534 -2.2440  1.3506
  405MOL0     H54644   5.788   0.379   6.461  0.7942 -2.4335 -0.5337
  405MOL0     H54645   5.563   0.199   6.395 -1.9699  2.1508  0.2700
  405MOL0     H54646   5.735   0.152   6.407 -2.0306 -1.4688 -2.0524
  405MOL0     H54647   5.776   0.243   6.199 -1.0492  1.1143 -2.2563
  405MOL0     H54648   5.657   0.365   6.222 -1.3431  0.3027  1.1008
  405MOL0     H54649   5.609   0.063   6.196 -1.4759  0.2344  2.0265
  405MOL0     H54650   5.484   0.169   6.164 -0.2100  1.0375  1.1981
  405MOL0     H54651   5.566   0.086   5.935  1.1219 -0.6544 -0.0152
  405MOL0     H54652   5.722   0.114   5.977 -1.3936 -0.3371 -0.8755
  405MOL0     H54653   5.504   0.331   5.946  0.4528  0.8389 -0.7398
  405MOL0     H54654   5.668   0.379   5.957 -0.2508  0.9202 -0.9082
  405MOL0     H54655   5.611   0.664   6.833  1.0737  0.8113 -1.5391
  405MOL0     H54656   5.494   0.805   6.991 -0.1073 -2.9917  3.7567
  405MOL0     H54657   5.214   1.291   6.963 -1.4159  3.1351  1.4012
  405MOL0     H54658   5.073   1.403   7.104  1.0724 -0.4473  0.6965
  405MOL0     H54659   6.719   1.354   7.533 -1.8383  0.3592  0.7918
  405MOL0     H54660   6.876   1.448   7.364 -0.6677 -1.5710  0.0810
  405MOL0     H54661   7.024   1.909   7.132  0.4691  0.0387  0.4011
  405MOL0     H54662   7.239   1.925   6.988  0.9237  1.2152  3.8484
  405MOL0     H54663   7.344   1.557   6.748  1.2273 -0.8890 -0.0530
  405MOL0     H54664   7.483   1.579   6.849 -1.0337 -0.6835  1.0730
  405MOL0     H54665   7.561   1.634   6.630 -0.9645  0.7315 -1.6703
  405MOL0     H54666   7.504   1.808   6.677  0.7699  0.9697  0.5679
  405MOL0     H54667   7.314   1.773   6.557 -1.7267 -1.3987 -0.9460
  405MOL0     H54668   7.345   1.603   6.542  0.1058 -0.2338 -0.1107
  405MOL0     H54669   7.549   1.636   6.404  0.5649  0.7061 -0.7196
  405MOL0     H54670   7.403   1.712   6.327  0.7783 -0.2130 -0.5898
  405MOL0     H54671   7.665   2.037   6.408 -0.9039  1.5853  0.0913
  405MOL0     H54672   7.225   1.502   6.921 -3.0192 -2.1364  1.1380
  405MOL0     H54673   6.958   1.420   7.146  0.0399 -1.6499 -0.3537
  405MOL0     H54674   6.951   1.406   6.976  0.9749 -0.7503  0.7104
  405MOL0     H54675   7.097   1.369   7.056  1.6034  2.3999 -0.2374
  406MOL0     O54676   3.828   8.658  10.582  0.3225 -0.2258  0.6422
  406MOL0     C54677   3.839   8.606  10.467 -0.3239  0.1487 -0.8697
  406MOL0     O54678   3.928   8.512  10.422  0.6752 -0.3772 -0.0656
  406MOL0     C54679   4.029   8.471  10.513 -0.0646 -0.3689  0.3254
  406MOL0     C54680   4.006   8.435  10.650  0.3495  0.6378 -0.0444
  406MOL0     C54681   4.102   8.373  10.721  0.7930 -0.1396  0.0538
  406MOL0     C54682   4.230   8.339  10.669 -0.6730 -0.9706  0.3790
  406MOL0     O54683   4.328   8.290  10.746  1.2084  0.2066 -0.8223
  406MOL0     C54684   4.354   8.324  10.880  0.0967 -0.1344  0.6314
  406MOL0     C54685   4.320   8.227  10.985 -0.5231  0.0432  0.8089
  406MOL0     C54686   4.328   8.300  11.123  0.0371  0.6687 -0.0488
  406MOL0     C54687   4.244   8.223  11.222 -1.5859  0.3223  0.1509
  406MOL0     C54688   4.255   8.282  11.363  0.6277 -0.4142 -0.4660
  406MOL0     C54689   4.374   8.233  11.433  0.9224  0.2683 -0.0065
  406MOL0     C54690   4.338   8.130  11.550 -0.6035 -0.1805  0.6819
  406MOL0     C54691   4.281   8.184  11.676 -1.1905  0.7979  0.3407
  406MOL0     N54692   4.263   8.068  11.768  0.6783  0.1075 -0.4542
  406MOL0     C54693   4.316   7.941  11.768  0.4022  0.4289 -0.4536
  406MOL0     C54694   4.267   7.889  11.885 -0.3970 -0.0020 -1.0351
  406MOL0     C54695   4.313   7.751  11.923  0.1919  0.3192 -0.9949
  406MOL0     C54696   4.187   7.665  11.969 -0.7868 -1.0151  0.8216
  406MOL0     C54697   4.207   7.520  11.955 -0.8218  0.4928  0.1400
  406MOL0     C54698   4.082   7.432  11.980  0.6205 -0.4871  0.4005
  406MOL0     O54699   4.129   7.294  12.020  0.7222  0.3236 -0.0345
  406MOL0     C54700   4.035   7.198  12.044 -0.5844  0.3039  0.6926
  406MOL0     C54701   4.080   7.070  12.083  0.8056  0.8066  0.2613
  406MOL0     C54702   3.985   6.959  12.110  0.8736 -0.2464  0.1422
  406MOL0     C54703   3.847   6.989  12.108 -0.2479 -0.5672 -0.3338
  406MOL0     C54704   3.751   6.876  12.140  0.1285  0.3632 -0.2545
  406MOL0     O54705   3.792   6.784  12.231  0.0260 -0.5353  0.0387
  406MOL0     C54706   3.720   6.669  12.260  0.0381 -0.2218  0.5253
  406MOL0     C54707   3.777   6.541  12.256 -0.6236 -0.1402 -0.0294
  406MOL0     C54708   3.707   6.429  12.314 -0.3212  0.5342 -0.0303
  406MOL0     C54709   3.576   6.440  12.362  1.3902  0.2051 -0.3242
  406MOL0     O54710   3.521   6.326  12.401  0.0267  0.4391  0.5674
  406MOL0     C54711   3.379   6.307  12.384 -0.6631  0.0971 -0.7384
  406MOL0     C54712   3.352   6.267  12.240  1.0473 -0.8304  0.3255
  406MOL0     C54713   3.425   6.159  12.170 -0.6360  0.3003 -0.9469
  406MOL0     C54714   3.377   6.016  12.219 -0.3879 -0.6077 -0.2955
  406MOL0     C54715   3.472   5.895  12.192  0.4810  0.2589 -0.2594
  406MOL0     C54716   3.402   5.765  12.234  0.3182 -0.6390  0.5630
  406MOL0     C54717   3.492   5.645  12.194 -0.1101  0.6626 -0.2387
  406MOL0     C54718   3.491   5.595  12.052 -0.6272 -0.9304  0.5572
  406MOL0    Cl54719   3.326   5.544  12.001 -0.0243 -0.1359 -0.0022
  406MOL0     C54720   3.511   6.567  12.364  0.2107 -0.8172  0.0429
  406MOL0     C54721   3.583   6.684  12.313  0.0750 -0.4146  0.0735
  406MOL0     O54722   3.630   6.880  12.102 -0.5775 -0.0883  0.4839
  406MOL0     C54723   3.808   7.116  12.062  0.0408  0.4157  0.3214
  406MOL0     C54724   3.894   7.220  12.033  0.5749  0.3216 -1.3032
  406MOL0     N54725   4.197   7.975  11.951 -1.0576 -0.4293 -0.1691
  406MOL0     N54726   4.190   8.085  11.878  0.6768 -0.0253 -0.0935
  406MOL0     C54727   4.256   8.390  10.541 -0.4470  1.0096  0.9171
  406MOL0     C54728   4.159   8.448  10.461 -0.5503 -0.9604 -0.0230
  406MOL0     C54729   3.736   8.633  10.361 -0.3504 -0.2596 -0.2836
  406MOL0     C54730   3.781   8.620  10.224 -0.9642 -0.7528  0.0830
  406MOL0     C54731   3.697   8.650  10.113 -0.6368  0.1030 -0.5628
  406MOL0     C54732   3.560   8.665  10.136  0.3670 -0.0182  0.1414
  406MOL0     O54733   3.487   8.684  10.023  1.1005 -0.1021 -0.5132
  406MOL0     C54734   3.345   8.695  10.040 -0.1422 -0.8285  0.3225
  406MOL0     C54735   3.294   8.831  10.086 -0.4811  0.4908 -0.4377
  406MOL0     C54736   3.295   8.934   9.980 -0.3209 -0.0939 -0.0092
  406MOL0     C54737   3.421   9.013   9.948 -0.2238 -0.3084  0.6796
  406MOL0     C54738   3.488   9.057  10.074 -0.0359 -0.8671 -0.0200
  406MOL0     C54739   3.550   9.082  10.175 -0.6438 -0.5549  1.2302
  406MOL0     C54740   3.518   8.668  10.269 -0.6030  0.8701  0.3135
  406MOL0     C54741   3.600   8.643  10.382 -0.0585  0.0320  0.1867
  406MOL0     C54742   3.547   8.636  10.521  0.6616  0.9647  0.2681
  406MOL0     H54743   3.903   8.439  10.684 -0.3851 -2.3909 -1.5159
  406MOL0     H54744   4.071   8.335  10.818 -1.1686  1.5575  0.1554
  406MOL0     H54745   4.461   8.344  10.887  0.0682 -0.4039  1.9948
  406MOL0     H54746   4.301   8.416  10.907 -1.3727 -1.0555  0.9865
  406MOL0     H54747   4.392   8.146  10.975  0.0793  0.5349  1.1012
  406MOL0     H54748   4.220   8.188  10.966  0.1968 -0.4226 -2.6788
  406MOL0     H54749   4.294   8.403  11.110  4.9015  2.3428 -1.4033
  406MOL0     H54750   4.433   8.312  11.151  0.4128  0.0218 -1.0963
  406MOL0     H54751   4.139   8.224  11.191 -1.2081 -0.9736 -1.2711
  406MOL0     H54752   4.273   8.119  11.235  1.3534  1.0614  0.1315
  406MOL0     H54753   4.256   8.391  11.365  0.9792 -0.4227  0.4408
  406MOL0     H54754   4.169   8.256  11.425  0.6768 -0.5210 -0.4415
  406MOL0     H54755   4.448   8.183  11.369  0.4158 -0.7654  0.1862
  406MOL0     H54756   4.425   8.314  11.487  1.4104  1.0377 -1.5650
  406MOL0     H54757   4.435   8.086  11.577 -0.4944  0.2702  1.0310
  406MOL0     H54758   4.278   8.050  11.505 -0.6190  0.0842  0.2213
  406MOL0     H54759   4.354   8.241  11.735 -1.4995  2.4309 -0.7958
  406MOL0     H54760   4.187   8.239  11.663 -0.3299  2.5017  0.9807
  406MOL0     H54761   4.384   7.900  11.694 -1.0650  0.2231 -1.7566
  406MOL0     H54762   4.368   7.716  11.835  4.7571  1.2848  1.2166
  406MOL0     H54763   4.379   7.751  12.010  0.0543  0.4397 -0.8891
  406MOL0     H54764   4.148   7.691  12.068  1.7006  3.2073  0.9614
  406MOL0     H54765   4.109   7.701  11.901  0.1852  0.2144  0.2997
  406MOL0     H54766   4.284   7.487  12.025 -0.7504 -0.8460 -0.5329
  406MOL0     H54767   4.238   7.496  11.852  1.5481  0.3750  0.8364
  406MOL0     H54768   4.014   7.430  11.895  0.4310  0.2345  0.5267
  406MOL0     H54769   4.034   7.476  12.069 -1.7053 -3.4182  0.7462
  406MOL0     H54770   4.182   7.033  12.073  0.0325 -0.8142 -4.6624
  406MOL0     H54771   4.013   6.858  12.138  1.0306 -0.4452 -0.6949
  406MOL0     H54772   3.877   6.527  12.217 -0.7392  1.3726 -0.9431
  406MOL0     H54773   3.754   6.331  12.321  0.7581  0.8774 -1.8003
  406MOL0     H54774   3.336   6.234  12.453 -1.6690  1.1242 -0.2362
  406MOL0     H54775   3.330   6.399  12.417  2.5734  1.5407  0.4638
  406MOL0     H54776   3.244   6.260  12.220  0.6685 -1.6134  2.4293
  406MOL0     H54777   3.376   6.357  12.182 -0.6504 -1.1355 -0.9266
  406MOL0     H54778   3.421   6.171  12.061  1.1521 -3.0851 -1.5076
  406MOL0     H54779   3.532   6.175  12.187  0.3854 -0.8880 -4.9592
  406MOL0     H54780   3.277   5.995  12.178 -0.2454 -1.4790 -0.2162
  406MOL0     H54781   3.365   6.011  12.328  0.6208  0.0861 -0.1454
  406MOL0     H54782   3.556   5.909  12.261  0.3387 -1.5917  0.3327
  406MOL0     H54783   3.504   5.884  12.088  3.9383  1.7481  0.5175
  406MOL0     H54784   3.378   5.759  12.340  0.3067  0.1283  0.6120
  406MOL0     H54785   3.313   5.758  12.171  1.3093  0.1778 -0.9986
  406MOL0     H54786   3.469   5.563  12.262 -1.1822 -0.0168 -1.3860
  406MOL0     H54787   3.598   5.664  12.212 -0.1960  1.2043 -0.2617
  406MOL0     H54788   3.527   5.672  11.983 -0.7257 -1.9564 -0.6825
  406MOL0     H54789   3.566   5.517  12.036 -1.2884 -1.3854 -0.4229
  406MOL0     H54790   3.411   6.583  12.404  0.1616 -1.2666  0.1142
  406MOL0     H54791   3.544   6.785  12.317  0.5231 -0.0071 -2.9758
  406MOL0     H54792   3.704   7.144  12.076 -0.9011 -2.0735 -1.0224
  406MOL0     H54793   3.847   7.313  12.004 -1.6332 -0.7666 -1.4223
  406MOL0     H54794   4.358   8.370  10.511  0.8592  4.4832  2.5857
  406MOL0     H54795   4.178   8.484  10.360  1.1610  0.2155  0.6764
  406MOL0     H54796   3.883   8.587  10.212 -1.5058 -3.5988  2.0413
  406MOL0     H54797   3.728   8.653  10.009  0.7804  1.3456 -0.1420
  406MOL0     H54798   3.317   8.618  10.113  0.6726  0.4091  2.0120
  406MOL0     H54799   3.293   8.663   9.949 -1.9822 -0.4958  1.2109
  406MOL0     H54800   3.346   8.862  10.177  0.9346 -0.6723 -0.7975
  406MOL0     H54801   3.192   8.810  10.120 -0.9583 -2.1397 -3.0587
  406MOL0     H54802   3.232   9.014  10.020  3.1182  2.3838  0.9408
  406MOL0     H54803   3.249   8.900   9.887  1.5994 -0.4897 -0.8661
  406MOL0     H54804   3.496   8.973   9.879  0.6770  1.5595  0.5174
  406MOL0     H54805   3.395   9.107   9.898  1.2853  1.4298  2.9630
  406MOL0     H54806   3.616   9.109  10.255 -1.8305  2.1261  1.4199
  406MOL0     H54807   3.413   8.694  10.280 -0.1657  2.3421  1.1774
  406MOL0     H54808   3.561   8.540  10.571  0.0155  1.1650  0.8359
  406MOL0     H54809   3.605   8.716  10.568 -1.7245  2.5218  0.7047
  406MOL0     H54810   3.442   8.661  10.536  0.5753  1.7489 -1.4359
  407MOL0     O54811   0.362   8.162   7.445 -0.0925  0.6614 -0.4825
  407MOL0     C54812   0.412   8.272   7.435  0.4481 -0.2799  1.2448
  407MOL0     O54813   0.350   8.393   7.449  0.5487 -0.1002  0.6637
  407MOL0     C54814   0.226   8.416   7.486  0.4018 -0.5913 -0.2736
  407MOL0     C54815   0.220   8.517   7.584 -0.3971 -0.1946  0.8393
  407MOL0     C54816   0.114   8.561   7.650  0.5159 -0.1234 -0.8155
  407MOL0     C54817  -0.005   8.498   7.611  0.2010 -0.0429 -1.2032
  407MOL0     O54818  -0.119   8.557   7.658  0.1304 -0.4909 -0.2042
  407MOL0     C54819  -0.201   8.484   7.751  0.7692 -0.7681 -0.0521
  407MOL0     C54820  -0.319   8.568   7.799  0.4309 -0.7488  0.7415
  407MOL0     C54821  -0.413   8.484   7.887  0.3708  0.5215 -0.8227
  407MOL0     C54822  -0.536   8.562   7.933 -0.1554  0.1814  0.4112
  407MOL0     C54823  -0.500   8.666   8.049  0.7277 -0.0508 -0.4782
  407MOL0     C54824  -0.619   8.747   8.104  0.2898  0.1895  0.1650
  407MOL0     C54825  -0.570   8.860   8.204  0.0338  0.3569  0.0919
  407MOL0     C54826  -0.642   8.993   8.191  0.0552  0.0265  0.2033
  407MOL0     N54827  -0.786   8.975   8.206 -0.0956 -0.3408  0.7515
  407MOL0     C54828  -0.852   8.940   8.319  0.0733  0.0504 -0.6504
  407MOL0     C54829  -0.979   8.931   8.282 -0.0388  0.3185 -0.7274
  407MOL0     C54830  -1.102   8.915   8.369 -0.0298  0.1737 -0.1390
  407MOL0     C54831  -1.130   9.040   8.460 -0.1269  0.4003  0.9032
  407MOL0     C54832  -1.256   9.109   8.429 -0.0559 -0.8712 -0.2791
  407MOL0     C54833  -1.299   9.199   8.545  0.0254 -0.2130 -0.1873
  407MOL0     O54834  -1.264   9.160   8.678 -0.1393  0.4354  0.1453
  407MOL0     C54835  -1.348   9.087   8.763  0.6025 -0.4952 -0.9890
  407MOL0     C54836  -1.482   9.117   8.792  0.1180  0.0157 -0.1574
  407MOL0     C54837  -1.544   9.031   8.885  0.7622  0.3861  0.4318
  407MOL0     C54838  -1.479   8.930   8.954 -0.6191  0.2393  0.3058
  407MOL0     C54839  -1.548   8.848   9.059 -0.6596 -0.9627  0.6856
  407MOL0     O54840  -1.681   8.829   9.049  1.0099 -0.6386 -0.7048
  407MOL0     C54841  -1.737   8.761   9.153 -0.6811 -0.6897 -0.4763
  407MOL0     C54842  -1.809   8.845   9.235 -0.0795 -0.0654  0.0872
  407MOL0     C54843  -1.874   8.788   9.349 -0.2238  0.2753  1.3179
  407MOL0     C54844  -1.851   8.654   9.384 -0.3401 -0.2348  0.1075
  407MOL0     O54845  -1.905   8.611   9.501 -0.4070  1.0605 -0.0750
  407MOL0     C54846  -1.859   8.680   9.620  0.3884  0.1525 -0.0988
  407MOL0     C54847  -1.971   8.759   9.690 -1.1547 -0.7519 -0.0541
  407MOL0     C54848  -2.120   8.705   9.694  1.0401  0.4847  0.5370
  407MOL0     C54849  -2.125   8.561   9.759  0.2648  0.1034 -0.3718
  407MOL0     C54850  -2.263   8.547   9.814  0.2284 -0.8341 -0.4322
  407MOL0     C54851  -2.289   8.400   9.847  0.8112 -0.9830 -0.4705
  407MOL0     C54852  -2.436   8.378   9.879  0.7876  0.0766 -0.3576
  407MOL0     C54853  -2.467   8.234   9.912 -0.0575  0.4415 -0.2711
  407MOL0    Cl54854  -2.629   8.220   9.955 -0.0780  0.4872  0.1896
  407MOL0     C54855  -1.773   8.569   9.306 -0.3186 -0.7460 -0.8735
  407MOL0     C54856  -1.729   8.627   9.186 -0.1962 -0.1746  0.4627
  407MOL0     O54857  -1.480   8.806   9.149 -0.1852 -0.2948 -0.0046
  407MOL0     C54858  -1.342   8.914   8.932 -0.7521  0.9154  0.7151
  407MOL0     C54859  -1.282   8.987   8.833 -0.1133 -0.1339  1.0947
  407MOL0     N54860  -0.989   8.966   8.151 -0.7413 -0.2423  0.5073
  407MOL0     N54861  -0.872   8.975   8.097  0.4976 -0.1459 -0.7864
  407MOL0     C54862  -0.007   8.389   7.514 -0.1510 -0.5379  1.4336
  407MOL0     C54863   0.111   8.341   7.454 -0.3652  0.2986 -0.1732
  407MOL0     C54864   0.553   8.268   7.404  0.0650 -0.1811 -0.0017
  407MOL0     C54865   0.620   8.149   7.372 -0.2539 -0.0420  0.0648
  407MOL0     C54866   0.752   8.136   7.338 -0.3858  0.5005 -1.3518
  407MOL0     C54867   0.830   8.253   7.349 -0.2391 -0.7400 -0.0646
  407MOL0     O54868   0.963   8.249   7.293 -0.4412  0.8391 -0.8679
  407MOL0     C54869   0.970   8.264   7.152 -0.4462 -0.6939 -0.3870
  407MOL0     C54870   0.993   8.131   7.076 -0.6119  0.2912  0.3446
  407MOL0     C54871   1.022   8.150   6.934 -0.5634  0.6067 -1.4004
  407MOL0     C54872   1.164   8.209   6.915 -0.1695 -0.0161  1.7498
  407MOL0     C54873   1.201   8.172   6.775 -1.2798  0.8819 -0.9710
  407MOL0     C54874   1.229   8.124   6.664  0.0428  0.2187  0.5488
  407MOL0     C54875   0.785   8.370   7.408 -0.3349  0.8008 -0.0601
  407MOL0     C54876   0.641   8.384   7.421 -0.2346  1.2011 -0.6265
  407MOL0     C54877   0.593   8.523   7.451 -0.2115  0.9914  0.4098
  407MOL0     H54878   0.318   8.562   7.585 -0.7450  0.5965  0.2460
  407MOL0     H54879   0.121   8.647   7.716  1.9056  1.7849 -3.2723
  407MOL0     H54880  -0.239   8.392   7.705  1.9889 -2.9247  2.9358
  407MOL0     H54881  -0.155   8.450   7.844 -2.1263 -1.0030  1.3670
  407MOL0     H54882  -0.371   8.604   7.710 -1.5696  0.0979  2.1974
  407MOL0     H54883  -0.273   8.651   7.853 -2.7509  2.6532 -1.2857
  407MOL0     H54884  -0.354   8.441   7.968 -2.2497 -2.1186 -0.1431
  407MOL0     H54885  -0.450   8.396   7.833 -1.4925  0.3391  0.6417
  407MOL0     H54886  -0.594   8.598   7.847 -1.8430 -0.0326  1.4083
  407MOL0     H54887  -0.609   8.494   7.977  0.3934  0.0333  1.1061
  407MOL0     H54888  -0.446   8.611   8.127  2.3580  0.9481 -0.8640
  407MOL0     H54889  -0.423   8.735   8.012  0.7206  0.0044 -0.3939
  407MOL0     H54890  -0.674   8.778   8.014  4.3774 -1.1450 -3.0860
  407MOL0     H54891  -0.686   8.686   8.165  3.2466 -0.4609  3.0611
  407MOL0     H54892  -0.462   8.868   8.188 -0.3698  0.9043 -2.9600
  407MOL0     H54893  -0.582   8.817   8.304  1.7408 -1.8878 -0.5765
  407MOL0     H54894  -0.602   9.062   8.266  3.5470  0.2744 -1.6842
  407MOL0     H54895  -0.615   9.042   8.097  2.1696  1.2279  1.3705
  407MOL0     H54896  -0.798   8.917   8.411  0.0949 -1.0004 -0.9141
  407MOL0     H54897  -1.192   8.893   8.309 -2.0965  0.3743  2.6778
  407MOL0     H54898  -1.088   8.831   8.438  0.5453 -0.5467 -1.0973
  407MOL0     H54899  -1.138   9.009   8.564  0.3779  1.5181  1.3002
  407MOL0     H54900  -1.047   9.111   8.453 -0.1099  0.2528 -0.8298
  407MOL0     H54901  -1.339   9.040   8.409 -1.3365  0.6220 -0.3200
  407MOL0     H54902  -1.260   9.173   8.341 -5.2701  1.5071  1.2922
  407MOL0     H54903  -1.407   9.213   8.550  0.0124 -0.6886  2.9431
  407MOL0     H54904  -1.250   9.295   8.530  2.1148 -1.5489 -2.9509
  407MOL0     H54905  -1.526   9.214   8.771  0.6623  0.7216  1.7135
  407MOL0     H54906  -1.647   9.046   8.916 -1.1573  1.4902 -5.2908
  407MOL0     H54907  -1.819   8.951   9.215  0.8006  0.1856  0.9019
  407MOL0     H54908  -1.934   8.854   9.410  0.4604  1.4577  0.7347
  407MOL0     H54909  -1.828   8.607   9.696  0.3086 -0.8490 -0.9991
  407MOL0     H54910  -1.788   8.758   9.593 -1.1728  1.5082 -0.4133
  407MOL0     H54911  -1.930   8.771   9.791  1.3239  4.8693 -1.3374
  407MOL0     H54912  -1.977   8.861   9.650  0.8158  0.1655  1.7812
  407MOL0     H54913  -2.180   8.772   9.757 -0.0081 -0.7262  0.8590
  407MOL0     H54914  -2.157   8.709   9.592  1.8521 -3.2969 -0.0645
  407MOL0     H54915  -2.050   8.545   9.837  0.1857  1.4655  0.0165
  407MOL0     H54916  -2.111   8.495   9.672  2.2403 -1.7981  1.2821
  407MOL0     H54917  -2.344   8.580   9.748  1.0813 -3.8591 -3.2213
  407MOL0     H54918  -2.267   8.605   9.907 -1.9932 -2.5746  0.6559
  407MOL0     H54919  -2.259   8.332   9.767 -3.2683 -1.5782 -1.7616
  407MOL0     H54920  -2.228   8.371   9.932  0.2132 -1.3167 -0.1472
  407MOL0     H54921  -2.505   8.400   9.797 -0.0676  1.2051  0.6157
  407MOL0     H54922  -2.466   8.441   9.964  1.7611 -2.2029  1.7945
  407MOL0     H54923  -2.436   8.173   9.826  0.0473  0.9354 -0.5931
  407MOL0     H54924  -2.413   8.208  10.003 -2.3035  5.0226  2.6950
  407MOL0     H54925  -1.743   8.472   9.343  0.4561 -1.6197 -3.5346
  407MOL0     H54926  -1.668   8.564   9.121 -1.0721 -0.3550 -0.2020
  407MOL0     H54927  -1.274   8.840   8.975 -1.1550  0.4914  0.6309
  407MOL0     H54928  -1.182   8.949   8.816 -0.4866 -1.1685  1.1430
  407MOL0     H54929  -0.101   8.348   7.477  1.1199 -2.6307  0.3496
  407MOL0     H54930   0.113   8.257   7.386  1.1660 -0.7016  1.0534
  407MOL0     H54931   0.567   8.056   7.358  5.2957 -3.2976 -3.0791
  407MOL0     H54932   0.786   8.036   7.314 -4.6140 -1.2390 -1.1094
  407MOL0     H54933   1.052   8.335   7.144 -2.6896  1.9956 -1.1898
  407MOL0     H54934   0.886   8.311   7.100  2.0259  4.3320 -0.3853
  407MOL0     H54935   0.904   8.068   7.071 -0.8820  0.7508 -0.9827
  407MOL0     H54936   1.079   8.074   7.114  0.6638  1.7829 -0.1650
  407MOL0     H54937   0.947   8.210   6.882  0.0545  2.4238 -0.2823
  407MOL0     H54938   1.017   8.063   6.868  2.4543  1.9441 -3.6580
  407MOL0     H54939   1.159   8.318   6.920 -1.7281  0.1083 -0.5930
  407MOL0     H54940   1.233   8.170   6.990  1.2150 -0.6959  0.1730
  407MOL0     H54941   1.261   8.067   6.580 -0.9586  1.4161 -0.6974
  407MOL0     H54942   0.856   8.449   7.427  0.6307 -0.4604  1.8699
  407MOL0     H54943   0.677   8.590   7.469  0.4694  0.2130  0.1908
  407MOL0     H54944   0.524   8.556   7.372  1.1102  1.9704 -0.3657
  407MOL0     H54945   0.534   8.536   7.543 -0.8269  3.0573 -0.2152
  408MOL0     O54946   0.167   4.641   2.760  0.0699  0.2810  1.0429
  408MOL0     C54947   0.282   4.654   2.791 -0.6019 -0.2486  0.6886
  408MOL0     O54948   0.341   4.622   2.906 -0.8956 -0.5959 -0.9986
  408MOL0     C54949   0.276   4.549   3.006 -0.2564 -0.1701 -0.4187
  408MOL0     C54950   0.313   4.590   3.138  0.2916 -0.7490  0.7612
  408MOL0     C54951   0.257   4.531   3.248 -1.1976 -0.7227 -0.8814
  408MOL0     C54952   0.160   4.438   3.223  0.4770 -0.3526  0.2653
  408MOL0     O54953   0.088   4.392   3.329 -0.5593 -0.1594 -0.0730
  408MOL0     C54954  -0.050   4.363   3.340 -1.0081 -0.1812  0.5667
  408MOL0     C54955  -0.069   4.336   3.488  0.4407 -0.7533 -0.4286
  408MOL0     C54956  -0.054   4.456   3.582 -1.0601  0.1988  0.0074
  408MOL0     C54957   0.080   4.444   3.669  0.6845 -0.4015 -0.0401
  408MOL0     C54958   0.112   4.572   3.755  0.2153 -0.5033  0.6354
  408MOL0     C54959   0.087   4.709   3.692 -0.6994  0.3609  0.6354
  408MOL0     C54960   0.157   4.830   3.770  0.3325 -0.2866  0.8552
  408MOL0     C54961   0.075   4.917   3.872 -0.4393  0.4471  0.4529
  408MOL0     N54962  -0.047   4.968   3.812  0.0743 -0.3495  0.7348
  408MOL0     C54963  -0.049   5.063   3.712 -0.2823 -0.5505 -0.0187
  408MOL0     C54964  -0.186   5.090   3.694 -0.7194  0.0965  0.8743
  408MOL0     C54965  -0.244   5.185   3.596  0.4467 -0.2240 -0.5431
  408MOL0     C54966  -0.176   5.322   3.615  0.2809  0.0666 -0.0610
  408MOL0     C54967  -0.238   5.385   3.744 -0.0118  0.5355 -1.2957
  408MOL0     C54968  -0.191   5.337   3.883 -0.0337  0.0348 -0.0798
  408MOL0     O54969  -0.052   5.333   3.892 -0.0185 -0.1342 -0.7631
  408MOL0     C54970  -0.004   5.281   4.013  0.6399 -1.2719 -0.5551
  408MOL0     C54971   0.106   5.348   4.079  0.1945 -0.0085 -1.0815
  408MOL0     C54972   0.151   5.308   4.208 -0.2334 -0.3699  0.0920
  408MOL0     C54973   0.084   5.206   4.276  0.8310 -0.1327  0.5943
  408MOL0     C54974   0.128   5.173   4.413  0.7533 -0.0055  0.1968
  408MOL0     O54975   0.249   5.219   4.446 -0.9503  0.5037  0.1746
  408MOL0     C54976   0.287   5.180   4.567  0.9797 -0.4358  0.0611
  408MOL0     C54977   0.330   5.055   4.598 -0.6131 -0.4735 -0.0749
  408MOL0     C54978   0.379   5.027   4.731 -0.3634 -0.5766  0.9605
  408MOL0     C54979   0.380   5.122   4.828 -0.5437  0.2114 -0.5659
  408MOL0     O54980   0.419   5.105   4.954  0.1572  0.3582 -0.4649
  408MOL0     C54981   0.525   5.006   4.970  1.2814  0.4415  0.0009
  408MOL0     C54982   0.586   5.007   5.115 -0.2235  0.3146  0.1804
  408MOL0     C54983   0.655   5.141   5.138  1.0175  0.0991 -0.5363
  408MOL0     C54984   0.703   5.147   5.275 -0.2577 -0.4228 -0.3227
  408MOL0     C54985   0.779   5.279   5.306 -0.6618 -0.6049  1.0688
  408MOL0     C54986   0.907   5.301   5.206  0.3957  0.3401  0.2811
  408MOL0     C54987   1.004   5.384   5.287 -0.4172 -0.1834 -0.1104
  408MOL0     C54988   0.945   5.528   5.303  0.8068 -0.1452 -0.5692
  408MOL0    Cl54989   1.072   5.650   5.371 -0.1908  0.1933  0.4629
  408MOL0     C54990   0.341   5.245   4.789 -0.5672  0.4914 -0.1531
  408MOL0     C54991   0.292   5.286   4.664 -0.0407  0.0805  0.2486
  408MOL0     O54992   0.051   5.106   4.479  0.0974  0.7374  0.4121
  408MOL0     C54993  -0.021   5.138   4.219  0.0126 -0.9610 -1.4043
  408MOL0     C54994  -0.061   5.183   4.093  0.0907  0.6504 -0.2798
  408MOL0     N54995  -0.258   5.002   3.779 -0.3698 -0.3328  0.5785
  408MOL0     N54996  -0.172   4.931   3.842 -0.2514 -0.3577 -0.1015
  408MOL0     C54997   0.114   4.407   3.101 -0.2281  0.3154 -0.0375
  408MOL0     C54998   0.176   4.458   2.987  0.7167  1.3129 -0.1628
  408MOL0     C54999   0.371   4.737   2.705 -0.2991 -0.6360 -0.3821
  408MOL0     C55000   0.351   4.879   2.673 -0.6964  0.8699 -0.2879
  408MOL0     C55001   0.443   4.941   2.586  0.1391  0.0333 -0.4249
  408MOL0     C55002   0.548   4.871   2.535  0.3921  0.0362 -0.5214
  408MOL0     O55003   0.641   4.914   2.443 -0.0853  0.4816  0.2841
  408MOL0     C55004   0.680   5.049   2.449 -1.1946  0.6977 -0.6980
  408MOL0     C55005   0.737   5.080   2.304 -0.3895 -0.1572 -0.5910
  408MOL0     C55006   0.786   5.227   2.297  1.3464  0.9869 -0.1893
  408MOL0     C55007   0.870   5.256   2.170  0.1759  0.5492  0.3395
  408MOL0     C55008   0.895   5.398   2.181  0.7125  0.6741  0.5804
  408MOL0     C55009   0.940   5.502   2.219  0.5092 -0.0615  0.4029
  408MOL0     C55010   0.566   4.740   2.574 -0.3803  0.3920 -0.1693
  408MOL0     C55011   0.491   4.668   2.653  0.3070  0.5736 -0.4353
  408MOL0     C55012   0.518   4.521   2.690  0.0173  0.8141 -0.1770
  408MOL0     H55013   0.381   4.674   3.140 -2.2066  1.4082  0.1445
  408MOL0     H55014   0.284   4.563   3.349  0.8937 -0.7833 -1.3720
  408MOL0     H55015  -0.106   4.450   3.304  0.5595  0.9845  0.8461
  408MOL0     H55016  -0.078   4.279   3.276 -1.4141 -1.4043  2.2594
  408MOL0     H55017  -0.003   4.252   3.511 -2.8183 -2.9452  1.8891
  408MOL0     H55018  -0.174   4.305   3.485 -0.4794  2.0911 -0.7198
  408MOL0     H55019  -0.135   4.481   3.650  0.1474  2.2010  0.7995
  408MOL0     H55020  -0.049   4.542   3.514  0.3899 -1.6457 -2.3978
  408MOL0     H55021   0.063   4.359   3.736  0.7610 -0.6595 -0.3508
  408MOL0     H55022   0.162   4.419   3.601 -2.0543 -0.8857 -3.3967
  408MOL0     H55023   0.055   4.571   3.849 -2.6499  0.6027 -0.9477
  408MOL0     H55024   0.215   4.567   3.791 -1.7199  0.7399  8.0327
  408MOL0     H55025   0.135   4.699   3.594  0.2816 -1.8248  1.2637
  408MOL0     H55026  -0.020   4.728   3.676 -0.7668  0.3906  1.0931
  408MOL0     H55027   0.210   4.894   3.699  0.4374  0.0449  1.2289
  408MOL0     H55028   0.243   4.799   3.830 -0.5678 -0.8308  1.9200
  408MOL0     H55029   0.057   4.839   3.947 -0.8954  3.0551  3.2676
  408MOL0     H55030   0.124   4.999   3.925  0.2213 -1.3217  2.7970
  408MOL0     H55031   0.026   5.114   3.652 -0.1436 -2.3694 -1.4877
  408MOL0     H55032  -0.240   5.144   3.494 -0.6951  0.2368 -0.7910
  408MOL0     H55033  -0.351   5.203   3.613  1.1493  0.9830  3.4897
  408MOL0     H55034  -0.068   5.312   3.608  0.2647 -0.6458  0.6078
  408MOL0     H55035  -0.201   5.393   3.535 -1.7870 -2.2373 -1.5954
  408MOL0     H55036  -0.347   5.382   3.745 -0.0091 -0.8084  0.1060
  408MOL0     H55037  -0.214   5.491   3.755  0.7318  0.1375  5.8717
  408MOL0     H55038  -0.234   5.239   3.906  1.9314 -0.9782 -0.4919
  408MOL0     H55039  -0.229   5.403   3.961 -0.9845 -1.7696  1.0649
  408MOL0     H55040   0.138   5.445   4.042 -1.1371  1.1629  0.6747
  408MOL0     H55041   0.235   5.360   4.253  0.2199 -1.8300  0.9925
  408MOL0     H55042   0.336   4.962   4.542  0.0466 -1.6415  1.8498
  408MOL0     H55043   0.413   4.924   4.740  0.6109 -0.4471 -0.8013
  408MOL0     H55044   0.488   4.904   4.962 -1.3689  1.3929 -0.7400
  408MOL0     H55045   0.606   5.004   4.895  0.6692 -0.8550 -0.6566
  408MOL0     H55046   0.499   4.987   5.179  0.8580 -0.0290  1.5804
  408MOL0     H55047   0.665   4.934   5.134  0.3807  1.1384  0.9330
  408MOL0     H55048   0.742   5.150   5.073  0.9983  1.5536 -0.3893
  408MOL0     H55049   0.582   5.222   5.131  1.6437  0.7058 -0.1392
  408MOL0     H55050   0.774   5.069   5.306 -1.1144 -0.9416  0.3708
  408MOL0     H55051   0.623   5.143   5.350  2.2425 -0.2740  2.5933
  408MOL0     H55052   0.821   5.271   5.406  0.7029  1.4462  0.7156
  408MOL0     H55053   0.720   5.371   5.300  0.7130  0.2408 -2.7097
  408MOL0     H55054   0.957   5.204   5.197 -1.0454 -0.5269  1.1504
  408MOL0     H55055   0.880   5.340   5.108 -1.8526  0.3677  0.8575
  408MOL0     H55056   1.095   5.402   5.228  0.9176 -2.1804  1.2414
  408MOL0     H55057   1.033   5.331   5.378  2.5309 -0.5399 -1.1535
  408MOL0     H55058   0.909   5.564   5.207  2.2396  0.2035 -0.9979
  408MOL0     H55059   0.858   5.515   5.368  1.7570 -0.3537  0.7237
  408MOL0     H55060   0.339   5.322   4.866  1.6272  0.3788  0.0711
  408MOL0     H55061   0.262   5.389   4.652  0.9037  0.3895  0.4535
  408MOL0     H55062  -0.069   5.054   4.270  2.1664 -1.0096  0.7599
  408MOL0     H55063  -0.147   5.135   4.047 -1.1924  2.8716 -0.3553
  408MOL0     H55064   0.032   4.336   3.098 -0.4089  0.5297 -0.1676
  408MOL0     H55065   0.135   4.441   2.888  2.2658 -0.4015 -0.5662
  408MOL0     H55066   0.268   4.943   2.699 -0.6830  0.8491 -0.1937
  408MOL0     H55067   0.435   5.046   2.562  1.6828 -0.3499 -2.9951
  408MOL0     H55068   0.761   5.069   2.519 -0.5881  0.0170 -1.1886
  408MOL0     H55069   0.595   5.115   2.470 -0.1935  1.8717 -0.2174
  408MOL0     H55070   0.664   5.046   2.230 -1.9956  2.1815 -0.2199
  408MOL0     H55071   0.822   5.012   2.305 -3.6068 -4.6583  0.0873
  408MOL0     H55072   0.836   5.268   2.385  0.4111 -0.6689  1.1786
  408MOL0     H55073   0.688   5.275   2.290  0.7570  0.6639  3.6349
  408MOL0     H55074   0.960   5.193   2.176 -1.2714 -1.5146  1.3396
  408MOL0     H55075   0.820   5.224   2.078  0.4784  2.6982 -0.6489
  408MOL0     H55076   0.987   5.598   2.233  0.2821  0.2432 -0.8180
  408MOL0     H55077   0.648   4.695   2.519  1.4836  0.2450  2.5194
  408MOL0     H55078   0.504   4.509   2.798  3.6414  2.6726  0.6490
  408MOL0     H55079   0.462   4.455   2.623  1.5233  0.2006 -0.8826
  408MOL0     H55080   0.622   4.496   2.667 -0.9674 -1.1113 -3.1085
  409MOL0     O55081   4.741  10.058   6.457 -0.1391 -0.3039 -0.5746
  409MOL0     C55082   4.759  10.165   6.520 -0.9009  1.0268  0.1597
  409MOL0     O55083   4.753  10.176   6.652  0.6440 -0.0303  0.8346
  409MOL0     C55084   4.718  10.078   6.735  0.0741  0.3848 -0.3033
  409MOL0     C55085   4.594  10.022   6.750  0.4826  0.3916  0.6900
  409MOL0     C55086   4.579   9.915   6.839 -0.7030 -0.2342  0.0244
  409MOL0     C55087   4.688   9.865   6.916 -0.8295 -0.6667 -0.7920
  409MOL0     O55088   4.665   9.770   7.016 -0.6054  0.0796  0.2145
  409MOL0     C55089   4.614   9.647   6.952  0.7836  0.2226  0.2324
  409MOL0     C55090   4.707   9.530   6.952 -1.5241  0.2797  0.7500
  409MOL0     C55091   4.803   9.530   6.831  0.2765  0.2014  0.2406
  409MOL0     C55092   4.873   9.394   6.823  0.3793 -0.2402 -0.3308
  409MOL0     C55093   4.952   9.345   6.952  0.6205  0.0403  0.4179
  409MOL0     C55094   5.082   9.427   6.976 -0.5914  0.0875 -0.5589
  409MOL0     C55095   5.162   9.389   7.101  0.1489 -0.2567 -0.7059
  409MOL0     C55096   5.287   9.476   7.134  0.9941 -0.3249  0.4602
  409MOL0     N55097   5.264   9.618   7.152 -0.2945  0.9326 -0.4379
  409MOL0     C55098   5.169   9.672   7.230  0.4108 -0.3869  0.3821
  409MOL0     C55099   5.162   9.803   7.204  1.0123  0.1776  0.0803
  409MOL0     C55100   5.055   9.874   7.293 -0.1608  0.5766 -0.0962
  409MOL0     C55101   4.910   9.825   7.284 -0.2108 -1.4543 -0.0669
  409MOL0     C55102   4.816   9.937   7.346 -0.6575 -0.1252  0.2546
  409MOL0     C55103   4.672   9.887   7.360  0.7419  0.4706 -0.5950
  409MOL0     O55104   4.585   9.990   7.404  0.3543 -0.5688 -0.0934
  409MOL0     C55105   4.545  10.085   7.313 -0.0766 -0.3821 -0.0929
  409MOL0     C55106   4.580  10.087   7.181  0.7687  0.7079 -0.2652
  409MOL0     C55107   4.531  10.184   7.096  0.4485 -0.1504  0.6170
  409MOL0     C55108   4.449  10.288   7.140 -0.7082 -0.4207 -0.3005
  409MOL0     C55109   4.413  10.404   7.059  0.5375 -0.3127  0.0369
  409MOL0     O55110   4.449  10.397   6.925  0.8776  0.4874  1.2103
  409MOL0     C55111   4.417  10.489   6.831  0.2049  0.4677  0.6491
  409MOL0     C55112   4.393  10.622   6.857 -0.4427 -0.9703  0.1967
  409MOL0     C55113   4.355  10.716   6.756 -0.6911 -0.4070  0.0310
  409MOL0     C55114   4.337  10.669   6.628  0.1941  0.4989 -1.1073
  409MOL0     O55115   4.294  10.764   6.538 -0.3479  0.5788  0.0748
  409MOL0     C55116   4.264  10.739   6.401  0.2607 -0.5737  0.9248
  409MOL0     C55117   4.235  10.866   6.318 -0.3058  0.1999 -0.5802
  409MOL0     C55118   4.340  10.974   6.336  0.6503  0.6621  0.0416
  409MOL0     C55119   4.285  11.116   6.296 -1.1157  0.2170 -1.0034
  409MOL0     C55120   4.398  11.212   6.287 -0.3531  0.2154  0.1229
  409MOL0     C55121   4.340  11.364   6.256  0.3985 -0.1437  0.4038
  409MOL0     C55122   4.306  11.405   6.111  0.3217 -0.8357  0.1935
  409MOL0     C55123   4.206  11.311   6.039 -0.1211 -0.6251 -0.8840
  409MOL0    Cl55124   4.157  11.402   5.892 -0.5855  0.1812 -0.0359
  409MOL0     C55125   4.362  10.537   6.597 -0.5980  0.5938 -0.3431
  409MOL0     C55126   4.400  10.447   6.695 -0.6900 -0.7755  0.0966
  409MOL0     O55127   4.314  10.476   7.092  0.3310 -0.0299 -1.0817
  409MOL0     C55128   4.410  10.281   7.277 -0.9055  0.4635  0.8522
  409MOL0     C55129   4.460  10.183   7.361  1.0239  0.0831 -0.2526
  409MOL0     N55130   5.267   9.830   7.113  0.5528 -0.0049 -0.1364
  409MOL0     N55131   5.317   9.721   7.071 -0.2691 -0.6750 -0.4417
  409MOL0     C55132   4.816   9.918   6.887  0.7782 -0.8213  0.1228
  409MOL0     C55133   4.830  10.023   6.801  0.1770 -0.5309 -0.3024
  409MOL0     C55134   4.760  10.291   6.443  0.2058 -0.5613  0.8680
  409MOL0     C55135   4.737  10.418   6.511  0.0347 -0.5979  0.2494
  409MOL0     C55136   4.701  10.531   6.429  0.1966  0.5356  0.0974
  409MOL0     C55137   4.702  10.529   6.296  0.2702 -0.7539  0.5817
  409MOL0     O55138   4.669  10.650   6.238  0.5591  0.0096 -0.0134
  409MOL0     C55139   4.603  10.650   6.112 -0.2956  0.2315  0.5633
  409MOL0     C55140   4.578  10.793   6.085 -0.4361  0.8480 -0.6354
  409MOL0     C55141   4.443  10.814   6.024  0.0847 -0.2483  0.3759
  409MOL0     C55142   4.447  10.811   5.861  1.1229  0.4449  0.1025
  409MOL0     C55143   4.305  10.825   5.820  0.9898 -0.2181 -0.0520
  409MOL0     C55144   4.189  10.818   5.778  0.3398  0.1481 -0.4497
  409MOL0     C55145   4.744  10.415   6.230  0.7088  0.7672  0.0160
  409MOL0     C55146   4.771  10.291   6.300 -0.8067 -0.3674  0.3490
  409MOL0     C55147   4.800  10.173   6.210  0.4760 -0.7596  0.3309
  409MOL0     H55148   4.502  10.058   6.705 -0.3770  0.5786  2.5287
  409MOL0     H55149   4.488   9.856   6.835  0.0998 -1.4996 -3.6288
  409MOL0     H55150   4.530   9.613   7.013  2.2666 -0.9127  1.7779
  409MOL0     H55151   4.581   9.662   6.849 -0.4854 -1.7448  0.3016
  409MOL0     H55152   4.644   9.443   6.933  1.2327 -1.5261 -0.7012
  409MOL0     H55153   4.761   9.524   7.047 -0.3553  0.6420  0.1194
  409MOL0     H55154   4.876   9.610   6.839 -0.7903  0.9817  3.5307
  409MOL0     H55155   4.744   9.547   6.740 -0.1133 -0.5907  0.3335
  409MOL0     H55156   4.801   9.317   6.792 -0.8594  0.9823 -0.5508
  409MOL0     H55157   4.949   9.406   6.747 -1.6987  5.7989 -1.9720
  409MOL0     H55158   4.887   9.350   7.040  0.5499 -1.0216  0.4326
  409MOL0     H55159   4.973   9.239   6.937 -0.4518 -0.2820  1.0714
  409MOL0     H55160   5.154   9.411   6.895  0.8674 -1.6318  0.9798
  409MOL0     H55161   5.055   9.532   6.985 -3.4596 -0.6616  1.1875
  409MOL0     H55162   5.203   9.288   7.090  0.2427 -0.3368  0.2988
  409MOL0     H55163   5.088   9.391   7.182  0.7962  1.4611 -0.1074
  409MOL0     H55164   5.326   9.424   7.223 -1.0630  0.4177  1.8766
  409MOL0     H55165   5.357   9.459   7.053  0.4854 -0.9260  0.1424
  409MOL0     H55166   5.101   9.605   7.281  0.7382 -3.5229 -2.9215
  409MOL0     H55167   5.087   9.864   7.397  1.4674  0.9462 -0.5375
  409MOL0     H55168   5.058   9.980   7.266  1.1799  0.6382  0.2522
  409MOL0     H55169   4.879   9.795   7.183 -0.7001  1.4519 -0.8576
  409MOL0     H55170   4.902   9.735   7.346 -1.0287 -2.1281 -1.1086
  409MOL0     H55171   4.827  10.029   7.289 -0.7814  2.5248  4.0708
  409MOL0     H55172   4.842   9.955   7.451 -0.2479  0.0262  0.1285
  409MOL0     H55173   4.666   9.805   7.433 -3.1036  0.0271 -1.1699
  409MOL0     H55174   4.630   9.852   7.265 -1.2292  1.9181 -0.3219
  409MOL0     H55175   4.643  10.013   7.134  0.0806 -1.4457  2.0302
  409MOL0     H55176   4.558  10.200   6.992  1.6159 -3.3198  0.3091
  409MOL0     H55177   4.416  10.661   6.956 -1.4055  1.4109 -0.4435
  409MOL0     H55178   4.349  10.823   6.775  1.5420 -0.3375  0.6914
  409MOL0     H55179   4.338  10.683   6.343  0.1742  0.4828 -0.2368
  409MOL0     H55180   4.169  10.686   6.400 -0.9140  1.2905 -2.6523
  409MOL0     H55181   4.232  10.829   6.215  0.8244 -0.3081 -0.4416
  409MOL0     H55182   4.139  10.902   6.358 -0.1379 -0.4467  0.4567
  409MOL0     H55183   4.377  10.988   6.438  0.1305 -0.2143  0.3546
  409MOL0     H55184   4.422  10.937   6.273  0.1372  1.0958 -0.9077
  409MOL0     H55185   4.214  11.145   6.373 -0.9366  0.9737 -1.1140
  409MOL0     H55186   4.237  11.113   6.197  0.4381 -1.8144 -1.7792
  409MOL0     H55187   4.459  11.169   6.207 -1.0694 -1.7807  0.5684
  409MOL0     H55188   4.458  11.218   6.379  0.4693  0.5289 -0.4275
  409MOL0     H55189   4.255  11.390   6.320 -1.3884  0.4005 -2.0686
  409MOL0     H55190   4.408  11.440   6.295 -1.6232  2.7331 -1.3389
  409MOL0     H55191   4.401  11.402   6.057  0.3891 -1.9693  0.3576
  409MOL0     H55192   4.277  11.511   6.115 -0.1309 -0.9378 -0.2860
  409MOL0     H55193   4.249  11.213   6.015  0.6056 -0.2637 -1.1074
  409MOL0     H55194   4.120  11.300   6.105 -0.0890 -3.4945 -1.1869
  409MOL0     H55195   4.369  10.491   6.499 -0.5417  1.5774 -0.8134
  409MOL0     H55196   4.422  10.344   6.670 -1.5146 -1.3498  1.6299
  409MOL0     H55197   4.359  10.369   7.314  0.2086  1.6335 -0.2798
  409MOL0     H55198   4.432  10.194   7.465 -1.0049  1.8213 -0.9159
  409MOL0     H55199   4.909   9.892   6.936 -0.2358  0.0559  2.7028
  409MOL0     H55200   4.924  10.066   6.767  0.8277 -0.7050  1.2038
  409MOL0     H55201   4.737  10.431   6.619 -3.3505 -1.5330  0.4790
  409MOL0     H55202   4.678  10.623   6.482  0.9109  0.5014  0.4852
  409MOL0     H55203   4.511  10.591   6.114 -0.4601  0.4678  2.9567
  409MOL0     H55204   4.666  10.620   6.028  0.7302  0.9017  1.0764
  409MOL0     H55205   4.668  10.827   6.032  0.6700  2.9607  2.3061
  409MOL0     H55206   4.578  10.859   6.172 -1.6100  2.4999 -1.8312
  409MOL0     H55207   4.407  10.908   6.068  4.5522  0.2364  3.6265
  409MOL0     H55208   4.362  10.748   6.059 -0.5254  0.7792  0.9782
  409MOL0     H55209   4.513  10.892   5.830  3.9452 -0.7978  2.3729
  409MOL0     H55210   4.489  10.714   5.832 -0.6947 -1.1560  2.3605
  409MOL0     H55211   4.087  10.819   5.744 -0.4469  2.3401  1.6698
  409MOL0     H55212   4.739  10.418   6.121  1.6618  0.1017 -0.0537
  409MOL0     H55213   4.711  10.109   6.205 -0.0877 -0.1838  2.3041
  409MOL0     H55214   4.818  10.214   6.110 -1.8072  1.1466  0.6435
  409MOL0     H55215   4.889  10.124   6.253  2.5237  2.3044 -0.1230
  410MOL0     O55216   4.396   6.311   0.612  0.1597 -0.4985 -0.4918
  410MOL0     C55217   4.346   6.243   0.522 -0.1217 -0.0025  0.0188
  410MOL0     O55218   4.221   6.177   0.526 -0.1574  0.3952 -1.0383
  410MOL0     C55219   4.143   6.172   0.633  0.5060  0.6599  0.7910
  410MOL0     C55220   4.175   6.193   0.764 -0.0668 -0.1175  0.5919
  410MOL0     C55221   4.086   6.176   0.871 -0.6321  0.2973 -0.7435
  410MOL0     C55222   3.959   6.131   0.855 -0.6375 -0.3706  0.3862
  410MOL0     O55223   3.888   6.114   0.966  0.2052  0.2295 -0.2679
  410MOL0     C55224   3.765   6.041   0.951  0.0563  0.2501 -0.1414
  410MOL0     C55225   3.689   6.023   1.082 -0.0771 -0.0752 -0.0402
  410MOL0     C55226   3.548   5.965   1.072 -0.3730 -0.2384  0.5855
  410MOL0     C55227   3.503   5.897   1.205 -0.0863 -0.1483  0.2407
  410MOL0     C55228   3.583   5.766   1.221 -0.0859 -0.5358  0.0363
  410MOL0     C55229   3.510   5.666   1.310 -0.3294  0.8843  0.9647
  410MOL0     C55230   3.478   5.724   1.442  0.6308 -0.0338 -0.3987
  410MOL0     C55231   3.597   5.777   1.529  0.0811 -0.2833  0.3079
  410MOL0     N55232   3.684   5.665   1.565 -0.5845  0.0057 -0.1268
  410MOL0     C55233   3.786   5.615   1.488  0.5089 -0.0380 -0.0266
  410MOL0     C55234   3.836   5.510   1.551 -0.4624 -1.0425  0.2894
  410MOL0     C55235   3.949   5.426   1.488  0.1353  0.1698 -0.1514
  410MOL0     C55236   4.029   5.486   1.372  0.7873 -0.2575  0.3625
  410MOL0     C55237   4.116   5.389   1.298 -0.4636  0.1404 -0.2402
  410MOL0     C55238   4.176   5.453   1.169 -0.3928 -0.1341  0.7846
  410MOL0     O55239   4.247   5.340   1.112  0.2044 -0.4108 -0.5494
  410MOL0     C55240   4.336   5.360   1.009 -1.0084  0.1998  0.4853
  410MOL0     C55241   4.337   5.470   0.922 -0.1812  0.2251 -0.2226
  410MOL0     C55242   4.422   5.472   0.807 -0.1742  0.4303  0.7036
  410MOL0     C55243   4.510   5.357   0.771 -0.3702  0.6886  0.2078
  410MOL0     C55244   4.579   5.345   0.644 -0.0920 -0.9627  0.5893
  410MOL0     O55245   4.587   5.467   0.570  0.8912  0.0627  0.2840
  410MOL0     C55246   4.677   5.483   0.470  0.7886 -0.5350  0.2214
  410MOL0     C55247   4.800   5.542   0.488 -0.1590 -0.0395  0.3451
  410MOL0     C55248   4.886   5.550   0.382  0.6070 -0.5333  0.5098
  410MOL0     C55249   4.849   5.504   0.259 -0.1713  0.3272  1.9545
  410MOL0     O55250   4.953   5.503   0.164  0.1239  0.3891 -0.1350
  410MOL0     C55251   4.936   5.462   0.033 -0.6670  0.7717 -0.9723
  410MOL0     C55252   5.073   5.461  -0.042 -0.4567  0.2055 -0.5392
  410MOL0     C55253   5.140   5.325  -0.022 -0.1908  0.6408 -0.0102
  410MOL0     C55254   5.276   5.328  -0.105  0.1163  0.2116 -0.5378
  410MOL0     C55255   5.367   5.202  -0.094 -0.0963 -0.9869  0.2443
  410MOL0     C55256   5.400   5.155   0.052  0.9334  0.0039 -0.2234
  410MOL0     C55257   5.466   5.262   0.149  0.6734 -0.0667  0.4071
  410MOL0     C55258   5.484   5.206   0.290  0.4269  0.6236  0.7510
  410MOL0    Cl55259   5.607   5.304   0.385 -0.2098  0.2058  0.2661
  410MOL0     C55260   4.724   5.448   0.242 -0.0676  0.5695  0.7588
  410MOL0     C55261   4.634   5.443   0.346 -0.6801  0.4412 -0.6617
  410MOL0     O55262   4.626   5.237   0.613 -0.2125  0.1661 -0.1502
  410MOL0     C55263   4.514   5.255   0.868  0.2741 -0.2735  0.8236
  410MOL0     C55264   4.425   5.254   0.980  0.8879 -0.2325  0.6367
  410MOL0     N55265   3.761   5.493   1.662 -0.6311  0.9430  0.3659
  410MOL0     N55266   3.674   5.589   1.669 -0.1922  0.7718  0.3026
  410MOL0     C55267   3.922   6.116   0.720  0.1156 -0.2250 -0.2999
  410MOL0     C55268   4.008   6.148   0.604  0.0606  0.9378  0.1888
  410MOL0     C55269   4.410   6.252   0.389 -0.4816 -0.5214 -0.1660
  410MOL0     C55270   4.549   6.286   0.386  0.0713  0.1789 -0.9503
  410MOL0     C55271   4.632   6.272   0.278  0.2889  0.6020 -0.3160
  410MOL0     C55272   4.577   6.247   0.156 -0.2852 -0.3501  0.0057
  410MOL0     O55273   4.647   6.261   0.037 -0.3451  0.3308  0.4547
  410MOL0     C55274   4.786   6.213   0.030 -0.7598  0.1012  0.1495
  410MOL0     C55275   4.857   6.258  -0.090  0.4832 -0.2735 -0.0536
  410MOL0     C55276   4.877   6.411  -0.097  0.6578  0.3577  0.3315
  410MOL0     C55277   4.926   6.462  -0.237  0.3827  0.2700  0.2894
  410MOL0     C55278   4.816   6.505  -0.318  0.7209  0.3550 -0.5934
  410MOL0     C55279   4.722   6.535  -0.394  0.3034 -0.1717  0.6127
  410MOL0     C55280   4.438   6.210   0.149  0.2627 -0.0939 -0.5638
  410MOL0     C55281   4.353   6.218   0.266  0.7799  0.1946 -0.0909
  410MOL0     C55282   4.204   6.180   0.242 -0.4196  0.4871 -0.5601
  410MOL0     H55283   4.275   6.217   0.798  0.0640 -0.5366  0.5112
  410MOL0     H55284   4.113   6.195   0.974  1.3221 -0.8635 -0.9936
  410MOL0     H55285   3.700   6.101   0.887  1.7985  2.4040 -0.0202
  410MOL0     H55286   3.784   5.947   0.899  0.4730  1.1215 -1.6535
  410MOL0     H55287   3.686   6.125   1.120  0.1234  0.8316 -2.2844
  410MOL0     H55288   3.748   5.958   1.146 -1.5859 -0.6494  0.8237
  410MOL0     H55289   3.553   5.895   0.988  0.7886 -0.4605  0.8164
  410MOL0     H55290   3.482   6.049   1.050 -0.5133 -0.6540 -0.6591
  410MOL0     H55291   3.518   5.965   1.289 -1.1228  0.3121  0.0640
  410MOL0     H55292   3.397   5.871   1.197  0.1252 -1.1417  0.5127
  410MOL0     H55293   3.618   5.722   1.127  1.5001 -0.3690  0.5261
  410MOL0     H55294   3.679   5.789   1.268  0.2985  1.8557 -1.6948
  410MOL0     H55295   3.420   5.642   1.253  0.5675  1.8985 -0.9704
  410MOL0     H55296   3.556   5.569   1.328 -0.8010  0.2004 -1.2631
  410MOL0     H55297   3.429   5.646   1.501 -1.0656 -0.0085 -1.6873
  410MOL0     H55298   3.407   5.807   1.440 -1.9197 -1.7940  3.6700
  410MOL0     H55299   3.650   5.852   1.469 -0.9241 -0.5616 -0.9552
  410MOL0     H55300   3.553   5.811   1.623 -0.2722  1.8364 -0.5711
  410MOL0     H55301   3.804   5.648   1.386 -1.7461  2.2193  0.2078
  410MOL0     H55302   4.005   5.385   1.572 -2.6531 -0.7841  1.3531
  410MOL0     H55303   3.897   5.339   1.448 -0.4824  0.5269 -0.1447
  410MOL0     H55304   3.954   5.530   1.305  1.7549  2.2567  0.8343
  410MOL0     H55305   4.087   5.573   1.403 -2.3656  1.5879  1.5684
  410MOL0     H55306   4.059   5.303   1.260 -0.0244 -0.0783 -0.4123
  410MOL0     H55307   4.193   5.371   1.373 -0.2954  0.5022 -0.3241
  410MOL0     H55308   4.242   5.541   1.171  1.7200 -1.6447  1.5340
  410MOL0     H55309   4.092   5.479   1.105 -1.3064 -2.3902  0.9768
  410MOL0     H55310   4.273   5.556   0.935 -1.0586 -0.4819  0.1900
  410MOL0     H55311   4.421   5.558   0.740 -0.0903 -1.8380 -2.4403
  410MOL0     H55312   4.821   5.562   0.593  2.7101 -2.1288  0.2768
  410MOL0     H55313   4.992   5.569   0.393  0.9031 -1.6017 -0.2752
  410MOL0     H55314   4.891   5.362   0.035  0.4143  0.2686 -0.7986
  410MOL0     H55315   4.862   5.530  -0.011 -1.3251  1.5000  1.1179
  410MOL0     H55316   5.058   5.491  -0.146 -1.0332  1.6585 -0.0620
  410MOL0     H55317   5.147   5.533  -0.006 -1.8396  0.9449  0.9453
  410MOL0     H55318   5.158   5.323   0.086  0.8250  0.7362 -0.1674
  410MOL0     H55319   5.074   5.238  -0.034 -0.8218  1.3977 -2.6397
  410MOL0     H55320   5.341   5.415  -0.095  1.7759 -0.4167 -4.2807
  410MOL0     H55321   5.239   5.338  -0.208  2.1222 -0.7382 -1.3972
  410MOL0     H55322   5.454   5.215  -0.160 -0.3139 -0.4045  0.0683
  410MOL0     H55323   5.322   5.119  -0.150 -1.5722  0.5020 -0.8659
  410MOL0     H55324   5.301   5.129   0.091  0.4675  0.8556 -0.7892
  410MOL0     H55325   5.456   5.062   0.041 -1.2709 -1.3140 -1.0772
  410MOL0     H55326   5.406   5.353   0.145  0.8023 -0.0156 -0.5958
  410MOL0     H55327   5.559   5.292   0.100  2.0791 -0.2506  2.8060
  410MOL0     H55328   5.384   5.216   0.334 -0.3366  0.2332 -0.8163
  410MOL0     H55329   5.515   5.101   0.287 -1.6205 -0.0463  1.1743
  410MOL0     H55330   4.693   5.401   0.149 -0.3406  0.5668  0.8506
  410MOL0     H55331   4.541   5.389   0.331 -0.6141 -1.2910  3.7567
  410MOL0     H55332   4.566   5.164   0.840  0.6860  0.8704 -2.6320
  410MOL0     H55333   4.410   5.172   1.049  0.1757  1.2010  2.2591
  410MOL0     H55334   3.822   6.089   0.686  0.3598 -0.9486 -0.4572
  410MOL0     H55335   3.979   6.117   0.505  3.3098 -0.5032 -0.4228
  410MOL0     H55336   4.588   6.312   0.484 -0.7347 -0.5515 -0.4266
  410MOL0     H55337   4.737   6.295   0.286  0.4875 -0.5088  0.4722
  410MOL0     H55338   4.780   6.104   0.038 -2.7002  0.2057  0.5942
  410MOL0     H55339   4.850   6.240   0.114 -2.7034  0.3480  1.6232
  410MOL0     H55340   4.803   6.218  -0.176 -0.1172  1.4215 -0.4949
  410MOL0     H55341   4.956   6.210  -0.094  0.3677 -0.4574 -0.9666
  410MOL0     H55342   4.944   6.434  -0.014  0.1650 -1.0334  1.1485
  410MOL0     H55343   4.780   6.453  -0.066 -1.4554 -3.0526 -1.1099
  410MOL0     H55344   4.991   6.548  -0.219  3.1412 -1.2637 -1.6079
  410MOL0     H55345   4.987   6.387  -0.287  1.1519  1.8972 -1.3176
  410MOL0     H55346   4.644   6.547  -0.467  1.5088 -2.8134 -1.2616
  410MOL0     H55347   4.393   6.210   0.050 -0.6534  1.5072 -0.1885
  410MOL0     H55348   4.180   6.141   0.142 -1.0092  0.6303 -0.4771
  410MOL0     H55349   4.180   6.091   0.301 -1.0345  0.8649 -0.2363
  410MOL0     H55350   4.121   6.241   0.276 -0.2992  0.2652  0.1472
  411MOL0     O55351   6.606   6.335   3.520  0.6061  0.6035  0.0418
  411MOL0     C55352   6.633   6.216   3.493  0.0006 -0.8988 -0.0199
  411MOL0     O55353   6.542   6.132   3.445 -0.1660 -0.6241  0.6278
  411MOL0     C55354   6.418   6.125   3.507  0.5011 -0.6444  0.2042
  411MOL0     C55355   6.400   6.108   3.642  0.8613  1.2202  0.6598
  411MOL0     C55356   6.271   6.097   3.691 -0.0343  0.0967 -0.1145
  411MOL0     C55357   6.154   6.119   3.614 -0.7019 -0.1880  0.2884
  411MOL0     O55358   6.026   6.123   3.668 -0.7005  0.6023  0.1015
  411MOL0     C55359   6.005   6.170   3.803  0.5950  0.7011  0.5505
  411MOL0     C55360   5.939   6.305   3.775 -0.4992  0.7390  0.4360
  411MOL0     C55361   5.902   6.363   3.906 -0.0265 -1.5892 -0.2378
  411MOL0     C55362   5.781   6.459   3.892 -0.5296 -0.5301  0.8325
  411MOL0     C55363   5.776   6.548   4.010  1.2148  0.5799 -0.0228
  411MOL0     C55364   5.694   6.487   4.126 -0.5381 -0.7593 -0.8963
  411MOL0     C55365   5.695   6.586   4.246  0.1602  0.0545 -0.5874
  411MOL0     C55366   5.635   6.730   4.213 -0.3592  0.2343 -0.1768
  411MOL0     N55367   5.625   6.800   4.342  0.4749  0.1752 -0.1275
  411MOL0     C55368   5.695   6.920   4.360 -0.1376  1.1778  0.5486
  411MOL0     C55369   5.645   6.960   4.484  0.1311  0.5218  1.1656
  411MOL0     C55370   5.657   7.104   4.544  0.6031 -1.2164 -0.3926
  411MOL0     C55371   5.791   7.141   4.590  0.0183 -1.0130 -0.5328
  411MOL0     C55372   5.801   7.288   4.613  0.5108  1.1775  0.3033
  411MOL0     C55373   5.923   7.304   4.703 -0.5321 -0.3657 -0.4014
  411MOL0     O55374   5.947   7.438   4.721 -0.5815  0.0881  0.6949
  411MOL0     C55375   6.076   7.488   4.682 -0.6843  0.9269 -0.5843
  411MOL0     C55376   6.101   7.587   4.590  0.2380 -0.6497 -0.5299
  411MOL0     C55377   6.230   7.636   4.568  0.3976 -0.4101  0.3982
  411MOL0     C55378   6.333   7.570   4.632  0.1233  0.3127 -0.7398
  411MOL0     C55379   6.472   7.620   4.632  0.1399  0.1390 -0.4634
  411MOL0     O55380   6.561   7.540   4.693 -0.0898 -0.4936 -0.5770
  411MOL0     C55381   6.691   7.535   4.646  0.0717  0.2018  0.1932
  411MOL0     C55382   6.730   7.550   4.512  0.2086  0.0729 -0.1450
  411MOL0     C55383   6.869   7.541   4.480  1.1735  0.5260 -1.1910
  411MOL0     C55384   6.960   7.494   4.578  0.5925 -0.1005  0.4128
  411MOL0     O55385   7.082   7.489   4.525  0.3973  0.2149 -0.1715
  411MOL0     C55386   7.154   7.375   4.563  0.1429  0.3573 -0.6360
  411MOL0     C55387   7.266   7.390   4.668  0.1466  0.3338 -0.5688
  411MOL0     C55388   7.385   7.290   4.687  0.5475  0.4683  0.0619
  411MOL0     C55389   7.461   7.277   4.558  0.0353 -0.4205 -0.3312
  411MOL0     C55390   7.585   7.184   4.569  0.7279 -0.1529  0.1723
  411MOL0     C55391   7.644   7.165   4.431  0.4952 -0.1575 -0.7705
  411MOL0     C55392   7.757   7.056   4.445 -0.8537 -0.1844  0.2537
  411MOL0     C55393   7.784   6.992   4.312 -0.5139 -0.2942 -0.5826
  411MOL0    Cl55394   7.807   7.118   4.184 -0.4505 -0.1641 -0.3003
  411MOL0     C55395   6.918   7.455   4.704 -0.6434  1.3342 -0.3920
  411MOL0     C55396   6.784   7.476   4.742 -0.4129 -0.5957  0.6731
  411MOL0     O55397   6.489   7.726   4.558  1.2948  0.0169  0.4979
  411MOL0     C55398   6.311   7.459   4.715  0.1501 -0.0362 -0.8387
  411MOL0     C55399   6.188   7.418   4.736 -0.4550  0.6521 -0.7558
  411MOL0     N55400   5.582   6.851   4.552  0.6899  0.4125  0.7650
  411MOL0     N55401   5.567   6.762   4.460 -0.5867 -1.1980  0.2712
  411MOL0     C55402   6.175   6.142   3.472 -0.0327  0.0790  1.2698
  411MOL0     C55403   6.308   6.153   3.421 -0.4906 -0.3455 -0.3740
  411MOL0     C55404   6.773   6.172   3.490 -0.4870  0.3090 -0.1754
  411MOL0     C55405   6.804   6.048   3.434  0.4220  0.2141 -0.4919
  411MOL0     C55406   6.927   5.991   3.458 -0.0089 -0.4452 -0.6770
  411MOL0     C55407   7.023   6.064   3.523 -0.6787  0.0247  0.9789
  411MOL0     O55408   7.145   6.012   3.512 -1.0445 -0.0600  0.3169
  411MOL0     C55409   7.261   6.029   3.601  0.9580 -0.6095 -0.6845
  411MOL0     C55410   7.312   5.903   3.674  0.1668  0.3271 -0.3659
  411MOL0     C55411   7.402   5.813   3.587 -0.6054  0.0846  0.2831
  411MOL0     C55412   7.394   5.671   3.614 -0.8546  0.5043 -0.3079
  411MOL0     C55413   7.266   5.632   3.569  0.2111  0.1413  0.2504
  411MOL0     C55414   7.167   5.585   3.516 -0.3462 -0.1948  0.4821
  411MOL0     C55415   7.009   6.197   3.558 -0.0272 -0.6431  0.7601
  411MOL0     C55416   6.885   6.257   3.540  0.2076 -0.2555  0.1668
  411MOL0     C55417   6.878   6.399   3.590  0.1507  0.5130 -0.1677
  411MOL0     H55418   6.488   6.096   3.705 -0.3513 -1.1573  2.0039
  411MOL0     H55419   6.272   6.078   3.798  1.4576  0.3991 -0.0530
  411MOL0     H55420   5.947   6.092   3.853  1.1561 -0.9787 -1.2805
  411MOL0     H55421   6.093   6.187   3.866  0.7091  1.8376  0.1030
  411MOL0     H55422   5.847   6.283   3.721 -0.0420 -1.1003  0.3531
  411MOL0     H55423   6.000   6.371   3.713  3.4485 -3.2584 -0.4658
  411MOL0     H55424   5.993   6.407   3.948  0.4634 -2.1284 -0.7129
  411MOL0     H55425   5.879   6.280   3.973  0.1525 -1.6706 -0.2772
  411MOL0     H55426   5.794   6.520   3.802  3.0537 -1.1603  0.7589
  411MOL0     H55427   5.691   6.398   3.886  0.9270 -2.9415  1.8022
  411MOL0     H55428   5.868   6.578   4.060 -0.9211  3.0690  2.7656
  411MOL0     H55429   5.724   6.639   3.979  0.0600 -0.1201 -0.2414
  411MOL0     H55430   5.587   6.474   4.104 -0.7320  1.3048 -1.3509
  411MOL0     H55431   5.738   6.392   4.157 -1.1478  0.0127  2.8636
  411MOL0     H55432   5.798   6.589   4.281  0.1393 -1.9561 -0.2447
  411MOL0     H55433   5.639   6.540   4.328  4.0221 -3.5056  0.3665
  411MOL0     H55434   5.693   6.790   4.142 -1.0722  0.8309 -0.2652
  411MOL0     H55435   5.536   6.728   4.167 -1.5450  1.1922  2.1651
  411MOL0     H55436   5.742   6.983   4.286 -0.4563  0.9265  0.1302
  411MOL0     H55437   5.626   7.159   4.455  0.5751 -0.4956  0.0541
  411MOL0     H55438   5.582   7.127   4.621  1.2199  0.4120 -0.2349
  411MOL0     H55439   5.808   7.092   4.686  1.1084  2.3664  1.1389
  411MOL0     H55440   5.865   7.108   4.517 -1.0260  1.8033 -3.0678
  411MOL0     H55441   5.717   7.321   4.674 -0.7973 -3.3171  1.3568
  411MOL0     H55442   5.811   7.346   4.521 -0.3740  1.7670  0.5737
  411MOL0     H55443   6.007   7.256   4.651  2.6595  4.0253  0.1366
  411MOL0     H55444   5.905   7.267   4.804 -1.4636  1.6586  0.2210
  411MOL0     H55445   6.016   7.643   4.552 -0.5320 -0.9948  0.6268
  411MOL0     H55446   6.256   7.720   4.504 -0.1051  0.2850  1.0802
  411MOL0     H55447   6.667   7.581   4.429 -0.4302 -2.2397 -0.5982
  411MOL0     H55448   6.903   7.583   4.386  6.0736 -1.8244 -0.7848
  411MOL0     H55449   7.090   7.297   4.604 -0.0692  0.8244 -0.0688
  411MOL0     H55450   7.210   7.344   4.474 -0.2289  0.8593 -1.0522
  411MOL0     H55451   7.305   7.490   4.648  0.2781 -0.0331 -2.2998
  411MOL0     H55452   7.225   7.403   4.769  0.9819  2.1354 -0.4163
  411MOL0     H55453   7.455   7.335   4.759  0.3837 -0.0365  0.5458
  411MOL0     H55454   7.357   7.197   4.738  1.4089 -0.5101 -1.1804
  411MOL0     H55455   7.508   7.372   4.529  4.0136 -2.0870 -0.0416
  411MOL0     H55456   7.390   7.239   4.484 -1.8054  0.1653  1.0771
  411MOL0     H55457   7.543   7.086   4.597 -2.0365  1.4495  2.1828
  411MOL0     H55458   7.654   7.213   4.648  0.7483 -2.5463  1.1341
  411MOL0     H55459   7.568   7.124   4.364 -1.5617  3.7870 -1.1080
  411MOL0     H55460   7.677   7.260   4.388  0.0529  0.6769  0.6666
  411MOL0     H55461   7.733   6.978   4.518  0.6346  1.3576  2.5262
  411MOL0     H55462   7.851   7.101   4.478  1.2012 -1.5587 -3.1307
  411MOL0     H55463   7.874   6.929   4.321  0.8704  1.8535  2.2672
  411MOL0     H55464   7.701   6.928   4.282 -0.7142  0.2169 -1.1390
  411MOL0     H55465   6.985   7.412   4.779 -2.7018 -1.3158  0.0957
  411MOL0     H55466   6.748   7.459   4.843 -2.9513  1.7436  0.2762
  411MOL0     H55467   6.385   7.400   4.768  0.0184  0.2018 -0.3867
  411MOL0     H55468   6.167   7.342   4.810 -0.1485  0.8738 -0.4419
  411MOL0     H55469   6.095   6.174   3.406  0.6849  0.5367  0.5933
  411MOL0     H55470   6.323   6.194   3.322  0.7743  0.0230 -0.0475
  411MOL0     H55471   6.732   5.988   3.380  3.5961 -2.7214 -1.8807
  411MOL0     H55472   6.951   5.892   3.422 -0.9889 -0.7129 -0.6227
  411MOL0     H55473   7.230   6.087   3.688  1.6007 -0.2419 -0.6948
  411MOL0     H55474   7.341   6.087   3.554 -0.7948  2.8383  0.2875
  411MOL0     H55475   7.225   5.853   3.719 -0.3087  4.1235  3.5749
  411MOL0     H55476   7.366   5.933   3.764  1.0986 -1.0352 -0.4451
  411MOL0     H55477   7.503   5.848   3.610 -1.7343  4.1161 -0.1335
  411MOL0     H55478   7.384   5.829   3.480  4.0048  3.0086 -0.3102
  411MOL0     H55479   7.470   5.622   3.552 -2.8971  1.7394 -4.1140
  411MOL0     H55480   7.396   5.642   3.719  1.4408  1.7853  0.0928
  411MOL0     H55481   7.090   5.539   3.459 -0.1070  1.4434 -1.2869
  411MOL0     H55482   7.098   6.250   3.590  0.5069 -0.7385 -0.5332
  411MOL0     H55483   6.981   6.436   3.594  0.4348 -0.3663  0.8888
  411MOL0     H55484   6.831   6.457   3.509  0.9242  2.9979  1.0711
  411MOL0     H55485   6.828   6.419   3.685 -2.3228 -2.8455 -0.5626
  412MOL0     O55486   7.654   6.749   5.715 -0.7547  0.0147 -0.5665
  412MOL0     C55487   7.718   6.748   5.818 -0.3435 -0.1054  1.2107
  412MOL0     O55488   7.836   6.676   5.841 -0.5997 -0.3388 -0.2163
  412MOL0     C55489   7.859   6.565   5.770  0.3343  0.2803 -0.3118
  412MOL0     C55490   7.912   6.576   5.645 -0.2857 -0.9448 -0.2770
  412MOL0     C55491   7.956   6.461   5.579  0.3273  0.6859  0.1182
  412MOL0     C55492   7.950   6.338   5.645 -0.8260  0.3328  0.3209
  412MOL0     O55493   7.978   6.218   5.582  0.3719  0.2469 -0.8503
  412MOL0     C55494   7.902   6.212   5.459 -1.1096  0.4241  0.9836
  412MOL0     C55495   7.960   6.096   5.372  0.2113 -0.7001  0.7053
  412MOL0     C55496   8.093   6.117   5.320 -0.4386 -0.0803 -0.3180
  412MOL0     C55497   8.194   6.018   5.381  0.1328  0.4988  0.4188
  412MOL0     C55498   8.328   6.028   5.306 -0.1036  0.4718 -0.5537
  412MOL0     C55499   8.337   5.987   5.148 -0.5591  0.2527 -0.2630
  412MOL0     C55500   8.470   6.005   5.087 -0.3852  0.3805 -0.3915
  412MOL0     C55501   8.585   5.931   5.161 -0.3508  0.5937  0.1541
  412MOL0     N55502   8.561   5.788   5.152 -1.3728  0.4270 -0.2717
  412MOL0     C55503   8.563   5.714   5.271  0.1271  0.9940  0.2719
  412MOL0     C55504   8.593   5.589   5.244 -0.0787 -0.2427  0.0282
  412MOL0     C55505   8.625   5.475   5.351  0.5789  0.5094 -0.1875
  412MOL0     C55506   8.523   5.362   5.328  0.0626 -0.6778  0.3641
  412MOL0     C55507   8.377   5.406   5.368  0.4839 -0.4311  0.5359
  412MOL0     C55508   8.338   5.363   5.506 -0.4162  0.2499 -0.5638
  412MOL0     O55509   8.436   5.434   5.591 -0.5965 -0.5114 -0.4843
  412MOL0     C55510   8.397   5.447   5.720  0.4050 -0.1417  0.0142
  412MOL0     C55511   8.319   5.362   5.805 -0.5612 -0.3183 -0.0023
  412MOL0     C55512   8.303   5.392   5.940 -0.3309 -1.4217 -0.3795
  412MOL0     C55513   8.356   5.512   5.998  0.1716 -0.2427 -0.9981
  412MOL0     C55514   8.332   5.551   6.146  0.9700 -0.0200  0.1099
  412MOL0     O55515   8.384   5.668   6.180  0.4215  0.7840 -0.2281
  412MOL0     C55516   8.344   5.706   6.312 -0.0725  0.3281 -0.9412
  412MOL0     C55517   8.406   5.656   6.433  0.3326 -0.6053 -1.4365
  412MOL0     C55518   8.361   5.683   6.558  0.3016 -0.1997  0.2593
  412MOL0     C55519   8.257   5.771   6.570  0.1319 -0.7079  0.3487
  412MOL0     O55520   8.224   5.797   6.700 -0.4493 -0.0441 -0.2648
  412MOL0     C55521   8.140   5.907   6.744  0.4534  1.1003  0.1503
  412MOL0     C55522   7.999   5.864   6.721  0.0199  0.4293 -0.0971
  412MOL0     C55523   7.919   5.930   6.834  0.2506 -0.3131 -0.1727
  412MOL0     C55524   7.771   5.921   6.801 -0.4065 -0.2172 -0.3278
  412MOL0     C55525   7.684   5.969   6.918 -0.2379 -0.1085 -0.6259
  412MOL0     C55526   7.535   5.951   6.900  0.5586  0.1329 -0.5206
  412MOL0     C55527   7.440   6.041   6.983  0.6174 -0.5123  0.0047
  412MOL0     C55528   7.304   5.994   6.951 -0.8184 -0.6177 -0.4193
  412MOL0    Cl55529   7.178   6.003   7.079 -0.0905 -0.1328  0.3040
  412MOL0     C55530   8.189   5.824   6.454  0.9311  0.5083  0.8593
  412MOL0     C55531   8.239   5.791   6.325 -0.5102 -0.8055 -0.5838
  412MOL0     O55532   8.262   5.477   6.220  0.0902 -0.8699 -0.5894
  412MOL0     C55533   8.439   5.593   5.914 -0.0330  0.7219 -0.0868
  412MOL0     C55534   8.466   5.556   5.783 -0.0969  0.0017  0.6933
  412MOL0     N55535   8.616   5.584   5.107  0.6304  0.1210 -0.0558
  412MOL0     N55536   8.593   5.704   5.051  0.5308  0.7049 -0.2590
  412MOL0     C55537   7.905   6.333   5.778 -0.6062  0.2097 -0.7703
  412MOL0     C55538   7.857   6.446   5.843 -0.5963 -0.8813  0.3001
  412MOL0     C55539   7.650   6.833   5.924  0.4050  0.1410 -0.7995
  412MOL0     C55540   7.508   6.838   5.944 -0.3265  0.3725 -0.4165
  412MOL0     C55541   7.445   6.916   6.039 -0.7462 -0.0966  0.7343
  412MOL0     C55542   7.530   6.975   6.130 -0.0328 -0.6408  0.2488
  412MOL0     O55543   7.471   7.051   6.222 -0.8258 -0.5892 -0.1949
  412MOL0     C55544   7.475   7.188   6.189  0.0697  0.5652  0.3915
  412MOL0     C55545   7.371   7.255   6.273 -1.1877 -0.1072  0.4276
  412MOL0     C55546   7.225   7.213   6.248  0.3530 -1.0353 -0.5890
  412MOL0     C55547   7.118   7.315   6.303  0.1941  1.4252  0.4610
  412MOL0     C55548   7.130   7.443   6.225  0.3346  0.1939 -0.4222
  412MOL0     C55549   7.127   7.548   6.165  0.0980 -0.2376  0.5067
  412MOL0     C55550   7.670   6.967   6.129 -0.0027  0.4215 -0.1951
  412MOL0     C55551   7.731   6.896   6.025 -1.9402 -0.3759  0.8431
  412MOL0     C55552   7.882   6.898   6.032  0.4919  1.1564 -0.6372
  412MOL0     H55553   7.895   6.670   5.595 -0.6733 -0.4363  0.7811
  412MOL0     H55554   7.989   6.457   5.476 -1.2508 -1.9911 -0.3757
  412MOL0     H55555   7.796   6.188   5.471 -1.1275  0.1445  0.3460
  412MOL0     H55556   7.901   6.300   5.394  1.4170  0.4811  0.9214
  412MOL0     H55557   7.895   6.095   5.285 -1.2201 -2.9705  1.7127
  412MOL0     H55558   7.961   5.999   5.423  0.0427 -1.1403 -0.1153
  412MOL0     H55559   8.120   6.223   5.326 -2.1531  0.3093  1.6497
  412MOL0     H55560   8.088   6.100   5.212 -0.0185 -0.0801 -0.3388
  412MOL0     H55561   8.213   6.044   5.486  0.7969 -2.8234  1.2556
  412MOL0     H55562   8.153   5.916   5.385  0.6697  0.2974  0.8762
  412MOL0     H55563   8.361   6.132   5.313  0.3791  0.3346 -0.7734
  412MOL0     H55564   8.394   5.964   5.366  1.9548  2.7883 -0.1299
  412MOL0     H55565   8.301   5.884   5.143  2.6853 -1.1407  1.8740
  412MOL0     H55566   8.266   6.043   5.086 -0.1177 -0.7902 -1.7851
  412MOL0     H55567   8.503   6.108   5.072  0.0941  0.4420  0.9597
  412MOL0     H55568   8.461   5.968   4.985  0.5847 -0.8226 -0.0640
  412MOL0     H55569   8.676   5.960   5.107 -1.3611  1.4909 -1.1335
  412MOL0     H55570   8.595   5.955   5.267 -3.1154  1.2484  0.3254
  412MOL0     H55571   8.571   5.753   5.372  0.2692 -2.9652  1.9694
  412MOL0     H55572   8.721   5.429   5.327  0.1238 -1.6852  1.8952
  412MOL0     H55573   8.628   5.527   5.447 -2.3858 -0.4774  0.5406
  412MOL0     H55574   8.522   5.349   5.219 -1.7108 -0.4418  0.3217
  412MOL0     H55575   8.568   5.281   5.384  3.9944 -0.1064 -1.6441
  412MOL0     H55576   8.299   5.369   5.302 -0.6991 -0.6646  2.0051
  412MOL0     H55577   8.360   5.514   5.359 -0.4286 -0.1424  4.0353
  412MOL0     H55578   8.358   5.256   5.515 -0.0728  0.4266  1.1063
  412MOL0     H55579   8.231   5.377   5.521 -0.3040  0.7680 -0.2357
  412MOL0     H55580   8.258   5.282   5.764  1.8182 -1.9162 -0.5744
  412MOL0     H55581   8.233   5.326   5.990 -1.0517 -0.6481 -0.3444
  412MOL0     H55582   8.502   5.611   6.410  1.4645  3.1091 -5.5039
  412MOL0     H55583   8.409   5.632   6.641  2.3510  2.2945  0.7124
  412MOL0     H55584   8.152   5.924   6.852 -4.1270 -0.4741  1.1352
  412MOL0     H55585   8.150   6.001   6.688  1.7841  3.0269  3.3074
  412MOL0     H55586   7.976   5.895   6.619  0.3060  2.0306  0.2997
  412MOL0     H55587   7.991   5.755   6.724  0.3196  0.4229  1.0676
  412MOL0     H55588   7.939   5.890   6.934 -1.0098  1.6184  0.9114
  412MOL0     H55589   7.934   6.038   6.831 -1.7299 -0.0177 -2.3689
  412MOL0     H55590   7.740   5.820   6.773 -0.9601  0.3778 -2.0034
  412MOL0     H55591   7.757   5.997   6.723 -1.1434 -0.2062 -0.1886
  412MOL0     H55592   7.705   6.075   6.936  3.5964  0.0631 -4.4192
  412MOL0     H55593   7.712   5.919   7.011 -0.9384 -0.2434 -0.4860
  412MOL0     H55594   7.516   5.965   6.793 -0.6737 -0.6445 -0.4177
  412MOL0     H55595   7.512   5.851   6.937 -0.9793  0.0089 -1.7234
  412MOL0     H55596   7.447   6.150   6.974 -0.4326 -0.3767  0.6926
  412MOL0     H55597   7.463   6.021   7.089  1.2645 -1.5492 -0.3152
  412MOL0     H55598   7.273   6.060   6.869  0.1525  1.0313  0.4812
  412MOL0     H55599   7.306   5.894   6.906 -1.0340 -0.7757 -0.0777
  412MOL0     H55600   8.094   5.876   6.444  0.1813 -1.0687 -0.6993
  412MOL0     H55601   8.190   5.839   6.241 -0.2086 -0.5812 -0.6314
  412MOL0     H55602   8.482   5.675   5.970 -0.3212  1.7778 -1.3792
  412MOL0     H55603   8.534   5.624   5.733  0.8088 -0.8529  0.7285
  412MOL0     H55604   7.899   6.240   5.833 -1.4141  2.8148  4.1198
  412MOL0     H55605   7.840   6.442   5.950  1.2953  2.0136  0.8214
  412MOL0     H55606   7.442   6.790   5.872  0.2685  1.7412 -1.9253
  412MOL0     H55607   7.340   6.912   6.065 -1.0439  0.8372 -0.2188
  412MOL0     H55608   7.452   7.208   6.084  0.2361  2.0956  0.6240
  412MOL0     H55609   7.567   7.242   6.210  1.0667 -1.5752  1.9353
  412MOL0     H55610   7.373   7.362   6.253 -1.6477 -0.3027 -0.7185
  412MOL0     H55611   7.404   7.239   6.376  2.2287  2.2619 -0.1370
  412MOL0     H55612   7.194   7.114   6.282 -0.0862 -0.9577 -0.7565
  412MOL0     H55613   7.222   7.219   6.139 -0.7527  1.2165 -0.4887
  412MOL0     H55614   7.014   7.281   6.296  0.2593  1.2522  0.3449
  412MOL0     H55615   7.121   7.331   6.412 -4.1644 -1.7019  1.3029
  412MOL0     H55616   7.115   7.645   6.121 -0.7502  0.4444  2.1403
  412MOL0     H55617   7.732   7.015   6.204  2.3614 -3.1881  0.3857
  412MOL0     H55618   7.905   6.958   6.121 -1.3845 -1.4014  1.7345
  412MOL0     H55619   7.928   6.799   6.043 -2.0446 -0.1094 -0.7354
  412MOL0     H55620   7.930   6.936   5.941 -1.7751  4.7463 -0.5477
  413MOL0     O55621   7.392   4.356   2.704 -0.0002  0.2307  0.9195
  413MOL0     C55622   7.393   4.331   2.584  0.5461  0.8893 -0.3090
  413MOL0     O55623   7.347   4.414   2.489 -0.4309 -0.8773 -0.0030
  413MOL0     C55624   7.323   4.544   2.532 -0.3615 -0.3579  0.1643
  413MOL0     C55625   7.408   4.618   2.607 -1.2659 -0.0066 -0.4072
  413MOL0     C55626   7.363   4.739   2.665  0.0175 -1.0224  1.5343
  413MOL0     C55627   7.235   4.787   2.640 -0.8445  0.3255 -0.0648
  413MOL0     O55628   7.188   4.898   2.703  0.3911 -0.9301 -0.2809
  413MOL0     C55629   7.259   4.953   2.828 -0.6405  0.8559  0.0729
  413MOL0     C55630   7.178   5.071   2.890 -0.2900  0.0244  0.8255
  413MOL0     C55631   7.213   5.102   3.036  0.1249  0.8219 -0.4629
  413MOL0     C55632   7.145   5.008   3.144 -0.2418 -0.4561  0.6572
  413MOL0     C55633   7.133   5.061   3.287  0.2446 -0.2947  0.6982
  413MOL0     C55634   7.272   5.061   3.348  0.3123 -0.6505  0.1726
  413MOL0     C55635   7.280   5.101   3.502 -0.2230 -0.4605  0.3111
  413MOL0     C55636   7.222   5.243   3.527 -0.2759  0.5149  0.3377
  413MOL0     N55637   7.262   5.302   3.654  0.3641  0.5104 -0.2535
  413MOL0     C55638   7.176   5.301   3.763 -0.0749 -0.1478 -0.1039
  413MOL0     C55639   7.255   5.319   3.872 -0.0120 -0.4369 -1.0549
  413MOL0     C55640   7.191   5.323   4.002 -0.0539 -0.1925 -0.0745
  413MOL0     C55641   7.128   5.185   4.042 -0.7499  0.4716  0.6340
  413MOL0     C55642   7.232   5.078   4.056 -0.3466 -0.6745  0.1821
  413MOL0     C55643   7.282   5.017   3.914  0.2277  0.7768 -0.3301
  413MOL0     O55644   7.421   5.041   3.886 -0.5907 -0.4886 -0.8812
  413MOL0     C55645   7.482   4.985   3.767 -0.8874  0.5787 -0.3794
  413MOL0     C55646   7.445   4.875   3.692 -0.5671  0.1476 -0.1242
  413MOL0     C55647   7.504   4.862   3.567 -1.1378  0.6333 -0.1222
  413MOL0     C55648   7.593   4.949   3.508 -0.0123 -0.6478 -0.4449
  413MOL0     C55649   7.634   4.924   3.371  0.1762  0.1216 -0.2157
  413MOL0     O55650   7.584   4.813   3.297  0.1286  0.6767 -0.5501
  413MOL0     C55651   7.631   4.792   3.167  0.0195  0.5696 -0.1779
  413MOL0     C55652   7.763   4.806   3.119 -0.2696 -0.4534 -0.6158
  413MOL0     C55653   7.785   4.778   2.984  0.7137  0.1723 -0.5103
  413MOL0     C55654   7.684   4.720   2.905 -0.0789 -0.2486  0.2478
  413MOL0     O55655   7.713   4.688   2.776 -0.4544  0.2511  0.5156
  413MOL0     C55656   7.768   4.785   2.682 -0.4009  0.5862 -0.0643
  413MOL0     C55657   7.763   4.726   2.533 -0.4877  0.1217 -0.7524
  413MOL0     C55658   7.803   4.574   2.522 -0.1598 -0.5000 -0.2690
  413MOL0     C55659   7.833   4.528   2.379 -0.8009  0.4745 -0.4874
  413MOL0     C55660   7.835   4.371   2.366  0.1774  0.0083  0.6242
  413MOL0     C55661   7.878   4.334   2.223  0.5599 -0.6763  0.9376
  413MOL0     C55662   7.796   4.215   2.172 -1.2339 -0.4617 -0.0649
  413MOL0     C55663   7.805   4.189   2.022 -0.4561 -0.3478  0.6100
  413MOL0    Cl55664   7.680   4.071   1.986  0.1581 -0.0981  0.1624
  413MOL0     C55665   7.557   4.694   2.962  0.1190 -0.4516 -1.1285
  413MOL0     C55666   7.530   4.733   3.093 -0.3325  0.3377  0.1276
  413MOL0     O55667   7.713   5.005   3.328 -0.2824  0.0365  0.2239
  413MOL0     C55668   7.627   5.072   3.586  0.8781  0.0583 -0.2101
  413MOL0     C55669   7.578   5.078   3.721  0.4607  0.4469  0.5716
  413MOL0     N55670   7.385   5.340   3.819  0.0573 -1.1376 -0.5147
  413MOL0     N55671   7.392   5.324   3.693  0.3288  0.6280 -0.6933
  413MOL0     C55672   7.147   4.710   2.566  0.5387 -1.0999 -0.5628
  413MOL0     C55673   7.199   4.598   2.505 -1.2881  0.7153 -0.4742
  413MOL0     C55674   7.472   4.209   2.540 -0.0296  0.2100  0.3731
  413MOL0     C55675   7.523   4.135   2.650 -0.8882  1.0320  0.0760
  413MOL0     C55676   7.576   4.000   2.625 -1.0850 -0.3199  0.2683
  413MOL0     C55677   7.603   3.963   2.492 -0.0125  0.3419  0.2878
  413MOL0     O55678   7.660   3.837   2.468 -0.1893 -0.0049  1.0793
  413MOL0     C55679   7.731   3.812   2.346 -0.6476 -0.2687 -0.4906
  413MOL0     C55680   7.819   3.692   2.370  0.5636 -0.3825 -0.1413
  413MOL0     C55681   7.728   3.572   2.393  0.5224 -0.8319 -0.4882
  413MOL0     C55682   7.782   3.438   2.426 -0.6830 -0.1692  1.0037
  413MOL0     C55683   7.906   3.440   2.513  0.3227  0.5495 -1.0275
  413MOL0     C55684   8.012   3.408   2.574  0.1920 -0.0155  0.0857
  413MOL0     C55685   7.551   4.039   2.389  0.9147  1.3395 -0.7713
  413MOL0     C55686   7.489   4.167   2.402  0.0417  0.0091 -1.1012
  413MOL0     C55687   7.439   4.244   2.278 -0.6376  0.4270  0.5417
  413MOL0     H55688   7.509   4.587   2.633 -0.6673  2.1239 -0.0021
  413MOL0     H55689   7.435   4.795   2.722  2.0202  0.5710 -2.1921
  413MOL0     H55690   7.272   4.866   2.893  2.5499  0.2267 -1.2820
  413MOL0     H55691   7.357   4.996   2.807  0.2469 -0.4736  1.2683
  413MOL0     H55692   7.070   5.053   2.879 -0.2924 -0.5153  1.6697
  413MOL0     H55693   7.197   5.157   2.825  2.9408 -0.8092  0.4699
  413MOL0     H55694   7.184   5.205   3.060 -1.4637  1.1272 -3.2717
  413MOL0     H55695   7.319   5.110   3.064  0.2032  0.2722 -0.6067
  413MOL0     H55696   7.038   4.996   3.122 -1.1280  3.0040  2.3102
  413MOL0     H55697   7.188   4.909   3.131 -1.1647 -0.9026  0.9198
  413MOL0     H55698   7.087   5.160   3.294 -1.8952 -1.3140  2.4623
  413MOL0     H55699   7.060   5.002   3.345 -1.8810  2.3835  0.9518
  413MOL0     H55700   7.332   4.969   3.345  0.2029 -1.0310  4.2560
  413MOL0     H55701   7.332   5.132   3.291 -0.2852 -0.1652  0.1442
  413MOL0     H55702   7.385   5.114   3.529 -0.8561 -1.6370  3.8577
  413MOL0     H55703   7.232   5.025   3.564 -5.9270  0.7247 -1.9993
  413MOL0     H55704   7.257   5.310   3.449  2.0329 -1.1285 -0.1331
  413MOL0     H55705   7.115   5.251   3.507  0.0420 -1.5189 -2.8867
  413MOL0     H55706   7.080   5.251   3.757  2.0238 -5.1082  1.7103
  413MOL0     H55707   7.276   5.337   4.069  1.1751 -0.2432 -1.5515
  413MOL0     H55708   7.113   5.399   4.001 -2.3016 -2.3907 -0.6199
  413MOL0     H55709   7.069   5.199   4.132  0.0045 -0.3653  1.2792
  413MOL0     H55710   7.058   5.152   3.965  0.4196 -1.1102  0.1901
  413MOL0     H55711   7.177   4.998   4.105 -1.5479  0.0220  0.0232
  413MOL0     H55712   7.323   5.099   4.113  0.5966 -0.8247 -1.2006
  413MOL0     H55713   7.208   5.058   3.844  0.2676  1.3402 -0.0508
  413MOL0     H55714   7.272   4.908   3.916  1.1813  0.6623 -1.0259
  413MOL0     H55715   7.368   4.807   3.728 -0.7950  1.4521  2.0408
  413MOL0     H55716   7.473   4.778   3.504  0.8927 -2.1881  2.3726
  413MOL0     H55717   7.838   4.861   3.176 -1.2114 -0.0940  0.3083
  413MOL0     H55718   7.883   4.796   2.943  1.6591 -0.5346  1.3328
  413MOL0     H55719   7.716   4.880   2.694  3.4732  3.1399 -1.2676
  413MOL0     H55720   7.875   4.788   2.704 -0.3951  0.3751 -0.0639
  413MOL0     H55721   7.659   4.748   2.508 -0.4041  1.2425 -0.1493
  413MOL0     H55722   7.833   4.789   2.477 -0.3933  0.5212 -0.1809
  413MOL0     H55723   7.895   4.555   2.578 -0.1670 -1.7875 -0.6424
  413MOL0     H55724   7.722   4.517   2.570 -0.3280 -1.3629 -1.5235
  413MOL0     H55725   7.933   4.573   2.371 -0.4166  1.8558  6.3209
  413MOL0     H55726   7.769   4.577   2.305  2.0972  2.2968 -1.9720
  413MOL0     H55727   7.735   4.333   2.387  0.4770  0.1117  2.3362
  413MOL0     H55728   7.896   4.332   2.448 -2.2222 -1.3700  1.8704
  413MOL0     H55729   7.860   4.427   2.167  0.8843  0.2034  2.2374
  413MOL0     H55730   7.986   4.326   2.212  0.4292  0.4908 -2.2591
  413MOL0     H55731   7.691   4.239   2.188 -0.9500  1.0909 -0.3219
  413MOL0     H55732   7.832   4.126   2.225  1.0521 -0.9708 -2.2360
  413MOL0     H55733   7.778   4.278   1.963 -0.8097  0.4965  2.0122
  413MOL0     H55734   7.903   4.155   1.984 -2.0269 -4.6418 -0.1505
  413MOL0     H55735   7.483   4.637   2.906  1.0189 -2.7926 -0.0543
  413MOL0     H55736   7.436   4.714   3.143 -1.3048  2.4502 -0.7826
  413MOL0     H55737   7.694   5.149   3.548 -1.0620  1.5718 -0.7510
  413MOL0     H55738   7.611   5.160   3.784  4.1947 -2.1107  2.2632
  413MOL0     H55739   7.046   4.746   2.548  0.9561 -0.7623 -2.5037
  413MOL0     H55740   7.159   4.541   2.422  2.0262 -1.1242 -0.9707
  413MOL0     H55741   7.522   4.158   2.756  0.0637 -1.3145  0.6568
  413MOL0     H55742   7.613   3.940   2.707 -0.5217 -0.9174 -0.4165
  413MOL0     H55743   7.806   3.892   2.343  2.3653 -2.9559 -3.1911
  413MOL0     H55744   7.670   3.806   2.256 -0.9082  0.5318 -0.3776
  413MOL0     H55745   7.895   3.709   2.447  3.1496 -0.1225 -2.5921
  413MOL0     H55746   7.865   3.668   2.274  2.7084 -1.4894  1.0975
  413MOL0     H55747   7.662   3.554   2.308  1.2754 -0.6017 -1.1333
  413MOL0     H55748   7.663   3.584   2.479 -1.2101  1.3981 -2.0080
  413MOL0     H55749   7.702   3.372   2.460 -2.3859  0.9523 -0.6309
  413MOL0     H55750   7.802   3.399   2.326 -0.5182  0.8311  0.6383
  413MOL0     H55751   8.100   3.376   2.626  0.8060  1.3814 -0.0664
  413MOL0     H55752   7.568   4.009   2.287  0.3824  1.3001 -0.8493
  413MOL0     H55753   7.476   4.346   2.264  0.2907 -0.1061 -1.2756
  413MOL0     H55754   7.471   4.195   2.185  0.6007  1.1782  0.5441
  413MOL0     H55755   7.331   4.257   2.282 -0.8542 -0.2086 -1.8271
  414MOL0     O55756   6.500   9.729   2.423 -0.2463 -0.1732 -0.2983
  414MOL0     C55757   6.514   9.816   2.340 -0.7205  0.6966 -0.3055
  414MOL0     O55758   6.621   9.906   2.342 -0.0580 -0.1005 -0.8013
  414MOL0     C55759   6.745   9.857   2.383  1.0219  0.7330  0.4861
  414MOL0     C55760   6.846   9.848   2.283  0.4288  0.3806 -0.2741
  414MOL0     C55761   6.976   9.794   2.313 -1.0695 -0.2868  0.1697
  414MOL0     C55762   6.998   9.736   2.435 -0.3065  0.3209 -0.8202
  414MOL0     O55763   7.113   9.664   2.463 -0.3169 -0.0872  0.4202
  414MOL0     C55764   7.217   9.642   2.359 -0.1588  0.7877  0.6413
  414MOL0     C55765   7.341   9.733   2.391 -0.0250  0.0243  0.7720
  414MOL0     C55766   7.451   9.716   2.287  0.2016 -0.9353  0.2326
  414MOL0     C55767   7.576   9.809   2.295 -0.5637 -0.8511  0.0656
  414MOL0     C55768   7.669   9.792   2.170 -0.0975 -0.3308  0.1255
  414MOL0     C55769   7.728   9.653   2.143 -0.2260 -0.7934  0.2709
  414MOL0     C55770   7.834   9.655   2.032  0.1401  0.9130  0.6579
  414MOL0     C55771   7.776   9.609   1.896  0.0543 -0.3732  0.3490
  414MOL0     N55772   7.876   9.605   1.778  0.5950  0.0516  0.1902
  414MOL0     C55773   7.983   9.520   1.760  0.8066 -0.0281  0.3556
  414MOL0     C55774   8.061   9.568   1.652 -0.2606 -0.1794 -0.7459
  414MOL0     C55775   8.188   9.508   1.598  0.2482  0.4032 -1.2344
  414MOL0     C55776   8.320   9.574   1.621 -0.2457  0.5442  1.0180
  414MOL0     C55777   8.428   9.496   1.545 -0.7902 -0.0902  0.1447
  414MOL0     C55778   8.573   9.526   1.594  0.3684  0.3951  0.3376
  414MOL0     O55779   8.583   9.494   1.731  0.5231 -0.1859  0.0196
  414MOL0     C55780   8.616   9.373   1.772 -1.2251 -0.4412 -0.3562
  414MOL0     C55781   8.620   9.367   1.912  0.0803  0.7330  0.2632
  414MOL0     C55782   8.649   9.244   1.975  0.7970  0.5698 -0.1495
  414MOL0     C55783   8.694   9.128   1.905 -0.1969 -1.3680 -0.8018
  414MOL0     C55784   8.714   9.004   1.977  0.0955  1.2639  0.2873
  414MOL0     O55785   8.725   9.013   2.104 -0.2592  0.1466 -1.0180
  414MOL0     C55786   8.769   8.901   2.175 -0.5721 -0.3088 -0.2483
  414MOL0     C55787   8.686   8.840   2.264  0.0514 -0.1301 -1.1527
  414MOL0     C55788   8.736   8.743   2.354  0.4049 -1.0760  0.4261
  414MOL0     C55789   8.876   8.707   2.339  1.0273  1.5897 -0.3909
  414MOL0     O55790   8.932   8.602   2.418 -0.0562 -0.4362  0.0730
  414MOL0     C55791   8.841   8.527   2.504  0.2401 -0.5061 -0.0911
  414MOL0     C55792   8.930   8.417   2.570  0.2627 -0.5021 -0.3823
  414MOL0     C55793   8.857   8.286   2.598  0.1571  0.7957 -1.2149
  414MOL0     C55794   8.711   8.296   2.638  0.1156  0.3366 -0.1360
  414MOL0     C55795   8.664   8.168   2.697 -0.0633  1.0831  0.4189
  414MOL0     C55796   8.518   8.190   2.747  0.3095  0.0302 -0.0868
  414MOL0     C55797   8.525   8.295   2.856 -0.1560  0.2696  0.3452
  414MOL0     C55798   8.402   8.274   2.951  0.0647 -0.3399 -0.7261
  414MOL0    Cl55799   8.435   8.127   3.052  0.4035 -0.0112  0.0670
  414MOL0     C55800   8.953   8.769   2.249  0.3168 -0.9132  0.4864
  414MOL0     C55801   8.903   8.870   2.168  0.0871  0.4330  1.0521
  414MOL0     O55802   8.710   8.894   1.915  0.5051 -0.5342  0.0311
  414MOL0     C55803   8.703   9.147   1.769 -0.5743 -1.1814  0.7305
  414MOL0     C55804   8.664   9.264   1.704 -0.2894 -0.0648  0.3425
  414MOL0     N55805   8.010   9.690   1.611  0.7866  0.5725  1.0238
  414MOL0     N55806   7.901   9.703   1.682 -0.7826  0.4891 -0.9391
  414MOL0     C55807   6.901   9.747   2.534  0.0815  0.2210 -0.9270
  414MOL0     C55808   6.775   9.808   2.508 -0.9915 -0.6344 -0.8947
  414MOL0     C55809   6.401   9.874   2.252 -0.0551  0.3269 -0.5042
  414MOL0     C55810   6.406   9.996   2.181 -0.4502 -0.4337  0.9366
  414MOL0     C55811   6.292  10.048   2.109  0.1979  0.4495  0.5431
  414MOL0     C55812   6.178   9.967   2.095 -0.3635  0.3789 -0.4809
  414MOL0     O55813   6.067  10.014   2.030 -0.7669  0.3994  0.0262
  414MOL0     C55814   6.064   9.985   1.892 -0.9458  0.8860  0.2869
  414MOL0     C55815   6.074   9.833   1.842  0.0097 -0.2858 -0.4413
  414MOL0     C55816   5.943   9.769   1.871 -0.2996 -0.6327 -0.0879
  414MOL0     C55817   5.855   9.768   1.743 -0.1802 -0.4186 -0.3657
  414MOL0     C55818   5.906   9.688   1.630  0.0169 -0.1286 -0.2619
  414MOL0     C55819   5.931   9.619   1.535 -0.4353 -0.7821 -0.3103
  414MOL0     C55820   6.170   9.839   2.159 -0.0105 -0.3621  0.1075
  414MOL0     C55821   6.278   9.795   2.235  0.4302  0.8096  0.2390
  414MOL0     C55822   6.262   9.656   2.286 -0.3216 -0.5036  0.8956
  414MOL0     H55823   6.820   9.887   2.185 -2.1465  2.1101  0.9817
  414MOL0     H55824   7.057   9.806   2.242  2.3453 -1.6636  3.5043
  414MOL0     H55825   7.248   9.537   2.369 -0.9922  0.4043 -0.5845
  414MOL0     H55826   7.175   9.652   2.259 -1.5422 -0.6865  1.0378
  414MOL0     H55827   7.375   9.721   2.494  0.8861 -2.4410  0.2530
  414MOL0     H55828   7.310   9.838   2.380 -1.6493 -0.4067  1.0110
  414MOL0     H55829   7.400   9.730   2.191  0.1816 -4.1451 -0.3155
  414MOL0     H55830   7.481   9.612   2.299  4.7505  0.2179  0.5970
  414MOL0     H55831   7.553   9.916   2.289  1.6710 -0.3194 -0.2767
  414MOL0     H55832   7.635   9.790   2.385  0.1635 -0.3098 -0.2822
  414MOL0     H55833   7.620   9.832   2.081 -0.5703  0.7383  0.8541
  414MOL0     H55834   7.757   9.848   2.201  0.2253 -0.1126 -1.1015
  414MOL0     H55835   7.780   9.620   2.233  0.8115 -2.1647 -0.7878
  414MOL0     H55836   7.649   9.578   2.134 -1.3442  0.0000  2.7006
  414MOL0     H55837   7.909   9.581   2.063  0.8205  1.8459  1.3016
  414MOL0     H55838   7.892   9.747   2.017  2.4953 -0.7536 -1.2922
  414MOL0     H55839   7.736   9.508   1.906  3.2388 -2.2392 -3.0856
  414MOL0     H55840   7.691   9.671   1.866  0.2871  0.9534  2.2740
  414MOL0     H55841   8.003   9.426   1.810  1.0917 -2.2424 -3.6018
  414MOL0     H55842   8.191   9.407   1.638 -0.0134 -0.3960 -3.1010
  414MOL0     H55843   8.174   9.489   1.491 -0.0636 -0.2547 -1.0786
  414MOL0     H55844   8.320   9.680   1.593 -1.0130  0.4834  0.7738
  414MOL0     H55845   8.361   9.566   1.722  1.2794 -3.3150  0.2702
  414MOL0     H55846   8.420   9.537   1.444  2.1472 -0.4039 -0.2941
  414MOL0     H55847   8.412   9.389   1.533 -1.0619  0.2425 -3.5883
  414MOL0     H55848   8.588   9.632   1.571  0.0030 -0.0228 -2.0887
  414MOL0     H55849   8.640   9.473   1.526  1.6996  2.0104  0.3091
  414MOL0     H55850   8.592   9.456   1.969  0.7254  1.3958 -0.4345
  414MOL0     H55851   8.660   9.242   2.083  0.7255  3.1555 -0.0310
  414MOL0     H55852   8.584   8.873   2.277  0.1014 -0.0766 -0.8837
  414MOL0     H55853   8.676   8.705   2.436 -1.3170  0.3445 -0.1106
  414MOL0     H55854   8.789   8.586   2.580  3.1809  1.2605  0.6962
  414MOL0     H55855   8.758   8.479   2.450  1.4181 -0.6824 -1.7888
  414MOL0     H55856   9.023   8.409   2.513  0.2613  2.2383 -0.8982
  414MOL0     H55857   8.961   8.457   2.666  0.7890  0.7815 -1.0584
  414MOL0     H55858   8.864   8.214   2.516  0.4557 -1.4715  0.7034
  414MOL0     H55859   8.908   8.241   2.684 -0.2894  1.3601 -0.6449
  414MOL0     H55860   8.645   8.331   2.558 -1.1969 -1.7595 -0.0560
  414MOL0     H55861   8.719   8.376   2.712 -2.4681  0.8838 -0.3495
  414MOL0     H55862   8.728   8.128   2.777  1.5169  2.2210 -0.2166
  414MOL0     H55863   8.667   8.084   2.627 -3.5113  1.4572 -0.3497
  414MOL0     H55864   8.463   8.227   2.661 -1.0172  0.4609  0.9181
  414MOL0     H55865   8.461   8.102   2.778 -4.3554  1.9351 -2.3497
  414MOL0     H55866   8.524   8.393   2.807  1.5599  0.5287  0.7842
  414MOL0     H55867   8.613   8.290   2.920 -0.1764  1.1880  0.4680
  414MOL0     H55868   8.386   8.356   3.020  0.7941  0.9804 -2.0685
  414MOL0     H55869   8.310   8.260   2.894  1.1213  0.3861 -2.7387
  414MOL0     H55870   9.059   8.744   2.245  0.2907 -0.9097 -0.1950
  414MOL0     H55871   8.970   8.922   2.100 -0.3330  0.5548  0.7263
  414MOL0     H55872   8.733   9.067   1.702 -1.0655 -0.6269 -0.1578
  414MOL0     H55873   8.675   9.274   1.597  0.2687  2.4615  0.5891
  414MOL0     H55874   6.912   9.704   2.634 -1.7387 -1.1530 -1.2706
  414MOL0     H55875   6.710   9.812   2.595  0.7236  1.7888  0.3872
  414MOL0     H55876   6.480  10.073   2.200 -1.7084  1.1112 -0.2026
  414MOL0     H55877   6.284  10.143   2.058 -0.9709  0.2110  0.2656
  414MOL0     H55878   6.151  10.037   1.851 -0.2897  0.1650  0.7357
  414MOL0     H55879   5.977  10.030   1.843 -0.6837 -1.1014 -2.2305
  414MOL0     H55880   6.149   9.767   1.886  0.8524 -0.9780 -2.7455
  414MOL0     H55881   6.098   9.838   1.735  0.1990  4.0687 -0.3946
  414MOL0     H55882   5.906   9.805   1.967  1.5552 -1.6664  1.0732
  414MOL0     H55883   5.966   9.662   1.881 -1.0071 -0.5709  3.7269
  414MOL0     H55884   5.757   9.734   1.777  1.2994 -1.7664  2.8838
  414MOL0     H55885   5.833   9.871   1.715  0.4184  0.2324  1.4642
  414MOL0     H55886   5.949   9.563   1.445  1.3624  0.8924 -1.0564
  414MOL0     H55887   6.075   9.788   2.145  0.5558 -0.4292 -5.8444
  414MOL0     H55888   6.214   9.649   2.384 -3.3281 -5.0616 -0.5653
  414MOL0     H55889   6.200   9.593   2.222  0.1358 -2.5120  2.3392
  414MOL0     H55890   6.360   9.607   2.285  0.6237  1.2948 -0.1336
  415MOL0     O55891   3.769   4.970   9.120  0.4223 -0.2796 -0.1526
  415MOL0     C55892   3.788   5.087   9.129  0.5563 -0.3090 -0.9009
  415MOL0     O55893   3.876   5.154   9.057 -0.3932 -0.0846  0.0942
  415MOL0     C55894   3.979   5.090   8.986  0.3701 -0.7365  0.2240
  415MOL0     C55895   4.028   5.162   8.876 -0.4206  0.5368 -0.3645
  415MOL0     C55896   4.146   5.132   8.819  0.6956  0.6033 -0.2393
  415MOL0     C55897   4.216   5.021   8.856 -0.0409 -0.3858 -0.0084
  415MOL0     O55898   4.338   5.004   8.798  0.8531 -0.1176 -0.9599
  415MOL0     C55899   4.429   4.913   8.867  0.8977 -0.6442 -0.4139
  415MOL0     C55900   4.560   4.900   8.780 -0.2981  0.0608  0.0593
  415MOL0     C55901   4.602   4.752   8.790  0.3721  0.1135 -0.0369
  415MOL0     C55902   4.745   4.729   8.810  0.1667  0.6149  0.3419
  415MOL0     C55903   4.789   4.580   8.830  0.0859  0.3152  0.6986
  415MOL0     C55904   4.946   4.561   8.816  0.2955  0.0254 -0.3024
  415MOL0     C55905   4.976   4.410   8.771 -0.9560  0.1766  0.6948
  415MOL0     C55906   4.920   4.303   8.861 -0.8474  0.4354  0.0236
  415MOL0     N55907   4.971   4.321   8.997 -0.2133  1.2708  0.3978
  415MOL0     C55908   5.072   4.252   9.049 -0.1247 -0.8570  0.0756
  415MOL0     C55909   5.106   4.314   9.160  0.5727 -0.9486  0.1889
  415MOL0     C55910   5.224   4.303   9.244 -0.1773  0.7557  0.7390
  415MOL0     C55911   5.271   4.162   9.275 -1.6422 -0.3352 -0.0687
  415MOL0     C55912   5.176   4.069   9.355  0.6049  0.3880 -0.0720
  415MOL0     C55913   5.171   4.108   9.497 -0.3960 -0.1299  0.0341
  415MOL0     O55914   5.086   4.029   9.581 -0.8810 -0.9342 -0.5886
  415MOL0     C55915   5.146   3.920   9.629 -0.0531 -0.1268 -0.0386
  415MOL0     C55916   5.244   3.945   9.723  0.0855 -0.3500  1.6724
  415MOL0     C55917   5.318   3.841   9.781  0.6207  0.1201 -0.4128
  415MOL0     C55918   5.280   3.706   9.742  0.7227 -1.3318  0.5992
  415MOL0     C55919   5.335   3.584   9.806  0.0551  0.8753  0.8351
  415MOL0     O55920   5.457   3.613   9.871  0.8004  0.2552  0.6843
  415MOL0     C55921   5.523   3.520   9.953 -0.6656  0.1758  0.4127
  415MOL0     C55922   5.634   3.450   9.904  0.7819 -0.2405  0.2216
  415MOL0     C55923   5.706   3.366   9.981 -0.3613 -0.9346  0.7016
  415MOL0     C55924   5.665   3.322  10.110  1.7275 -1.1618 -0.1594
  415MOL0     O55925   5.714   3.224  10.189  0.0548  0.4840 -0.0920
  415MOL0     C55926   5.789   3.122  10.127 -0.4599  0.2783  0.2585
  415MOL0     C55927   5.837   3.020  10.227  0.4141 -0.8435 -0.0872
  415MOL0     C55928   5.923   3.085  10.336 -0.1174 -0.0926 -1.0781
  415MOL0     C55929   5.945   3.003  10.462  0.2348 -1.0147 -0.9297
  415MOL0     C55930   6.017   3.097  10.571 -0.2384 -1.2811  0.1635
  415MOL0     C55931   6.038   3.040  10.704 -0.0350  0.3085 -0.1722
  415MOL0     C55932   6.104   3.143  10.796  0.7131 -0.0424  0.7349
  415MOL0     C55933   6.109   3.079  10.930  0.2128 -0.4212  0.3356
  415MOL0    Cl55934   6.179   3.195  11.052 -0.3313 -0.6328 -0.0423
  415MOL0     C55935   5.540   3.386  10.147 -0.1691  0.1142 -0.6498
  415MOL0     C55936   5.478   3.483  10.076  0.5465 -0.8062  0.1433
  415MOL0     O55937   5.275   3.483   9.815  0.5994 -0.2091  0.2225
  415MOL0     C55938   5.178   3.688   9.651  0.2084  0.1394  0.3686
  415MOL0     C55939   5.113   3.794   9.586  0.1816  0.1241  0.3776
  415MOL0     N55940   5.014   4.413   9.184  0.7083  0.8860  0.0210
  415MOL0     N55941   4.923   4.405   9.086 -0.1020 -0.5716 -0.9258
  415MOL0     C55942   4.160   4.935   8.951  0.3213 -0.3281  0.1090
  415MOL0     C55943   4.040   4.970   9.017 -0.6999  0.1282 -0.2201
  415MOL0     C55944   3.709   5.165   9.225  0.5475 -0.2503 -0.7865
  415MOL0     C55945   3.720   5.304   9.223  0.7822 -0.2331  0.1562
  415MOL0     C55946   3.631   5.380   9.302 -0.9389  0.2909 -0.2251
  415MOL0     C55947   3.540   5.328   9.394 -0.6232  1.1671  0.2657
  415MOL0     O55948   3.464   5.405   9.479 -0.4957 -0.7027  0.1091
  415MOL0     C55949   3.422   5.537   9.443 -0.6062 -1.0006  0.7074
  415MOL0     C55950   3.315   5.588   9.541 -0.1443 -0.0330 -0.2364
  415MOL0     C55951   3.185   5.512   9.500  0.9093  0.2643 -0.2726
  415MOL0     C55952   3.063   5.558   9.584 -0.1315 -0.7251  0.2995
  415MOL0     C55953   3.036   5.694   9.530  0.7418 -0.3038 -0.2972
  415MOL0     C55954   3.016   5.811   9.506 -0.1867  1.0294  0.8486
  415MOL0     C55955   3.548   5.190   9.408  0.0066 -0.2470 -0.3796
  415MOL0     C55956   3.629   5.104   9.323 -0.5087 -0.1763 -0.1191
  415MOL0     C55957   3.600   4.957   9.341 -0.0991  0.3151 -0.0943
  415MOL0     H55958   3.972   5.253   8.854 -0.5579  1.3812  3.0117
  415MOL0     H55959   4.209   5.194   8.755  1.9770  0.2769  0.6572
  415MOL0     H55960   4.458   4.942   8.968  1.6119  1.1798 -1.0969
  415MOL0     H55961   4.384   4.815   8.885 -2.3873  1.4168  4.8398
  415MOL0     H55962   4.639   4.971   8.807  0.4949  0.1416 -2.2837
  415MOL0     H55963   4.538   4.928   8.677  1.4876  1.1499 -0.0634
  415MOL0     H55964   4.569   4.698   8.701  3.2512  1.1312 -1.8539
  415MOL0     H55965   4.564   4.709   8.883  2.1904  1.6846  1.5222
  415MOL0     H55966   4.796   4.771   8.723  1.4324 -2.9443 -0.8001
  415MOL0     H55967   4.781   4.783   8.899  1.3754  2.1814 -1.0339
  415MOL0     H55968   4.755   4.553   8.931 -1.0297 -0.8514  0.0397
  415MOL0     H55969   4.733   4.511   8.766  1.7048 -1.4004  1.0212
  415MOL0     H55970   4.968   4.628   8.733 -1.2390  1.0789  0.0844
  415MOL0     H55971   5.007   4.591   8.902  2.1132 -1.0556 -1.1545
  415MOL0     H55972   5.084   4.394   8.764 -0.5575  1.9301  2.0412
  415MOL0     H55973   4.934   4.390   8.672 -1.8045 -0.4071  1.1649
  415MOL0     H55974   4.812   4.315   8.871 -0.6385  2.5970  0.3615
  415MOL0     H55975   4.953   4.207   8.820  1.0398  0.1884  1.8951
  415MOL0     H55976   5.124   4.172   8.996 -1.6167 -1.2693 -0.8177
  415MOL0     H55977   5.307   4.359   9.200  1.0956 -1.5019  0.1154
  415MOL0     H55978   5.210   4.347   9.343  1.3830 -0.8105  1.7045
  415MOL0     H55979   5.284   4.118   9.175  3.3356  0.9026 -0.2209
  415MOL0     H55980   5.368   4.160   9.325 -1.0998 -2.8117 -1.0843
  415MOL0     H55981   5.219   3.970   9.341 -1.3622 -1.0064  2.6662
  415MOL0     H55982   5.077   4.073   9.308  0.8037  0.5383 -0.4762
  415MOL0     H55983   5.128   4.209   9.504 -1.3441 -0.5084 -0.1518
  415MOL0     H55984   5.274   4.115   9.532 -0.1060  1.4598 -1.0416
  415MOL0     H55985   5.262   4.049   9.748  2.8812 -0.4865  0.6568
  415MOL0     H55986   5.393   3.857   9.859  0.9500  1.3704 -0.9606
  415MOL0     H55987   5.663   3.470   9.801 -2.2435 -0.8064 -0.8417
  415MOL0     H55988   5.796   3.333   9.931 -1.3830 -0.5656 -1.5327
  415MOL0     H55989   5.735   3.067  10.050  0.4759 -0.5301  0.1539
  415MOL0     H55990   5.885   3.156  10.088 -0.1971  0.1064  0.7470
  415MOL0     H55991   5.744   2.978  10.267  0.2608 -0.0419  0.4116
  415MOL0     H55992   5.886   2.940  10.170  0.8239  0.3824 -1.5210
  415MOL0     H55993   6.023   3.098  10.294  0.4573  0.4803  0.4121
  415MOL0     H55994   5.877   3.180  10.366 -0.4133 -1.0913  1.9477
  415MOL0     H55995   5.993   2.908  10.438 -1.5164 -1.0435 -5.3063
  415MOL0     H55996   5.845   2.971  10.494 -0.3852  0.4165 -1.3366
  415MOL0     H55997   5.962   3.189  10.590  1.8014 -0.4715  2.7621
  415MOL0     H55998   6.114   3.114  10.523 -0.4617  0.1220  0.1901
  415MOL0     H55999   5.938   3.015  10.741 -0.3487 -0.9939 -1.7539
  415MOL0     H56000   6.096   2.947  10.698 -0.3335  0.1856 -1.5854
  415MOL0     H56001   6.041   3.232  10.804 -0.4105 -0.7380 -0.0403
  415MOL0     H56002   6.204   3.169  10.760  0.0810  0.7006 -0.5593
  415MOL0     H56003   6.013   3.036  10.960  0.5910 -2.0042 -0.6104
  415MOL0     H56004   6.184   2.999  10.925  0.0081 -0.5326 -2.7361
  415MOL0     H56005   5.493   3.344  10.235 -2.9138  0.5927 -1.7767
  415MOL0     H56006   5.390   3.536  10.113  2.4079  1.1849  1.9601
  415MOL0     H56007   5.150   3.587   9.623 -0.3825 -0.2025  2.0604
  415MOL0     H56008   5.028   3.764   9.524 -2.1020 -1.0999  3.8027
  415MOL0     H56009   4.200   4.838   8.978  2.3614  0.1941 -0.8661
  415MOL0     H56010   4.008   4.899   9.093  2.1509 -0.8172  0.2373
  415MOL0     H56011   3.787   5.354   9.155 -0.2388 -0.2660 -0.9051
  415MOL0     H56012   3.653   5.485   9.285  1.1448 -0.3703 -2.0203
  415MOL0     H56013   3.386   5.535   9.340 -0.9235  1.3291  0.7139
  415MOL0     H56014   3.507   5.604   9.462  1.4161 -3.0566 -0.5818
  415MOL0     H56015   3.294   5.694   9.526 -5.2452 -0.6903  0.5087
  415MOL0     H56016   3.336   5.571   9.647  1.9110  0.0796 -0.5945
  415MOL0     H56017   3.199   5.405   9.516  2.0979  0.7902  3.1808
  415MOL0     H56018   3.156   5.524   9.395 -1.7372 -0.6793  0.2659
  415MOL0     H56019   2.975   5.494   9.574  0.2892 -1.3518  0.5825
  415MOL0     H56020   3.081   5.558   9.691 -0.1411  1.8189  0.3782
  415MOL0     H56021   3.005   5.917   9.493  0.8030  1.2114  1.3794
  415MOL0     H56022   3.491   5.153   9.493 -0.3339  0.2826 -0.3716
  415MOL0     H56023   3.686   4.890   9.339 -2.1127 -2.5447 -3.2001
  415MOL0     H56024   3.539   4.932   9.428  1.7096 -3.6058  0.2744
  415MOL0     H56025   3.546   4.913   9.256  1.1871 -2.8433  0.5735
  416MOL0     O56026   7.141   3.090   6.466 -0.1204  0.3504  0.0967
  416MOL0     C56027   7.072   3.162   6.392 -0.9713  0.1440  0.5228
  416MOL0     O56028   6.979   3.259   6.436 -0.4199  0.1111  0.2722
  416MOL0     C56029   6.924   3.235   6.557 -0.2441  0.0118  0.3727
  416MOL0     C56030   6.869   3.110   6.584  0.2673  0.8503  0.7613
  416MOL0     C56031   6.800   3.087   6.704 -0.2646  0.5604 -0.6473
  416MOL0     C56032   6.795   3.191   6.798 -0.3546 -0.6714  0.2309
  416MOL0     O56033   6.742   3.179   6.924 -1.0288 -0.2739 -0.5956
  416MOL0     C56034   6.599   3.192   6.923  0.6182 -0.3765 -0.5804
  416MOL0     C56035   6.550   3.168   7.064 -0.0784  0.2926  0.2067
  416MOL0     C56036   6.443   3.281   7.091  0.5118  0.3018 -0.5661
  416MOL0     C56037   6.310   3.255   7.021 -1.0977  0.9271  0.3914
  416MOL0     C56038   6.199   3.361   7.052 -0.5956 -0.4770 -0.7868
  416MOL0     C56039   6.102   3.379   6.940  0.4150  0.1657 -0.2521
  416MOL0     C56040   6.002   3.499   6.969 -0.9989 -0.3435  0.2119
  416MOL0     C56041   6.053   3.633   7.008 -0.3919  0.7387 -0.1767
  416MOL0     N56042   6.143   3.683   6.909  0.2870 -0.0672  0.3684
  416MOL0     C56043   6.099   3.728   6.791 -0.8542 -0.1417  0.5374
  416MOL0     C56044   6.206   3.802   6.745 -0.6606 -0.0139 -0.0449
  416MOL0     C56045   6.208   3.903   6.636  0.0860 -0.3833  0.0364
  416MOL0     C56046   6.309   3.863   6.527 -0.5314 -0.2462 -0.2557
  416MOL0     C56047   6.282   3.925   6.397  0.7994  0.1965  0.8317
  416MOL0     C56048   6.216   3.847   6.284 -1.0351  0.7083  0.1577
  416MOL0     O56049   6.085   3.807   6.326  0.3112  0.1470 -0.7349
  416MOL0     C56050   6.063   3.689   6.388 -0.2427 -0.6574 -0.2376
  416MOL0     C56051   5.928   3.669   6.432 -0.9958 -0.4919 -0.2998
  416MOL0     C56052   5.892   3.565   6.506  0.3512  0.9775  0.0549
  416MOL0     C56053   5.980   3.460   6.545 -0.2615 -0.0337 -0.1503
  416MOL0     C56054   5.939   3.325   6.597  0.6255 -1.1070 -0.0973
  416MOL0     O56055   5.807   3.317   6.630  0.0355  0.9700 -0.2841
  416MOL0     C56056   5.746   3.191   6.666 -0.8217  0.0290  0.8091
  416MOL0     C56057   5.669   3.119   6.567  0.7032 -0.6940  0.1194
  416MOL0     C56058   5.616   3.001   6.605  0.3134  1.7455 -0.3434
  416MOL0     C56059   5.613   2.949   6.737 -0.6386  0.7659 -0.5767
  416MOL0     O56060   5.545   2.837   6.762 -0.6888  0.2286  0.3900
  416MOL0     C56061   5.530   2.778   6.892 -0.4197 -0.3076 -0.9557
  416MOL0     C56062   5.407   2.689   6.904 -0.0735  0.0490 -0.5488
  416MOL0     C56063   5.409   2.624   7.046 -0.3384 -0.2090  0.1715
  416MOL0     C56064   5.276   2.543   7.044  0.6519 -0.5975 -0.2133
  416MOL0     C56065   5.244   2.461   7.169  0.0286  0.1432  0.4446
  416MOL0     C56066   5.097   2.406   7.163  0.8107  0.1463  0.4022
  416MOL0     C56067   5.068   2.323   7.285 -0.3109 -0.3351 -1.0269
  416MOL0     C56068   5.085   2.384   7.429  0.8271  1.0183 -0.3024
  416MOL0    Cl56069   5.026   2.278   7.562  0.1535 -0.8326  0.0555
  416MOL0     C56070   5.697   3.005   6.824  0.1290  0.0017  0.1209
  416MOL0     C56071   5.767   3.120   6.792  1.1427  0.5028 -0.3540
  416MOL0     O56072   6.024   3.242   6.623 -1.1896  0.0380  0.0592
  416MOL0     C56073   6.112   3.489   6.503  0.1968 -0.7880 -0.3467
  416MOL0     C56074   6.154   3.591   6.419  0.6554 -0.1395  0.0442
  416MOL0     N56075   6.303   3.805   6.847 -0.0228 -0.4837 -0.2293
  416MOL0     N56076   6.271   3.721   6.940  0.2137 -0.7053 -0.2160
  416MOL0     C56077   6.838   3.322   6.763 -0.4401 -0.5661 -0.9390
  416MOL0     C56078   6.896   3.336   6.644 -0.3508 -0.3886  0.0787
  416MOL0     C56079   7.085   3.137   6.243 -0.8202  1.0489 -0.8150
  416MOL0     C56080   7.219   3.126   6.187  0.3779  0.1506 -0.5191
  416MOL0     C56081   7.237   3.110   6.054 -0.1274  0.3690 -0.4613
  416MOL0     C56082   7.128   3.104   5.968 -1.5964  0.1162 -0.0457
  416MOL0     O56083   7.165   3.102   5.835 -0.1244  0.1351 -0.5982
  416MOL0     C56084   7.056   3.118   5.738 -0.1030  0.4730  0.4357
  416MOL0     C56085   7.138   3.122   5.607 -0.9944  0.0535  1.0196
  416MOL0     C56086   7.055   3.177   5.490  0.1498  0.0599 -0.1882
  416MOL0     C56087   6.947   3.083   5.437  0.4175 -0.6070 -0.7250
  416MOL0     C56088   6.831   3.075   5.512  0.0298  0.4960  0.7765
  416MOL0     C56089   6.746   3.061   5.591 -0.5122  0.9888  0.3218
  416MOL0     C56090   7.001   3.104   6.020  0.0370 -1.2165 -0.4468
  416MOL0     C56091   6.974   3.122   6.160 -0.4849 -1.3833  0.5593
  416MOL0     C56092   6.830   3.141   6.213  1.0700  0.0349  0.0222
  416MOL0     H56093   6.877   3.027   6.514  0.0307  1.3765  0.0962
  416MOL0     H56094   6.768   2.985   6.721 -1.4539  1.3563  2.7193
  416MOL0     H56095   6.583   3.297   6.896 -1.8041 -1.2548 -3.1094
  416MOL0     H56096   6.545   3.132   6.848  2.1439 -2.5351 -0.0549
  416MOL0     H56097   6.623   3.182   7.144 -1.1951  0.7065  1.1719
  416MOL0     H56098   6.510   3.066   7.074  0.5295  0.1065  0.8031
  416MOL0     H56099   6.483   3.379   7.064  1.1815  0.7756  1.8752
  416MOL0     H56100   6.424   3.285   7.199  1.9291 -2.1453 -0.1523
  416MOL0     H56101   6.329   3.245   6.913 -3.4259  1.3444 -0.1114
  416MOL0     H56102   6.267   3.161   7.057  1.2977  0.8599  3.4836
  416MOL0     H56103   6.151   3.344   7.149 -1.5013 -0.0729 -1.1576
  416MOL0     H56104   6.263   3.450   7.053 -0.0378 -0.7726  2.6283
  416MOL0     H56105   6.160   3.396   6.848 -2.5368 -0.6204 -2.4138
  416MOL0     H56106   6.035   3.293   6.934 -0.2525  0.7500 -1.9081
  416MOL0     H56107   5.931   3.474   7.049  1.3949  0.3678  2.7004
  416MOL0     H56108   5.941   3.514   6.880  1.5486  3.3183 -1.1328
  416MOL0     H56109   5.973   3.708   7.005 -0.5362  0.5628 -1.4143
  416MOL0     H56110   6.109   3.633   7.102  1.4623 -0.4263 -1.2430
  416MOL0     H56111   6.005   3.701   6.745 -1.2207 -1.0144  1.7289
  416MOL0     H56112   6.108   3.921   6.597  0.4762 -2.9474 -2.4518
  416MOL0     H56113   6.239   3.999   6.679 -0.3650 -1.7618  3.8325
  416MOL0     H56114   6.411   3.893   6.549 -0.4264  0.3212 -1.4597
  416MOL0     H56115   6.305   3.754   6.523  1.9360 -0.3870 -0.1322
  416MOL0     H56116   6.379   3.947   6.350  0.5285 -1.3386 -0.5358
  416MOL0     H56117   6.224   4.016   6.415  1.3670  0.8463 -0.4631
  416MOL0     H56118   6.262   3.760   6.236 -2.7441 -1.0127  1.4511
  416MOL0     H56119   6.199   3.918   6.203  1.1229 -2.9590 -3.9047
  416MOL0     H56120   5.859   3.743   6.393  0.4112 -0.0457 -2.0814
  416MOL0     H56121   5.785   3.548   6.518  0.4178  0.1797 -0.4621
  416MOL0     H56122   5.671   3.147   6.462 -0.6029  1.6231  0.6482
  416MOL0     H56123   5.569   2.930   6.538  3.0790  2.2551 -3.0350
  416MOL0     H56124   5.622   2.720   6.908  0.4576  0.1421 -3.8725
  416MOL0     H56125   5.532   2.852   6.973 -0.5188 -1.3716  0.0497
  416MOL0     H56126   5.312   2.741   6.891  0.2584  0.8378  0.0670
  416MOL0     H56127   5.419   2.607   6.834 -0.6033  0.1965 -0.8144
  416MOL0     H56128   5.496   2.557   7.051 -1.2926 -1.3946  2.4227
  416MOL0     H56129   5.423   2.696   7.128  1.8964 -0.0553 -0.2725
  416MOL0     H56130   5.279   2.471   6.962 -0.2132  0.6440 -1.3812
  416MOL0     H56131   5.194   2.611   7.020  0.6143 -0.7189 -0.4289
  416MOL0     H56132   5.260   2.535   7.248 -1.6074  1.2362 -0.1862
  416MOL0     H56133   5.304   2.370   7.173 -1.8374 -1.1762 -0.3464
  416MOL0     H56134   5.021   2.486   7.168  1.3474  0.9665 -2.6988
  416MOL0     H56135   5.074   2.343   7.077  2.1553  0.3750 -0.1391
  416MOL0     H56136   5.137   2.240   7.301 -0.4453 -1.0683 -3.7248
  416MOL0     H56137   4.964   2.290   7.272 -0.2215 -1.4221  0.6924
  416MOL0     H56138   5.191   2.396   7.450  1.5286 -4.3416  0.6555
  416MOL0     H56139   5.020   2.471   7.416 -1.1538 -0.4840 -1.0180
  416MOL0     H56140   5.706   2.962   6.924  0.4985 -4.3393 -1.5584
  416MOL0     H56141   5.819   3.170   6.872  2.5513 -0.2668 -0.7693
  416MOL0     H56142   6.180   3.409   6.531  2.1454  0.6748 -0.6904
  416MOL0     H56143   6.260   3.592   6.395  0.8053 -0.0686  0.6873
  416MOL0     H56144   6.836   3.394   6.844 -3.0511 -0.2428 -1.1844
  416MOL0     H56145   6.924   3.435   6.612 -1.4196 -0.8287 -2.4587
  416MOL0     H56146   7.310   3.133   6.246  0.4734 -2.0105 -0.3219
  416MOL0     H56147   7.333   3.105   6.004  0.1763 -0.8799  0.2217
  416MOL0     H56148   7.010   3.214   5.761  0.7353  1.4031 -1.4799
  416MOL0     H56149   6.976   3.043   5.736  0.4061 -0.0634 -0.5325
  416MOL0     H56150   7.180   3.024   5.586  0.3512  0.4953  1.5655
  416MOL0     H56151   7.215   3.199   5.615 -2.1797  1.5446 -0.9054
  416MOL0     H56152   7.122   3.194   5.404 -1.4477  1.8934 -1.1360
  416MOL0     H56153   7.025   3.276   5.524  4.2712  1.4707 -0.0775
  416MOL0     H56154   6.925   3.125   5.339  2.0474  1.3449 -0.3159
  416MOL0     H56155   6.995   2.985   5.421 -0.5759 -1.3200  0.4541
  416MOL0     H56156   6.673   3.039   5.666 -1.8403  0.2714 -1.1340
  416MOL0     H56157   6.909   3.107   5.961 -0.4513  2.1546  0.3040
  416MOL0     H56158   6.809   3.247   6.228  2.0144  0.1238  0.8644
  416MOL0     H56159   6.755   3.111   6.140 -0.0688  2.4281  0.1169
  416MOL0     H56160   6.819   3.089   6.308 -1.8037  0.7984  0.1822
  417MOL0     O56161   5.860   9.260   3.674 -0.2616 -0.1344 -0.2203
  417MOL0     C56162   5.863   9.159   3.607  0.5287  0.1093  0.4380
  417MOL0     O56163   5.750   9.084   3.588 -0.2661 -0.0220  0.3888
  417MOL0     C56164   5.641   9.122   3.655 -0.6417  0.0113  0.0754
  417MOL0     C56165   5.608   9.043   3.762 -0.3150  0.5025 -0.3739
  417MOL0     C56166   5.490   9.072   3.841 -0.3571 -0.2856  0.2766
  417MOL0     C56167   5.407   9.190   3.806  0.1237  1.0383 -0.4570
  417MOL0     O56168   5.297   9.221   3.874 -0.0859 -1.0335  0.0432
  417MOL0     C56169   5.296   9.352   3.943  0.9923 -0.3928 -0.6018
  417MOL0     C56170   5.167   9.405   4.006  0.3513  0.3537 -0.3690
  417MOL0     C56171   5.043   9.354   3.939 -0.3842 -0.1956  0.2651
  417MOL0     C56172   4.914   9.403   4.011  0.0961  0.1402 -0.5381
  417MOL0     C56173   4.795   9.340   3.946 -1.0935 -0.4285  0.5217
  417MOL0     C56174   4.673   9.399   4.017 -0.0180  0.3221 -1.2295
  417MOL0     C56175   4.542   9.331   3.953  0.2566 -0.2998 -0.4021
  417MOL0     C56176   4.407   9.395   4.017 -0.4776 -0.1515  0.7276
  417MOL0     N56177   4.396   9.538   3.988  0.2432 -0.3707  0.1189
  417MOL0     C56178   4.365   9.597   3.875 -0.6124  0.1849 -0.1992
  417MOL0     C56179   4.361   9.732   3.906  0.1392  0.7839  0.0428
  417MOL0     C56180   4.328   9.843   3.821 -1.8696 -0.1391  0.4750
  417MOL0     C56181   4.179   9.897   3.815  0.2475  0.7772 -0.2632
  417MOL0     C56182   4.167  10.002   3.699 -0.1686  0.5340 -0.1807
  417MOL0     C56183   4.061  10.103   3.738 -0.5156 -0.1157  0.4399
  417MOL0     O56184   4.026  10.173   3.619  0.0967  0.0515  0.3431
  417MOL0     C56185   3.962  10.289   3.624  0.3105 -0.2116 -0.0612
  417MOL0     C56186   3.940  10.355   3.504 -0.4327 -0.0596  0.3759
  417MOL0     C56187   3.867  10.474   3.489 -0.0212 -0.0643  0.3611
  417MOL0     C56188   3.835  10.533   3.606  0.2186 -0.6625 -0.8330
  417MOL0     C56189   3.757  10.665   3.615 -0.5241  0.4376  0.1624
  417MOL0     O56190   3.660  10.678   3.715  0.3764  0.1630  1.1161
  417MOL0     C56191   3.605  10.802   3.743  0.3015 -0.0395  0.6593
  417MOL0     C56192   3.658  10.887   3.845 -0.2967 -0.7809  0.2479
  417MOL0     C56193   3.610  11.018   3.854 -0.7116  0.6146  0.7190
  417MOL0     C56194   3.521  11.060   3.753  0.6852 -0.1394  0.1544
  417MOL0     O56195   3.452  11.181   3.760  0.2267  0.0346  0.3695
  417MOL0     C56196   3.522  11.291   3.817  0.4717 -0.7498 -1.2577
  417MOL0     C56197   3.638  11.352   3.737  0.5192  0.7535 -0.3267
  417MOL0     C56198   3.612  11.353   3.583 -0.3386  0.8472  1.0563
  417MOL0     C56199   3.674  11.469   3.509  0.6530  0.8410 -0.8429
  417MOL0     C56200   3.626  11.468   3.360 -1.0086 -0.5225  0.4307
  417MOL0     C56201   3.716  11.553   3.263  0.0014 -0.1499  0.2035
  417MOL0     C56202   3.749  11.486   3.126 -0.5486  0.5351  0.6217
  417MOL0     C56203   3.828  11.367   3.131 -0.2099  0.4395  0.3644
  417MOL0    Cl56204   3.994  11.416   3.168 -0.2583  0.3580 -0.0460
  417MOL0     C56205   3.469  10.974   3.653  0.3886 -1.2288 -0.0021
  417MOL0     C56206   3.506  10.842   3.652 -0.1900 -0.2447 -0.2747
  417MOL0     O56207   3.790  10.759   3.543 -0.5710  0.6826  0.2094
  417MOL0     C56208   3.858  10.467   3.731  0.8861  0.9570  0.6369
  417MOL0     C56209   3.931  10.352   3.749  0.1203  0.6724  0.2960
  417MOL0     N56210   4.403   9.747   4.023  0.2618 -0.1164  0.1537
  417MOL0     N56211   4.428   9.640   4.070 -1.1442 -0.9843  0.0631
  417MOL0     C56212   5.455   9.271   3.701  0.6832  0.5427  0.0876
  417MOL0     C56213   5.561   9.226   3.619 -1.3386  0.0936  0.9388
  417MOL0     C56214   5.996   9.137   3.541  0.1972 -0.6139  0.2462
  417MOL0     C56215   6.104   9.199   3.603 -0.4964  0.4679 -0.5054
  417MOL0     C56216   6.237   9.172   3.566 -0.4753  0.6820  0.1434
  417MOL0     C56217   6.254   9.095   3.451 -1.3616 -0.2882  0.4556
  417MOL0     O56218   6.380   9.047   3.399  0.2359 -0.1908  0.5469
  417MOL0     C56219   6.496   9.127   3.432 -0.2593 -0.1854  0.2097
  417MOL0     C56220   6.486   9.264   3.358  0.3729 -0.7071  0.4170
  417MOL0     C56221   6.619   9.309   3.301  0.9547 -0.6736 -0.8965
  417MOL0     C56222   6.615   9.442   3.232  0.5504 -0.8098 -0.6808
  417MOL0     C56223   6.571   9.554   3.322 -0.5708  0.6073  0.2119
  417MOL0     C56224   6.529   9.627   3.412 -0.4557 -1.0574  0.7636
  417MOL0     C56225   6.148   9.029   3.390  0.3844 -0.4431  0.2533
  417MOL0     C56226   6.019   9.047   3.436 -0.1431 -1.7345  0.0312
  417MOL0     C56227   5.905   8.970   3.372 -0.4271  0.4712  0.0483
  417MOL0     H56228   5.670   8.962   3.800 -0.2197  0.5663 -0.3957
  417MOL0     H56229   5.464   9.012   3.927  0.5286  0.5038  1.1204
  417MOL0     H56230   5.379   9.365   4.013  0.4082  0.4847 -0.0394
  417MOL0     H56231   5.304   9.423   3.859 -0.1224 -1.0206 -1.2559
  417MOL0     H56232   5.180   9.513   4.014  0.1168  0.2283  3.7646
  417MOL0     H56233   5.165   9.385   4.113  0.0525  2.7655  0.1210
  417MOL0     H56234   5.051   9.246   3.923 -1.5250 -0.3471  0.6249
  417MOL0     H56235   5.038   9.400   3.840  2.6981  0.7721  0.4343
  417MOL0     H56236   4.918   9.360   4.112  1.0220  0.5154 -0.3972
  417MOL0     H56237   4.912   9.512   4.023  3.5405  0.4602 -1.5479
  417MOL0     H56238   4.794   9.332   3.837  0.7372 -3.1021  0.6111
  417MOL0     H56239   4.806   9.232   3.961 -0.1257 -0.3580  0.3527
  417MOL0     H56240   4.679   9.365   4.121 -2.8474 -3.6096 -2.1114
  417MOL0     H56241   4.664   9.507   4.013  0.1442  0.4514  0.8938
  417MOL0     H56242   4.552   9.222   3.961  2.7546 -0.2202 -1.7472
  417MOL0     H56243   4.534   9.357   3.847  2.8547  0.8668 -0.3689
  417MOL0     H56244   4.319   9.353   3.966  0.3719 -0.6875 -0.3285
  417MOL0     H56245   4.409   9.386   4.126 -0.1599  0.6505  0.7913
  417MOL0     H56246   4.337   9.553   3.780 -3.0320  4.2035 -1.6175
  417MOL0     H56247   4.391   9.919   3.869  1.1306 -2.4629  0.4701
  417MOL0     H56248   4.371   9.832   3.721  0.4399  0.4645  1.3349
  417MOL0     H56249   4.121   9.806   3.793  2.5054 -1.0681  0.9200
  417MOL0     H56250   4.147   9.939   3.910 -2.1791 -1.6506  0.1054
  417MOL0     H56251   4.139   9.953   3.606 -0.9009  3.1416 -1.4321
  417MOL0     H56252   4.268  10.045   3.704  0.8097 -1.5777 -0.5364
  417MOL0     H56253   4.110  10.186   3.790 -0.2504  0.9918 -1.4830
  417MOL0     H56254   3.975  10.057   3.788 -1.0729 -0.8451 -1.1285
  417MOL0     H56255   3.972  10.297   3.419 -0.3878  0.6725 -0.1165
  417MOL0     H56256   3.822  10.508   3.396 -1.3058  3.9702  2.2248
  417MOL0     H56257   3.741  10.850   3.904  2.6905  1.6936 -2.0381
  417MOL0     H56258   3.657  11.092   3.918 -0.0746  1.4886 -0.7080
  417MOL0     H56259   3.458  11.380   3.818  3.0352  1.2540  1.4512
  417MOL0     H56260   3.545  11.277   3.923  0.0618  2.4909 -0.6208
  417MOL0     H56261   3.639  11.456   3.772 -0.9488  0.5796  0.3385
  417MOL0     H56262   3.737  11.309   3.755  0.4517 -1.7097 -4.6417
  417MOL0     H56263   3.663  11.263   3.547 -2.0427  0.6102 -0.9225
  417MOL0     H56264   3.508  11.356   3.548  1.3563  0.4079 -5.2044
  417MOL0     H56265   3.780  11.445   3.504  0.9416  2.1690 -1.8139
  417MOL0     H56266   3.685  11.558   3.572  5.0033 -1.7923  2.6082
  417MOL0     H56267   3.521  11.495   3.348 -1.6972 -3.8255 -2.6769
  417MOL0     H56268   3.624  11.362   3.332  3.8604 -0.3677 -1.5538
  417MOL0     H56269   3.661  11.647   3.252  2.4657  1.7845  2.8669
  417MOL0     H56270   3.812  11.575   3.313  3.0844 -2.7222 -3.9464
  417MOL0     H56271   3.795  11.561   3.062 -0.9418  0.2653  0.0144
  417MOL0     H56272   3.651  11.458   3.087  0.2645 -1.1729 -0.2954
  417MOL0     H56273   3.792  11.296   3.206 -2.2532  0.3940 -0.5862
  417MOL0     H56274   3.827  11.309   3.038  0.1527 -0.8644  1.1422
  417MOL0     H56275   3.387  11.009   3.591 -1.2165  2.6847  3.7874
  417MOL0     H56276   3.465  10.767   3.585  1.8706 -1.3344 -0.3694
  417MOL0     H56277   3.823  10.513   3.823 -2.2371 -2.4690  1.3705
  417MOL0     H56278   3.944  10.303   3.845  0.6834  0.9766  0.3813
  417MOL0     H56279   5.396   9.356   3.670  0.0030  1.1443  2.8203
  417MOL0     H56280   5.582   9.275   3.525 -0.7815 -0.6235  0.6756
  417MOL0     H56281   6.107   9.257   3.695  3.0628 -0.5479  0.1559
  417MOL0     H56282   6.308   9.236   3.617 -1.6352  4.1949 -2.2838
  417MOL0     H56283   6.584   9.079   3.389 -1.8269 -3.1114  0.0522
  417MOL0     H56284   6.517   9.136   3.540 -0.0884 -0.9702  0.2482
  417MOL0     H56285   6.447   9.338   3.428  1.1518  0.3455 -0.2377
  417MOL0     H56286   6.419   9.253   3.272  0.6501  2.5822 -0.3661
  417MOL0     H56287   6.671   9.230   3.246  1.3589 -1.7444  0.8970
  417MOL0     H56288   6.679   9.322   3.392 -2.0526 -2.3504  1.5397
  417MOL0     H56289   6.706   9.481   3.184  0.9808  3.8879  3.1424
  417MOL0     H56290   6.532   9.436   3.161 -1.1774  0.1868  1.1424
  417MOL0     H56291   6.500   9.687   3.496  0.8771 -2.0493  1.9706
  417MOL0     H56292   6.157   8.987   3.290  2.7007  3.2432 -1.3077
  417MOL0     H56293   5.815   9.028   3.351 -0.8496  0.1464  0.8871
  417MOL0     H56294   5.937   8.918   3.281  0.8633 -1.3849  1.4753
  417MOL0     H56295   5.872   8.884   3.432  1.4368 -1.9116 -2.1003
  418MOL0     O56296  10.155   7.848   5.420 -0.7433  0.3899 -0.1391
  418MOL0     C56297  10.152   7.728   5.455 -1.1985  0.8704  1.1071
  418MOL0     O56298  10.169   7.622   5.377 -0.5116 -0.1154  0.7324
  418MOL0     C56299  10.218   7.643   5.247 -0.0491  0.3910  0.5328
  418MOL0     C56300  10.174   7.741   5.159 -0.4490 -1.0953  0.1785
  418MOL0     C56301  10.218   7.737   5.031 -0.5036  0.2678  0.5026
  418MOL0     C56302  10.298   7.642   4.983 -0.5823  0.7098 -0.3303
  418MOL0     O56303  10.317   7.655   4.847 -0.2006 -0.4025 -0.2057
  418MOL0     C56304  10.453   7.664   4.813  0.0887  0.0800  0.6448
  418MOL0     C56305  10.461   7.658   4.661  0.0552 -0.0838  0.7169
  418MOL0     C56306  10.436   7.513   4.596  0.2166 -0.1494  0.7071
  418MOL0     C56307  10.484   7.501   4.448  0.5487 -0.0480 -0.3310
  418MOL0     C56308  10.610   7.415   4.449  0.2481 -0.2434 -0.2076
  418MOL0     C56309  10.659   7.348   4.314 -0.7061  0.4236 -0.2392
  418MOL0     C56310  10.585   7.214   4.289 -0.1782 -0.3770 -0.3970
  418MOL0     C56311  10.613   7.155   4.149  0.4378  0.1461 -0.3405
  418MOL0     N56312  10.609   7.009   4.127 -0.9002 -0.4614 -0.5522
  418MOL0     C56313  10.498   6.935   4.132  0.0235 -0.3530 -0.3163
  418MOL0     C56314  10.536   6.812   4.101 -0.0345 -0.6939 -0.2814
  418MOL0     C56315  10.441   6.705   4.066  0.4054  0.6791  0.5515
  418MOL0     C56316  10.295   6.731   4.130 -0.5629 -0.2501 -0.8594
  418MOL0     C56317  10.201   6.613   4.139  0.4093  0.4968  0.0772
  418MOL0     C56318  10.181   6.549   4.001  0.9279 -0.1202 -0.0632
  418MOL0     O56319  10.087   6.615   3.916 -0.7803 -0.8302 -0.0913
  418MOL0     C56320  10.111   6.623   3.780 -0.2533  0.2140 -0.0870
  418MOL0     C56321  10.021   6.705   3.720 -0.2419 -1.7377 -0.4190
  418MOL0     C56322  10.012   6.724   3.584  1.0182  0.2470 -0.0393
  418MOL0     C56323  10.109   6.667   3.499 -0.1069 -0.4091  0.1359
  418MOL0     C56324  10.094   6.712   3.357 -0.2509  1.2827 -0.3463
  418MOL0     O56325   9.986   6.784   3.308 -0.8154  0.2401  0.7292
  418MOL0     C56326   9.985   6.852   3.184 -1.0641  0.3904  0.0386
  418MOL0     C56327  10.090   6.936   3.136 -0.1465  1.0243  0.1060
  418MOL0     C56328  10.057   7.037   3.036 -0.4984 -0.2973 -0.3621
  418MOL0     C56329   9.932   7.033   2.977 -0.2692 -0.0386  1.1369
  418MOL0     O56330   9.898   7.106   2.861  0.1748  0.0849 -0.2719
  418MOL0     C56331   9.952   7.244   2.844 -0.7956 -0.9925 -0.2977
  418MOL0     C56332   9.953   7.274   2.696 -1.2110  0.0758 -0.5732
  418MOL0     C56333   9.815   7.325   2.649 -0.2595  0.8932  0.4554
  418MOL0     C56334   9.820   7.322   2.494  0.1549 -0.1468 -0.3455
  418MOL0     C56335   9.699   7.380   2.420  0.1327  0.3672 -0.3030
  418MOL0     C56336   9.558   7.337   2.476  0.3245 -0.9519 -0.3049
  418MOL0     C56337   9.441   7.408   2.404  0.3010 -0.0350 -1.0627
  418MOL0     C56338   9.305   7.373   2.458  0.7858 -0.7605 -0.1487
  418MOL0    Cl56339   9.298   7.377   2.636  0.2482  0.2435 -0.1085
  418MOL0     C56340   9.829   6.949   3.020 -0.0692  0.1462 -0.5779
  418MOL0     C56341   9.856   6.856   3.122 -1.1509  0.6197 -0.7997
  418MOL0     O56342  10.193   6.688   3.295  0.1074  0.4076 -0.5553
  418MOL0     C56343  10.205   6.587   3.557 -0.0735 -0.2893  1.4864
  418MOL0     C56344  10.213   6.563   3.701  0.0275  0.5111  0.2249
  418MOL0     N56345  10.673   6.807   4.088  0.5511 -0.0564 -0.2233
  418MOL0     N56346  10.717   6.929   4.113 -0.6931 -0.3380  0.2946
  418MOL0     C56347  10.356   7.551   5.071 -0.5507  0.9374  0.5568
  418MOL0     C56348  10.309   7.548   5.197  0.4116  0.1066  0.4442
  418MOL0     C56349  10.115   7.694   5.592  1.5524  0.1279 -0.0485
  418MOL0     C56350  10.025   7.584   5.611 -0.0021 -0.8172  0.0741
  418MOL0     C56351   9.971   7.556   5.736 -0.8167 -0.5051 -0.6203
  418MOL0     C56352  10.001   7.635   5.851  0.5657 -0.4429  0.2423
  418MOL0     O56353   9.919   7.606   5.962 -0.8380 -0.3019  0.5573
  418MOL0     C56354   9.945   7.686   6.071 -0.2735  0.1428 -0.3135
  418MOL0     C56355  10.032   7.609   6.176 -0.9065  0.1193 -0.5981
  418MOL0     C56356  10.184   7.597   6.156 -0.0827  0.1545  0.2202
  418MOL0     C56357  10.269   7.719   6.199 -0.6541 -0.4124 -0.1459
  418MOL0     C56358  10.403   7.707   6.142  0.1714 -0.7632  0.1429
  418MOL0     C56359  10.518   7.699   6.116  0.1792 -0.2819 -0.7119
  418MOL0     C56360  10.087   7.746   5.829 -0.5262  0.4813  0.9139
  418MOL0     C56361  10.148   7.773   5.705  1.0219  0.1021 -0.3783
  418MOL0     C56362  10.246   7.877   5.705 -0.4540  0.0392  0.8267
  418MOL0     H56363  10.109   7.824   5.183  2.8428  1.8852 -0.3814
  418MOL0     H56364  10.177   7.810   4.962 -1.2477  1.9453  2.6141
  418MOL0     H56365  10.498   7.760   4.837 -2.3666  1.5868 -0.4320
  418MOL0     H56366  10.500   7.579   4.864  1.5311  0.9550  0.8126
  418MOL0     H56367  10.558   7.701   4.635 -0.7331 -0.8120 -4.7827
  418MOL0     H56368  10.407   7.737   4.607  1.4214  0.5151  0.1879
  418MOL0     H56369  10.328   7.495   4.598 -0.5270  3.4241 -0.0625
  418MOL0     H56370  10.485   7.446   4.667  1.7714 -0.9863 -1.0659
  418MOL0     H56371  10.406   7.445   4.396  0.0112 -1.4224  1.8265
  418MOL0     H56372  10.498   7.600   4.404 -2.7486  1.4590  1.6585
  418MOL0     H56373  10.690   7.480   4.484 -0.9658  1.0031  0.3263
  418MOL0     H56374  10.603   7.340   4.528  0.7094  0.8469  0.8891
  418MOL0     H56375  10.646   7.425   4.238  0.5994  0.4346 -0.4698
  418MOL0     H56376  10.766   7.325   4.305 -0.5530  0.6232  0.9157
  418MOL0     H56377  10.482   7.224   4.324  0.2399  4.9217  0.1445
  418MOL0     H56378  10.642   7.140   4.346  0.5091 -0.7418 -1.5431
  418MOL0     H56379  10.562   7.206   4.067  1.0693  0.6408 -0.4387
  418MOL0     H56380  10.719   7.180   4.141  0.4917 -0.6869 -3.1272
  418MOL0     H56381  10.407   6.988   4.159  1.0316  2.1284 -1.4647
  418MOL0     H56382  10.427   6.714   3.958  0.0171 -0.4492  0.4923
  418MOL0     H56383  10.478   6.603   4.085 -1.3044 -0.1856 -0.5174
  418MOL0     H56384  10.309   6.780   4.227 -2.5744 -1.8248  0.3266
  418MOL0     H56385  10.257   6.809   4.063 -0.7979 -0.9585 -1.5698
  418MOL0     H56386  10.102   6.627   4.183 -0.0051 -1.6057 -0.0991
  418MOL0     H56387  10.245   6.535   4.201 -2.4853  0.4263  2.2631
  418MOL0     H56388  10.139   6.452   4.031 -1.0137  0.7292  0.1186
  418MOL0     H56389  10.275   6.539   3.946  2.5134 -1.6603  2.6914
  418MOL0     H56390   9.958   6.770   3.780 -0.3909 -0.3950 -1.9820
  418MOL0     H56391   9.929   6.776   3.538 -2.2541 -4.6285 -0.4563
  418MOL0     H56392  10.186   6.937   3.186  2.4917 -3.7417 -3.8913
  418MOL0     H56393  10.133   7.112   3.014  0.6661 -1.6455 -1.1651
  418MOL0     H56394   9.891   7.318   2.897  0.3010 -0.7832  0.7464
  418MOL0     H56395  10.055   7.248   2.882 -0.5745 -0.7592 -0.9126
  418MOL0     H56396  10.027   7.351   2.673 -1.2216 -0.2961 -1.9603
  418MOL0     H56397   9.976   7.183   2.639 -5.7519 -2.1204  0.6270
  418MOL0     H56398   9.737   7.260   2.691  2.9946 -1.3284  3.6983
  418MOL0     H56399   9.814   7.429   2.682  0.4540  0.1230  3.1654
  418MOL0     H56400   9.836   7.216   2.475  4.3366  0.1200  0.7522
  418MOL0     H56401   9.913   7.369   2.460  1.1195 -2.4392 -1.0133
  418MOL0     H56402   9.693   7.346   2.317 -3.2650 -0.2297 -0.0446
  418MOL0     H56403   9.696   7.490   2.422 -0.9783  0.3561 -0.6285
  418MOL0     H56404   9.543   7.229   2.467  3.3122 -1.7766  2.7605
  418MOL0     H56405   9.556   7.364   2.582 -0.2000  0.1688 -0.5874
  418MOL0     H56406   9.445   7.386   2.297 -3.4219 -1.0540 -1.1123
  418MOL0     H56407   9.441   7.516   2.420  1.7613 -0.3863  2.0773
  418MOL0     H56408   9.228   7.441   2.423  0.5559 -0.4994  0.8346
  418MOL0     H56409   9.276   7.270   2.433  2.4635 -2.6450  4.5538
  418MOL0     H56410   9.745   6.953   2.951 -1.4323  1.2175  1.0596
  418MOL0     H56411   9.775   6.792   3.156 -0.6001 -0.0799 -0.7662
  418MOL0     H56412  10.278   6.533   3.497 -1.4432 -0.9587  0.3496
  418MOL0     H56413  10.289   6.496   3.739  0.7286  0.5262 -1.0909
  418MOL0     H56414  10.439   7.491   5.035  0.6802  0.9868  3.0495
  418MOL0     H56415  10.366   7.469   5.245  1.6072  0.2335 -0.7063
  418MOL0     H56416   9.994   7.533   5.521  1.0636  0.0418 -0.8079
  418MOL0     H56417   9.904   7.474   5.758 -1.1060  0.0637  0.6945
  418MOL0     H56418   9.848   7.709   6.115  0.7569  1.9079  1.2006
  418MOL0     H56419   9.999   7.777   6.044  6.0276 -2.8655  0.3278
  418MOL0     H56420   9.995   7.506   6.179  0.5796 -0.4556 -1.1297
  418MOL0     H56421  10.028   7.658   6.274 -0.8320 -0.1986 -0.4331
  418MOL0     H56422  10.205   7.570   6.052 -0.1379  2.9602 -0.5854
  418MOL0     H56423  10.227   7.521   6.222  1.0529  2.7111  2.6430
  418MOL0     H56424  10.225   7.813   6.165 -0.5754  0.0216  0.9178
  418MOL0     H56425  10.279   7.717   6.308  0.3793  1.5210 -0.1685
  418MOL0     H56426  10.620   7.672   6.097  0.0077  0.1131 -2.3786
  418MOL0     H56427  10.127   7.811   5.905 -1.5025  0.3282  1.5800
  418MOL0     H56428  10.289   7.909   5.609 -0.6275 -2.6591 -0.2489
  418MOL0     H56429  10.207   7.968   5.751 -2.1687 -0.2588  0.0756
  418MOL0     H56430  10.331   7.845   5.765 -0.1542 -0.4076  0.1761
  419MOL0     O56431   4.076  10.336   8.698  0.7915 -0.3919  0.5181
  419MOL0     C56432   4.183  10.350   8.757  1.0734  0.6539  1.0512
  419MOL0     O56433   4.299  10.292   8.726 -1.1669  0.2423  0.2412
  419MOL0     C56434   4.306  10.182   8.645  0.6164  0.0182  0.3393
  419MOL0     C56435   4.207  10.093   8.602 -1.2752 -0.1774 -0.1439
  419MOL0     C56436   4.235   9.990   8.516 -0.2233  0.1486 -0.0855
  419MOL0     C56437   4.364   9.958   8.472 -0.9008  0.2587 -0.5406
  419MOL0     O56438   4.395   9.853   8.385 -0.2433  0.3277  0.8030
  419MOL0     C56439   4.367   9.722   8.434 -0.4020 -0.1688  0.3218
  419MOL0     C56440   4.376   9.596   8.348  0.3090  0.8625 -0.4819
  419MOL0     C56441   4.388   9.468   8.435 -0.2369 -0.1872 -0.6931
  419MOL0     C56442   4.355   9.339   8.363  0.2866 -0.4360 -0.7681
  419MOL0     C56443   4.407   9.216   8.444  0.3411  0.4707  0.2610
  419MOL0     C56444   4.361   9.069   8.414  0.6385 -0.4249  0.1533
  419MOL0     C56445   4.421   8.968   8.522 -0.4337 -0.7824 -0.1629
  419MOL0     C56446   4.570   8.970   8.544 -0.1033 -0.7635  0.3548
  419MOL0     N56447   4.638   8.943   8.416 -0.0469  0.6035 -0.4681
  419MOL0     C56448   4.605   8.847   8.325 -0.6800 -0.0170 -0.4253
  419MOL0     C56449   4.655   8.893   8.204 -0.7968  0.5320 -0.4480
  419MOL0     C56450   4.637   8.808   8.087 -0.4665 -0.2102  0.5063
  419MOL0     C56451   4.491   8.823   8.042 -0.3529 -0.8067 -0.1185
  419MOL0     C56452   4.460   8.939   7.937 -0.1686  0.2785  0.4545
  419MOL0     C56453   4.496   8.895   7.796 -0.1937  0.1862  0.2302
  419MOL0     O56454   4.455   8.994   7.701 -0.2794 -0.4186 -0.3709
  419MOL0     C56455   4.505   8.960   7.582  0.2860  0.1479  0.0411
  419MOL0     C56456   4.644   8.937   7.563  0.3761 -0.2933 -1.2123
  419MOL0     C56457   4.684   8.891   7.433  0.5224 -0.8671  0.1660
  419MOL0     C56458   4.594   8.893   7.320 -1.3437 -0.0523  0.5726
  419MOL0     C56459   4.654   8.862   7.190  0.5810 -0.7859 -0.2618
  419MOL0     O56460   4.564   8.796   7.107  0.3764 -0.4943 -0.3705
  419MOL0     C56461   4.616   8.743   6.989  0.3009 -1.3154  1.0918
  419MOL0     C56462   4.732   8.666   6.972  0.1590  0.3918 -0.6251
  419MOL0     C56463   4.770   8.612   6.852 -0.4656 -0.4513  0.2182
  419MOL0     C56464   4.702   8.648   6.741 -0.0514  1.1643  0.9090
  419MOL0     O56465   4.714   8.611   6.604 -0.4589  0.3019 -0.2558
  419MOL0     C56466   4.799   8.503   6.559 -0.4301  0.7648 -0.8939
  419MOL0     C56467   4.948   8.552   6.562 -0.9622  0.1749 -0.3779
  419MOL0     C56468   4.964   8.659   6.456 -0.4836  0.2520  0.0748
  419MOL0     C56469   5.107   8.728   6.459  0.2289 -0.1314  0.0362
  419MOL0     C56470   5.146   8.822   6.337 -0.4495 -0.0788 -0.3867
  419MOL0     C56471   5.286   8.867   6.377  0.1390  0.8024  0.2341
  419MOL0     C56472   5.301   9.015   6.334  0.5741 -0.5299 -0.0997
  419MOL0     C56473   5.423   9.088   6.386 -0.1767 -0.3489 -0.7072
  419MOL0    Cl56474   5.407   9.103   6.557  0.2863  0.0241 -0.0239
  419MOL0     C56475   4.590   8.729   6.754 -0.1720 -0.2544 -0.1600
  419MOL0     C56476   4.541   8.777   6.875 -0.1171  0.7030  0.2384
  419MOL0     O56477   4.772   8.882   7.170  0.3403  0.6301 -0.3030
  419MOL0     C56478   4.459   8.906   7.340  0.0077 -0.6724 -1.1719
  419MOL0     C56479   4.417   8.957   7.467  0.2147  0.4116 -0.3842
  419MOL0     N56480   4.719   9.012   8.218  0.6529  0.2065 -0.6571
  419MOL0     N56481   4.710   9.042   8.352 -0.2593 -0.8073  1.7654
  419MOL0     C56482   4.472  10.042   8.524  0.1817  0.0694  0.1172
  419MOL0     C56483   4.430  10.145   8.613 -0.4562 -0.3237 -1.1399
  419MOL0     C56484   4.188  10.448   8.879 -0.1089  0.6921  0.1955
  419MOL0     C56485   4.319  10.492   8.929  0.3097  0.2224  0.0601
  419MOL0     C56486   4.333  10.553   9.047  0.1382 -0.3063 -0.1063
  419MOL0     C56487   4.229  10.581   9.131  0.6276 -0.0938 -0.1179
  419MOL0     O56488   4.250  10.673   9.242  0.5868  0.0760  1.1874
  419MOL0     C56489   4.146  10.675   9.339 -0.8470  0.2228  0.6234
  419MOL0     C56490   4.223  10.692   9.474  0.5487  0.1338  0.3566
  419MOL0     C56491   4.283  10.835   9.479  0.0243  0.1672  0.5118
  419MOL0     C56492   4.364  10.842   9.603 -0.1900  0.7258 -0.2590
  419MOL0     C56493   4.307  10.822   9.738  0.2804  1.1619  0.4517
  419MOL0     C56494   4.261  10.799   9.844  0.0475  0.1053 -0.6230
  419MOL0     C56495   4.104  10.530   9.082  0.2850 -0.9916  0.0134
  419MOL0     C56496   4.078  10.473   8.963  0.0843  0.1191  0.8402
  419MOL0     C56497   3.932  10.436   8.930  0.1621 -0.0861 -0.0983
  419MOL0     H56498   4.100  10.105   8.616 -1.4981 -2.7250  0.8942
  419MOL0     H56499   4.145   9.943   8.479 -2.0214  1.9763  1.7050
  419MOL0     H56500   4.435   9.711   8.519 -0.3834 -0.7005  0.2420
  419MOL0     H56501   4.275   9.716   8.494  1.6121 -1.8453  3.5674
  419MOL0     H56502   4.460   9.611   8.280  0.7141  2.7472  0.3531
  419MOL0     H56503   4.285   9.582   8.291  0.7493 -1.9238 -0.6248
  419MOL0     H56504   4.321   9.480   8.521 -0.9221 -1.7906 -0.9727
  419MOL0     H56505   4.485   9.463   8.485 -2.3481 -1.0425  3.8008
  419MOL0     H56506   4.248   9.318   8.355  0.8019 -3.5426 -1.0500
  419MOL0     H56507   4.390   9.343   8.259  1.9455 -0.4111 -0.2455
  419MOL0     H56508   4.516   9.224   8.436  0.1803  1.5809 -1.2422
  419MOL0     H56509   4.372   9.241   8.544  1.2420  0.6708  0.5303
  419MOL0     H56510   4.252   9.068   8.415  0.4981 -1.0438  4.1403
  419MOL0     H56511   4.393   9.039   8.314 -1.2908  0.6192 -0.8152
  419MOL0     H56512   4.393   8.872   8.479  0.6809  0.4981 -4.1614
  419MOL0     H56513   4.373   8.976   8.620 -0.4046  0.2049 -0.2169
  419MOL0     H56514   4.602   9.066   8.587 -1.2180  0.2141 -0.8910
  419MOL0     H56515   4.589   8.892   8.618 -1.8389 -2.0618 -0.5206
  419MOL0     H56516   4.562   8.749   8.339  3.2285 -1.6932  1.5348
  419MOL0     H56517   4.692   8.849   8.002  1.4550 -3.4356  0.0488
  419MOL0     H56518   4.666   8.703   8.090  0.5006 -0.0143 -1.0152
  419MOL0     H56519   4.445   8.733   8.000 -1.1140 -1.5966  2.2210
  419MOL0     H56520   4.423   8.831   8.128 -0.6437 -2.5513 -0.1608
  419MOL0     H56521   4.513   9.033   7.950 -1.6690  1.2755 -0.2526
  419MOL0     H56522   4.353   8.960   7.939  0.0028  1.4379 -0.9320
  419MOL0     H56523   4.426   8.816   7.771  0.4921 -0.3021 -0.1906
  419MOL0     H56524   4.599   8.857   7.798 -0.4408 -0.4755  0.4393
  419MOL0     H56525   4.711   8.930   7.648 -3.0034 -2.8810  1.5329
  419MOL0     H56526   4.790   8.871   7.424  0.9097  0.2529  1.8613
  419MOL0     H56527   4.786   8.647   7.065  0.2117  0.8600 -0.5565
  419MOL0     H56528   4.844   8.533   6.842 -2.2833 -2.2182 -0.0166
  419MOL0     H56529   4.790   8.412   6.619 -0.2036  0.9951 -0.5047
  419MOL0     H56530   4.764   8.463   6.464  0.4637  1.0681 -1.3618
  419MOL0     H56531   4.972   8.590   6.662 -1.8411 -1.0527  0.3298
  419MOL0     H56532   5.027   8.478   6.549 -0.6485  0.1518  1.4067
  419MOL0     H56533   4.940   8.605   6.363 -3.2504  0.4179  0.6314
  419MOL0     H56534   4.894   8.741   6.471  3.1719  3.2852  2.3819
  419MOL0     H56535   5.185   8.651   6.461  1.8647  1.4546  0.5724
  419MOL0     H56536   5.104   8.779   6.556 -1.7373 -0.8138  0.3747
  419MOL0     H56537   5.077   8.907   6.331  2.0064  2.4716  3.1211
  419MOL0     H56538   5.133   8.773   6.240 -0.7147  0.8186 -0.8136
  419MOL0     H56539   5.296   8.873   6.485 -0.2868  1.8764  0.2260
  419MOL0     H56540   5.362   8.805   6.328  1.6066  3.4951 -1.1360
  419MOL0     H56541   5.209   9.059   6.373 -1.2415 -3.3524 -0.9490
  419MOL0     H56542   5.306   9.020   6.225  0.6010 -0.1812 -0.0824
  419MOL0     H56543   5.513   9.027   6.368  0.2697 -0.2618  1.0458
  419MOL0     H56544   5.435   9.186   6.339 -0.7707 -1.4767 -3.4167
  419MOL0     H56545   4.532   8.765   6.670  1.9353 -0.5346 -1.8387
  419MOL0     H56546   4.456   8.844   6.887 -0.3326  0.4660  0.0572
  419MOL0     H56547   4.385   8.861   7.274  0.4813 -1.2496 -1.3229
  419MOL0     H56548   4.310   8.973   7.470  0.2972  1.7826 -2.2285
  419MOL0     H56549   4.576  10.027   8.496  0.1885 -1.8875  0.9769
  419MOL0     H56550   4.509  10.204   8.657 -1.4865 -1.1124  1.9789
  419MOL0     H56551   4.409  10.449   8.885  0.2686 -1.9673  1.8877
  419MOL0     H56552   4.435  10.578   9.076 -0.3639  1.6467  0.1364
  419MOL0     H56553   4.095  10.579   9.328  0.2238 -0.7184  3.1292
  419MOL0     H56554   4.082  10.763   9.329  0.1408  1.1091  1.8104
  419MOL0     H56555   4.304  10.622   9.494  0.1665  0.0651  1.8371
  419MOL0     H56556   4.146  10.685   9.552 -0.6483  2.1939 -0.5503
  419MOL0     H56557   4.200  10.907   9.471 -0.2145 -0.1880 -0.3435
  419MOL0     H56558   4.353  10.861   9.400 -0.4446 -1.2316 -0.4005
  419MOL0     H56559   4.451  10.778   9.584  0.6489  2.2161 -1.7029
  419MOL0     H56560   4.404  10.944   9.596  5.3173 -1.1737 -2.2596
  419MOL0     H56561   4.218  10.787   9.941 -0.1084 -0.3140 -0.7444
  419MOL0     H56562   4.013  10.552   9.135 -1.2749 -1.5410 -2.2650
  419MOL0     H56563   3.922  10.486   8.833  3.4128 -0.8106 -0.9322
  419MOL0     H56564   3.905  10.331   8.921 -4.0114  0.4308  3.1522
  419MOL0     H56565   3.868  10.470   9.012  1.7744 -2.9833  2.5995
  420MOL0     O56566  10.070   8.675   2.283  0.0697  0.4284  0.1659
  420MOL0     C56567  10.067   8.565   2.349 -0.4435  0.3699 -1.1094
  420MOL0     O56568  10.005   8.547   2.471  0.3199  0.4188  0.0708
  420MOL0     C56569   9.921   8.646   2.527 -0.4322 -0.4394  0.5328
  420MOL0     C56570   9.959   8.756   2.601  0.0245 -0.2012  0.2024
  420MOL0     C56571   9.864   8.841   2.646 -0.4981  0.5972  0.4450
  420MOL0     C56572   9.730   8.814   2.631  0.0175 -0.7412  0.4527
  420MOL0     O56573   9.635   8.899   2.688 -0.4458  0.3417  0.0243
  420MOL0     C56574   9.665   8.959   2.816  0.1225 -0.1115  0.1539
  420MOL0     C56575   9.542   9.026   2.870  0.3544  0.4293  0.9666
  420MOL0     C56576   9.440   8.924   2.925  0.5005 -0.0509 -0.2294
  420MOL0     C56577   9.306   8.995   2.951  0.3250 -0.2390  0.5852
  420MOL0     C56578   9.304   9.064   3.093  0.0364  0.2636 -0.0690
  420MOL0     C56579   9.166   9.114   3.127  0.2576  1.2339  0.4768
  420MOL0     C56580   9.109   9.225   3.039  1.2159 -0.8593 -0.1945
  420MOL0     C56581   8.963   9.242   3.078  0.4991 -0.3041  0.0541
  420MOL0     N56582   8.926   9.371   3.056 -0.1282  0.1721  0.0822
  420MOL0     C56583   8.916   9.425   2.929  0.9779  0.3967 -0.5264
  420MOL0     C56584   8.849   9.539   2.946 -0.0578  1.1909 -0.5330
  420MOL0     C56585   8.808   9.626   2.825  0.0814 -0.9025 -0.6675
  420MOL0     C56586   8.684   9.574   2.747 -0.5820 -0.0001 -0.9724
  420MOL0     C56587   8.625   9.663   2.641 -0.1421 -0.7157  0.1451
  420MOL0     C56588   8.491   9.607   2.609  0.1686 -0.3410  0.0903
  420MOL0     O56589   8.503   9.480   2.546  0.3219 -0.1756 -0.4166
  420MOL0     C56590   8.384   9.430   2.488 -1.3222 -0.5676  0.6793
  420MOL0     C56591   8.257   9.488   2.502 -0.4708 -0.6075 -0.0839
  420MOL0     C56592   8.146   9.433   2.437  1.0761  0.3049 -0.5258
  420MOL0     C56593   8.159   9.328   2.344  0.1369 -0.2558 -0.3241
  420MOL0     C56594   8.039   9.273   2.268  0.4151  0.2962  0.0127
  420MOL0     O56595   8.077   9.178   2.175  0.0113 -0.0841  0.2865
  420MOL0     C56596   8.002   9.140   2.069 -0.0588  0.3432 -0.9624
  420MOL0     C56597   7.872   9.095   2.066 -0.0617 -0.9310 -0.0885
  420MOL0     C56598   7.808   9.060   1.953  0.4045  0.2072  0.2145
  420MOL0     C56599   7.875   9.070   1.833  0.3905  0.4065  0.3621
  420MOL0     O56600   7.804   9.025   1.723  0.2056  0.2402 -0.2522
  420MOL0     C56601   7.865   9.029   1.588  0.7021 -0.5982 -0.0917
  420MOL0     C56602   7.757   8.980   1.490  1.0741  1.0087  0.6434
  420MOL0     C56603   7.752   8.819   1.482  0.0399 -0.1429 -0.2785
  420MOL0     C56604   7.851   8.764   1.376 -0.0227 -0.9086  0.7071
  420MOL0     C56605   7.861   8.604   1.373 -0.5490  0.7608 -0.1667
  420MOL0     C56606   7.926   8.537   1.496 -0.4270 -0.6236 -0.6156
  420MOL0     C56607   8.068   8.592   1.530 -0.3939  0.3173  0.6856
  420MOL0     C56608   8.179   8.538   1.433 -0.1604  0.2280 -0.2970
  420MOL0    Cl56609   8.343   8.603   1.486 -0.3330  0.2605 -0.3282
  420MOL0     C56610   8.010   9.112   1.831 -0.1147 -0.0695  0.2096
  420MOL0     C56611   8.069   9.154   1.950 -0.3594  0.2068 -0.3173
  420MOL0     O56612   7.919   9.308   2.294  1.2722 -0.0415  0.2359
  420MOL0     C56613   8.283   9.267   2.329 -0.2899  0.3782  0.7207
  420MOL0     C56614   8.396   9.313   2.405  0.6570 -0.4043  0.6912
  420MOL0     N56615   8.811   9.551   3.084  0.2661 -0.2213 -0.2002
  420MOL0     N56616   8.863   9.450   3.147 -0.4847  1.1582  0.5687
  420MOL0     C56617   9.689   8.710   2.558  0.6551  0.1961  0.0312
  420MOL0     C56618   9.790   8.625   2.507  0.5174 -1.2047  0.2041
  420MOL0     C56619  10.136   8.450   2.292  0.6014  0.1018 -0.3557
  420MOL0     C56620  10.124   8.433   2.154  0.1696 -0.1040 -1.1315
  420MOL0     C56621  10.185   8.326   2.083  0.0012 -0.4425  0.0853
  420MOL0     C56622  10.273   8.243   2.155 -0.1158 -0.2841 -0.2849
  420MOL0     O56623  10.347   8.153   2.092  0.4684  0.0916 -0.1756
  420MOL0     C56624  10.361   8.136   1.947 -0.6199 -0.2867 -0.0299
  420MOL0     C56625  10.509   8.086   1.916  0.6197  0.0514  0.9824
  420MOL0     C56626  10.528   7.941   1.957 -0.3346  0.1508 -0.5176
  420MOL0     C56627  10.653   7.889   1.891  0.1424 -0.1132  0.3262
  420MOL0     C56628  10.708   7.777   1.969 -0.4522  0.2364  0.4226
  420MOL0     C56629  10.746   7.693   2.050  0.2256  0.6298  0.0001
  420MOL0     C56630  10.282   8.256   2.294  0.7380 -0.0976  0.6175
  420MOL0     C56631  10.214   8.362   2.361 -0.9685  0.4342  0.2300
  420MOL0     C56632  10.257   8.376   2.497  0.5586  0.3408 -0.7149
  420MOL0     H56633  10.061   8.777   2.629 -0.4330  0.7770  1.1889
  420MOL0     H56634   9.896   8.930   2.701 -0.9852  1.6233 -0.8712
  420MOL0     H56635   9.690   8.878   2.885  1.3154 -1.0255 -1.2661
  420MOL0     H56636   9.751   9.026   2.823 -0.9283  1.1840  0.9785
  420MOL0     H56637   9.498   9.083   2.788 -3.0355 -0.9989  1.6356
  420MOL0     H56638   9.563   9.092   2.955  1.3370  0.1737  0.9303
  420MOL0     H56639   9.462   8.876   3.021 -2.8010 -0.3150  0.5273
  420MOL0     H56640   9.408   8.841   2.862 -0.6321 -0.8737  1.3654
  420MOL0     H56641   9.283   9.069   2.874  1.1405 -3.0501 -2.6311
  420MOL0     H56642   9.227   8.919   2.947  0.6831 -0.5826 -2.4002
  420MOL0     H56643   9.350   9.007   3.174  2.2956  1.0382 -0.7167
  420MOL0     H56644   9.367   9.153   3.082 -0.8076  0.8403 -0.3237
  420MOL0     H56645   9.097   9.029   3.126  0.6940  0.8809 -0.0385
  420MOL0     H56646   9.178   9.148   3.230  1.4106  2.2947  0.0246
  420MOL0     H56647   9.108   9.208   2.931 -2.4499  2.9358 -1.0152
  420MOL0     H56648   9.170   9.314   3.058 -0.5202  0.0696  1.1935
  420MOL0     H56649   8.912   9.169   3.014  1.2433  0.3435 -1.3127
  420MOL0     H56650   8.938   9.210   3.180 -0.4484  3.0027  0.9898
  420MOL0     H56651   8.958   9.386   2.837  0.8625 -0.6246 -0.1587
  420MOL0     H56652   8.788   9.725   2.865  3.9469 -0.2685  0.0933
  420MOL0     H56653   8.888   9.632   2.750 -0.2050 -0.1669 -0.9233
  420MOL0     H56654   8.709   9.471   2.721 -2.4441 -1.2931  1.8402
  420MOL0     H56655   8.617   9.567   2.834 -0.4722  1.8563 -0.7002
  420MOL0     H56656   8.690   9.663   2.553  2.9981 -0.2581  2.3126
  420MOL0     H56657   8.604   9.762   2.682 -0.3528 -0.1330 -1.3098
  420MOL0     H56658   8.449   9.680   2.539 -0.4423  0.3100  1.1200
  420MOL0     H56659   8.439   9.601   2.705 -0.0173 -0.7957 -0.0390
  420MOL0     H56660   8.232   9.563   2.576 -0.9630 -1.0440  0.1982
  420MOL0     H56661   8.050   9.481   2.452 -0.0834 -1.9460 -0.1916
  420MOL0     H56662   7.823   9.072   2.160 -1.3417  1.0400 -0.2249
  420MOL0     H56663   7.705   9.025   1.958  0.0718  1.1824  0.3701
  420MOL0     H56664   7.897   9.130   1.562 -1.8760  0.5594  0.8608
  420MOL0     H56665   7.959   8.975   1.603  1.1443  0.7188  2.5307
  420MOL0     H56666   7.655   9.009   1.519 -0.4949 -1.4289 -1.9370
  420MOL0     H56667   7.776   9.030   1.395  1.7236  1.7252  1.1411
  420MOL0     H56668   7.774   8.776   1.580  2.8235  1.0858 -0.2729
  420MOL0     H56669   7.650   8.794   1.453 -0.7701  2.8539 -0.3890
  420MOL0     H56670   7.945   8.816   1.392 -0.0055 -0.9386  0.7030
  420MOL0     H56671   7.809   8.795   1.279 -1.2706 -0.7479  1.2807
  420MOL0     H56672   7.929   8.571   1.293 -1.0758 -2.8848  0.7146
  420MOL0     H56673   7.769   8.559   1.336  0.8896 -1.2509 -1.5317
  420MOL0     H56674   7.865   8.558   1.585  2.0966  1.0311  0.8679
  420MOL0     H56675   7.926   8.431   1.473  2.4918 -0.7163 -0.5165
  420MOL0     H56676   8.091   8.564   1.633 -3.0548 -1.0870  0.9799
  420MOL0     H56677   8.068   8.702   1.531 -1.8842  0.4006  3.8694
  420MOL0     H56678   8.174   8.430   1.450  0.3365 -0.2810 -2.9879
  420MOL0     H56679   8.158   8.554   1.327  1.9020 -1.8912 -1.1120
  420MOL0     H56680   8.061   9.115   1.735  1.5927  0.9704  1.0959
  420MOL0     H56681   8.165   9.204   1.949  0.3243 -1.0737  0.1386
  420MOL0     H56682   8.296   9.188   2.255 -0.4985  0.1349  0.9434
  420MOL0     H56683   8.484   9.250   2.399 -2.1268 -4.5888 -2.5435
  420MOL0     H56684   9.585   8.699   2.531  0.1463  0.9423  1.5527
  420MOL0     H56685   9.765   8.556   2.428  0.0092 -1.8412  0.9101
  420MOL0     H56686  10.063   8.501   2.095 -0.7970  1.1308  1.1463
  420MOL0     H56687  10.179   8.310   1.976  1.4803 -3.9231  0.3928
  420MOL0     H56688  10.341   8.230   1.896  2.7604  0.4890 -0.2032
  420MOL0     H56689  10.297   8.058   1.906  1.5423 -1.4626 -1.3399
  420MOL0     H56690  10.573   8.151   1.976  1.9026  0.8035 -1.0929
  420MOL0     H56691  10.527   8.098   1.809  2.5811 -0.6613  1.1937
  420MOL0     H56692  10.448   7.872   1.930 -0.0798  0.1712 -1.3488
  420MOL0     H56693  10.528   7.941   2.067  1.8306  0.7588 -0.4575
  420MOL0     H56694  10.628   7.839   1.797  1.2945 -2.7679  1.3337
  420MOL0     H56695  10.734   7.961   1.874 -0.3433  0.2975 -0.2979
  420MOL0     H56696  10.796   7.629   2.120  1.7928  1.2673 -0.4889
  420MOL0     H56697  10.355   8.192   2.344  0.6487 -1.1845 -0.5997
  420MOL0     H56698  10.191   8.310   2.554 -1.8632 -1.1248 -4.7582
  420MOL0     H56699  10.364   8.357   2.506  1.2189  0.7218 -5.4648
  420MOL0     H56700  10.236   8.480   2.523  0.9759  0.8105 -2.1677
  421MOL0     O56701   7.464   9.285   5.446 -0.3990  0.1780  0.2562
  421MOL0     C56702   7.460   9.244   5.333  0.3675 -0.4247  1.0305
  421MOL0     O56703   7.422   9.119   5.293  0.1961 -0.1175 -0.2955
  421MOL0     C56704   7.459   9.010   5.367  0.1900  0.5498  0.0592
  421MOL0     C56705   7.362   8.931   5.416  0.1652  0.7726  0.2519
  421MOL0     C56706   7.383   8.812   5.487 -0.4153  0.3913  0.4628
  421MOL0     C56707   7.516   8.776   5.528 -1.1548  1.2123 -0.0801
  421MOL0     O56708   7.555   8.660   5.596  0.2808 -0.2913 -0.8572
  421MOL0     C56709   7.444   8.588   5.653 -0.5817  0.0754  0.8126
  421MOL0     C56710   7.493   8.460   5.714 -0.5133 -0.1768 -1.0571
  421MOL0     C56711   7.582   8.474   5.838 -0.1000 -0.3289 -0.3302
  421MOL0     C56712   7.728   8.523   5.809 -0.3098 -0.3666 -0.1186
  421MOL0     C56713   7.813   8.514   5.928 -0.2104 -1.7547  0.4748
  421MOL0     C56714   7.771   8.630   6.019 -0.3916  0.8403  0.2408
  421MOL0     C56715   7.887   8.661   6.109 -0.0928 -0.5769 -0.2344
  421MOL0     C56716   8.007   8.736   6.043  0.2679 -0.1969 -0.3773
  421MOL0     N56717   7.966   8.856   5.985 -0.4503 -0.7882  0.2284
  421MOL0     C56718   7.911   8.884   5.858 -0.4227 -0.1095  0.1552
  421MOL0     C56719   7.902   9.024   5.845 -0.2446  0.5772  0.2471
  421MOL0     C56720   7.856   9.092   5.725  0.3022  0.5039  0.2614
  421MOL0     C56721   7.937   9.195   5.658 -0.9449 -0.5308 -1.4633
  421MOL0     C56722   8.094   9.192   5.685  0.6411 -0.2939  0.0443
  421MOL0     C56723   8.154   9.262   5.559 -0.3717 -0.0335 -0.7800
  421MOL0     O56724   8.295   9.228   5.557  0.1654  0.0286  0.3629
  421MOL0     C56725   8.375   9.295   5.462  0.8750  0.4144  0.0936
  421MOL0     C56726   8.332   9.388   5.363 -0.6992 -0.1461 -0.2845
  421MOL0     C56727   8.423   9.448   5.280  0.1156  1.1178  0.0125
  421MOL0     C56728   8.556   9.420   5.289 -0.5969  0.2322  0.1366
  421MOL0     C56729   8.645   9.473   5.177 -1.1826 -0.2440  0.9163
  421MOL0     O56730   8.584   9.517   5.060 -0.2580 -0.7327 -1.0987
  421MOL0     C56731   8.655   9.554   4.952  0.5678 -0.1114  0.6854
  421MOL0     C56732   8.573   9.625   4.864  0.3105 -1.0096  0.3372
  421MOL0     C56733   8.637   9.696   4.757 -0.0584  0.1643  0.5145
  421MOL0     C56734   8.766   9.671   4.718 -0.6850 -0.6355 -0.3227
  421MOL0     O56735   8.808   9.736   4.602 -0.1204 -0.0631 -0.1979
  421MOL0     C56736   8.847   9.665   4.485 -1.2237 -0.1197  0.3146
  421MOL0     C56737   8.743   9.568   4.442 -0.4845  0.2421 -0.8397
  421MOL0     C56738   8.614   9.628   4.392  0.0258  0.6979  1.1692
  421MOL0     C56739   8.630   9.749   4.295  0.6005  0.9234  0.1137
  421MOL0     C56740   8.489   9.775   4.228  0.1842  0.6721  0.7850
  421MOL0     C56741   8.518   9.826   4.073  0.1298 -0.9661 -0.4678
  421MOL0     C56742   8.434   9.945   4.018 -0.2436  1.0476  0.8769
  421MOL0     C56743   8.509  10.034   3.917  0.0319 -0.1937 -0.0475
  421MOL0    Cl56744   8.421  10.194   3.892 -0.0042 -0.0879 -0.3599
  421MOL0     C56745   8.845   9.574   4.787 -0.0428 -0.5085 -0.6845
  421MOL0     C56746   8.781   9.513   4.902  0.0765  0.0428 -0.6823
  421MOL0     O56747   8.769   9.470   5.196  0.3473 -0.0511 -0.2669
  421MOL0     C56748   8.602   9.342   5.395 -1.2640 -0.6027 -0.4385
  421MOL0     C56749   8.505   9.271   5.480 -0.0313  0.1055 -0.4420
  421MOL0     N56750   7.957   9.078   5.960  0.7822  0.8127 -0.5517
  421MOL0     N56751   7.980   8.974   6.049  1.1011  0.4143  0.0745
  421MOL0     C56752   7.625   8.862   5.492 -0.7469  0.3996 -1.0532
  421MOL0     C56753   7.590   8.977   5.416  0.5101  0.0579 -0.2029
  421MOL0     C56754   7.500   9.335   5.222  0.2328  0.4547 -0.3393
  421MOL0     C56755   7.518   9.281   5.095  0.3931  0.1739 -0.5824
  421MOL0     C56756   7.547   9.371   4.987  1.1363  0.0397  0.3753
  421MOL0     C56757   7.573   9.506   4.999 -0.4845 -0.2440 -0.3915
  421MOL0     O56758   7.614   9.576   4.890  0.2425 -0.3851  0.6442
  421MOL0     C56759   7.609   9.724   4.874 -0.0277 -0.4918  0.5431
  421MOL0     C56760   7.729   9.795   4.926  0.7957  0.3729 -0.2664
  421MOL0     C56761   7.724   9.948   4.910  0.2824  0.5433  0.1247
  421MOL0     C56762   7.817  10.010   5.010 -0.2989  0.3536  0.5150
  421MOL0     C56763   7.909  10.102   4.936  0.4932  0.1657 -0.2394
  421MOL0     C56764   7.985  10.166   4.869  0.1719  0.6672 -1.0942
  421MOL0     C56765   7.546   9.557   5.123 -0.1712  0.3051 -0.1549
  421MOL0     C56766   7.510   9.484   5.236  0.2867  1.0274 -0.0761
  421MOL0     C56767   7.435   9.564   5.339  0.3413  0.6124 -1.2816
  421MOL0     H56768   7.259   8.954   5.390  0.1131 -1.7008 -2.1934
  421MOL0     H56769   7.293   8.755   5.506 -1.0875  1.1869 -0.2252
  421MOL0     H56770   7.393   8.648   5.729 -2.1203  2.6821 -2.0284
  421MOL0     H56771   7.370   8.559   5.577 -0.1477 -1.2792  0.8797
  421MOL0     H56772   7.544   8.411   5.631 -1.0504  0.7547 -1.9570
  421MOL0     H56773   7.404   8.399   5.731 -0.9139  0.8539  0.8765
  421MOL0     H56774   7.585   8.369   5.869 -0.8632 -0.7418 -1.6015
  421MOL0     H56775   7.522   8.531   5.909 -2.3980  1.3207 -3.3385
  421MOL0     H56776   7.779   8.464   5.732 -0.8629  1.1981 -1.7495
  421MOL0     H56777   7.717   8.625   5.773 -0.9348  0.2620  1.7587
  421MOL0     H56778   7.794   8.425   5.989 -1.7029 -0.2713  2.2880
  421MOL0     H56779   7.916   8.520   5.892 -0.8491  0.1683 -1.2478
  421MOL0     H56780   7.745   8.715   5.956  0.1608 -1.2537 -3.0837
  421MOL0     H56781   7.683   8.599   6.075 -1.4775  1.9447 -0.7823
  421MOL0     H56782   7.932   8.574   6.158  0.9513 -1.1042 -2.0271
  421MOL0     H56783   7.842   8.719   6.190  0.0632 -1.5768  0.5829
  421MOL0     H56784   8.081   8.753   6.122 -1.3526 -2.2636  1.7421
  421MOL0     H56785   8.062   8.680   5.967  3.7207  0.9331  1.0863
  421MOL0     H56786   7.872   8.815   5.785 -0.5698 -1.4200  1.4320
  421MOL0     H56787   7.817   9.017   5.656 -2.9068  1.3275  1.0029
  421MOL0     H56788   7.773   9.150   5.767  0.9461  0.8974  1.0041
  421MOL0     H56789   7.918   9.174   5.552  2.2270  2.0916 -2.7541
  421MOL0     H56790   7.901   9.294   5.689  1.3891 -0.1747  0.3875
  421MOL0     H56791   8.129   9.089   5.675  3.8529  0.6246  0.9075
  421MOL0     H56792   8.137   9.241   5.773 -0.0616  1.4610 -0.5363
  421MOL0     H56793   8.139   9.370   5.559 -2.6291 -0.2876 -0.4283
  421MOL0     H56794   8.104   9.231   5.466 -2.2925 -0.2863  0.2757
  421MOL0     H56795   8.226   9.413   5.354 -0.5723  0.6013  0.1694
  421MOL0     H56796   8.388   9.499   5.190  0.1110  1.7283  0.3520
  421MOL0     H56797   8.467   9.639   4.878 -0.2418 -0.5822 -3.4452
  421MOL0     H56798   8.569   9.766   4.710  2.0391  1.5446 -0.6174
  421MOL0     H56799   8.870   9.728   4.399 -0.2634 -3.0884 -1.7842
  421MOL0     H56800   8.942   9.616   4.505 -1.1158  0.2391  0.6975
  421MOL0     H56801   8.773   9.494   4.368 -1.4879 -1.8367  0.7301
  421MOL0     H56802   8.729   9.507   4.531 -1.0035  0.4112 -0.7964
  421MOL0     H56803   8.552   9.545   4.357  0.9401  0.9461 -1.2332
  421MOL0     H56804   8.565   9.671   4.480  0.9765  2.3762  0.9180
  421MOL0     H56805   8.690   9.708   4.213 -1.9377 -1.4621 -0.7223
  421MOL0     H56806   8.672   9.836   4.345  0.5594  1.3740 -0.6152
  421MOL0     H56807   8.422   9.845   4.279 -0.8396 -0.8882  1.6793
  421MOL0     H56808   8.425   9.687   4.211  1.1605  0.1181 -0.1388
  421MOL0     H56809   8.625   9.850   4.070  0.3508 -0.7376  3.4573
  421MOL0     H56810   8.498   9.742   4.006 -3.1040 -1.3149  0.7178
  421MOL0     H56811   8.399  10.017   4.092 -0.8692  1.3957  0.2601
  421MOL0     H56812   8.346   9.905   3.967 -2.1090  2.6436  2.6325
  421MOL0     H56813   8.616  10.037   3.940 -0.6222 -1.8200  3.8628
  421MOL0     H56814   8.511   9.981   3.821 -0.3319 -2.4479  1.1204
  421MOL0     H56815   8.949   9.555   4.761  0.5973  1.8584 -0.0906
  421MOL0     H56816   8.835   9.449   4.971  0.7082 -0.7730 -1.9080
  421MOL0     H56817   8.709   9.334   5.406 -1.0874  1.1812 -0.6998
  421MOL0     H56818   8.539   9.212   5.564  0.5613  0.1221 -0.6645
  421MOL0     H56819   7.729   8.858   5.522 -0.9267  1.4913 -0.2369
  421MOL0     H56820   7.675   9.033   5.381  1.3983 -1.3565 -0.3892
  421MOL0     H56821   7.500   9.175   5.080 -3.1876  0.0567  2.9246
  421MOL0     H56822   7.581   9.322   4.896  0.6792  1.1948 -0.4333
  421MOL0     H56823   7.521   9.752   4.932  1.0728 -1.3532  2.7912
  421MOL0     H56824   7.608   9.748   4.768  1.6838 -3.6476 -0.3114
  421MOL0     H56825   7.820   9.755   4.882  1.8348  0.3916  1.7280
  421MOL0     H56826   7.731   9.771   5.033 -1.8494  0.5700 -0.1040
  421MOL0     H56827   7.620   9.984   4.907 -0.6202 -1.8794  0.2054
  421MOL0     H56828   7.759   9.970   4.808 -3.6618 -0.9876 -1.7764
  421MOL0     H56829   7.755  10.060   5.086 -3.8247 -0.5369 -1.5307
  421MOL0     H56830   7.882   9.939   5.061  2.8563  2.2576 -0.5906
  421MOL0     H56831   8.050  10.226   4.807  1.9775 -1.9640 -1.9192
  421MOL0     H56832   7.567   9.659   5.154  0.2581 -0.4907  2.4668
  421MOL0     H56833   7.491   9.561   5.434 -1.0417  1.8655 -0.3726
  421MOL0     H56834   7.436   9.671   5.314  1.7311  1.1632  0.8444
  421MOL0     H56835   7.332   9.536   5.362 -0.0922  1.9576 -1.4610
  422MOL0     O56836   2.643   6.821   2.709 -0.4032 -0.4290  0.4348
  422MOL0     C56837   2.704   6.878   2.803 -0.2684 -0.8662 -0.4677
  422MOL0     O56838   2.780   6.985   2.793 -0.5529 -0.3096  0.1801
  422MOL0     C56839   2.765   7.073   2.695 -0.7308 -0.7769  0.0922
  422MOL0     C56840   2.882   7.142   2.654  0.4436  0.5455 -0.1547
  422MOL0     C56841   2.876   7.230   2.540  0.6579 -0.6596 -0.0516
  422MOL0     C56842   2.755   7.258   2.478 -0.2389  1.3292  1.8396
  422MOL0     O56843   2.761   7.348   2.365  1.6961 -0.5963 -0.3034
  422MOL0     C56844   2.636   7.350   2.293  0.3146 -0.0132  1.1681
  422MOL0     C56845   2.655   7.436   2.163 -0.7699  0.6810  0.4157
  422MOL0     C56846   2.517   7.473   2.097 -0.3076 -0.2192  0.8886
  422MOL0     C56847   2.538   7.541   1.963 -0.5158  0.8944  0.3237
  422MOL0     C56848   2.566   7.696   1.982  0.8677  0.0016 -0.8042
  422MOL0     C56849   2.581   7.741   1.832  0.1141 -0.1443  0.8481
  422MOL0     C56850   2.610   7.896   1.814 -0.2338  1.0191 -0.1969
  422MOL0     C56851   2.493   8.004   1.834  0.3229 -0.7127 -0.2292
  422MOL0     N56852   2.549   8.146   1.850  0.3121  0.2768  0.2654
  422MOL0     C56853   2.594   8.210   1.966 -0.3172 -1.4211 -0.0167
  422MOL0     C56854   2.617   8.334   1.924 -0.0498  0.6049 -0.3540
  422MOL0     C56855   2.674   8.443   2.011 -0.5011  0.5943 -0.4999
  422MOL0     C56856   2.716   8.405   2.152 -0.1875  0.0855 -0.6683
  422MOL0     C56857   2.604   8.421   2.258 -0.5440 -0.6569 -0.4500
  422MOL0     C56858   2.605   8.326   2.380  0.5599 -0.8823 -0.7095
  422MOL0     O56859   2.491   8.367   2.463 -0.2959 -0.2491 -0.1617
  422MOL0     C56860   2.527   8.433   2.577  0.1645  0.4209  0.6489
  422MOL0     C56861   2.563   8.357   2.689  0.1806  0.0949 -0.7315
  422MOL0     C56862   2.585   8.417   2.812 -1.0704  0.3076  0.5371
  422MOL0     C56863   2.566   8.562   2.820  0.0764 -0.0161 -0.1295
  422MOL0     C56864   2.560   8.631   2.947 -0.2273 -0.2821 -0.4287
  422MOL0     O56865   2.507   8.761   2.948 -0.1315  0.3166 -0.4136
  422MOL0     C56866   2.536   8.841   3.060  0.5274 -0.7606 -0.1176
  422MOL0     C56867   2.433   8.932   3.095 -0.2796 -0.2045 -0.2367
  422MOL0     C56868   2.459   9.029   3.195  0.0990 -0.2722 -0.4241
  422MOL0     C56869   2.583   9.022   3.267 -0.0839  0.3446  0.8440
  422MOL0     O56870   2.602   9.098   3.373 -0.9978 -0.0533  0.0971
  422MOL0     C56871   2.539   9.235   3.367 -0.9261  0.4485 -1.1666
  422MOL0     C56872   2.635   9.337   3.448  0.4519  0.3834  0.4286
  422MOL0     C56873   2.651   9.286   3.596  0.9538 -0.3332  0.0676
  422MOL0     C56874   2.745   9.370   3.686 -0.0013 -0.9866 -1.4629
  422MOL0     C56875   2.890   9.394   3.661  0.8892 -0.5691  0.8451
  422MOL0     C56876   2.965   9.268   3.660  0.2781  0.3973 -0.1129
  422MOL0     C56877   3.114   9.298   3.633  0.6467 -0.3150 -0.0010
  422MOL0     C56878   3.211   9.183   3.668 -0.9062 -0.2392  0.6548
  422MOL0    Cl56879   3.155   9.049   3.566 -0.2949 -0.0450  0.2345
  422MOL0     C56880   2.678   8.935   3.234  0.1956 -1.2366  0.1268
  422MOL0     C56881   2.666   8.852   3.121 -1.1544 -0.6734 -1.2023
  422MOL0     O56882   2.609   8.572   3.051 -0.2501  0.1225 -0.1716
  422MOL0     C56883   2.541   8.638   2.700 -0.1045  0.5505 -0.3363
  422MOL0     C56884   2.511   8.572   2.587  0.0917  1.4008  0.7473
  422MOL0     N56885   2.589   8.338   1.790 -0.4780 -0.6946  0.1024
  422MOL0     N56886   2.557   8.230   1.736 -0.1673 -0.0415 -1.0144
  422MOL0     C56887   2.642   7.203   2.535 -0.7790 -0.0717  0.5946
  422MOL0     C56888   2.647   7.111   2.642  0.0312 -0.6153 -0.1227
  422MOL0     C56889   2.713   6.821   2.938 -0.2932 -0.9563 -0.2469
  422MOL0     C56890   2.824   6.845   3.019  0.5365 -0.5281 -0.5270
  422MOL0     C56891   2.842   6.799   3.153  0.9259  0.2031 -0.8352
  422MOL0     C56892   2.748   6.701   3.201  0.3514 -0.3182  0.3151
  422MOL0     O56893   2.746   6.628   3.317  0.2147  1.1743  0.2029
  422MOL0     C56894   2.843   6.663   3.418  0.4562  0.2252 -0.4477
  422MOL0     C56895   2.857   6.539   3.512  0.5860 -0.7261  0.3457
  422MOL0     C56896   2.735   6.526   3.603 -0.0015  0.9083  0.7331
  422MOL0     C56897   2.730   6.398   3.681  0.7246 -0.8992  0.0525
  422MOL0     C56898   2.830   6.391   3.782  0.1335  0.0100 -0.8071
  422MOL0     C56899   2.910   6.381   3.872 -0.1994  0.4101  0.7273
  422MOL0     C56900   2.631   6.688   3.119 -0.1517  1.0695 -1.0912
  422MOL0     C56901   2.608   6.744   2.992 -1.1883 -0.5802 -0.5518
  422MOL0     C56902   2.474   6.736   2.933  1.3604  0.3341 -0.4121
  422MOL0     H56903   2.979   7.115   2.695 -0.6518 -0.9748  1.5681
  422MOL0     H56904   2.971   7.269   2.505  1.4038 -0.9917  1.4970
  422MOL0     H56905   2.598   7.252   2.265  2.6730 -0.6144 -0.1466
  422MOL0     H56906   2.561   7.410   2.346 -0.3500  1.5313 -1.3383
  422MOL0     H56907   2.715   7.375   2.094 -0.7821  1.9180 -0.7157
  422MOL0     H56908   2.704   7.532   2.180 -2.4190  1.8128 -0.8897
  422MOL0     H56909   2.467   7.542   2.165 -1.9140 -0.9570  0.5135
  422MOL0     H56910   2.465   7.378   2.079  3.9384 -2.0252 -5.1253
  422MOL0     H56911   2.611   7.490   1.899 -2.4983 -0.7922 -0.7033
  422MOL0     H56912   2.441   7.524   1.915 -0.9533 -0.7908  1.6769
  422MOL0     H56913   2.481   7.746   2.029  1.1809 -1.3175  1.2519
  422MOL0     H56914   2.657   7.699   2.042 -0.2900 -3.1258  1.3485
  422MOL0     H56915   2.656   7.685   1.775  0.2980 -0.2528  1.1956
  422MOL0     H56916   2.489   7.707   1.782  2.3131  0.1517 -3.9136
  422MOL0     H56917   2.643   7.911   1.711  2.6553  1.9872  0.7551
  422MOL0     H56918   2.699   7.926   1.870  2.3738 -2.8825 -1.7401
  422MOL0     H56919   2.422   8.004   1.750  0.9674 -0.1091 -0.7814
  422MOL0     H56920   2.433   7.974   1.921 -1.1870 -0.6399 -1.2055
  422MOL0     H56921   2.608   8.178   2.069  1.6682  2.1028  1.0115
  422MOL0     H56922   2.770   8.469   1.965  0.1858  1.2321  1.2128
  422MOL0     H56923   2.610   8.530   2.000 -3.2470 -1.5900 -4.2853
  422MOL0     H56924   2.743   8.299   2.148  0.4359  0.1800  0.5645
  422MOL0     H56925   2.805   8.460   2.186  1.3449 -1.1717 -2.4839
  422MOL0     H56926   2.509   8.422   2.204 -0.9512  2.9023  0.0993
  422MOL0     H56927   2.620   8.523   2.293 -3.1512 -0.0505 -0.8488
  422MOL0     H56928   2.697   8.346   2.436 -1.9909  2.2735  2.9665
  422MOL0     H56929   2.579   8.222   2.359 -0.1292 -0.8808  0.0854
  422MOL0     H56930   2.559   8.249   2.683  3.0289 -0.0568 -1.5592
  422MOL0     H56931   2.596   8.360   2.904  1.9541 -1.4502 -0.7633
  422MOL0     H56932   2.335   8.901   3.059  0.0346 -3.0474  1.1227
  422MOL0     H56933   2.369   9.080   3.228  0.1080 -0.2150 -0.4874
  422MOL0     H56934   2.525   9.271   3.264  1.9670 -1.0752 -2.2258
  422MOL0     H56935   2.445   9.234   3.422 -0.7748  2.7143 -0.7589
  422MOL0     H56936   2.732   9.333   3.397  0.4382  1.0912  0.3316
  422MOL0     H56937   2.609   9.443   3.437 -1.8217  0.7332  6.0087
  422MOL0     H56938   2.549   9.283   3.636  0.0289 -2.9183 -2.1784
  422MOL0     H56939   2.689   9.183   3.595  1.6711 -0.0850 -2.0735
  422MOL0     H56940   2.713   9.318   3.777 -1.6101 -0.6824 -1.8185
  422MOL0     H56941   2.698   9.469   3.693  1.3881 -0.2276 -2.4037
  422MOL0     H56942   2.921   9.463   3.740 -1.4843 -1.0607  2.2957
  422MOL0     H56943   2.898   9.448   3.566 -4.3993  0.9743  0.9380
  422MOL0     H56944   2.963   9.219   3.758 -0.1081  2.6082  1.0566
  422MOL0     H56945   2.923   9.203   3.583 -2.5212 -1.1730  2.4913
  422MOL0     H56946   3.145   9.380   3.699 -1.5789 -0.9914  2.0257
  422MOL0     H56947   3.131   9.322   3.528 -0.1516 -0.3928 -0.1579
  422MOL0     H56948   3.311   9.224   3.650 -0.6860 -0.2951  1.7150
  422MOL0     H56949   3.216   9.149   3.771  1.1844  1.5475  1.2352
  422MOL0     H56950   2.774   8.932   3.284 -0.7723 -1.7219  2.0561
  422MOL0     H56951   2.747   8.784   3.098 -1.7646 -0.7560 -3.3004
  422MOL0     H56952   2.526   8.744   2.715  1.6615  1.0634 -1.8547
  422MOL0     H56953   2.476   8.626   2.499 -3.4957 -1.1722  0.3678
  422MOL0     H56954   2.552   7.237   2.485 -0.2720  0.5513  0.0929
  422MOL0     H56955   2.549   7.071   2.666  0.1775 -0.2035  1.2889
  422MOL0     H56956   2.902   6.909   2.977  0.4883 -0.5316 -0.6227
  422MOL0     H56957   2.931   6.818   3.212  0.0598  0.9789  0.2547
  422MOL0     H56958   2.803   6.746   3.476 -0.1564 -0.9379  0.8624
  422MOL0     H56959   2.938   6.688   3.369  0.7540  0.3790  0.2012
  422MOL0     H56960   2.947   6.538   3.574 -0.3348  1.6879  1.8702
  422MOL0     H56961   2.857   6.447   3.452  1.4058 -2.4781  2.8458
  422MOL0     H56962   2.653   6.519   3.531  2.2559 -0.2662 -1.9279
  422MOL0     H56963   2.711   6.612   3.666 -0.9250  0.9907  0.2879
  422MOL0     H56964   2.628   6.393   3.720  0.6595 -1.4765 -0.1965
  422MOL0     H56965   2.745   6.315   3.612 -2.1406 -0.8929 -0.7039
  422MOL0     H56966   2.989   6.374   3.945  0.3485  2.0970  0.3663
  422MOL0     H56967   2.562   6.618   3.166  2.7560 -1.9329 -0.9354
  422MOL0     H56968   2.454   6.704   2.830 -1.9893  0.8075  0.0033
  422MOL0     H56969   2.402   6.678   2.991 -3.2289  2.8747 -2.9941
  422MOL0     H56970   2.438   6.839   2.938 -2.0855 -0.7160 -0.9741
  423MOL0     O56971   7.364   6.787  10.086 -0.0229 -0.1219 -0.0687
  423MOL0     C56972   7.261   6.832  10.132 -0.8016 -0.0079 -0.1382
  423MOL0     O56973   7.143   6.848  10.059 -0.2883  0.0678 -0.7042
  423MOL0     C56974   7.161   6.851   9.925 -0.0862  0.7504 -0.3160
  423MOL0     C56975   7.169   6.730   9.851  0.8147  0.4356  0.8743
  423MOL0     C56976   7.180   6.727   9.708 -0.4847  0.1091 -0.3949
  423MOL0     C56977   7.199   6.850   9.643  1.2044  0.2293 -0.4716
  423MOL0     O56978   7.197   6.852   9.508  0.5525  0.1102 -0.1712
  423MOL0     C56979   7.307   6.912   9.449 -0.1224 -0.0448  0.6321
  423MOL0     C56980   7.261   6.965   9.310 -0.4301  0.4962  0.1065
  423MOL0     C56981   7.351   7.068   9.235  0.0066  0.3995 -0.4663
  423MOL0     C56982   7.489   7.014   9.204 -0.0472  0.4650  0.2162
  423MOL0     C56983   7.582   7.125   9.146  0.5025 -0.7220 -0.6142
  423MOL0     C56984   7.718   7.057   9.095 -1.1406  0.1079 -0.2355
  423MOL0     C56985   7.820   7.162   9.062  0.6826  0.2271  0.2203
  423MOL0     C56986   7.942   7.123   8.980 -1.0902  0.6490 -0.5564
  423MOL0     N56987   7.911   7.106   8.837  0.2594 -0.7180 -0.3346
  423MOL0     C56988   7.841   7.010   8.768  0.2137 -0.8562 -0.8681
  423MOL0     C56989   7.865   7.037   8.637  0.3710 -0.3234  0.0393
  423MOL0     C56990   7.820   6.934   8.533 -0.4905 -0.5400 -0.0282
  423MOL0     C56991   7.669   6.925   8.525 -0.4838  0.2722 -1.4306
  423MOL0     C56992   7.609   6.826   8.418 -0.2566 -0.2697 -1.4373
  423MOL0     C56993   7.671   6.834   8.281  0.3379  0.2833  0.1818
  423MOL0     O56994   7.573   6.762   8.210 -0.1005  0.7422  0.3472
  423MOL0     C56995   7.592   6.696   8.095  0.6956  0.2380  0.2528
  423MOL0     C56996   7.470   6.657   8.028  0.3586 -1.5307 -0.2928
  423MOL0     C56997   7.468   6.590   7.909 -0.5420  1.2408  0.9376
  423MOL0     C56998   7.589   6.555   7.844 -0.0570 -0.4115  0.0862
  423MOL0     C56999   7.593   6.472   7.714  0.6992 -0.3733  1.1101
  423MOL0     O57000   7.477   6.409   7.669 -0.2068 -0.0091  0.1248
  423MOL0     C57001   7.449   6.387   7.540  0.3300 -0.3723  1.3828
  423MOL0     C57002   7.550   6.393   7.434  0.0097 -0.1516  0.1599
  423MOL0     C57003   7.501   6.373   7.297  0.0917 -0.1461 -0.6879
  423MOL0     C57004   7.364   6.370   7.272 -0.2424  0.7429  0.3474
  423MOL0     O57005   7.328   6.372   7.134 -0.2075 -0.0541 -0.3185
  423MOL0     C57006   7.189   6.360   7.096 -0.5454  0.7602 -0.4044
  423MOL0     C57007   7.124   6.492   7.124 -0.1313 -1.1925  0.7763
  423MOL0     C57008   6.971   6.475   7.115 -0.0442  0.3042  0.2779
  423MOL0     C57009   6.914   6.493   6.970  0.4398  0.2100  0.3724
  423MOL0     C57010   6.759   6.490   6.980  0.6907 -0.5119 -0.1649
  423MOL0     C57011   6.701   6.458   6.844 -0.4491 -0.0571 -0.2379
  423MOL0     C57012   6.721   6.565   6.732 -1.1284 -0.3857  0.6548
  423MOL0     C57013   6.606   6.558   6.640 -0.3661  0.5479  0.0835
  423MOL0    Cl57014   6.585   6.384   6.565 -0.0558  0.1904  0.6095
  423MOL0     C57015   7.276   6.354   7.382 -0.0785 -0.8893  0.4137
  423MOL0     C57016   7.325   6.350   7.515  1.0609 -0.7525 -0.3544
  423MOL0     O57017   7.700   6.450   7.662 -0.0440  0.5550 -0.2735
  423MOL0     C57018   7.704   6.602   7.901  0.3375  0.0639 -0.4034
  423MOL0     C57019   7.708   6.656   8.028  0.8684 -0.8004 -0.0500
  423MOL0     N57020   7.929   7.157   8.629  0.1223  0.6142  0.2089
  423MOL0     N57021   7.943   7.197   8.743 -0.7659  0.0156 -0.8731
  423MOL0     C57022   7.203   6.968   9.722  0.4938 -0.2880 -0.2969
  423MOL0     C57023   7.188   6.970   9.867 -0.6182  0.2028 -0.0767
  423MOL0     C57024   7.254   6.863  10.281 -0.2733  0.3670 -0.6194
  423MOL0     C57025   7.369   6.820  10.359  0.7877  0.1667  1.8098
  423MOL0     C57026   7.364   6.834  10.494 -0.0658 -0.2837 -0.0731
  423MOL0     C57027   7.252   6.887  10.568  0.1817  0.6671  0.1914
  423MOL0     O57028   7.228   6.876  10.699 -0.4402 -0.2212  0.6588
  423MOL0     C57029   7.273   6.766  10.774  0.3925 -0.3325 -0.5134
  423MOL0     C57030   7.231   6.639  10.701 -1.5494  1.0443 -0.4561
  423MOL0     C57031   7.217   6.512  10.785  0.3827 -0.9243  0.1527
  423MOL0     C57032   7.099   6.491  10.885  0.5524  0.2688  0.4071
  423MOL0     C57033   7.119   6.353  10.951 -0.6929 -0.0565  0.6997
  423MOL0     C57034   7.129   6.236  10.993  0.1614 -0.1985  0.6529
  423MOL0     C57035   7.160   6.958  10.498  0.0602  0.3158  0.0780
  423MOL0     C57036   7.157   6.929  10.357 -0.1048  0.0801 -0.7814
  423MOL0     C57037   7.031   6.979  10.288  0.1287  0.0139  0.5140
  423MOL0     H57038   7.155   6.634   9.900 -2.6996  0.9270  1.1480
  423MOL0     H57039   7.181   6.637   9.648  0.6251  0.6554 -1.2548
  423MOL0     H57040   7.351   6.989   9.512 -0.3913 -0.5683  1.4754
  423MOL0     H57041   7.383   6.834   9.436  0.0842  0.5778 -2.9023
  423MOL0     H57042   7.157   6.998   9.322 -0.9406 -0.9829 -0.0212
  423MOL0     H57043   7.282   6.873   9.254  2.5107 -1.9248  4.6230
  423MOL0     H57044   7.358   7.155   9.300  3.5680 -0.2884  0.2812
  423MOL0     H57045   7.301   7.105   9.145 -0.2761 -0.7124 -0.7849
  423MOL0     H57046   7.536   6.986   9.299 -2.2324  2.3784  1.9733
  423MOL0     H57047   7.487   6.933   9.131 -2.8740  0.9678 -0.3691
  423MOL0     H57048   7.535   7.172   9.059  0.9909 -1.1310 -1.1066
  423MOL0     H57049   7.610   7.206   9.213 -0.7703  2.3547 -3.4884
  423MOL0     H57050   7.753   7.001   9.181  0.8264  0.8969 -0.4591
  423MOL0     H57051   7.706   6.987   9.011 -0.0353  0.1808 -0.4689
  423MOL0     H57052   7.852   7.212   9.154 -0.4928 -0.3877  0.9986
  423MOL0     H57053   7.764   7.240   9.009  2.4946  0.1510 -1.9176
  423MOL0     H57054   8.011   7.207   8.983 -1.4810  1.1131 -2.5859
  423MOL0     H57055   7.980   7.035   9.032  0.1497  1.2542 -0.4001
  423MOL0     H57056   7.798   6.921   8.813 -1.5131 -0.2872 -1.3152
  423MOL0     H57057   7.862   6.953   8.433  1.7530 -3.0222  0.3149
  423MOL0     H57058   7.857   6.836   8.565 -0.6635 -0.3921  0.6294
  423MOL0     H57059   7.643   6.898   8.628  0.3654  5.6112  0.4785
  423MOL0     H57060   7.624   7.025   8.526  0.0520  0.5187 -0.0943
  423MOL0     H57061   7.502   6.850   8.411 -0.5047 -1.6965 -3.3370
  423MOL0     H57062   7.612   6.723   8.454  1.0523 -0.5663 -2.3256
  423MOL0     H57063   7.765   6.780   8.293  0.2054 -0.1738 -0.8113
  423MOL0     H57064   7.685   6.938   8.248 -1.7648  2.2137  4.4522
  423MOL0     H57065   7.373   6.682   8.070 -0.9563  0.1078 -3.9195
  423MOL0     H57066   7.375   6.558   7.861  0.1610  0.1720  0.2349
  423MOL0     H57067   7.658   6.402   7.428 -0.1325  0.8053 -3.5453
  423MOL0     H57068   7.561   6.368   7.206 -4.4602 -0.7734 -4.0015
  423MOL0     H57069   7.188   6.334   6.989  2.2038 -1.8101  0.0449
  423MOL0     H57070   7.138   6.274   7.141  2.3930 -0.6826  0.3862
  423MOL0     H57071   7.150   6.520   7.226 -3.5907  3.3699  0.7107
  423MOL0     H57072   7.154   6.574   7.059 -1.1836 -1.2660  0.1638
  423MOL0     H57073   6.943   6.377   7.155  0.7893  0.8194  2.2626
  423MOL0     H57074   6.918   6.555   7.168 -0.8919  2.0314 -2.8821
  423MOL0     H57075   6.936   6.404   6.910 -2.9593 -0.1218 -0.5724
  423MOL0     H57076   6.946   6.587   6.922 -1.0789  0.0391 -1.0916
  423MOL0     H57077   6.721   6.585   7.018 -1.1679 -1.4701  0.4880
  423MOL0     H57078   6.717   6.412   7.044 -1.9105  1.6057  0.9176
  423MOL0     H57079   6.733   6.361   6.806  2.6484  1.3135 -1.4533
  423MOL0     H57080   6.594   6.448   6.865 -0.2194 -0.0088  1.0264
  423MOL0     H57081   6.812   6.557   6.673 -0.4317 -0.4864  1.7205
  423MOL0     H57082   6.728   6.664   6.777  1.5852  0.8155 -2.0693
  423MOL0     H57083   6.519   6.585   6.701 -1.9056  0.7400 -2.0847
  423MOL0     H57084   6.617   6.626   6.554  1.5740  1.0424  0.6875
  423MOL0     H57085   7.172   6.332   7.359 -0.0321 -0.9503  0.2609
  423MOL0     H57086   7.259   6.339   7.601  0.9797  3.2526  0.2883
  423MOL0     H57087   7.794   6.580   7.844  0.0942 -0.2547 -0.6681
  423MOL0     H57088   7.806   6.663   8.073  0.8812  0.4830 -0.2363
  423MOL0     H57089   7.223   7.062   9.671  1.5597  1.0691  2.4562
  423MOL0     H57090   7.210   7.059   9.924  2.0056  0.9468 -2.0595
  423MOL0     H57091   7.456   6.777  10.312  0.1868 -1.8268  2.4301
  423MOL0     H57092   7.444   6.787  10.550  0.5725  2.4071  1.4336
  423MOL0     H57093   7.230   6.767  10.875 -2.6742 -1.1663 -1.7085
  423MOL0     H57094   7.381   6.761  10.790  0.0665 -2.0899  1.6652
  423MOL0     H57095   7.307   6.614  10.627 -0.9886 -1.5858  0.8753
  423MOL0     H57096   7.134   6.659  10.654 -3.1157 -2.4722  0.8858
  423MOL0     H57097   7.313   6.500  10.834  1.6990  2.8974 -1.0853
  423MOL0     H57098   7.208   6.432  10.711 -0.0459 -1.4293  0.7365
  423MOL0     H57099   7.112   6.569  10.961  1.9112  0.3241  0.1490
  423MOL0     H57100   6.999   6.495  10.841  0.8752  3.8232 -0.2677
  423MOL0     H57101   7.157   6.137  11.022 -0.9062 -0.7796 -0.2485
  423MOL0     H57102   7.071   7.007  10.535 -0.0636  2.2889 -2.5276
  423MOL0     H57103   6.960   7.028  10.354  2.6572  1.4328  2.3500
  423MOL0     H57104   7.056   7.030  10.195 -1.4769  0.4293  0.2864
  423MOL0     H57105   6.975   6.890  10.257 -1.6166  1.1983  0.1383
  424MOL0     O57106   6.730   9.050  11.453  0.5183 -0.3595 -0.2484
  424MOL0     C57107   6.782   9.095  11.347  1.3897  0.5351 -0.3340
  424MOL0     O57108   6.740   9.216  11.289  0.6968  0.3102  0.4262
  424MOL0     C57109   6.666   9.317  11.358 -0.8093  1.1370 -0.9409
  424MOL0     C57110   6.532   9.326  11.338  0.3017 -0.3988  0.6699
  424MOL0     C57111   6.448   9.421  11.401  0.5393 -1.0494  0.9779
  424MOL0     C57112   6.500   9.486  11.515  0.5266 -0.5853 -0.7327
  424MOL0     O57113   6.418   9.558  11.592  0.0400 -0.6939  0.2855
  424MOL0     C57114   6.297   9.492  11.641  0.0056  0.3064 -0.2310
  424MOL0     C57115   6.321   9.427  11.782  0.2932  0.0554  0.2795
  424MOL0     C57116   6.362   9.526  11.897  0.8067  0.7312 -0.8900
  424MOL0     C57117   6.286   9.658  11.899 -0.6342 -0.2455  0.1257
  424MOL0     C57118   6.315   9.723  12.040  0.2941 -0.8198  0.2277
  424MOL0     C57119   6.271   9.873  12.035 -0.6824  0.5702 -1.1166
  424MOL0     C57120   6.306   9.933  12.174  0.2235  0.5000 -0.6034
  424MOL0     C57121   6.270  10.080  12.203  0.1302 -0.2789  0.4743
  424MOL0     N57122   6.281  10.105  12.350 -0.0307 -1.1660 -0.1941
  424MOL0     C57123   6.188  10.099  12.445  0.8020 -0.8360 -0.7209
  424MOL0     C57124   6.235  10.165  12.558  0.3663  0.3687 -0.0455
  424MOL0     C57125   6.161  10.188  12.687  0.1954  1.6925 -0.1436
  424MOL0     C57126   6.204  10.320  12.743  0.6778 -0.0309 -0.2055
  424MOL0     C57127   6.146  10.322  12.887 -0.1466 -1.2360 -0.9522
  424MOL0     C57128   6.174  10.466  12.953 -0.3993 -0.2599 -0.9250
  424MOL0     O57129   6.097  10.555  12.875  0.4378 -0.0698  0.2971
  424MOL0     C57130   6.001  10.632  12.931  0.1230 -0.6537 -0.3289
  424MOL0     C57131   6.041  10.761  12.985  0.5770 -0.5495  0.1300
  424MOL0     C57132   5.938  10.841  13.041  0.0807 -0.3545 -0.5362
  424MOL0     C57133   5.802  10.795  13.056  0.5978 -0.5782  0.2360
  424MOL0     C57134   5.696  10.867  13.121  0.0186 -0.1574 -0.1447
  424MOL0     O57135   5.577  10.819  13.086  0.1706 -0.2619  0.6487
  424MOL0     C57136   5.471  10.892  13.132  1.3812  0.7729  0.1833
  424MOL0     C57137   5.404  10.976  13.047  0.9201 -0.6517 -0.1049
  424MOL0     C57138   5.293  11.051  13.086  0.2513  0.1867 -0.1750
  424MOL0     C57139   5.241  11.034  13.213 -1.0873  1.0795 -0.1551
  424MOL0     O57140   5.118  11.094  13.235  0.0966  0.3180  0.5236
  424MOL0     C57141   5.035  11.036  13.343 -0.0468  0.1882 -0.0559
  424MOL0     C57142   4.896  11.061  13.303 -0.0873 -0.1995 -1.7976
  424MOL0     C57143   4.801  10.955  13.362  0.9445 -0.0263 -0.9003
  424MOL0     C57144   4.681  10.922  13.269 -0.1565  0.3813 -0.4657
  424MOL0     C57145   4.595  10.803  13.310 -0.5092  0.7079 -1.2764
  424MOL0     C57146   4.673  10.666  13.317  0.2546  0.2708 -0.2803
  424MOL0     C57147   4.710  10.616  13.178 -0.2076 -0.4453 -0.1605
  424MOL0     C57148   4.855  10.643  13.132  0.6997 -0.5843  0.0975
  424MOL0    Cl57149   4.951  10.513  13.201  0.1494  0.4748 -0.1996
  424MOL0     C57150   5.314  10.955  13.313  0.3990  0.8214 -0.4487
  424MOL0     C57151   5.422  10.887  13.267 -0.0019  0.5263  0.2487
  424MOL0     O57152   5.717  10.953  13.207  0.4257  0.1205 -0.3119
  424MOL0     C57153   5.781  10.665  13.010 -0.0943  0.2085  1.3512
  424MOL0     C57154   5.869  10.585  12.939 -0.0616 -0.5631  0.7894
  424MOL0     N57155   6.363  10.197  12.521 -0.3947  0.5465 -0.2521
  424MOL0     N57156   6.390  10.158  12.398 -0.1973 -0.1084 -0.5576
  424MOL0     C57157   6.643   9.474  11.544 -0.1130 -0.3172 -1.2103
  424MOL0     C57158   6.725   9.392  11.471  0.2988  0.0431  1.2146
  424MOL0     C57159   6.890   9.026  11.274 -1.0770  1.2144 -0.2737
  424MOL0     C57160   6.955   8.923  11.346 -0.3609  0.5263 -0.2856
  424MOL0     C57161   7.055   8.856  11.281 -0.9854 -0.0354 -0.0678
  424MOL0     C57162   7.097   8.880  11.155  0.1425 -0.5901 -0.3602
  424MOL0     O57163   7.206   8.800  11.134  0.4117 -0.8961 -0.3095
  424MOL0     C57164   7.263   8.790  11.006  0.0114 -0.2848 -0.5830
  424MOL0     C57165   7.414   8.816  11.013  0.6070  0.3663  0.1002
  424MOL0     C57166   7.476   8.774  10.877  0.6821 -0.7079  0.2848
  424MOL0     C57167   7.582   8.876  10.839 -0.5010 -0.4557  1.0094
  424MOL0     C57168   7.700   8.891  10.920  0.4696 -0.2324  0.3493
  424MOL0     C57169   7.795   8.904  10.995 -0.3376  1.0286  0.6936
  424MOL0     C57170   7.024   8.974  11.077 -0.0851  0.7282 -0.2134
  424MOL0     C57171   6.931   9.050  11.140 -0.2035 -0.6564 -0.2658
  424MOL0     C57172   6.862   9.149  11.052  0.0123  0.0443 -0.2741
  424MOL0     H57173   6.508   9.262  11.254  0.3373  1.9875 -1.2633
  424MOL0     H57174   6.346   9.423  11.365  0.6538  2.1133  0.4865
  424MOL0     H57175   6.212   9.559  11.654 -0.2788 -0.2125  0.6272
  424MOL0     H57176   6.264   9.417  11.569  2.5223  0.7806 -2.0544
  424MOL0     H57177   6.399   9.352  11.766  2.5820  1.6586  3.1008
  424MOL0     H57178   6.236   9.365  11.809  1.5894 -1.8691  0.0823
  424MOL0     H57179   6.471   9.536  11.898  1.0422 -1.1701  1.1312
  424MOL0     H57180   6.339   9.474  11.991 -1.6236 -0.6768 -2.1581
  424MOL0     H57181   6.325   9.719  11.816  1.2907 -0.8339  0.5306
  424MOL0     H57182   6.180   9.636  11.906 -0.6691  0.2414  1.5546
  424MOL0     H57183   6.260   9.669  12.117  1.8863 -2.0235  0.5729
  424MOL0     H57184   6.418   9.720  12.076  0.6076 -0.7378 -0.6379
  424MOL0     H57185   6.309   9.945  11.963  0.6333  0.8564 -0.1698
  424MOL0     H57186   6.162   9.870  12.020 -1.0307 -0.6822  1.1808
  424MOL0     H57187   6.415   9.928  12.183  0.3152 -0.5971 -1.9807
  424MOL0     H57188   6.268   9.857  12.244  1.4902 -0.3966 -0.8473
  424MOL0     H57189   6.350  10.136  12.153  2.4857 -1.8648  2.2490
  424MOL0     H57190   6.168  10.081  12.162  1.1244 -2.6155 -2.3742
  424MOL0     H57191   6.085  10.069  12.430  0.4502  0.9524 -2.2459
  424MOL0     H57192   6.053  10.199  12.674 -0.3499 -0.2190  2.1581
  424MOL0     H57193   6.181  10.104  12.755 -1.5790 -0.7533 -2.4094
  424MOL0     H57194   6.313  10.332  12.734  0.4767  1.2662 -1.0274
  424MOL0     H57195   6.174  10.403  12.679  0.3921 -0.2287 -0.3312
  424MOL0     H57196   6.168  10.237  12.953  0.3554  1.1043  2.1738
  424MOL0     H57197   6.038  10.319  12.876 -0.6907  0.2891  2.4662
  424MOL0     H57198   6.280  10.493  12.947  0.6866 -3.9931 -1.1415
  424MOL0     H57199   6.145  10.461  13.059  2.0671 -1.5006 -0.2168
  424MOL0     H57200   6.145  10.790  12.981  1.5401 -3.7092 -0.7524
  424MOL0     H57201   5.955  10.938  13.087  1.1529 -0.8526  0.1571
  424MOL0     H57202   5.444  10.974  12.946  0.0997 -2.0509 -0.4343
  424MOL0     H57203   5.229  11.105  13.017 -3.9217 -2.4592  1.2531
  424MOL0     H57204   5.054  10.928  13.334  0.4584  0.2572  0.1539
  424MOL0     H57205   5.046  11.064  13.448 -2.3195  0.3347  0.1882
  424MOL0     H57206   4.862  11.161  13.334 -0.7688 -0.2727 -2.2907
  424MOL0     H57207   4.887  11.049  13.195  3.3865 -1.1229 -2.0769
  424MOL0     H57208   4.868  10.871  13.382  1.6889  0.9519  1.0089
  424MOL0     H57209   4.766  11.001  13.455  2.0438  0.8186 -0.8815
  424MOL0     H57210   4.713  10.898  13.167  1.8503 -3.5810  0.8480
  424MOL0     H57211   4.616  11.009  13.261  2.0598  2.1957  0.0204
  424MOL0     H57212   4.515  10.793  13.236  1.4307  1.2097 -3.6188
  424MOL0     H57213   4.556  10.814  13.411  0.3901 -0.9428 -0.7079
  424MOL0     H57214   4.764  10.665  13.377 -0.7079 -1.4124  1.2497
  424MOL0     H57215   4.615  10.581  13.356 -1.2757  1.8062  0.9204
  424MOL0     H57216   4.636  10.665  13.115 -2.6742 -2.4858  0.9629
  424MOL0     H57217   4.692  10.510  13.160  1.2131 -0.6590 -0.4491
  424MOL0     H57218   4.865  10.648  13.023  3.7100 -0.1378  0.3127
  424MOL0     H57219   4.888  10.736  13.179  0.7777 -0.8849  0.6419
  424MOL0     H57220   5.283  10.938  13.415  1.1103  1.2385 -0.1538
  424MOL0     H57221   5.473  10.825  13.341 -0.9048  0.2411  0.6534
  424MOL0     H57222   5.682  10.619  13.013  0.1876 -1.2233 -3.1795
  424MOL0     H57223   5.835  10.489  12.900  2.9519 -1.5917  0.3433
  424MOL0     H57224   6.675   9.532  11.630 -1.0131 -4.2380  2.0792
  424MOL0     H57225   6.828   9.393  11.505  1.5385  3.8667 -1.9240
  424MOL0     H57226   6.936   8.901  11.450 -0.3529 -0.1143 -0.4175
  424MOL0     H57227   7.093   8.773  11.339 -0.6937 -0.6237 -1.0785
  424MOL0     H57228   7.216   8.862  10.939  2.7143  2.8300  0.6110
  424MOL0     H57229   7.239   8.690  10.968 -3.0324  0.0572  0.1570
  424MOL0     H57230   7.458   8.755  11.092  0.9256 -2.6287 -2.2002
  424MOL0     H57231   7.423   8.925  11.022  0.0817  0.5292 -1.0991
  424MOL0     H57232   7.397   8.762  10.803 -1.1464 -0.1266  2.0302
  424MOL0     H57233   7.528   8.679  10.889  2.9505 -0.0316 -2.8919
  424MOL0     H57234   7.614   8.843  10.740  0.3469  1.3559  0.6343
  424MOL0     H57235   7.541   8.976  10.821 -1.0356 -0.4393  2.1964
  424MOL0     H57236   7.882   8.902  11.058 -0.2941 -0.1937  0.6338
  424MOL0     H57237   7.050   8.986  10.973  2.2080  0.8538  0.3239
  424MOL0     H57238   6.899   9.147  10.949 -0.4910 -4.4796 -0.5573
  424MOL0     H57239   6.760   9.110  11.046  1.2196 -3.3392 -1.1083
  424MOL0     H57240   6.857   9.253  11.084 -0.9917  1.3423 -4.1119
  425MOL0     O57241   2.870   5.256   8.696 -0.1346 -0.5667  0.0739
  425MOL0     C57242   2.988   5.257   8.680 -0.3621  0.0368  0.5831
  425MOL0     O57243   3.059   5.371   8.664  0.0800  0.0176 -0.1627
  425MOL0     C57244   3.012   5.504   8.659 -0.7004  0.3111  0.3238
  425MOL0     C57245   2.886   5.552   8.699 -1.1923 -0.6280 -0.9204
  425MOL0     C57246   2.859   5.688   8.702  0.3464  1.2115  0.7388
  425MOL0     C57247   2.945   5.776   8.645 -0.0186 -0.2294 -0.8493
  425MOL0     O57248   2.921   5.911   8.637  0.4046 -0.0425  0.2476
  425MOL0     C57249   2.860   5.985   8.745 -0.3724  0.4075  0.2132
  425MOL0     C57250   2.966   6.044   8.831  0.4631 -0.6372  0.0711
  425MOL0     C57251   3.049   6.139   8.742 -0.7648  0.8190 -0.6251
  425MOL0     C57252   3.151   6.219   8.824 -0.5936  0.2177  0.0404
  425MOL0     C57253   3.250   6.311   8.744 -0.2041  0.0570 -0.7151
  425MOL0     C57254   3.369   6.230   8.694  0.9768  2.1779 -0.2041
  425MOL0     C57255   3.493   6.306   8.662  0.0465 -0.4523 -0.1419
  425MOL0     C57256   3.470   6.405   8.551  0.5974 -0.5766  0.6390
  425MOL0     N57257   3.595   6.432   8.474  0.0833 -0.1167  0.4133
  425MOL0     C57258   3.663   6.552   8.488 -0.1441  0.2955  0.1661
  425MOL0     C57259   3.764   6.536   8.400 -0.6715 -0.0401  0.5097
  425MOL0     C57260   3.855   6.633   8.350 -0.3243 -0.0566  0.4871
  425MOL0     C57261   3.990   6.652   8.435  0.8248  0.3094  0.3107
  425MOL0     C57262   3.968   6.764   8.534 -0.3282  0.1654 -0.9687
  425MOL0     C57263   4.085   6.783   8.634 -0.0204  0.0904  1.1851
  425MOL0     O57264   4.032   6.862   8.741 -0.6101 -0.0297 -0.0109
  425MOL0     C57265   4.076   6.994   8.763 -0.4772  0.3811  0.1503
  425MOL0     C57266   4.166   7.067   8.683  0.1747  0.4716  0.0678
  425MOL0     C57267   4.208   7.197   8.726  0.1858  0.2517 -0.7028
  425MOL0     C57268   4.172   7.255   8.848 -0.2101 -0.0542 -0.2235
  425MOL0     C57269   4.228   7.390   8.892 -0.9486 -0.0065  0.5324
  425MOL0     O57270   4.184   7.425   9.022 -0.0803  0.3032  0.4686
  425MOL0     C57271   4.179   7.563   9.022 -0.6013  0.3785  0.5136
  425MOL0     C57272   4.088   7.639   8.951  1.2076  0.8414  0.7994
  425MOL0     C57273   4.078   7.777   8.967  0.1238 -0.3323  0.6311
  425MOL0     C57274   4.165   7.837   9.057  0.5630  0.1401  0.6179
  425MOL0     O57275   4.151   7.971   9.065  0.0038 -0.3422 -0.0879
  425MOL0     C57276   4.181   8.039   9.194  0.1050 -0.3986 -1.1944
  425MOL0     C57277   4.117   8.177   9.198 -0.4392  0.6173 -0.2016
  425MOL0     C57278   3.975   8.189   9.167  0.8849 -0.0850  0.3363
  425MOL0     C57279   3.921   8.337   9.148 -0.8719  0.8963  0.2590
  425MOL0     C57280   3.912   8.373   9.005 -0.5638  0.6919 -0.4344
  425MOL0     C57281   3.839   8.504   8.999  0.5430  0.1714  0.5923
  425MOL0     C57282   3.818   8.531   8.847 -0.5647  0.6322 -0.4419
  425MOL0     C57283   3.748   8.668   8.824 -0.1022  0.4126 -1.3103
  425MOL0    Cl57284   3.842   8.810   8.876  0.3755  0.3303  0.1226
  425MOL0     C57285   4.258   7.770   9.122  0.4801  0.2057 -0.1718
  425MOL0     C57286   4.265   7.632   9.107  0.2656  0.7642 -0.5858
  425MOL0     O57287   4.299   7.457   8.814 -1.0887 -0.3986 -0.7891
  425MOL0     C57288   4.082   7.180   8.931 -1.0000 -0.8382 -0.2560
  425MOL0     C57289   4.031   7.054   8.881 -0.8907  0.3136  0.3121
  425MOL0     N57290   3.769   6.409   8.352 -0.8253 -0.8734  0.0918
  425MOL0     N57291   3.667   6.345   8.397  0.1271  0.7006  0.1151
  425MOL0     C57292   3.064   5.727   8.590 -0.1517  0.0290  0.2053
  425MOL0     C57293   3.099   5.592   8.611  0.3642 -0.7820 -0.4492
  425MOL0     C57294   3.073   5.131   8.690  0.4783 -0.0145  0.0327
  425MOL0     C57295   3.211   5.146   8.658  0.1476 -0.1872  0.5666
  425MOL0     C57296   3.295   5.039   8.646 -0.4846 -0.5648 -0.1451
  425MOL0     C57297   3.248   4.912   8.673 -0.4731 -0.4455  0.1700
  425MOL0     O57298   3.343   4.814   8.666 -0.1729 -0.1322  0.5528
  425MOL0     C57299   3.315   4.674   8.667  0.5190 -0.7678  0.6454
  425MOL0     C57300   3.226   4.635   8.542 -1.1620 -0.7754  0.9291
  425MOL0     C57301   3.297   4.664   8.410  0.3510  0.5245  0.8178
  425MOL0     C57302   3.195   4.671   8.297  0.4086  0.3464 -0.6854
  425MOL0     C57303   3.247   4.705   8.166 -0.2441 -0.5203 -0.1057
  425MOL0     C57304   3.292   4.729   8.057  1.0074 -0.1490  0.8812
  425MOL0     C57305   3.118   4.898   8.723  0.4014 -0.7250 -0.6400
  425MOL0     C57306   3.028   5.005   8.734  0.0510  0.3927  0.2702
  425MOL0     C57307   2.887   4.970   8.757  0.3968 -0.6532  0.0996
  425MOL0     H57308   2.819   5.479   8.742 -0.6095  1.1863  3.6891
  425MOL0     H57309   2.756   5.710   8.730 -0.7083 -0.7510 -1.1714
  425MOL0     H57310   2.807   6.069   8.699  1.1222  1.2495 -0.0651
  425MOL0     H57311   2.790   5.928   8.807 -0.5024 -0.1148 -0.4081
  425MOL0     H57312   3.036   5.962   8.852 -0.4525 -1.7568 -1.1110
  425MOL0     H57313   2.914   6.087   8.917 -0.3426  1.6331 -1.4562
  425MOL0     H57314   2.990   6.212   8.686 -0.5577  1.5690  0.0955
  425MOL0     H57315   3.099   6.085   8.662  3.9091  0.1101  2.3755
  425MOL0     H57316   3.085   6.267   8.897 -1.7796 -1.5563  0.1961
  425MOL0     H57317   3.214   6.150   8.881  0.1534  2.5662  2.2598
  425MOL0     H57318   3.195   6.346   8.656  0.0840  3.9072  0.4272
  425MOL0     H57319   3.270   6.400   8.805 -0.6794 -1.6252  2.0644
  425MOL0     H57320   3.397   6.159   8.772  1.4986 -0.5661 -2.6997
  425MOL0     H57321   3.328   6.175   8.608 -1.4173  3.0405  0.3093
  425MOL0     H57322   3.567   6.234   8.626 -1.5839 -1.0959 -2.3963
  425MOL0     H57323   3.524   6.346   8.760 -1.5060  0.3308  0.0677
  425MOL0     H57324   3.414   6.361   8.468  1.7384 -1.3350  0.2515
  425MOL0     H57325   3.421   6.495   8.590  0.6417 -1.5253  3.0411
  425MOL0     H57326   3.623   6.636   8.543  0.5164  0.2565  0.7209
  425MOL0     H57327   3.902   6.599   8.257  4.9762 -0.6323  2.9733
  425MOL0     H57328   3.802   6.724   8.321  3.1123  2.4256  1.3359
  425MOL0     H57329   4.027   6.555   8.470 -0.6669  0.1405  1.4710
  425MOL0     H57330   4.069   6.696   8.373  0.1179  1.2027  0.0265
  425MOL0     H57331   3.875   6.747   8.589 -0.2077 -0.7443 -1.0390
  425MOL0     H57332   3.957   6.850   8.467 -2.3250  1.0842  0.4183
  425MOL0     H57333   4.177   6.812   8.582 -1.5576  3.0239 -0.1673
  425MOL0     H57334   4.115   6.683   8.667  1.2860 -0.8897 -2.4740
  425MOL0     H57335   4.210   7.033   8.590  1.4196 -0.7473  1.0582
  425MOL0     H57336   4.276   7.261   8.672  3.0189 -0.6474  1.5467
  425MOL0     H57337   4.031   7.592   8.871  1.4971  1.4058  0.2603
  425MOL0     H57338   4.007   7.829   8.904  0.4803  0.6889  1.0569
  425MOL0     H57339   4.126   7.991   9.276  0.4725 -0.3818 -0.9373
  425MOL0     H57340   4.286   8.055   9.217  0.0859 -1.1596 -0.5027
  425MOL0     H57341   4.117   8.202   9.305 -0.6911  0.9365 -0.2763
  425MOL0     H57342   4.166   8.242   9.125 -2.8495 -0.1697 -2.7042
  425MOL0     H57343   3.970   8.134   9.073  2.7451  2.0687 -1.1351
  425MOL0     H57344   3.925   8.136   9.249 -1.0152  1.2335  0.0933
  425MOL0     H57345   3.981   8.419   9.189  1.2614  0.8312 -2.4356
  425MOL0     H57346   3.819   8.341   9.189 -1.1350 -1.3019 -0.0952
  425MOL0     H57347   3.866   8.289   8.954  0.6711 -1.3666  1.6647
  425MOL0     H57348   4.007   8.367   8.952  0.7237 -0.0843  1.8119
  425MOL0     H57349   3.751   8.485   9.061  2.8984 -1.8425  3.5659
  425MOL0     H57350   3.883   8.593   9.046 -1.4448  1.4442  0.2005
  425MOL0     H57351   3.750   8.460   8.799 -0.5811  1.5980 -1.9299
  425MOL0     H57352   3.918   8.518   8.805  0.2126 -3.8205  2.1681
  425MOL0     H57353   3.730   8.683   8.717  0.8683  1.3991 -1.3591
  425MOL0     H57354   3.652   8.657   8.875 -0.0627 -2.1470 -1.6944
  425MOL0     H57355   4.317   7.827   9.193 -1.4510  0.8475  0.9800
  425MOL0     H57356   4.330   7.571   9.168 -0.1356  1.9123  1.0445
  425MOL0     H57357   4.051   7.223   9.026 -0.9187 -0.1392 -0.5374
  425MOL0     H57358   3.967   6.987   8.937 -1.4816  0.8800  0.3291
  425MOL0     H57359   3.136   5.793   8.541  0.2286 -2.6266 -3.2075
  425MOL0     H57360   3.184   5.548   8.559 -0.4431 -0.2323 -2.3154
  425MOL0     H57361   3.253   5.243   8.630 -1.4895  1.4296  3.2388
  425MOL0     H57362   3.396   5.047   8.607  0.0346  2.7717  1.6044
  425MOL0     H57363   3.254   4.643   8.753 -2.6574 -1.6214 -1.7359
  425MOL0     H57364   3.407   4.615   8.664 -0.9260 -3.1076 -2.4818
  425MOL0     H57365   3.132   4.691   8.540 -0.5189  0.3409 -0.7698
  425MOL0     H57366   3.191   4.531   8.545 -2.8317 -0.5584 -3.3408
  425MOL0     H57367   3.372   4.587   8.388  0.0781  0.8947 -1.7842
  425MOL0     H57368   3.355   4.757   8.414 -0.5510  1.2948 -1.6504
  425MOL0     H57369   3.146   4.574   8.288  2.2601 -0.5730 -1.4242
  425MOL0     H57370   3.119   4.742   8.332  0.9769  2.1618 -2.8936
  425MOL0     H57371   3.344   4.778   7.977 -1.1172 -1.8519 -1.7350
  425MOL0     H57372   3.094   4.804   8.771 -0.1291 -0.7334 -0.9176
  425MOL0     H57373   2.883   4.864   8.781 -0.9367 -0.5268  0.5382
  425MOL0     H57374   2.849   5.030   8.841 -0.6925 -1.8978  0.5271
  425MOL0     H57375   2.821   4.973   8.669  3.4431 -1.3655 -2.3907
  426MOL0     O57376   1.282   9.321  10.260 -0.1013  0.1324 -0.6845
  426MOL0     C57377   1.380   9.389  10.245 -0.1375  0.5827 -0.1993
  426MOL0     O57378   1.386   9.523  10.285  0.3393  0.3648 -0.7278
  426MOL0     C57379   1.471   9.602  10.221  0.6122 -0.1046  0.0151
  426MOL0     C57380   1.608   9.612  10.255  0.1650  0.6372 -0.2486
  426MOL0     C57381   1.697   9.694  10.185  0.1877  0.4647 -0.4211
  426MOL0     C57382   1.654   9.792  10.093  0.5446  0.2591 -0.2977
  426MOL0     O57383   1.725   9.892  10.039  0.6651 -0.2182  0.0138
  426MOL0     C57384   1.828   9.954  10.127 -0.4789  0.6965  0.4499
  426MOL0     C57385   1.888  10.074  10.063 -0.9386 -0.6651 -0.9545
  426MOL0     C57386   1.974  10.172  10.149  1.2423 -0.0602  0.5825
  426MOL0     C57387   2.024  10.290  10.056  0.3944  0.0077 -0.2829
  426MOL0     C57388   2.096  10.401  10.131  0.0364  0.7439 -0.5583
  426MOL0     C57389   2.241  10.369  10.167  0.4410 -0.2605 -0.3541
  426MOL0     C57390   2.311  10.467  10.256 -0.6285  0.1575  0.7128
  426MOL0     C57391   2.307  10.611  10.199  0.1357  0.8441  0.4240
  426MOL0     N57392   2.363  10.700  10.309 -0.3760 -0.6592 -0.3394
  426MOL0     C57393   2.500  10.708  10.341 -0.6942 -0.0099 -0.3550
  426MOL0     C57394   2.508  10.752  10.463 -0.6912 -0.1668 -0.7891
  426MOL0     C57395   2.631  10.778  10.547 -0.1537  0.9661  0.1253
  426MOL0     C57396   2.642  10.914  10.622  0.5576 -0.0477  0.0983
  426MOL0     C57397   2.624  11.040  10.536 -0.3475  0.3967 -0.0520
  426MOL0     C57398   2.743  11.062  10.447 -0.5085  0.3183 -1.0606
  426MOL0     O57399   2.860  11.002  10.510  0.3860  0.8549  0.1210
  426MOL0     C57400   2.957  11.075  10.583 -0.2586  0.0250  0.0384
  426MOL0     C57401   3.085  11.018  10.615 -0.3349  0.9943  0.8139
  426MOL0     C57402   3.165  11.078  10.709 -0.8709 -1.7515  0.0895
  426MOL0     C57403   3.137  11.207  10.765 -0.1599  0.3745  0.1534
  426MOL0     C57404   3.219  11.271  10.868  0.2569  0.9138  0.0775
  426MOL0     O57405   3.204  11.411  10.894  0.2622  0.0268 -0.0462
  426MOL0     C57406   3.301  11.464  10.983  0.1926 -0.6415  0.3902
  426MOL0     C57407   3.275  11.495  11.123  0.8997 -0.9853  0.7121
  426MOL0     C57408   3.376  11.546  11.196  0.4768  0.8895 -0.1612
  426MOL0     C57409   3.501  11.577  11.146  0.4246 -0.3185  0.5786
  426MOL0     O57410   3.595  11.657  11.213 -0.0834  0.6602 -0.5662
  426MOL0     C57411   3.716  11.587  11.244  0.6091 -0.8791  0.0491
  426MOL0     C57412   3.786  11.663  11.357  0.5335 -0.4417  0.4275
  426MOL0     C57413   3.938  11.627  11.373  0.5829 -0.0373 -0.2909
  426MOL0     C57414   4.015  11.719  11.468  0.9539  0.5735  0.4990
  426MOL0     C57415   4.159  11.686  11.461  0.8463 -0.7629  1.0362
  426MOL0     C57416   4.231  11.768  11.566  0.3961 -0.4672  0.1836
  426MOL0     C57417   4.260  11.906  11.515 -0.3157 -0.4541 -0.1737
  426MOL0     C57418   4.370  11.956  11.608 -1.0282  0.8434 -0.4110
  426MOL0    Cl57419   4.314  11.927  11.778 -0.1294  0.1013  0.1175
  426MOL0     C57420   3.537  11.526  11.023 -0.3681 -0.0607 -0.2466
  426MOL0     C57421   3.436  11.478  10.940 -0.0854  0.0934  0.6402
  426MOL0     O57422   3.309  11.202  10.917  0.5010  0.7879 -0.3303
  426MOL0     C57423   3.021  11.275  10.714  0.4239  0.3212  0.5846
  426MOL0     C57424   2.931  11.213  10.626  0.1995 -0.9243 -0.4450
  426MOL0     N57425   2.378  10.773  10.504  0.3922  0.0843  0.6797
  426MOL0     N57426   2.290  10.743  10.412 -0.7563  0.8972  0.6196
  426MOL0     C57427   1.513   9.775  10.054 -0.3113 -0.0802 -0.2512
  426MOL0     C57428   1.428   9.677  10.115  0.4402 -0.2591 -0.3056
  426MOL0     C57429   1.488   9.319  10.173  0.0070 -0.0183  0.5360
  426MOL0     C57430   1.579   9.258  10.254  0.6923 -0.5858  0.3868
  426MOL0     C57431   1.695   9.186  10.199  1.1133  0.0859  0.2365
  426MOL0     C57432   1.714   9.193  10.059  0.7720 -0.3676  0.2631
  426MOL0     O57433   1.826   9.148   9.997 -0.7265  0.9719  0.8394
  426MOL0     C57434   1.908   9.046  10.059  0.5753 -0.0773  1.4080
  426MOL0     C57435   2.012   9.000   9.961 -0.0743 -0.3531 -0.4381
  426MOL0     C57436   2.049   9.096   9.849 -0.7573 -1.3565 -0.1937
  426MOL0     C57437   2.113   9.222   9.898  0.1358  0.6582 -0.6401
  426MOL0     C57438   2.191   9.288   9.793 -0.2519 -0.5993  1.4749
  426MOL0     C57439   2.260   9.341   9.698  0.3133  1.1026 -0.5851
  426MOL0     C57440   1.619   9.256   9.980  0.1402  0.5532  0.1279
  426MOL0     C57441   1.497   9.317  10.030 -0.1043  0.1788 -0.2616
  426MOL0     C57442   1.403   9.376   9.925 -0.1656 -0.3088 -0.6237
  426MOL0     H57443   1.636   9.541  10.332 -0.5474  1.0999  0.4495
  426MOL0     H57444   1.805   9.689  10.197  0.2369 -1.8585 -1.3318
  426MOL0     H57445   1.788   9.980  10.225 -0.7842 -1.3978  0.9324
  426MOL0     H57446   1.905   9.878  10.143 -0.5224  0.5562  0.0018
  426MOL0     H57447   1.812  10.117   9.997  0.8031  0.5188 -2.2873
  426MOL0     H57448   1.950  10.021   9.990  0.2602 -1.2233  0.4233
  426MOL0     H57449   2.057  10.118  10.195 -0.7849 -0.1455  4.5750
  426MOL0     H57450   1.902  10.217  10.219 -0.7304  0.0597 -1.4186
  426MOL0     H57451   2.099  10.240   9.994 -0.4964 -2.2292  0.3344
  426MOL0     H57452   1.949  10.324   9.985  2.4416  3.7823 -0.9142
  426MOL0     H57453   2.103  10.487  10.064  1.2472 -0.8328 -2.5978
  426MOL0     H57454   2.049  10.431  10.225  2.0219 -2.0403  1.4901
  426MOL0     H57455   2.239  10.272  10.218  0.2733  0.5308  1.2230
  426MOL0     H57456   2.300  10.357  10.076 -0.7093 -1.0470 -1.0230
  426MOL0     H57457   2.415  10.434  10.262  0.9040  4.4187  1.4442
  426MOL0     H57458   2.285  10.470  10.362  1.4635  0.9100  1.2723
  426MOL0     H57459   2.359  10.617  10.103  0.5299 -0.1679  0.5536
  426MOL0     H57460   2.201  10.635  10.182 -0.3954 -2.1290 -1.2067
  426MOL0     H57461   2.593  10.686  10.289  2.3590  1.1647  3.9845
  426MOL0     H57462   2.648  10.700  10.622 -3.1504  1.2352  1.1898
  426MOL0     H57463   2.719  10.783  10.482 -1.2337 -0.6327 -1.5315
  426MOL0     H57464   2.545  10.913  10.673 -1.3518  0.1340 -3.1580
  426MOL0     H57465   2.721  10.922  10.696 -1.8059  0.3754  2.7254
  426MOL0     H57466   2.627  11.121  10.610  0.0595 -2.1619  2.9131
  426MOL0     H57467   2.525  11.040  10.489 -0.0752 -0.6731 -0.6585
  426MOL0     H57468   2.757  11.167  10.422  3.0121  0.4022  0.6788
  426MOL0     H57469   2.726  11.009  10.353 -1.6378 -1.2838 -0.0279
  426MOL0     H57470   3.112  10.921  10.575  0.3303  0.9385  1.3854
  426MOL0     H57471   3.263  11.038  10.734  0.1830  0.4567 -0.2401
  426MOL0     H57472   3.173  11.467  11.147 -1.5460  1.5686 -4.7823
  426MOL0     H57473   3.357  11.576  11.298  2.1218  0.6551  0.2338
  426MOL0     H57474   3.693  11.494  11.297 -0.0308 -0.2474  0.9240
  426MOL0     H57475   3.778  11.572  11.155  1.6192 -3.8637  1.1098
  426MOL0     H57476   3.796  11.764  11.316  1.1515 -0.7734 -0.2777
  426MOL0     H57477   3.727  11.663  11.449  1.8818  0.0798  1.3200
  426MOL0     H57478   3.937  11.525  11.413 -0.2939  1.1327  3.0810
  426MOL0     H57479   3.976  11.637  11.271 -0.5234 -2.5042 -1.0321
  426MOL0     H57480   3.975  11.709  11.569 -0.7478  1.5183 -0.0575
  426MOL0     H57481   4.001  11.821  11.433  3.0114  0.1276 -1.9389
  426MOL0     H57482   4.190  11.709  11.358 -3.7563 -0.3973 -0.4824
  426MOL0     H57483   4.170  11.579  11.481 -1.4014 -1.8698 -2.5453
  426MOL0     H57484   4.169  11.762  11.657 -0.7987 -2.1409 -0.6757
  426MOL0     H57485   4.331  11.726  11.576  0.6742  0.0220 -0.4629
  426MOL0     H57486   4.173  11.972  11.516 -0.7399 -1.0010  0.5054
  426MOL0     H57487   4.302  11.905  11.414  0.1829  0.6391  0.0158
  426MOL0     H57488   4.462  11.899  11.588 -1.2440  0.4880 -0.4051
  426MOL0     H57489   4.393  12.061  11.587 -0.3781  0.4991 -1.5441
  426MOL0     H57490   3.629  11.546  10.969 -1.1964  1.5889 -1.1532
  426MOL0     H57491   3.456  11.441  10.840  3.3374 -2.5451  2.0784
  426MOL0     H57492   3.014  11.380  10.739 -1.1271 -0.5611  4.5549
  426MOL0     H57493   2.840  11.261  10.592  1.6055  1.4053 -1.1279
  426MOL0     H57494   1.467   9.852   9.993 -1.1251  2.1933  2.9979
  426MOL0     H57495   1.322   9.673  10.090 -0.1871  0.7131  1.9563
  426MOL0     H57496   1.550   9.263  10.358 -3.1009  0.7264 -0.6027
  426MOL0     H57497   1.758   9.129  10.266 -0.2131 -1.4845  0.2087
  426MOL0     H57498   1.850   8.954  10.071  0.8429 -0.6451 -1.1185
  426MOL0     H57499   1.957   9.086  10.149 -4.2759  3.7933  2.7653
  426MOL0     H57500   1.956   8.917   9.918 -1.9167 -0.5851  2.1327
  426MOL0     H57501   2.104   8.970  10.013 -1.8433 -0.5992  2.8498
  426MOL0     H57502   1.966   9.130   9.786  0.0877  0.7097 -0.2818
  426MOL0     H57503   2.116   9.035   9.788  1.1575  2.1163 -1.8756
  426MOL0     H57504   2.037   9.291   9.934  0.9763  1.6932 -0.7851
  426MOL0     H57505   2.182   9.192   9.977 -1.0697 -0.9175 -0.1242
  426MOL0     H57506   2.325   9.382   9.624  2.2885 -2.0636 -0.8222
  426MOL0     H57507   1.623   9.240   9.873 -2.4725 -2.7126  0.3490
  426MOL0     H57508   1.409   9.319   9.832 -0.1955  1.4189 -1.7312
  426MOL0     H57509   1.301   9.371   9.962  0.2324  0.9645  0.7598
  426MOL0     H57510   1.425   9.480   9.898 -0.1515 -0.5346 -1.5352
  427MOL0     O57511   3.108  11.244  11.489  0.1843 -1.0057 -0.5156
  427MOL0     C57512   3.048  11.204  11.587  0.3633 -0.2362  0.4048
  427MOL0     O57513   3.087  11.217  11.712  0.1604  0.0892  0.0977
  427MOL0     C57514   3.200  11.287  11.742  0.8423 -0.1478 -0.0478
  427MOL0     C57515   3.272  11.245  11.849 -0.4461  0.0165 -0.3523
  427MOL0     C57516   3.379  11.310  11.918 -0.5232 -0.3293 -0.0054
  427MOL0     C57517   3.420  11.432  11.863 -0.0546  0.0975  0.8019
  427MOL0     O57518   3.517  11.516  11.910 -0.5395  0.3181 -0.8033
  427MOL0     C57519   3.616  11.465  12.000 -0.5820  0.8183 -0.2987
  427MOL0     C57520   3.715  11.582  12.014 -0.6087  0.7359 -0.1470
  427MOL0     C57521   3.803  11.594  11.901 -0.5595 -0.0170  0.3257
  427MOL0     C57522   3.937  11.655  11.953 -0.7152  0.1907 -0.0213
  427MOL0     C57523   3.915  11.802  11.995 -0.4270 -0.7039  0.1170
  427MOL0     C57524   4.049  11.884  11.986  0.6025 -0.0380 -0.3021
  427MOL0     C57525   4.035  12.013  12.056  0.3751 -0.5840 -0.1673
  427MOL0     C57526   3.936  12.115  11.984  0.8318 -0.3588 -0.2530
  427MOL0     N57527   3.792  12.124  12.036 -0.8855  0.2556  0.2785
  427MOL0     C57528   3.677  12.097  11.965  0.0757  0.6282 -0.4654
  427MOL0     C57529   3.578  12.122  12.046  0.2859 -0.4706  0.5061
  427MOL0     C57530   3.439  12.069  12.024  0.1353  0.1270 -0.1630
  427MOL0     C57531   3.435  11.914  12.058 -0.1079  0.3643 -0.4543
  427MOL0     C57532   3.336  11.828  11.982  0.4653 -0.5063  0.6049
  427MOL0     C57533   3.200  11.891  11.966  0.5009 -0.6220  0.3494
  427MOL0     O57534   3.133  11.786  11.892  0.5855  0.8553 -0.0525
  427MOL0     C57535   3.009  11.813  11.843 -0.1771  0.1696 -0.0407
  427MOL0     C57536   2.930  11.706  11.805 -0.2812 -0.0673 -0.0587
  427MOL0     C57537   2.799  11.724  11.766  0.6791 -0.3577  0.1376
  427MOL0     C57538   2.745  11.853  11.753 -0.6687  0.7310  0.3172
  427MOL0     C57539   2.604  11.872  11.714  0.5409  0.3717 -0.5581
  427MOL0     O57540   2.546  11.805  11.613 -0.2244 -0.4512  0.4021
  427MOL0     C57541   2.421  11.828  11.575  0.4584 -0.0597  0.3457
  427MOL0     C57542   2.367  11.951  11.538 -0.0310  0.0112 -0.3836
  427MOL0     C57543   2.231  11.957  11.515  0.7509 -0.0671 -0.0748
  427MOL0     C57544   2.150  11.848  11.504 -0.0070  0.7069 -0.6350
  427MOL0     O57545   2.018  11.848  11.458 -0.2246 -0.1570 -1.0514
  427MOL0     C57546   1.928  11.962  11.489 -0.0413  0.7127  0.2066
  427MOL0     C57547   1.781  11.926  11.447 -0.6277  0.1242 -1.0784
  427MOL0     C57548   1.760  11.833  11.328  0.5365 -0.1685  1.2438
  427MOL0     C57549   1.626  11.860  11.250 -0.0360 -0.6464 -0.0601
  427MOL0     C57550   1.498  11.824  11.318  0.2123 -0.4449  0.4011
  427MOL0     C57551   1.373  11.851  11.222 -1.0413  0.6008  0.1107
  427MOL0     C57552   1.263  11.757  11.261 -0.1704  0.0513  0.6159
  427MOL0     C57553   1.122  11.810  11.250  0.3022  1.0906 -0.3585
  427MOL0    Cl57554   0.994  11.692  11.304  0.1710 -0.1527 -0.1406
  427MOL0     C57555   2.214  11.717  11.517 -0.2309 -0.6377 -0.4682
  427MOL0     C57556   2.348  11.703  11.561  0.4118 -0.0869  1.1086
  427MOL0     O57557   2.541  11.963  11.775  0.1579  0.9616  1.0464
  427MOL0     C57558   2.821  11.962  11.794 -0.0946  1.1285 -0.1952
  427MOL0     C57559   2.951  11.939  11.832  0.7759  0.5879  0.2310
  427MOL0     N57560   3.626  12.173  12.171  1.2970 -0.5830 -0.3051
  427MOL0     N57561   3.755  12.162  12.160 -1.0693  0.7167 -0.1355
  427MOL0     C57562   3.356  11.476  11.746 -0.9828 -0.5050 -0.1919
  427MOL0     C57563   3.247  11.410  11.690 -0.3627  1.0520 -0.1802
  427MOL0     C57564   2.925  11.126  11.571  0.0545 -0.2377  0.6748
  427MOL0     C57565   2.801  11.171  11.629  0.8011  0.1798  0.3705
  427MOL0     C57566   2.687  11.098  11.605 -0.3142 -0.9037  0.7104
  427MOL0     C57567   2.680  10.993  11.520  0.9439  0.4214 -0.4068
  427MOL0     O57568   2.552  10.944  11.495 -0.7350  0.3767  0.2422
  427MOL0     C57569   2.527  10.866  11.373 -0.2321  0.7388 -0.0844
  427MOL0     C57570   2.533  10.717  11.414 -0.8681  0.7450 -0.2383
  427MOL0     C57571   2.460  10.636  11.302  0.4403  0.0632  1.0957
  427MOL0     C57572   2.487  10.488  11.315 -0.8725 -0.0975 -0.1032
  427MOL0     C57573   2.631  10.462  11.289  1.1578 -1.0248  0.4339
  427MOL0     C57574   2.746  10.451  11.250 -0.5958  0.2475 -1.2574
  427MOL0     C57575   2.798  10.962  11.443 -0.3246  0.1882 -0.3611
  427MOL0     C57576   2.919  11.021  11.483  0.1897  0.3673  0.4863
  427MOL0     C57577   3.044  10.960  11.404  0.3558 -0.5530 -0.1174
  427MOL0     H57578   3.240  11.152  11.896 -1.2824  0.8653  0.8342
  427MOL0     H57579   3.421  11.265  12.008 -3.2531 -1.2993  0.8800
  427MOL0     H57580   3.573  11.425  12.092 -0.6171 -0.1618 -0.7257
  427MOL0     H57581   3.671  11.382  11.954 -0.8988  0.0499  0.6604
  427MOL0     H57582   3.772  11.555  12.104 -0.6154  0.6365 -0.1726
  427MOL0     H57583   3.661  11.675  12.035 -2.0774 -0.3631  1.2521
  427MOL0     H57584   3.761  11.663  11.826  2.2855 -1.1144 -2.5080
  427MOL0     H57585   3.831  11.496  11.862  0.3736  1.1399 -2.1696
  427MOL0     H57586   3.992  11.600  12.030  1.6520 -0.5031 -2.1003
  427MOL0     H57587   4.001  11.671  11.866 -0.6517  0.1032  0.0103
  427MOL0     H57588   3.834  11.845  11.935  1.3162 -0.6048 -2.3558
  427MOL0     H57589   3.886  11.803  12.100 -1.3934 -0.1739 -0.1437
  427MOL0     H57590   4.134  11.823  12.018  0.3541 -0.4214 -0.3694
  427MOL0     H57591   4.065  11.921  11.884 -3.2898  1.1733 -0.6410
  427MOL0     H57592   4.134  12.057  12.042  1.3705 -2.4364  0.7283
  427MOL0     H57593   4.006  12.007  12.161 -1.7802 -0.6465 -0.7040
  427MOL0     H57594   3.984  12.210  12.012  2.3228 -1.8118  2.5793
  427MOL0     H57595   3.949  12.113  11.875  4.7355  0.5982  0.0335
  427MOL0     H57596   3.661  12.041  11.874  0.2817 -0.7497  0.3153
  427MOL0     H57597   3.363  12.126  12.079  3.8415  2.7602  2.8005
  427MOL0     H57598   3.409  12.080  11.920 -0.7140  0.5814  0.1173
  427MOL0     H57599   3.538  11.879  12.044 -0.4488 -0.2567 -1.5001
  427MOL0     H57600   3.405  11.902  12.163 -0.8734  2.0178 -0.4538
  427MOL0     H57601   3.320  11.735  12.037 -0.8443  1.0476  3.0398
  427MOL0     H57602   3.371  11.799  11.883  0.2343 -1.4856  0.7964
  427MOL0     H57603   3.206  11.984  11.909  1.9642 -1.4219 -0.8760
  427MOL0     H57604   3.151  11.913  12.061 -2.2135 -2.1422 -0.5867
  427MOL0     H57605   2.966  11.605  11.820  1.6365  0.6340  0.4334
  427MOL0     H57606   2.745  11.633  11.745  1.9035 -1.3404  1.0588
  427MOL0     H57607   2.421  12.040  11.569 -2.8750  1.5844  0.3983
  427MOL0     H57608   2.175  12.049  11.516  1.3543  0.3032  0.6693
  427MOL0     H57609   1.924  11.993  11.594  2.1459 -1.8589  1.1752
  427MOL0     H57610   1.954  12.037  11.414 -2.6609 -4.1336 -6.4524
  427MOL0     H57611   1.747  11.878  11.539  2.5224  0.1997  0.2223
  427MOL0     H57612   1.740  12.027  11.439  0.4715  0.6333 -0.4294
  427MOL0     H57613   1.831  11.839  11.245 -3.0139 -1.1486 -2.1852
  427MOL0     H57614   1.769  11.730  11.363 -2.3051  0.0320  2.8442
  427MOL0     H57615   1.624  11.810  11.153  1.2484 -0.8986  0.0261
  427MOL0     H57616   1.622  11.969  11.235  0.5579 -0.2492  2.3434
  427MOL0     H57617   1.491  11.886  11.408  0.0092  4.2617 -2.5257
  427MOL0     H57618   1.503  11.719  11.349 -2.0484 -0.9090 -0.6111
  427MOL0     H57619   1.329  11.950  11.240 -1.1568  1.3966 -3.7302
  427MOL0     H57620   1.393  11.832  11.117  1.6474  1.3164  0.4188
  427MOL0     H57621   1.274  11.738  11.368 -1.3439  3.3967  1.4655
  427MOL0     H57622   1.272  11.671  11.195  1.8272 -0.1557  1.0719
  427MOL0     H57623   1.118  11.889  11.325 -1.0008  1.3607 -0.6825
  427MOL0     H57624   1.117  11.830  11.143  3.8529  1.4880 -0.5654
  427MOL0     H57625   2.156  11.628  11.493 -3.7805  1.5770 -0.7918
  427MOL0     H57626   2.383  11.602  11.575 -0.1173 -0.6706 -1.2922
  427MOL0     H57627   2.788  12.059  11.829  1.1094  0.4535  3.2521
  427MOL0     H57628   3.000  12.023  11.882  3.0955 -1.9214  2.4771
  427MOL0     H57629   3.403  11.568  11.713  2.6571 -1.0473  2.7735
  427MOL0     H57630   3.193  11.453  11.606 -0.3339 -1.3787 -1.5462
  427MOL0     H57631   2.814  11.268  11.676 -2.8295  0.3695  1.2436
  427MOL0     H57632   2.598  11.140  11.651  0.6001 -0.1293  1.8393
  427MOL0     H57633   2.594  10.890  11.290 -0.6943  0.8278 -0.4351
  427MOL0     H57634   2.426  10.888  11.340 -1.3548 -2.6435  0.6533
  427MOL0     H57635   2.478  10.689  11.504  1.1510 -0.5896  0.6464
  427MOL0     H57636   2.636  10.690  11.439 -1.4091 -2.0427 -0.7278
  427MOL0     H57637   2.480  10.679  11.203 -1.2262 -2.4947 -0.4612
  427MOL0     H57638   2.352  10.655  11.307  0.6472  2.6585 -1.3762
  427MOL0     H57639   2.463  10.455  11.416  0.2907  1.2842  0.6640
  427MOL0     H57640   2.423  10.444  11.237  1.8162  0.7072 -2.9671
  427MOL0     H57641   2.847  10.448  11.214 -0.3143  3.1623 -0.8969
  427MOL0     H57642   2.795  10.884  11.368  3.1375 -0.3537 -0.1098
  427MOL0     H57643   3.118  11.039  11.389  0.8503 -0.9485  0.2132
  427MOL0     H57644   3.102  10.892  11.467  3.2945  2.2567  0.4721
  427MOL0     H57645   3.021  10.916  11.307 -1.3967  1.6339 -0.7863
  428MOL0     O57646   5.947   1.602   0.651  0.2362 -0.3924  0.1397
  428MOL0     C57647   5.973   1.716   0.688  0.0233 -1.1427  0.0244
  428MOL0     O57648   5.993   1.745   0.821 -0.1724  0.0181  0.3816
  428MOL0     C57649   5.987   1.661   0.927  0.3991 -0.6396  0.0791
  428MOL0     C57650   5.931   1.531   0.943  0.4054  0.1292 -0.6939
  428MOL0     C57651   5.950   1.470   1.074 -0.0392 -0.6413 -0.7079
  428MOL0     C57652   6.017   1.522   1.189  0.4154 -0.2105 -0.6207
  428MOL0     O57653   6.032   1.443   1.305  0.4681  0.1892  0.7492
  428MOL0     C57654   6.107   1.496   1.405 -0.4890 -0.7218 -0.6730
  428MOL0     C57655   6.077   1.412   1.528  0.4538 -0.3041  0.8992
  428MOL0     C57656   6.169   1.431   1.646 -0.2378 -0.0956  0.3014
  428MOL0     C57657   6.167   1.310   1.747 -0.1934 -0.1539 -0.0383
  428MOL0     C57658   6.242   1.332   1.884 -0.5573 -0.0176  0.7048
  428MOL0     C57659   6.266   1.190   1.949  0.2420 -0.2180  0.1379
  428MOL0     C57660   6.400   1.130   1.920  0.0017 -0.6924 -0.1316
  428MOL0     C57661   6.447   1.007   1.998 -0.3652 -0.1839 -0.0316
  428MOL0     N57662   6.452   1.033   2.142 -0.0775 -0.3675  0.9610
  428MOL0     C57663   6.494   1.151   2.199 -0.3513 -0.0581  0.4616
  428MOL0     C57664   6.458   1.141   2.322  1.3010 -0.5428  0.3517
  428MOL0     C57665   6.490   1.262   2.405 -0.4064  0.1426 -0.6826
  428MOL0     C57666   6.633   1.238   2.471  0.4825  0.3263 -0.4159
  428MOL0     C57667   6.692   1.363   2.526  1.1512 -1.0857  0.9749
  428MOL0     C57668   6.833   1.340   2.593 -0.3369 -0.7330 -0.6696
  428MOL0     O57669   6.811   1.295   2.730  0.1202  0.6617 -0.0149
  428MOL0     C57670   6.909   1.225   2.789  0.8590 -0.0470 -0.2249
  428MOL0     C57671   7.037   1.185   2.744 -0.7726 -0.2171  0.1609
  428MOL0     C57672   7.137   1.136   2.826  0.4621  0.6968 -0.0538
  428MOL0     C57673   7.118   1.110   2.964 -0.3226  0.3971  0.3503
  428MOL0     C57674   7.226   1.064   3.044  0.1491 -0.5058 -0.1839
  428MOL0     O57675   7.219   1.105   3.178  0.1942 -0.0502  0.4420
  428MOL0     C57676   7.327   1.087   3.259 -0.5426  0.4578  0.2037
  428MOL0     C57677   7.391   0.959   3.278 -0.6702 -0.0547  0.2394
  428MOL0     C57678   7.505   0.949   3.366  0.1673  0.3676  0.6075
  428MOL0     C57679   7.545   1.059   3.435 -0.0783  0.0547 -1.0031
  428MOL0     O57680   7.649   1.063   3.525  0.0544 -0.0443 -0.1501
  428MOL0     C57681   7.600   1.093   3.655  0.0890  0.6102 -1.1554
  428MOL0     C57682   7.714   1.048   3.750  0.5595  0.2411  0.3273
  428MOL0     C57683   7.667   1.075   3.897 -0.7209 -0.3106  0.4658
  428MOL0     C57684   7.769   1.012   3.999  0.2457 -0.7257 -0.5154
  428MOL0     C57685   7.878   1.114   4.058  0.3326  0.2599  0.2474
  428MOL0     C57686   7.971   1.186   3.955 -0.0663 -0.9105 -0.4332
  428MOL0     C57687   8.105   1.242   4.015  0.6847 -0.3152 -0.0204
  428MOL0     C57688   8.239   1.155   4.012 -0.0832 -0.3480 -1.0999
  428MOL0    Cl57689   8.348   1.192   3.881 -0.0840  0.2616  0.1162
  428MOL0     C57690   7.482   1.182   3.414  0.2432  0.8760 -0.7560
  428MOL0     C57691   7.374   1.192   3.335  1.1949 -0.2587  1.1857
  428MOL0     O57692   7.327   1.020   2.989  0.4255  0.2254 -0.7421
  428MOL0     C57693   6.982   1.124   3.010  0.6672 -0.4856  0.6001
  428MOL0     C57694   6.884   1.180   2.916 -0.1961  0.2113 -0.3248
  428MOL0     N57695   6.413   1.013   2.356  0.1749 -0.2461 -0.2433
  428MOL0     N57696   6.402   0.951   2.243 -0.9095  0.9823  0.2883
  428MOL0     C57697   6.055   1.649   1.169 -0.5958  0.5038 -0.8084
  428MOL0     C57698   6.045   1.715   1.044 -0.1236 -0.2304 -0.4213
  428MOL0     C57699   5.996   1.829   0.597 -0.6101 -0.1674  0.0848
  428MOL0     C57700   6.069   1.935   0.651  0.3954  0.9628 -0.1707
  428MOL0     C57701   6.081   2.055   0.574 -0.0448  0.1526  0.5639
  428MOL0     C57702   6.030   2.061   0.447  0.1592 -0.3522 -0.1101
  428MOL0     O57703   6.042   2.182   0.381 -0.0751 -0.7974  0.2939
  428MOL0     C57704   6.041   2.187   0.236 -0.1304 -0.5774 -0.4021
  428MOL0     C57705   6.032   2.326   0.197  0.2126 -0.1073  1.0435
  428MOL0     C57706   6.169   2.391   0.205  0.4011  0.1410  0.3000
  428MOL0     C57707   6.165   2.543   0.176 -0.8180 -1.2709 -0.3219
  428MOL0     C57708   6.303   2.584   0.143 -0.0039 -0.2251 -0.1387
  428MOL0     C57709   6.407   2.616   0.095  0.2377 -0.0268 -0.1709
  428MOL0     C57710   5.951   1.961   0.400  0.4481  0.2402 -1.0390
  428MOL0     C57711   5.931   1.842   0.467  1.0665  0.4933  0.9451
  428MOL0     C57712   5.844   1.720   0.406 -0.0105 -0.7434 -0.2791
  428MOL0     H57713   5.867   1.499   0.861 -0.2514 -1.5400  0.4401
  428MOL0     H57714   5.899   1.377   1.097  0.8373 -1.0790 -0.4919
  428MOL0     H57715   6.214   1.489   1.382 -0.2508 -1.5139  0.5181
  428MOL0     H57716   6.080   1.601   1.417  4.3127  0.9609 -2.1479
  428MOL0     H57717   6.066   1.307   1.502  0.2710 -0.3548  1.1806
  428MOL0     H57718   5.979   1.442   1.566 -0.2539 -1.7345  0.2770
  428MOL0     H57719   6.150   1.523   1.701 -0.1738 -0.6386  1.2464
  428MOL0     H57720   6.269   1.446   1.605 -0.2437  1.6934  0.8460
  428MOL0     H57721   6.061   1.288   1.758 -0.3262  1.1195  1.8825
  428MOL0     H57722   6.221   1.230   1.696  0.1145  0.6811 -1.0492
  428MOL0     H57723   6.339   1.383   1.882  0.0760 -0.9917 -3.5125
  428MOL0     H57724   6.176   1.395   1.943  0.3400  1.7298 -0.0984
  428MOL0     H57725   6.254   1.215   2.055  1.9706 -1.2351  0.6011
  428MOL0     H57726   6.180   1.125   1.935 -2.1184  2.5241  0.8916
  428MOL0     H57727   6.479   1.204   1.931 -1.1063  0.6238 -0.8042
  428MOL0     H57728   6.389   1.082   1.822 -1.3101 -3.4473  1.2370
  428MOL0     H57729   6.386   0.919   1.975  1.4082 -1.1605 -1.2366
  428MOL0     H57730   6.543   0.974   1.957  0.2173  0.7373  0.5650
  428MOL0     H57731   6.531   1.237   2.144  1.7260  0.6552  2.7581
  428MOL0     H57732   6.490   1.354   2.346  1.5731  0.3783 -0.3979
  428MOL0     H57733   6.411   1.265   2.481 -0.8031 -2.4194 -0.8845
  428MOL0     H57734   6.636   1.169   2.556 -0.0497 -0.6515 -1.1729
  428MOL0     H57735   6.698   1.203   2.390  0.7586  0.1459 -0.1174
  428MOL0     H57736   6.621   1.421   2.587  1.5678 -0.5722  0.9729
  428MOL0     H57737   6.708   1.422   2.436  0.9042 -1.1496  0.8859
  428MOL0     H57738   6.904   1.423   2.588  1.5201 -2.1621  0.9136
  428MOL0     H57739   6.879   1.258   2.537 -0.5814 -0.1095 -1.8350
  428MOL0     H57740   7.077   1.208   2.646 -2.5428  0.4134 -0.4493
  428MOL0     H57741   7.228   1.117   2.770  1.1175 -2.3516  1.8094
  428MOL0     H57742   7.352   0.873   3.225 -0.0557 -1.7186  2.3319
  428MOL0     H57743   7.565   0.859   3.358  0.4067  0.6811 -2.0102
  428MOL0     H57744   7.583   1.199   3.675 -0.5289  0.2313  0.4472
  428MOL0     H57745   7.508   1.034   3.668  0.9288 -0.7176 -1.0722
  428MOL0     H57746   7.728   0.941   3.734 -0.1773  0.3730 -1.4079
  428MOL0     H57747   7.805   1.105   3.729  1.6577 -1.1996  0.9709
  428MOL0     H57748   7.646   1.179   3.921  1.5318 -0.0474  1.5717
  428MOL0     H57749   7.572   1.020   3.905 -0.9884  0.4127  4.5065
  428MOL0     H57750   7.805   0.921   3.949 -0.5505 -0.8719 -0.8454
  428MOL0     H57751   7.712   0.976   4.086  4.8642 -1.0127  2.7307
  428MOL0     H57752   7.941   1.056   4.125 -0.8357 -0.2416  0.9451
  428MOL0     H57753   7.838   1.189   4.128  3.7895  0.1398  2.6038
  428MOL0     H57754   7.984   1.116   3.872  0.7681 -0.5389 -0.6292
  428MOL0     H57755   7.911   1.269   3.916  0.3194 -0.1156  0.6143
  428MOL0     H57756   8.086   1.243   4.123 -0.7913  0.4880 -0.2652
  428MOL0     H57757   8.130   1.342   3.980  2.0240 -0.7464 -0.3262
  428MOL0     H57758   8.298   1.188   4.098 -0.2991  1.7486 -1.6857
  428MOL0     H57759   8.215   1.049   4.019 -1.6740  0.0048 -0.7616
  428MOL0     H57760   7.510   1.269   3.473  1.5068 -0.0239  0.0240
  428MOL0     H57761   7.315   1.284   3.335  3.6315  1.4008  0.9524
  428MOL0     H57762   6.954   1.097   3.111 -2.3599  2.6584  0.8178
  428MOL0     H57763   6.792   1.222   2.955 -0.1027 -0.1050  0.2485
  428MOL0     H57764   6.102   1.698   1.254 -1.8673 -0.8788  0.7600
  428MOL0     H57765   6.075   1.818   1.054  1.6356 -0.7960  0.5696
  428MOL0     H57766   6.111   1.954   0.749 -0.2117  0.6619  0.1573
  428MOL0     H57767   6.132   2.141   0.615  1.6482  0.8092 -2.6480
  428MOL0     H57768   5.963   2.126   0.190 -1.2541 -0.8723  1.7446
  428MOL0     H57769   6.136   2.148   0.199 -0.1144 -1.2686  0.3329
  428MOL0     H57770   5.964   2.380   0.264 -0.4438 -0.7473  0.9073
  428MOL0     H57771   5.992   2.325   0.095 -2.7104  0.7829  2.0812
  428MOL0     H57772   6.235   2.335   0.137 -1.1251 -1.7255  0.2813
  428MOL0     H57773   6.211   2.393   0.306 -3.0690  3.1465  1.9335
  428MOL0     H57774   6.101   2.567   0.091  1.0389  0.3320 -1.3671
  428MOL0     H57775   6.132   2.601   0.262 -1.5885 -2.9790  0.5809
  428MOL0     H57776   6.505   2.644   0.061  0.9299 -1.7523  0.3205
  428MOL0     H57777   5.901   1.970   0.304  1.6330 -0.7889 -1.7784
  428MOL0     H57778   5.815   1.743   0.303  3.1953 -0.9374 -1.3660
  428MOL0     H57779   5.900   1.627   0.389  1.6086  0.5031 -2.2251
  428MOL0     H57780   5.762   1.693   0.473 -2.1482  2.1381 -1.5209
  429MOL0     O57781   4.563   7.522   4.350  0.6511  0.0624 -0.2577
  429MOL0     C57782   4.446   7.501   4.329 -0.3696  0.3364  0.0827
  429MOL0     O57783   4.357   7.589   4.309  0.2528  0.0955  0.1088
  429MOL0     C57784   4.379   7.725   4.347  0.2845  0.8541  0.6292
  429MOL0     C57785   4.441   7.756   4.466  0.2242 -0.3283  0.5755
  429MOL0     C57786   4.472   7.892   4.504  0.1168  0.4618 -0.6086
  429MOL0     C57787   4.434   8.001   4.417 -0.4700  1.6734  0.5603
  429MOL0     O57788   4.477   8.127   4.444 -0.4877 -0.0700 -0.6929
  429MOL0     C57789   4.413   8.244   4.390  0.2476 -0.3468  0.2117
  429MOL0     C57790   4.504   8.313   4.279  0.2471  0.4437  0.5730
  429MOL0     C57791   4.630   8.403   4.314 -0.2565  0.3917 -0.1933
  429MOL0     C57792   4.676   8.504   4.204 -0.4048  0.0749 -0.1036
  429MOL0     C57793   4.815   8.575   4.230  0.0530  0.2589 -1.0351
  429MOL0     C57794   4.930   8.478   4.215  0.1452  0.2172  1.4331
  429MOL0     C57795   5.070   8.544   4.225 -0.2008  0.5296  1.2667
  429MOL0     C57796   5.170   8.442   4.282  0.5404 -0.5628  0.0546
  429MOL0     N57797   5.308   8.489   4.280  0.0629 -0.3028  0.3247
  429MOL0     C57798   5.361   8.586   4.360  0.8011 -0.1973  0.2959
  429MOL0     C57799   5.493   8.580   4.333  1.5518  0.1534  0.1186
  429MOL0     C57800   5.602   8.654   4.400  0.3471  0.5154 -0.5642
  429MOL0     C57801   5.610   8.629   4.552 -0.9099  0.5754  0.8602
  429MOL0     C57802   5.743   8.695   4.592 -0.2684  0.4106  0.8727
  429MOL0     C57803   5.791   8.649   4.738  0.5273  0.3566 -0.7427
  429MOL0     O57804   5.711   8.713   4.844  0.5431  0.0924  0.5245
  429MOL0     C57805   5.718   8.655   4.964  0.6523 -0.2365  0.5546
  429MOL0     C57806   5.615   8.682   5.047 -0.5526 -0.0442  0.7987
  429MOL0     C57807   5.604   8.627   5.180 -0.8701  0.3818 -0.4222
  429MOL0     C57808   5.708   8.550   5.229 -0.1164 -0.3193 -0.8468
  429MOL0     C57809   5.697   8.505   5.377 -0.3619 -0.4861 -0.1237
  429MOL0     O57810   5.593   8.539   5.460  0.7832  0.1117  0.1459
  429MOL0     C57811   5.578   8.481   5.585  0.1905 -0.3679  0.7718
  429MOL0     C57812   5.460   8.403   5.613 -0.0909  0.4635 -0.1235
  429MOL0     C57813   5.438   8.339   5.738  1.1203  0.6713 -0.5019
  429MOL0     C57814   5.530   8.345   5.835 -0.3164 -0.2406 -0.1658
  429MOL0     O57815   5.495   8.263   5.945  0.6207 -0.0803  0.1649
  429MOL0     C57816   5.604   8.223   6.026 -0.3975 -1.2433  0.0858
  429MOL0     C57817   5.587   8.263   6.166 -1.0356 -0.5623  0.4083
  429MOL0     C57818   5.479   8.191   6.252  0.0727  0.2214  0.5346
  429MOL0     C57819   5.350   8.148   6.187 -0.1561  0.4785 -0.4186
  429MOL0     C57820   5.253   8.056   6.279 -0.6138 -0.4192  0.0717
  429MOL0     C57821   5.158   8.148   6.350 -0.2685  0.3916  0.0492
  429MOL0     C57822   5.054   8.046   6.420 -0.8764 -0.4237 -0.0534
  429MOL0     C57823   4.963   8.106   6.528 -0.4223 -0.7227 -0.2342
  429MOL0    Cl57824   4.885   7.968   6.605  0.0716 -0.0492 -0.3369
  429MOL0     C57825   5.643   8.427   5.814  0.3189  0.5876 -0.3307
  429MOL0     C57826   5.661   8.499   5.692 -0.6116 -0.8773  0.0428
  429MOL0     O57827   5.793   8.436   5.406 -0.9447 -0.4394  0.1089
  429MOL0     C57828   5.814   8.516   5.140 -0.0049  0.2645 -0.3467
  429MOL0     C57829   5.808   8.571   5.009 -0.4960  0.8898 -0.7822
  429MOL0     N57830   5.507   8.488   4.234 -0.8298  0.1417 -0.4574
  429MOL0     N57831   5.400   8.428   4.204 -0.1765 -0.2864 -0.5220
  429MOL0     C57832   4.367   7.964   4.302  0.3676 -0.1596  0.5843
  429MOL0     C57833   4.336   7.827   4.274 -0.1057 -1.3427 -0.2909
  429MOL0     C57834   4.410   7.359   4.317  0.7506 -1.2891 -0.1900
  429MOL0     C57835   4.276   7.332   4.336  0.3123  0.0549  0.4434
  429MOL0     C57836   4.222   7.197   4.344  0.0364 -0.4567 -0.5095
  429MOL0     C57837   4.307   7.095   4.367  0.1633  0.7245  0.6393
  429MOL0     O57838   4.250   6.976   4.402 -0.6188  0.0527 -0.4518
  429MOL0     C57839   4.322   6.889   4.488 -0.1964 -0.5551  0.4058
  429MOL0     C57840   4.278   6.748   4.517  0.1496  0.4900 -0.3242
  429MOL0     C57841   4.348   6.682   4.642 -0.0222 -1.0201  0.5064
  429MOL0     C57842   4.510   6.713   4.647  0.5672 -0.0857  0.1314
  429MOL0     C57843   4.584   6.600   4.591 -0.3583 -0.6429 -0.0492
  429MOL0     C57844   4.654   6.499   4.563 -0.7037 -0.3472  0.7915
  429MOL0     C57845   4.452   7.112   4.346 -0.2907  0.4795 -0.5416
  429MOL0     C57846   4.496   7.250   4.328  0.2241  0.6582 -0.8555
  429MOL0     C57847   4.648   7.263   4.325  0.0816 -0.5253 -0.2348
  429MOL0     H57848   4.469   7.678   4.536  0.1038 -1.1372 -0.2579
  429MOL0     H57849   4.519   7.924   4.596  0.9613  0.3764 -0.9987
  429MOL0     H57850   4.318   8.215   4.343  1.0493 -0.7981 -1.1839
  429MOL0     H57851   4.388   8.325   4.458  2.1820  0.1039  0.4476
  429MOL0     H57852   4.438   8.373   4.216  1.0150 -0.3465 -1.0321
  429MOL0     H57853   4.533   8.239   4.204 -1.0289 -0.9914  1.4409
  429MOL0     H57854   4.715   8.336   4.329  2.0814  2.8837 -1.5433
  429MOL0     H57855   4.610   8.461   4.404 -0.3564  3.9524 -2.3424
  429MOL0     H57856   4.687   8.455   4.107 -0.9409 -1.1840  0.4472
  429MOL0     H57857   4.605   8.587   4.207  0.9439  1.2744  2.7077
  429MOL0     H57858   4.837   8.653   4.157  1.3173  0.3325 -0.6016
  429MOL0     H57859   4.820   8.619   4.330 -1.7222 -0.1077 -0.7508
  429MOL0     H57860   4.912   8.408   4.297 -1.5050 -0.2487  0.7098
  429MOL0     H57861   4.930   8.419   4.123  2.1236  3.2921 -0.7374
  429MOL0     H57862   5.067   8.634   4.288 -1.5857  0.4056  1.4059
  429MOL0     H57863   5.095   8.570   4.122 -0.9397  0.3308  1.0263
  429MOL0     H57864   5.135   8.415   4.382  2.4459  1.1161  1.2587
  429MOL0     H57865   5.162   8.352   4.220 -1.5445 -0.5366  0.2188
  429MOL0     H57866   5.329   8.638   4.450 -1.7817 -2.1699  0.6157
  429MOL0     H57867   5.691   8.623   4.344  1.4320 -0.1264  1.4284
  429MOL0     H57868   5.577   8.760   4.389  1.0079  0.8014  0.5363
  429MOL0     H57869   5.526   8.687   4.590 -3.0035 -1.1771 -0.8291
  429MOL0     H57870   5.600   8.525   4.585  0.9972 -0.5829 -1.8074
  429MOL0     H57871   5.747   8.804   4.597 -0.0213  0.3969  0.9928
  429MOL0     H57872   5.807   8.662   4.509 -2.9594 -2.1738 -0.3740
  429MOL0     H57873   5.897   8.666   4.758  0.2838 -0.5638  1.5543
  429MOL0     H57874   5.776   8.541   4.742 -0.2647  0.4836  2.9827
  429MOL0     H57875   5.535   8.745   5.009 -1.7406 -2.8244 -1.7017
  429MOL0     H57876   5.519   8.646   5.245 -0.3537  2.5247 -0.3132
  429MOL0     H57877   5.392   8.391   5.529 -0.1941 -2.2442  0.2542
  429MOL0     H57878   5.345   8.284   5.749  1.6439 -0.1929 -0.4010
  429MOL0     H57879   5.611   8.114   6.018  1.3139 -1.0897 -1.0204
  429MOL0     H57880   5.697   8.279   6.009 -1.8132  2.3249  2.7688
  429MOL0     H57881   5.688   8.241   6.202  0.0348 -0.0656 -2.1283
  429MOL0     H57882   5.579   8.372   6.172  1.3577 -0.3763  1.4964
  429MOL0     H57883   5.529   8.102   6.292  1.4889  0.3184 -0.9043
  429MOL0     H57884   5.463   8.252   6.342  0.6131 -0.1108  0.8619
  429MOL0     H57885   5.378   8.088   6.101 -0.0088 -0.9375  0.5745
  429MOL0     H57886   5.298   8.235   6.144  0.3249  2.6778  2.9894
  429MOL0     H57887   5.315   8.003   6.352 -2.7364 -0.6548  1.8153
  429MOL0     H57888   5.200   7.982   6.219 -1.1035  0.4145 -0.5511
  429MOL0     H57889   5.214   8.206   6.424  0.8482  1.4264 -1.5473
  429MOL0     H57890   5.121   8.236   6.297  0.3524 -0.2346 -1.4908
  429MOL0     H57891   5.124   7.976   6.466 -0.6670 -1.1064 -1.3360
  429MOL0     H57892   4.996   7.981   6.354  0.1462 -1.6480  0.2250
  429MOL0     H57893   5.014   8.167   6.602 -1.0215  2.5841 -2.3219
  429MOL0     H57894   4.897   8.185   6.489  0.6333  0.7904  0.9312
  429MOL0     H57895   5.730   8.429   5.879  0.3432 -2.3385 -0.1457
  429MOL0     H57896   5.756   8.551   5.693 -2.0356  1.9813  2.4429
  429MOL0     H57897   5.896   8.450   5.165 -0.6804  0.8305  4.1390
  429MOL0     H57898   5.889   8.538   4.944  0.6179  0.7655  0.6350
  429MOL0     H57899   4.339   8.038   4.228 -2.8527  0.9117  2.6597
  429MOL0     H57900   4.274   7.811   4.186 -0.5128 -0.6056 -0.1464
  429MOL0     H57901   4.203   7.411   4.327 -0.4864 -0.9347 -4.9617
  429MOL0     H57902   4.116   7.174   4.340 -0.0695 -0.6183  1.8441
  429MOL0     H57903   4.331   6.940   4.584  2.1620 -1.1479  0.5643
  429MOL0     H57904   4.421   6.865   4.447 -0.4534 -1.3627  0.2398
  429MOL0     H57905   4.297   6.690   4.426  2.0463 -0.2661  0.4957
  429MOL0     H57906   4.172   6.741   4.543  0.2044 -1.4717 -0.4554
  429MOL0     H57907   4.330   6.574   4.642  0.0558 -1.0330  0.2816
  429MOL0     H57908   4.300   6.729   4.728 -2.2195  2.8236 -2.4911
  429MOL0     H57909   4.545   6.803   4.595  1.8422 -0.0877  0.9477
  429MOL0     H57910   4.554   6.714   4.747 -0.2770  0.9015  0.4979
  429MOL0     H57911   4.723   6.417   4.554 -0.9747 -0.8006  2.5112
  429MOL0     H57912   4.534   7.048   4.376 -2.2249 -0.9943  2.0517
  429MOL0     H57913   4.680   7.337   4.251  0.0417 -2.4641 -2.2986
  429MOL0     H57914   4.677   7.291   4.426 -2.1326 -1.9090  0.8742
  429MOL0     H57915   4.702   7.174   4.291  0.1372 -0.1851 -1.0603
  430MOL0     O57916   6.596   3.331   2.294  0.0542 -0.0669 -0.8425
  430MOL0     C57917   6.579   3.397   2.395  0.4712  0.7468 -0.3504
  430MOL0     O57918   6.652   3.392   2.512 -0.4139  0.1490  0.0345
  430MOL0     C57919   6.750   3.304   2.541 -0.1390  0.6256  0.3728
  430MOL0     C57920   6.722   3.166   2.545  0.8302  0.0982 -0.3497
  430MOL0     C57921   6.811   3.070   2.595  0.4435  0.3950  0.9966
  430MOL0     C57922   6.932   3.106   2.646  0.4788  0.5120 -0.0894
  430MOL0     O57923   7.028   3.027   2.688  0.2053 -0.1382 -1.2333
  430MOL0     C57924   7.049   2.913   2.615  0.1627  0.7068 -0.4772
  430MOL0     C57925   7.167   2.821   2.652  0.1533  0.1001 -0.4150
  430MOL0     C57926   7.151   2.766   2.788  0.0837  0.5777 -0.4203
  430MOL0     C57927   7.240   2.640   2.786  0.0979  0.6021  1.2159
  430MOL0     C57928   7.211   2.550   2.902  0.0279  0.0439 -0.5731
  430MOL0     C57929   7.317   2.447   2.956  0.3295 -0.3610  0.3768
  430MOL0     C57930   7.465   2.489   2.949  0.1072 -0.9519 -0.7925
  430MOL0     C57931   7.505   2.630   3.019 -0.2437 -0.2437  0.4352
  430MOL0     N57932   7.434   2.646   3.143 -0.5624  0.1140  0.3682
  430MOL0     C57933   7.391   2.769   3.191  0.0764  0.4027  0.2625
  430MOL0     C57934   7.357   2.744   3.319 -0.6457  0.7318 -0.7092
  430MOL0     C57935   7.305   2.845   3.420 -0.7356  0.2328 -0.3664
  430MOL0     C57936   7.405   2.908   3.517  0.4967 -0.1456 -0.2625
  430MOL0     C57937   7.456   2.814   3.632 -0.4581  0.2985  0.3089
  430MOL0     C57938   7.338   2.737   3.699  0.0917  1.1230 -0.5627
  430MOL0     O57939   7.258   2.841   3.779  0.5309 -0.1478  0.9379
  430MOL0     C57940   7.200   2.774   3.880  1.1032  0.0603 -0.3252
  430MOL0     C57941   7.248   2.791   4.005  0.5947 -1.0064 -0.5381
  430MOL0     C57942   7.195   2.727   4.115  0.7398 -0.1466  0.2319
  430MOL0     C57943   7.075   2.655   4.093 -0.2181  0.5010  0.0535
  430MOL0     C57944   7.018   2.601   4.223 -0.6669 -0.7606  0.5940
  430MOL0     O57945   7.113   2.577   4.315 -0.1893 -0.0039  0.1247
  430MOL0     C57946   7.086   2.526   4.435 -1.0369  0.0233 -0.3040
  430MOL0     C57947   6.959   2.538   4.511 -0.4816 -0.0079 -0.7153
  430MOL0     C57948   6.948   2.494   4.644 -0.2821  0.0995 -0.0162
  430MOL0     C57949   7.057   2.428   4.710  0.5917 -0.0030 -0.3760
  430MOL0     O57950   7.036   2.407   4.843 -0.1979  0.5646  0.2567
  430MOL0     C57951   7.127   2.441   4.950 -0.0845  0.4226  0.2092
  430MOL0     C57952   7.163   2.322   5.037  0.1841  0.5044 -0.3537
  430MOL0     C57953   7.151   2.181   4.963 -0.4032  0.1784 -0.2106
  430MOL0     C57954   7.164   2.073   5.061 -0.0019  0.9273 -0.4468
  430MOL0     C57955   7.153   1.934   5.002  0.0246 -0.6293 -0.2759
  430MOL0     C57956   7.163   1.814   5.106 -0.0025  0.2596  0.1338
  430MOL0     C57957   7.119   1.676   5.047 -0.4478 -0.6260 -0.0209
  430MOL0     C57958   6.968   1.652   5.060  0.3791  0.0316 -0.5268
  430MOL0    Cl57959   6.918   1.599   5.233  0.4632 -0.1077 -0.0852
  430MOL0     C57960   7.178   2.413   4.638  0.3679 -0.5206 -0.2868
  430MOL0     C57961   7.195   2.463   4.501  1.1598  0.5035  0.1784
  430MOL0     O57962   6.896   2.581   4.230 -0.1946 -0.0547  0.4884
  430MOL0     C57963   7.014   2.641   3.966 -0.4048  0.2518 -0.1977
  430MOL0     C57964   7.085   2.695   3.857  0.3790 -0.5481  0.7715
  430MOL0     N57965   7.391   2.615   3.356  0.1081 -0.6555  1.5253
  430MOL0     N57966   7.436   2.553   3.242  0.4304  1.0988 -0.0688
  430MOL0     C57967   6.971   3.242   2.639  0.0445  0.3770 -0.6304
  430MOL0     C57968   6.878   3.337   2.591  0.8005 -0.4591 -1.0110
  430MOL0     C57969   6.471   3.509   2.391 -0.5600 -0.5715 -0.3156
  430MOL0     C57970   6.488   3.621   2.483 -0.1687  0.1421 -0.2895
  430MOL0     C57971   6.391   3.727   2.487 -1.8656  0.4755  0.2069
  430MOL0     C57972   6.283   3.721   2.397  0.2635 -0.4835 -0.3458
  430MOL0     O57973   6.198   3.828   2.401  0.3303 -0.2186 -0.2536
  430MOL0     C57974   6.060   3.828   2.363  0.0367 -0.3958 -0.0103
  430MOL0     C57975   5.998   3.970   2.370  0.2862  0.8393 -0.6575
  430MOL0     C57976   5.984   3.995   2.518 -0.0598 -0.3449 -0.0219
  430MOL0     C57977   5.895   4.114   2.555  0.6806  0.4138 -0.4435
  430MOL0     C57978   5.951   4.244   2.534 -1.1093 -0.5619  1.1124
  430MOL0     C57979   5.986   4.359   2.516 -0.0940 -0.6790 -0.2812
  430MOL0     C57980   6.277   3.621   2.305 -0.1735 -1.1245 -0.7986
  430MOL0     C57981   6.359   3.509   2.307 -0.3397 -0.6538  0.3507
  430MOL0     C57982   6.329   3.398   2.215 -0.5218  0.2849 -0.2239
  430MOL0     H57983   6.623   3.136   2.510  1.0773  1.0963 -1.9928
  430MOL0     H57984   6.771   2.969   2.592  0.0024  0.5787 -1.8672
  430MOL0     H57985   6.964   2.844   2.618  1.4964 -1.1020  3.8320
  430MOL0     H57986   7.076   2.944   2.514 -2.2052  0.4576 -1.2455
  430MOL0     H57987   7.265   2.870   2.649 -0.2430  0.8758 -2.1744
  430MOL0     H57988   7.168   2.741   2.578  1.6763  1.4829 -1.9848
  430MOL0     H57989   7.047   2.733   2.795  0.1030  0.2507 -1.4207
  430MOL0     H57990   7.164   2.831   2.875  1.7779 -0.8315  0.4311
  430MOL0     H57991   7.232   2.585   2.692  3.0554 -1.4992  2.0584
  430MOL0     H57992   7.346   2.667   2.789  0.8365 -2.1220  1.7725
  430MOL0     H57993   7.187   2.610   2.990  1.4694  1.1638 -0.9118
  430MOL0     H57994   7.123   2.489   2.878  2.2213 -2.6218 -2.3818
  430MOL0     H57995   7.297   2.412   3.058  2.8076 -3.6935 -0.1354
  430MOL0     H57996   7.310   2.357   2.894  3.8104 -0.7691  0.3994
  430MOL0     H57997   7.489   2.495   2.843 -2.6738  1.5060 -1.3765
  430MOL0     H57998   7.533   2.413   2.991  1.3604 -0.9375 -2.6705
  430MOL0     H57999   7.612   2.630   3.044  0.8255 -0.9802 -3.3798
  430MOL0     H58000   7.487   2.703   2.940  0.7662 -2.0257 -1.5770
  430MOL0     H58001   7.381   2.865   3.141 -0.4346 -0.7016 -1.8981
  430MOL0     H58002   7.257   2.914   3.351 -0.8010 -0.8337 -1.4113
  430MOL0     H58003   7.223   2.811   3.484  0.3874  0.7616  1.4597
  430MOL0     H58004   7.491   2.943   3.459  1.4040 -1.9208 -0.0551
  430MOL0     H58005   7.354   3.002   3.541  1.3637  1.0176 -2.6458
  430MOL0     H58006   7.502   2.880   3.706  2.4736  0.9128 -1.8874
  430MOL0     H58007   7.534   2.740   3.610 -0.0787  0.2512  1.7018
  430MOL0     H58008   7.369   2.663   3.773 -1.1628  2.4854  1.3949
  430MOL0     H58009   7.270   2.687   3.629  2.0770 -1.4466 -0.8340
  430MOL0     H58010   7.340   2.846   4.022  0.8806 -1.8710  0.9243
  430MOL0     H58011   7.247   2.720   4.210  2.0224  1.3129 -0.3084
  430MOL0     H58012   6.869   2.582   4.468 -0.1094 -0.7330 -2.3239
  430MOL0     H58013   6.860   2.508   4.705 -1.1020 -1.1332 -0.8759
  430MOL0     H58014   7.220   2.476   4.904  2.4673 -2.9582  2.2824
  430MOL0     H58015   7.077   2.508   5.022  3.1022  1.2290  1.8630
  430MOL0     H58016   7.259   2.342   5.085 -1.1562 -2.2960  4.1035
  430MOL0     H58017   7.086   2.317   5.114  2.7905 -2.3248  2.3574
  430MOL0     H58018   7.051   2.186   4.919 -0.2182  1.0388 -0.5472
  430MOL0     H58019   7.222   2.170   4.882  0.5165  0.2563  0.5664
  430MOL0     H58020   7.094   2.090   5.143  2.2856 -2.5662  2.5893
  430MOL0     H58021   7.263   2.064   5.109  0.0424 -2.1487 -0.8893
  430MOL0     H58022   7.233   1.927   4.928  0.3613  2.3382 -0.3297
  430MOL0     H58023   7.059   1.936   4.947 -0.8332  1.1246  1.1197
  430MOL0     H58024   7.267   1.794   5.129  0.1181 -3.6854 -2.8426
  430MOL0     H58025   7.101   1.845   5.190  1.5939 -0.5344  1.6590
  430MOL0     H58026   7.177   1.591   5.086 -2.7493 -2.5587 -0.6096
  430MOL0     H58027   7.152   1.673   4.943 -1.4991 -3.4615 -0.3759
  430MOL0     H58028   6.918   1.748   5.046 -0.1465 -0.1655 -0.0349
  430MOL0     H58029   6.926   1.579   4.991  1.7462 -0.2815 -1.0749
  430MOL0     H58030   7.256   2.371   4.701 -0.4353 -0.8047  0.5490
  430MOL0     H58031   7.291   2.460   4.450  0.5880 -1.1371 -0.8730
  430MOL0     H58032   6.920   2.593   3.938 -0.5674  0.7236 -0.4662
  430MOL0     H58033   7.040   2.685   3.759 -0.2864 -3.3009  1.2851
  430MOL0     H58034   7.071   3.274   2.665 -0.8232  2.5259  0.3052
  430MOL0     H58035   6.899   3.443   2.598 -0.0077 -0.4000  1.2474
  430MOL0     H58036   6.568   3.627   2.555  1.3915 -0.9917 -1.8546
  430MOL0     H58037   6.410   3.816   2.546  0.9734 -0.5038  0.9548
  430MOL0     H58038   6.018   3.757   2.435  0.5738 -0.1068  0.5975
  430MOL0     H58039   6.053   3.788   2.261 -1.8073 -0.6219  0.1802
  430MOL0     H58040   5.897   3.967   2.328 -0.2409  2.0770  0.4194
  430MOL0     H58041   6.057   4.044   2.315 -0.7088  2.5607  0.4879
  430MOL0     H58042   6.081   4.023   2.561 -0.0306 -1.4601  0.6917
  430MOL0     H58043   5.938   3.911   2.571  0.0016 -0.6538 -0.4553
  430MOL0     H58044   5.796   4.097   2.512  0.4352  0.6058  0.0340
  430MOL0     H58045   5.873   4.100   2.661 -2.4013 -1.0201 -1.1706
  430MOL0     H58046   6.028   4.457   2.504 -1.3985  0.2068  1.8838
  430MOL0     H58047   6.189   3.623   2.241 -1.7995 -3.9682  1.1407
  430MOL0     H58048   6.331   3.305   2.272 -3.1276  1.3373  1.7778
  430MOL0     H58049   6.242   3.410   2.148 -0.0164  0.8908 -0.7878
  430MOL0     H58050   6.416   3.391   2.149 -0.4935 -5.3002 -0.0741
  431MOL0     O58051   2.915  11.158   1.965  0.1671 -0.1375  0.6615
  431MOL0     C58052   2.936  11.099   1.858 -0.5351 -0.8809 -0.2326
  431MOL0     O58053   2.879  11.123   1.736  0.8157  0.4400  0.6917
  431MOL0     C58054   2.794  11.230   1.724 -0.2297 -0.0779  0.1668
  431MOL0     C58055   2.666  11.234   1.780 -0.1748 -0.6189 -0.4732
  431MOL0     C58056   2.594  11.355   1.761  0.1694 -0.3941  0.7338
  431MOL0     C58057   2.627  11.459   1.684 -0.6025 -0.6602 -0.0743
  431MOL0     O58058   2.533  11.563   1.666  0.3526 -0.0432  0.1717
  431MOL0     C58059   2.601  11.690   1.670 -0.0596  0.3679  0.1234
  431MOL0     C58060   2.488  11.796   1.669  0.2793 -0.0728  0.1318
  431MOL0     C58061   2.551  11.929   1.677  0.2692  0.2452 -0.3622
  431MOL0     C58062   2.441  12.037   1.698 -0.1740 -0.0180  0.2591
  431MOL0     C58063   2.499  12.168   1.747 -0.6455  0.2617  0.0067
  431MOL0     C58064   2.598  12.248   1.654 -0.2275 -0.0649 -0.4629
  431MOL0     C58065   2.644  12.375   1.719  0.3020 -0.0312 -0.3377
  431MOL0     C58066   2.775  12.428   1.667 -1.1138  0.3952 -0.8221
  431MOL0     N58067   2.827  12.546   1.738  0.5032  0.3045 -0.2010
  431MOL0     C58068   2.941  12.611   1.703 -0.3811 -0.0128 -0.9243
  431MOL0     C58069   2.958  12.698   1.808  0.0908 -0.7328  0.6044
  431MOL0     C58070   3.058  12.811   1.824 -0.4511 -0.1507  0.5373
  431MOL0     C58071   3.201  12.761   1.814  0.0438 -0.6933  0.3156
  431MOL0     C58072   3.307  12.870   1.862 -0.6986 -0.1904  0.4257
  431MOL0     C58073   3.356  12.944   1.743 -0.4577 -0.1669 -1.0658
  431MOL0     O58074   3.457  12.871   1.681 -0.2638  0.8398  0.1444
  431MOL0     C58075   3.477  12.882   1.549  0.6868  0.0876  0.4304
  431MOL0     C58076   3.564  12.789   1.503  0.3607 -0.4146 -0.3438
  431MOL0     C58077   3.612  12.788   1.371 -0.4408  0.2160  0.2200
  431MOL0     C58078   3.548  12.872   1.279 -0.2944 -0.0290 -0.7007
  431MOL0     C58079   3.567  12.853   1.141 -0.8309  0.0164 -0.3757
  431MOL0     O58080   3.652  12.754   1.096  0.1503  0.1153  0.5466
  431MOL0     C58081   3.654  12.723   0.964 -0.2864 -0.3275  0.4274
  431MOL0     C58082   3.773  12.717   0.897 -0.1553  0.2656 -0.5538
  431MOL0     C58083   3.776  12.682   0.765 -0.0420 -1.2004 -0.1296
  431MOL0     C58084   3.658  12.660   0.691  0.0046  0.2309 -0.1250
  431MOL0     O58085   3.669  12.630   0.558 -0.4768  0.6486  0.7810
  431MOL0     C58086   3.764  12.538   0.507 -1.0179  0.3291  0.3272
  431MOL0     C58087   3.753  12.535   0.352  0.3606  0.4663 -0.2793
  431MOL0     C58088   3.629  12.450   0.312 -0.0749  0.1079 -0.8013
  431MOL0     C58089   3.563  12.486   0.174 -0.3556 -1.3779 -0.4091
  431MOL0     C58090   3.471  12.383   0.113  0.4777 -0.0249 -0.0535
  431MOL0     C58091   3.354  12.357   0.213  0.4835  0.6352 -0.2954
  431MOL0     C58092   3.246  12.271   0.154  0.1437  0.4894  0.2108
  431MOL0     C58093   3.153  12.353   0.076  1.3500  0.4505  0.7580
  431MOL0    Cl58094   2.986  12.278   0.089  0.0612 -0.1585  0.4091
  431MOL0     C58095   3.540  12.663   0.748  0.9205 -0.0344 -0.2176
  431MOL0     C58096   3.535  12.694   0.893  0.9719  1.1535 -0.2076
  431MOL0     O58097   3.516  12.934   1.067 -0.3046 -0.9635  0.4179
  431MOL0     C58098   3.464  12.971   1.336  1.2898  0.3756  0.7398
  431MOL0     C58099   3.435  12.989   1.468 -0.1075  0.2504 -0.9388
  431MOL0     N58100   2.865  12.683   1.903 -0.2218  0.1264 -0.5067
  431MOL0     N58101   2.785  12.587   1.859 -1.1286  0.0377  0.2050
  431MOL0     C58102   2.757  11.451   1.626 -0.6618 -0.0986 -1.0025
  431MOL0     C58103   2.835  11.342   1.644 -0.2149 -0.2294  0.1209
  431MOL0     C58104   2.995  10.964   1.874  0.2033  0.4813  0.2069
  431MOL0     C58105   2.941  10.862   1.793  1.3322 -0.3880  0.3964
  431MOL0     C58106   2.983  10.735   1.809 -0.4624 -0.7388  0.8231
  431MOL0     C58107   3.093  10.695   1.881  0.3203  0.0398 -0.5485
  431MOL0     O58108   3.117  10.555   1.881  0.3671 -0.1281  0.0106
  431MOL0     C58109   3.250  10.506   1.891 -0.4212 -0.1353 -0.0037
  431MOL0     C58110   3.251  10.367   1.827  0.2763  0.0180 -0.5109
  431MOL0     C58111   3.215  10.364   1.682  0.1812 -0.5730  0.3284
  431MOL0     C58112   3.224  10.220   1.618 -0.0476 -0.6375 -0.1389
  431MOL0     C58113   3.185  10.210   1.480  0.5337  0.2304 -0.2487
  431MOL0     C58114   3.141  10.196   1.368  0.0295  0.5539 -0.0150
  431MOL0     C58115   3.158  10.796   1.950 -0.6661  0.0761  0.9147
  431MOL0     C58116   3.115  10.929   1.947  0.1958  0.0474 -0.0101
  431MOL0     C58117   3.188  11.028   2.030 -0.2775 -0.5777 -0.0198
  431MOL0     H58118   2.635  11.147   1.836 -1.7533  0.5122  0.4750
  431MOL0     H58119   2.498  11.363   1.812  0.3942  0.5199  1.0343
  431MOL0     H58120   2.653  11.692   1.767 -0.5307  2.2770  0.3888
  431MOL0     H58121   2.661  11.710   1.581  1.3117  0.8577  1.1223
  431MOL0     H58122   2.425  11.774   1.756  1.1200  0.1255  0.7955
  431MOL0     H58123   2.425  11.786   1.580 -1.7627  0.5494  1.4296
  431MOL0     H58124   2.623  11.957   1.599  1.1918 -2.2077 -0.5174
  431MOL0     H58125   2.602  11.924   1.774  1.1354  2.8372 -0.6051
  431MOL0     H58126   2.391  12.035   1.601 -2.4552 -1.5515  1.3772
  431MOL0     H58127   2.348  12.008   1.748 -1.3510 -0.8655 -2.2394
  431MOL0     H58128   2.413  12.232   1.768 -0.7607  0.7251 -1.7194
  431MOL0     H58129   2.545  12.151   1.845  0.2401  0.4029 -0.3692
  431MOL0     H58130   2.672  12.178   1.614  0.6520  0.5797  0.0237
  431MOL0     H58131   2.540  12.268   1.563  1.5435 -5.4303 -3.2159
  431MOL0     H58132   2.653  12.362   1.827  4.5267  1.8990 -0.2644
  431MOL0     H58133   2.565  12.448   1.701 -0.5810 -0.7952  0.3108
  431MOL0     H58134   2.852  12.351   1.680 -2.8306 -1.6321 -2.0050
  431MOL0     H58135   2.757  12.448   1.561 -0.3093  4.7575 -0.3232
  431MOL0     H58136   3.020  12.604   1.629 -0.4461  2.9443 -1.3864
  431MOL0     H58137   3.033  12.894   1.758 -2.2789 -0.6661  0.5318
  431MOL0     H58138   3.055  12.850   1.927  0.6491 -0.8447  0.8622
  431MOL0     H58139   3.211  12.681   1.887  2.9205 -1.8130 -1.1393
  431MOL0     H58140   3.228  12.715   1.718 -1.0488 -3.7129  1.3401
  431MOL0     H58141   3.394  12.824   1.909 -1.8890 -2.3932  0.6408
  431MOL0     H58142   3.259  12.931   1.939 -1.1396 -1.1470  0.9338
  431MOL0     H58143   3.396  13.042   1.771 -0.2612 -0.3957 -0.5377
  431MOL0     H58144   3.274  12.969   1.675 -0.7872  0.3910 -0.4658
  431MOL0     H58145   3.594  12.706   1.566 -0.4100  0.5598  1.4221
  431MOL0     H58146   3.681  12.708   1.345 -0.3134  1.5220 -4.3198
  431MOL0     H58147   3.860  12.740   0.957 -0.1527 -0.7283 -0.1504
  431MOL0     H58148   3.878  12.691   0.729  0.9874  0.0633  2.7720
  431MOL0     H58149   3.860  12.589   0.523 -2.4620  2.6923  2.1515
  431MOL0     H58150   3.766  12.444   0.563 -1.2044  0.5470  0.7020
  431MOL0     H58151   3.743  12.637   0.316 -0.2546 -0.1021 -1.7700
  431MOL0     H58152   3.848  12.493   0.316  0.1541 -2.2190  1.9270
  431MOL0     H58153   3.663  12.348   0.292  1.4063  0.7890 -2.0067
  431MOL0     H58154   3.549  12.458   0.387 -0.2048  1.8160 -1.0818
  431MOL0     H58155   3.628  12.529   0.097  0.3842  1.7864  1.7572
  431MOL0     H58156   3.495  12.570   0.195 -1.0344 -2.5008  2.2898
  431MOL0     H58157   3.520  12.287   0.093  1.8963  1.0012 -1.8206
  431MOL0     H58158   3.436  12.428   0.019  1.1447 -0.4411 -0.5165
  431MOL0     H58159   3.400  12.302   0.295  1.7179  0.0216 -1.3462
  431MOL0     H58160   3.310  12.453   0.240 -1.4009  0.5946 -2.8680
  431MOL0     H58161   3.196  12.239   0.247  1.1316 -0.4854  0.4222
  431MOL0     H58162   3.276  12.176   0.110 -1.2583 -0.2618  0.7971
  431MOL0     H58163   3.148  12.461   0.094 -0.0210  0.8395 -1.5884
  431MOL0     H58164   3.201  12.343  -0.022  0.6535 -3.8920  0.6610
  431MOL0     H58165   3.452  12.644   0.688  0.4322 -0.2158  0.5507
  431MOL0     H58166   3.433  12.706   0.929  1.1346  3.8331 -0.4047
  431MOL0     H58167   3.416  13.045   1.274  1.5058 -1.4777 -1.8301
  431MOL0     H58168   3.368  13.068   1.499  0.5376  0.4720 -0.0916
  431MOL0     H58169   2.780  11.529   1.554 -1.1269  1.1105  0.1261
  431MOL0     H58170   2.925  11.326   1.584 -0.5401  0.0295 -0.4404
  431MOL0     H58171   2.851  10.868   1.732 -0.6619 -4.7987  2.4105
  431MOL0     H58172   2.929  10.667   1.743 -2.7183  3.8478 -2.6559
  431MOL0     H58173   3.288  10.493   1.993  1.9405  0.2716 -0.7499
  431MOL0     H58174   3.320  10.570   1.836  1.6028 -2.8008 -0.7775
  431MOL0     H58175   3.182  10.306   1.885  0.1102  1.8335  1.3417
  431MOL0     H58176   3.353  10.337   1.852  0.2461 -0.1687 -0.6150
  431MOL0     H58177   3.260  10.445   1.624  3.2399 -0.6645  2.3441
  431MOL0     H58178   3.108  10.388   1.679  0.5561  1.2171 -0.0913
  431MOL0     H58179   3.320  10.168   1.625 -0.0134 -0.3332  2.5140
  431MOL0     H58180   3.156  10.156   1.676 -0.2586  1.2248  1.7961
  431MOL0     H58181   3.108  10.186   1.267 -0.0063 -1.7794  0.1556
  431MOL0     H58182   3.243  10.773   2.015  0.9464  2.0805 -0.3631
  431MOL0     H58183   3.172  11.005   2.136 -0.5972 -2.8910 -0.5035
  431MOL0     H58184   3.295  11.006   2.017 -0.0920  0.3298 -0.0711
  431MOL0     H58185   3.161  11.131   2.005 -3.1964 -1.9915 -3.5004
  432MOL0     O58186   1.068   1.092   2.768 -0.0319  0.1348 -0.9331
  432MOL0     C58187   1.060   0.967   2.760  0.4845 -0.3711 -0.1913
  432MOL0     O58188   1.123   0.881   2.848 -0.2535  0.3840 -0.0448
  432MOL0     C58189   1.157   0.954   2.958  0.6420 -0.8222 -0.5149
  432MOL0     C58190   1.079   0.963   3.073  0.2377  0.1670  0.3037
  432MOL0     C58191   1.111   1.039   3.181  0.0790  0.0024 -1.0638
  432MOL0     C58192   1.236   1.100   3.185 -0.2870 -0.8623 -0.3088
  432MOL0     O58193   1.267   1.164   3.307  0.5570 -0.1607  0.7741
  432MOL0     C58194   1.381   1.245   3.327 -0.0905  0.3097 -0.0213
  432MOL0     C58195   1.356   1.395   3.316  0.0211 -0.6056 -0.1673
  432MOL0     C58196   1.493   1.477   3.316 -0.0838  0.1079 -0.4971
  432MOL0     C58197   1.571   1.483   3.448  0.1259 -0.0697  0.1581
  432MOL0     C58198   1.503   1.528   3.573  0.1885 -0.1660 -0.9821
  432MOL0     C58199   1.601   1.584   3.684 -0.7774 -0.6660 -0.4458
  432MOL0     C58200   1.536   1.633   3.819  0.2353 -0.3038 -0.0643
  432MOL0     C58201   1.455   1.522   3.884  0.1880  0.0676 -1.2151
  432MOL0     N58202   1.531   1.406   3.924 -0.2864 -0.1701 -0.8245
  432MOL0     C58203   1.604   1.381   4.038 -0.1670 -0.5472 -0.5694
  432MOL0     C58204   1.660   1.263   4.010  0.3116  0.2065 -0.0281
  432MOL0     C58205   1.762   1.220   4.104  0.0198 -0.8037  0.4304
  432MOL0     C58206   1.817   1.083   4.073 -0.4655 -0.6721  0.6487
  432MOL0     C58207   1.950   1.059   4.144  0.3439  0.0406  0.3150
  432MOL0     C58208   1.996   0.910   4.119  0.5739 -0.2867 -0.5666
  432MOL0     O58209   2.139   0.908   4.147  0.0079 -1.0395 -0.0846
  432MOL0     C58210   2.202   0.800   4.108  0.4137  0.6783  0.4848
  432MOL0     C58211   2.270   0.782   3.989 -0.8698  0.1987  0.3773
  432MOL0     C58212   2.326   0.661   3.951 -0.0709  0.3247 -0.3833
  432MOL0     C58213   2.308   0.548   4.036 -0.6632 -0.6260 -0.9477
  432MOL0     C58214   2.374   0.413   4.000  0.7617 -0.1780 -0.0393
  432MOL0     O58215   2.409   0.400   3.868 -0.0341  1.2735  0.1778
  432MOL0     C58216   2.478   0.285   3.827 -0.1174 -0.2067  0.7219
  432MOL0     C58217   2.479   0.238   3.698  0.3365 -0.5319 -0.3513
  432MOL0     C58218   2.543   0.133   3.635 -0.5236 -0.6490  0.0060
  432MOL0     C58219   2.631   0.062   3.717 -0.8136  0.2497  0.0388
  432MOL0     O58220   2.707  -0.038   3.662 -0.1352  0.5654  0.3041
  432MOL0     C58221   2.625  -0.145   3.581  0.5702 -1.2988 -0.6322
  432MOL0     C58222   2.559  -0.248   3.669  0.5752  1.0061 -0.2696
  432MOL0     C58223   2.676  -0.339   3.715 -0.2200  1.1489  0.7509
  432MOL0     C58224   2.632  -0.456   3.799 -0.0379  0.7515  0.0125
  432MOL0     C58225   2.594  -0.414   3.942  0.1631 -0.5606  0.9118
  432MOL0     C58226   2.652  -0.509   4.048 -0.2015 -0.1437  0.1624
  432MOL0     C58227   2.604  -0.654   4.015  0.1906  0.4205 -0.6272
  432MOL0     C58228   2.615  -0.759   4.128 -0.0280  0.1356 -0.4998
  432MOL0    Cl58229   2.795  -0.801   4.156  0.2973 -0.4103  0.0934
  432MOL0     C58230   2.641   0.098   3.855 -0.2450 -0.6156 -0.7634
  432MOL0     C58231   2.570   0.213   3.908 -0.4764 -0.8538  0.6611
  432MOL0     O58232   2.385   0.329   4.087  0.1306  0.6165  0.0041
  432MOL0     C58233   2.256   0.565   4.166  0.6801 -0.6346  0.8785
  432MOL0     C58234   2.203   0.689   4.201 -0.1031 -0.5520  0.0426
  432MOL0     N58235   1.603   1.204   3.892  0.7733  0.2919 -0.1269
  432MOL0     N58236   1.527   1.292   3.851  0.7320 -0.0891  0.1095
  432MOL0     C58237   1.321   1.091   3.076 -0.0508  0.5067  0.6428
  432MOL0     C58238   1.276   1.020   2.967 -0.5974  0.3822  0.4500
  432MOL0     C58239   0.986   0.906   2.649 -0.3856  0.5266 -0.2610
  432MOL0     C58240   0.983   0.967   2.526  0.5738  0.5174 -0.9642
  432MOL0     C58241   0.908   0.922   2.421  0.6093  0.6453 -0.1377
  432MOL0     C58242   0.839   0.798   2.421  0.8999  0.0627  0.0888
  432MOL0     O58243   0.746   0.759   2.322 -0.8836 -0.3458 -0.0946
  432MOL0     C58244   0.742   0.833   2.195  1.2758  0.3678  0.0689
  432MOL0     C58245   0.866   0.821   2.097  0.2301  0.6166 -0.0631
  432MOL0     C58246   0.900   0.666   2.098  1.0665 -0.3848  0.4458
  432MOL0     C58247   0.986   0.634   1.977 -0.0904  0.6321 -0.0687
  432MOL0     C58248   1.118   0.704   1.973  0.1909  0.1780  0.0856
  432MOL0     C58249   1.229   0.768   1.976 -0.0502 -0.0936 -0.5494
  432MOL0     C58250   0.861   0.727   2.534 -0.1207  0.8362 -0.3000
  432MOL0     C58251   0.929   0.773   2.648 -0.7144  0.4262 -0.1419
  432MOL0     C58252   0.930   0.681   2.774 -0.2460  0.1971  0.0540
  432MOL0     H58253   0.996   0.894   3.067  0.5405 -0.7151  3.8535
  432MOL0     H58254   1.059   1.048   3.276  3.0080  0.8496  0.6055
  432MOL0     H58255   1.422   1.205   3.420  1.4692 -0.2427 -0.9092
  432MOL0     H58256   1.457   1.212   3.255  1.1601 -0.0730  1.4145
  432MOL0     H58257   1.283   1.429   3.390 -0.6375  0.4389 -1.2556
  432MOL0     H58258   1.303   1.428   3.226  0.7858  2.5836  0.4083
  432MOL0     H58259   1.464   1.582   3.307 -1.8633 -0.4742 -2.6943
  432MOL0     H58260   1.558   1.448   3.232 -1.0985 -0.2256 -1.1922
  432MOL0     H58261   1.622   1.390   3.476 -0.0177  0.5995  2.9453
  432MOL0     H58262   1.642   1.561   3.421 -2.1952  1.8068 -0.8512
  432MOL0     H58263   1.449   1.620   3.548  0.6321  0.4552  0.2707
  432MOL0     H58264   1.441   1.452   3.620 -3.0853  3.0076  0.3296
  432MOL0     H58265   1.676   1.507   3.706 -1.2707 -1.5992 -1.8315
  432MOL0     H58266   1.649   1.671   3.638  0.9030 -1.9835 -1.3023
  432MOL0     H58267   1.476   1.724   3.812  1.2147  0.4929  1.5457
  432MOL0     H58268   1.624   1.642   3.883 -0.7830 -0.6555  1.4146
  432MOL0     H58269   1.412   1.567   3.974  0.9683 -2.6910  0.6786
  432MOL0     H58270   1.374   1.487   3.821 -1.7106  1.1491  0.5010
  432MOL0     H58271   1.624   1.449   4.120  0.6401  0.2311 -1.3940
  432MOL0     H58272   1.833   1.304   4.104 -1.6212  0.6607  1.4521
  432MOL0     H58273   1.716   1.216   4.203  1.4594 -0.6614  1.1356
  432MOL0     H58274   1.742   1.010   4.105  0.0186 -1.4838 -0.0523
  432MOL0     H58275   1.844   1.072   3.968 -2.1613 -0.1802  0.1155
  432MOL0     H58276   1.947   1.088   4.250 -0.9353 -0.8647  0.5388
  432MOL0     H58277   2.007   1.136   4.091 -0.0955 -0.9140 -1.6267
  432MOL0     H58278   1.977   0.873   4.018 -2.0479 -0.2467 -0.1563
  432MOL0     H58279   1.936   0.840   4.178 -0.1285  0.4751 -0.3485
  432MOL0     H58280   2.286   0.865   3.920 -0.8400  0.7600  1.0431
  432MOL0     H58281   2.387   0.653   3.862 -2.7768  2.0476 -2.5341
  432MOL0     H58282   2.413   0.291   3.629  0.2708 -0.9447 -0.6091
  432MOL0     H58283   2.534   0.116   3.529  2.9061  1.8505 -0.8602
  432MOL0     H58284   2.540  -0.101   3.527  1.2704 -1.2761 -1.7353
  432MOL0     H58285   2.695  -0.193   3.512  1.7479 -0.4570 -0.0633
  432MOL0     H58286   2.507  -0.200   3.752  0.2365 -2.6735  1.8524
  432MOL0     H58287   2.484  -0.312   3.622  1.3793  1.0007 -1.5969
  432MOL0     H58288   2.731  -0.371   3.626  1.3038  2.7962  1.0468
  432MOL0     H58289   2.738  -0.274   3.778 -1.2502  1.6318  1.3091
  432MOL0     H58290   2.716  -0.526   3.797 -0.8925 -0.2829 -1.4001
  432MOL0     H58291   2.553  -0.511   3.748 -1.4995  1.0621  1.8450
  432MOL0     H58292   2.485  -0.408   3.953  0.3541 -0.5072  3.5647
  432MOL0     H58293   2.634  -0.314   3.964  1.9142 -0.4432 -2.2918
  432MOL0     H58294   2.760  -0.493   4.048 -0.4575  1.8231  0.2607
  432MOL0     H58295   2.619  -0.464   4.142 -0.5415  0.9104 -0.4350
  432MOL0     H58296   2.647  -0.686   3.919 -1.1221  1.1574 -1.4950
  432MOL0     H58297   2.499  -0.643   3.986 -0.0914 -0.8616 -0.1234
  432MOL0     H58298   2.573  -0.724   4.223  3.3218  2.5618  0.3029
  432MOL0     H58299   2.559  -0.846   4.093 -2.6543  2.4880 -2.5246
  432MOL0     H58300   2.702   0.044   3.927  0.5675  2.8416  1.3650
  432MOL0     H58301   2.581   0.249   4.010 -1.7546  1.1091  0.1685
  432MOL0     H58302   2.252   0.475   4.227  1.3566 -3.3173 -2.7515
  432MOL0     H58303   2.166   0.698   4.303 -0.8247 -3.6947  0.1477
  432MOL0     H58304   1.420   1.136   3.085 -0.1248  1.3254 -1.9107
  432MOL0     H58305   1.336   1.013   2.876 -0.0466 -1.2305  0.8993
  432MOL0     H58306   1.039   1.058   2.505 -0.8680  0.7826 -4.2443
  432MOL0     H58307   0.886   0.977   2.329 -1.3193 -1.7160 -1.1954
  432MOL0     H58308   0.723   0.939   2.215 -0.0034 -0.1038  1.6582
  432MOL0     H58309   0.645   0.806   2.151  0.4844 -4.0481  3.7132
  432MOL0     H58310   0.947   0.889   2.127  2.4143 -2.3324  1.1802
  432MOL0     H58311   0.809   0.850   2.008  0.7819 -1.2809 -1.0941
  432MOL0     H58312   0.803   0.617   2.087 -0.1380  1.5456  1.7788
  432MOL0     H58313   0.960   0.643   2.187  2.9023 -1.4175 -0.9851
  432MOL0     H58314   1.019   0.530   1.977  1.6775  1.1567 -0.7085
  432MOL0     H58315   0.934   0.657   1.883 -3.4586 -2.5450  0.7914
  432MOL0     H58316   1.322   0.819   1.963 -0.7176  1.6209  1.0311
  432MOL0     H58317   0.814   0.629   2.543  0.8517  0.4174  0.4667
  432MOL0     H58318   0.866   0.596   2.748 -0.3754  0.6512 -1.2018
  432MOL0     H58319   1.029   0.642   2.798  0.3222  0.9462 -0.9559
  432MOL0     H58320   0.880   0.726   2.859 -2.3424  1.2634 -1.6615
  433MOL0     O58321   3.050   6.571   3.195  0.0537  0.3648 -0.2905
  433MOL0     C58322   3.067   6.456   3.167 -0.1226  0.0775  0.6693
  433MOL0     O58323   3.101   6.408   3.042  0.0006  0.2652  0.0823
  433MOL0     C58324   3.131   6.492   2.942 -0.0370 -0.0093 -0.4164
  433MOL0     C58325   3.240   6.464   2.872 -0.1256  0.6483 -0.9300
  433MOL0     C58326   3.283   6.528   2.756  0.1858  0.5371 -0.0328
  433MOL0     C58327   3.213   6.639   2.714 -0.9333 -0.5968 -0.2842
  433MOL0     O58328   3.243   6.705   2.600 -1.0038  0.2232 -0.1448
  433MOL0     C58329   3.307   6.630   2.483  0.5096 -1.2925 -0.7860
  433MOL0     C58330   3.187   6.556   2.423  0.0834  0.1897  0.2503
  433MOL0     C58331   3.056   6.635   2.401 -0.2383  0.3476 -0.3521
  433MOL0     C58332   3.066   6.738   2.289 -0.1470  0.1487  0.1943
  433MOL0     C58333   2.928   6.782   2.236 -0.3989  0.7282 -0.9055
  433MOL0     C58334   2.829   6.821   2.345  0.1341 -0.5142 -0.1082
  433MOL0     C58335   2.707   6.883   2.274  0.8954  0.1508  0.0061
  433MOL0     C58336   2.592   6.854   2.373 -1.2192  0.4602 -2.1755
  433MOL0     N58337   2.469   6.914   2.325 -0.1208  0.1585  0.2705
  433MOL0     C58338   2.445   6.928   2.192 -0.6791  1.3940  0.2889
  433MOL0     C58339   2.335   6.998   2.185  0.4534 -0.7919 -0.8273
  433MOL0     C58340   2.263   7.014   2.054  0.2370 -0.0785  0.2204
  433MOL0     C58341   2.265   7.158   1.990 -0.9396 -0.5336  0.0689
  433MOL0     C58342   2.174   7.255   2.076 -0.0680  0.3254  0.6085
  433MOL0     C58343   2.019   7.252   2.055 -0.4892  0.1048  0.1191
  433MOL0     O58344   1.961   7.122   2.089  0.9048  0.2735  0.5367
  433MOL0     C58345   1.824   7.093   2.116 -0.5727  0.7307 -0.0061
  433MOL0     C58346   1.725   7.169   2.060  0.1174 -2.2724  0.1033
  433MOL0     C58347   1.591   7.129   2.078 -0.1895  0.2079  0.6595
  433MOL0     C58348   1.561   7.006   2.132 -0.2004  0.6019 -0.4649
  433MOL0     C58349   1.435   6.949   2.091 -0.2257  0.0163 -1.3579
  433MOL0     O58350   1.433   6.808   2.090 -0.8540 -0.0099 -0.2791
  433MOL0     C58351   1.312   6.762   2.056 -0.0126  0.7224  0.8331
  433MOL0     C58352   1.195   6.766   2.134 -0.2123 -0.5089 -0.0925
  433MOL0     C58353   1.082   6.693   2.090  0.0462 -0.1303 -0.0061
  433MOL0     C58354   1.081   6.615   1.971  0.6205 -0.7565 -0.3092
  433MOL0     O58355   0.968   6.552   1.941  0.1068  0.2907  0.4487
  433MOL0     C58356   0.956   6.465   1.833 -0.0229 -0.3641  0.5337
  433MOL0     C58357   0.816   6.424   1.827 -0.3965  0.3014 -0.0734
  433MOL0     C58358   0.795   6.281   1.772  0.4741 -0.0042 -0.7550
  433MOL0     C58359   0.652   6.238   1.811  0.0075 -0.3416 -0.2457
  433MOL0     C58360   0.610   6.102   1.740 -0.3889 -0.2873 -0.6645
  433MOL0     C58361   0.477   6.063   1.799 -0.3295 -0.2354  0.1129
  433MOL0     C58362   0.409   5.952   1.717 -1.1762  0.1904 -0.1557
  433MOL0     C58363   0.275   5.926   1.785 -1.0941  0.1339  0.1918
  433MOL0    Cl58364   0.302   5.852   1.956 -0.4195 -0.3009 -0.4889
  433MOL0     C58365   1.193   6.631   1.885  0.5049 -0.1901  0.6334
  433MOL0     C58366   1.306   6.698   1.936 -0.0341  0.3212 -0.0717
  433MOL0     O58367   1.342   7.023   2.066 -0.5026  0.0827  0.3324
  433MOL0     C58368   1.663   6.920   2.186 -0.7847  0.1866 -0.9128
  433MOL0     C58369   1.795   6.966   2.181 -0.6012 -0.5291  0.4715
  433MOL0     N58370   2.298   7.043   2.313 -0.2406 -0.1882 -0.4869
  433MOL0     N58371   2.379   6.993   2.397 -1.2618  0.4251  0.1438
  433MOL0     C58372   3.115   6.686   2.800 -0.2090  0.0018 -0.0245
  433MOL0     C58373   3.064   6.606   2.901 -0.9037 -0.1239 -0.3952
  433MOL0     C58374   3.044   6.352   3.267  0.5116  0.0131 -0.0400
  433MOL0     C58375   2.919   6.293   3.261  0.1780 -0.1695  0.1838
  433MOL0     C58376   2.884   6.192   3.344  0.1842  0.8960 -0.3905
  433MOL0     C58377   2.981   6.121   3.415 -0.2003  0.7276  0.5164
  433MOL0     O58378   2.947   5.999   3.475 -0.2965  0.3985 -0.0478
  433MOL0     C58379   3.041   5.892   3.470  0.2139  0.1925  0.0327
  433MOL0     C58380   2.964   5.763   3.482  0.3315 -0.7093 -0.6321
  433MOL0     C58381   3.029   5.634   3.444 -0.2104 -0.1792 -0.9070
  433MOL0     C58382   3.075   5.612   3.307  0.3585  0.2196  0.7080
  433MOL0     C58383   3.209   5.673   3.289 -0.1539 -0.2215 -1.0578
  433MOL0     C58384   3.307   5.721   3.238  0.0547  0.3346 -0.3898
  433MOL0     C58385   3.108   6.174   3.423 -0.2966 -0.2208  0.6030
  433MOL0     C58386   3.134   6.298   3.353 -0.0938 -0.3891  0.9842
  433MOL0     C58387   3.279   6.337   3.357  0.7284  0.1119  0.6039
  433MOL0     H58388   3.285   6.367   2.893 -1.3551 -0.1102 -1.6732
  433MOL0     H58389   3.361   6.477   2.701 -0.3920  0.6232 -0.9621
  433MOL0     H58390   3.337   6.701   2.407 -1.1874 -2.2569 -2.4420
  433MOL0     H58391   3.395   6.572   2.512  1.8296  1.1258  0.3168
  433MOL0     H58392   3.158   6.470   2.485 -2.8837  0.6952 -0.2915
  433MOL0     H58393   3.217   6.511   2.328 -1.7094 -0.8542  0.1481
  433MOL0     H58394   3.012   6.656   2.498  1.7127 -4.5027  1.9349
  433MOL0     H58395   2.985   6.562   2.360  0.5781  0.0689 -1.3224
  433MOL0     H58396   3.114   6.832   2.320  0.4198  0.3758 -1.2807
  433MOL0     H58397   3.127   6.697   2.208  0.2055  0.7582  0.1451
  433MOL0     H58398   2.960   6.869   2.178  1.1656  1.5068  0.9986
  433MOL0     H58399   2.886   6.700   2.178 -0.7142 -0.5526  1.0227
  433MOL0     H58400   2.798   6.733   2.402  0.0978  0.3870  1.2906
  433MOL0     H58401   2.886   6.890   2.407 -0.6682 -1.6003  1.9006
  433MOL0     H58402   2.684   6.821   2.187 -2.5447  1.2350 -0.0047
  433MOL0     H58403   2.722   6.990   2.257  1.6273  0.1378  0.5120
  433MOL0     H58404   2.576   6.748   2.396  3.3185 -0.0357 -0.0610
  433MOL0     H58405   2.623   6.899   2.468 -1.5726  0.8766 -2.2602
  433MOL0     H58406   2.493   6.879   2.108  1.5250  0.7811  1.8244
  433MOL0     H58407   2.326   6.967   1.978  3.1471 -0.2997  2.6344
  433MOL0     H58408   2.157   6.986   2.055 -0.8065  3.4268  1.1192
  433MOL0     H58409   2.373   7.169   1.995 -0.8322 -0.7745 -1.3337
  433MOL0     H58410   2.233   7.161   1.885  2.7804 -3.4001 -1.4040
  433MOL0     H58411   2.211   7.355   2.052  3.9810 -1.0222  0.4932
  433MOL0     H58412   2.212   7.248   2.178  4.0907 -0.3262 -0.8172
  433MOL0     H58413   2.010   7.281   1.950  4.5494  1.2529 -0.2672
  433MOL0     H58414   1.974   7.330   2.118 -1.9723  0.2155 -1.0317
  433MOL0     H58415   1.747   7.261   2.006 -1.1596 -1.1007  1.4825
  433MOL0     H58416   1.526   7.201   2.029  0.8612  1.8943  1.6521
  433MOL0     H58417   1.198   6.827   2.224  1.3330  0.4572 -0.7728
  433MOL0     H58418   0.994   6.687   2.154  2.3179  0.1248  3.4258
  433MOL0     H58419   0.976   6.509   1.734 -0.8505  2.0402  1.3462
  433MOL0     H58420   1.028   6.384   1.833  0.7339  0.2412 -1.7083
  433MOL0     H58421   0.771   6.446   1.924  1.8491  1.5104  0.7622
  433MOL0     H58422   0.766   6.493   1.758  0.3003  0.2382 -0.6547
  433MOL0     H58423   0.817   6.267   1.666  1.1985 -2.4651 -0.3368
  433MOL0     H58424   0.860   6.212   1.826  0.4344  1.3655  1.1328
  433MOL0     H58425   0.581   6.314   1.778  1.7567  1.2769 -0.4598
  433MOL0     H58426   0.650   6.227   1.920 -2.7296  2.0373  0.0764
  433MOL0     H58427   0.673   6.016   1.762 -0.8570 -0.8090 -1.3526
  433MOL0     H58428   0.605   6.121   1.633  0.3948 -0.6806 -0.7737
  433MOL0     H58429   0.506   6.031   1.900 -1.5031  0.5276  0.7125
  433MOL0     H58430   0.412   6.150   1.812  1.4910  1.4985 -1.6977
  433MOL0     H58431   0.469   5.862   1.734 -1.4229  0.7285  5.1139
  433MOL0     H58432   0.402   5.982   1.612  0.0745  1.9038  0.2050
  433MOL0     H58433   0.214   6.016   1.797 -2.1117 -0.2794 -1.4968
  433MOL0     H58434   0.216   5.856   1.725  3.0206 -0.7403 -3.3526
  433MOL0     H58435   1.206   6.565   1.800  2.8689 -0.7055  1.3049
  433MOL0     H58436   1.392   6.663   1.880  0.1714 -0.6105  0.8063
  433MOL0     H58437   1.646   6.821   2.226 -0.1791  0.6027  0.4250
  433MOL0     H58438   1.870   6.900   2.223 -0.7063 -0.6325  0.4980
  433MOL0     H58439   3.073   6.785   2.788 -1.6779 -0.6484 -0.5005
  433MOL0     H58440   2.969   6.635   2.945 -1.0326  0.0120 -0.7618
  433MOL0     H58441   2.838   6.328   3.197  1.0261  0.7325 -0.4208
  433MOL0     H58442   2.783   6.154   3.340 -0.6931  3.0695 -0.1308
  433MOL0     H58443   3.117   5.902   3.548 -1.3750  2.5951  1.4185
  433MOL0     H58444   3.103   5.890   3.380  0.2262 -1.0974  0.0544
  433MOL0     H58445   2.879   5.762   3.413 -0.7039  1.1422  0.5492
  433MOL0     H58446   2.920   5.763   3.582 -0.8015 -0.1123 -1.1072
  433MOL0     H58447   2.966   5.550   3.474 -2.8344  1.8412 -0.3755
  433MOL0     H58448   3.113   5.625   3.513  2.2841 -0.1054 -3.7358
  433MOL0     H58449   3.082   5.508   3.277 -0.4388  0.9150 -2.1643
  433MOL0     H58450   3.004   5.656   3.236  2.6863  1.8819 -0.7485
  433MOL0     H58451   3.389   5.773   3.194  0.8156 -0.6187 -0.1422
  433MOL0     H58452   3.193   6.130   3.474  0.2088  0.0469  0.0033
  433MOL0     H58453   3.302   6.419   3.288 -0.9725 -0.0764 -0.2425
  433MOL0     H58454   3.307   6.375   3.456 -0.6820  1.9525  0.3480
  433MOL0     H58455   3.347   6.258   3.324 -0.1023 -1.3083  2.1771
  434MOL0     O58456   9.325  10.310   5.451 -0.0869  0.5375  0.5987
  434MOL0     C58457   9.337  10.202   5.402  0.6045  0.3846 -0.4537
  434MOL0     O58458   9.327  10.181   5.271  0.1809  0.3602 -0.7127
  434MOL0     C58459   9.271  10.273   5.187  0.6934  0.3171 -0.8287
  434MOL0     C58460   9.169  10.362   5.214  0.2303 -0.0511 -0.3589
  434MOL0     C58461   9.128  10.452   5.122 -0.0033  1.2124  0.1942
  434MOL0     C58462   9.177  10.458   4.990  0.9883  0.2807  1.0472
  434MOL0     O58463   9.134  10.561   4.900  0.1855  0.4723 -0.4682
  434MOL0     C58464   9.044  10.663   4.945  0.4258 -0.1589 -0.4648
  434MOL0     C58465   9.028  10.767   4.833 -0.4093  0.0832 -0.4117
  434MOL0     C58466   8.926  10.706   4.723  0.5369  0.1261 -0.0858
  434MOL0     C58467   8.981  10.655   4.591  0.8438 -0.0894 -0.3922
  434MOL0     C58468   8.974  10.750   4.462  0.3171  0.0091  0.0248
  434MOL0     C58469   9.003  10.665   4.335  0.1874  0.1032 -0.6914
  434MOL0     C58470   9.022  10.761   4.208 -0.5454  0.2892 -0.7322
  434MOL0     C58471   8.989  10.678   4.089  0.1537  0.8971 -0.7713
  434MOL0     N58472   9.016  10.737   3.960  0.1861  0.5261  0.3396
  434MOL0     C58473   9.136  10.791   3.931  0.4228 -0.8142  0.3450
  434MOL0     C58474   9.116  10.855   3.813  0.2343  0.0679  0.4898
  434MOL0     C58475   9.220  10.925   3.729  0.5540 -1.0641  0.5307
  434MOL0     C58476   9.162  11.032   3.630  0.3052  0.1123  0.8237
  434MOL0     C58477   9.265  11.056   3.523 -0.3769 -0.1859  0.9988
  434MOL0     C58478   9.217  11.144   3.406  0.3658 -0.0295 -0.0444
  434MOL0     O58479   9.225  11.280   3.446  0.4962 -0.5260  0.5979
  434MOL0     C58480   9.187  11.376   3.346  0.1232  0.4920 -0.5206
  434MOL0     C58481   9.243  11.380   3.224 -0.7483  0.0747 -0.2674
  434MOL0     C58482   9.199  11.464   3.120  1.0711  0.6132 -0.6976
  434MOL0     C58483   9.088  11.547   3.141  0.9395  0.2840  0.2400
  434MOL0     C58484   9.046  11.641   3.035  0.4124  0.6072  0.5836
  434MOL0     O58485   8.941  11.727   3.061  0.5252  0.5420  0.4367
  434MOL0     C58486   8.910  11.816   2.955  0.1559 -0.2398 -0.5003
  434MOL0     C58487   8.890  11.945   3.008  0.3313 -0.8248  0.2498
  434MOL0     C58488   8.850  12.047   2.930 -0.2555 -0.4999  0.8130
  434MOL0     C58489   8.845  12.032   2.793 -0.7407  0.9249  0.6630
  434MOL0     O58490   8.814  12.144   2.721 -0.3170  0.1933 -0.0928
  434MOL0     C58491   8.715  12.119   2.623  0.2051  0.3831  0.5709
  434MOL0     C58492   8.662  12.259   2.563  0.3131  0.9472  0.0273
  434MOL0     C58493   8.778  12.336   2.491 -0.3131  0.0893 -0.3771
  434MOL0     C58494   8.740  12.463   2.424  0.3707  0.2358  0.2376
  434MOL0     C58495   8.690  12.445   2.278  0.9263 -0.0784  0.0555
  434MOL0     C58496   8.795  12.400   2.177 -0.3911  0.3397  0.0307
  434MOL0     C58497   8.746  12.417   2.035 -0.6084 -0.2185 -0.3382
  434MOL0     C58498   8.665  12.307   1.980 -0.4424  0.4211  0.5127
  434MOL0    Cl58499   8.692  12.301   1.790  0.2385  0.2461 -0.1338
  434MOL0     C58500   8.873  11.907   2.733 -0.3551 -0.0862 -0.1387
  434MOL0     C58501   8.908  11.797   2.816  1.1099 -0.6830 -0.1551
  434MOL0     O58502   9.105  11.637   2.930 -0.6022 -0.3361  0.6955
  434MOL0     C58503   9.023  11.540   3.266  0.2118 -0.3205 -0.6456
  434MOL0     C58504   9.075  11.457   3.372  0.5061 -0.5516  0.4761
  434MOL0     N58505   8.987  10.836   3.768 -0.6130 -0.6042 -0.8149
  434MOL0     N58506   8.931  10.765   3.854 -0.1049  0.0236 -1.4849
  434MOL0     C58507   9.282  10.373   4.956  0.4174  0.4418  0.3053
  434MOL0     C58508   9.322  10.276   5.052  0.3152  0.6399 -0.4007
  434MOL0     C58509   9.370  10.085   5.491 -0.1978 -0.5705  0.2641
  434MOL0     C58510   9.326  10.082   5.630 -1.2252  0.1282  0.3407
  434MOL0     C58511   9.359   9.973   5.714  0.0900 -1.2239  0.6148
  434MOL0     C58512   9.421   9.867   5.657 -1.4825  0.3113 -0.6844
  434MOL0     O58513   9.445   9.752   5.724 -0.3711 -0.1406  0.0771
  434MOL0     C58514   9.374   9.723   5.845  0.2884 -0.0406  0.2323
  434MOL0     C58515   9.410   9.588   5.901 -0.9152  0.5623  0.0810
  434MOL0     C58516   9.342   9.535   6.023  0.9048  0.6543 -0.4964
  434MOL0     C58517   9.419   9.412   6.086  0.4399  0.3408 -0.9956
  434MOL0     C58518   9.333   9.347   6.198  0.8121  0.0438 -0.5844
  434MOL0     C58519   9.273   9.296   6.295 -0.6419  1.0088  0.9371
  434MOL0     C58520   9.482   9.868   5.534  0.9368 -0.0414  0.1055
  434MOL0     C58521   9.448   9.972   5.446  0.2834  0.1647 -0.3081
  434MOL0     C58522   9.506   9.935   5.310  0.3675  0.5442  0.9234
  434MOL0     H58523   9.139  10.361   5.318  3.1763  3.0136  0.6897
  434MOL0     H58524   9.043  10.515   5.145 -0.7646 -0.2406  1.5356
  434MOL0     H58525   8.942  10.627   4.957 -1.9102  5.5586  0.3049
  434MOL0     H58526   9.076  10.713   5.038 -3.0271 -2.3594  2.1756
  434MOL0     H58527   9.125  10.802   4.798 -0.2970  0.6894  0.4659
  434MOL0     H58528   8.993  10.862   4.875  1.5268  0.4040  0.6288
  434MOL0     H58529   8.852  10.787   4.720 -1.9226 -2.0045  0.0151
  434MOL0     H58530   8.871  10.616   4.752  0.9032 -1.0878 -2.8074
  434MOL0     H58531   9.078  10.608   4.600  0.2553 -1.7954 -2.2166
  434MOL0     H58532   8.917  10.572   4.558  2.2077 -1.3166 -0.0060
  434MOL0     H58533   8.872  10.790   4.459  0.0528 -0.6870 -0.4585
  434MOL0     H58534   9.042  10.835   4.472  2.8348 -1.4729 -2.8760
  434MOL0     H58535   9.090  10.599   4.349 -2.5911 -3.5001  1.5529
  434MOL0     H58536   8.924  10.594   4.308  1.7491 -1.8785 -0.2712
  434MOL0     H58537   9.120  10.809   4.202  0.9225 -2.2977  0.9770
  434MOL0     H58538   8.944  10.838   4.213 -1.0355 -0.1964 -0.7706
  434MOL0     H58539   9.035  10.580   4.096 -1.0033  0.3315 -0.7772
  434MOL0     H58540   8.882  10.656   4.083 -0.1687  2.2759 -0.5178
  434MOL0     H58541   9.228  10.773   3.986 -0.7537 -2.0559  2.0359
  434MOL0     H58542   9.295  10.973   3.792  0.1675  4.9466 -2.8252
  434MOL0     H58543   9.276  10.847   3.677  1.1988 -1.4205  1.7276
  434MOL0     H58544   9.062  10.998   3.600  0.7979 -2.2665  1.6246
  434MOL0     H58545   9.139  11.125   3.683 -0.0926 -0.8119  2.3380
  434MOL0     H58546   9.296  10.961   3.478 -1.7797 -0.3541  0.3306
  434MOL0     H58547   9.349  11.107   3.571 -2.4980  1.8753  2.7907
  434MOL0     H58548   9.117  11.112   3.374  1.0291 -3.7186  1.2150
  434MOL0     H58549   9.284  11.124   3.322  2.2508  0.0977  1.3676
  434MOL0     H58550   9.331  11.317   3.213 -0.7421  0.0670 -0.1688
  434MOL0     H58551   9.250  11.458   3.025 -1.1719  2.1209 -2.1015
  434MOL0     H58552   8.912  11.961   3.113 -0.9344  4.8668 -0.0475
  434MOL0     H58553   8.821  12.136   2.986  2.4548  1.3825 -0.5532
  434MOL0     H58554   8.753  12.067   2.535  0.6243 -0.2578  1.1283
  434MOL0     H58555   8.624  12.068   2.657  2.3827 -2.3266  2.7350
  434MOL0     H58556   8.588  12.220   2.492  0.0519 -4.1979  2.6105
  434MOL0     H58557   8.610  12.317   2.639 -2.8236 -1.0548 -0.4095
  434MOL0     H58558   8.852  12.356   2.569 -0.7452 -3.3518  1.0985
  434MOL0     H58559   8.827  12.260   2.429  1.5938  0.6673  0.3467
  434MOL0     H58560   8.840  12.506   2.416  0.4362  0.2225  0.9805
  434MOL0     H58561   8.665  12.518   2.481 -0.9606  1.5518 -2.5873
  434MOL0     H58562   8.647  12.541   2.247  2.1108  1.5058  2.9431
  434MOL0     H58563   8.608  12.373   2.279  1.1963 -0.5941  4.4732
  434MOL0     H58564   8.871  12.478   2.185 -2.0725  1.9682  0.6437
  434MOL0     H58565   8.834  12.299   2.191  1.8646  1.2170  0.4949
  434MOL0     H58566   8.842  12.414   1.982 -1.0594  2.5066 -1.4960
  434MOL0     H58567   8.703  12.517   2.023  0.7207  0.2872 -1.0517
  434MOL0     H58568   8.706  12.212   2.016 -0.1525  0.5519  0.5315
  434MOL0     H58569   8.562  12.314   2.016  0.4321 -0.3135  3.4790
  434MOL0     H58570   8.863  11.888   2.627  1.4925 -0.0738 -0.3585
  434MOL0     H58571   8.927  11.701   2.769 -1.2035 -2.9907  3.1874
  434MOL0     H58572   8.938  11.604   3.284  0.4732 -0.2335  0.3373
  434MOL0     H58573   9.017  11.461   3.464 -0.3256  0.1715 -0.0647
  434MOL0     H58574   9.332  10.388   4.861 -1.6474  4.6022 -0.3650
  434MOL0     H58575   9.396  10.198   5.034 -1.2535 -1.9432  3.0551
  434MOL0     H58576   9.274  10.164   5.678  0.3387 -1.2031  4.7427
  434MOL0     H58577   9.321   9.988   5.814  2.5441 -2.7828  1.8753
  434MOL0     H58578   9.265   9.720   5.831  0.4748  1.1422 -1.8764
  434MOL0     H58579   9.392   9.810   5.910 -1.9171  0.8032 -0.1676
  434MOL0     H58580   9.515   9.604   5.925 -0.6378 -2.8778  1.8680
  434MOL0     H58581   9.413   9.507   5.828  1.5191  0.9671 -0.3514
  434MOL0     H58582   9.245   9.497   5.991  2.1066 -1.9343 -1.3859
  434MOL0     H58583   9.330   9.607   6.104 -0.1455 -1.0589  0.9380
  434MOL0     H58584   9.442   9.335   6.013  2.8165 -1.7678  1.7068
  434MOL0     H58585   9.511   9.450   6.133 -0.7528  3.6195 -1.0599
  434MOL0     H58586   9.233   9.250   6.383 -0.7431  0.0996  0.4377
  434MOL0     H58587   9.537   9.783   5.495 -1.1688 -0.5366 -2.0339
  434MOL0     H58588   9.614   9.918   5.315  0.1789 -1.3535 -0.5020
  434MOL0     H58589   9.458   9.850   5.262 -3.8677  1.1999  3.5057
  434MOL0     H58590   9.506  10.016   5.237  2.3046 -0.3326 -0.1389
  435MOL0     O58591   3.480   3.822   4.199  0.9328 -0.3967 -1.1839
  435MOL0     C58592   3.436   3.824   4.086  1.0603  0.1141  0.3710
  435MOL0     O58593   3.517   3.829   3.971  0.0712 -0.1219 -0.5937
  435MOL0     C58594   3.647   3.796   3.988 -0.6149 -0.4671  0.4548
  435MOL0     C58595   3.742   3.891   4.025 -0.0246 -0.7795 -0.3092
  435MOL0     C58596   3.880   3.864   4.027  0.4531  0.0908 -0.7928
  435MOL0     C58597   3.929   3.728   4.023  0.0654 -0.1236  0.3690
  435MOL0     O58598   4.068   3.703   4.026  1.0145  0.7531  0.2673
  435MOL0     C58599   4.101   3.567   4.067  0.4200 -0.4420 -1.1756
  435MOL0     C58600   4.242   3.572   4.126  0.1377 -0.3929  0.0677
  435MOL0     C58601   4.352   3.617   4.034  0.0681 -0.3661  0.9205
  435MOL0     C58602   4.365   3.554   3.902 -1.0437  0.3439 -0.3881
  435MOL0     C58603   4.500   3.561   3.831 -0.0510 -0.8695  0.0634
  435MOL0     C58604   4.543   3.710   3.798  0.2164  0.0646 -0.2983
  435MOL0     C58605   4.659   3.732   3.697  0.4122 -0.3623 -0.0269
  435MOL0     C58606   4.656   3.879   3.631  0.8982  0.8672  0.2106
  435MOL0     N58607   4.783   3.909   3.573 -0.5482  0.4685 -0.0609
  435MOL0     C58608   4.905   3.845   3.593 -0.9812 -0.0836  0.0547
  435MOL0     C58609   4.987   3.939   3.538 -0.9663  0.7249 -0.2381
  435MOL0     C58610   5.133   3.907   3.532  0.4742  0.1448  0.9152
  435MOL0     C58611   5.224   3.969   3.644  0.3283 -0.6593  0.9646
  435MOL0     C58612   5.372   3.941   3.605  0.3583  0.0983  0.0781
  435MOL0     C58613   5.461   4.055   3.672  0.1685 -0.4207  0.1113
  435MOL0     O58614   5.432   4.070   3.808 -0.1848 -0.2149 -0.0129
  435MOL0     C58615   5.447   3.960   3.895 -0.8259 -0.7188 -1.0219
  435MOL0     C58616   5.542   3.858   3.877 -0.9847 -0.6188  0.0112
  435MOL0     C58617   5.559   3.744   3.960  0.2787 -0.2815  0.0982
  435MOL0     C58618   5.472   3.727   4.066 -0.1205  0.1786 -0.7363
  435MOL0     C58619   5.466   3.607   4.149  0.1792  0.5792 -1.0249
  435MOL0     O58620   5.550   3.509   4.107  0.6486 -0.4411 -0.3727
  435MOL0     C58621   5.590   3.406   4.191 -0.8522  0.0465 -0.9493
  435MOL0     C58622   5.560   3.276   4.165 -0.2207 -1.3291  0.2385
  435MOL0     C58623   5.596   3.175   4.257  0.2793 -0.5147 -0.3488
  435MOL0     C58624   5.681   3.201   4.364  0.5806 -0.1500 -0.6229
  435MOL0     O58625   5.726   3.113   4.455 -0.3635  0.3387  0.1340
  435MOL0     C58626   5.661   2.979   4.449 -0.7642 -0.7005  0.0614
  435MOL0     C58627   5.697   2.888   4.566  0.0899  0.0749  0.3019
  435MOL0     C58628   5.635   2.751   4.544 -0.1319 -0.3461  0.2114
  435MOL0     C58629   5.713   2.659   4.628  0.4959 -0.5369 -0.5491
  435MOL0     C58630   5.624   2.532   4.651  0.0881  1.2612  0.4255
  435MOL0     C58631   5.702   2.399   4.694  0.9100 -0.0989 -0.2569
  435MOL0     C58632   5.772   2.401   4.829 -0.4827  0.0580  0.2247
  435MOL0     C58633   5.863   2.279   4.855 -0.5791  0.1671 -0.6057
  435MOL0    Cl58634   5.972   2.247   4.726 -0.4340  0.1601 -0.6575
  435MOL0     C58635   5.722   3.337   4.376  0.2260 -0.5513 -0.0800
  435MOL0     C58636   5.676   3.437   4.296  0.1726  0.0943  0.3998
  435MOL0     O58637   5.389   3.592   4.250 -0.0098  0.8118  0.3894
  435MOL0     C58638   5.381   3.832   4.091  0.2278  0.9033  0.2378
  435MOL0     C58639   5.366   3.948   4.003  0.2125  0.0718 -0.7621
  435MOL0     N58640   4.916   4.043   3.477 -0.3496 -0.3135  0.9555
  435MOL0     N58641   4.796   4.018   3.500  0.4550 -0.1922  0.2391
  435MOL0     C58642   3.829   3.629   3.995  0.4422  0.4378  0.3752
  435MOL0     C58643   3.694   3.661   3.982  0.2696  0.3698 -0.0392
  435MOL0     C58644   3.282   3.811   4.072  0.5300 -0.1278  1.3401
  435MOL0     C58645   3.203   3.815   4.188  0.1234  0.8212  0.8642
  435MOL0     C58646   3.059   3.834   4.177  0.1340  0.1184  0.0490
  435MOL0     C58647   3.002   3.858   4.056 -0.2657  0.2059  0.1127
  435MOL0     O58648   2.863   3.873   4.042 -0.2322 -0.1262 -0.3937
  435MOL0     C58649   2.801   3.956   4.138  0.9145  0.1360  0.8112
  435MOL0     C58650   2.850   4.101   4.153  0.8189 -0.4024  0.9005
  435MOL0     C58651   2.877   4.175   4.025  0.6669 -0.6205 -0.6977
  435MOL0     C58652   2.773   4.292   4.009 -0.9451  0.1889 -0.9377
  435MOL0     C58653   2.803   4.394   3.904  0.8852  1.0032 -0.3491
  435MOL0     C58654   2.840   4.465   3.822 -0.1042 -0.0476  0.9255
  435MOL0     C58655   3.083   3.847   3.942 -0.1809  0.1249 -0.0737
  435MOL0     C58656   3.218   3.823   3.943  0.1490 -0.5272  0.8806
  435MOL0     C58657   3.285   3.818   3.813 -0.0316 -0.0649  0.0821
  435MOL0     H58658   3.702   3.992   4.028 -1.1750 -1.2304  2.9672
  435MOL0     H58659   3.953   3.941   4.050  3.3859 -2.9636  1.0155
  435MOL0     H58660   4.030   3.521   4.137 -0.8046 -1.2659 -2.8739
  435MOL0     H58661   4.115   3.503   3.979  2.8946 -0.7842 -0.6005
  435MOL0     H58662   4.267   3.471   4.159  0.4507  0.0769  1.3418
  435MOL0     H58663   4.255   3.639   4.212 -0.9618  1.2914 -1.0064
  435MOL0     H58664   4.446   3.593   4.086 -1.1322 -2.8002  2.1480
  435MOL0     H58665   4.349   3.727   4.039 -2.5144 -0.1501 -2.2514
  435MOL0     H58666   4.342   3.447   3.907  1.8733 -0.3749  4.5802
  435MOL0     H58667   4.284   3.597   3.842 -0.6571 -0.9295 -1.8934
  435MOL0     H58668   4.576   3.506   3.887 -0.3585 -3.4929 -1.9028
  435MOL0     H58669   4.502   3.499   3.741 -2.0462 -1.6201  0.4732
  435MOL0     H58670   4.455   3.745   3.744 -0.1853  1.8801  1.4414
  435MOL0     H58671   4.554   3.775   3.885 -6.0771  1.0065  0.2174
  435MOL0     H58672   4.671   3.650   3.626 -0.6489 -0.1496 -0.4827
  435MOL0     H58673   4.745   3.714   3.762  0.7266 -1.7000 -0.7761
  435MOL0     H58674   4.588   3.881   3.545  0.9464  0.0109  0.1417
  435MOL0     H58675   4.623   3.953   3.704 -1.3672 -1.3612  1.6162
  435MOL0     H58676   4.930   3.753   3.644 -2.7246 -0.9171 -0.5246
  435MOL0     H58677   5.138   3.799   3.521 -1.6931  0.1392 -0.4657
  435MOL0     H58678   5.171   3.949   3.438 -0.2695 -1.5537 -0.1719
  435MOL0     H58679   5.201   4.076   3.652 -2.0344 -0.8661 -1.4114
  435MOL0     H58680   5.205   3.926   3.742  2.4506 -0.9424  1.2978
  435MOL0     H58681   5.389   3.936   3.497  2.4581  1.2312  0.2943
  435MOL0     H58682   5.389   3.840   3.644  0.5646 -0.6081 -1.7547
  435MOL0     H58683   5.442   4.156   3.632 -2.3234 -0.7626  0.2703
  435MOL0     H58684   5.569   4.037   3.665  0.1694 -0.2963 -0.2185
  435MOL0     H58685   5.617   3.867   3.800  0.0948 -0.3528  1.0676
  435MOL0     H58686   5.632   3.665   3.946  1.5096  1.2152 -2.6006
  435MOL0     H58687   5.491   3.242   4.088 -1.1980 -1.9799  1.3692
  435MOL0     H58688   5.564   3.072   4.242  4.1937 -1.8286 -0.8556
  435MOL0     H58689   5.554   2.996   4.465 -0.7445 -0.4441 -0.0842
  435MOL0     H58690   5.680   2.932   4.352  1.5947  2.8930 -1.4202
  435MOL0     H58691   5.806   2.884   4.558 -0.0818 -1.5811 -2.3255
  435MOL0     H58692   5.667   2.909   4.669 -0.2436  0.4671  0.1274
  435MOL0     H58693   5.529   2.752   4.572 -0.6150  2.0668 -1.3977
  435MOL0     H58694   5.644   2.707   4.444  1.1724 -1.3391  0.7452
  435MOL0     H58695   5.752   2.706   4.719 -0.3363 -0.4371 -0.2383
  435MOL0     H58696   5.808   2.641   4.576  0.5998 -0.6546 -0.3187
  435MOL0     H58697   5.563   2.513   4.562  0.1591 -0.7080  0.7506
  435MOL0     H58698   5.563   2.560   4.736  1.2509 -0.2418  1.8202
  435MOL0     H58699   5.623   2.324   4.689 -1.4465  2.1491  1.2547
  435MOL0     H58700   5.784   2.383   4.623  2.6074  0.2778  1.5416
  435MOL0     H58701   5.707   2.418   4.915 -1.0540 -0.3313 -0.1237
  435MOL0     H58702   5.835   2.490   4.827 -1.1962  0.5778 -1.4105
  435MOL0     H58703   5.909   2.314   4.948 -3.9050 -1.2916  1.7589
  435MOL0     H58704   5.808   2.190   4.886  1.6720 -2.3974 -3.3683
  435MOL0     H58705   5.789   3.344   4.461  2.2574 -3.6509 -1.2307
  435MOL0     H58706   5.696   3.539   4.327 -3.5193  1.4139 -0.9999
  435MOL0     H58707   5.320   3.829   4.181  1.2858  0.5238  0.9635
  435MOL0     H58708   5.282   4.017   4.011 -0.1918 -0.3894 -0.9668
  435MOL0     H58709   3.862   3.526   3.980 -1.2081  0.1668 -1.8160
  435MOL0     H58710   3.621   3.581   3.986 -0.1170  0.5593 -2.1271
  435MOL0     H58711   3.243   3.801   4.288  0.6664 -1.7491  0.3392
  435MOL0     H58712   3.000   3.846   4.268  0.2033 -2.1960  0.4570
  435MOL0     H58713   2.798   3.914   4.239 -0.7650  3.0775  2.0866
  435MOL0     H58714   2.700   3.956   4.097  0.7151  2.7913  1.1414
  435MOL0     H58715   2.943   4.089   4.209  0.0056  1.5829  2.7895
  435MOL0     H58716   2.781   4.154   4.219  0.2104 -0.7439  0.5516
  435MOL0     H58717   2.876   4.109   3.937  5.5150 -0.4269 -1.1393
  435MOL0     H58718   2.980   4.209   4.037  0.4515 -0.1769 -0.1092
  435MOL0     H58719   2.682   4.247   3.968 -1.7425  0.9888 -0.0917
  435MOL0     H58720   2.744   4.347   4.100 -0.8975  2.7271 -2.3532
  435MOL0     H58721   2.899   4.525   3.755  0.0254  1.2038  2.1120
  435MOL0     H58722   3.027   3.890   3.859 -0.1436  1.1015  0.3898
  435MOL0     H58723   3.360   3.740   3.799 -1.2972 -1.2288 -0.3936
  435MOL0     H58724   3.211   3.802   3.735 -0.9483 -0.5741  1.0355
  435MOL0     H58725   3.331   3.915   3.788  2.5644 -1.2117  0.0514
  436MOL0     O58726   6.864   6.117   5.740  0.0623  0.4755  0.1141
  436MOL0     C58727   6.796   6.012   5.758 -0.9923  0.6150 -0.2250
  436MOL0     O58728   6.834   5.898   5.711 -0.3856  0.8916  0.1701
  436MOL0     C58729   6.959   5.864   5.662  0.4597 -0.1725  0.0022
  436MOL0     C58730   6.972   5.754   5.580  0.2780  0.1068 -0.1168
  436MOL0     C58731   7.096   5.715   5.520 -0.4185 -0.4140 -0.6927
  436MOL0     C58732   7.216   5.794   5.556 -0.3724  0.8568  0.6761
  436MOL0     O58733   7.326   5.754   5.476 -0.8617 -0.4775 -0.5611
  436MOL0     C58734   7.428   5.849   5.455  0.5078  0.0535  0.2243
  436MOL0     C58735   7.547   5.825   5.544  0.0149  0.2450 -0.5008
  436MOL0     C58736   7.602   5.683   5.508  0.4301  0.3147  0.5780
  436MOL0     C58737   7.745   5.655   5.575 -0.2458  1.1023 -0.1615
  436MOL0     C58738   7.810   5.527   5.558  0.2527 -0.2394 -0.1921
  436MOL0     C58739   7.847   5.480   5.411 -0.0738 -0.1300 -1.6982
  436MOL0     C58740   7.960   5.370   5.403 -0.4814  0.2012  0.4578
  436MOL0     C58741   7.909   5.253   5.484  0.8579  1.1818  0.0931
  436MOL0     N58742   8.003   5.141   5.483 -0.4465 -0.1050 -0.2607
  436MOL0     C58743   8.011   5.026   5.402  0.3754 -0.5049  0.9696
  436MOL0     C58744   8.073   4.934   5.480  0.8340  0.6763  0.8522
  436MOL0     C58745   8.105   4.789   5.432  0.6138 -0.1058  1.3511
  436MOL0     C58746   7.975   4.717   5.391 -0.6565  0.1001  0.0347
  436MOL0     C58747   8.008   4.573   5.351  0.5374 -0.1575  0.2433
  436MOL0     C58748   7.899   4.506   5.264 -0.2773  0.3400  0.9132
  436MOL0     O58749   7.779   4.493   5.330 -0.0356 -0.7567  0.5445
  436MOL0     C58750   7.680   4.442   5.262  0.9730 -0.2085  0.0227
  436MOL0     C58751   7.675   4.412   5.133  0.5240 -0.7643 -1.4683
  436MOL0     C58752   7.574   4.342   5.073 -0.0552 -0.2601  0.0578
  436MOL0     C58753   7.457   4.305   5.144 -0.1649 -0.3774  0.0177
  436MOL0     C58754   7.344   4.215   5.088  0.2226  0.1247 -0.4578
  436MOL0     O58755   7.227   4.230   5.160  0.0799 -0.1500 -0.4212
  436MOL0     C58756   7.128   4.152   5.121  0.6643 -0.1206 -0.5509
  436MOL0     C58757   7.052   4.167   5.004 -0.6737 -0.7335  0.1549
  436MOL0     C58758   6.937   4.092   4.971 -0.0579 -0.3908 -0.0569
  436MOL0     C58759   6.915   3.977   5.049  0.0055 -0.6775 -0.2221
  436MOL0     O58760   6.798   3.910   5.018 -0.2249  0.3218 -0.3359
  436MOL0     C58761   6.809   3.770   5.028 -0.7948  0.0023  0.6486
  436MOL0     C58762   6.677   3.702   5.007  0.4381  0.7769 -0.5023
  436MOL0     C58763   6.596   3.747   4.890  0.2803 -0.6896  0.4929
  436MOL0     C58764   6.676   3.792   4.763  0.5446 -0.0219 -1.0447
  436MOL0     C58765   6.586   3.789   4.639  0.4052 -0.6630 -0.6994
  436MOL0     C58766   6.473   3.894   4.618  0.1254  0.4436  0.4129
  436MOL0     C58767   6.546   4.022   4.565  0.2538  0.5132 -1.0074
  436MOL0     C58768   6.444   4.133   4.534 -0.5030  0.5938 -0.0379
  436MOL0    Cl58769   6.523   4.290   4.526  0.0627  0.6142  0.2033
  436MOL0     C58770   6.990   3.964   5.168 -0.1022  0.4737  0.2801
  436MOL0     C58771   7.091   4.050   5.206 -0.6096 -0.1377  0.5856
  436MOL0     O58772   7.351   4.159   4.977 -0.7029 -0.6554  0.4577
  436MOL0     C58773   7.452   4.339   5.281 -0.3704 -0.2497  0.0660
  436MOL0     C58774   7.562   4.403   5.337 -0.3245 -0.4924 -1.5535
  436MOL0     N58775   8.103   4.989   5.598 -0.1028 -0.0825  0.3484
  436MOL0     N58776   8.060   5.110   5.598  0.2546  0.3115  0.0411
  436MOL0     C58777   7.205   5.890   5.659  0.6850  0.1329 -1.0166
  436MOL0     C58778   7.082   5.922   5.706 -0.1988 -0.4204  1.3961
  436MOL0     C58779   6.663   6.035   5.826 -0.2836  0.6422  0.1349
  436MOL0     C58780   6.569   6.121   5.763  0.5139  0.3021  0.0511
  436MOL0     C58781   6.442   6.120   5.811  0.5991  0.7772  0.2996
  436MOL0     C58782   6.387   6.039   5.910 -0.1102  0.0560  0.7178
  436MOL0     O58783   6.253   6.048   5.939  0.6138  0.4207  0.3939
  436MOL0     C58784   6.203   5.957   6.031 -0.7524  0.6621  0.2645
  436MOL0     C58785   6.069   6.018   6.066 -0.7605  0.0006 -0.8269
  436MOL0     C58786   5.996   5.976   6.195  0.0645  0.1710 -0.1238
  436MOL0     C58787   5.858   6.024   6.200 -0.0232  0.0466  0.0002
  436MOL0     C58788   5.775   5.935   6.115 -0.2973  0.1352 -1.0750
  436MOL0     C58789   5.705   5.849   6.063  0.3837  0.0199  0.3013
  436MOL0     C58790   6.482   5.955   5.975 -0.2245 -0.4157  0.0789
  436MOL0     C58791   6.615   5.953   5.936  0.1100 -0.4068  1.1246
  436MOL0     C58792   6.721   5.874   6.005  0.0858  0.5784 -0.1159
  436MOL0     H58793   6.883   5.695   5.558  1.0726  0.2013 -4.7492
  436MOL0     H58794   7.116   5.628   5.459  0.1266 -0.1875 -0.8434
  436MOL0     H58795   7.465   5.855   5.352 -3.4279  4.1142 -1.2804
  436MOL0     H58796   7.390   5.948   5.481  1.2607  0.1978  0.8131
  436MOL0     H58797   7.505   5.840   5.644  1.3314  3.5424 -0.2964
  436MOL0     H58798   7.622   5.904   5.527  0.6472 -0.0788  0.6479
  436MOL0     H58799   7.604   5.672   5.399  1.5309  1.8291  0.4118
  436MOL0     H58800   7.528   5.609   5.539 -0.1245  0.5134 -0.2298
  436MOL0     H58801   7.814   5.728   5.532 -0.3677  0.7090 -1.0480
  436MOL0     H58802   7.729   5.659   5.683  1.8850 -3.8965  0.6312
  436MOL0     H58803   7.902   5.541   5.616 -0.6077  2.5155  0.6594
  436MOL0     H58804   7.748   5.450   5.606 -2.0238  1.7207  0.1617
  436MOL0     H58805   7.756   5.443   5.363 -0.1426 -1.9297 -0.2650
  436MOL0     H58806   7.871   5.565   5.346 -0.2367  1.0708 -0.2440
  436MOL0     H58807   8.049   5.410   5.453  0.5852 -0.3191 -0.9963
  436MOL0     H58808   7.977   5.333   5.302 -1.8967 -1.8732  0.9171
  436MOL0     H58809   7.885   5.269   5.589 -0.3425 -0.7039  0.1657
  436MOL0     H58810   7.812   5.221   5.445  1.5883 -0.0320 -0.8319
  436MOL0     H58811   7.956   5.006   5.310 -1.4115  3.7643  0.8827
  436MOL0     H58812   8.172   4.788   5.346 -0.7475 -1.0641  0.2486
  436MOL0     H58813   8.152   4.726   5.508  0.7292 -4.2315 -1.8065
  436MOL0     H58814   7.914   4.706   5.481 -0.2107 -2.3281  0.1248
  436MOL0     H58815   7.934   4.765   5.302  0.6206  1.3319  0.0733
  436MOL0     H58816   8.036   4.501   5.427  0.9845 -0.0230  0.2073
  436MOL0     H58817   8.096   4.596   5.291  0.1724  2.2712  0.5313
  436MOL0     H58818   7.939   4.412   5.223 -0.2097  0.9106 -0.3835
  436MOL0     H58819   7.885   4.576   5.181  1.0712  1.2454  1.4128
  436MOL0     H58820   7.759   4.426   5.066  0.9671 -1.1862 -1.0071
  436MOL0     H58821   7.579   4.334   4.965  2.6227 -1.2068  0.1900
  436MOL0     H58822   7.082   4.240   4.930  2.3538 -2.2268 -0.2630
  436MOL0     H58823   6.877   4.122   4.886 -1.7817 -0.8323  0.9489
  436MOL0     H58824   6.884   3.728   4.961 -1.7579 -0.3127 -0.2546
  436MOL0     H58825   6.846   3.753   5.129  1.1845 -0.4358 -0.1120
  436MOL0     H58826   6.703   3.597   4.990  2.2048  0.9143  1.0517
  436MOL0     H58827   6.627   3.729   5.101 -0.1707  3.3205 -1.4971
  436MOL0     H58828   6.527   3.666   4.867  0.5600 -1.2118  1.4344
  436MOL0     H58829   6.539   3.837   4.915 -1.7706 -2.1196  1.2294
  436MOL0     H58830   6.762   3.725   4.747 -0.9359 -2.5338  0.6842
  436MOL0     H58831   6.701   3.898   4.768  1.8520 -0.1529 -3.4203
  436MOL0     H58832   6.536   3.692   4.651  3.0047 -2.0451 -0.3484
  436MOL0     H58833   6.641   3.790   4.545  0.6873  3.3675 -0.6698
  436MOL0     H58834   6.423   3.849   4.531  2.2665 -1.0798 -0.1215
  436MOL0     H58835   6.408   3.911   4.704  0.6436  2.5952  0.4344
  436MOL0     H58836   6.617   4.008   4.484  0.5806  1.0388 -0.8152
  436MOL0     H58837   6.613   4.067   4.639  1.0287 -2.4328  0.2260
  436MOL0     H58838   6.391   4.116   4.439  0.6741 -2.7905 -0.2335
  436MOL0     H58839   6.369   4.140   4.613  1.0008 -1.5623  1.7064
  436MOL0     H58840   6.966   3.883   5.236  0.4863  0.0007 -0.0639
  436MOL0     H58841   7.143   4.034   5.300 -0.7025  2.6969  1.2194
  436MOL0     H58842   7.374   4.299   5.344  0.6946 -0.9394  0.9901
  436MOL0     H58843   7.545   4.432   5.440 -1.2549 -0.9140 -1.5830
  436MOL0     H58844   7.295   5.934   5.700  0.8777 -2.0214  1.1146
  436MOL0     H58845   7.088   6.003   5.778  1.4718  1.1933 -0.4614
  436MOL0     H58846   6.587   6.168   5.667 -2.1625 -1.2788 -1.3457
  436MOL0     H58847   6.364   6.181   5.766 -0.9974 -2.5733 -1.9352
  436MOL0     H58848   6.261   5.943   6.123 -1.9653  0.9701  1.1011
  436MOL0     H58849   6.195   5.859   5.983  3.0750  0.3233  0.0083
  436MOL0     H58850   6.017   5.988   5.974  2.7759 -1.3360 -2.5660
  436MOL0     H58851   6.079   6.126   6.073 -0.2962 -0.1225  0.7264
  436MOL0     H58852   6.046   6.008   6.287 -1.9540  1.8574  0.4726
  436MOL0     H58853   5.986   5.867   6.190 -2.4457  0.3698 -0.8790
  436MOL0     H58854   5.819   6.011   6.302  1.0320 -1.8759  0.2185
  436MOL0     H58855   5.842   6.125   6.163 -0.4828 -0.1143 -0.2596
  436MOL0     H58856   5.634   5.781   6.020 -2.0986  0.8624  2.7104
  436MOL0     H58857   6.455   5.895   6.061 -3.0869  0.0200 -0.4114
  436MOL0     H58858   6.688   5.846   6.106 -1.2719  1.2607 -0.3412
  436MOL0     H58859   6.742   5.780   5.953  3.4307 -1.6857  4.5810
  436MOL0     H58860   6.811   5.936   6.004  1.3973 -0.9449  3.8519
  437MOL0     O58861   0.096  10.123   2.292  0.3751  0.1251  0.4370
  437MOL0     C58862   0.028  10.026   2.250  0.9763 -0.5246  1.0269
  437MOL0     O58863  -0.033   9.926   2.326  0.0237 -0.2896 -0.5280
  437MOL0     C58864   0.048   9.865   2.420 -0.5331  0.0162 -0.0075
  437MOL0     C58865   0.189   9.850   2.414  0.2737 -0.5764 -0.3322
  437MOL0     C58866   0.257   9.776   2.522  1.0094 -0.4903 -0.4261
  437MOL0     C58867   0.185   9.709   2.624  0.7815 -0.6068  1.2850
  437MOL0     O58868   0.229   9.647   2.734  0.6647 -0.1491 -0.3724
  437MOL0     C58869   0.342   9.551   2.724 -0.2778 -0.0282  0.9798
  437MOL0     C58870   0.418   9.511   2.853 -0.3652  0.7559 -0.0258
  437MOL0     C58871   0.350   9.424   2.956  0.8360  0.8171  0.1964
  437MOL0     C58872   0.404   9.466   3.091  0.5408  0.0167 -0.4691
  437MOL0     C58873   0.360   9.378   3.201  0.4426  0.3724 -0.3883
  437MOL0     C58874   0.385   9.444   3.344  0.8566  0.0845  0.0103
  437MOL0     C58875   0.334   9.336   3.450  0.9267 -0.7809 -0.4106
  437MOL0     C58876   0.376   9.384   3.590  0.1275  0.2294  0.5016
  437MOL0     N58877   0.519   9.392   3.602  0.6572  0.4793  0.1139
  437MOL0     C58878   0.605   9.290   3.639  0.6680  0.3030  0.0736
  437MOL0     C58879   0.715   9.360   3.675  0.6782  0.1397  0.2932
  437MOL0     C58880   0.840   9.300   3.747  0.3418 -0.4001  0.7091
  437MOL0     C58881   0.887   9.346   3.885  0.5612 -0.0364  0.3977
  437MOL0     C58882   1.038   9.313   3.914 -0.2339  0.0636 -0.3288
  437MOL0     C58883   1.132   9.386   3.822  0.4371  1.0430  0.7329
  437MOL0     O58884   1.102   9.521   3.796  0.1300  0.9101  0.1747
  437MOL0     C58885   1.151   9.588   3.682  0.0657  1.8701  0.7649
  437MOL0     C58886   1.082   9.706   3.655 -1.4554  0.4575 -1.2023
  437MOL0     C58887   1.107   9.765   3.540 -0.7250  0.1563 -0.7462
  437MOL0     C58888   1.218   9.744   3.464  0.0954 -0.5394  0.5455
  437MOL0     C58889   1.245   9.825   3.349  0.0825 -0.4532 -0.2196
  437MOL0     O58890   1.332   9.788   3.251  0.0297 -0.1616  0.3195
  437MOL0     C58891   1.326   9.870   3.141 -1.1218 -0.6606  0.1468
  437MOL0     C58892   1.215   9.862   3.054  1.0215  0.3128  0.6788
  437MOL0     C58893   1.202   9.949   2.946  0.0311  0.9094 -0.4380
  437MOL0     C58894   1.307  10.036   2.911  0.3972  1.1414  0.5304
  437MOL0     O58895   1.294  10.102   2.793  0.2799 -0.1708 -0.8424
  437MOL0     C58896   1.409  10.093   2.701  0.1051 -0.0137 -0.3348
  437MOL0     C58897   1.369  10.134   2.556 -0.2299 -0.2890 -2.4898
  437MOL0     C58898   1.488  10.177   2.474  0.0926 -0.3052 -0.7715
  437MOL0     C58899   1.453  10.225   2.330 -0.1566 -0.6891 -0.2577
  437MOL0     C58900   1.557  10.323   2.288  1.6664  0.0026  0.2378
  437MOL0     C58901   1.525  10.389   2.153  0.5182 -0.1808 -0.3620
  437MOL0     C58902   1.400  10.483   2.144  0.6373 -0.3733 -0.2394
  437MOL0     C58903   1.307  10.446   2.030  0.7785 -0.0548 -0.2336
  437MOL0    Cl58904   1.381  10.479   1.858  0.1018 -0.2985 -0.2394
  437MOL0     C58905   1.417  10.044   2.995  0.8815 -0.6035 -1.0871
  437MOL0     C58906   1.425   9.969   3.111 -0.1994 -0.0931  0.3280
  437MOL0     O58907   1.188   9.932   3.361 -0.1853  0.0490  0.4482
  437MOL0     C58908   1.302   9.634   3.492  0.1792 -1.2874  0.0941
  437MOL0     C58909   1.267   9.562   3.609  0.0835  1.1274  0.5321
  437MOL0     N58910   0.711   9.485   3.645 -0.0411 -0.2707  0.4209
  437MOL0     N58911   0.591   9.510   3.606  0.3533 -0.2419 -0.7650
  437MOL0     C58912   0.046   9.737   2.622 -0.6543  0.7467 -0.1442
  437MOL0     C58913  -0.025   9.810   2.529  0.1450 -0.8892 -0.9804
  437MOL0     C58914  -0.021  10.029   2.112  0.3398 -0.2849  1.1174
  437MOL0     C58915  -0.149   9.983   2.079  0.7845 -0.1566  0.4456
  437MOL0     C58916  -0.198   9.988   1.952 -0.0423 -0.3935  0.0323
  437MOL0     C58917  -0.115  10.043   1.840  0.4825  0.1373 -0.1019
  437MOL0     O58918  -0.182  10.056   1.720 -0.5492 -0.1404 -0.6006
  437MOL0     C58919  -0.211  10.194   1.677  0.3027 -0.3348 -0.4716
  437MOL0     C58920  -0.364  10.217   1.667 -0.0000  0.0782 -0.2076
  437MOL0     C58921  -0.386  10.357   1.649 -0.0470 -1.4355  0.6865
  437MOL0     C58922  -0.373  10.428   1.790  0.1412 -0.0219  1.2833
  437MOL0     C58923  -0.423  10.556   1.784  0.7724 -0.3688 -0.5843
  437MOL0     C58924  -0.491  10.661   1.773 -0.4943  0.4606 -0.0236
  437MOL0     C58925   0.011  10.097   1.873 -0.5222  0.1960  0.1002
  437MOL0     C58926   0.057  10.086   2.008 -0.4743  0.2107  0.8689
  437MOL0     C58927   0.202  10.131   2.029 -0.3449  0.3103  0.2173
  437MOL0     H58928   0.241   9.880   2.323 -0.0348  1.3478  0.0708
  437MOL0     H58929   0.365   9.788   2.522  0.8783  0.9847 -1.3795
  437MOL0     H58930   0.302   9.468   2.666  0.1611  2.2858 -2.9851
  437MOL0     H58931   0.419   9.591   2.658  1.3285 -1.2176  2.0721
  437MOL0     H58932   0.426   9.606   2.906 -3.9260 -0.5440  3.3503
  437MOL0     H58933   0.515   9.467   2.830 -0.3957  1.4209 -1.4895
  437MOL0     H58934   0.376   9.318   2.943 -3.1868 -0.0884 -2.1598
  437MOL0     H58935   0.243   9.433   2.974  0.6128 -0.3020 -0.4328
  437MOL0     H58936   0.511   9.458   3.072  0.6416 -1.8755  0.6965
  437MOL0     H58937   0.382   9.573   3.096  1.5051  0.2499 -1.1310
  437MOL0     H58938   0.253   9.357   3.194  0.6138 -1.2601  1.0712
  437MOL0     H58939   0.408   9.280   3.191  1.0225  0.6062  0.0144
  437MOL0     H58940   0.493   9.462   3.349  1.1690  0.4696 -4.1017
  437MOL0     H58941   0.336   9.541   3.353  0.8237  0.0579  0.1255
  437MOL0     H58942   0.362   9.232   3.428 -2.7430 -1.6630 -1.5609
  437MOL0     H58943   0.225   9.324   3.449  1.0412 -1.9857 -0.9768
  437MOL0     H58944   0.334   9.483   3.606 -1.1557 -0.0607 -0.8537
  437MOL0     H58945   0.337   9.312   3.662  0.9006 -2.4674 -1.5802
  437MOL0     H58946   0.581   9.185   3.649 -1.7256  0.6106 -1.6354
  437MOL0     H58947   0.829   9.191   3.752  0.5583 -0.6870 -2.7971
  437MOL0     H58948   0.929   9.314   3.686  1.6079 -2.6849  1.8931
  437MOL0     H58949   0.873   9.454   3.897  0.7638 -0.1512  1.8351
  437MOL0     H58950   0.831   9.302   3.968  2.5592 -2.5986  0.5425
  437MOL0     H58951   1.051   9.206   3.895 -0.8414 -0.5781  2.3714
  437MOL0     H58952   1.065   9.330   4.019  2.2303  0.6158 -0.9876
  437MOL0     H58953   1.141   9.332   3.728  2.0365  0.0444  1.4167
  437MOL0     H58954   1.236   9.394   3.855  1.4282  5.2129 -2.4796
  437MOL0     H58955   0.997   9.732   3.717 -0.1553  1.0750  0.3912
  437MOL0     H58956   1.049   9.851   3.506 -1.4303 -0.6409 -1.6101
  437MOL0     H58957   1.137   9.797   3.093  0.9028 -1.5896 -2.3378
  437MOL0     H58958   1.122   9.933   2.874 -0.8828  1.1958  0.4942
  437MOL0     H58959   1.490  10.160   2.731  0.8128 -2.5248  4.3055
  437MOL0     H58960   1.440   9.988   2.699  1.2843  0.2642  1.3074
  437MOL0     H58961   1.309  10.059   2.503 -0.8750 -1.2010 -0.5788
  437MOL0     H58962   1.311  10.226   2.566 -1.5244 -0.9901 -3.2148
  437MOL0     H58963   1.540  10.254   2.531 -0.2574  0.7398 -1.8106
  437MOL0     H58964   1.562  10.098   2.464 -0.0557 -0.6221  0.4839
  437MOL0     H58965   1.354  10.273   2.325  0.6093  0.8040 -2.2883
  437MOL0     H58966   1.449  10.143   2.257 -1.9479 -0.2085 -0.7579
  437MOL0     H58967   1.659  10.288   2.268  2.0440  2.1965 -2.4655
  437MOL0     H58968   1.557  10.399   2.367 -1.8752 -0.3823  0.7675
  437MOL0     H58969   1.610  10.453   2.128  1.4613 -1.5932 -0.8138
  437MOL0     H58970   1.525  10.316   2.072 -0.7067 -1.0762  0.4064
  437MOL0     H58971   1.434  10.586   2.128 -0.0107 -0.4733 -2.5356
  437MOL0     H58972   1.354  10.494   2.243  3.4461  1.8169  0.9971
  437MOL0     H58973   1.282  10.341   2.051 -1.8752  0.6360  0.4157
  437MOL0     H58974   1.211  10.496   2.047  1.8188  2.5744 -1.5335
  437MOL0     H58975   1.492  10.122   2.982  1.8710 -0.4415  3.7890
  437MOL0     H58976   1.506   9.997   3.178 -0.9413 -1.0135  1.6426
  437MOL0     H58977   1.395   9.605   3.444 -0.2869 -1.1864 -0.8907
  437MOL0     H58978   1.335   9.488   3.651 -0.9484 -0.2364 -0.1194
  437MOL0     H58979  -0.013   9.718   2.711 -0.6915  1.1589 -0.0802
  437MOL0     H58980  -0.131   9.831   2.536  0.4098  0.8202 -1.5513
  437MOL0     H58981  -0.209   9.930   2.153 -0.0346  0.2860  0.1114
  437MOL0     H58982  -0.301   9.962   1.928 -0.4214 -0.5609  1.7069
  437MOL0     H58983  -0.173  10.214   1.577  1.4262  4.1866  0.6214
  437MOL0     H58984  -0.163  10.264   1.746  2.1042 -2.0626  0.1354
  437MOL0     H58985  -0.423  10.181   1.752  0.1700 -0.4485 -0.3064
  437MOL0     H58986  -0.411  10.176   1.577 -0.5511  5.2831 -2.6562
  437MOL0     H58987  -0.482  10.366   1.598  0.8927  0.9164 -0.8302
  437MOL0     H58988  -0.311  10.392   1.578 -1.3309 -0.7951 -0.4062
  437MOL0     H58989  -0.425  10.369   1.865 -2.5997 -0.0916 -0.5491
  437MOL0     H58990  -0.267  10.448   1.812  0.3598  2.6152 -1.4533
  437MOL0     H58991  -0.534  10.759   1.780 -1.1628  0.1209  0.8554
  437MOL0     H58992   0.069  10.128   1.787  1.3357  0.3099  1.3491
  437MOL0     H58993   0.206  10.223   2.087  2.1707 -1.2606  2.8477
  437MOL0     H58994   0.263  10.051   2.073 -1.5558 -2.1004 -2.1578
  437MOL0     H58995   0.255  10.162   1.938  0.0304 -1.6387 -0.2927
  438MOL0     O58996   8.374   2.770   2.356  0.3439 -0.6914  1.0272
  438MOL0     C58997   8.487   2.804   2.400  0.6422 -0.3132 -0.2726
  438MOL0     O58998   8.561   2.741   2.492  0.4001 -0.1900  0.7051
  438MOL0     C58999   8.512   2.627   2.553  0.2193 -0.6101  0.1063
  438MOL0     C59000   8.607   2.526   2.575 -0.2057  0.2209 -0.3935
  438MOL0     C59001   8.574   2.411   2.646 -0.5658  0.7185  0.0419
  438MOL0     C59002   8.448   2.392   2.705 -0.0119  1.5808 -0.8566
  438MOL0     O59003   8.427   2.279   2.784 -0.3104  0.6638  0.5220
  438MOL0     C59004   8.312   2.276   2.864 -0.1123 -0.9197 -0.4093
  438MOL0     C59005   8.330   2.172   2.980 -0.9291 -0.1046  0.0145
  438MOL0     C59006   8.439   2.201   3.082  0.1091 -0.4234  0.4452
  438MOL0     C59007   8.497   2.069   3.133  0.7786  0.1041  0.2274
  438MOL0     C59008   8.625   2.095   3.223 -0.3452  0.5323 -0.4099
  438MOL0     C59009   8.698   1.971   3.237  0.1426 -0.4815  0.3067
  438MOL0     C59010   8.612   1.863   3.302 -0.6868  0.8872 -0.4271
  438MOL0     C59011   8.703   1.735   3.339  0.8359  0.2171  1.1736
  438MOL0     N59012   8.742   1.671   3.208 -0.6071 -0.8878 -1.2519
  438MOL0     C59013   8.862   1.623   3.186 -0.1004  0.2950  0.2273
  438MOL0     C59014   8.839   1.538   3.076  0.2136 -1.1002 -0.5278
  438MOL0     C59015   8.950   1.444   3.026  0.4761 -0.6946  0.3208
  438MOL0     C59016   8.910   1.365   2.905 -0.1158  0.0300  0.3222
  438MOL0     C59017   9.013   1.268   2.861 -0.2338 -0.6198  0.2865
  438MOL0     C59018   8.989   1.224   2.713 -0.3111  0.1209  0.3539
  438MOL0     O59019   9.068   1.104   2.690 -0.1123  0.2243  0.3902
  438MOL0     C59020   9.110   1.076   2.556  0.6145 -0.5216  0.3231
  438MOL0     C59021   9.051   1.138   2.438 -0.1253  0.3220  0.9677
  438MOL0     C59022   9.091   1.103   2.310  0.1255  0.8557  0.6164
  438MOL0     C59023   9.180   0.996   2.282  0.0803  0.4671 -0.1122
  438MOL0     C59024   9.208   0.935   2.149  0.8559  0.4077 -0.1450
  438MOL0     O59025   9.169   1.015   2.043  1.1298 -0.1570  0.5382
  438MOL0     C59026   9.206   0.977   1.916 -1.0095 -0.6260  0.3815
  438MOL0     C59027   9.309   1.045   1.857  0.6456 -0.2812  0.0282
  438MOL0     C59028   9.357   0.999   1.729  0.0336 -1.4441 -1.2437
  438MOL0     C59029   9.293   0.890   1.672 -0.5609  0.1902  0.3399
  438MOL0     O59030   9.349   0.853   1.549  0.3257 -0.4358  0.7666
  438MOL0     C59031   9.244   0.836   1.447  0.5749 -0.2811  0.6360
  438MOL0     C59032   9.274   0.936   1.334  0.5983  0.0352 -0.9944
  438MOL0     C59033   9.407   0.915   1.264 -0.1661 -0.3006 -0.0260
  438MOL0     C59034   9.440   0.767   1.211  1.5137 -0.2986  0.0489
  438MOL0     C59035   9.567   0.720   1.266  1.1447 -0.1840 -0.4715
  438MOL0     C59036   9.635   0.610   1.200  0.6758  0.3134 -0.0598
  438MOL0     C59037   9.752   0.558   1.277 -0.2039  0.2064  0.1438
  438MOL0     C59038   9.827   0.444   1.198  0.0668  0.1315 -0.3462
  438MOL0    Cl59039   9.706   0.320   1.120 -0.2195 -0.0261 -0.4732
  438MOL0     C59040   9.202   0.813   1.738 -0.3417  0.8291  0.0617
  438MOL0     C59041   9.160   0.858   1.866 -0.0519 -0.0059 -0.4161
  438MOL0     O59042   9.246   0.819   2.141 -0.5435 -0.0841 -0.7315
  438MOL0     C59043   9.238   0.939   2.398  0.0804 -0.2794  0.5751
  438MOL0     C59044   9.211   0.984   2.527 -0.3095  0.5524  0.3546
  438MOL0     N59045   8.707   1.547   3.036 -0.7022  0.3600 -0.5970
  438MOL0     N59046   8.649   1.621   3.117  0.8745 -0.2321  0.6031
  438MOL0     C59047   8.359   2.495   2.686 -0.1504 -0.6602 -0.7287
  438MOL0     C59048   8.388   2.613   2.619  0.4626  0.3091  0.0916
  438MOL0     C59049   8.545   2.913   2.330  0.2746 -0.5975  0.2215
  438MOL0     C59050   8.681   2.890   2.282 -0.1688 -0.1979  0.1182
  438MOL0     C59051   8.743   2.982   2.209  0.7442  0.0830  0.4903
  438MOL0     C59052   8.681   3.105   2.171  0.5017 -0.7493 -0.1394
  438MOL0     O59053   8.764   3.194   2.115 -0.6304 -0.3810  0.6896
  438MOL0     C59054   8.717   3.308   2.046 -0.2243 -0.4443  0.4487
  438MOL0     C59055   8.824   3.356   1.945 -0.0863  0.5592  0.3765
  438MOL0     C59056   8.759   3.435   1.831  0.5068  1.2700 -1.4580
  438MOL0     C59057   8.865   3.518   1.764 -0.6781 -1.1152  0.5948
  438MOL0     C59058   8.979   3.458   1.693 -0.5053 -0.4726 -0.3143
  438MOL0     C59059   9.077   3.406   1.642  0.0475 -0.6368  0.2046
  438MOL0     C59060   8.549   3.126   2.211  0.0575 -0.0924 -0.7773
  438MOL0     C59061   8.490   3.033   2.293  1.1755 -0.2959 -0.2814
  438MOL0     C59062   8.363   3.053   2.367  0.3631  0.7615 -0.8159
  438MOL0     H59063   8.704   2.540   2.529  0.4634 -3.7179 -0.5817
  438MOL0     H59064   8.646   2.330   2.651  0.6090  1.5972 -1.7332
  438MOL0     H59065   8.300   2.366   2.924 -2.9606 -0.8384 -0.9548
  438MOL0     H59066   8.214   2.256   2.820 -0.4672  0.8082 -0.4743
  438MOL0     H59067   8.349   2.073   2.938  0.6404  0.4656 -0.6655
  438MOL0     H59068   8.235   2.169   3.035  0.1606  2.1116  2.1639
  438MOL0     H59069   8.407   2.259   3.169  0.3343 -0.2506  0.4137
  438MOL0     H59070   8.514   2.261   3.030 -1.5307 -1.4986 -3.5242
  438MOL0     H59071   8.414   2.024   3.189  1.7472 -1.8798  0.1468
  438MOL0     H59072   8.516   1.997   3.054  2.7380  1.5183 -0.6866
  438MOL0     H59073   8.690   2.160   3.164 -2.5057  0.9853 -2.4141
  438MOL0     H59074   8.601   2.135   3.321 -0.7743  1.1353 -0.7578
  438MOL0     H59075   8.743   1.931   3.146  2.5624  2.3195  0.1317
  438MOL0     H59076   8.779   1.994   3.307  1.0587  0.7026 -1.1000
  438MOL0     H59077   8.525   1.830   3.246 -0.1478 -1.0147 -0.2004
  438MOL0     H59078   8.585   1.897   3.402  1.9324  2.2482 -0.0728
  438MOL0     H59079   8.799   1.766   3.380  2.4230 -1.8741 -0.6636
  438MOL0     H59080   8.654   1.670   3.412  0.3402 -0.1085  0.5667
  438MOL0     H59081   8.948   1.616   3.252  1.3917  0.3445 -1.5958
  438MOL0     H59082   9.040   1.505   3.012 -1.5943  2.9589  1.7903
  438MOL0     H59083   8.958   1.367   3.104 -1.1377 -0.6796  0.5386
  438MOL0     H59084   8.818   1.315   2.937 -0.6737  0.4403 -0.5932
  438MOL0     H59085   8.892   1.439   2.826 -0.2598  2.3730  2.4244
  438MOL0     H59086   9.002   1.183   2.928 -1.8152 -0.2108  0.5705
  438MOL0     H59087   9.111   1.309   2.888 -1.3112  1.8333  0.7607
  438MOL0     H59088   9.030   1.299   2.644 -0.7216 -0.1294 -0.1731
  438MOL0     H59089   8.888   1.185   2.695  0.3537 -0.8709 -1.5182
  438MOL0     H59090   8.963   1.199   2.455 -1.3668 -0.9987 -0.4976
  438MOL0     H59091   9.055   1.157   2.224  1.0368  1.5228  0.6386
  438MOL0     H59092   9.349   1.130   1.912  0.1734  0.2751 -0.4761
  438MOL0     H59093   9.432   1.053   1.672  1.7013 -4.4158 -2.1000
  438MOL0     H59094   9.249   0.732   1.415 -1.9326 -0.2041 -0.2339
  438MOL0     H59095   9.142   0.862   1.477  0.9256  1.9571  0.1221
  438MOL0     H59096   9.192   0.931   1.262 -0.5718 -0.4848  0.3260
  438MOL0     H59097   9.286   1.037   1.373 -0.2931 -0.2010 -0.0810
  438MOL0     H59098   9.414   0.977   1.175  1.4048 -0.2998  0.0726
  438MOL0     H59099   9.485   0.956   1.329 -1.5419  1.8987  0.3347
  438MOL0     H59100   9.455   0.777   1.103 -0.8545  0.3097 -0.2770
  438MOL0     H59101   9.357   0.698   1.226 -0.2280  0.6636 -3.8901
  438MOL0     H59102   9.546   0.694   1.370 -1.8947 -1.9439 -1.3784
  438MOL0     H59103   9.635   0.805   1.275 -0.4892  1.1518 -0.2237
  438MOL0     H59104   9.561   0.531   1.188  1.1035  0.0216 -0.8738
  438MOL0     H59105   9.675   0.633   1.100  1.8895  1.2476  0.6089
  438MOL0     H59106   9.713   0.512   1.369  0.6131  0.0546  0.4199
  438MOL0     H59107   9.832   0.632   1.288 -1.2672  1.6392 -1.2594
  438MOL0     H59108   9.879   0.489   1.113  1.1517  0.1915  0.3248
  438MOL0     H59109   9.906   0.396   1.257  0.4012 -0.1829 -1.0306
  438MOL0     H59110   9.162   0.724   1.691 -1.0343  1.9441 -1.5069
  438MOL0     H59111   9.086   0.800   1.921  0.8585 -5.1762 -3.9253
  438MOL0     H59112   9.308   0.859   2.378  0.6769  0.3886 -0.0994
  438MOL0     H59113   9.268   0.938   2.608 -0.5684 -0.4542 -0.0192
  438MOL0     H59114   8.255   2.485   2.716  0.5865 -1.5490  1.7888
  438MOL0     H59115   8.311   2.689   2.618 -0.0607 -0.0972  2.5557
  438MOL0     H59116   8.748   2.811   2.312  0.7243  0.1203 -0.9805
  438MOL0     H59117   8.847   2.966   2.182  0.4028 -1.9518  0.2454
  438MOL0     H59118   8.691   3.389   2.114  3.1358  2.7035 -1.6578
  438MOL0     H59119   8.627   3.271   1.996 -0.0795  0.1411 -0.2601
  438MOL0     H59120   8.891   3.275   1.913  1.9610  0.3967  4.4518
  438MOL0     H59121   8.882   3.428   2.002  1.7689  1.4646 -2.4354
  438MOL0     H59122   8.674   3.497   1.863  0.0615  0.0849 -0.2609
  438MOL0     H59123   8.718   3.365   1.758  0.2484  1.1596 -1.2080
  438MOL0     H59124   8.808   3.573   1.689 -1.3768  2.9808  3.7675
  438MOL0     H59125   8.905   3.592   1.835  1.7073 -3.5548  2.0088
  438MOL0     H59126   9.150   3.341   1.599  1.0802 -0.7187  1.9799
  438MOL0     H59127   8.515   3.228   2.196  2.1697  0.4782 -2.0895
  438MOL0     H59128   8.349   3.162   2.376 -0.7288  0.6932 -1.4824
  438MOL0     H59129   8.283   3.011   2.305  0.3983 -1.8569  0.7713
  438MOL0     H59130   8.363   3.009   2.467  0.3486  0.9501 -0.7314
  439MOL0     O59131  11.083   1.074   3.355  0.1860  0.6563 -0.0292
  439MOL0     C59132  11.106   1.197   3.325  0.9627 -0.2048 -0.1648
  439MOL0     O59133  11.227   1.258   3.289 -0.0392 -0.2558  0.0598
  439MOL0     C59134  11.344   1.186   3.280  0.5248  0.1071  0.7601
  439MOL0     C59135  11.364   1.056   3.334 -0.3175 -0.7598  0.2106
  439MOL0     C59136  11.497   1.014   3.338  0.6647 -0.0278  0.3201
  439MOL0     C59137  11.606   1.086   3.293  0.5951 -0.1036  0.3228
  439MOL0     O59138  11.735   1.032   3.310  1.3681  0.3228  0.3309
  439MOL0     C59139  11.847   1.122   3.343  0.0536 -0.0657  0.3823
  439MOL0     C59140  11.927   1.165   3.218  0.0353  0.3488 -0.5632
  439MOL0     C59141  12.033   1.059   3.160  0.2042 -0.4777  0.3748
  439MOL0     C59142  12.114   1.094   3.046 -0.3589 -0.1906  0.4963
  439MOL0     C59143  12.195   0.982   2.991 -0.3151 -0.8039 -0.1567
  439MOL0     C59144  12.299   1.042   2.888  0.1565 -0.2289 -0.3922
  439MOL0     C59145  12.226   1.124   2.783  0.0207 -0.4863  0.3792
  439MOL0     C59146  12.128   1.030   2.714  0.4004 -0.7196  1.0523
  439MOL0     N59147  12.072   1.105   2.598  0.1964 -1.1858 -0.1154
  439MOL0     C59148  12.119   1.115   2.471  0.9687  0.3535 -0.3731
  439MOL0     C59149  12.039   1.201   2.407 -0.0987  0.5892  0.3396
  439MOL0     C59150  12.048   1.203   2.260 -0.5431  0.2058  0.5689
  439MOL0     C59151  11.989   1.319   2.186  0.1811  0.0933 -0.6751
  439MOL0     C59152  11.983   1.295   2.030  0.6053  0.3797 -0.2883
  439MOL0     C59153  11.961   1.428   1.964  0.1223  0.1491  0.1080
  439MOL0     O59154  11.848   1.491   2.030 -0.1833  0.6463  0.2046
  439MOL0     C59155  11.715   1.467   1.986 -0.5269 -0.6283 -0.1476
  439MOL0     C59156  11.628   1.560   2.044  0.8143  0.8321 -0.4838
  439MOL0     C59157  11.493   1.542   2.022  1.1688  0.3288  0.1467
  439MOL0     C59158  11.442   1.446   1.930  0.4984 -0.5064 -0.4338
  439MOL0     C59159  11.295   1.445   1.883 -0.9577 -0.0846 -0.1543
  439MOL0     O59160  11.205   1.509   1.956  0.0373  0.0551 -0.7038
  439MOL0     C59161  11.085   1.535   1.898 -0.2161  0.4405  0.2824
  439MOL0     C59162  10.978   1.452   1.913 -0.5677  0.1364 -0.5673
  439MOL0     C59163  10.849   1.477   1.857 -0.4996  1.0527 -0.0402
  439MOL0     C59164  10.827   1.585   1.768 -1.0673 -0.0903 -1.1380
  439MOL0     O59165  10.713   1.608   1.697  0.0670  0.3666  0.0222
  439MOL0     C59166  10.708   1.710   1.596  0.1115 -0.6879  0.3422
  439MOL0     C59167  10.575   1.702   1.521 -0.3738 -0.5630 -0.3700
  439MOL0     C59168  10.575   1.796   1.399  0.0899 -0.0962 -0.7131
  439MOL0     C59169  10.447   1.742   1.324 -0.3938  0.2897 -0.3444
  439MOL0     C59170  10.433   1.830   1.197  0.2209  0.3451 -0.6313
  439MOL0     C59171  10.298   1.768   1.143 -0.4042 -0.8329  0.0492
  439MOL0     C59172  10.280   1.817   0.996  0.0718 -1.3537  0.7280
  439MOL0     C59173  10.209   1.717   0.911 -0.3806  0.1865  0.2228
  439MOL0    Cl59174  10.122   1.813   0.795 -0.3066  0.0917 -0.2603
  439MOL0     C59175  10.943   1.658   1.737 -0.4872 -0.3166  0.6258
  439MOL0     C59176  11.067   1.626   1.799  0.2086 -0.4204  0.2860
  439MOL0     O59177  11.270   1.390   1.776 -0.3477  0.4247  0.6178
  439MOL0     C59178  11.531   1.361   1.867 -0.3814  0.4037 -0.9609
  439MOL0     C59179  11.669   1.372   1.897 -0.3119  0.4782 -0.4442
  439MOL0     N59180  11.957   1.262   2.502 -0.5315  1.0950 -0.6721
  439MOL0     N59181  11.972   1.195   2.614  0.3431  0.1318 -0.3855
  439MOL0     C59182  11.579   1.204   3.225  0.3534 -0.4953 -0.7165
  439MOL0     C59183  11.449   1.253   3.222 -0.0652  0.0658  0.0828
  439MOL0     C59184  10.988   1.292   3.308  0.0595  0.5991 -0.6405
  439MOL0     C59185  10.997   1.388   3.209  0.2669  0.5277  0.6814
  439MOL0     C59186  10.900   1.477   3.195  0.0892  0.5568 -0.2165
  439MOL0     C59187  10.786   1.476   3.272  0.9014  0.2784 -1.1488
  439MOL0     O59188  10.682   1.570   3.260 -0.3146  0.2692 -0.4232
  439MOL0     C59189  10.678   1.671   3.155 -0.4299  0.3813 -0.2750
  439MOL0     C59190  10.600   1.595   3.043 -0.2114  0.9018  0.3700
  439MOL0     C59191  10.573   1.669   2.917  1.3162 -0.8386  0.4116
  439MOL0     C59192  10.483   1.581   2.828 -0.2482 -0.0327  0.2661
  439MOL0     C59193  10.476   1.619   2.685 -0.4795 -0.7479 -1.0040
  439MOL0     C59194  10.481   1.669   2.571 -1.1265  0.5591  0.0882
  439MOL0     C59195  10.772   1.374   3.374 -0.0709 -0.6402 -0.1641
  439MOL0     C59196  10.873   1.279   3.390 -0.2988  0.3508 -0.0388
  439MOL0     C59197  10.865   1.183   3.510  1.0452 -0.4469  1.1218
  439MOL0     H59198  11.288   1.005   3.393 -1.0983  2.3297  2.1039
  439MOL0     H59199  11.531   0.929   3.397 -1.9340 -3.3073 -2.5401
  439MOL0     H59200  11.804   1.213   3.386 -1.3603 -0.8796  0.7371
  439MOL0     H59201  11.910   1.084   3.424  0.9018  0.4916  0.0018
  439MOL0     H59202  11.984   1.257   3.234 -1.0840  0.9435  0.0991
  439MOL0     H59203  11.854   1.192   3.141  1.7298 -2.2562 -3.3008
  439MOL0     H59204  11.972   0.971   3.140 -1.6228  0.2530  2.3241
  439MOL0     H59205  12.111   1.034   3.233  1.2288  1.5744  0.0636
  439MOL0     H59206  12.041   1.125   2.971 -2.1253  1.4731  2.7417
  439MOL0     H59207  12.184   1.175   3.070 -1.5759  0.5282  1.8642
  439MOL0     H59208  12.247   0.935   3.075  0.5155 -0.3479 -0.4041
  439MOL0     H59209  12.132   0.903   2.948 -1.6793 -0.2739  0.7882
  439MOL0     H59210  12.358   1.112   2.948  2.2765 -0.3090 -2.2148
  439MOL0     H59211  12.357   0.956   2.853  0.4668 -1.0718  2.0436
  439MOL0     H59212  12.297   1.174   2.716  0.5563 -0.0621  1.2521
  439MOL0     H59213  12.181   1.209   2.836 -1.9782 -1.0524 -0.3015
  439MOL0     H59214  12.164   0.932   2.683  0.8752  0.5080 -2.8359
  439MOL0     H59215  12.041   1.008   2.776  1.4461 -5.3667  1.2196
  439MOL0     H59216  12.178   1.045   2.412 -2.0593 -1.9156 -0.9525
  439MOL0     H59217  12.151   1.195   2.223 -0.3999 -3.9638  1.3688
  439MOL0     H59218  12.002   1.112   2.220 -0.1687  0.2907 -0.0752
  439MOL0     H59219  11.891   1.351   2.220  0.8443  0.0676  1.3733
  439MOL0     H59220  12.061   1.401   2.193  1.7801 -1.1423 -1.8230
  439MOL0     H59221  11.896   1.237   2.001 -0.6406  1.5738  0.8684
  439MOL0     H59222  12.070   1.238   1.997 -0.6167 -2.4808  1.0939
  439MOL0     H59223  11.934   1.425   1.858  4.0463  0.0279 -1.0491
  439MOL0     H59224  12.052   1.489   1.971 -1.5919  2.7564  1.0352
  439MOL0     H59225  11.663   1.627   2.122 -2.0720 -1.9056  3.5796
  439MOL0     H59226  11.429   1.613   2.073  0.0239 -1.3470  1.1655
  439MOL0     H59227  10.999   1.365   1.973  0.4158  1.3695  0.9542
  439MOL0     H59228  10.770   1.404   1.870  2.0828 -2.1453 -1.0621
  439MOL0     H59229  10.704   1.807   1.646 -2.8172 -0.5762  0.0643
  439MOL0     H59230  10.800   1.706   1.536  1.1220 -2.8159  1.9099
  439MOL0     H59231  10.548   1.602   1.486 -0.8896 -1.3465  2.0372
  439MOL0     H59232  10.489   1.732   1.582 -0.9698 -2.5888 -0.1058
  439MOL0     H59233  10.558   1.899   1.431 -2.9438 -1.6634  3.6248
  439MOL0     H59234  10.660   1.797   1.331  1.7747 -0.7425  1.2683
  439MOL0     H59235  10.359   1.751   1.387  0.6638  2.7082  0.9237
  439MOL0     H59236  10.460   1.636   1.300  1.2917  0.3909  0.0197
  439MOL0     H59237  10.504   1.798   1.120 -0.5069  0.8360 -1.5185
  439MOL0     H59238  10.439   1.936   1.221  2.3811 -0.4248  3.0629
  439MOL0     H59239  10.309   1.660   1.139  1.0811 -0.6649 -1.7170
  439MOL0     H59240  10.212   1.810   1.196  1.3973  0.9362  1.7510
  439MOL0     H59241  10.378   1.829   0.949  0.4485 -1.3866  1.4889
  439MOL0     H59242  10.244   1.920   0.992 -0.3689 -1.4590  1.6571
  439MOL0     H59243  10.279   1.644   0.868  1.7269  3.4389 -2.4156
  439MOL0     H59244  10.129   1.669   0.967 -0.8000  0.8791  0.2341
  439MOL0     H59245  10.942   1.741   1.666  2.2107 -3.3482 -3.4018
  439MOL0     H59246  11.151   1.685   1.763 -1.0630  1.0920 -0.3255
  439MOL0     H59247  11.498   1.278   1.806 -4.5088 -0.2692  1.7919
  439MOL0     H59248  11.739   1.302   1.852  1.2636  1.4776  0.3780
  439MOL0     H59249  11.654   1.274   3.189  1.4736 -0.7651  0.9995
  439MOL0     H59250  11.429   1.351   3.180 -2.0045 -0.5019 -0.3903
  439MOL0     H59251  11.084   1.399   3.145 -1.6603 -1.8064 -2.6454
  439MOL0     H59252  10.908   1.552   3.117  0.3057  1.8311  0.9898
  439MOL0     H59253  10.779   1.694   3.118  0.5519 -2.0361  0.7428
  439MOL0     H59254  10.631   1.763   3.190  0.6255  1.8879 -2.5477
  439MOL0     H59255  10.497   1.575   3.074  0.0478  0.7512  1.1484
  439MOL0     H59256  10.645   1.496   3.029  0.1971  0.8833  1.7361
  439MOL0     H59257  10.662   1.707   2.867  0.0973 -0.4898 -1.6305
  439MOL0     H59258  10.513   1.754   2.950  0.2196 -1.3156 -0.2991
  439MOL0     H59259  10.521   1.478   2.823 -0.2174 -0.1915  2.5591
  439MOL0     H59260  10.380   1.568   2.862 -0.2537 -0.0520  0.2434
  439MOL0     H59261  10.491   1.696   2.468  2.0124  0.0875  0.1625
  439MOL0     H59262  10.680   1.384   3.430  1.2089  2.9267  1.6219
  439MOL0     H59263  10.780   1.212   3.571  1.9009  2.9581  0.9532
  439MOL0     H59264  10.866   1.082   3.468  1.3668 -0.2161  0.5591
  439MOL0     H59265  10.957   1.197   3.568  0.7562 -0.2962  1.5423
  440MOL0     O59266   6.758   8.568   7.025 -0.4458  0.0594  0.7569
  440MOL0     C59267   6.673   8.654   7.006 -0.3074  0.8298 -0.5389
  440MOL0     O59268   6.593   8.707   7.098 -0.2508 -0.7143 -0.2982
  440MOL0     C59269   6.605   8.677   7.234 -0.0467 -0.7003 -0.1960
  440MOL0     C59270   6.575   8.555   7.284  0.3253  0.0844  0.0994
  440MOL0     C59271   6.593   8.526   7.418 -0.1124 -0.2019  0.3771
  440MOL0     C59272   6.667   8.614   7.498  0.5399  0.4124 -0.4819
  440MOL0     O59273   6.704   8.596   7.622 -0.2158 -0.2520 -0.2902
  440MOL0     C59274   6.637   8.490   7.693 -0.1595  0.0098  0.5890
  440MOL0     C59275   6.714   8.473   7.824 -0.4958  0.1457 -0.1755
  440MOL0     C59276   6.859   8.449   7.798  0.7298 -0.3098  0.4794
  440MOL0     C59277   6.949   8.436   7.925  0.6808  0.5168 -0.3609
  440MOL0     C59278   6.918   8.310   8.016  0.1858 -0.4974 -0.1070
  440MOL0     C59279   6.975   8.313   8.159 -0.4086 -1.2943  0.0350
  440MOL0     C59280   6.941   8.188   8.237  0.1026 -0.3480  0.3878
  440MOL0     C59281   7.013   8.067   8.182  0.4133  1.1681  0.1242
  440MOL0     N59282   7.149   8.068   8.207 -0.4264 -0.1888 -0.3163
  440MOL0     C59283   7.195   8.041   8.337 -0.3979 -0.4945  0.1461
  440MOL0     C59284   7.334   8.033   8.326  0.1466 -0.4447 -0.8894
  440MOL0     C59285   7.427   7.999   8.436 -0.9022  0.5077 -0.2396
  440MOL0     C59286   7.510   7.865   8.431  0.1858  0.0355  0.7018
  440MOL0     C59287   7.579   7.812   8.561  0.3732 -0.4875  0.0363
  440MOL0     C59288   7.643   7.918   8.645  0.8290  0.2996 -0.1177
  440MOL0     O59289   7.759   7.959   8.565 -0.8661 -0.7850 -0.5205
  440MOL0     C59290   7.878   7.887   8.563  0.0528 -0.7585 -0.0354
  440MOL0     C59291   7.903   7.761   8.629  0.1058  1.3725 -0.5662
  440MOL0     C59292   8.038   7.720   8.636  1.0431 -0.2376 -0.2777
  440MOL0     C59293   8.144   7.788   8.574  0.0806 -0.1180 -0.3207
  440MOL0     C59294   8.277   7.743   8.594  0.0344  0.5819 -0.7231
  440MOL0     O59295   8.366   7.797   8.503 -0.0390 -0.1934 -0.5409
  440MOL0     C59296   8.485   7.743   8.487 -0.3487 -0.4545  0.4982
  440MOL0     C59297   8.505   7.603   8.473  0.5718 -0.0510  0.0930
  440MOL0     C59298   8.630   7.549   8.448 -0.3380 -0.3966  0.0068
  440MOL0     C59299   8.743   7.630   8.410 -0.0981  1.0278 -0.9092
  440MOL0     O59300   8.863   7.582   8.359 -0.1715 -0.0818  0.1974
  440MOL0     C59301   8.845   7.496   8.245 -0.5786  0.1604  0.6719
  440MOL0     C59302   8.979   7.487   8.161 -0.0348  0.2005  0.7927
  440MOL0     C59303   9.078   7.369   8.212  0.3717  0.2121  0.5277
  440MOL0     C59304   9.011   7.242   8.182 -0.0308  0.0057 -0.5043
  440MOL0     C59305   9.088   7.119   8.223  0.0819  0.2040  0.5023
  440MOL0     C59306   9.086   7.095   8.383 -0.1601 -0.1951 -0.5025
  440MOL0     C59307   9.153   6.961   8.409 -0.1544  0.1487 -0.4075
  440MOL0     C59308   9.182   6.943   8.562  0.6071 -0.0002  0.3993
  440MOL0    Cl59309   9.307   7.063   8.616  0.1284 -0.1843  0.2324
  440MOL0     C59310   8.727   7.770   8.428 -0.7824  0.3209 -0.1053
  440MOL0     C59311   8.603   7.823   8.465  0.7872 -0.3000 -0.2072
  440MOL0     O59312   8.301   7.665   8.685  0.1378  0.3865 -0.3029
  440MOL0     C59313   8.107   7.905   8.506  0.7952 -0.0146  0.9676
  440MOL0     C59314   7.978   7.952   8.502 -1.0422  0.4791  0.3371
  440MOL0     N59315   7.367   8.060   8.193  0.0989  0.6748  0.6435
  440MOL0     N59316   7.257   8.084   8.119 -1.5473  0.0598  0.1771
  440MOL0     C59317   6.703   8.736   7.443 -1.0423  0.4750  0.0020
  440MOL0     C59318   6.669   8.771   7.311 -0.9636 -0.8661  0.6358
  440MOL0     C59319   6.657   8.706   6.873  0.4428 -0.5064 -0.0052
  440MOL0     C59320   6.523   8.704   6.800 -1.0490  0.5120 -0.5798
  440MOL0     C59321   6.507   8.779   6.686 -0.6156 -0.1051  0.0092
  440MOL0     C59322   6.607   8.865   6.643 -0.7539  0.0263  0.9454
  440MOL0     O59323   6.584   8.949   6.533  0.1558 -0.2374  0.4696
  440MOL0     C59324   6.688   9.018   6.460  0.4070 -0.5455 -0.0492
  440MOL0     C59325   6.613   9.060   6.331  0.3555 -0.7796  0.3485
  440MOL0     C59326   6.523   9.182   6.340  0.0235  0.3276  0.4278
  440MOL0     C59327   6.494   9.233   6.203 -0.2210 -0.5320 -0.8689
  440MOL0     C59328   6.588   9.330   6.150 -0.1853 -0.6192 -0.3489
  440MOL0     C59329   6.664   9.421   6.119  0.3088 -0.0054  0.5837
  440MOL0     C59330   6.731   8.852   6.701  0.5544  0.2702  0.4418
  440MOL0     C59331   6.761   8.785   6.819  0.0369  0.3637  0.0271
  440MOL0     C59332   6.898   8.791   6.875 -0.6725  0.6646  0.2098
  440MOL0     H59333   6.515   8.487   7.223 -0.1663 -0.5775  1.2770
  440MOL0     H59334   6.538   8.445   7.463 -3.8932  2.2692  0.6852
  440MOL0     H59335   6.533   8.509   7.719 -1.1344 -1.7877 -1.6494
  440MOL0     H59336   6.636   8.391   7.647 -0.9091  1.2911 -2.4389
  440MOL0     H59337   6.675   8.398   7.894  2.3268 -3.4426 -2.0715
  440MOL0     H59338   6.697   8.571   7.870  4.1119  0.6988  0.8638
  440MOL0     H59339   6.892   8.535   7.740 -2.2380 -0.2037 -1.2689
  440MOL0     H59340   6.866   8.362   7.732 -0.2339 -0.0523  0.0276
  440MOL0     H59341   7.055   8.432   7.898  1.1505  1.8144  1.1440
  440MOL0     H59342   6.943   8.526   7.988  1.1705 -0.8931  1.8025
  440MOL0     H59343   6.812   8.318   8.038  0.4474  2.3819  0.5406
  440MOL0     H59344   6.936   8.217   7.961 -2.3148 -1.3640  0.4315
  440MOL0     H59345   7.084   8.321   8.166 -0.5913  0.2677  1.7329
  440MOL0     H59346   6.929   8.396   8.212 -1.7642  0.9974 -4.2074
  440MOL0     H59347   6.835   8.165   8.226 -0.2063  0.6466  1.1662
  440MOL0     H59348   6.959   8.206   8.343  2.8072 -3.7578  0.6787
  440MOL0     H59349   6.970   7.976   8.225 -1.1381  0.7829 -2.0601
  440MOL0     H59350   7.002   8.056   8.073 -1.9316  0.6180  0.3553
  440MOL0     H59351   7.141   8.023   8.430 -1.8085 -1.4623 -0.8207
  440MOL0     H59352   7.494   8.084   8.454 -0.6718 -0.2722  3.2374
  440MOL0     H59353   7.364   7.980   8.523  0.4165  3.3392  1.4962
  440MOL0     H59354   7.438   7.792   8.393  0.0084  0.4066  0.3148
  440MOL0     H59355   7.583   7.863   8.350 -1.0944  0.1031 -0.4816
  440MOL0     H59356   7.638   7.721   8.545  0.0962 -1.0535  1.9470
  440MOL0     H59357   7.493   7.785   8.623  1.2575 -0.9084  1.1216
  440MOL0     H59358   7.685   7.871   8.734  3.0834 -0.7439 -1.6480
  440MOL0     H59359   7.586   8.008   8.670  2.0011  0.6572  1.4496
  440MOL0     H59360   7.828   7.694   8.670 -0.0369  1.6516 -0.3615
  440MOL0     H59361   8.061   7.618   8.664  1.6309 -0.8279 -2.7069
  440MOL0     H59362   8.431   7.523   8.476 -3.1516  3.1069  0.1604
  440MOL0     H59363   8.639   7.441   8.444 -1.6046 -0.5577  0.9594
  440MOL0     H59364   8.824   7.398   8.288 -0.1166  0.3025  1.2397
  440MOL0     H59365   8.760   7.533   8.187 -1.3418 -0.2235  1.5256
  440MOL0     H59366   8.962   7.481   8.053 -1.1472  0.8455  0.9246
  440MOL0     H59367   9.024   7.586   8.175  0.1437 -0.0003  1.7038
  440MOL0     H59368   9.182   7.375   8.177  0.1201 -2.5453 -0.9947
  440MOL0     H59369   9.094   7.372   8.320 -1.1405 -2.1497  0.8728
  440MOL0     H59370   8.987   7.243   8.075 -1.2962 -2.2106 -0.3092
  440MOL0     H59371   8.921   7.231   8.242 -2.5893 -2.0526 -4.3064
  440MOL0     H59372   9.179   7.127   8.164 -0.0593  0.7309  0.3497
  440MOL0     H59373   9.039   7.035   8.173 -1.0312  1.4236 -0.5615
  440MOL0     H59374   9.138   7.178   8.433  0.4412 -0.6762 -0.3199
  440MOL0     H59375   8.983   7.078   8.413  0.1346 -1.1113  0.0264
  440MOL0     H59376   9.248   6.954   8.355  0.0156 -0.7029 -0.0015
  440MOL0     H59377   9.089   6.879   8.375  1.2150 -1.3918  0.5625
  440MOL0     H59378   9.088   6.965   8.614 -1.4280 -1.1637 -2.5410
  440MOL0     H59379   9.208   6.837   8.570  0.0625 -0.3249 -1.6419
  440MOL0     H59380   8.809   7.830   8.390  1.6447 -1.5235  1.8952
  440MOL0     H59381   8.596   7.931   8.468 -1.9594 -0.4122  0.6110
  440MOL0     H59382   8.178   7.951   8.438 -0.3145 -1.9584 -1.6544
  440MOL0     H59383   7.956   8.044   8.449 -2.8782 -0.2747 -0.2911
  440MOL0     H59384   6.750   8.804   7.513 -0.4085 -0.0386  0.0828
  440MOL0     H59385   6.699   8.871   7.283 -3.2834  0.0401  1.1215
  440MOL0     H59386   6.456   8.637   6.852  0.8472 -0.6780  0.4450
  440MOL0     H59387   6.413   8.787   6.633 -0.5023  2.7703  0.1116
  440MOL0     H59388   6.772   8.950   6.445  1.3684 -0.1402  2.8407
  440MOL0     H59389   6.728   9.109   6.506 -0.7161 -0.4386  0.7610
  440MOL0     H59390   6.558   8.971   6.300  5.0092 -2.6760 -3.8640
  440MOL0     H59391   6.699   9.082   6.266  0.0933  1.2895  0.6351
  440MOL0     H59392   6.565   9.263   6.400  0.6688 -0.4746  1.0973
  440MOL0     H59393   6.435   9.144   6.394  1.0984 -1.5218  0.9975
  440MOL0     H59394   6.502   9.145   6.138  0.5508 -2.5069  1.7404
  440MOL0     H59395   6.396   9.283   6.203  1.8017  3.9827  0.7382
  440MOL0     H59396   6.718   9.502   6.073  0.7816  0.3091  1.6409
  440MOL0     H59397   6.809   8.917   6.663 -2.8900  3.7442 -1.3129
  440MOL0     H59398   6.926   8.697   6.924  2.5590  1.9438  1.1105
  440MOL0     H59399   6.968   8.813   6.794 -0.3620 -3.2701 -0.7978
  440MOL0     H59400   6.908   8.864   6.957  3.4224 -0.8034  1.3004
  441MOL0     O59401   9.974   7.367  11.156 -0.2060 -0.3213 -0.3821
  441MOL0     C59402  10.074   7.415  11.110 -0.5655  0.1941  1.1262
  441MOL0     O59403  10.198   7.348  11.107 -0.3043  0.0990 -0.0001
  441MOL0     C59404  10.207   7.215  11.097 -0.7366  0.3709 -0.7994
  441MOL0     C59405  10.131   7.124  11.026 -0.6591 -1.1045  0.2626
  441MOL0     C59406  10.159   6.984  11.032  0.2718 -1.1365  0.8385
  441MOL0     C59407  10.271   6.935  11.095 -0.0719  0.3802  0.5641
  441MOL0     O59408  10.283   6.794  11.082 -0.2481 -0.4271  0.2678
  441MOL0     C59409  10.275   6.713  11.197  0.2212 -0.9039 -0.8379
  441MOL0     C59410  10.286   6.564  11.157  0.2414 -0.0939  1.4800
  441MOL0     C59411  10.158   6.531  11.070  0.5050  0.9175  0.9958
  441MOL0     C59412  10.157   6.370  11.047 -1.2935  0.0638 -0.2575
  441MOL0     C59413  10.057   6.336  10.944 -0.1403 -0.4965 -0.0211
  441MOL0     C59414  10.122   6.319  10.804  0.1196 -0.5800 -0.6342
  441MOL0     C59415  10.216   6.195  10.791  0.2042  0.3745  0.0672
  441MOL0     C59416  10.233   6.148  10.637  0.0007 -0.2792 -0.1924
  441MOL0     N59417  10.339   6.048  10.621  1.1678  0.5885 -0.4666
  441MOL0     C59418  10.471   6.080  10.609 -0.3045 -0.1321 -0.0500
  441MOL0     C59419  10.532   5.968  10.580 -0.3636  0.3397 -0.2074
  441MOL0     C59420  10.671   5.955  10.526 -0.1237  0.7942  0.8803
  441MOL0     C59421  10.775   5.991  10.629 -0.5645  0.2915  1.1347
  441MOL0     C59422  10.880   5.889  10.631 -0.3675 -0.5321 -0.7911
  441MOL0     C59423  10.960   5.866  10.498 -0.5974  0.3110 -0.7666
  441MOL0     O59424  11.050   5.977  10.484  0.7346  0.2271  0.8186
  441MOL0     C59425  11.028   6.093  10.406 -0.0980  0.4465  0.6644
  441MOL0     C59426  10.954   6.099  10.279  0.1713  0.1094 -1.0205
  441MOL0     C59427  10.944   6.216  10.203 -1.4001 -0.2527  0.6474
  441MOL0     C59428  11.009   6.336  10.253 -0.5549 -0.1102  0.3920
  441MOL0     C59429  11.001   6.470  10.186  0.5582 -0.3499  0.3860
  441MOL0     O59430  11.058   6.581  10.248 -0.3455  0.8297  0.2331
  441MOL0     C59431  11.041   6.702  10.186 -0.3603 -0.4960 -0.4233
  441MOL0     C59432  10.915   6.757  10.165  0.0686 -0.0780  0.5356
  441MOL0     C59433  10.898   6.890  10.112 -0.9809 -0.1476 -1.1178
  441MOL0     C59434  11.020   6.965  10.084  0.1636  0.5292  0.0763
  441MOL0     O59435  11.018   7.093  10.037  0.3900  0.5646 -0.2688
  441MOL0     C59436  10.899   7.124   9.953  0.2607 -0.1065  0.4421
  441MOL0     C59437  10.920   7.269   9.904 -0.2604  0.0242 -0.6016
  441MOL0     C59438  10.845   7.284   9.764  1.0951 -0.0646  0.1449
  441MOL0     C59439  10.903   7.409   9.689 -0.1548  0.2900  0.8214
  441MOL0     C59440  10.850   7.453   9.551  0.3036  0.4525  0.0446
  441MOL0     C59441  10.698   7.491   9.550 -0.7098 -0.8527 -0.3411
  441MOL0     C59442  10.690   7.627   9.619 -0.5275 -0.3691  0.4388
  441MOL0     C59443  10.568   7.699   9.577  0.3423  0.2273 -0.3726
  441MOL0    Cl59444  10.438   7.666   9.693  0.2234  0.0738 -0.3487
  441MOL0     C59445  11.144   6.912  10.102 -0.0974  0.4692  0.0361
  441MOL0     C59446  11.151   6.789  10.163 -0.3620  0.0070 -0.2046
  441MOL0     O59447  10.955   6.478  10.076  1.3009  1.1858  0.1580
  441MOL0     C59448  11.095   6.327  10.362 -0.0831 -0.3194 -0.1392
  441MOL0     C59449  11.101   6.212  10.438  0.7799 -0.3534 -0.3842
  441MOL0     N59450  10.435   5.866  10.566  0.1754 -0.6808 -0.2341
  441MOL0     N59451  10.328   5.910  10.619  0.8072  0.3310  0.1402
  441MOL0     C59452  10.354   7.019  11.161 -0.0214 -0.6108 -0.8342
  441MOL0     C59453  10.315   7.157  11.159  0.7019  0.4162  0.2692
  441MOL0     C59454  10.075   7.558  11.068  0.4523  0.2621 -0.2327
  441MOL0     C59455   9.968   7.646  11.111 -1.0124 -0.0721  0.2489
  441MOL0     C59456   9.979   7.777  11.070  0.0472  1.0388 -0.0725
  441MOL0     C59457  10.078   7.825  10.989 -0.4681 -0.3154 -0.2709
  441MOL0     O59458  10.090   7.959  10.958 -0.5904 -0.4054 -0.3736
  441MOL0     C59459   9.996   8.062  10.975  0.2134  0.0136 -0.3162
  441MOL0     C59460  10.071   8.196  10.990  0.7508  0.2778  0.1091
  441MOL0     C59461  10.080   8.240  11.135  0.3592  0.6828  0.7587
  441MOL0     C59462  10.193   8.327  11.165 -0.3709  0.0966  0.1539
  441MOL0     C59463  10.319   8.248  11.135  0.7178  0.9598  0.5013
  441MOL0     C59464  10.427   8.202  11.106 -0.1390 -1.0252 -0.8818
  441MOL0     C59465  10.185   7.751  10.958 -0.2536  0.3152 -0.8484
  441MOL0     C59466  10.184   7.618  10.983  0.1926  1.1928  0.4346
  441MOL0     C59467  10.302   7.549  10.932 -0.9242 -0.6336  0.0860
  441MOL0     H59468  10.050   7.168  10.970  1.0998  0.4131 -1.2162
  441MOL0     H59469  10.100   6.911  10.978  0.1202 -1.4179  1.3788
  441MOL0     H59470  10.360   6.744  11.259  0.6133 -2.4891 -0.5258
  441MOL0     H59471  10.180   6.726  11.250  0.4110  0.4936 -0.8273
  441MOL0     H59472  10.288   6.506  11.250  0.7119 -0.9833  0.9326
  441MOL0     H59473  10.376   6.548  11.098 -0.8088  1.7947 -0.8209
  441MOL0     H59474  10.165   6.588  10.977 -1.5003  1.4564  1.1336
  441MOL0     H59475  10.060   6.562  11.108 -0.0679  0.2803  0.0867
  441MOL0     H59476  10.255   6.329  11.022 -1.3205 -1.1547  1.4578
  441MOL0     H59477  10.136   6.322  11.143  3.0125 -3.3841 -0.7326
  441MOL0     H59478  10.009   6.242  10.974 -5.6654  2.1148  0.5686
  441MOL0     H59479   9.974   6.407  10.944  1.6286  1.6934 -1.5857
  441MOL0     H59480  10.043   6.310  10.728 -0.6861 -0.4819  0.1713
  441MOL0     H59481  10.180   6.408  10.780 -1.7096  1.8253  2.9763
  441MOL0     H59482  10.172   6.112  10.846 -0.2238 -0.3736 -1.3672
  441MOL0     H59483  10.315   6.209  10.835  1.0070 -2.1997 -0.7932
  441MOL0     H59484  10.142   6.101  10.598  0.4367 -1.8156  0.5678
  441MOL0     H59485  10.249   6.232  10.568 -1.9561 -0.8242 -1.3909
  441MOL0     H59486  10.528   6.171  10.594  1.2281 -0.8929  0.9037
  441MOL0     H59487  10.681   5.856  10.480 -0.5431 -1.3722  4.9693
  441MOL0     H59488  10.669   6.037  10.453 -0.5931  0.4720  0.5253
  441MOL0     H59489  10.828   6.077  10.588  1.9412 -2.2757 -1.4670
  441MOL0     H59490  10.728   6.021  10.723 -1.5539  0.4354  0.6072
  441MOL0     H59491  10.838   5.797  10.673 -0.3821 -0.6873 -1.1356
  441MOL0     H59492  10.962   5.910  10.700  2.1529 -2.5412 -2.9198
  441MOL0     H59493  10.912   5.826  10.408 -0.6394 -3.0483  0.6122
  441MOL0     H59494  11.037   5.789  10.512  0.6421  1.7279  0.4430
  441MOL0     H59495  10.922   6.005  10.233  3.5248 -0.7437 -1.8927
  441MOL0     H59496  10.892   6.233  10.110  0.7119  1.2477 -0.3561
  441MOL0     H59497  10.828   6.694  10.183  1.3538 -2.1514 -0.1342
  441MOL0     H59498  10.798   6.925  10.092 -2.2471 -1.6832  1.9572
  441MOL0     H59499  10.891   7.053   9.871 -0.3896 -1.0250  1.2841
  441MOL0     H59500  10.804   7.121  10.007 -0.1585 -0.1613 -0.2912
  441MOL0     H59501  10.893   7.340   9.982 -1.3929 -2.0654  1.0107
  441MOL0     H59502  11.027   7.288   9.888 -0.3674  1.9791  0.6814
  441MOL0     H59503  10.867   7.195   9.704 -0.2619  0.3154 -0.9691
  441MOL0     H59504  10.736   7.287   9.773  0.9222 -2.1282 -0.8283
  441MOL0     H59505  11.012   7.404   9.697  0.0445  4.5720  6.2321
  441MOL0     H59506  10.891   7.493   9.757  0.6578 -1.3141  3.0795
  441MOL0     H59507  10.858   7.367   9.485 -0.5992  0.0742  0.4142
  441MOL0     H59508  10.911   7.534   9.510 -1.8395  1.7481 -0.7461
  441MOL0     H59509  10.673   7.499   9.443 -0.5426  4.8077 -0.2889
  441MOL0     H59510  10.644   7.409   9.598  0.9025 -2.6581 -1.4739
  441MOL0     H59511  10.779   7.687   9.595 -1.3506  1.5820  2.0424
  441MOL0     H59512  10.681   7.606   9.726 -0.8323  1.3997  0.7785
  441MOL0     H59513  10.593   7.806   9.571  0.7935  0.0565 -2.0457
  441MOL0     H59514  10.538   7.658   9.480 -1.3252 -0.2903  0.3279
  441MOL0     H59515  11.237   6.967  10.088 -0.4617  0.7174 -1.6405
  441MOL0     H59516  11.244   6.744  10.197 -0.4861 -0.9266 -1.0621
  441MOL0     H59517  11.158   6.414  10.381  0.5196 -0.1899 -2.3560
  441MOL0     H59518  11.164   6.197  10.525 -1.8784  0.7316  1.9079
  441MOL0     H59519  10.448   6.988  11.206 -0.7520  0.2648  1.4952
  441MOL0     H59520  10.376   7.236  11.201  0.5154  0.6142  0.1656
  441MOL0     H59521   9.890   7.619  11.182 -0.9425 -4.0660 -0.9494
  441MOL0     H59522   9.895   7.842  11.090  1.0224  2.6522 -1.0509
  441MOL0     H59523   9.937   8.044  11.066 -1.9274 -0.7065 -1.7559
  441MOL0     H59524   9.933   8.069  10.886 -1.9018  1.5238  1.1821
  441MOL0     H59525  10.010   8.272  10.940 -1.9675 -2.4445 -1.0740
  441MOL0     H59526  10.168   8.188  10.942 -0.2778  1.2210 -2.2536
  441MOL0     H59527  10.084   8.148  11.194  0.7781 -1.6973 -2.6774
  441MOL0     H59528   9.996   8.301  11.169 -0.5091  2.1864 -3.4987
  441MOL0     H59529  10.191   8.407  11.090 -2.1201 -0.4670 -0.4680
  441MOL0     H59530  10.202   8.374  11.263 -1.2898 -1.1477  0.8590
  441MOL0     H59531  10.530   8.176  11.095 -0.2861 -2.1004  0.0966
  441MOL0     H59532  10.261   7.805  10.903 -0.5722 -0.4874 -2.1050
  441MOL0     H59533  10.383   7.608  10.886 -0.2595 -0.5606  1.3007
  441MOL0     H59534  10.342   7.507  11.025 -4.5561 -2.6307  0.9305
  441MOL0     H59535  10.263   7.469  10.869  0.2881 -0.8515 -0.4332
  442MOL0     O59536   8.276   4.573   4.789  0.6769  0.2142 -0.2789
  442MOL0     C59537   8.218   4.576   4.904  0.3453  0.7437 -0.5114
  442MOL0     O59538   8.102   4.537   4.939  0.4390 -0.1628  0.2783
  442MOL0     C59539   8.014   4.485   4.846 -0.2562  0.6307 -0.4955
  442MOL0     C59540   7.880   4.528   4.844 -0.9078 -0.4876 -0.7889
  442MOL0     C59541   7.783   4.474   4.768 -0.3801 -0.3350 -0.6586
  442MOL0     C59542   7.815   4.368   4.680 -0.7152  0.7820 -0.5211
  442MOL0     O59543   7.720   4.308   4.606  0.4889 -0.4787  0.2085
  442MOL0     C59544   7.582   4.341   4.626  0.5189 -0.9786 -0.3646
  442MOL0     C59545   7.496   4.285   4.516  0.0684 -0.5693  0.1095
  442MOL0     C59546   7.536   4.320   4.372  0.2512 -0.0622  0.0043
  442MOL0     C59547   7.433   4.278   4.262 -0.3611 -0.3253  0.6274
  442MOL0     C59548   7.480   4.310   4.124  0.1030 -0.2043 -0.2443
  442MOL0     C59549   7.407   4.234   4.012 -0.7317 -0.8931 -0.3791
  442MOL0     C59550   7.467   4.235   3.867  0.4834  0.7007 -0.2919
  442MOL0     C59551   7.403   4.337   3.773 -1.5127 -0.8470  0.4249
  442MOL0     N59552   7.485   4.351   3.658  0.1451  0.1948 -0.1802
  442MOL0     C59553   7.580   4.440   3.638 -0.5438  0.2017  1.3385
  442MOL0     C59554   7.608   4.431   3.511 -0.1602 -0.4837  0.3862
  442MOL0     C59555   7.676   4.537   3.417  0.2942  0.2221  1.4956
  442MOL0     C59556   7.828   4.532   3.431 -0.3629 -0.3513 -0.6522
  442MOL0     C59557   7.920   4.632   3.349  0.2962 -0.1100 -0.1016
  442MOL0     C59558   8.068   4.595   3.382 -0.4220  0.5260  0.0211
  442MOL0     O59559   8.123   4.625   3.513  0.0707 -0.2587  0.4586
  442MOL0     C59560   8.105   4.749   3.570 -0.6565  0.4653 -0.0974
  442MOL0     C59561   8.104   4.869   3.499 -0.7632 -0.2298  0.3676
  442MOL0     C59562   8.106   4.991   3.560 -0.0458 -0.4323  0.4570
  442MOL0     C59563   8.095   4.991   3.694 -0.3707 -0.1349  0.4398
  442MOL0     C59564   8.088   5.120   3.770  1.3301  0.1621 -0.5447
  442MOL0     O59565   8.148   5.232   3.713  0.0175  0.1319  0.5238
  442MOL0     C59566   8.150   5.350   3.781  0.2313 -0.4202 -0.7633
  442MOL0     C59567   8.029   5.414   3.819 -0.2136  0.3229  0.1097
  442MOL0     C59568   8.027   5.520   3.906 -0.3431 -0.2524 -0.3701
  442MOL0     C59569   8.149   5.572   3.956  0.2468 -0.2356 -0.9767
  442MOL0     O59570   8.160   5.669   4.052  0.0489 -0.7779 -0.1661
  442MOL0     C59571   8.055   5.745   4.117  0.4275  0.0806 -0.6692
  442MOL0     C59572   8.037   5.884   4.054 -0.6126 -1.0874  0.0081
  442MOL0     C59573   8.166   5.973   4.076  0.0718  0.3709 -0.1479
  442MOL0     C59574   8.167   6.096   3.981 -0.2108  0.2693  0.2830
  442MOL0     C59575   8.072   6.198   4.029 -0.3443 -0.3040 -0.1418
  442MOL0     C59576   8.101   6.263   4.167  0.0172 -0.0547 -0.4588
  442MOL0     C59577   8.061   6.411   4.149 -0.0903 -0.6146  0.9378
  442MOL0     C59578   8.097   6.505   4.249 -0.4676 -1.2192  0.0847
  442MOL0    Cl59579   7.988   6.502   4.388 -0.2742 -0.0579 -0.1191
  442MOL0     C59580   8.269   5.514   3.920 -0.3688 -0.6258  0.9197
  442MOL0     C59581   8.266   5.408   3.823 -0.3061  0.1496 -0.1717
  442MOL0     O59582   8.024   5.114   3.878 -0.5586 -0.7704 -0.7327
  442MOL0     C59583   8.084   4.874   3.766  0.3028 -0.3115  0.1484
  442MOL0     C59584   8.094   4.754   3.711  0.1884  1.6035  1.0552
  442MOL0     N59585   7.535   4.330   3.455 -0.7172 -0.5460  1.3255
  442MOL0     N59586   7.454   4.281   3.540 -0.1158 -0.0451  0.0178
  442MOL0     C59587   7.948   4.324   4.676  0.1263  0.2327  0.2389
  442MOL0     C59588   8.044   4.376   4.761  0.0724 -0.1142 -0.8167
  442MOL0     C59589   8.296   4.656   5.001  0.8005  0.0498  0.3073
  442MOL0     C59590   8.354   4.597   5.110 -0.1453  0.8040  0.3916
  442MOL0     C59591   8.442   4.666   5.191 -0.5388 -0.3190  0.1508
  442MOL0     C59592   8.464   4.802   5.166 -0.9952  0.0618 -0.1121
  442MOL0     O59593   8.552   4.863   5.255 -0.0992  0.2093  0.4446
  442MOL0     C59594   8.459   4.943   5.332  0.2846 -0.5163 -0.1522
  442MOL0     C59595   8.493   4.929   5.492  0.3287  0.6834  0.5652
  442MOL0     C59596   8.632   4.967   5.524 -0.1664  0.4064 -0.2916
  442MOL0     C59597   8.692   4.887   5.640  0.5534 -0.2923 -0.1919
  442MOL0     C59598   8.831   4.865   5.632 -0.3738 -0.0788  0.4882
  442MOL0     C59599   8.948   4.844   5.642  0.1254  0.4085  0.0188
  442MOL0     C59600   8.399   4.872   5.061  0.3812 -0.1833 -0.9534
  442MOL0     C59601   8.308   4.794   4.988  0.1116  0.3070 -0.2285
  442MOL0     C59602   8.234   4.864   4.869 -0.1860 -0.4899 -0.2688
  442MOL0     H59603   7.855   4.590   4.929  0.1040 -1.1447  0.0164
  442MOL0     H59604   7.683   4.508   4.793  0.5408  2.8485 -0.8710
  442MOL0     H59605   7.546   4.327   4.729 -0.4310  2.6324 -0.0535
  442MOL0     H59606   7.563   4.447   4.611 -0.3840 -1.0841 -0.0854
  442MOL0     H59607   7.393   4.323   4.519  0.4272  0.7727 -2.2761
  442MOL0     H59608   7.487   4.177   4.531 -0.0807 -0.6897 -0.8211
  442MOL0     H59609   7.634   4.272   4.362  0.2044 -0.9025  2.7532
  442MOL0     H59610   7.553   4.428   4.364  0.6331 -0.2320 -2.2218
  442MOL0     H59611   7.435   4.168   4.265 -0.8933 -0.3297  0.9327
  442MOL0     H59612   7.334   4.309   4.294  0.9082  2.0483  2.6294
  442MOL0     H59613   7.480   4.418   4.107 -0.0938  0.0222  1.1140
  442MOL0     H59614   7.581   4.273   4.106  1.3785  3.7681 -2.6833
  442MOL0     H59615   7.413   4.128   4.037 -1.1337 -1.7193 -3.4287
  442MOL0     H59616   7.302   4.262   4.014 -0.4573  0.5857 -2.7483
  442MOL0     H59617   7.444   4.135   3.829  2.0424  0.0953  0.2972
  442MOL0     H59618   7.576   4.245   3.870  0.6911 -1.3744  1.1261
  442MOL0     H59619   7.303   4.303   3.746 -1.1172 -0.8254 -1.1633
  442MOL0     H59620   7.386   4.426   3.833  3.6775  0.5152  0.3616
  442MOL0     H59621   7.618   4.525   3.694  1.3202  1.0524 -1.0351
  442MOL0     H59622   7.648   4.516   3.314  0.9860  1.4615  1.0209
  442MOL0     H59623   7.651   4.643   3.433  2.0246  1.0412 -0.7033
  442MOL0     H59624   7.856   4.550   3.536  0.1110  3.4917 -1.2716
  442MOL0     H59625   7.861   4.437   3.390  6.4796  1.8813 -1.6376
  442MOL0     H59626   7.904   4.734   3.386  2.3183 -0.1392  0.9603
  442MOL0     H59627   7.894   4.630   3.243 -0.7823 -1.8337  0.1527
  442MOL0     H59628   8.116   4.656   3.304  1.4910  1.9152  2.1665
  442MOL0     H59629   8.087   4.489   3.361 -0.5517  0.6346 -0.6907
  442MOL0     H59630   8.119   4.861   3.392  2.0400  2.7578  0.3854
  442MOL0     H59631   8.104   5.078   3.496 -1.8790  0.0011  1.0585
  442MOL0     H59632   7.939   5.364   3.785 -0.5293  0.2243  1.0678
  442MOL0     H59633   7.928   5.554   3.934 -0.1205  0.0839 -0.0014
  442MOL0     H59634   7.966   5.681   4.126  1.2319 -1.0052 -0.2084
  442MOL0     H59635   8.085   5.769   4.219 -1.5525 -2.6034  0.6560
  442MOL0     H59636   8.030   5.879   3.945 -0.0165  0.3256 -0.1204
  442MOL0     H59637   7.947   5.930   4.095  1.2498  1.5198  1.5198
  442MOL0     H59638   8.170   6.007   4.180  0.2630  0.6373 -0.2413
  442MOL0     H59639   8.256   5.916   4.048 -0.7245 -0.5805 -0.8472
  442MOL0     H59640   8.140   6.073   3.877  0.9384 -0.5917  0.1523
  442MOL0     H59641   8.272   6.127   3.978 -0.5958  1.7059 -3.1590
  442MOL0     H59642   7.973   6.152   4.028  0.3648 -1.9427  0.8025
  442MOL0     H59643   8.087   6.271   3.949  3.1530  1.3901  1.8126
  442MOL0     H59644   8.045   6.215   4.248 -1.8483  0.4541 -1.3739
  442MOL0     H59645   8.207   6.256   4.192 -0.1936 -2.3844 -0.0414
  442MOL0     H59646   7.953   6.404   4.141 -0.2823  1.4244  1.2684
  442MOL0     H59647   8.098   6.450   4.054 -0.1988  1.7496  1.7895
  442MOL0     H59648   8.199   6.488   4.284 -0.3068  0.2583  0.3960
  442MOL0     H59649   8.090   6.607   4.210  1.0925 -1.4417 -0.8680
  442MOL0     H59650   8.361   5.557   3.958  1.5520 -2.6292 -1.1444
  442MOL0     H59651   8.356   5.353   3.796 -1.5102  0.1308 -5.2639
  442MOL0     H59652   8.064   4.879   3.873 -0.0380  1.8778  0.0381
  442MOL0     H59653   8.103   4.657   3.759  1.8439 -2.4119 -6.0150
  442MOL0     H59654   7.975   4.240   4.612  1.9704 -1.1061  2.6276
  442MOL0     H59655   8.142   4.331   4.772  0.4895  0.5324 -1.7601
  442MOL0     H59656   8.322   4.495   5.130  0.6831  0.7775  1.7164
  442MOL0     H59657   8.496   4.622   5.273 -0.6180  0.9101  0.8921
  442MOL0     H59658   8.354   4.924   5.309  0.1876 -0.3543  0.1608
  442MOL0     H59659   8.486   5.046   5.305 -2.0382  1.5261  4.2435
  442MOL0     H59660   8.480   4.820   5.495  0.4671  0.5111 -2.1571
  442MOL0     H59661   8.417   4.979   5.553 -0.3789 -0.9451  1.0651
  442MOL0     H59662   8.634   5.074   5.551 -2.0211  0.5900 -0.7827
  442MOL0     H59663   8.690   4.938   5.436 -1.1491 -5.1604  0.5361
  442MOL0     H59664   8.680   4.931   5.740 -0.7919 -3.1724  1.0117
  442MOL0     H59665   8.639   4.792   5.647  2.0006 -1.1490 -0.5129
  442MOL0     H59666   9.048   4.807   5.650  0.0335  0.2594  0.5647
  442MOL0     H59667   8.426   4.976   5.050 -0.6303  0.1240 -0.6440
  442MOL0     H59668   8.268   4.819   4.775 -0.4059  0.3190 -0.7437
  442MOL0     H59669   8.127   4.851   4.887 -0.5101 -2.3191 -2.8324
  442MOL0     H59670   8.257   4.970   4.866 -1.3065 -0.1625  1.3994
  443MOL0     O59671   3.548   4.313   5.504  0.5658 -0.6809 -0.1470
  443MOL0     C59672   3.518   4.329   5.383  0.5467 -0.2286 -0.6697
  443MOL0     O59673   3.400   4.387   5.343  0.3153 -0.4089 -0.6888
  443MOL0     C59674   3.332   4.484   5.421 -0.1463 -0.5697  0.7368
  443MOL0     C59675   3.203   4.521   5.367 -0.7261  0.2524 -0.1585
  443MOL0     C59676   3.123   4.621   5.417  0.0940  0.7970  0.5651
  443MOL0     C59677   3.162   4.687   5.527 -0.3809  0.4521 -0.0457
  443MOL0     O59678   3.074   4.772   5.595 -0.1706  0.3028 -0.1742
  443MOL0     C59679   3.047   4.734   5.726  0.3598 -0.0783 -0.6816
  443MOL0     C59680   2.923   4.804   5.764  0.8856  0.0243  0.1645
  443MOL0     C59681   2.867   4.758   5.901 -0.1753 -1.0699 -0.2028
  443MOL0     C59682   2.735   4.833   5.939 -0.2878  0.3505  0.0647
  443MOL0     C59683   2.670   4.787   6.075  0.2921 -0.6291 -0.0239
  443MOL0     C59684   2.747   4.825   6.203  0.7778  0.4743  0.9742
  443MOL0     C59685   2.661   4.780   6.322 -0.2490 -0.1303  0.7171
  443MOL0     C59686   2.659   4.643   6.376 -0.5672  0.1919 -0.0376
  443MOL0     N59687   2.552   4.649   6.474 -0.1592  0.4308 -1.1699
  443MOL0     C59688   2.566   4.661   6.615 -0.7770  1.5292  0.1751
  443MOL0     C59689   2.433   4.666   6.656  0.9427  0.5008  0.6056
  443MOL0     C59690   2.385   4.693   6.800 -0.3756 -0.7407  0.5990
  443MOL0     C59691   2.368   4.568   6.890  0.1594  0.2226  0.3822
  443MOL0     C59692   2.330   4.603   7.030 -0.2031 -0.1647 -0.2675
  443MOL0     C59693   2.303   4.481   7.114  0.5002 -0.3774  0.6013
  443MOL0     O59694   2.418   4.405   7.138  0.2864 -0.0042  0.3140
  443MOL0     C59695   2.416   4.288   7.215  0.6626  0.1028 -0.0949
  443MOL0     C59696   2.391   4.165   7.168 -0.2528  1.4804  0.8492
  443MOL0     C59697   2.374   4.056   7.248 -0.1684  0.5153 -0.0281
  443MOL0     C59698   2.413   4.063   7.385  0.4236  0.2411  0.2093
  443MOL0     C59699   2.392   3.948   7.476 -0.0351  0.0460  0.7147
  443MOL0     O59700   2.356   3.829   7.415  0.1708 -0.1102  0.3186
  443MOL0     C59701   2.351   3.715   7.489 -0.4100  0.2417  0.0194
  443MOL0     C59702   2.392   3.599   7.435  1.0729 -0.1732  1.0392
  443MOL0     C59703   2.411   3.479   7.503 -0.0694 -0.9093  0.1908
  443MOL0     C59704   2.386   3.482   7.646  0.3855  0.5177  0.6618
  443MOL0     O59705   2.402   3.364   7.709 -0.6865 -0.0750 -0.4784
  443MOL0     C59706   2.352   3.354   7.849  0.1182  1.2208 -0.9531
  443MOL0     C59707   2.205   3.340   7.841 -0.0756 -1.1095 -0.0717
  443MOL0     C59708   2.134   3.339   7.984  0.4712  0.2200 -0.8165
  443MOL0     C59709   1.982   3.312   7.985 -0.0396  1.1442 -0.4587
  443MOL0     C59710   1.925   3.289   8.127 -0.0136  0.4572  0.0926
  443MOL0     C59711   1.908   3.434   8.184 -0.1184  0.1343 -0.8146
  443MOL0     C59712   1.889   3.424   8.331 -0.1174 -0.1192 -0.4326
  443MOL0     C59713   1.754   3.364   8.384  1.0169  0.8124  0.0717
  443MOL0    Cl59714   1.624   3.469   8.339  0.1075  0.2312 -0.0066
  443MOL0     C59715   2.332   3.594   7.701 -0.0625 -1.2978  0.7671
  443MOL0     C59716   2.308   3.712   7.624 -1.0677 -0.3129 -0.3674
  443MOL0     O59717   2.433   3.965   7.594 -0.2109  0.4511  0.2157
  443MOL0     C59718   2.438   4.197   7.436  0.7590 -1.1549  0.1390
  443MOL0     C59719   2.436   4.315   7.350 -0.5992  0.2327  0.4906
  443MOL0     N59720   2.349   4.631   6.553 -0.2745 -0.4559 -0.2013
  443MOL0     N59721   2.423   4.625   6.449  0.3045 -0.2159  0.1901
  443MOL0     C59722   3.284   4.665   5.582  0.0129 -0.6193 -0.2101
  443MOL0     C59723   3.369   4.555   5.539 -0.3253  0.0662  0.1334
  443MOL0     C59724   3.604   4.301   5.266 -0.1468 -0.0935  0.1859
  443MOL0     C59725   3.548   4.292   5.137 -0.2461 -0.3078 -0.1317
  443MOL0     C59726   3.622   4.224   5.039 -0.3066  0.3485  0.4116
  443MOL0     C59727   3.746   4.178   5.058  0.5562  0.4727  0.1999
  443MOL0     O59728   3.824   4.106   4.977  0.0292  0.7302  0.4411
  443MOL0     C59729   3.774   4.056   4.854 -0.1740  0.1647 -0.6311
  443MOL0     C59730   3.886   3.955   4.810  0.4523  0.0007 -0.0297
  443MOL0     C59731   3.862   3.896   4.670  0.1663 -0.3742  0.0698
  443MOL0     C59732   3.904   3.987   4.560 -1.3678 -0.0584 -0.5744
  443MOL0     C59733   3.875   3.899   4.453  0.2981  0.6748  0.0979
  443MOL0     C59734   3.867   3.820   4.362 -0.4931 -0.8949  1.1365
  443MOL0     C59735   3.814   4.215   5.174 -0.2880  0.0535 -0.4196
  443MOL0     C59736   3.740   4.259   5.281  1.2412 -0.1792 -0.7243
  443MOL0     C59737   3.818   4.264   5.418  0.3229  0.2390  0.9823
  443MOL0     H59738   3.174   4.472   5.275  1.0657  1.0217 -1.1901
  443MOL0     H59739   3.022   4.641   5.382  0.1432  4.6068  2.1355
  443MOL0     H59740   3.041   4.626   5.739  1.9468 -0.0102  1.1267
  443MOL0     H59741   3.140   4.756   5.781 -0.0069  1.9104 -0.7624
  443MOL0     H59742   2.846   4.783   5.689 -1.6929  1.4250  2.2374
  443MOL0     H59743   2.939   4.912   5.771 -6.3963  1.6914 -0.6332
  443MOL0     H59744   2.944   4.795   5.970  0.6937 -0.6239 -1.3638
  443MOL0     H59745   2.855   4.649   5.900  0.7687 -1.2690  2.4630
  443MOL0     H59746   2.744   4.941   5.924 -2.1150  0.4298 -0.7529
  443MOL0     H59747   2.656   4.801   5.870  0.1802  0.7070 -0.6462
  443MOL0     H59748   2.569   4.827   6.087  1.0136  1.2763  0.0042
  443MOL0     H59749   2.665   4.678   6.074  0.4269 -0.6454  0.6325
  443MOL0     H59750   2.842   4.773   6.213  1.2756  1.2142  0.2145
  443MOL0     H59751   2.775   4.930   6.213 -0.0149  0.8148 -0.1241
  443MOL0     H59752   2.560   4.815   6.301  0.3902  1.0908 -0.5635
  443MOL0     H59753   2.706   4.841   6.402 -0.2414  0.2706  0.4088
  443MOL0     H59754   2.647   4.571   6.294 -0.9314  0.4167 -0.1822
  443MOL0     H59755   2.747   4.604   6.429 -2.6288 -3.1469  1.2727
  443MOL0     H59756   2.653   4.686   6.674  0.6917  2.6441 -2.3131
  443MOL0     H59757   2.448   4.775   6.836  0.2825 -0.6129 -0.7734
  443MOL0     H59758   2.287   4.742   6.788 -1.6811 -2.6237  2.7668
  443MOL0     H59759   2.286   4.501   6.862 -0.2303  0.5402  0.7513
  443MOL0     H59760   2.463   4.513   6.889  1.1290  1.8511  0.1307
  443MOL0     H59761   2.240   4.664   7.036  0.4327  0.6400  2.0906
  443MOL0     H59762   2.413   4.658   7.076  0.8629 -2.9970  1.4360
  443MOL0     H59763   2.220   4.431   7.063  0.1658 -0.7502  1.4931
  443MOL0     H59764   2.266   4.511   7.213  1.8051  0.7285  0.7738
  443MOL0     H59765   2.376   4.146   7.062 -1.1917  0.8158  1.0791
  443MOL0     H59766   2.338   3.966   7.200 -0.8683  0.5412  0.4402
  443MOL0     H59767   2.421   3.617   7.332  0.1462  2.6304  1.1665
  443MOL0     H59768   2.479   3.410   7.454 -0.3637  0.1604 -1.8820
  443MOL0     H59769   2.387   3.260   7.893 -4.3538 -1.1498 -1.9216
  443MOL0     H59770   2.375   3.447   7.903 -0.1249  1.5228 -1.3648
  443MOL0     H59771   2.157   3.413   7.775 -0.9236 -1.7044 -0.1223
  443MOL0     H59772   2.180   3.247   7.790 -1.1174 -1.5767  1.2334
  443MOL0     H59773   2.182   3.265   8.049  1.0662  2.5589  1.5575
  443MOL0     H59774   2.156   3.428   8.043  2.3163 -1.5149  1.3185
  443MOL0     H59775   1.952   3.234   7.915 -2.7462  2.6796 -1.1596
  443MOL0     H59776   1.930   3.394   7.934 -3.1863 -2.8182 -4.4181
  443MOL0     H59777   1.982   3.230   8.199 -1.4723 -2.0373 -0.6530
  443MOL0     H59778   1.828   3.243   8.107  1.5480 -1.0390 -6.1565
  443MOL0     H59779   1.993   3.500   8.165 -1.5242  1.4653 -3.0566
  443MOL0     H59780   1.822   3.486   8.140 -1.8480 -0.3328  1.8180
  443MOL0     H59781   1.893   3.529   8.362  0.6396  0.0886 -1.1952
  443MOL0     H59782   1.976   3.384   8.385  0.4941  1.8359  0.1077
  443MOL0     H59783   1.753   3.263   8.341 -1.9593  0.1523  1.4478
  443MOL0     H59784   1.761   3.347   8.492  0.3347 -1.1168 -0.1556
  443MOL0     H59785   2.288   3.604   7.799 -1.7086 -2.3994  0.1919
  443MOL0     H59786   2.267   3.805   7.662  0.5566  1.1116 -1.9093
  443MOL0     H59787   2.459   4.215   7.541 -2.1504  1.3410  0.4282
  443MOL0     H59788   2.444   4.418   7.384 -0.3727  1.1873 -2.1830
  443MOL0     H59789   3.330   4.729   5.657  2.0174 -0.7212 -1.2720
  443MOL0     H59790   3.466   4.531   5.580 -1.5500 -0.2536  3.1113
  443MOL0     H59791   3.450   4.310   5.094 -0.3497 -1.6632 -0.5112
  443MOL0     H59792   3.572   4.202   4.946  0.8633 -1.6052  0.1853
  443MOL0     H59793   3.752   4.139   4.786 -3.0274  0.3358  0.3549
  443MOL0     H59794   3.681   3.999   4.864 -1.3430  1.9847 -0.6639
  443MOL0     H59795   3.879   3.868   4.876  0.0103  0.4745  0.5606
  443MOL0     H59796   3.980   4.010   4.820 -1.6015  3.8990 -0.1154
  443MOL0     H59797   3.762   3.852   4.663  0.3510 -0.8633  0.4400
  443MOL0     H59798   3.930   3.810   4.676 -1.1166 -1.4809 -0.6303
  443MOL0     H59799   3.865   4.089   4.556 -2.1619 -0.2987  0.6336
  443MOL0     H59800   4.013   4.000   4.564 -1.6637  2.7165  0.3551
  443MOL0     H59801   3.859   3.737   4.294  2.4974 -1.1144  0.9153
  443MOL0     H59802   3.916   4.191   5.204  0.3417  4.4036  1.8260
  443MOL0     H59803   3.821   4.361   5.469 -1.4627  0.0420  1.5194
  443MOL0     H59804   3.768   4.195   5.487  1.2128 -3.2758 -1.6094
  443MOL0     H59805   3.923   4.232   5.422 -0.5297 -2.8873  1.8076
  444MOL0     O59806   5.312   6.420   4.094  0.3133 -0.6236 -0.1855
  444MOL0     C59807   5.334   6.298   4.057  0.1080 -1.0290 -0.0519
  444MOL0     O59808   5.386   6.259   3.943  0.2458  0.3470  0.2096
  444MOL0     C59809   5.425   6.349   3.846  0.4626  0.4547 -0.9843
  444MOL0     C59810   5.508   6.296   3.741 -1.3896  0.0637  0.2998
  444MOL0     C59811   5.542   6.372   3.629 -0.0208 -0.0402  0.0918
  444MOL0     C59812   5.485   6.501   3.607  0.6651  0.1685  0.2516
  444MOL0     O59813   5.517   6.592   3.504  0.0692 -0.9059  0.1219
  444MOL0     C59814   5.646   6.581   3.430 -0.2647 -0.8239  0.4416
  444MOL0     C59815   5.768   6.630   3.503 -0.1769 -0.2459 -0.5993
  444MOL0     C59816   5.753   6.787   3.534  0.8635 -0.4832 -0.2123
  444MOL0     C59817   5.889   6.830   3.600  0.0628  0.7292 -0.0536
  444MOL0     C59818   5.911   6.978   3.598  0.7074 -0.0154  0.0630
  444MOL0     C59819   5.813   7.041   3.696 -0.5842 -0.6026 -0.2747
  444MOL0     C59820   5.877   7.029   3.834 -0.7146  0.3365 -0.9337
  444MOL0     C59821   5.812   7.126   3.933  0.2879 -0.6142  0.4451
  444MOL0     N59822   5.902   7.175   4.036 -0.0085  0.4546  0.1431
  444MOL0     C59823   6.022   7.243   4.022 -0.7666 -0.0741  0.9780
  444MOL0     C59824   6.064   7.265   4.150  0.8072  0.4210  0.8431
  444MOL0     C59825   6.179   7.352   4.183 -0.4170 -0.1973 -0.4183
  444MOL0     C59826   6.300   7.276   4.223 -0.7960 -0.6296  0.4214
  444MOL0     C59827   6.409   7.372   4.281 -0.4086 -0.5555  0.2932
  444MOL0     C59828   6.517   7.415   4.183 -0.6473  0.3614 -0.4573
  444MOL0     O59829   6.618   7.319   4.173 -0.1507  0.4396 -0.3835
  444MOL0     C59830   6.669   7.303   4.047 -0.2115 -0.2652 -0.0686
  444MOL0     C59831   6.600   7.239   3.936 -0.1938 -0.1719  0.3141
  444MOL0     C59832   6.664   7.225   3.815  0.2791 -0.7043  0.1987
  444MOL0     C59833   6.796   7.263   3.803 -0.0973 -0.6660 -0.2551
  444MOL0     C59834   6.864   7.247   3.669  0.1719 -0.2107 -0.5334
  444MOL0     O59835   6.993   7.250   3.673  0.1110  0.7207  0.5955
  444MOL0     C59836   7.074   7.197   3.573 -0.5844 -1.2030  0.1908
  444MOL0     C59837   7.046   7.100   3.472  0.3010 -0.4719 -0.0307
  444MOL0     C59838   7.150   7.057   3.387  0.6266 -1.0330  0.0060
  444MOL0     C59839   7.283   7.087   3.420 -0.3641 -0.7430 -0.3712
  444MOL0     O59840   7.382   7.050   3.338  0.0738 -0.3707  0.7650
  444MOL0     C59841   7.460   6.938   3.381 -0.5009  0.5649  0.2271
  444MOL0     C59842   7.381   6.810   3.343 -0.5812 -1.1145  0.3765
  444MOL0     C59843   7.378   6.787   3.194 -0.0751  0.6921 -0.2891
  444MOL0     C59844   7.262   6.683   3.163 -0.4620 -0.0754 -0.3107
  444MOL0     C59845   7.242   6.672   3.015 -0.6213 -0.7893 -0.0494
  444MOL0     C59846   7.147   6.559   2.975  0.5834  0.6478  0.1057
  444MOL0     C59847   7.117   6.533   2.823  0.6034 -0.3095  0.0369
  444MOL0     C59848   7.046   6.654   2.757  0.2238  0.6222 -0.7084
  444MOL0    Cl59849   7.055   6.636   2.573 -0.1492 -0.3628 -0.1806
  444MOL0     C59850   7.316   7.157   3.535  1.0975 -0.2742 -0.6233
  444MOL0     C59851   7.214   7.220   3.599  0.4774  0.0616  0.9377
  444MOL0     O59852   6.791   7.219   3.568 -0.0472 -0.4749 -0.1856
  444MOL0     C59853   6.868   7.312   3.913 -0.6157 -0.8695 -0.5619
  444MOL0     C59854   6.802   7.332   4.038  1.2757  0.4595 -0.1310
  444MOL0     N59855   5.973   7.204   4.241  0.7393  0.0678 -0.0768
  444MOL0     N59856   5.885   7.147   4.167 -0.5271  0.3478 -0.1594
  444MOL0     C59857   5.386   6.545   3.700  0.3723 -0.0562  0.3096
  444MOL0     C59858   5.351   6.471   3.813 -0.2307  0.2431  0.2817
  444MOL0     C59859   5.305   6.199   4.157  1.5037 -0.3875 -0.6301
  444MOL0     C59860   5.173   6.183   4.200 -0.0330  0.3143  0.7961
  444MOL0     C59861   5.129   6.074   4.283  0.0206 -0.5837 -0.6403
  444MOL0     C59862   5.232   5.995   4.345  0.7489  0.9900  0.7312
  444MOL0     O59863   5.213   5.889   4.427 -0.2301  0.4524  0.1074
  444MOL0     C59864   5.084   5.869   4.483 -0.1339  0.9538 -0.4021
  444MOL0     C59865   5.050   5.963   4.605  0.7127  0.6494  0.9525
  444MOL0     C59866   5.161   5.963   4.719 -0.7990  0.1800 -0.1573
  444MOL0     C59867   5.130   6.077   4.820  0.1787  0.6530  1.0840
  444MOL0     C59868   5.010   6.048   4.896 -0.4612  0.3490 -1.3362
  444MOL0     C59869   4.899   6.014   4.950  0.3349  0.1753 -0.2098
  444MOL0     C59870   5.364   6.023   4.304 -0.4037 -0.0882  0.0382
  444MOL0     C59871   5.403   6.126   4.221  0.2534 -0.0420  0.7456
  444MOL0     C59872   5.547   6.137   4.195 -0.4812  0.3810  0.1791
  444MOL0     H59873   5.560   6.200   3.735  1.0356  1.3615 -1.4490
  444MOL0     H59874   5.609   6.326   3.557  3.1326  0.8835  2.2511
  444MOL0     H59875   5.654   6.478   3.396  0.0093 -1.2178  1.6285
  444MOL0     H59876   5.652   6.652   3.348 -0.6858 -2.5569 -1.1553
  444MOL0     H59877   5.860   6.605   3.450 -0.7673 -1.2332 -1.1812
  444MOL0     H59878   5.783   6.579   3.598  1.4560 -2.3258 -1.8952
  444MOL0     H59879   5.669   6.814   3.598  0.7334  1.1868 -1.0277
  444MOL0     H59880   5.738   6.844   3.442  1.5127  1.0239  0.5974
  444MOL0     H59881   5.901   6.801   3.705  0.3398 -0.2365 -0.3435
  444MOL0     H59882   5.972   6.785   3.545  0.5094  0.1344  1.0651
  444MOL0     H59883   6.014   6.995   3.631  0.3349 -2.3886  2.8889
  444MOL0     H59884   5.896   7.012   3.495  4.6769 -2.2704 -1.5146
  444MOL0     H59885   5.799   7.142   3.658 -1.0936 -0.2887  0.7223
  444MOL0     H59886   5.717   6.989   3.700  0.5934 -2.9623 -0.6268
  444MOL0     H59887   5.982   7.057   3.824 -0.1741  0.6017  3.5298
  444MOL0     H59888   5.864   6.931   3.881 -0.6530  0.4305 -0.7193
  444MOL0     H59889   5.778   7.207   3.868 -2.2306 -1.4341  0.6387
  444MOL0     H59890   5.724   7.078   3.977  0.5782  0.6715  2.5283
  444MOL0     H59891   6.065   7.263   3.924 -1.7209 -1.9270  0.1369
  444MOL0     H59892   6.203   7.435   4.117  0.6486  0.5532  0.8809
  444MOL0     H59893   6.133   7.393   4.273  0.3595 -0.5722  0.1565
  444MOL0     H59894   6.264   7.208   4.302 -1.4791  1.9046  2.4199
  444MOL0     H59895   6.345   7.217   4.143 -0.6606 -2.5194  1.8259
  444MOL0     H59896   6.460   7.316   4.359 -1.2850 -0.0350  1.2749
  444MOL0     H59897   6.375   7.465   4.328  3.7728  1.0130  0.6175
  444MOL0     H59898   6.571   7.502   4.222  0.5868 -0.6035  0.0653
  444MOL0     H59899   6.459   7.441   4.095 -4.9188  0.2883  2.0537
  444MOL0     H59900   6.502   7.194   3.939  0.3195 -1.2782  1.4964
  444MOL0     H59901   6.603   7.199   3.729  0.4308  1.0702 -0.4868
  444MOL0     H59902   6.943   7.084   3.440  0.1472  2.3720 -1.2763
  444MOL0     H59903   7.123   7.001   3.297 -1.1009  0.3276 -0.3918
  444MOL0     H59904   7.556   6.944   3.328 -2.0654  0.0709 -2.9324
  444MOL0     H59905   7.477   6.937   3.489 -0.5279  0.3340  0.2303
  444MOL0     H59906   7.429   6.722   3.388  1.5424 -0.7013 -1.0012
  444MOL0     H59907   7.279   6.822   3.382 -1.2806 -0.1606 -1.5976
  444MOL0     H59908   7.364   6.870   3.125  1.8995  0.9018 -0.5114
  444MOL0     H59909   7.475   6.744   3.167 -2.8251 -4.3906 -3.5729
  444MOL0     H59910   7.170   6.705   3.219  0.3903  1.0000  0.7130
  444MOL0     H59911   7.301   6.589   3.202 -1.0537 -0.4794 -0.6798
  444MOL0     H59912   7.340   6.654   2.970  0.2543  6.8989 -2.8078
  444MOL0     H59913   7.214   6.768   2.970 -0.7718 -0.0896  1.4993
  444MOL0     H59914   7.213   6.474   2.997  2.3010  2.0775  0.6631
  444MOL0     H59915   7.057   6.554   3.038 -0.3167 -0.1038 -1.1817
  444MOL0     H59916   7.049   6.448   2.816  0.1207  0.1400 -0.8870
  444MOL0     H59917   7.211   6.506   2.775  1.8454 -1.3717  2.8419
  444MOL0     H59918   6.943   6.663   2.793  0.1268  1.5241 -1.1971
  444MOL0     H59919   7.107   6.735   2.800  0.2119 -1.6502  4.3374
  444MOL0     H59920   7.420   7.162   3.565  1.0414 -0.0482 -0.4642
  444MOL0     H59921   7.241   7.281   3.684  2.2481  2.6655 -1.3261
  444MOL0     H59922   6.975   7.326   3.898 -0.3663 -2.1675 -0.1347
  444MOL0     H59923   6.859   7.367   4.124  3.2029 -2.1664 -0.1980
  444MOL0     H59924   5.336   6.641   3.688 -1.1239 -0.8322  0.1072
  444MOL0     H59925   5.259   6.492   3.866  0.8029  1.9078  1.5434
  444MOL0     H59926   5.105   6.261   4.166  0.8986 -0.6826 -4.0605
  444MOL0     H59927   5.026   6.066   4.318  0.1288  1.0893  0.1916
  444MOL0     H59928   5.097   5.767   4.518 -2.8369  0.7775  0.3294
  444MOL0     H59929   4.992   5.862   4.423 -2.5441  0.1678  3.0818
  444MOL0     H59930   4.963   5.925   4.660  1.8887 -0.4289  2.1393
  444MOL0     H59931   5.026   6.063   4.568 -2.8979  0.0431  1.2675
  444MOL0     H59932   5.257   5.998   4.680 -1.2044  0.1096 -1.2375
  444MOL0     H59933   5.162   5.868   4.774 -2.7580  0.6064  0.6970
  444MOL0     H59934   5.218   6.094   4.882  2.1958  6.3298 -2.5410
  444MOL0     H59935   5.120   6.168   4.760  3.7603 -0.7463 -2.0792
  444MOL0     H59936   4.818   5.972   5.006  0.4671 -2.1017 -1.6006
  444MOL0     H59937   5.431   5.957   4.358 -3.4897  0.0314  4.6312
  444MOL0     H59938   5.603   6.089   4.277  0.8168  1.4995 -0.0313
  444MOL0     H59939   5.574   6.090   4.100  0.2165 -1.8191  1.3730
  444MOL0     H59940   5.573   6.243   4.203  0.5594  0.0032  3.9320
  445MOL0     O59941   5.494   0.144   6.857 -0.3181  0.4360 -0.1737
  445MOL0     C59942   5.583   0.070   6.901  0.6666  0.3473 -0.0058
  445MOL0     O59943   5.646  -0.034   6.835  0.0574 -0.4812  0.5787
  445MOL0     C59944   5.604  -0.070   6.703 -0.5275  0.7221 -0.8363
  445MOL0     C59945   5.693  -0.064   6.598 -0.4605  1.9541 -0.0864
  445MOL0     C59946   5.662  -0.108   6.470 -0.8431 -0.1244  0.9174
  445MOL0     C59947   5.543  -0.155   6.433 -0.3722 -1.2123  0.5578
  445MOL0     O59948   5.520  -0.196   6.302 -0.8236 -1.3811 -1.1606
  445MOL0     C59949   5.398  -0.217   6.238 -0.7693 -0.4877 -0.7037
  445MOL0     C59950   5.401  -0.318   6.127 -0.7318  0.0988 -0.0688
  445MOL0     C59951   5.441  -0.256   5.987  0.7886 -0.4468  0.4194
  445MOL0     C59952   5.469  -0.370   5.885 -0.8068  0.9122 -0.1985
  445MOL0     C59953   5.515  -0.319   5.751 -0.4304  0.8136  0.3411
  445MOL0     C59954   5.611  -0.207   5.756 -0.7215 -0.0211 -0.5000
  445MOL0     C59955   5.669  -0.156   5.626 -1.1615  0.6799  0.1810
  445MOL0     C59956   5.755  -0.264   5.539  0.1043  0.2795 -0.1244
  445MOL0     N59957   5.780  -0.219   5.406  0.4441 -0.2744  0.4128
  445MOL0     C59958   5.720  -0.114   5.339 -0.4197 -1.5423  0.2492
  445MOL0     C59959   5.787  -0.099   5.219  0.1172  0.5451  0.0448
  445MOL0     C59960   5.772   0.007   5.115 -0.3049 -1.4020 -1.0684
  445MOL0     C59961   5.803  -0.044   4.972  1.0838  0.9275  0.7482
  445MOL0     C59962   5.675  -0.121   4.918  0.2157 -0.1835 -0.1727
  445MOL0     C59963   5.669  -0.110   4.770 -0.5350 -0.0124  0.8801
  445MOL0     O59964   5.577  -0.211   4.706  0.5606  0.1675 -0.4970
  445MOL0     C59965   5.446  -0.238   4.749 -0.2906 -0.3113  0.1690
  445MOL0     C59966   5.351  -0.141   4.768 -0.5585 -0.2705 -0.4459
  445MOL0     C59967   5.224  -0.170   4.815  0.4447  0.4785  0.5331
  445MOL0     C59968   5.188  -0.310   4.829 -0.1441 -0.0417  0.5727
  445MOL0     C59969   5.061  -0.351   4.893  0.3675 -0.2108 -0.1910
  445MOL0     O59970   5.074  -0.328   5.026 -0.1065  0.3419 -0.2871
  445MOL0     C59971   4.956  -0.298   5.091 -0.0140  0.9699  1.0267
  445MOL0     C59972   4.899  -0.172   5.099 -0.0987 -0.6479 -0.6245
  445MOL0     C59973   4.783  -0.163   5.182 -1.0263  0.3850 -0.2267
  445MOL0     C59974   4.745  -0.268   5.266 -0.0185 -0.0217 -1.1580
  445MOL0     O59975   4.643  -0.241   5.354  0.3873 -0.4375 -1.6123
  445MOL0     C59976   4.528  -0.330   5.331  0.5086 -0.3321 -0.1380
  445MOL0     C59977   4.392  -0.281   5.389 -0.1089 -0.8332  0.6293
  445MOL0     C59978   4.399  -0.246   5.531 -0.1045  0.6125 -0.4155
  445MOL0     C59979   4.393  -0.366   5.626 -0.6241  0.3959 -0.8061
  445MOL0     C59980   4.448  -0.328   5.761 -1.0027 -0.4144 -0.1852
  445MOL0     C59981   4.607  -0.323   5.756  0.2100  0.5491 -0.0332
  445MOL0     C59982   4.681  -0.241   5.874  0.0685  0.0862 -0.3213
  445MOL0     C59983   4.706  -0.100   5.838  0.2770 -0.1170  0.1424
  445MOL0    Cl59984   4.771  -0.012   5.981 -0.0497 -0.0900 -0.3174
  445MOL0     C59985   4.813  -0.391   5.261 -0.2899 -0.5325 -0.3232
  445MOL0     C59986   4.911  -0.409   5.165 -0.8676 -1.0104 -0.1305
  445MOL0     O59987   4.966  -0.409   4.834  0.1137 -0.2998 -0.2523
  445MOL0     C59988   5.281  -0.403   4.789  0.2763  0.2382 -0.7177
  445MOL0     C59989   5.410  -0.367   4.752  0.3014  0.1000  0.0447
  445MOL0     N59990   5.864  -0.217   5.199 -0.6917 -0.1348 -0.5007
  445MOL0     N59991   5.853  -0.291   5.302 -0.9655  0.5644 -0.7407
  445MOL0     C59992   5.452  -0.157   6.538 -0.2777  0.8738 -0.0885
  445MOL0     C59993   5.476  -0.109   6.670 -0.4441  0.4950  0.4266
  445MOL0     C59994   5.629   0.110   7.044  0.2656  0.4242 -0.3736
  445MOL0     C59995   5.766   0.092   7.070 -0.1637  0.8015 -0.6171
  445MOL0     C59996   5.822   0.118   7.201 -0.1722 -0.8459 -0.4170
  445MOL0     C59997   5.745   0.169   7.306 -1.4286  0.1345 -0.4575
  445MOL0     O59998   5.806   0.180   7.432 -0.4844  0.2421 -0.0168
  445MOL0     C59999   5.780   0.290   7.509 -0.9866 -0.4169 -0.3373
  445MOL0     C60000   5.904   0.373   7.546  1.0130 -0.3624 -0.7042
  445MOL0     C60001   6.015   0.283   7.594  0.0004 -0.6535  0.1766
  445MOL0     C60002   6.120   0.376   7.659 -0.4893 -0.1197 -0.3096
  445MOL0     C60003   6.248   0.308   7.695 -0.5734 -0.9306 -0.1920
  445MOL0     C60004   6.351   0.258   7.746  0.5827  0.7337 -0.4908
  445MOL0     C60005   5.617   0.199   7.271  0.2905  1.4700 -0.4114
  445MOL0     C60006   5.552   0.170   7.150 -0.1967  0.7093  0.2828
  445MOL0     C60007   5.405   0.208   7.141 -0.2642  0.5411 -0.9595
  445MOL0     H60008   5.801  -0.054   6.604 -0.2073 -0.8619  2.6716
  445MOL0     H60009   5.732  -0.100   6.387 -1.7548 -0.9728  0.0503
  445MOL0     H60010   5.320  -0.245   6.308  0.4604 -0.3921  0.7511
  445MOL0     H60011   5.368  -0.125   6.186 -0.4082  0.3292  0.4977
  445MOL0     H60012   5.310  -0.374   6.105 -0.4086  0.6041 -3.0900
  445MOL0     H60013   5.491  -0.379   6.141 -2.0012 -2.6972 -2.7660
  445MOL0     H60014   5.520  -0.182   6.003  1.0941 -0.6842  0.0270
  445MOL0     H60015   5.358  -0.196   5.949  2.3427  0.0985 -2.3332
  445MOL0     H60016   5.553  -0.425   5.930 -1.3768 -0.6256 -0.9424
  445MOL0     H60017   5.377  -0.429   5.880 -0.7609  0.1332  4.2653
  445MOL0     H60018   5.559  -0.402   5.695 -2.9281 -0.0113 -0.5801
  445MOL0     H60019   5.432  -0.285   5.687 -2.7903  1.0441  3.3078
  445MOL0     H60020   5.570  -0.111   5.791  1.8651  0.6609  0.9510
  445MOL0     H60021   5.696  -0.228   5.821 -1.7073  0.2531  0.9379
  445MOL0     H60022   5.734  -0.070   5.648 -2.0247  0.4884  4.3146
  445MOL0     H60023   5.587  -0.128   5.559  0.0010 -0.6518 -1.8926
  445MOL0     H60024   5.845  -0.304   5.585  0.9208 -2.1494 -3.4233
  445MOL0     H60025   5.689  -0.347   5.511  0.2840  0.1771 -0.2467
  445MOL0     H60026   5.637  -0.051   5.369  2.0117  0.9710  2.2988
  445MOL0     H60027   5.679   0.064   5.111  1.7177  2.2686  0.0672
  445MOL0     H60028   5.839   0.090   5.139 -2.1379  0.0999 -0.8779
  445MOL0     H60029   5.825   0.036   4.901  1.8689 -0.4259 -0.5828
  445MOL0     H60030   5.889  -0.111   4.964 -0.4037 -0.8354 -5.6983
  445MOL0     H60031   5.576  -0.092   4.952 -0.3669 -0.6296 -1.4434
  445MOL0     H60032   5.694  -0.226   4.940  1.4673  0.6236  3.2098
  445MOL0     H60033   5.772  -0.122   4.736 -1.0355 -1.1263 -0.3083
  445MOL0     H60034   5.634  -0.013   4.735 -1.3919 -1.6894 -3.4316
  445MOL0     H60035   5.374  -0.037   4.749 -0.7251  0.4571  2.7783
  445MOL0     H60036   5.141  -0.100   4.824 -1.3850 -1.5127  0.2676
  445MOL0     H60037   4.939  -0.088   5.044 -0.7659  2.9081  3.7419
  445MOL0     H60038   4.727  -0.071   5.196  1.6583  1.7474  3.1924
  445MOL0     H60039   4.512  -0.354   5.225 -4.6034 -1.1193  0.5498
  445MOL0     H60040   4.550  -0.424   5.383 -1.5442 -1.0697 -0.5252
  445MOL0     H60041   4.351  -0.194   5.336 -1.1117 -2.6388 -1.7456
  445MOL0     H60042   4.315  -0.358   5.379 -0.7706 -0.0102 -1.0004
  445MOL0     H60043   4.494  -0.194   5.546 -0.1188  0.3468  0.6745
  445MOL0     H60044   4.311  -0.185   5.552  0.9971  1.4961  1.9287
  445MOL0     H60045   4.444  -0.450   5.578 -3.1179 -3.5526  2.7562
  445MOL0     H60046   4.288  -0.393   5.635 -1.1025  1.7591 -1.8855
  445MOL0     H60047   4.420  -0.412   5.825 -1.9143  1.3648  1.8890
  445MOL0     H60048   4.408  -0.230   5.791 -1.7624 -1.1108  1.1307
  445MOL0     H60049   4.635  -0.427   5.773 -1.9621 -0.3383 -1.4049
  445MOL0     H60050   4.659  -0.301   5.662  0.3014 -0.3796 -0.2045
  445MOL0     H60051   4.781  -0.285   5.880 -0.0102 -0.5242 -2.5868
  445MOL0     H60052   4.639  -0.232   5.975 -3.1190  2.0967 -1.6672
  445MOL0     H60053   4.768  -0.095   5.749  0.2611  1.3106  0.1784
  445MOL0     H60054   4.610  -0.050   5.823  0.5067  1.2236  2.5642
  445MOL0     H60055   4.777  -0.460   5.336 -3.5749  1.5107  0.1682
  445MOL0     H60056   4.979  -0.493   5.155  1.2893  0.5319  0.7907
  445MOL0     H60057   5.249  -0.506   4.800 -1.3749  0.6366 -1.5815
  445MOL0     H60058   5.478  -0.449   4.736  0.1940 -0.2285  1.2267
  445MOL0     H60059   5.353  -0.200   6.533 -1.5163  3.0259  2.7272
  445MOL0     H60060   5.391  -0.103   6.737  1.4123  0.4864  2.9148
  445MOL0     H60061   5.830   0.051   6.993  3.4741 -1.0789  3.0104
  445MOL0     H60062   5.928   0.106   7.222 -0.6265 -2.1163  1.3356
  445MOL0     H60063   5.740   0.251   7.602  0.3688 -0.8018  0.1103
  445MOL0     H60064   5.707   0.357   7.463 -0.5539 -0.9233 -1.8159
  445MOL0     H60065   5.878   0.449   7.620 -0.1691  0.0706 -1.5438
  445MOL0     H60066   5.940   0.414   7.451  2.0087 -2.6387 -1.3730
  445MOL0     H60067   6.047   0.223   7.509 -1.3029  1.0645 -1.6159
  445MOL0     H60068   5.976   0.211   7.667 -7.7018  3.5001  1.2691
  445MOL0     H60069   6.159   0.449   7.588 -0.4555  1.5926  1.3982
  445MOL0     H60070   6.091   0.417   7.756  1.6847  0.1093  0.2799
  445MOL0     H60071   6.433   0.205   7.790  0.5998  0.6360 -0.6377
  445MOL0     H60072   5.557   0.248   7.347 -0.7651 -3.2441  2.1233
  445MOL0     H60073   5.382   0.294   7.078 -1.6220 -0.1368 -1.4284
  445MOL0     H60074   5.352   0.123   7.097  0.1176  0.1601 -0.6993
  445MOL0     H60075   5.361   0.225   7.240 -2.2886 -0.0684 -1.7046
  446MOL0     O60076   4.141   5.238   8.051  0.6210 -0.4945 -0.0308
  446MOL0     C60077   4.178   5.134   8.101 -0.0292 -0.2660 -0.5456
  446MOL0     O60078   4.219   5.121   8.237  0.7181 -0.0322  0.3066
  446MOL0     C60079   4.200   5.234   8.314  0.2892  0.4520  0.1605
  446MOL0     C60080   4.309   5.318   8.351 -0.2467 -0.5516  0.1894
  446MOL0     C60081   4.288   5.428   8.433  0.9089 -1.1970 -0.4423
  446MOL0     C60082   4.163   5.456   8.484  1.0595  1.2117  0.3393
  446MOL0     O60083   4.149   5.564   8.576 -0.7828 -0.1538  0.5173
  446MOL0     C60084   4.037   5.589   8.655  0.4642 -0.4718  0.7222
  446MOL0     C60085   4.033   5.731   8.687  0.0574  1.4092  0.1946
  446MOL0     C60086   3.914   5.758   8.767  0.3479 -0.0202  0.1122
  446MOL0     C60087   3.886   5.906   8.770  0.3026  0.5157  0.0253
  446MOL0     C60088   3.756   5.963   8.828  0.0541  0.0175  0.5568
  446MOL0     C60089   3.627   5.905   8.766  0.2177 -0.3843 -0.0329
  446MOL0     C60090   3.603   5.901   8.616 -0.1042 -0.2895  1.6061
  446MOL0     C60091   3.454   5.881   8.587  0.2784 -0.5064  0.6914
  446MOL0     N60092   3.440   5.874   8.443  0.2890  0.4227  0.0636
  446MOL0     C60093   3.443   5.974   8.349  0.3800  0.5810  0.0481
  446MOL0     C60094   3.411   5.907   8.228  0.4494 -0.7961  0.6919
  446MOL0     C60095   3.416   5.951   8.093 -0.2429 -1.1521  0.3682
  446MOL0     C60096   3.440   5.851   7.980 -0.0384  0.1346  0.3724
  446MOL0     C60097   3.535   5.897   7.864  0.8485 -0.2177 -1.1537
  446MOL0     C60098   3.529   5.811   7.750 -0.3870  0.0599 -0.3626
  446MOL0     O60099   3.605   5.842   7.627 -0.8632 -0.3996 -0.9143
  446MOL0     C60100   3.532   5.807   7.518 -0.3396  0.9018 -0.0882
  446MOL0     C60101   3.519   5.671   7.473 -0.1113  0.2136 -0.1805
  446MOL0     C60102   3.430   5.643   7.357  0.0162  0.6182 -0.2558
  446MOL0     C60103   3.365   5.742   7.288 -0.2416 -0.0542  0.6765
  446MOL0     C60104   3.279   5.712   7.180 -0.0531 -0.6871  0.7740
  446MOL0     O60105   3.170   5.790   7.153  0.2055  0.2395 -0.0926
  446MOL0     C60106   3.091   5.767   7.048  0.5856 -0.0159  0.2382
  446MOL0     C60107   3.082   5.874   6.955  0.6999  0.0731  1.4992
  446MOL0     C60108   3.002   5.854   6.841 -0.4078 -0.0859  0.1963
  446MOL0     C60109   2.934   5.731   6.818 -0.5520 -0.4345 -0.1934
  446MOL0     O60110   2.878   5.703   6.696 -0.7684  1.2602 -0.5000
  446MOL0     C60111   2.749   5.765   6.701 -0.4819  0.3307  0.4257
  446MOL0     C60112   2.655   5.704   6.590 -0.4136 -0.3512  0.4587
  446MOL0     C60113   2.624   5.555   6.615 -1.0081 -0.0892  0.9265
  446MOL0     C60114   2.540   5.518   6.733  0.5325 -0.3826 -0.0079
  446MOL0     C60115   2.512   5.374   6.756 -0.2503 -0.0190 -0.5865
  446MOL0     C60116   2.637   5.315   6.813 -0.4024 -0.3065 -0.6149
  446MOL0     C60117   2.631   5.160   6.839 -0.5330 -0.3342 -0.9986
  446MOL0     C60118   2.565   5.109   6.961  0.8079 -0.0835  0.1357
  446MOL0    Cl60119   2.381   5.116   6.964 -0.6188 -0.0906 -0.4244
  446MOL0     C60120   2.939   5.633   6.912 -0.0917  0.1223 -0.8624
  446MOL0     C60121   3.013   5.648   7.022  0.4456  0.0478 -0.3635
  446MOL0     O60122   3.305   5.611   7.108 -0.2530 -0.5228  0.3801
  446MOL0     C60123   3.367   5.872   7.345 -0.8324  0.7341  0.5977
  446MOL0     C60124   3.442   5.899   7.454 -0.2526  0.9800 -0.8539
  446MOL0     N60125   3.381   5.770   8.267  0.3603  0.0934  0.4818
  446MOL0     N60126   3.393   5.754   8.390 -0.1512  0.3028  0.0130
  446MOL0     C60127   4.056   5.366   8.450 -0.6561  0.2599  0.1806
  446MOL0     C60128   4.082   5.252   8.369  0.1281 -1.4982 -0.0181
  446MOL0     C60129   4.176   5.009   8.032 -0.0050  0.5376  0.4234
  446MOL0     C60130   4.230   4.889   8.094 -0.6099  0.3877 -0.8285
  446MOL0     C60131   4.242   4.768   8.030 -0.4210  0.5076  0.5873
  446MOL0     C60132   4.200   4.752   7.897 -0.3214  0.8604 -1.0170
  446MOL0     O60133   4.218   4.628   7.841  0.1094  0.3549  0.6206
  446MOL0     C60134   4.135   4.582   7.726  0.5877 -0.5706 -0.1085
  446MOL0     C60135   4.197   4.442   7.667 -0.1377 -1.0267  0.1313
  446MOL0     C60136   4.211   4.347   7.781 -0.5123  0.8939 -0.3992
  446MOL0     C60137   4.292   4.225   7.738 -0.0545  0.4262  0.0441
  446MOL0     C60138   4.349   4.165   7.853 -0.5564  0.1720 -0.2112
  446MOL0     C60139   4.402   4.116   7.953  0.9041 -0.6419 -0.0666
  446MOL0     C60140   4.139   4.860   7.836 -0.2574  0.5771  0.1048
  446MOL0     C60141   4.123   4.985   7.900  0.0748 -0.6530  0.5400
  446MOL0     C60142   4.044   5.092   7.821 -0.2058  0.9662  0.4998
  446MOL0     H60143   4.407   5.295   8.311 -0.2830  1.8106 -1.4511
  446MOL0     H60144   4.372   5.490   8.465 -0.1150 -0.5109  1.0204
  446MOL0     H60145   3.943   5.579   8.600  1.5413  1.0049 -1.5853
  446MOL0     H60146   4.044   5.538   8.751  1.4429 -1.1265  0.3275
  446MOL0     H60147   4.037   5.787   8.594  0.3883  1.3381  0.1657
  446MOL0     H60148   4.119   5.768   8.744 -0.1371  0.1268  1.3912
  446MOL0     H60149   3.941   5.718   8.865  2.5964  1.2500  0.0679
  446MOL0     H60150   3.824   5.710   8.729 -0.1481  0.1330  1.0688
  446MOL0     H60151   3.966   5.957   8.825 -1.8091 -0.3710  4.3387
  446MOL0     H60152   3.894   5.937   8.665 -1.4892  2.8404  0.4861
  446MOL0     H60153   3.767   5.929   8.931 -1.0491 -1.7064  0.1535
  446MOL0     H60154   3.746   6.071   8.818 -2.3050 -0.3077 -1.6436
  446MOL0     H60155   3.604   5.803   8.797 -1.0046  0.1529  0.9051
  446MOL0     H60156   3.548   5.968   8.808  1.5989  0.2939  1.6735
  446MOL0     H60157   3.662   5.822   8.569  0.5244 -0.9978  3.5084
  446MOL0     H60158   3.645   5.992   8.570  1.4379 -2.3179 -1.3752
  446MOL0     H60159   3.398   5.796   8.627 -1.7854 -0.2224 -1.3833
  446MOL0     H60160   3.395   5.968   8.616  0.8296  0.2575 -0.4072
  446MOL0     H60161   3.476   6.074   8.374  0.4127  0.5397  0.1726
  446MOL0     H60162   3.333   6.018   8.072  0.1459 -0.2193  1.6886
  446MOL0     H60163   3.495   6.027   8.090 -0.6869 -0.7050 -0.4387
  446MOL0     H60164   3.480   5.758   8.022  2.4013  0.0011 -1.9657
  446MOL0     H60165   3.345   5.822   7.935 -1.2088  1.4880  1.8283
  446MOL0     H60166   3.635   5.881   7.904  0.1981 -0.2186  0.5413
  446MOL0     H60167   3.524   6.004   7.843 -0.3866  0.0924  0.7825
  446MOL0     H60168   3.422   5.817   7.730 -0.2487  2.8545 -0.6728
  446MOL0     H60169   3.550   5.705   7.766  3.1010  0.0491 -3.5541
  446MOL0     H60170   3.573   5.592   7.523 -1.5616 -0.2412  0.7530
  446MOL0     H60171   3.416   5.541   7.323 -0.4312  0.8811 -0.8794
  446MOL0     H60172   3.121   5.970   6.985 -0.9394  1.2789 -0.0090
  446MOL0     H60173   2.988   5.932   6.767  0.5702  0.9332  1.0441
  446MOL0     H60174   2.702   5.738   6.797  0.4052  1.2956  1.1436
  446MOL0     H60175   2.760   5.873   6.694 -1.8500  0.5564  1.2650
  446MOL0     H60176   2.572   5.774   6.594  0.2942  0.5350 -0.1039
  446MOL0     H60177   2.700   5.715   6.491  0.3348  1.1229  0.9304
  446MOL0     H60178   2.573   5.513   6.528  2.8412 -2.5970 -0.3395
  446MOL0     H60179   2.725   5.514   6.617 -0.4298  1.2491  0.4696
  446MOL0     H60180   2.443   5.565   6.711 -0.5735 -1.7589  1.6538
  446MOL0     H60181   2.561   5.563   6.831 -2.5758  0.5439  0.3632
  446MOL0     H60182   2.477   5.330   6.662 -1.2179  0.9716 -0.7117
  446MOL0     H60183   2.432   5.356   6.828  1.6088 -2.6022  1.0192
  446MOL0     H60184   2.728   5.328   6.754  0.5513 -0.3954  0.7920
  446MOL0     H60185   2.668   5.365   6.905 -2.5095 -2.0471  1.1564
  446MOL0     H60186   2.737   5.134   6.851 -0.7484 -0.5946  0.6043
  446MOL0     H60187   2.600   5.107   6.749 -0.9147  0.0625 -1.1029
  446MOL0     H60188   2.609   5.009   6.962  1.4318  0.0175 -3.3192
  446MOL0     H60189   2.599   5.169   7.046 -1.3106  0.1866  0.8267
  446MOL0     H60190   2.894   5.534   6.904  1.1259 -0.4966 -0.2586
  446MOL0     H60191   3.017   5.579   7.106 -0.3095  3.0532  2.3222
  446MOL0     H60192   3.313   5.957   7.304  1.8206  1.7672 -1.0161
  446MOL0     H60193   3.424   5.999   7.493 -1.0740  0.3489  0.4686
  446MOL0     H60194   3.955   5.387   8.483  0.6257  1.2637  4.0974
  446MOL0     H60195   4.009   5.176   8.344 -0.0889 -2.1287  2.3404
  446MOL0     H60196   4.258   4.885   8.199  0.0588 -1.7954 -1.0293
  446MOL0     H60197   4.275   4.685   8.093 -2.3109 -2.1974 -1.7015
  446MOL0     H60198   4.122   4.660   7.651 -1.9991  3.2623  3.8296
  446MOL0     H60199   4.033   4.562   7.760 -0.2228  0.6788 -1.6718
  446MOL0     H60200   4.300   4.460   7.633  0.4816 -3.7320  0.3112
  446MOL0     H60201   4.141   4.399   7.584 -0.3089 -1.1856  0.3271
  446MOL0     H60202   4.112   4.315   7.814  0.1486  2.3101  3.3961
  446MOL0     H60203   4.252   4.392   7.872 -1.7382 -2.9494  2.3104
  446MOL0     H60204   4.229   4.150   7.688  1.4382 -2.1888  1.8162
  446MOL0     H60205   4.363   4.264   7.664 -1.0458 -1.8519 -2.2802
  446MOL0     H60206   4.440   4.063   8.038  0.1227  2.0267  2.0943
  446MOL0     H60207   4.084   4.850   7.744  0.5678 -1.3241 -0.2124
  446MOL0     H60208   3.949   5.116   7.870 -0.7159  1.1502 -0.5429
  446MOL0     H60209   4.097   5.188   7.823  1.1219  0.2363  0.8447
  446MOL0     H60210   4.018   5.068   7.718  3.9042  1.4888 -0.8186
  447MOL0     O60211   2.828   7.242   6.451 -0.0206 -0.2851 -0.3314
  447MOL0     C60212   2.812   7.267   6.575 -0.1956  1.1185  0.2421
  447MOL0     O60213   2.875   7.367   6.638 -0.0957 -0.5297  0.2594
  447MOL0     C60214   2.908   7.474   6.559 -0.2320  0.9502  0.7413
  447MOL0     C60215   3.043   7.489   6.506  0.7824  0.1476  0.0596
  447MOL0     C60216   3.079   7.606   6.435 -0.4330 -0.5738  0.4876
  447MOL0     C60217   2.976   7.706   6.406 -0.9587  0.8454 -0.0320
  447MOL0     O60218   3.027   7.814   6.341 -0.5532 -0.2477 -0.5652
  447MOL0     C60219   2.993   7.949   6.346  0.3011  0.3469 -0.6218
  447MOL0     C60220   3.100   8.048   6.285  0.2168  0.2117 -0.7038
  447MOL0     C60221   3.238   8.012   6.353 -1.0040  0.1006  0.4068
  447MOL0     C60222   3.247   8.046   6.504 -0.9973  0.3108 -0.0809
  447MOL0     C60223   3.372   7.987   6.566  0.2355 -0.2585 -1.3394
  447MOL0     C60224   3.507   8.039   6.518 -0.1491 -0.2506  0.2505
  447MOL0     C60225   3.622   8.012   6.618 -0.2228 -0.6237 -0.3832
  447MOL0     C60226   3.635   8.097   6.740 -0.7922 -0.6651 -0.0714
  447MOL0     N60227   3.675   8.234   6.717  0.1743 -0.1719  0.2466
  447MOL0     C60228   3.794   8.283   6.664  1.0593  0.8208  0.1913
  447MOL0     C60229   3.771   8.416   6.657  0.5716 -0.2874 -0.9556
  447MOL0     C60230   3.887   8.504   6.624  0.3296  0.7181 -0.1017
  447MOL0     C60231   3.857   8.620   6.525  0.3655  0.2416 -0.2244
  447MOL0     C60232   3.847   8.574   6.387  1.0299  0.0666  0.5097
  447MOL0     C60233   3.822   8.686   6.288  0.7071 -0.4196 -0.5750
  447MOL0     O60234   3.688   8.737   6.328  0.1437 -0.1206 -0.8745
  447MOL0     C60235   3.622   8.845   6.264  0.0226  0.5201  0.3676
  447MOL0     C60236   3.692   8.944   6.187  0.4509  0.4515 -0.2474
  447MOL0     C60237   3.625   9.056   6.140  0.5219 -0.3794  0.2426
  447MOL0     C60238   3.489   9.075   6.163  0.0495 -0.7298 -0.5177
  447MOL0     C60239   3.419   9.191   6.096 -0.2141  0.2080  0.5098
  447MOL0     O60240   3.286   9.174   6.078  0.6314 -0.1338 -0.1155
  447MOL0     C60241   3.241   9.240   5.966 -0.7488 -0.0772  0.1091
  447MOL0     C60242   3.303   9.228   5.845  0.1461  0.6325 -0.2627
  447MOL0     C60243   3.251   9.302   5.739  1.4356 -0.5650  0.7553
  447MOL0     C60244   3.132   9.376   5.743  0.2321  0.2608 -1.1446
  447MOL0     O60245   3.084   9.427   5.625 -0.4146 -0.7210  1.3332
  447MOL0     C60246   3.031   9.559   5.648 -0.7695  0.0054  0.8553
  447MOL0     C60247   2.954   9.594   5.512 -0.4082  0.7034 -0.1814
  447MOL0     C60248   3.037   9.578   5.390 -0.3911 -0.6214  0.2258
  447MOL0     C60249   3.010   9.700   5.291  0.0056 -0.8686  0.3240
  447MOL0     C60250   3.114   9.706   5.179 -0.2482  0.5669  0.1716
  447MOL0     C60251   3.106   9.597   5.085 -0.0537 -0.2258  0.1094
  447MOL0     C60252   3.219   9.605   4.981 -0.5080  0.2377  0.0169
  447MOL0     C60253   3.256   9.478   4.911  0.2675  0.9427  0.7556
  447MOL0    Cl60254   3.107   9.424   4.825 -0.0721  0.0934  0.6305
  447MOL0     C60255   3.070   9.373   5.867 -0.0450 -0.7907  0.1410
  447MOL0     C60256   3.128   9.317   5.985  0.8372 -0.7020 -0.2125
  447MOL0     O60257   3.490   9.284   6.065 -0.6562 -0.3851 -0.1535
  447MOL0     C60258   3.421   8.974   6.229  0.2253  0.1264 -0.5572
  447MOL0     C60259   3.490   8.870   6.287 -0.0852 -0.3661 -0.1753
  447MOL0     N60260   3.645   8.450   6.714  0.6437 -0.4067  0.7879
  447MOL0     N60261   3.587   8.340   6.752  0.3062 -0.8805 -0.6123
  447MOL0     C60262   2.847   7.682   6.438 -0.1090  0.2305  0.2181
  447MOL0     C60263   2.814   7.565   6.510  0.5444  0.3188 -1.5076
  447MOL0     C60264   2.749   7.159   6.655 -0.5180  0.6339 -0.2399
  447MOL0     C60265   2.621   7.120   6.629 -0.7281  0.8743  0.3708
  447MOL0     C60266   2.566   7.009   6.689 -0.3301  0.1229  0.5961
  447MOL0     C60267   2.630   6.930   6.773  0.0625 -0.6993 -0.2238
  447MOL0     O60268   2.590   6.811   6.823 -0.4590  0.9981  0.3388
  447MOL0     C60269   2.463   6.760   6.782 -0.5723 -0.5847 -0.0391
  447MOL0     C60270   2.446   6.619   6.844 -0.0813  0.8424 -0.6430
  447MOL0     C60271   2.304   6.570   6.820  0.5461 -0.5001 -0.1791
  447MOL0     C60272   2.183   6.637   6.897 -0.7958 -0.6973 -0.2139
  447MOL0     C60273   2.058   6.572   6.840 -0.0969 -0.8929 -0.4223
  447MOL0     C60274   1.949   6.545   6.791  1.1084  0.2590 -0.0473
  447MOL0     C60275   2.762   6.974   6.805 -0.4879  0.4516  0.1449
  447MOL0     C60276   2.817   7.086   6.756 -0.1813 -0.5170 -0.3269
  447MOL0     C60277   2.958   7.128   6.809  0.8717 -0.0879 -0.0795
  447MOL0     H60278   3.108   7.403   6.522  0.1869 -0.1289  1.0866
  447MOL0     H60279   3.180   7.617   6.399 -0.5141 -2.5386 -0.4656
  447MOL0     H60280   2.892   7.955   6.304 -0.2606  0.9145  0.7516
  447MOL0     H60281   2.985   7.978   6.451 -3.7266 -1.5458 -0.2418
  447MOL0     H60282   3.066   8.152   6.287 -1.0243 -0.1213 -2.3151
  447MOL0     H60283   3.121   8.035   6.179  0.5687 -0.1200 -0.5956
  447MOL0     H60284   3.315   8.066   6.298 -2.3973  0.0576 -1.6889
  447MOL0     H60285   3.256   7.905   6.335 -1.5646  0.2816 -1.4143
  447MOL0     H60286   3.227   8.151   6.529 -0.6896  0.6187 -1.0703
  447MOL0     H60287   3.161   8.000   6.553 -2.9265  1.0461 -2.5429
  447MOL0     H60288   3.380   8.011   6.673  2.2335  1.3366 -1.7796
  447MOL0     H60289   3.362   7.878   6.558  3.2003 -0.9631  2.1569
  447MOL0     H60290   3.529   7.985   6.426 -0.8517  0.1762 -0.1835
  447MOL0     H60291   3.496   8.147   6.504 -1.6907 -0.5960 -1.6924
  447MOL0     H60292   3.715   8.019   6.562 -0.4731  0.1210 -0.7145
  447MOL0     H60293   3.615   7.910   6.659  5.1689 -1.7357 -1.4032
  447MOL0     H60294   3.537   8.083   6.787 -1.6209 -5.2537 -2.5899
  447MOL0     H60295   3.713   8.045   6.797 -1.7239 -2.2965 -0.2246
  447MOL0     H60296   3.883   8.226   6.638 -0.5623 -1.2950 -1.0381
  447MOL0     H60297   3.926   8.536   6.721 -0.7834  4.7218 -0.7965
  447MOL0     H60298   3.950   8.428   6.578 -3.0343 -1.6428 -1.2266
  447MOL0     H60299   3.761   8.661   6.559 -0.7959 -0.6446 -2.2935
  447MOL0     H60300   3.938   8.694   6.520  0.0769  0.6178  0.4183
  447MOL0     H60301   3.770   8.498   6.374  0.5601 -0.0689  3.3743
  447MOL0     H60302   3.947   8.538   6.360  0.4266  0.1358 -2.0410
  447MOL0     H60303   3.824   8.639   6.189  3.6687 -2.3675  0.2752
  447MOL0     H60304   3.901   8.762   6.292 -0.1323  0.4348  1.8238
  447MOL0     H60305   3.797   8.937   6.158  0.2980 -1.3236 -0.4676
  447MOL0     H60306   3.669   9.134   6.079 -1.7493  2.2474  1.6923
  447MOL0     H60307   3.397   9.175   5.836 -0.5580 -0.5509 -0.9374
  447MOL0     H60308   3.294   9.299   5.639  1.0250 -2.2898  0.5985
  447MOL0     H60309   2.968   9.573   5.737 -0.9591 -0.3541  0.7788
  447MOL0     H60310   3.119   9.624   5.650 -2.4348  2.3983  0.6385
  447MOL0     H60311   2.858   9.543   5.501 -0.2961  0.6847 -1.1329
  447MOL0     H60312   2.932   9.700   5.528 -1.0244  0.5820 -0.1759
  447MOL0     H60313   3.142   9.588   5.422 -0.4875  0.4034  0.2567
  447MOL0     H60314   3.035   9.477   5.348  1.5890 -1.1191  1.2057
  447MOL0     H60315   3.019   9.798   5.339 -0.7769 -0.1057 -1.0465
  447MOL0     H60316   2.911   9.698   5.245  0.7045  0.1641 -1.3127
  447MOL0     H60317   3.210   9.700   5.232  0.1824 -0.7342 -0.7049
  447MOL0     H60318   3.090   9.799   5.127 -4.6025 -0.7893 -0.6526
  447MOL0     H60319   3.122   9.503   5.138 -2.4725 -0.1892  1.0206
  447MOL0     H60320   3.013   9.588   5.029  1.9348 -2.4182 -3.2243
  447MOL0     H60321   3.309   9.653   5.020 -2.1721  4.5383 -0.7872
  447MOL0     H60322   3.184   9.678   4.907 -0.4609  0.1992 -0.0423
  447MOL0     H60323   3.333   9.499   4.836 -1.4340  1.4594 -0.9190
  447MOL0     H60324   3.295   9.392   4.968  2.5575 -1.2705 -3.6248
  447MOL0     H60325   2.964   9.396   5.871  0.4407  1.5822  1.3466
  447MOL0     H60326   3.084   9.322   6.084 -0.9667  1.0992 -1.0209
  447MOL0     H60327   3.317   8.983   6.258  0.0895 -0.3510 -0.8806
  447MOL0     H60328   3.443   8.819   6.370 -2.3131  0.8678 -0.5991
  447MOL0     H60329   2.763   7.745   6.410 -1.0822 -1.1145  0.0309
  447MOL0     H60330   2.708   7.557   6.535  0.4961  0.6929 -1.5975
  447MOL0     H60331   2.580   7.172   6.543  1.3096  1.4639 -0.3043
  447MOL0     H60332   2.463   6.983   6.663 -1.0665  1.8552  1.6066
  447MOL0     H60333   2.469   6.743   6.674 -0.4614 -3.9198  0.3752
  447MOL0     H60334   2.380   6.824   6.813 -0.7825 -0.1655 -1.3960
  447MOL0     H60335   2.467   6.617   6.951 -0.2597  0.5663 -0.6113
  447MOL0     H60336   2.521   6.551   6.802 -1.2870  0.0412 -1.5775
  447MOL0     H60337   2.300   6.465   6.851 -0.7968 -0.5853 -0.5449
  447MOL0     H60338   2.286   6.577   6.712  1.2275  2.5138 -0.1672
  447MOL0     H60339   2.185   6.621   7.005 -0.6080  1.6761  0.1861
  447MOL0     H60340   2.171   6.743   6.870 -1.1033 -0.8042 -0.5164
  447MOL0     H60341   1.855   6.522   6.744  1.4697  1.6908 -1.5952
  447MOL0     H60342   2.826   6.922   6.875  1.7351  3.0511  0.2126
  447MOL0     H60343   2.992   7.056   6.884  0.7760 -0.6342 -0.5558
  447MOL0     H60344   3.032   7.142   6.730  0.4805 -1.0500 -0.6311
  447MOL0     H60345   2.940   7.229   6.847 -0.8687 -0.2297 -0.4320
  448MOL0     O60346   3.572   5.984   4.716  1.0231 -0.3279 -0.1734
  448MOL0     C60347   3.488   5.899   4.694  0.0339  0.5160 -0.6788
  448MOL0     O60348   3.498   5.769   4.736  0.8789  0.5361 -0.2851
  448MOL0     C60349   3.596   5.702   4.801  0.4385  0.1659 -0.2554
  448MOL0     C60350   3.713   5.661   4.737 -0.6332 -0.2502  0.0113
  448MOL0     C60351   3.817   5.618   4.811 -0.5008  0.1046  0.5021
  448MOL0     C60352   3.805   5.603   4.947  0.5354  0.5186  0.2958
  448MOL0     O60353   3.891   5.538   5.029  0.4817 -0.0251  0.2736
  448MOL0     C60354   4.017   5.500   4.983  0.3287 -1.3389  0.9287
  448MOL0     C60355   4.101   5.625   4.936  0.6603 -0.3800 -0.1670
  448MOL0     C60356   4.245   5.584   4.919  0.6462 -0.1093 -0.4191
  448MOL0     C60357   4.281   5.480   4.817  0.4231 -0.5728  0.5145
  448MOL0     C60358   4.431   5.454   4.817 -0.6897  0.9785 -0.1278
  448MOL0     C60359   4.465   5.328   4.737 -0.4294 -0.2553 -0.4392
  448MOL0     C60360   4.432   5.353   4.584  0.5776 -0.1353  0.9498
  448MOL0     C60361   4.519   5.457   4.502  0.0781  0.5298 -0.4494
  448MOL0     N60362   4.655   5.398   4.495  0.2746  0.0227 -0.7413
  448MOL0     C60363   4.711   5.354   4.378  1.3518  0.3167 -0.3462
  448MOL0     C60364   4.844   5.342   4.414  0.0555  0.1028  0.1968
  448MOL0     C60365   4.948   5.303   4.325  0.1180  0.9405  0.5013
  448MOL0     C60366   5.019   5.427   4.269  0.3220  0.1276  0.7167
  448MOL0     C60367   5.149   5.442   4.342  0.0837  0.8251 -0.4501
  448MOL0     C60368   5.229   5.548   4.261 -0.2574 -0.1339  0.8232
  448MOL0     O60369   5.363   5.561   4.329 -0.0841 -0.1334  1.1631
  448MOL0     C60370   5.457   5.652   4.284  0.5702  0.6740 -0.4364
  448MOL0     C60371   5.483   5.672   4.148 -0.2305 -0.7476 -0.4743
  448MOL0     C60372   5.599   5.753   4.115  0.3116  0.3844  0.0328
  448MOL0     C60373   5.676   5.815   4.214  0.1123 -0.0505 -0.8538
  448MOL0     C60374   5.790   5.898   4.177 -0.6483  0.0252  0.7620
  448MOL0     O60375   5.896   5.915   4.257  0.3486  0.3158  1.0600
  448MOL0     C60376   6.004   5.985   4.222 -0.1965  0.1098  1.0429
  448MOL0     C60377   6.127   5.916   4.208  0.0747  0.2180 -0.6846
  448MOL0     C60378   6.240   5.991   4.180 -0.0785 -0.0730 -0.7863
  448MOL0     C60379   6.237   6.132   4.167  0.4146 -0.2000 -0.2003
  448MOL0     O60380   6.351   6.191   4.117 -0.7459  0.0824 -0.0117
  448MOL0     C60381   6.359   6.327   4.065  0.3474  1.1815  0.0904
  448MOL0     C60382   6.505   6.358   4.031 -0.6475  0.6289 -0.0417
  448MOL0     C60383   6.518   6.475   3.948  1.6504 -1.8847  0.8291
  448MOL0     C60384   6.666   6.511   3.933 -0.6468 -0.2174  0.3032
  448MOL0     C60385   6.689   6.642   3.851  0.4002 -0.4463  0.4380
  448MOL0     C60386   6.631   6.644   3.710 -0.3692  0.5071  0.5862
  448MOL0     C60387   6.648   6.774   3.626 -0.2076  0.3911  0.4107
  448MOL0     C60388   6.618   6.736   3.477  0.0325 -0.2463 -0.0913
  448MOL0    Cl60389   6.580   6.858   3.365  0.5766 -0.3790 -0.1734
  448MOL0     C60390   6.111   6.201   4.178 -0.4930  0.8887 -0.4511
  448MOL0     C60391   5.996   6.129   4.204  0.2052  0.0029 -0.5905
  448MOL0     O60392   5.789   5.943   4.059  0.7928 -0.8007 -0.7542
  448MOL0     C60393   5.649   5.776   4.350 -1.0689 -0.0253  0.4618
  448MOL0     C60394   5.543   5.694   4.382  0.7373 -1.7892 -0.1004
  448MOL0     N60395   4.857   5.379   4.542 -0.1090  0.3386 -0.0940
  448MOL0     N60396   4.745   5.404   4.593 -0.4417  0.4538  1.4144
  448MOL0     C60397   3.701   5.655   5.016  0.1262  0.8072  0.7963
  448MOL0     C60398   3.589   5.695   4.945  0.3481  0.5676 -0.4703
  448MOL0     C60399   3.371   5.944   4.612  0.6065 -0.2524 -0.3522
  448MOL0     C60400   3.246   5.874   4.618 -0.7118 -0.7530 -0.2180
  448MOL0     C60401   3.125   5.916   4.559 -0.0042 -0.0331 -0.1723
  448MOL0     C60402   3.130   6.028   4.474 -0.4428 -0.2688 -0.5559
  448MOL0     O60403   3.014   6.056   4.407  0.2168  0.2558 -0.5529
  448MOL0     C60404   3.006   6.183   4.333  0.4755  0.7185 -0.2969
  448MOL0     C60405   2.866   6.198   4.264 -0.6602  0.3602 -0.2180
  448MOL0     C60406   2.806   6.068   4.206  0.1151  0.5940 -0.9618
  448MOL0     C60407   2.731   5.984   4.308 -0.7843 -0.0682  0.7955
  448MOL0     C60408   2.606   6.039   4.358 -0.2965 -1.0813  0.5641
  448MOL0     C60409   2.509   6.084   4.410  0.6468  1.5348 -0.5115
  448MOL0     C60410   3.256   6.097   4.454  0.1507 -0.3883  0.1507
  448MOL0     C60411   3.369   6.061   4.525 -1.0425 -0.4727 -0.2945
  448MOL0     C60412   3.493   6.149   4.508 -1.0003  0.7789 -0.0026
  448MOL0     H60413   3.723   5.690   4.633 -2.8648  0.3769 -0.0807
  448MOL0     H60414   3.886   5.569   4.744 -3.2321  0.4795 -2.9118
  448MOL0     H60415   4.065   5.456   5.071  0.6062 -1.0439  0.9262
  448MOL0     H60416   4.004   5.431   4.900 -2.6986 -0.6677  0.7017
  448MOL0     H60417   4.100   5.700   5.015 -1.8042  1.5614 -1.8991
  448MOL0     H60418   4.074   5.675   4.842  2.8977  2.1933  0.4236
  448MOL0     H60419   4.274   5.541   5.015  0.1665  0.3320 -0.0657
  448MOL0     H60420   4.312   5.670   4.905  2.2196 -1.5321 -2.2016
  448MOL0     H60421   4.228   5.389   4.844 -1.3100 -0.1170 -1.1296
  448MOL0     H60422   4.244   5.515   4.720  1.0968 -2.5439 -0.5008
  448MOL0     H60423   4.491   5.537   4.778 -0.6772  2.5133  2.8449
  448MOL0     H60424   4.462   5.445   4.921  0.6748  2.0225 -0.4188
  448MOL0     H60425   4.569   5.295   4.739 -0.9025 -2.1319 -2.5018
  448MOL0     H60426   4.403   5.249   4.782  2.1218  0.2799  4.9325
  448MOL0     H60427   4.329   5.390   4.579  1.1764  1.6324  0.9228
  448MOL0     H60428   4.444   5.260   4.527  3.7282  2.4529 -3.2742
  448MOL0     H60429   4.466   5.478   4.409 -1.3280  3.4678  0.8920
  448MOL0     H60430   4.527   5.552   4.555  2.6190  0.2577 -0.2261
  448MOL0     H60431   4.669   5.337   4.279 -0.0458  0.2558  0.2374
  448MOL0     H60432   5.020   5.239   4.377 -0.3161  0.5440  0.6249
  448MOL0     H60433   4.908   5.253   4.236 -0.2201 -0.8208  1.5842
  448MOL0     H60434   5.048   5.413   4.165  2.3926  3.9553  0.6095
  448MOL0     H60435   4.948   5.510   4.281 -0.9215 -0.6574 -0.7997
  448MOL0     H60436   5.208   5.350   4.346  3.6382  2.9750  0.5982
  448MOL0     H60437   5.140   5.495   4.437 -1.3050  2.2812 -1.3540
  448MOL0     H60438   5.180   5.645   4.249  0.8755  0.4174  0.4937
  448MOL0     H60439   5.237   5.513   4.158 -3.0619  1.3631 -0.0126
  448MOL0     H60440   5.424   5.634   4.065 -0.0835  0.1187 -0.9928
  448MOL0     H60441   5.610   5.764   4.007 -0.2525 -0.0638 -0.0748
  448MOL0     H60442   6.138   5.810   4.230  2.0798  0.0093 -2.3650
  448MOL0     H60443   6.337   5.942   4.176  0.1409  0.3512 -0.7587
  448MOL0     H60444   6.299   6.325   3.973 -0.5767 -1.6819  0.6619
  448MOL0     H60445   6.316   6.401   4.134 -2.6987  1.2163 -1.6555
  448MOL0     H60446   6.568   6.371   4.119  3.9856 -3.5204 -2.2741
  448MOL0     H60447   6.543   6.266   3.986  0.7984  0.9388  0.5167
  448MOL0     H60448   6.487   6.446   3.848  1.5195 -1.5134  0.7616
  448MOL0     H60449   6.448   6.549   3.990  1.4625 -1.7217  0.2289
  448MOL0     H60450   6.714   6.437   3.868 -4.2968  0.7272 -4.0366
  448MOL0     H60451   6.708   6.522   4.033  0.0825  0.9856 -0.1143
  448MOL0     H60452   6.795   6.666   3.839  0.3846 -0.9087 -0.7775
  448MOL0     H60453   6.635   6.709   3.919 -0.1088 -4.4161  4.3759
  448MOL0     H60454   6.681   6.565   3.654  1.6164  1.9386  0.2311
  448MOL0     H60455   6.522   6.634   3.712 -0.1205 -3.1664  2.5190
  448MOL0     H60456   6.750   6.814   3.634 -1.1646  2.8966  1.1221
  448MOL0     H60457   6.575   6.852   3.650  0.5652  2.7125 -3.7362
  448MOL0     H60458   6.709   6.686   3.441  1.7064  0.8672  2.2658
  448MOL0     H60459   6.544   6.656   3.469 -1.0261  0.8576 -1.8586
  448MOL0     H60460   6.098   6.308   4.164 -0.4306  0.9501 -0.0376
  448MOL0     H60461   5.902   6.184   4.206  1.2045  1.8701  2.9025
  448MOL0     H60462   5.725   5.811   4.420 -0.3566  0.9569 -0.7632
  448MOL0     H60463   5.520   5.665   4.484 -2.6671  0.5965 -0.0238
  448MOL0     H60464   3.693   5.649   5.124 -0.7607  1.9598  0.8145
  448MOL0     H60465   3.492   5.716   4.990  0.9671  1.3814  0.5120
  448MOL0     H60466   3.231   5.791   4.686 -0.9292 -2.4266 -2.2147
  448MOL0     H60467   3.032   5.862   4.570 -1.8917  2.9326 -0.5142
  448MOL0     H60468   3.070   6.177   4.245 -0.5965  1.7288 -1.1709
  448MOL0     H60469   3.028   6.278   4.383  2.6364  0.1090  0.0204
  448MOL0     H60470   2.856   6.285   4.198 -0.8437  0.7246  0.2845
  448MOL0     H60471   2.793   6.238   4.335 -1.0294 -1.6700  0.6213
  448MOL0     H60472   2.889   6.006   4.170  1.0687  0.3161  1.4718
  448MOL0     H60473   2.743   6.090   4.119  2.4323  0.3846 -2.7877
  448MOL0     H60474   2.715   5.892   4.252  0.1118  0.3352 -0.1415
  448MOL0     H60475   2.793   5.940   4.387  1.6220  1.2115 -0.2660
  448MOL0     H60476   2.423   6.114   4.466  1.4676 -0.8857  2.2605
  448MOL0     H60477   3.253   6.187   4.393 -0.1735 -1.0390 -0.8217
  448MOL0     H60478   3.499   6.208   4.416 -1.1437  0.0367 -0.4973
  448MOL0     H60479   3.497   6.207   4.600  0.0567  0.5820  0.0830
  448MOL0     H60480   3.582   6.087   4.499 -0.5095  1.6112 -1.1097
  449MOL0     O60481   2.615   3.851  11.491  0.0009 -0.0176 -0.5906
  449MOL0     C60482   2.708   3.901  11.424  0.6701  0.7551 -0.2666
  449MOL0     O60483   2.812   3.820  11.378 -0.8366 -0.3083  0.9013
  449MOL0     C60484   2.827   3.688  11.422 -0.4110  1.0357 -0.2462
  449MOL0     C60485   2.919   3.645  11.517  0.1741 -0.8242 -0.6986
  449MOL0     C60486   2.895   3.519  11.578  0.8076  0.2425 -0.5693
  449MOL0     C60487   2.800   3.426  11.538  0.3161  0.9223  1.1231
  449MOL0     O60488   2.791   3.298  11.592  0.2667  0.6621  0.0289
  449MOL0     C60489   2.917   3.229  11.595  0.4597 -0.8496 -0.3733
  449MOL0     C60490   2.897   3.081  11.617  0.0113  0.1517 -0.8940
  449MOL0     C60491   3.040   3.024  11.622 -0.6825  0.2661 -0.8921
  449MOL0     C60492   3.049   2.886  11.684  0.3238  0.9228 -0.0064
  449MOL0     C60493   2.987   2.772  11.587 -0.2075  1.0120 -0.3690
  449MOL0     C60494   3.002   2.627  11.649  0.0083 -0.9751  0.1396
  449MOL0     C60495   2.938   2.523  11.557 -0.1286  0.6019 -0.7565
  449MOL0     C60496   2.985   2.383  11.604 -0.8179  0.6178 -0.6767
  449MOL0     N60497   2.918   2.282  11.522  0.7315  0.1057 -0.2826
  449MOL0     C60498   2.902   2.157  11.578  0.4935  0.8453  0.5115
  449MOL0     C60499   2.863   2.077  11.468 -0.4387 -0.8100 -0.0002
  449MOL0     C60500   2.834   1.930  11.456 -0.9180 -0.4996 -0.6803
  449MOL0     C60501   2.697   1.884  11.510  0.3321 -0.3246 -0.2641
  449MOL0     C60502   2.684   1.885  11.668 -0.8172 -0.2332 -0.4352
  449MOL0     C60503   2.564   1.797  11.711 -0.4515 -0.1592  1.3969
  449MOL0     O60504   2.618   1.664  11.713  0.6059 -0.4275  0.5362
  449MOL0     C60505   2.563   1.574  11.801 -0.3667 -0.0247  0.3466
  449MOL0     C60506   2.430   1.583  11.840  1.0999 -0.4033 -0.5692
  449MOL0     C60507   2.379   1.482  11.916  0.1896  1.3523 -0.0049
  449MOL0     C60508   2.450   1.359  11.940 -0.2184  0.4621 -0.6175
  449MOL0     C60509   2.391   1.247  12.018  0.1715 -0.5473  0.0355
  449MOL0     O60510   2.259   1.241  12.028 -0.0146 -0.2837 -0.2717
  449MOL0     C60511   2.207   1.138  12.105 -0.1115  0.7201 -0.8862
  449MOL0     C60512   2.141   1.030  12.055 -0.7553 -0.2363 -0.1474
  449MOL0     C60513   2.067   0.938  12.131  0.4149  0.5556  0.1500
  449MOL0     C60514   2.085   0.955  12.270  0.0324  1.2912  0.4118
  449MOL0     O60515   2.020   0.856  12.342  0.0096  0.1555  0.3212
  449MOL0     C60516   2.038   0.843  12.485 -0.3649  0.2217  0.0430
  449MOL0     C60517   1.920   0.764  12.539  0.0545  1.2642 -0.0311
  449MOL0     C60518   1.932   0.605  12.509 -0.0498 -0.0119  0.1801
  449MOL0     C60519   1.926   0.559  12.363 -0.6133  0.0947 -0.2714
  449MOL0     C60520   1.959   0.412  12.337 -0.5820  0.6703  0.7109
  449MOL0     C60521   1.869   0.323  12.417  1.4988  0.4107  0.1817
  449MOL0     C60522   1.883   0.178  12.361  0.5312 -0.6929 -0.0099
  449MOL0     C60523   1.809   0.077  12.453 -0.2062  0.6789 -0.4060
  449MOL0    Cl60524   1.635   0.099  12.426  0.3377 -0.1023 -0.5584
  449MOL0     C60525   2.151   1.062  12.334 -0.6407 -0.3022 -0.1178
  449MOL0     C60526   2.218   1.151  12.250 -0.2818 -0.2736 -0.3806
  449MOL0     O60527   2.467   1.165  12.056  0.0452 -0.3294  0.1399
  449MOL0     C60528   2.583   1.355  11.898  0.9858 -0.2191 -0.7187
  449MOL0     C60529   2.645   1.462  11.829 -0.9908 -0.1239 -0.2299
  449MOL0     N60530   2.877   2.159  11.353 -0.3080  0.1428 -0.1039
  449MOL0     N60531   2.912   2.277  11.383 -0.4159  0.2740 -0.0597
  449MOL0     C60532   2.712   3.465  11.439  0.7956  0.9440 -0.6657
  449MOL0     C60533   2.725   3.602  11.388  0.4581  0.9380  0.5628
  449MOL0     C60534   2.714   4.051  11.399 -0.4052  0.7548 -0.7510
  449MOL0     C60535   2.647   4.130  11.487  0.6324 -0.2904  0.2327
  449MOL0     C60536   2.642   4.274  11.467 -0.5264 -0.0460 -0.5589
  449MOL0     C60537   2.700   4.329  11.355 -0.2143 -0.0379  0.7296
  449MOL0     O60538   2.687   4.465  11.323  0.2915  0.0108  0.0231
  449MOL0     C60539   2.644   4.553  11.428  0.1909  0.2663 -0.4569
  449MOL0     C60540   2.677   4.701  11.390  0.6158  0.0495 -0.2213
  449MOL0     C60541   2.607   4.796  11.485  0.7798 -0.3353 -0.3068
  449MOL0     C60542   2.626   4.938  11.453  0.0850  0.5217  0.0044
  449MOL0     C60543   2.527   5.021  11.527  0.4471  0.5229  0.0425
  449MOL0     C60544   2.448   5.103  11.559 -0.1484  0.6110  0.2136
  449MOL0     C60545   2.770   4.250  11.269  0.0142 -0.2420  0.9323
  449MOL0     C60546   2.774   4.107  11.284 -0.2513 -0.3150  0.4500
  449MOL0     C60547   2.833   4.023  11.166  0.1274  0.8935 -0.9654
  449MOL0     H60548   2.983   3.729  11.543 -0.7889 -0.4344  0.5368
  449MOL0     H60549   2.959   3.503  11.665 -2.2425 -1.3908  1.5628
  449MOL0     H60550   2.969   3.244  11.499 -0.7298 -0.5401 -0.9880
  449MOL0     H60551   2.968   3.286  11.673 -1.9067  3.7368 -1.7946
  449MOL0     H60552   2.845   3.038  11.531 -4.4647  0.4701  1.3810
  449MOL0     H60553   2.840   3.054  11.706  1.6099 -2.4953 -0.5610
  449MOL0     H60554   3.112   3.091  11.669  0.1060 -1.7237  0.8573
  449MOL0     H60555   3.084   3.024  11.522  4.7737  0.4108  1.1970
  449MOL0     H60556   3.141   2.849  11.728 -1.0907  0.6277  2.9215
  449MOL0     H60557   2.994   2.878  11.778  3.9733 -4.2580  2.1897
  449MOL0     H60558   2.884   2.802  11.569 -0.7366 -1.4913 -2.1574
  449MOL0     H60559   3.037   2.767  11.490  4.8447 -0.4277  1.9634
  449MOL0     H60560   3.106   2.595  11.657  0.4669  0.6400  1.1251
  449MOL0     H60561   2.953   2.627  11.747 -0.4747 -1.0378 -0.0989
  449MOL0     H60562   2.963   2.532  11.450 -0.5669  2.6957 -0.7223
  449MOL0     H60563   2.829   2.524  11.570 -0.2787 -2.1109 -1.2382
  449MOL0     H60564   3.091   2.362  11.589 -0.4454 -2.9951  4.4935
  449MOL0     H60565   2.951   2.363  11.706  0.6794 -1.6600 -0.5609
  449MOL0     H60566   2.913   2.133  11.683  2.2179  1.6566  0.5467
  449MOL0     H60567   2.858   1.902  11.353  1.6805  5.4729 -2.1395
  449MOL0     H60568   2.924   1.887  11.502 -0.4453 -0.6025 -1.6644
  449MOL0     H60569   2.618   1.952  11.476 -2.1399 -2.4264  0.9458
  449MOL0     H60570   2.682   1.783  11.470  1.8841 -1.0315  0.8595
  449MOL0     H60571   2.668   1.985  11.710 -2.3465 -0.5155 -0.2892
  449MOL0     H60572   2.776   1.840  11.707  0.7964  1.6392 -1.8594
  449MOL0     H60573   2.479   1.804  11.642  0.7966 -1.5375 -0.3615
  449MOL0     H60574   2.530   1.835  11.808 -0.7654 -0.0263  1.2377
  449MOL0     H60575   2.367   1.661  11.797 -1.2880 -1.0700  1.4859
  449MOL0     H60576   2.275   1.500  11.942  0.1847  0.7562  0.4140
  449MOL0     H60577   2.146   1.033  11.947 -2.3440  0.0939 -0.2400
  449MOL0     H60578   2.025   0.855  12.075  0.0906  2.4895 -2.7077
  449MOL0     H60579   2.134   0.790  12.485 -1.7666 -2.4993 -0.9576
  449MOL0     H60580   2.042   0.940  12.534  1.8362  0.1475  0.0986
  449MOL0     H60581   1.928   0.787  12.646 -1.9706  1.1127  0.2063
  449MOL0     H60582   1.825   0.805  12.503 -0.4228  1.7197  1.6669
  449MOL0     H60583   2.029   0.573  12.548  1.2486  2.5356 -0.6791
  449MOL0     H60584   1.855   0.547  12.561  3.0356 -2.7583  2.0332
  449MOL0     H60585   1.987   0.612  12.289  3.1170 -2.4877  0.7149
  449MOL0     H60586   1.821   0.562  12.330 -0.0218  1.0048 -2.2513
  449MOL0     H60587   2.060   0.377  12.360 -2.4264 -3.6118  3.3788
  449MOL0     H60588   1.949   0.401  12.229 -0.5819  3.6079  0.3336
  449MOL0     H60589   1.878   0.325  12.526  1.1386 -1.3986  0.2835
  449MOL0     H60590   1.766   0.355  12.395  1.7004 -0.7357 -2.9461
  449MOL0     H60591   1.986   0.145  12.372  1.1260  1.3086  0.7675
  449MOL0     H60592   1.844   0.169  12.259  1.6306  0.7328 -0.5916
  449MOL0     H60593   1.841  -0.027  12.440 -0.6398  0.4264  0.4721
  449MOL0     H60594   1.823   0.105  12.558  0.2760 -0.5668 -0.1150
  449MOL0     H60595   2.148   1.078  12.441 -2.6084 -1.8410  0.1160
  449MOL0     H60596   2.280   1.230  12.292  0.9863 -1.6529  0.4340
  449MOL0     H60597   2.645   1.267  11.916  1.7282  0.5925  0.9077
  449MOL0     H60598   2.745   1.454  11.788 -0.8725 -1.9626  0.3174
  449MOL0     H60599   2.637   3.391  11.412  2.5073 -2.1583  2.2573
  449MOL0     H60600   2.666   3.632  11.302  2.4454 -0.6551 -1.4600
  449MOL0     H60601   2.597   4.092  11.576  0.3986  3.7580  2.0520
  449MOL0     H60602   2.599   4.333  11.547  0.7394  1.6449 -1.0579
  449MOL0     H60603   2.697   4.529  11.521  1.5311 -1.1877 -1.5442
  449MOL0     H60604   2.539   4.541  11.456  0.4304  0.2975  0.5015
  449MOL0     H60605   2.648   4.724  11.287 -1.1473 -0.3104  0.1493
  449MOL0     H60606   2.785   4.713  11.401  0.9578 -2.4207 -0.2370
  449MOL0     H60607   2.631   4.776  11.590  3.2659 -2.8718 -1.2435
  449MOL0     H60608   2.503   4.762  11.475  1.5607 -2.9904 -0.3285
  449MOL0     H60609   2.727   4.968  11.482 -1.0055  3.4725  1.2505
  449MOL0     H60610   2.620   4.952  11.345 -0.5630  2.7861  0.2711
  449MOL0     H60611   2.382   5.188  11.560  1.0942  1.8259 -3.8264
  449MOL0     H60612   2.818   4.299  11.185  1.8846 -0.1131  2.0132
  449MOL0     H60613   2.848   4.086  11.078  1.0160 -0.2345 -1.6438
  449MOL0     H60614   2.932   3.980  11.183 -0.6168 -0.2165  0.8067
  449MOL0     H60615   2.751   3.955  11.143 -0.9840  1.3205  1.3841
  450MOL0     O60616  10.967   7.687   6.171 -0.5923 -0.2352 -1.0184
  450MOL0     C60617  11.083   7.654   6.194  1.2588 -0.3963 -0.1245
  450MOL0     O60618  11.191   7.673   6.111 -0.6098 -0.6272  0.1163
  450MOL0     C60619  11.178   7.764   6.012 -0.2014 -0.3341 -1.2698
  450MOL0     C60620  11.139   7.892   6.038 -0.1225 -1.1045 -0.1114
  450MOL0     C60621  11.116   7.978   5.937  0.0454 -0.5260 -0.5796
  450MOL0     C60622  11.141   7.938   5.797 -0.7132  1.2468  0.1092
  450MOL0     O60623  11.103   8.028   5.695 -0.4286  0.4841  0.4010
  450MOL0     C60624  11.030   8.151   5.736 -0.3665  0.6825  0.4224
  450MOL0     C60625  10.998   8.218   5.602 -0.3405 -0.2390 -0.1517
  450MOL0     C60626  10.926   8.122   5.506 -0.6217 -1.0108  0.0373
  450MOL0     C60627  10.874   8.179   5.366 -0.5327 -0.2682 -0.5127
  450MOL0     C60628  10.834   8.047   5.285  0.4475 -1.2644 -0.6382
  450MOL0     C60629  10.777   8.077   5.146 -0.1507  0.0534  0.4924
  450MOL0     C60630  10.879   8.157   5.059  0.9610 -0.8443 -0.2707
  450MOL0     C60631  10.844   8.135   4.910  0.4715 -0.0155  0.2093
  450MOL0     N60632  10.868   8.007   4.852  0.5163 -0.7641  0.6806
  450MOL0     C60633  10.973   7.976   4.768 -0.0731  0.6117 -0.0479
  450MOL0     C60634  10.955   7.850   4.726 -0.0664 -0.2091 -0.8313
  450MOL0     C60635  11.038   7.791   4.616 -0.6902  0.4592 -0.4367
  450MOL0     C60636  11.178   7.747   4.661 -0.8775 -0.8599 -0.2172
  450MOL0     C60637  11.272   7.837   4.749  0.1904 -0.5668 -0.2097
  450MOL0     C60638  11.414   7.782   4.759 -0.4033  0.9325 -0.8471
  450MOL0     O60639  11.464   7.671   4.674  0.2486  0.0804  0.1696
  450MOL0     C60640  11.593   7.636   4.677 -0.8510 -1.7352 -1.0234
  450MOL0     C60641  11.694   7.674   4.758  0.5138 -0.7705  1.4498
  450MOL0     C60642  11.827   7.631   4.750 -0.0552  0.6128  0.7476
  450MOL0     C60643  11.865   7.561   4.627  0.1787 -0.0686 -0.8189
  450MOL0     C60644  12.006   7.517   4.604 -0.5667 -0.1388 -0.9510
  450MOL0     O60645  12.087   7.539   4.715 -0.2355  0.6130 -0.9736
  450MOL0     C60646  12.219   7.499   4.730 -0.2645  0.3336 -0.6187
  450MOL0     C60647  12.319   7.456   4.637 -0.5425  0.6699  0.4169
  450MOL0     C60648  12.438   7.412   4.681 -0.6419  0.4687 -0.0153
  450MOL0     C60649  12.478   7.410   4.818 -0.2269  0.6294 -1.4216
  450MOL0     O60650  12.610   7.377   4.852 -0.2252  0.1028 -0.4557
  450MOL0     C60651  12.631   7.318   4.981  0.4388  0.0623  1.0209
  450MOL0     C60652  12.768   7.244   4.996  0.7044 -0.7592  0.1509
  450MOL0     C60653  12.764   7.101   4.937 -0.2231 -0.9623 -0.0705
  450MOL0     C60654  12.903   7.024   4.944  0.7816  0.0535 -0.3200
  450MOL0     C60655  12.934   6.949   4.803 -0.2089 -0.3629  0.1512
  450MOL0     C60656  12.820   6.840   4.768 -1.5157  0.2221  0.6141
  450MOL0     C60657  12.837   6.795   4.625  1.0785  0.1426  0.2465
  450MOL0     C60658  12.732   6.687   4.582 -0.1580 -0.4327  0.9641
  450MOL0    Cl60659  12.565   6.741   4.646 -0.2440  0.6724  0.5281
  450MOL0     C60660  12.379   7.446   4.909 -0.7029 -0.4904 -0.5780
  450MOL0     C60661  12.261   7.490   4.860  0.2248  0.5544  0.4701
  450MOL0     O60662  12.051   7.475   4.498 -0.5683 -0.2300 -0.1214
  450MOL0     C60663  11.768   7.522   4.538  0.3592  0.2518  0.2343
  450MOL0     C60664  11.632   7.560   4.562 -0.2212 -0.1450 -0.0670
  450MOL0     N60665  10.831   7.811   4.778 -0.1701 -0.1409 -0.1955
  450MOL0     N60666  10.789   7.902   4.858  0.1517 -0.2432 -0.0199
  450MOL0     C60667  11.191   7.808   5.769  0.3867  0.0152 -0.1143
  450MOL0     C60668  11.212   7.720   5.882  0.5762  0.2833 -0.4303
  450MOL0     C60669  11.103   7.578   6.322  0.3094  0.5030  0.2170
  450MOL0     C60670  11.235   7.566   6.370 -0.0801  0.2628  0.4029
  450MOL0     C60671  11.274   7.530   6.498 -0.3155 -0.8379  0.3216
  450MOL0     C60672  11.185   7.487   6.590  0.1789  0.1305 -1.1665
  450MOL0     O60673  11.233   7.434   6.708 -0.3386  0.0660  0.1541
  450MOL0     C60674  11.153   7.378   6.808 -0.3224 -0.0127  0.7404
  450MOL0     C60675  11.220   7.269   6.883 -0.8010 -0.3796  0.1787
  450MOL0     C60676  11.138   7.233   7.009 -0.7870  0.3747 -0.5310
  450MOL0     C60677  11.215   7.115   7.079  0.0527  0.1690  0.3894
  450MOL0     C60678  11.316   7.179   7.158 -0.5404  1.0488 -1.1787
  450MOL0     C60679  11.416   7.241   7.205 -0.1622 -0.2373  0.0304
  450MOL0     C60680  11.044   7.498   6.551 -0.5282  0.8266 -0.7904
  450MOL0     C60681  11.011   7.548   6.422 -0.8160 -0.8468 -0.8292
  450MOL0     C60682  10.865   7.570   6.412 -0.8231 -1.2403  0.3885
  450MOL0     H60683  11.121   7.924   6.140  0.2083  0.2752 -0.4602
  450MOL0     H60684  11.090   8.078   5.971 -2.6976 -1.4168  0.1075
  450MOL0     H60685  10.941   8.126   5.794  1.0556  1.2511  2.9841
  450MOL0     H60686  11.092   8.217   5.797 -0.6898  0.4654  0.9872
  450MOL0     H60687  11.086   8.263   5.555  0.3509 -0.6193  0.7572
  450MOL0     H60688  10.932   8.303   5.620 -2.6474 -1.4449 -2.2344
  450MOL0     H60689  10.848   8.066   5.558 -0.4868 -1.5864 -0.3665
  450MOL0     H60690  10.997   8.044   5.479  1.0152  0.6894 -0.7822
  450MOL0     H60691  10.787   8.246   5.361  0.6999  1.3300 -2.1542
  450MOL0     H60692  10.951   8.236   5.312 -0.7686  0.3856 -0.1691
  450MOL0     H60693  10.918   7.978   5.273 -0.0823 -1.7978 -1.4218
  450MOL0     H60694  10.762   7.991   5.346 -1.1641 -2.3797 -3.3187
  450MOL0     H60695  10.761   7.976   5.106 -0.0782 -1.8020  4.6265
  450MOL0     H60696  10.679   8.123   5.158 -1.7477 -3.2377  1.1355
  450MOL0     H60697  10.983   8.126   5.075  0.6742 -1.0203  1.3876
  450MOL0     H60698  10.859   8.262   5.082 -0.1058 -1.0987 -0.0015
  450MOL0     H60699  10.735   8.147   4.907  0.3960 -0.9483 -1.6208
  450MOL0     H60700  10.889   8.221   4.859 -0.7979  0.3188 -0.4034
  450MOL0     H60701  11.057   8.039   4.739  3.8513 -3.3556  1.5306
  450MOL0     H60702  10.981   7.710   4.570 -1.9405  1.6029 -0.9839
  450MOL0     H60703  11.055   7.856   4.529  2.4991 -0.8874 -0.9662
  450MOL0     H60704  11.169   7.645   4.699  0.1357 -2.2141 -3.2841
  450MOL0     H60705  11.228   7.745   4.564  3.1080  1.7047  1.5223
  450MOL0     H60706  11.225   7.832   4.848 -1.3301  1.9536 -0.7110
  450MOL0     H60707  11.269   7.944   4.727 -3.7466 -0.3684  0.4149
  450MOL0     H60708  11.438   7.743   4.858  1.3416 -1.0786 -1.9665
  450MOL0     H60709  11.475   7.868   4.730  1.7937  0.7755  2.7297
  450MOL0     H60710  11.666   7.732   4.846  3.4139 -0.4148  2.2597
  450MOL0     H60711  11.900   7.650   4.828 -1.0550  1.1094  1.5899
  450MOL0     H60712  12.297   7.481   4.533 -0.2005  2.0820  0.6650
  450MOL0     H60713  12.517   7.395   4.608 -1.1564 -0.2143 -0.4270
  450MOL0     H60714  12.636   7.390   5.063  2.3486 -0.7759  1.7206
  450MOL0     H60715  12.554   7.242   4.995  0.1762  0.3259  0.9925
  450MOL0     H60716  12.848   7.310   4.961  0.3074 -0.3737 -0.0345
  450MOL0     H60717  12.801   7.234   5.100  2.5148 -0.3371 -0.3372
  450MOL0     H60718  12.683   7.046   4.986 -0.2334 -0.6031  0.3209
  450MOL0     H60719  12.737   7.110   4.831  0.8154 -1.6697 -0.4120
  450MOL0     H60720  12.904   6.954   5.028 -0.8658  1.2809  0.7910
  450MOL0     H60721  12.981   7.092   4.981 -0.0061  0.4479  0.6590
  450MOL0     H60722  13.032   6.899   4.811 -1.3032 -2.2500  3.8474
  450MOL0     H60723  12.934   7.039   4.740  3.9902 -0.0086  0.3591
  450MOL0     H60724  12.834   6.747   4.825 -1.7414  0.1814  0.6050
  450MOL0     H60725  12.720   6.879   4.788 -2.2238  0.7874 -3.2594
  450MOL0     H60726  12.937   6.752   4.618  0.5191 -2.1586  3.8958
  450MOL0     H60727  12.822   6.880   4.557  1.0864 -0.3465 -0.3791
  450MOL0     H60728  12.746   6.675   4.474 -0.5055 -0.8013  0.9541
  450MOL0     H60729  12.754   6.588   4.623  0.3883 -0.2516  1.1144
  450MOL0     H60730  12.404   7.445   5.015 -2.8750 -1.0724 -0.0175
  450MOL0     H60731  12.179   7.504   4.930  3.1809  1.2594  4.0689
  450MOL0     H60732  11.805   7.453   4.462 -0.7570 -1.1118  0.8737
  450MOL0     H60733  11.569   7.516   4.486  4.2480 -1.8869 -3.1788
  450MOL0     H60734  11.213   7.771   5.669  0.6891  1.0106 -0.4259
  450MOL0     H60735  11.245   7.619   5.862  0.1617  0.4754 -2.2872
  450MOL0     H60736  11.323   7.590   6.313  2.1626  0.9323  3.8188
  450MOL0     H60737  11.377   7.535   6.530 -0.8266  0.0150  1.9062
  450MOL0     H60738  11.070   7.338   6.749  1.3203 -1.7402 -0.5462
  450MOL0     H60739  11.145   7.466   6.872  5.5410  0.0337  1.9502
  450MOL0     H60740  11.319   7.305   6.912  0.0260 -1.1851 -1.4860
  450MOL0     H60741  11.241   7.192   6.807  1.8653 -0.8346  1.2525
  450MOL0     H60742  11.037   7.203   6.977 -0.5141 -0.5947 -0.5346
  450MOL0     H60743  11.126   7.322   7.071 -1.2891  0.9573 -1.4418
  450MOL0     H60744  11.161   7.062   7.157 -1.6776  0.6333 -0.4267
  450MOL0     H60745  11.248   7.043   7.004 -1.3785 -1.4073  1.2209
  450MOL0     H60746  11.497   7.292   7.254  1.1942 -0.1015 -2.2320
  450MOL0     H60747  10.971   7.470   6.626  3.0654 -0.2653  2.6162
  450MOL0     H60748  10.846   7.674   6.385  3.2327 -1.0733 -2.6818
  450MOL0     H60749  10.832   7.511   6.327  1.7010  0.2916 -1.8033
  450MOL0     H60750  10.815   7.545   6.506  0.7503  0.4081  1.7392
  451MOL0     O60751   1.103   8.960   8.579  0.2970 -0.1165 -0.3079
  451MOL0     C60752   0.986   8.990   8.605 -0.7744  0.4724 -0.4016
  451MOL0     O60753   0.892   9.025   8.511  0.2982  0.6753  0.9202
  451MOL0     C60754   0.923   9.056   8.376  0.1168 -0.2654 -1.2588
  451MOL0     C60755   0.817   9.065   8.296 -0.4764 -0.7312  0.5797
  451MOL0     C60756   0.831   9.077   8.157 -0.0762 -0.7485  0.0172
  451MOL0     C60757   0.952   9.118   8.100 -0.5788 -0.0608 -0.6295
  451MOL0     O60758   0.959   9.152   7.965 -0.1385  0.6670  0.3128
  451MOL0     C60759   1.085   9.168   7.895  0.0152 -1.3755  1.0523
  451MOL0     C60760   1.071   9.143   7.750 -0.4244  0.4321  1.0697
  451MOL0     C60761   1.047   8.992   7.726  0.4559  0.2539  0.3538
  451MOL0     C60762   1.037   8.945   7.575 -0.9418  0.0246  0.0264
  451MOL0     C60763   1.171   8.884   7.537  0.2491  0.7701  0.0967
  451MOL0     C60764   1.278   8.988   7.489  1.1694 -0.5947  1.0827
  451MOL0     C60765   1.406   8.909   7.455 -0.1134  0.5155 -0.1299
  451MOL0     C60766   1.511   9.001   7.399 -0.5572  0.1240  0.3467
  451MOL0     N60767   1.611   9.032   7.490  0.3706  0.7953 -0.0257
  451MOL0     C60768   1.722   9.103   7.464 -0.2052 -0.1127  0.2093
  451MOL0     C60769   1.795   9.093   7.583 -0.0379  0.5204 -0.5712
  451MOL0     C60770   1.932   9.151   7.628  0.4878  0.0322  1.1388
  451MOL0     C60771   1.928   9.229   7.755  0.0189  0.2309 -0.6661
  451MOL0     C60772   1.825   9.342   7.745  1.0151  0.0069 -0.4394
  451MOL0     C60773   1.828   9.452   7.861 -0.8148  0.4243  0.0475
  451MOL0     O60774   1.958   9.511   7.866 -0.1084 -0.3216 -0.1538
  451MOL0     C60775   1.978   9.645   7.832 -0.0526 -0.3739 -1.0258
  451MOL0     C60776   1.874   9.719   7.775 -0.0114  0.0333 -1.2153
  451MOL0     C60777   1.896   9.845   7.734  1.0056 -0.3721  0.1333
  451MOL0     C60778   2.020   9.905   7.744  0.2395  0.1589  1.5681
  451MOL0     C60779   2.050  10.039   7.697  0.5661  0.3804  0.5648
  451MOL0     O60780   2.182  10.069   7.682 -0.1465 -0.1853 -0.7457
  451MOL0     C60781   2.217  10.205   7.671 -0.2198  0.1649 -0.1341
  451MOL0     C60782   2.274  10.262   7.787 -0.2838  0.7210  0.6066
  451MOL0     C60783   2.332  10.383   7.780  1.3341  0.0027  0.1370
  451MOL0     C60784   2.323  10.462   7.661 -0.4799 -0.3634  1.1403
  451MOL0     O60785   2.398  10.576   7.647 -0.2862  1.0074  0.7014
  451MOL0     C60786   2.397  10.670   7.759 -0.4545  0.1402 -0.4243
  451MOL0     C60787   2.537  10.666   7.822  0.9298 -0.3192 -0.7413
  451MOL0     C60788   2.658  10.709   7.734  0.5056 -0.1997 -0.2335
  451MOL0     C60789   2.792  10.663   7.798  0.1038  0.3724  1.1574
  451MOL0     C60790   2.838  10.525   7.741 -0.6534 -0.5145  0.4349
  451MOL0     C60791   2.756  10.408   7.790 -0.5341  1.1965 -0.3541
  451MOL0     C60792   2.841  10.276   7.764  0.1468  1.5530  1.1698
  451MOL0     C60793   2.798  10.156   7.859 -0.0254 -0.3343  0.4805
  451MOL0    Cl60794   2.628  10.094   7.833 -0.2808  0.1324 -0.2924
  451MOL0     C60795   2.263  10.397   7.550  0.5714 -0.2295  0.0662
  451MOL0     C60796   2.214  10.273   7.552 -0.0349  0.1688 -0.3748
  451MOL0     O60797   1.951  10.110   7.676  0.4645  0.3553 -0.4498
  451MOL0     C60798   2.124   9.836   7.797 -0.3445 -0.0182 -0.0039
  451MOL0     C60799   2.110   9.707   7.841  0.1795  0.2878  0.4867
  451MOL0     N60800   1.725   9.015   7.665  0.4997  0.0989 -0.5574
  451MOL0     N60801   1.616   8.981   7.608 -0.8649  0.1983  0.0570
  451MOL0     C60802   1.068   9.107   8.183 -0.2513  0.2232  0.3946
  451MOL0     C60803   1.051   9.083   8.324  1.1926 -0.1884 -0.5183
  451MOL0     C60804   0.937   8.979   8.751  0.6518  0.0873 -0.6114
  451MOL0     C60805   0.811   9.044   8.769  0.1556  0.8404  0.4025
  451MOL0     C60806   0.749   9.032   8.892 -0.6632 -0.7778  0.2185
  451MOL0     C60807   0.798   8.972   9.005  0.4536 -0.2369 -0.9085
  451MOL0     O60808   0.730   8.968   9.127  0.2244 -0.0782 -0.5436
  451MOL0     C60809   0.629   9.066   9.153 -0.1792  0.0866 -0.3769
  451MOL0     C60810   0.496   8.983   9.122 -0.3406 -0.5057  0.1622
  451MOL0     C60811   0.475   8.882   9.236 -0.1660  0.5488 -0.8578
  451MOL0     C60812   0.383   8.773   9.186 -0.9702 -0.4094  0.5044
  451MOL0     C60813   0.396   8.666   9.283  1.3377  0.0642 -0.2252
  451MOL0     C60814   0.394   8.574   9.362 -0.5784  0.0174  0.2581
  451MOL0     C60815   0.918   8.905   8.982  0.0814  0.9410 -0.4795
  451MOL0     C60816   0.999   8.912   8.861  0.3471  0.7437 -0.8040
  451MOL0     C60817   1.132   8.832   8.863 -0.2497  0.3733  0.0521
  451MOL0     H60818   0.721   9.070   8.347  2.0379  2.1329  5.8963
  451MOL0     H60819   0.740   9.065   8.099 -0.0924 -1.2395  0.1463
  451MOL0     H60820   1.126   9.269   7.903  1.6352 -1.8256 -0.8725
  451MOL0     H60821   1.151   9.095   7.942 -0.3685 -2.2118  0.3115
  451MOL0     H60822   1.164   9.164   7.696  0.6594 -0.2663  2.5726
  451MOL0     H60823   0.986   9.195   7.707 -0.8467 -1.4064 -0.4688
  451MOL0     H60824   0.955   8.977   7.782  1.5977  1.5028  2.7171
  451MOL0     H60825   1.124   8.931   7.775 -0.3146 -0.8487  0.2419
  451MOL0     H60826   0.963   8.864   7.575  0.9755 -1.8188  1.4111
  451MOL0     H60827   1.014   9.028   7.507  0.8441  0.2937 -0.2870
  451MOL0     H60828   1.210   8.823   7.619 -0.0765 -1.0447 -1.0491
  451MOL0     H60829   1.151   8.817   7.453  0.1893  1.5433 -0.5165
  451MOL0     H60830   1.243   9.042   7.401 -0.2514 -1.5676  1.0259
  451MOL0     H60831   1.309   9.061   7.565 -1.2975  2.3157 -0.4782
  451MOL0     H60832   1.375   8.848   7.369 -1.3216  0.4499  0.3384
  451MOL0     H60833   1.432   8.838   7.534  0.4876 -1.9225 -2.3770
  451MOL0     H60834   1.558   8.972   7.304 -1.1408 -2.4566  0.7588
  451MOL0     H60835   1.462   9.094   7.370 -1.5820  0.6003  3.2673
  451MOL0     H60836   1.738   9.144   7.365 -1.6138  0.0813  0.0385
  451MOL0     H60837   2.003   9.067   7.635 -1.3161 -2.6915 -5.6261
  451MOL0     H60838   1.959   9.220   7.547 -2.6935  3.0858  2.4266
  451MOL0     H60839   1.916   9.162   7.841  3.2623  1.2231  0.7575
  451MOL0     H60840   2.032   9.260   7.772 -0.1489 -0.7322  2.9116
  451MOL0     H60841   1.722   9.305   7.743  1.0113 -0.1098  0.9202
  451MOL0     H60842   1.841   9.400   7.654  2.8121  1.3904  0.6965
  451MOL0     H60843   1.818   9.413   7.963  0.0626 -1.2165 -0.4665
  451MOL0     H60844   1.739   9.514   7.843 -0.7979  0.1700 -0.9646
  451MOL0     H60845   1.773   9.682   7.760 -0.0317 -0.1401 -0.6831
  451MOL0     H60846   1.808   9.892   7.691  2.0666 -0.3266 -2.1439
  451MOL0     H60847   2.272  10.206   7.880 -3.6571 -0.2460  0.0911
  451MOL0     H60848   2.393  10.405   7.868  2.5009 -6.3966  1.4321
  451MOL0     H60849   2.377  10.773   7.729 -0.2087  0.7314  1.3265
  451MOL0     H60850   2.325  10.632   7.832  0.5578 -2.5252 -0.6912
  451MOL0     H60851   2.532  10.719   7.918  0.6731 -0.1510 -0.8458
  451MOL0     H60852   2.535  10.560   7.849  0.8792  0.6791  4.0016
  451MOL0     H60853   2.637  10.679   7.631 -0.7373  1.2179 -0.4300
  451MOL0     H60854   2.651  10.818   7.737 -3.8301 -0.3272  1.2988
  451MOL0     H60855   2.774  10.655   7.905 -0.8007  0.3890  1.0176
  451MOL0     H60856   2.869  10.740   7.789 -0.9200  1.4590  1.5135
  451MOL0     H60857   2.944  10.514   7.765 -0.9359 -4.0380  0.5108
  451MOL0     H60858   2.821  10.528   7.633  0.8218 -4.5469 -0.0831
  451MOL0     H60859   2.736  10.425   7.896  1.5644  1.0241  0.1041
  451MOL0     H60860   2.662  10.405   7.734 -1.4298  0.7686  1.1140
  451MOL0     H60861   2.949  10.294   7.766  0.1803  1.4992  0.1146
  451MOL0     H60862   2.822  10.245   7.661  2.4191  0.1327  1.1168
  451MOL0     H60863   2.853  10.065   7.835  0.1514  0.1878 -1.2232
  451MOL0     H60864   2.824  10.182   7.962  1.8425  0.1288 -0.0795
  451MOL0     H60865   2.248  10.442   7.452  2.8283  1.9746  0.6309
  451MOL0     H60866   2.166  10.232   7.464  0.0749 -1.3046  0.2227
  451MOL0     H60867   2.222   9.883   7.801 -0.2761  0.0662 -2.0164
  451MOL0     H60868   2.190   9.636   7.862 -0.4194 -1.8571 -3.4319
  451MOL0     H60869   1.169   9.119   8.146 -0.2447 -0.2761  0.2316
  451MOL0     H60870   1.137   9.062   8.387  0.9148  2.5904  0.9263
  451MOL0     H60871   0.765   9.108   8.695  1.8730  1.0348 -0.5457
  451MOL0     H60872   0.647   9.069   8.888 -0.3296  0.1019 -2.9879
  451MOL0     H60873   0.630   9.161   9.098  3.3464  0.7028  0.5245
  451MOL0     H60874   0.638   9.103   9.255  1.1792  1.2869 -0.8851
  451MOL0     H60875   0.501   8.927   9.028  0.4124  1.3714 -0.9671
  451MOL0     H60876   0.405   9.044   9.116  0.6402  1.0420  0.3642
  451MOL0     H60877   0.425   8.930   9.321  0.9580 -2.6381  1.8227
  451MOL0     H60878   0.568   8.837   9.271  0.8252  1.4351 -2.2543
  451MOL0     H60879   0.278   8.802   9.177 -0.7580  0.7520  1.4647
  451MOL0     H60880   0.419   8.737   9.089  1.4679 -0.2680  1.2778
  451MOL0     H60881   0.388   8.492   9.430 -0.3124 -0.2312 -0.0150
  451MOL0     H60882   0.960   8.853   9.068 -1.1771 -0.0794 -0.4547
  451MOL0     H60883   1.149   8.796   8.964 -0.8275  2.1403  0.8198
  451MOL0     H60884   1.138   8.748   8.793 -0.9086  0.0272  0.4064
  451MOL0     H60885   1.198   8.916   8.836 -1.2557  0.6213 -1.8489
  452MOL0     O60886   3.206   7.590   7.727  0.1161  0.4982 -0.3750
  452MOL0     C60887   3.319   7.596   7.685  0.5170 -0.0116  0.1804
  452MOL0     O60888   3.357   7.684   7.579  0.1709  0.6451 -0.6174
  452MOL0     C60889   3.281   7.798   7.563 -0.1522 -0.7883 -0.0118
  452MOL0     C60890   3.311   7.920   7.627 -0.0412 -0.1187 -1.0677
  452MOL0     C60891   3.245   8.043   7.596 -0.6259  1.0363  0.5076
  452MOL0     C60892   3.152   8.038   7.501 -0.2839  0.5354  0.7140
  452MOL0     O60893   3.095   8.150   7.460  0.6318 -0.4758  0.3699
  452MOL0     C60894   3.044   8.162   7.323 -0.4292 -0.4947 -0.7695
  452MOL0     C60895   3.029   8.306   7.281  0.2813  0.0478 -0.1628
  452MOL0     C60896   2.941   8.383   7.381 -0.9263 -0.4325  0.1942
  452MOL0     C60897   2.800   8.414   7.336 -0.0522  0.5461 -0.8991
  452MOL0     C60898   2.742   8.513   7.442 -1.0301 -0.7103  0.7610
  452MOL0     C60899   2.601   8.568   7.404 -0.1820 -0.3773  1.5696
  452MOL0     C60900   2.545   8.669   7.500  0.2662 -0.0991 -0.5637
  452MOL0     C60901   2.414   8.734   7.465  0.3244  0.4608 -0.7948
  452MOL0     N60902   2.415   8.818   7.344 -0.3585 -0.4629  0.1729
  452MOL0     C60903   2.335   8.817   7.232  0.5154  0.0449  0.3008
  452MOL0     C60904   2.401   8.879   7.133  0.6697  0.6400  0.7163
  452MOL0     C60905   2.377   8.893   6.988 -0.0753  0.1699  0.7460
  452MOL0     C60906   2.433   8.783   6.893 -0.0366 -0.8951  0.1952
  452MOL0     C60907   2.560   8.728   6.950 -0.4576  0.0293  0.9388
  452MOL0     C60908   2.603   8.612   6.862  0.1981 -0.2282  0.5196
  452MOL0     O60909   2.715   8.540   6.922  0.1574 -0.0416 -0.0848
  452MOL0     C60910   2.689   8.426   6.985 -0.2949 -0.8362 -0.6547
  452MOL0     C60911   2.563   8.394   7.046 -0.1717 -0.2060 -0.6302
  452MOL0     C60912   2.552   8.272   7.115 -0.5939  0.2250 -0.2208
  452MOL0     C60913   2.661   8.179   7.114 -0.2057 -1.0523  0.7044
  452MOL0     C60914   2.640   8.043   7.178 -0.0620 -0.0343 -0.1588
  452MOL0     O60915   2.736   7.951   7.140 -0.6137 -0.9438 -0.0498
  452MOL0     C60916   2.753   7.830   7.202  0.8936 -0.5333  0.1075
  452MOL0     C60917   2.875   7.768   7.182  0.3265 -0.0639 -0.9803
  452MOL0     C60918   2.928   7.665   7.260  1.3107 -0.5722  0.7907
  452MOL0     C60919   2.852   7.628   7.369  0.7231  0.4104  0.0127
  452MOL0     O60920   2.900   7.532   7.460  0.7341  0.0087  0.1512
  452MOL0     C60921   2.806   7.463   7.553 -0.7979  0.2818 -0.7992
  452MOL0     C60922   2.863   7.351   7.624 -0.3533 -0.1226  0.3533
  452MOL0     C60923   2.984   7.388   7.701 -0.3810  0.8604  0.8032
  452MOL0     C60924   3.051   7.263   7.763  0.6883 -0.2475 -0.1060
  452MOL0     C60925   2.990   7.234   7.906  0.0482 -0.4361 -0.6625
  452MOL0     C60926   3.064   7.105   7.948  0.0795 -0.1035 -0.9614
  452MOL0     C60927   3.024   7.056   8.090  0.5124 -0.4343 -1.2613
  452MOL0     C60928   2.862   7.056   8.103 -0.1070 -0.2735  0.6393
  452MOL0    Cl60929   2.845   6.928   8.231 -0.1382 -0.3747  0.5121
  452MOL0     C60930   2.720   7.678   7.385 -0.1867  0.8978  0.1645
  452MOL0     C60931   2.671   7.773   7.301  0.9593 -0.3033 -0.1861
  452MOL0     O60932   2.547   8.027   7.261  0.4988 -0.1401 -0.0007
  452MOL0     C60933   2.768   8.213   7.035  0.0273  0.2807 -0.0396
  452MOL0     C60934   2.781   8.342   6.982  0.5610  1.8435 -0.0470
  452MOL0     N60935   2.521   8.925   7.191  0.3032  0.6531  0.0900
  452MOL0     N60936   2.524   8.887   7.314 -0.2183 -0.4787  0.1202
  452MOL0     C60937   3.101   7.914   7.450 -0.3677  0.0913 -0.0021
  452MOL0     C60938   3.174   7.793   7.475 -0.2673 -0.2008 -0.0845
  452MOL0     C60939   3.405   7.499   7.741 -1.1159 -0.1512 -0.4038
  452MOL0     C60940   3.391   7.473   7.882 -0.3216  0.8378  0.5171
  452MOL0     C60941   3.492   7.393   7.948 -1.5252 -0.6332 -0.8380
  452MOL0     C60942   3.598   7.341   7.880  0.2701  0.7483  0.0472
  452MOL0     O60943   3.687   7.257   7.945  0.9093  0.0416  0.5536
  452MOL0     C60944   3.720   7.271   8.085  0.4266 -0.0011 -1.0325
  452MOL0     C60945   3.838   7.374   8.101 -0.3980 -0.0357 -0.6263
  452MOL0     C60946   3.973   7.306   8.084 -0.3387  0.6163 -0.5776
  452MOL0     C60947   4.070   7.380   7.997 -0.3534 -0.1884  0.2110
  452MOL0     C60948   4.173   7.471   8.067 -0.5538  0.3659  0.8488
  452MOL0     C60949   4.237   7.557   8.126 -0.4412  0.8477 -0.5525
  452MOL0     C60950   3.613   7.375   7.753 -0.0025  0.3764 -0.2235
  452MOL0     C60951   3.515   7.439   7.676 -0.3996 -0.0963 -0.0545
  452MOL0     C60952   3.554   7.460   7.523  1.5835 -0.0795  0.2358
  452MOL0     H60953   3.393   7.920   7.698 -0.1886  0.1280 -0.9006
  452MOL0     H60954   3.277   8.137   7.641 -0.1521  0.0668  2.2612
  452MOL0     H60955   3.130   8.123   7.267  0.7618  0.8333  0.0557
  452MOL0     H60956   2.954   8.100   7.314 -1.1026  0.3277  0.0824
  452MOL0     H60957   2.990   8.323   7.181  2.7058 -0.1294 -1.1989
  452MOL0     H60958   3.132   8.343   7.276  0.6122 -0.7116  0.7540
  452MOL0     H60959   2.998   8.477   7.380  0.7591 -1.0486  5.6319
  452MOL0     H60960   2.938   8.335   7.479  1.3702 -2.2761 -0.5545
  452MOL0     H60961   2.808   8.467   7.241 -1.3809  1.2149 -0.6602
  452MOL0     H60962   2.740   8.323   7.321  1.2660 -0.2306 -1.6232
  452MOL0     H60963   2.731   8.466   7.540 -0.2648  1.6797  2.0761
  452MOL0     H60964   2.800   8.605   7.447 -4.2152  1.3627  3.0872
  452MOL0     H60965   2.618   8.607   7.304 -0.8790  1.1743  2.0135
  452MOL0     H60966   2.541   8.478   7.390  1.2959 -1.0975 -0.6590
  452MOL0     H60967   2.616   8.751   7.514  0.8324 -0.4802 -1.1700
  452MOL0     H60968   2.535   8.627   7.600  2.5537  1.4693  0.4049
  452MOL0     H60969   2.342   8.655   7.443  0.3438  0.1631  0.1787
  452MOL0     H60970   2.381   8.796   7.548 -0.4087 -0.1959 -0.5884
  452MOL0     H60971   2.248   8.753   7.220 -1.0455  2.2770 -0.9429
  452MOL0     H60972   2.268   8.896   6.979 -0.0691  1.5227  0.8123
  452MOL0     H60973   2.421   8.989   6.958 -1.0639  0.6899  0.8994
  452MOL0     H60974   2.360   8.702   6.883 -0.4971 -0.3213 -1.4138
  452MOL0     H60975   2.445   8.839   6.800  2.7130 -1.2925  0.2318
  452MOL0     H60976   2.548   8.701   7.055 -1.9812  3.3633  1.7554
  452MOL0     H60977   2.649   8.791   6.959 -0.2285  0.1066 -1.2331
  452MOL0     H60978   2.619   8.651   6.762 -2.6365 -0.9120 -0.3062
  452MOL0     H60979   2.518   8.550   6.831  1.2589  0.3844 -4.4209
  452MOL0     H60980   2.484   8.467   7.052 -0.0449 -0.1792  1.5066
  452MOL0     H60981   2.459   8.241   7.163  0.6500 -0.4342  1.8661
  452MOL0     H60982   2.933   7.814   7.102 -2.1730 -0.1322 -2.9637
  452MOL0     H60983   3.023   7.633   7.219  1.4033  1.6650 -1.0024
  452MOL0     H60984   2.777   7.530   7.635  0.6355 -3.1632  2.8238
  452MOL0     H60985   2.718   7.436   7.495 -2.0778 -0.1142  1.2547
  452MOL0     H60986   2.787   7.303   7.685  0.9812 -1.3461  1.1254
  452MOL0     H60987   2.882   7.267   7.557 -2.6964 -1.4874  1.3005
  452MOL0     H60988   3.049   7.449   7.637 -2.6171  2.2448 -0.2729
  452MOL0     H60989   2.957   7.456   7.782 -1.2102  1.9569 -0.3658
  452MOL0     H60990   3.158   7.283   7.769  0.3712  1.8895 -0.5196
  452MOL0     H60991   3.036   7.175   7.701 -3.7619 -0.5967  1.1081
  452MOL0     H60992   2.881   7.224   7.894  0.0072  1.4425 -2.3476
  452MOL0     H60993   3.012   7.319   7.970  0.6359 -0.7554 -0.4400
  452MOL0     H60994   3.033   7.027   7.879 -3.7310 -0.1197  0.5249
  452MOL0     H60995   3.172   7.122   7.947  0.4437 -2.1542 -2.8073
  452MOL0     H60996   3.072   7.111   8.171  0.3027 -1.7608 -0.1888
  452MOL0     H60997   3.073   6.958   8.093 -0.3560 -0.9050 -1.7474
  452MOL0     H60998   2.817   7.143   8.152 -0.5287 -0.6736  0.9843
  452MOL0     H60999   2.818   7.023   8.008  1.4786 -3.4631  0.8496
  452MOL0     H61000   2.646   7.645   7.457  0.8673 -0.5430  0.6255
  452MOL0     H61001   2.573   7.803   7.335  0.5042 -2.6603  0.7537
  452MOL0     H61002   2.852   8.145   7.034  0.2521  0.5600 -0.7289
  452MOL0     H61003   2.874   8.358   6.928 -1.2657  1.0378 -3.7487
  452MOL0     H61004   3.011   7.918   7.389 -0.1156  1.7383 -0.3196
  452MOL0     H61005   3.147   7.694   7.440 -0.1599 -0.6672  1.0834
  452MOL0     H61006   3.307   7.519   7.935  1.3829  3.2925  1.2536
  452MOL0     H61007   3.475   7.359   8.050  0.0318  0.9407 -0.0062
  452MOL0     H61008   3.744   7.170   8.119  0.1704 -0.3154 -1.7764
  452MOL0     H61009   3.639   7.317   8.142 -1.4294  0.1105 -3.6227
  452MOL0     H61010   3.823   7.434   8.192 -1.6284  2.0283 -2.1072
  452MOL0     H61011   3.819   7.441   8.017  0.6454 -0.0678 -0.9057
  452MOL0     H61012   3.961   7.205   8.045  0.7336  0.1282  0.3058
  452MOL0     H61013   4.020   7.303   8.183 -1.2570 -0.8110 -0.1560
  452MOL0     H61014   4.113   7.304   7.931  1.2989  0.3710  0.5923
  452MOL0     H61015   4.024   7.448   7.924 -0.7371 -1.7403 -1.0665
  452MOL0     H61016   4.294   7.610   8.199 -3.3022  1.0611  1.6824
  452MOL0     H61017   3.705   7.337   7.708  2.6442  0.3043  4.5921
  452MOL0     H61018   3.461   7.452   7.466  0.7165  1.7769  1.2915
  452MOL0     H61019   3.599   7.559   7.514 -0.8656  1.3063  1.9821
  452MOL0     H61020   3.625   7.392   7.476 -0.1686 -1.2118 -0.8498
  453MOL0     O61021  11.246   3.663   1.423  1.1304  1.1469 -0.1341
  453MOL0     C61022  11.276   3.544   1.405  0.3226  0.4888 -0.0547
  453MOL0     O61023  11.223   3.461   1.315 -0.2788  0.8577  0.1404
  453MOL0     C61024  11.120   3.502   1.227 -0.1662  0.1378  0.3216
  453MOL0     C61025  11.062   3.637   1.204 -0.2274 -0.1006 -0.7011
  453MOL0     C61026  10.958   3.650   1.113  0.3021  0.1261 -0.4885
  453MOL0     C61027  10.896   3.533   1.051 -0.3424  0.5331  1.4101
  453MOL0     O61028  10.772   3.543   0.995 -0.0638  1.3048  0.1231
  453MOL0     C61029  10.740   3.472   0.868 -0.2783 -0.7171  0.0555
  453MOL0     C61030  10.652   3.548   0.768  0.3011 -0.1678 -0.5023
  453MOL0     C61031  10.528   3.617   0.833  0.1977  0.7541 -0.2145
  453MOL0     C61032  10.560   3.726   0.928 -0.1280  0.1555  0.5719
  453MOL0     C61033  10.446   3.812   0.937  1.0099 -0.3256  0.3787
  453MOL0     C61034  10.424   3.907   1.055 -0.6602  0.7034  0.3961
  453MOL0     C61035  10.284   3.951   1.040  0.9299  0.0769  0.4303
  453MOL0     C61036  10.181   3.842   1.066  0.4682 -1.0597 -0.2700
  453MOL0     N61037  10.062   3.890   1.142  0.0902  0.3964 -0.0935
  453MOL0     C61038   9.967   3.817   1.204 -0.6093  0.2321  0.1698
  453MOL0     C61039   9.879   3.903   1.256  0.4516 -0.6666  1.2351
  453MOL0     C61040   9.754   3.868   1.340  0.4253  0.2342  0.7631
  453MOL0     C61041   9.684   3.741   1.295  0.4308  0.1941  0.2914
  453MOL0     C61042   9.571   3.752   1.186 -0.0670  0.0553  1.0590
  453MOL0     C61043   9.450   3.826   1.240  0.4379  0.1806  0.1869
  453MOL0     O61044   9.383   3.742   1.340 -0.1198  0.4543  0.6867
  453MOL0     C61045   9.263   3.787   1.385 -0.2581  0.7196 -1.2207
  453MOL0     C61046   9.213   3.711   1.490 -0.2818 -0.3509  0.2054
  453MOL0     C61047   9.081   3.748   1.538 -0.2769 -0.0372  0.4672
  453MOL0     C61048   9.005   3.852   1.479 -0.3946  0.4202  0.1474
  453MOL0     C61049   8.869   3.890   1.538 -0.3710 -0.1677  0.0677
  453MOL0     O61050   8.823   3.833   1.650  0.4738  0.4005  0.0982
  453MOL0     C61051   8.697   3.838   1.696  0.3952  0.7322  0.0148
  453MOL0     C61052   8.584   3.848   1.604 -0.5612 -0.0237  0.2548
  453MOL0     C61053   8.451   3.850   1.648  0.2068 -0.0935 -0.1332
  453MOL0     C61054   8.428   3.841   1.785  0.5212 -0.4506  0.2519
  453MOL0     O61055   8.296   3.840   1.826 -1.0947 -0.1755 -0.4145
  453MOL0     C61056   8.265   3.891   1.961 -0.0292  0.2570  0.1627
  453MOL0     C61057   8.111   3.882   1.969  0.9351  0.4553  0.2155
  453MOL0     C61058   8.060   3.735   1.926 -0.3940 -0.0475  0.0711
  453MOL0     C61059   8.004   3.663   2.049  0.0197  0.3537 -0.8470
  453MOL0     C61060   7.999   3.513   2.034  0.4055 -0.3573  0.3828
  453MOL0     C61061   7.898   3.435   1.944  1.2039 -0.0203 -0.2550
  453MOL0     C61062   7.761   3.437   2.012  0.7278 -0.2429  0.1323
  453MOL0     C61063   7.642   3.415   1.909 -0.2832  0.6409  0.2192
  453MOL0    Cl61064   7.487   3.366   1.989  0.0308  0.4273 -0.3836
  453MOL0     C61065   8.537   3.837   1.873 -0.6411 -0.1058 -1.6429
  453MOL0     C61066   8.669   3.834   1.827 -0.4814  0.3858  0.7342
  453MOL0     O61067   8.807   3.974   1.472 -0.5385  0.2969  0.1297
  453MOL0     C61068   9.064   3.939   1.376  1.1758 -0.2019  0.0003
  453MOL0     C61069   9.194   3.904   1.340  0.3229  0.2191  0.4222
  453MOL0     N61070   9.920   4.033   1.228 -0.4144 -0.6044  0.6942
  453MOL0     N61071  10.021   4.023   1.150 -0.2056  0.3231 -0.0127
  453MOL0     C61072  10.969   3.411   1.046 -0.1449 -0.5160  0.4237
  453MOL0     C61073  11.083   3.400   1.132  0.3145  0.0284  0.9279
  453MOL0     C61074  11.389   3.495   1.495 -0.0720  0.2002 -0.2930
  453MOL0     C61075  11.435   3.358   1.481 -0.0329  0.3022  0.1055
  453MOL0     C61076  11.554   3.319   1.548 -0.1485 -0.1500  0.2679
  453MOL0     C61077  11.610   3.390   1.650 -0.8583  0.4019 -0.1570
  453MOL0     O61078  11.714   3.323   1.720  0.0602 -0.8002 -0.9819
  453MOL0     C61079  11.790   3.398   1.822 -0.7868  0.2375  0.3341
  453MOL0     C61080  11.902   3.480   1.749  0.2170  0.3919 -0.3614
  453MOL0     C61081  12.009   3.538   1.836  0.5501  1.1515 -0.4706
  453MOL0     C61082  11.968   3.616   1.965  0.2991  0.7015 -0.7472
  453MOL0     C61083  11.882   3.719   1.912  0.8446 -0.4901 -0.5815
  453MOL0     C61084  11.815   3.809   1.867  0.3758  0.3691  0.3552
  453MOL0     C61085  11.556   3.517   1.678  0.3774  0.3374  0.8616
  453MOL0     C61086  11.449   3.573   1.594 -0.7395  0.2288  0.4072
  453MOL0     C61087  11.414   3.723   1.637  0.2266  0.0009  0.5606
  453MOL0     H61088  11.112   3.718   1.256  0.9330 -1.0469 -0.3025
  453MOL0     H61089  10.904   3.744   1.111  2.1516  1.2624  0.7557
  453MOL0     H61090  10.836   3.441   0.826  1.2599 -0.9192  3.3914
  453MOL0     H61091  10.681   3.389   0.908 -0.6472 -1.3088 -1.6094
  453MOL0     H61092  10.626   3.482   0.685 -0.5973 -1.3736  0.7082
  453MOL0     H61093  10.723   3.621   0.727  0.9607 -0.6271 -0.1876
  453MOL0     H61094  10.450   3.547   0.862 -1.7211  0.7215 -4.6519
  453MOL0     H61095  10.472   3.660   0.749  0.8049 -2.1533 -2.2581
  453MOL0     H61096  10.586   3.680   1.024 -2.8415 -0.3977  1.0971
  453MOL0     H61097  10.652   3.776   0.896  0.0442  0.6014  1.7072
  453MOL0     H61098  10.424   3.878   0.853 -2.6301 -1.3089  0.3739
  453MOL0     H61099  10.358   3.747   0.939  0.0671  0.9190  0.9782
  453MOL0     H61100  10.444   3.872   1.157  3.8391 -2.2760 -1.2046
  453MOL0     H61101  10.504   3.982   1.048 -1.4758  2.1324  4.0486
  453MOL0     H61102  10.265   4.006   0.948  1.8343  1.0903  0.8326
  453MOL0     H61103  10.270   4.032   1.112 -0.0694  0.5991 -0.3302
  453MOL0     H61104  10.153   3.785   0.977  4.3366 -1.4147 -1.4388
  453MOL0     H61105  10.226   3.767   1.132  0.7512 -0.0367  0.7412
  453MOL0     H61106   9.967   3.709   1.206  2.3528  0.1223 -0.8035
  453MOL0     H61107   9.798   3.853   1.439  1.0940  2.0449  0.7752
  453MOL0     H61108   9.682   3.951   1.340  2.8074  2.4435  1.2718
  453MOL0     H61109   9.765   3.684   1.248  0.3118 -1.3269  1.8235
  453MOL0     H61110   9.650   3.683   1.381 -0.4877 -0.4303 -0.4808
  453MOL0     H61111   9.557   3.648   1.154  1.6468  0.8066 -2.7322
  453MOL0     H61112   9.606   3.790   1.090  2.2207 -2.6434  0.7175
  453MOL0     H61113   9.392   3.842   1.149  0.3539  0.2382  0.2498
  453MOL0     H61114   9.478   3.919   1.290  2.6266  1.0649 -2.4950
  453MOL0     H61115   9.254   3.623   1.538 -1.0977 -0.4836  0.6779
  453MOL0     H61116   9.042   3.697   1.626  0.3639  0.9877  1.3569
  453MOL0     H61117   8.592   3.872   1.498  0.0314 -0.5290  0.1806
  453MOL0     H61118   8.364   3.868   1.586 -0.2968  0.3192  0.6677
  453MOL0     H61119   8.305   3.832   2.044 -2.5250 -1.2318  0.4126
  453MOL0     H61120   8.290   3.997   1.974 -3.5566  1.3088 -0.3650
  453MOL0     H61121   8.080   3.900   2.072 -1.1270 -1.5423  0.0209
  453MOL0     H61122   8.051   3.959   1.920 -5.8448 -4.1974 -0.0836
  453MOL0     H61123   7.979   3.749   1.853 -1.4378  1.6883  1.4935
  453MOL0     H61124   8.143   3.680   1.881  0.7234  1.4017  0.3057
  453MOL0     H61125   7.903   3.694   2.076 -0.9920 -0.2261 -3.5949
  453MOL0     H61126   8.067   3.687   2.135  0.3614 -0.5796 -0.8242
  453MOL0     H61127   7.985   3.468   2.133 -0.4287 -0.0364  0.4130
  453MOL0     H61128   8.097   3.490   1.990  0.1164 -0.7930 -0.0406
  453MOL0     H61129   7.890   3.485   1.847 -1.4856 -0.8146 -0.5093
  453MOL0     H61130   7.935   3.332   1.936  0.8002 -0.2685  0.8778
  453MOL0     H61131   7.743   3.534   2.059  1.9472 -0.9473  2.1899
  453MOL0     H61132   7.766   3.355   2.084  0.9606 -2.7904 -2.5757
  453MOL0     H61133   7.615   3.507   1.857  2.1862  1.5822  0.4700
  453MOL0     H61134   7.675   3.341   1.835 -0.0720 -0.5386  1.4381
  453MOL0     H61135   8.526   3.842   1.980  0.8569 -2.7739 -1.2762
  453MOL0     H61136   8.756   3.818   1.890 -1.5909 -0.8312  2.0388
  453MOL0     H61137   9.017   4.028   1.335  2.2920  1.7931  2.6717
  453MOL0     H61138   9.244   3.964   1.264  0.9316 -0.3227  0.3819
  453MOL0     H61139  10.933   3.326   0.989  1.8893 -0.1517 -1.5317
  453MOL0     H61140  11.140   3.308   1.140 -0.5915 -0.6793 -0.4604
  453MOL0     H61141  11.398   3.286   1.408 -0.6622 -2.8892  3.3160
  453MOL0     H61142  11.594   3.222   1.519  1.6132  1.0568 -1.5419
  453MOL0     H61143  11.847   3.336   1.892  1.5942  1.6439 -0.2238
  453MOL0     H61144  11.732   3.461   1.890  2.6993 -0.6777  4.6937
  453MOL0     H61145  11.854   3.563   1.696 -2.3646 -1.8393 -1.8213
  453MOL0     H61146  11.941   3.409   1.675 -0.2694 -0.1898 -0.0781
  453MOL0     H61147  12.083   3.594   1.777  3.6660  0.1493  2.1557
  453MOL0     H61148  12.067   3.456   1.880 -0.0668  1.4993  1.0481
  453MOL0     H61149  11.908   3.552   2.031  1.3941 -0.9256 -1.2721
  453MOL0     H61150  12.044   3.662   2.029 -1.0802 -0.9443  2.3116
  453MOL0     H61151  11.769   3.899   1.830 -0.5374 -0.6165 -1.0008
  453MOL0     H61152  11.599   3.586   1.750 -0.7834  1.0073  0.9337
  453MOL0     H61153  11.309   3.753   1.637  0.0821 -0.4839  0.0991
  453MOL0     H61154  11.449   3.740   1.739  2.7358 -1.1897 -0.0259
  453MOL0     H61155  11.465   3.789   1.566  0.0391 -0.0655  0.3602
  454MOL0     O61156   7.932   1.455   8.020  0.4984  0.5669 -0.4149
  454MOL0     C61157   7.945   1.510   7.913 -0.3169  0.1922 -0.4237
  454MOL0     O61158   7.994   1.453   7.792  0.6306 -0.0850 -0.1668
  454MOL0     C61159   8.046   1.327   7.768 -0.4920  0.2773  0.1886
  454MOL0     C61160   8.096   1.234   7.860  0.1191  0.6925 -0.8440
  454MOL0     C61161   8.163   1.117   7.821 -0.4366  0.5079 -0.1179
  454MOL0     C61162   8.169   1.080   7.696 -0.0932 -1.0420 -0.2254
  454MOL0     O61163   8.219   0.957   7.656  0.5636 -0.5615  0.4232
  454MOL0     C61164   8.355   0.981   7.617 -0.5034 -0.1649  0.6126
  454MOL0     C61165   8.445   0.855   7.595 -0.4354 -0.3930  0.7548
  454MOL0     C61166   8.387   0.793   7.463 -0.1273 -0.3824  0.3177
  454MOL0     C61167   8.499   0.709   7.397 -0.1248 -0.2924  0.4925
  454MOL0     C61168   8.462   0.559   7.363  1.2071  0.5277  0.0693
  454MOL0     C61169   8.587   0.470   7.342  1.4162 -0.3896 -0.4744
  454MOL0     C61170   8.553   0.320   7.302  0.1883 -0.5577  0.8247
  454MOL0     C61171   8.671   0.248   7.232 -0.8920  0.7849 -0.8347
  454MOL0     N61172   8.633   0.105   7.225  0.2565 -0.1533 -0.0126
  454MOL0     C61173   8.588   0.055   7.116  0.3549 -0.1585  0.5677
  454MOL0     C61174   8.588  -0.079   7.138 -0.6943 -0.9735 -0.6479
  454MOL0     C61175   8.517  -0.178   7.054 -1.1012  0.4563  0.2940
  454MOL0     C61176   8.603  -0.224   6.929  0.5253  0.2269  0.4954
  454MOL0     C61177   8.650  -0.105   6.836  0.6224  0.2471  0.3966
  454MOL0     C61178   8.752  -0.150   6.729  0.0249 -0.1664  0.6738
  454MOL0     O61179   8.695  -0.148   6.599  0.1822  0.5443  0.0717
  454MOL0     C61180   8.775  -0.147   6.493  0.1097  0.1917  0.4656
  454MOL0     C61181   8.911  -0.180   6.488 -0.2367 -0.7487 -0.8954
  454MOL0     C61182   8.985  -0.193   6.372 -0.1866 -0.5054 -0.2426
  454MOL0     C61183   8.936  -0.153   6.248  0.2737  0.4412  0.2306
  454MOL0     C61184   9.014  -0.158   6.127 -0.3889 -0.5605 -0.7262
  454MOL0     O61185   9.116  -0.255   6.128  0.4059 -0.8953  0.5406
  454MOL0     C61186   9.209  -0.221   6.032 -0.1889 -0.5793 -1.2291
  454MOL0     C61187   9.314  -0.136   6.067  1.1324  0.5173  0.0901
  454MOL0     C61188   9.423  -0.111   5.982  0.3125 -0.0972  0.2461
  454MOL0     C61189   9.422  -0.174   5.852 -0.0388 -0.8194  0.3251
  454MOL0     O61190   9.530  -0.144   5.780  0.7352  0.0630 -0.3912
  454MOL0     C61191   9.582  -0.249   5.692 -0.0675 -0.4271 -0.3521
  454MOL0     C61192   9.715  -0.211   5.620 -0.6012 -0.7211  0.6663
  454MOL0     C61193   9.682  -0.081   5.544  0.8275  0.5234  0.3154
  454MOL0     C61194   9.800  -0.026   5.456 -0.0147  1.0787  0.3443
  454MOL0     C61195   9.865  -0.127   5.357 -0.1412  1.4602  0.2811
  454MOL0     C61196   9.765  -0.176   5.250  0.1111 -0.5205  0.1511
  454MOL0     C61197   9.828  -0.252   5.131 -0.9717  0.2223  0.4476
  454MOL0     C61198   9.736  -0.318   5.032  0.3067 -0.1756 -1.2452
  454MOL0    Cl61199   9.670  -0.455   5.121  0.3447 -0.2054  0.4800
  454MOL0     C61200   9.309  -0.239   5.808  0.3315 -0.0929  0.2151
  454MOL0     C61201   9.196  -0.266   5.898  0.6117  0.0864  0.3640
  454MOL0     O61202   8.987  -0.086   6.036  0.0104 -0.0407  0.9171
  454MOL0     C61203   8.799  -0.112   6.247 -0.7796  0.5261 -0.3158
  454MOL0     C61204   8.725  -0.102   6.369  0.3860  0.6023  0.4260
  454MOL0     N61205   8.653  -0.110   7.254  0.0993 -0.7971  0.4105
  454MOL0     N61206   8.674   0.006   7.306  0.1494  0.4488 -0.5439
  454MOL0     C61207   8.116   1.168   7.595 -0.0896 -0.5311 -0.4290
  454MOL0     C61208   8.059   1.291   7.632  0.1704  0.1209 -0.0507
  454MOL0     C61209   7.896   1.651   7.908 -0.2170  0.1202  1.1769
  454MOL0     C61210   7.944   1.733   7.800  0.2207  0.9060 -0.3028
  454MOL0     C61211   7.891   1.855   7.780  0.5083 -0.2611 -0.5149
  454MOL0     C61212   7.789   1.906   7.859 -0.2384 -0.0243  1.3158
  454MOL0     O61213   7.726   2.028   7.826 -0.3401  0.7328  0.2638
  454MOL0     C61214   7.607   2.025   7.744  0.6974  0.7516 -0.4425
  454MOL0     C61215   7.635   1.990   7.600 -0.0730 -0.2349 -0.2657
  454MOL0     C61216   7.671   2.102   7.502 -0.7188  0.2149 -0.4233
  454MOL0     C61217   7.814   2.153   7.524 -0.1541 -0.5834 -0.5490
  454MOL0     C61218   7.908   2.063   7.458 -0.6972  0.5650  1.4591
  454MOL0     C61219   7.995   1.992   7.410 -0.3327  0.3417 -0.3894
  454MOL0     C61220   7.743   1.829   7.964 -0.1621  0.3982 -0.0648
  454MOL0     C61221   7.793   1.698   7.997  0.1193 -0.3974  0.2667
  454MOL0     C61222   7.740   1.622   8.111  0.3937  0.0536 -0.1037
  454MOL0     H61223   8.110   1.253   7.966 -1.6436 -1.3619 -0.1558
  454MOL0     H61224   8.189   1.046   7.898 -1.2507 -1.1171 -1.2852
  454MOL0     H61225   8.362   1.052   7.534 -0.9516  0.9432  1.4905
  454MOL0     H61226   8.389   1.040   7.703 -2.5839  0.2268  1.2062
  454MOL0     H61227   8.445   0.785   7.679  2.3736  1.2088  2.2639
  454MOL0     H61228   8.551   0.885   7.588 -0.6560  0.0573 -1.1323
  454MOL0     H61229   8.362   0.870   7.389  0.3467 -0.1168  0.4263
  454MOL0     H61230   8.292   0.750   7.496 -1.5907  1.1941 -1.5561
  454MOL0     H61231   8.525   0.767   7.308  4.2419 -0.7507  1.2242
  454MOL0     H61232   8.592   0.698   7.455  0.4675  0.1147 -0.3624
  454MOL0     H61233   8.413   0.522   7.453  4.3283 -1.7201  1.0339
  454MOL0     H61234   8.402   0.555   7.272  0.5550 -1.8030  0.5383
  454MOL0     H61235   8.630   0.518   7.254 -1.6866  2.4396 -0.6614
  454MOL0     H61236   8.656   0.466   7.426  0.3746 -2.3990  0.3518
  454MOL0     H61237   8.468   0.312   7.234  0.7756  2.1504 -0.3797
  454MOL0     H61238   8.520   0.270   7.393 -0.9359 -2.8896 -0.7727
  454MOL0     H61239   8.698   0.290   7.135 -0.5489  0.6615 -0.7931
  454MOL0     H61240   8.753   0.249   7.305 -0.7464 -2.2264 -0.8446
  454MOL0     H61241   8.540   0.112   7.037  0.7594 -0.7025 -0.0887
  454MOL0     H61242   8.488  -0.264   7.116 -0.5563  0.3329  0.3889
  454MOL0     H61243   8.424  -0.136   7.017 -0.1413  2.2388 -0.1988
  454MOL0     H61244   8.699  -0.269   6.957  2.1427  2.6495 -0.6982
  454MOL0     H61245   8.540  -0.294   6.874 -1.1618  2.0194  0.0344
  454MOL0     H61246   8.700  -0.025   6.890  0.4994  1.1192 -0.7438
  454MOL0     H61247   8.563  -0.061   6.786  0.3750 -2.7220 -2.0902
  454MOL0     H61248   8.807  -0.242   6.748  1.1433  0.5806  1.1808
  454MOL0     H61249   8.817  -0.062   6.734 -0.3417  0.0836  1.1311
  454MOL0     H61250   8.961  -0.223   6.574 -1.9385 -0.9269  0.0638
  454MOL0     H61251   9.091  -0.216   6.378  0.1489  0.9170 -0.3290
  454MOL0     H61252   9.307  -0.111   6.172 -3.7232  0.3239  0.0261
  454MOL0     H61253   9.504  -0.042   6.004 -0.4606  1.7593 -2.2892
  454MOL0     H61254   9.590  -0.346   5.740 -1.5231 -0.5548 -0.3326
  454MOL0     H61255   9.506  -0.264   5.614  0.3284  2.5521 -1.4416
  454MOL0     H61256   9.783  -0.186   5.702  1.2578  0.6350 -1.1651
  454MOL0     H61257   9.754  -0.293   5.559 -0.8919 -0.8180  0.6093
  454MOL0     H61258   9.600  -0.102   5.475  2.3621  3.4003 -2.6082
  454MOL0     H61259   9.655  -0.008   5.621 -0.4200 -1.4962  1.9041
  454MOL0     H61260   9.881   0.009   5.520 -0.3559  0.7260  0.9828
  454MOL0     H61261   9.774   0.063   5.398  0.2011  1.7255  1.2273
  454MOL0     H61262   9.904  -0.217   5.406  1.4210  0.5627 -2.3792
  454MOL0     H61263   9.947  -0.071   5.310 -1.7586  2.0046 -2.0473
  454MOL0     H61264   9.703  -0.246   5.307  2.4507 -0.2053  3.3603
  454MOL0     H61265   9.730  -0.079   5.214  1.2046 -0.4173 -0.6713
  454MOL0     H61266   9.892  -0.335   5.164  0.8297  0.3170 -2.4110
  454MOL0     H61267   9.894  -0.188   5.072 -0.7377 -0.2874  0.1515
  454MOL0     H61268   9.655  -0.246   5.017  1.0753  0.7728 -0.9684
  454MOL0     H61269   9.786  -0.358   4.944  0.1196 -0.0781 -1.3965
  454MOL0     H61270   9.314  -0.246   5.699  1.6147  5.0985 -0.3026
  454MOL0     H61271   9.109  -0.315   5.855  1.4969 -1.1490 -0.0890
  454MOL0     H61272   8.753  -0.096   6.150  2.0489  0.7003 -1.7366
  454MOL0     H61273   8.620  -0.078   6.358 -0.6475 -3.6539 -0.8844
  454MOL0     H61274   8.120   1.135   7.492  0.4454 -0.7364 -0.3455
  454MOL0     H61275   8.043   1.362   7.551  0.6579  0.3717  0.0723
  454MOL0     H61276   8.025   1.687   7.743 -2.1010 -2.9111 -0.8909
  454MOL0     H61277   7.937   1.939   7.728  0.8664  0.4316  0.8856
  454MOL0     H61278   7.564   2.125   7.751  1.5408  0.9762  3.7446
  454MOL0     H61279   7.547   1.945   7.789 -1.7757  1.8893 -1.5330
  454MOL0     H61280   7.548   1.949   7.549  0.4250 -0.1516 -1.2154
  454MOL0     H61281   7.714   1.915   7.586  3.4671  3.1158  0.1333
  454MOL0     H61282   7.610   2.192   7.511  1.9500  1.9844  2.5201
  454MOL0     H61283   7.657   2.059   7.402  1.5732 -0.1927 -0.6273
  454MOL0     H61284   7.832   2.253   7.484  1.2848 -0.6387 -0.1051
  454MOL0     H61285   7.853   2.158   7.626  1.6779 -0.1491 -1.2289
  454MOL0     H61286   8.080   1.934   7.380 -0.0620 -0.1669  1.2850
  454MOL0     H61287   7.651   1.868   8.006 -1.1706  0.6722 -2.3696
  454MOL0     H61288   7.709   1.522   8.078  0.0060  0.0371  0.3091
  454MOL0     H61289   7.820   1.615   8.186 -1.4171  2.5622  2.2571
  454MOL0     H61290   7.659   1.677   8.159  0.9256  1.3542 -0.6643
  455MOL0     O61291   0.547   4.309   3.571  0.2137 -0.4929 -0.7163
  455MOL0     C61292   0.557   4.288   3.694 -0.2934  0.3966 -0.3652
  455MOL0     O61293   0.666   4.318   3.768 -0.3756 -0.4898  0.2681
  455MOL0     C61294   0.772   4.362   3.687 -0.0087  0.4235 -0.8123
  455MOL0     C61295   0.797   4.493   3.664 -0.5637 -0.1950  0.0321
  455MOL0     C61296   0.889   4.552   3.569 -1.2736  1.0118 -0.3685
  455MOL0     C61297   0.970   4.456   3.505  0.3076 -0.9771 -0.3036
  455MOL0     O61298   1.062   4.508   3.413 -0.4036 -0.3509  0.0676
  455MOL0     C61299   1.133   4.425   3.319 -0.1486 -0.3179 -0.5373
  455MOL0     C61300   1.275   4.395   3.356 -0.4546  0.4361 -0.2255
  455MOL0     C61301   1.356   4.517   3.414 -0.3797 -0.0317 -0.4372
  455MOL0     C61302   1.392   4.631   3.306 -0.7429 -0.3302  0.0652
  455MOL0     C61303   1.425   4.769   3.370  0.0363 -0.9788 -0.2408
  455MOL0     C61304   1.448   4.878   3.278 -0.6680 -0.1079  0.3562
  455MOL0     C61305   1.438   4.999   3.360  0.3709 -0.9379  0.2065
  455MOL0     C61306   1.475   5.126   3.281 -0.3305  0.8489  0.0161
  455MOL0     N61307   1.440   5.251   3.356 -0.7275 -0.3796 -0.0456
  455MOL0     C61308   1.304   5.297   3.362 -0.2625 -0.4661 -0.2975
  455MOL0     C61309   1.316   5.411   3.439  0.8149  0.0204  0.4424
  455MOL0     C61310   1.221   5.516   3.487  0.7483  0.0187 -0.4230
  455MOL0     C61311   1.258   5.657   3.446  0.3826 -0.4085 -0.3458
  455MOL0     C61312   1.174   5.761   3.533  0.0650  0.0324  0.1702
  455MOL0     C61313   1.026   5.785   3.488 -0.1276 -0.5326  0.4984
  455MOL0     O61314   0.962   5.655   3.478  0.5828 -1.1454  0.0981
  455MOL0     C61315   0.835   5.656   3.420 -0.3648  1.2607  0.0412
  455MOL0     C61316   0.767   5.761   3.354 -0.1622 -0.7895 -0.2683
  455MOL0     C61317   0.636   5.748   3.319  0.0146  0.4516  1.2870
  455MOL0     C61318   0.561   5.631   3.344 -0.6134  0.8150  0.3467
  455MOL0     C61319   0.414   5.626   3.331 -0.1363  0.6569 -0.3824
  455MOL0     O61320   0.356   5.516   3.387  0.4473  0.2237  0.1478
  455MOL0     C61321   0.214   5.501   3.371  0.1989  0.1828 -0.6336
  455MOL0     C61322   0.175   5.377   3.328  0.2335  1.1333  0.4432
  455MOL0     C61323   0.039   5.356   3.304 -0.0597 -0.9593  0.3419
  455MOL0     C61324  -0.054   5.461   3.318 -0.3506  0.2177  0.2490
  455MOL0     O61325  -0.174   5.437   3.262  0.1685  0.1317 -0.2653
  455MOL0     C61326  -0.279   5.527   3.277  0.0522 -0.5686 -0.3500
  455MOL0     C61327  -0.393   5.465   3.205  0.7865 -0.8247  0.3032
  455MOL0     C61328  -0.421   5.334   3.261  1.2394 -0.0590 -0.2319
  455MOL0     C61329  -0.527   5.259   3.177  0.2981  0.1041  0.4514
  455MOL0     C61330  -0.586   5.133   3.244  0.4700 -0.1452 -1.0175
  455MOL0     C61331  -0.479   5.034   3.287 -0.3258  0.9859 -1.0052
  455MOL0     C61332  -0.538   4.903   3.339 -0.0034 -0.0782  0.5947
  455MOL0     C61333  -0.475   4.848   3.467  0.9485 -0.4114  0.0277
  455MOL0    Cl61334  -0.309   4.786   3.441 -0.0562  0.3764  0.3284
  455MOL0     C61335  -0.012   5.591   3.354 -0.0939 -0.6336  0.2254
  455MOL0     C61336   0.123   5.609   3.393 -0.6360  0.1417 -0.2336
  455MOL0     O61337   0.359   5.704   3.259  0.6109 -0.4498  0.1606
  455MOL0     C61338   0.635   5.530   3.400  0.2344  0.2310 -0.0948
  455MOL0     C61339   0.774   5.532   3.436  0.1507 -0.4830 -0.2679
  455MOL0     N61340   1.449   5.436   3.475  0.9521 -0.3035 -0.0648
  455MOL0     N61341   1.523   5.342   3.420 -0.8418  0.3125  0.4092
  455MOL0     C61342   0.946   4.316   3.529 -0.1560 -0.6203  0.4985
  455MOL0     C61343   0.860   4.266   3.624 -0.3857 -0.0902  0.5933
  455MOL0     C61344   0.437   4.229   3.762 -1.0054 -0.2843 -0.7698
  455MOL0     C61345   0.451   4.221   3.907 -0.3729  0.6500 -0.3956
  455MOL0     C61346   0.374   4.141   3.992  0.6403 -0.6286 -0.0112
  455MOL0     C61347   0.266   4.076   3.937  0.2971  0.6694  1.2745
  455MOL0     O61348   0.169   3.996   4.002  0.4146 -0.2906  0.1093
  455MOL0     C61349   0.203   3.908   4.107  0.4298 -0.7393 -0.7602
  455MOL0     C61350   0.192   3.765   4.060 -0.6682  0.0391 -0.5723
  455MOL0     C61351   0.299   3.726   3.965  0.2029 -0.0076  0.1916
  455MOL0     C61352   0.437   3.727   4.046  0.8598 -0.5146 -0.0600
  455MOL0     C61353   0.529   3.626   3.989 -0.5748 -0.4774  1.0620
  455MOL0     C61354   0.607   3.545   3.950  0.2427  0.5849 -0.4146
  455MOL0     C61355   0.253   4.074   3.794 -0.2404 -1.1524 -0.1895
  455MOL0     C61356   0.339   4.145   3.704  0.0421 -0.6083 -0.6299
  455MOL0     C61357   0.320   4.115   3.566 -0.7959 -0.3520  0.2811
  455MOL0     H61358   0.751   4.575   3.718  0.6373  2.2772 -2.4061
  455MOL0     H61359   0.903   4.659   3.567 -0.2583  0.9074  0.4319
  455MOL0     H61360   1.072   4.335   3.303  0.3176 -0.7312 -0.0284
  455MOL0     H61361   1.146   4.483   3.227  4.0736  2.1304  1.3182
  455MOL0     H61362   1.318   4.354   3.264 -0.9388 -1.5142  0.3781
  455MOL0     H61363   1.277   4.317   3.432 -1.1121  0.6201 -0.0181
  455MOL0     H61364   1.450   4.479   3.456 -0.6257  1.2039  1.3285
  455MOL0     H61365   1.315   4.556   3.507 -0.4530 -0.3141 -0.3476
  455MOL0     H61366   1.479   4.598   3.248 -0.0928 -0.4799  1.1129
  455MOL0     H61367   1.314   4.633   3.229  1.6534  4.7769 -2.7283
  455MOL0     H61368   1.347   4.794   3.443  0.3296  1.2124 -0.6090
  455MOL0     H61369   1.516   4.756   3.431  0.3202  1.6624 -0.0037
  455MOL0     H61370   1.554   4.869   3.252 -1.4354  1.6457 -4.3930
  455MOL0     H61371   1.381   4.869   3.192  1.2952 -3.2470 -1.0248
  455MOL0     H61372   1.502   4.988   3.448 -0.8298  1.9908  1.5823
  455MOL0     H61373   1.337   5.011   3.400 -0.8502 -0.3429 -2.7759
  455MOL0     H61374   1.583   5.122   3.264 -0.6010 -0.1415 -1.6824
  455MOL0     H61375   1.429   5.130   3.182 -0.5208 -0.2159  0.0495
  455MOL0     H61376   1.219   5.244   3.318 -2.7973  2.0231  1.2352
  455MOL0     H61377   1.128   5.486   3.436  0.6171  3.6459 -2.6832
  455MOL0     H61378   1.207   5.512   3.595  0.4718 -0.9878 -0.4805
  455MOL0     H61379   1.356   5.684   3.484 -0.2934 -1.0355  2.0243
  455MOL0     H61380   1.239   5.678   3.340 -0.8757  0.4693  0.0185
  455MOL0     H61381   1.215   5.862   3.527  0.8445 -0.0673  2.6709
  455MOL0     H61382   1.184   5.738   3.639 -1.4794 -1.4968  0.0322
  455MOL0     H61383   1.041   5.850   3.401 -1.8219  2.5037  2.2747
  455MOL0     H61384   0.974   5.851   3.558  2.0025  2.9991 -0.9512
  455MOL0     H61385   0.828   5.851   3.345  1.3944 -1.9664 -2.3003
  455MOL0     H61386   0.589   5.837   3.278  2.5550  1.3655  0.1667
  455MOL0     H61387   0.255   5.307   3.305 -0.9332 -0.4266  0.9540
  455MOL0     H61388   0.001   5.261   3.267  0.8748 -0.1749 -3.0272
  455MOL0     H61389  -0.298   5.550   3.382 -1.6228 -2.5057 -0.1690
  455MOL0     H61390  -0.255   5.627   3.240 -0.6927 -0.3167 -0.1653
  455MOL0     H61391  -0.481   5.526   3.226  0.1427 -2.0531  1.2696
  455MOL0     H61392  -0.365   5.473   3.100  0.0190  0.3314  0.1699
  455MOL0     H61393  -0.331   5.272   3.259  3.8147  3.3877  0.7969
  455MOL0     H61394  -0.462   5.345   3.361 -0.8243 -3.0430 -0.6107
  455MOL0     H61395  -0.495   5.240   3.074 -1.6848  0.3063 -0.2379
  455MOL0     H61396  -0.607   5.328   3.149 -0.9533 -0.5666  2.1789
  455MOL0     H61397  -0.651   5.081   3.174  0.0064  0.1903 -0.8333
  455MOL0     H61398  -0.650   5.154   3.330 -0.7981 -1.1942 -1.6774
  455MOL0     H61399  -0.411   5.018   3.203  0.6495  0.9933 -0.2328
  455MOL0     H61400  -0.424   5.082   3.368 -0.6212  0.5643 -0.5521
  455MOL0     H61401  -0.531   4.825   3.263  2.1690 -0.2852  0.9247
  455MOL0     H61402  -0.646   4.918   3.346  0.2616  3.2564 -0.6808
  455MOL0     H61403  -0.457   4.928   3.540  1.2610  0.3868 -0.9132
  455MOL0     H61404  -0.547   4.780   3.513 -1.9080  2.7059  0.4891
  455MOL0     H61405  -0.088   5.668   3.361 -0.1499 -0.4111 -2.0158
  455MOL0     H61406   0.151   5.705   3.437 -1.9932 -0.5056  2.2095
  455MOL0     H61407   0.594   5.432   3.423 -1.3276  0.4194 -1.8995
  455MOL0     H61408   0.820   5.442   3.475 -0.3799 -2.6263 -4.0796
  455MOL0     H61409   0.990   4.233   3.474 -2.9977 -3.0431  1.5837
  455MOL0     H61410   0.858   4.160   3.648 -2.6879 -0.1398  0.3933
  455MOL0     H61411   0.521   4.299   3.935 -0.2232  0.6658 -0.7995
  455MOL0     H61412   0.385   4.145   4.100  0.6887  0.2076 -0.0412
  455MOL0     H61413   0.142   3.925   4.197  0.3059 -1.9436 -0.6047
  455MOL0     H61414   0.305   3.941   4.129  0.2938  0.0837 -1.3001
  455MOL0     H61415   0.101   3.733   4.009 -2.8222 -1.2909  3.6481
  455MOL0     H61416   0.183   3.706   4.151 -0.1830 -1.1643 -1.2784
  455MOL0     H61417   0.315   3.805   3.890  1.4890  0.1202  0.5896
  455MOL0     H61418   0.274   3.634   3.912  0.7932 -0.0102 -0.0908
  455MOL0     H61419   0.473   3.830   4.036 -0.3967  0.4064  3.4280
  455MOL0     H61420   0.425   3.714   4.154 -2.3308 -2.5786 -0.5220
  455MOL0     H61421   0.677   3.469   3.921 -1.6082 -0.8768 -1.2490
  455MOL0     H61422   0.168   4.013   3.766 -1.0105 -0.3120  0.2916
  455MOL0     H61423   0.404   4.147   3.504  0.3679  0.2856  2.1224
  455MOL0     H61424   0.308   4.007   3.558 -0.6419 -0.9170  4.9741
  455MOL0     H61425   0.229   4.166   3.532  0.9605  2.4439 -0.6207
  456MOL0     O61426   1.506   1.271   8.987 -0.2813 -0.1304  0.1423
  456MOL0     C61427   1.509   1.182   8.906  0.1571  0.4681  0.9177
  456MOL0     O61428   1.495   1.055   8.935  0.0475  0.6658  0.0019
  456MOL0     C61429   1.464   1.020   9.065 -0.0654 -1.0053  0.2098
  456MOL0     C61430   1.549   0.951   9.145  0.0396  0.6164  0.6553
  456MOL0     C61431   1.522   0.912   9.269  0.0588  0.4669  0.0536
  456MOL0     C61432   1.389   0.917   9.320 -0.0285 -0.3775  0.1465
  456MOL0     O61433   1.349   0.870   9.441 -0.9352 -0.6133  0.3113
  456MOL0     C61434   1.443   0.872   9.547  0.7125  0.1408 -0.3715
  456MOL0     C61435   1.371   0.841   9.677  1.3322 -0.4192 -0.1248
  456MOL0     C61436   1.420   0.920   9.798 -0.0760 -0.2282 -0.4687
  456MOL0     C61437   1.306   0.974   9.886 -0.4041  0.3336 -0.4773
  456MOL0     C61438   1.237   0.858   9.960  0.6997 -0.3079  0.4330
  456MOL0     C61439   1.134   0.918  10.064 -0.7388 -0.6194  0.8968
  456MOL0     C61440   1.075   0.807  10.157  0.3184 -1.1293 -0.4572
  456MOL0     C61441   1.015   0.869  10.282 -0.8504 -1.0626  0.8562
  456MOL0     N61442   0.912   0.786  10.351 -0.4348  0.0898  0.5487
  456MOL0     C61443   0.829   0.822  10.449 -0.5734  0.3801 -0.5448
  456MOL0     C61444   0.765   0.705  10.489  0.0939 -0.7968  0.4935
  456MOL0     C61445   0.640   0.711  10.567  0.6767  0.6947 -0.9635
  456MOL0     C61446   0.524   0.709  10.472  0.7439 -0.4094  0.3695
  456MOL0     C61447   0.382   0.752  10.522 -0.5431  0.3320 -0.6396
  456MOL0     C61448   0.260   0.681  10.466 -0.3095  0.3334  0.0481
  456MOL0     O61449   0.269   0.669  10.324  0.5794 -0.5581 -0.4731
  456MOL0     C61450   0.237   0.790  10.258 -0.9551  0.2892  0.5022
  456MOL0     C61451   0.147   0.881  10.296 -0.8712  0.0227  0.6647
  456MOL0     C61452   0.121   0.993  10.209  0.1165  1.0303  1.0187
  456MOL0     C61453   0.199   1.016  10.092 -0.0789 -0.1236  0.1615
  456MOL0     C61454   0.169   1.122  10.002 -0.6175  0.9762 -0.6478
  456MOL0     O61455   0.250   1.133   9.897 -0.7212  0.6531  0.1396
  456MOL0     C61456   0.227   1.211   9.785  0.3151  0.2170 -1.1212
  456MOL0     C61457   0.330   1.241   9.695  0.6039  0.3339 -1.0726
  456MOL0     C61458   0.305   1.273   9.563 -0.4528  0.1035  0.6616
  456MOL0     C61459   0.182   1.326   9.523  0.5243  0.2662 -0.5446
  456MOL0     O61460   0.181   1.368   9.397 -0.1646 -0.2590 -0.1789
  456MOL0     C61461   0.105   1.485   9.355 -0.0690  0.3248 -0.1356
  456MOL0     C61462   0.192   1.603   9.375  0.9161  0.2928 -0.3791
  456MOL0     C61463   0.107   1.735   9.352 -0.5835 -0.3162 -0.2371
  456MOL0     C61464   0.153   1.859   9.433  0.1756  0.1448  0.2715
  456MOL0     C61465   0.077   1.982   9.382 -0.4729  0.4905  0.3612
  456MOL0     C61466   0.111   2.092   9.477  0.6855 -0.3582  0.6083
  456MOL0     C61467   0.053   2.231   9.434  0.2425 -0.3771  0.6352
  456MOL0     C61468   0.116   2.343   9.543 -0.4265  0.2494  0.2725
  456MOL0    Cl61469   0.015   2.489   9.552 -0.0985  0.3777  0.2567
  456MOL0     C61470   0.074   1.304   9.610 -0.5198  0.0902 -0.6842
  456MOL0     C61471   0.098   1.243   9.741  0.8005  0.5240  0.0895
  456MOL0     O61472   0.078   1.198  10.035  1.0093  0.1084  0.0515
  456MOL0     C61473   0.307   0.930  10.074 -0.9232  0.8872 -0.6876
  456MOL0     C61474   0.326   0.813  10.152  0.1716 -0.1942 -0.0714
  456MOL0     N61475   0.800   0.598  10.406  1.5067 -0.7764  0.7258
  456MOL0     N61476   0.897   0.652  10.330  0.6379  0.5622  1.1981
  456MOL0     C61477   1.291   0.981   9.227  0.0062 -1.1530  0.9442
  456MOL0     C61478   1.325   1.036   9.104 -0.7812  0.4777 -0.7064
  456MOL0     C61479   1.508   1.208   8.754  0.1565  0.1632  1.1347
  456MOL0     C61480   1.482   1.346   8.720 -0.0766 -0.0850  0.1892
  456MOL0     C61481   1.494   1.401   8.588 -0.5308 -0.1998 -0.3670
  456MOL0     C61482   1.521   1.303   8.492  0.4578  0.4944  1.2692
  456MOL0     O61483   1.516   1.335   8.357  0.6233 -0.2653 -0.0519
  456MOL0     C61484   1.499   1.484   8.325 -0.1177  0.6370 -0.2191
  456MOL0     C61485   1.355   1.512   8.308 -0.1281  1.4704 -0.6779
  456MOL0     C61486   1.291   1.433   8.195  0.8337 -0.2041  0.7026
  456MOL0     C61487   1.145   1.476   8.166 -0.6491  0.9748  0.6399
  456MOL0     C61488   1.096   1.419   8.038  0.6095  0.8454 -0.4715
  456MOL0     C61489   1.057   1.377   7.931 -0.6135  0.7922  0.0579
  456MOL0     C61490   1.541   1.165   8.521 -0.8771 -0.0228 -0.2984
  456MOL0     C61491   1.545   1.126   8.656 -0.4839 -0.1001 -0.3689
  456MOL0     C61492   1.601   0.986   8.665 -0.2463  0.2316 -0.2619
  456MOL0     H61493   1.645   0.928   9.101 -1.1919  0.7123 -2.3214
  456MOL0     H61494   1.597   0.869   9.335 -1.4298  0.1977  1.6451
  456MOL0     H61495   1.525   0.802   9.530  0.4775  0.3086 -2.5371
  456MOL0     H61496   1.482   0.974   9.544 -2.2591  1.4700  1.3476
  456MOL0     H61497   1.390   0.737   9.706  2.7353  0.1794  1.2436
  456MOL0     H61498   1.263   0.854   9.662  1.4799  1.0984  0.0100
  456MOL0     H61499   1.484   0.999   9.759 -0.6019  2.0046  2.7916
  456MOL0     H61500   1.497   0.860   9.848 -1.3807 -2.4670 -1.0045
  456MOL0     H61501   1.349   1.037   9.964 -1.4650 -2.6840  2.7610
  456MOL0     H61502   1.237   1.039   9.831 -0.0250  1.8479  0.7838
  456MOL0     H61503   1.189   0.795   9.885  1.2129 -0.1033 -0.0758
  456MOL0     H61504   1.307   0.796  10.016 -0.7130 -0.7016  1.8373
  456MOL0     H61505   1.182   0.988  10.133  0.1825 -1.0844  0.7416
  456MOL0     H61506   1.052   0.962  10.007 -0.2767  1.6242  1.8564
  456MOL0     H61507   1.143   0.728  10.188  3.3852  0.3966 -2.8100
  456MOL0     H61508   0.985   0.764  10.113 -0.2342 -0.5404  0.0642
  456MOL0     H61509   1.095   0.897  10.350 -2.0685  1.6271  1.3149
  456MOL0     H61510   0.976   0.965  10.245  1.7122 -1.0429 -2.2028
  456MOL0     H61511   0.823   0.918  10.500 -0.5550 -0.2270  0.6389
  456MOL0     H61512   0.645   0.631  10.641  1.6012  2.0103  0.4656
  456MOL0     H61513   0.640   0.794  10.639  3.2332 -0.2498  0.2292
  456MOL0     H61514   0.556   0.776  10.391  0.6743 -1.4942 -0.5946
  456MOL0     H61515   0.523   0.609  10.427  1.5044  0.6066 -2.0552
  456MOL0     H61516   0.378   0.855  10.486  0.2257  1.7567  2.9968
  456MOL0     H61517   0.369   0.751  10.630 -1.4003 -1.4016 -0.7287
  456MOL0     H61518   0.165   0.717  10.505 -0.9182 -0.9512 -0.2064
  456MOL0     H61519   0.254   0.579  10.505  0.7897  0.1215 -0.3030
  456MOL0     H61520   0.087   0.846  10.380  1.2691 -0.5988  1.9967
  456MOL0     H61521   0.048   1.069  10.237  0.2119  1.8136 -0.7031
  456MOL0     H61522   0.422   1.198   9.733  1.7566  4.8117  2.0006
  456MOL0     H61523   0.378   1.256   9.485  0.9887  1.5933  1.6215
  456MOL0     H61524   0.088   1.465   9.249  0.3649 -0.0246 -0.1424
  456MOL0     H61525   0.003   1.495   9.393 -1.2851  0.5864 -3.1554
  456MOL0     H61526   0.227   1.601   9.479 -0.9336 -0.8914  0.2551
  456MOL0     H61527   0.275   1.591   9.304  1.4348 -2.0475  0.5473
  456MOL0     H61528   0.114   1.747   9.243  2.6279  0.2567 -0.0554
  456MOL0     H61529   0.010   1.713   9.398  0.9821 -2.2581  2.4474
  456MOL0     H61530   0.257   1.884   9.411 -0.8809  3.4568 -1.5078
  456MOL0     H61531   0.120   1.845   9.537 -1.8937  0.8163 -0.2635
  456MOL0     H61532  -0.030   1.960   9.378 -0.6829  1.4546  0.3647
  456MOL0     H61533   0.117   2.004   9.282  0.3197 -1.6280  0.1683
  456MOL0     H61534   0.062   2.063   9.570  0.9131  0.8042  1.1071
  456MOL0     H61535   0.219   2.105   9.485  0.6788  0.5158 -0.4744
  456MOL0     H61536  -0.056   2.231   9.438  0.0448 -0.2821 -2.4668
  456MOL0     H61537   0.083   2.258   9.333 -1.7171 -3.0121 -0.7812
  456MOL0     H61538   0.118   2.297   9.643  2.6229  0.5175  0.4067
  456MOL0     H61539   0.220   2.359   9.514 -1.2510  3.6028 -1.3100
  456MOL0     H61540  -0.030   1.313   9.579 -0.2539  0.8073 -1.3742
  456MOL0     H61541   0.017   1.197   9.797  1.6870  1.1005  1.9377
  456MOL0     H61542   0.379   0.950   9.995  0.8654  0.8501  0.8518
  456MOL0     H61543   0.406   0.742  10.133 -1.1773 -1.7982  0.0425
  456MOL0     H61544   1.189   0.999   9.258 -0.6077 -2.3984 -0.2635
  456MOL0     H61545   1.249   1.078   9.039 -1.3111 -1.2166 -1.2394
  456MOL0     H61546   1.449   1.414   8.798 -0.2821  0.6435 -0.5091
  456MOL0     H61547   1.492   1.509   8.576 -0.5479 -0.1590 -0.0300
  456MOL0     H61548   1.544   1.493   8.226  1.0686  0.8083  0.3149
  456MOL0     H61549   1.563   1.551   8.385  2.7592 -0.7262 -1.5642
  456MOL0     H61550   1.359   1.617   8.276  2.1084  1.9346  0.9018
  456MOL0     H61551   1.290   1.505   8.395  0.8565  1.6806  0.0822
  456MOL0     H61552   1.293   1.325   8.216  0.2549 -1.2973 -3.8032
  456MOL0     H61553   1.339   1.444   8.098 -0.3390 -1.8305 -0.1032
  456MOL0     H61554   1.079   1.453   8.251 -2.4208  2.9882 -0.0976
  456MOL0     H61555   1.152   1.584   8.156  0.8069  0.6841 -2.2936
  456MOL0     H61556   1.034   1.317   7.845 -4.4689 -0.1748  1.5768
  456MOL0     H61557   1.585   1.100   8.446 -2.2596 -2.4348  0.8612
  456MOL0     H61558   1.523   0.913   8.642  0.5063 -0.7725  0.2646
  456MOL0     H61559   1.694   0.974   8.609 -0.4641 -0.8374 -0.4128
  456MOL0     H61560   1.630   0.941   8.761 -3.0219 -3.9704 -1.1279
  457MOL0     O61561   1.752   4.875   7.266 -0.3808 -0.2476  0.0485
  457MOL0     C61562   1.874   4.902   7.247 -1.3769  0.4777 -0.1809
  457MOL0     O61563   1.967   4.890   7.345 -0.9531 -0.0118  0.0989
  457MOL0     C61564   1.932   4.857   7.473 -0.0781 -0.2315  0.3529
  457MOL0     C61565   1.826   4.918   7.540  0.4174  0.0498 -0.3984
  457MOL0     C61566   1.789   4.872   7.662  0.0308 -1.0095  0.2213
  457MOL0     C61567   1.839   4.749   7.725  0.8381 -0.5011 -0.0812
  457MOL0     O61568   1.815   4.707   7.849  0.0895  0.0307 -0.0134
  457MOL0     C61569   1.688   4.738   7.911 -0.9992  0.3291 -1.0015
  457MOL0     C61570   1.712   4.791   8.055  0.4944  0.1136 -0.0403
  457MOL0     C61571   1.583   4.858   8.093 -1.0209 -0.4755  0.3405
  457MOL0     C61572   1.585   4.898   8.235 -0.8729  0.3439 -0.0404
  457MOL0     C61573   1.474   4.990   8.281  0.3152  0.0872  0.1609
  457MOL0     C61574   1.482   5.060   8.423  0.3071  1.1080 -0.2875
  457MOL0     C61575   1.376   5.165   8.460 -0.6638  0.3952  0.0830
  457MOL0     C61576   1.405   5.233   8.594  0.2353  1.2462  0.3434
  457MOL0     N61577   1.278   5.255   8.668 -0.1354  0.1021  0.1266
  457MOL0     C61578   1.207   5.159   8.732 -0.6524 -0.1860  0.3703
  457MOL0     C61579   1.099   5.230   8.767  0.5362 -0.7113 -1.2326
  457MOL0     C61580   0.977   5.185   8.845 -0.0832 -0.6540  0.1882
  457MOL0     C61581   0.845   5.249   8.798  0.0331  0.3107  0.4142
  457MOL0     C61582   0.803   5.375   8.872  0.1655 -0.9627 -0.5049
  457MOL0     C61583   0.687   5.445   8.790 -0.6044  0.1414 -0.4039
  457MOL0     O61584   0.667   5.582   8.837  0.3324 -0.0396  0.1606
  457MOL0     C61585   0.553   5.648   8.785 -0.4267  0.5553 -0.0676
  457MOL0     C61586   0.488   5.598   8.673  0.8785 -0.1672  0.5899
  457MOL0     C61587   0.367   5.662   8.639  0.9806 -0.0324  0.1720
  457MOL0     C61588   0.333   5.787   8.699  0.2033  0.1451 -1.0178
  457MOL0     C61589   0.218   5.859   8.660  0.9514 -0.6314  0.3842
  457MOL0     O61590   0.152   5.814   8.545  0.3777 -0.1648 -0.7544
  457MOL0     C61591   0.079   5.897   8.465 -0.4542  0.4591 -0.4976
  457MOL0     C61592  -0.033   5.852   8.399  0.9504 -0.2500 -0.3832
  457MOL0     C61593  -0.092   5.935   8.302  0.2659  0.7797  0.2011
  457MOL0     C61594  -0.046   6.063   8.279  1.0462 -1.3783  0.0374
  457MOL0     O61595  -0.085   6.149   8.176 -0.5672 -0.4799 -0.4012
  457MOL0     C61596  -0.173   6.114   8.070 -0.4902  0.4894 -0.4811
  457MOL0     C61597  -0.100   6.024   7.970  0.3802 -0.0707  0.3069
  457MOL0     C61598  -0.174   6.027   7.829  0.4402 -0.7076  0.3011
  457MOL0     C61599  -0.311   5.957   7.836  0.2707  0.9455 -0.0818
  457MOL0     C61600  -0.387   5.977   7.699 -0.2770 -0.7122 -0.0854
  457MOL0     C61601  -0.526   5.919   7.711 -0.1824 -0.2875  0.1926
  457MOL0     C61602  -0.621   6.013   7.783 -0.2985 -0.3826  0.6052
  457MOL0     C61603  -0.762   5.945   7.788  0.0388 -0.1539  0.0013
  457MOL0    Cl61604  -0.757   5.799   7.902 -0.2451 -0.2791 -0.6238
  457MOL0     C61605   0.052   6.109   8.366 -0.3219 -0.2035 -0.8706
  457MOL0     C61606   0.125   6.026   8.452  0.5785 -1.0866  0.6388
  457MOL0     O61607   0.199   5.965   8.729  0.0048 -0.6406 -0.3947
  457MOL0     C61608   0.413   5.836   8.804 -0.0911  0.1892 -0.4778
  457MOL0     C61609   0.526   5.770   8.846  0.5005  0.4383 -0.0163
  457MOL0     N61610   1.121   5.365   8.749  0.9508 -0.3346  0.1459
  457MOL0     N61611   1.231   5.382   8.693  0.4800 -0.1712 -0.1626
  457MOL0     C61612   1.940   4.692   7.657 -1.4543 -0.5702 -0.7838
  457MOL0     C61613   1.989   4.739   7.536  1.0024 -0.0004  0.0354
  457MOL0     C61614   1.928   4.936   7.104 -0.0692  0.3123 -0.0244
  457MOL0     C61615   2.046   4.877   7.069  0.1681 -0.1550  0.5216
  457MOL0     C61616   2.108   4.911   6.945  1.0501  0.0166 -0.2601
  457MOL0     C61617   2.037   4.984   6.844  0.2393  0.1790 -0.6945
  457MOL0     O61618   2.100   5.008   6.728  0.1011 -0.1421  0.1652
  457MOL0     C61619   2.078   5.121   6.648 -0.4352  0.0558  0.4380
  457MOL0     C61620   2.214   5.136   6.563  0.1144 -0.2330 -0.7655
  457MOL0     C61621   2.246   5.008   6.479  0.0360 -0.4641 -0.1196
  457MOL0     C61622   2.346   5.040   6.365 -0.3207 -0.5825 -0.9373
  457MOL0     C61623   2.461   5.129   6.405  0.4399 -0.0076  0.7162
  457MOL0     C61624   2.553   5.197   6.444  1.8994  0.0724  0.4498
  457MOL0     C61625   1.914   5.034   6.879  0.0832 -1.2618 -0.0910
  457MOL0     C61626   1.859   5.012   7.005  0.0771  0.7576 -0.0237
  457MOL0     C61627   1.714   5.070   7.039  0.8239  1.0336  0.5637
  457MOL0     H61628   1.791   5.011   7.496 -2.4177 -1.4971 -1.6386
  457MOL0     H61629   1.714   4.937   7.708 -0.2099  0.0267 -1.5589
  457MOL0     H61630   1.620   4.809   7.862 -0.3642  0.7226 -1.3188
  457MOL0     H61631   1.636   4.642   7.920 -0.6908 -0.2950 -4.4593
  457MOL0     H61632   1.783   4.874   8.056  0.2839  0.3871 -2.0375
  457MOL0     H61633   1.741   4.717   8.130 -0.0500 -0.0805 -0.0197
  457MOL0     H61634   1.497   4.797   8.066 -1.2453  0.8525 -2.2441
  457MOL0     H61635   1.587   4.946   8.029  3.2046 -0.6259  0.0845
  457MOL0     H61636   1.568   4.802   8.285  0.1629 -0.6547 -1.4950
  457MOL0     H61637   1.675   4.950   8.267 -0.8038 -0.1878  0.6391
  457MOL0     H61638   1.492   5.071   8.210  2.1147  0.6459  1.1985
  457MOL0     H61639   1.373   4.949   8.267  0.6293  0.1363 -2.9999
  457MOL0     H61640   1.473   4.984   8.501 -2.7457 -0.7764 -2.2411
  457MOL0     H61641   1.581   5.106   8.427  0.7685  0.0419  1.5275
  457MOL0     H61642   1.291   5.096   8.464 -0.7463  0.4917  0.0081
  457MOL0     H61643   1.362   5.239   8.381 -0.0617  1.2648  0.7675
  457MOL0     H61644   1.480   5.177   8.650 -1.1896 -1.0846  0.0639
  457MOL0     H61645   1.444   5.333   8.570  2.7321  0.9870  2.8011
  457MOL0     H61646   1.215   5.053   8.754 -0.9751 -0.4552 -0.7474
  457MOL0     H61647   0.975   5.077   8.827 -0.2015 -0.3463 -1.8292
  457MOL0     H61648   0.995   5.208   8.951  0.7739 -1.8752  0.3265
  457MOL0     H61649   0.856   5.266   8.690  0.4699 -0.1516  0.3821
  457MOL0     H61650   0.766   5.174   8.807  1.0432 -0.6424  1.5228
  457MOL0     H61651   0.876   5.456   8.881 -1.9005  0.9018  0.4260
  457MOL0     H61652   0.777   5.353   8.975  2.6710 -2.3397 -0.0822
  457MOL0     H61653   0.589   5.398   8.806  0.3285 -1.1809  1.8788
  457MOL0     H61654   0.715   5.435   8.684  0.2939 -1.9752 -0.0024
  457MOL0     H61655   0.499   5.505   8.618  0.4886 -0.4479  0.9820
  457MOL0     H61656   0.297   5.621   8.567  1.0691 -0.8979  0.5609
  457MOL0     H61657  -0.077   5.756   8.424  2.5322 -0.9710 -0.2691
  457MOL0     H61658  -0.175   5.885   8.253 -0.0211 -1.1894  2.5247
  457MOL0     H61659  -0.260   6.058   8.107 -0.0617 -0.8497 -1.4388
  457MOL0     H61660  -0.201   6.212   8.029  0.5153  1.8916  1.9692
  457MOL0     H61661   0.002   6.061   7.956  0.2683 -0.5930 -2.4701
  457MOL0     H61662  -0.099   5.920   8.005  2.5051 -0.3763 -0.4953
  457MOL0     H61663  -0.205   6.124   7.791  0.4868 -1.4416 -1.7033
  457MOL0     H61664  -0.122   5.989   7.741 -3.4379  0.0467 -2.5614
  457MOL0     H61665  -0.367   5.999   7.920 -2.7031 -3.3269  0.4035
  457MOL0     H61666  -0.305   5.852   7.864 -0.5974  0.5122 -1.4409
  457MOL0     H61667  -0.334   5.928   7.617  1.3918 -2.3513  1.8511
  457MOL0     H61668  -0.383   6.084   7.676  3.0749 -0.2083  2.1379
  457MOL0     H61669  -0.567   5.902   7.611 -3.1723 -0.0431  1.2771
  457MOL0     H61670  -0.512   5.822   7.761  0.8865  1.5274  3.7251
  457MOL0     H61671  -0.624   6.099   7.717 -1.1496 -3.2428 -3.4597
  457MOL0     H61672  -0.581   6.042   7.881  1.8002  2.7398 -1.0008
  457MOL0     H61673  -0.835   6.020   7.819  2.9651  2.2871  1.5655
  457MOL0     H61674  -0.784   5.917   7.685  1.3913  1.3849 -0.7678
  457MOL0     H61675   0.077   6.214   8.352 -2.5333  0.2870 -1.4095
  457MOL0     H61676   0.216   6.061   8.500  1.1004  0.2686 -1.2210
  457MOL0     H61677   0.401   5.931   8.854  1.9388 -1.2831  3.2532
  457MOL0     H61678   0.578   5.824   8.925 -2.2498  0.0980  2.1653
  457MOL0     H61679   1.986   4.605   7.702 -0.2694  0.7926  0.7770
  457MOL0     H61680   2.063   4.681   7.483 -0.9756 -1.2836 -1.4641
  457MOL0     H61681   2.104   4.821   7.141 -2.5617 -0.5606  2.5629
  457MOL0     H61682   2.215   4.892   6.947  0.9209 -1.1172  3.8447
  457MOL0     H61683   2.040   5.206   6.706  0.5307 -0.1673  1.4310
  457MOL0     H61684   2.013   5.090   6.567 -0.2354 -2.5008  1.1740
  457MOL0     H61685   2.304   5.128   6.624 -0.9927  1.4914  1.2024
  457MOL0     H61686   2.198   5.232   6.513 -0.6852 -0.2803 -0.6201
  457MOL0     H61687   2.154   4.962   6.440  0.6761 -0.1426 -2.1218
  457MOL0     H61688   2.286   4.932   6.547  0.1782  0.3320  0.7075
  457MOL0     H61689   2.370   4.942   6.321 -0.8353 -0.5046 -1.4060
  457MOL0     H61690   2.286   5.091   6.289  0.8017  0.7104 -0.9814
  457MOL0     H61691   2.637   5.254   6.479  0.6750  3.2920 -1.4137
  457MOL0     H61692   1.857   5.087   6.804  4.3931  2.9249 -0.9628
  457MOL0     H61693   1.677   5.113   6.946 -2.3459 -1.7019  0.3762
  457MOL0     H61694   1.661   4.977   7.060  2.2430 -0.1334 -0.7549
  457MOL0     H61695   1.704   5.133   7.128 -0.9422  0.3555  0.8878
  458MOL0     O61696   9.930   4.749   9.608 -0.2640 -0.1007 -0.4659
  458MOL0     C61697   9.810   4.744   9.641  0.2369  0.4791  0.2594
  458MOL0     O61698   9.756   4.805   9.755  0.7214 -0.3772  0.1553
  458MOL0     C61699   9.837   4.851   9.855 -0.4761 -0.7132 -1.3946
  458MOL0     C61700   9.924   4.761   9.928  1.0934 -0.9445 -1.2646
  458MOL0     C61701  10.007   4.823  10.032  0.9310  0.4847  0.2021
  458MOL0     C61702  10.002   4.962  10.063 -1.1454  0.8059  0.8666
  458MOL0     O61703  10.091   5.005  10.156 -0.1245  0.4871 -0.2355
  458MOL0     C61704  10.118   5.145  10.177  0.7310 -0.1211 -0.0520
  458MOL0     C61705  10.190   5.188  10.306  0.1759  0.1273  0.4229
  458MOL0     C61706  10.257   5.321  10.288  0.0056 -0.2933  0.5722
  458MOL0     C61707  10.385   5.341  10.371 -0.3885 -0.2208 -1.3911
  458MOL0     C61708  10.359   5.417  10.499  0.0443  0.9395  0.8285
  458MOL0     C61709  10.488   5.443  10.569  0.0961  0.2430 -0.4115
  458MOL0     C61710  10.460   5.516  10.696 -0.1535  0.0358 -0.9615
  458MOL0     C61711  10.564   5.620  10.725 -0.0229  0.1048  0.0238
  458MOL0     N61712  10.684   5.554  10.773  0.6237 -0.4705  0.5081
  458MOL0     C61713  10.726   5.546  10.904  0.6975  0.3237  0.6915
  458MOL0     C61714  10.845   5.483  10.891 -0.1878  0.3755 -0.5407
  458MOL0     C61715  10.933   5.478  11.007 -0.3343  0.8679 -0.6780
  458MOL0     C61716  10.995   5.613  11.041 -0.5827 -0.9317  0.3465
  458MOL0     C61717  11.127   5.612  11.103  0.2574 -0.0437 -0.1258
  458MOL0     C61718  11.202   5.735  11.079  0.2163 -0.1175 -0.6013
  458MOL0     O61719  11.213   5.764  10.940 -0.0852 -0.4168 -0.3683
  458MOL0     C61720  11.270   5.882  10.895 -0.8113 -0.0185 -0.0884
  458MOL0     C61721  11.331   5.980  10.971  0.0359 -0.2571  0.3195
  458MOL0     C61722  11.390   6.091  10.910  0.4996 -0.1551  0.0519
  458MOL0     C61723  11.386   6.107  10.764 -0.1075 -0.1973  0.1971
  458MOL0     C61724  11.472   6.214  10.695  0.0414 -0.1985 -0.3768
  458MOL0     O61725  11.445   6.226  10.565 -0.2309 -0.3508  0.3195
  458MOL0     C61726  11.479   6.327  10.476 -0.8029 -0.5391  0.2215
  458MOL0     C61727  11.432   6.309  10.349 -0.4176 -0.2973  1.4460
  458MOL0     C61728  11.442   6.407  10.251 -0.6164 -0.6562 -0.4376
  458MOL0     C61729  11.506   6.529  10.281 -0.2303  0.1644 -0.6174
  458MOL0     O61730  11.522   6.642  10.200 -0.3886 -0.3182  0.0491
  458MOL0     C61731  11.583   6.602  10.072  0.1691 -1.4257 -0.0521
  458MOL0     C61732  11.683   6.715  10.032  0.3200  0.3989  0.0829
  458MOL0     C61733  11.617   6.850  10.002  0.8212  0.5773 -0.7875
  458MOL0     C61734  11.496   6.828   9.908 -0.6953 -0.9648 -0.6662
  458MOL0     C61735  11.448   6.966   9.860 -0.1536 -0.2659 -0.5681
  458MOL0     C61736  11.340   6.955   9.754  0.3648 -1.0306  0.5730
  458MOL0     C61737  11.290   7.096   9.721 -0.9006 -0.1569  0.8087
  458MOL0     C61738  11.149   7.111   9.663 -0.1357 -0.9154 -0.2706
  458MOL0    Cl61739  11.144   7.213   9.523 -0.1045 -0.3088  0.1386
  458MOL0     C61740  11.552   6.543  10.408 -0.6790  0.7534 -0.1059
  458MOL0     C61741  11.526   6.454  10.510  0.4218  0.6775  0.6127
  458MOL0     O61742  11.564   6.268  10.747  0.4805 -0.3642 -0.7311
  458MOL0     C61743  11.321   6.010  10.697  0.7993  0.7385  0.5343
  458MOL0     C61744  11.266   5.896  10.757  1.2729  0.6590 -0.1453
  458MOL0     N61745  10.878   5.447  10.753  0.1565 -0.3586  0.2915
  458MOL0     N61746  10.774   5.491  10.681 -0.7693  0.4611  0.2427
  458MOL0     C61747   9.911   5.040   9.988  0.2260 -0.5236  0.4194
  458MOL0     C61748   9.828   4.989   9.888  0.4342  0.1434 -0.2642
  458MOL0     C61749   9.709   4.687   9.542 -0.5782 -0.2495 -0.4390
  458MOL0     C61750   9.770   4.607   9.442 -0.4451 -0.3061  0.0805
  458MOL0     C61751   9.701   4.524   9.358  0.2431 -0.3214 -0.3177
  458MOL0     C61752   9.559   4.522   9.372 -0.1144 -0.0798 -0.0676
  458MOL0     O61753   9.483   4.428   9.304  0.0298  0.6833  0.1679
  458MOL0     C61754   9.526   4.288   9.311 -0.0442 -0.5948 -0.1578
  458MOL0     C61755   9.414   4.188   9.262 -0.4764 -0.2526 -0.1580
  458MOL0     C61756   9.444   4.053   9.320  0.5432 -0.7895  0.2748
  458MOL0     C61757   9.591   4.008   9.303 -0.1650 -0.2806  0.0444
  458MOL0     C61758   9.600   3.887   9.383 -0.8418  0.1489 -0.6843
  458MOL0     C61759   9.591   3.790   9.449  0.1650  0.0208 -0.1632
  458MOL0     C61760   9.488   4.598   9.464  0.5080  0.0791 -0.7485
  458MOL0     C61761   9.562   4.682   9.542 -0.0289 -0.3039 -0.9317
  458MOL0     C61762   9.475   4.755   9.637  0.2740 -0.1923 -0.4726
  458MOL0     H61763   9.938   4.656   9.906  2.1874 -1.5013  1.6172
  458MOL0     H61764  10.073   4.760  10.090  0.3589 -0.3720 -0.0503
  458MOL0     H61765  10.176   5.183  10.092  1.7720 -0.6404  0.4064
  458MOL0     H61766  10.027   5.206  10.183  1.7481  1.3365  1.0573
  458MOL0     H61767  10.258   5.109  10.339  1.1360  0.9096  0.3645
  458MOL0     H61768  10.113   5.203  10.382  0.5397 -1.0716  1.0529
  458MOL0     H61769  10.196   5.411  10.303  1.4839  0.3799  3.1194
  458MOL0     H61770  10.294   5.329  10.185 -1.6402 -0.9327 -0.0942
  458MOL0     H61771  10.423   5.242  10.397 -0.6984  0.2995  1.3271
  458MOL0     H61772  10.460   5.401  10.320 -1.2807  1.7776 -0.4588
  458MOL0     H61773  10.329   5.521  10.480  0.8520  1.0587  0.1411
  458MOL0     H61774  10.294   5.360  10.566  1.0153 -0.9057  0.2651
  458MOL0     H61775  10.536   5.346  10.587 -2.7642 -1.4715 -1.3271
  458MOL0     H61776  10.546   5.500  10.496 -0.0041  2.5570  1.1940
  458MOL0     H61777  10.456   5.453  10.786 -3.0241  1.7042  0.2215
  458MOL0     H61778  10.365   5.570  10.689  0.1077  0.5940 -0.3291
  458MOL0     H61779  10.592   5.676  10.635 -2.9976 -0.1804 -1.1992
  458MOL0     H61780  10.537   5.693  10.801 -0.7454  0.1439 -0.2627
  458MOL0     H61781  10.681   5.585  10.995  0.5109 -0.1180  0.7921
  458MOL0     H61782  10.867   5.443  11.087 -2.0261 -1.0080 -2.7910
  458MOL0     H61783  11.002   5.396  10.989 -1.4498 -0.5037  0.9653
  458MOL0     H61784  10.983   5.672  10.950  0.0899  0.1449  0.9323
  458MOL0     H61785  10.920   5.670  11.098 -2.6153  1.1345 -3.9785
  458MOL0     H61786  11.182   5.531  11.056  2.6352  1.8470 -0.8052
  458MOL0     H61787  11.121   5.597  11.211  2.7732  0.7136  0.1866
  458MOL0     H61788  11.299   5.721  11.128  0.0136 -2.1912 -0.7240
  458MOL0     H61789  11.153   5.814  11.136  1.4460  1.7765 -2.0377
  458MOL0     H61790  11.333   5.962  11.078  0.8330  1.7576  0.6993
  458MOL0     H61791  11.433   6.173  10.967 -2.1498  0.3238  1.5214
  458MOL0     H61792  11.366   6.226  10.325 -0.7790  0.7058 -1.3331
  458MOL0     H61793  11.404   6.384  10.152  2.3524 -1.2966 -1.5268
  458MOL0     H61794  11.637   6.507  10.074  1.6255 -0.7050 -1.7324
  458MOL0     H61795  11.501   6.592  10.000  0.0056 -0.7410  0.0264
  458MOL0     H61796  11.761   6.722  10.108  0.9276  2.4090 -0.6755
  458MOL0     H61797  11.730   6.684   9.938  1.3058  0.3612  0.5870
  458MOL0     H61798  11.584   6.879  10.102 -1.0163  0.8621 -1.4500
  458MOL0     H61799  11.693   6.916   9.958 -0.3347  2.0596 -0.6128
  458MOL0     H61800  11.408   6.785   9.955 -2.3100  3.2716  0.6243
  458MOL0     H61801  11.535   6.768   9.824 -2.1001 -0.4673 -1.7155
  458MOL0     H61802  11.537   7.012   9.815 -1.5037  4.3687  0.8875
  458MOL0     H61803  11.409   7.018   9.947 -3.8364 -3.0643 -0.3021
  458MOL0     H61804  11.378   6.915   9.660  1.1429  2.8384 -0.9404
  458MOL0     H61805  11.251   6.904   9.792  0.6065  0.2002  2.9380
  458MOL0     H61806  11.362   7.141   9.652 -2.2186 -1.4137 -1.5411
  458MOL0     H61807  11.290   7.161   9.808  0.9468  1.4920 -0.3397
  458MOL0     H61808  11.106   7.012   9.648 -1.1483 -1.7721  5.7832
  458MOL0     H61809  11.072   7.146   9.732  1.6900  1.0605  0.9250
  458MOL0     H61810  11.615   6.628  10.433  2.1690 -1.1743 -0.2517
  458MOL0     H61811  11.543   6.476  10.615  1.1000 -1.0181  0.8893
  458MOL0     H61812  11.326   6.018  10.589 -0.7211  2.9235  0.5539
  458MOL0     H61813  11.220   5.811  10.706  2.7496 -2.4222  3.2102
  458MOL0     H61814   9.906   5.146  10.013 -3.5471 -0.8427  1.5447
  458MOL0     H61815   9.757   5.052   9.836  3.4626  3.3642 -0.8919
  458MOL0     H61816   9.878   4.607   9.427 -0.3792  3.5502 -0.3169
  458MOL0     H61817   9.746   4.461   9.282  4.4077 -1.5805  2.7885
  458MOL0     H61818   9.564   4.267   9.411  1.2715 -0.3805 -0.5929
  458MOL0     H61819   9.616   4.282   9.249 -2.1751 -0.0280 -3.5919
  458MOL0     H61820   9.392   4.188   9.155 -2.9592  1.1171  0.2781
  458MOL0     H61821   9.321   4.223   9.308 -0.4051  1.1476 -1.0031
  458MOL0     H61822   9.380   3.973   9.281 -0.5906  0.3331 -0.2217
  458MOL0     H61823   9.423   4.061   9.427 -1.4146  1.3151 -0.2011
  458MOL0     H61824   9.628   3.983   9.203 -1.6578 -0.5730 -0.4613
  458MOL0     H61825   9.653   4.088   9.344  2.5315 -1.9852 -0.4445
  458MOL0     H61826   9.580   3.692   9.491  2.8895 -0.3768 -0.2289
  458MOL0     H61827   9.381   4.582   9.463  0.0579  2.5550 -0.0715
  458MOL0     H61828   9.421   4.692   9.708 -0.2815  0.8907  0.0826
  458MOL0     H61829   9.525   4.838   9.689  0.9628 -1.6669  1.3155
  458MOL0     H61830   9.390   4.799   9.585  0.5841  0.7766 -0.1933
  459MOL0     O61831   8.838   5.800   8.227 -0.0584 -0.3905  0.2965
  459MOL0     C61832   8.744   5.727   8.211  0.2569 -0.1046  0.3630
  459MOL0     O61833   8.746   5.599   8.181 -0.1051  0.3434 -0.0175
  459MOL0     C61834   8.869   5.550   8.163 -0.4583  0.6159 -0.0135
  459MOL0     C61835   8.926   5.478   8.266 -0.3827  0.1117  0.3869
  459MOL0     C61836   9.053   5.419   8.253 -0.4452 -0.2729  0.4721
  459MOL0     C61837   9.123   5.433   8.128 -0.5887 -0.3719 -0.6465
  459MOL0     O61838   9.234   5.363   8.094 -0.2056  0.1345 -0.0643
  459MOL0     C61839   9.285   5.265   8.188 -0.7801 -0.0100 -0.4173
  459MOL0     C61840   9.421   5.218   8.139 -0.0290  0.8425 -0.2639
  459MOL0     C61841   9.428   5.075   8.084  0.6558  0.0197  0.9966
  459MOL0     C61842   9.420   4.956   8.185 -0.4720 -0.6477 -0.9870
  459MOL0     C61843   9.402   4.826   8.125  0.6851  0.4568  0.1292
  459MOL0     C61844   9.391   4.725   8.239 -0.0836 -0.2868  0.6346
  459MOL0     C61845   9.259   4.740   8.318  0.0754  0.6538  0.4524
  459MOL0     C61846   9.165   4.630   8.266  0.3220 -0.7732 -0.4821
  459MOL0     N61847   9.027   4.635   8.318  0.5411 -0.2040  0.2097
  459MOL0     C61848   8.932   4.547   8.268 -0.6863  0.1288  0.1312
  459MOL0     C61849   8.826   4.551   8.352 -0.6114 -0.2236  0.8125
  459MOL0     C61850   8.695   4.481   8.335 -0.4056 -0.7605  0.0829
  459MOL0     C61851   8.586   4.587   8.308 -0.3705  0.9773  0.5630
  459MOL0     C61852   8.577   4.616   8.154  0.4619  0.1261 -0.1881
  459MOL0     C61853   8.469   4.725   8.125 -0.2876 -0.1278 -0.9566
  459MOL0     O61854   8.487   4.793   8.003 -0.7220 -0.4477  0.7052
  459MOL0     C61855   8.487   4.730   7.877 -0.3371  0.7834 -0.9919
  459MOL0     C61856   8.447   4.598   7.849  0.2974 -0.6080 -0.1680
  459MOL0     C61857   8.448   4.541   7.715 -0.1404 -0.3286 -1.1909
  459MOL0     C61858   8.494   4.626   7.610 -0.0566 -0.1344 -0.0694
  459MOL0     C61859   8.482   4.582   7.468 -0.2849 -0.3570  0.3581
  459MOL0     O61860   8.480   4.448   7.455 -0.6178  0.2326  0.2407
  459MOL0     C61861   8.438   4.395   7.331 -0.4332  0.8610  1.3292
  459MOL0     C61862   8.523   4.328   7.242  0.0090 -0.6273  0.7456
  459MOL0     C61863   8.476   4.292   7.110  0.4636 -1.1226  0.6746
  459MOL0     C61864   8.344   4.328   7.063  0.0579 -0.5912 -0.8946
  459MOL0     O61865   8.304   4.309   6.933  0.3521  0.7352  1.1928
  459MOL0     C61866   8.365   4.199   6.859  0.5274 -0.4032  0.4924
  459MOL0     C61867   8.385   4.271   6.726  0.5983 -0.6031  0.2036
  459MOL0     C61868   8.385   4.185   6.608  0.2227  0.3380 -0.1188
  459MOL0     C61869   8.443   4.270   6.495 -0.0461 -0.5549  0.5340
  459MOL0     C61870   8.421   4.211   6.351 -0.2225 -0.3039  0.1893
  459MOL0     C61871   8.434   4.336   6.262  0.4294 -0.5722  0.5576
  459MOL0     C61872   8.413   4.301   6.113  0.3699  0.4320 -0.6468
  459MOL0     C61873   8.439   4.422   6.022  0.0301  0.0840 -0.2028
  459MOL0    Cl61874   8.599   4.505   6.057  0.2059 -0.0259 -0.2755
  459MOL0     C61875   8.258   4.375   7.160 -0.6510 -0.6080 -0.4451
  459MOL0     C61876   8.297   4.400   7.294 -1.0083 -0.8039  0.1761
  459MOL0     O61877   8.487   4.670   7.379 -0.6010 -0.3650 -0.1098
  459MOL0     C61878   8.532   4.763   7.641 -0.5980 -0.8582  0.1684
  459MOL0     C61879   8.528   4.805   7.776  0.2179 -0.5394 -0.5365
  459MOL0     N61880   8.867   4.615   8.465 -0.7621  1.0186 -0.5371
  459MOL0     N61881   8.980   4.679   8.442  1.5652 -0.1944  1.3010
  459MOL0     C61882   9.077   5.520   8.030  0.6755  0.8693 -0.3361
  459MOL0     C61883   8.950   5.582   8.050 -0.6758  0.4189  1.2048
  459MOL0     C61884   8.605   5.786   8.228  1.4384 -0.3613 -0.5660
  459MOL0     C61885   8.584   5.921   8.178  0.8058 -0.2197 -0.2171
  459MOL0     C61886   8.458   5.981   8.180 -0.3826 -0.0482  0.3807
  459MOL0     C61887   8.355   5.902   8.194 -0.3169  0.3357  0.6516
  459MOL0     O61888   8.226   5.944   8.166 -0.7632 -0.0085  0.4928
  459MOL0     C61889   8.180   6.080   8.131 -0.1609  0.0220  0.2668
  459MOL0     C61890   8.061   6.124   8.211  0.2219  0.2229  0.6481
  459MOL0     C61891   8.033   6.268   8.192 -1.0906 -0.6458  0.0270
  459MOL0     C61892   7.903   6.306   8.134  0.4752 -0.3369  0.3356
  459MOL0     C61893   7.802   6.318   8.239  0.2850  0.0644  0.1411
  459MOL0     C61894   7.722   6.363   8.317  0.5627 -0.0529 -0.0385
  459MOL0     C61895   8.363   5.774   8.248  0.1652  0.1774  0.0556
  459MOL0     C61896   8.483   5.711   8.269 -0.0165  0.2724  0.4520
  459MOL0     C61897   8.488   5.566   8.309 -0.4571  0.2743  0.5936
  459MOL0     H61898   8.864   5.453   8.351  0.0208  1.6090  1.1595
  459MOL0     H61899   9.080   5.349   8.330  0.4858  1.6759  1.9860
  459MOL0     H61900   9.306   5.304   8.288  1.3757  0.8589 -1.1333
  459MOL0     H61901   9.227   5.173   8.197  2.2438 -1.9443  1.4416
  459MOL0     H61902   9.487   5.238   8.224 -0.5928 -0.6880  0.5647
  459MOL0     H61903   9.456   5.271   8.049 -1.7844  0.4405 -1.2347
  459MOL0     H61904   9.520   5.056   8.028  0.7186  2.8317 -0.0377
  459MOL0     H61905   9.351   5.047   8.012  1.0108 -2.3369  1.4582
  459MOL0     H61906   9.514   4.965   8.240 -0.5072  2.8364 -1.2877
  459MOL0     H61907   9.347   4.979   8.263 -1.4415 -0.9097 -1.7986
  459MOL0     H61908   9.302   4.824   8.080 -0.0537  1.8368  1.5807
  459MOL0     H61909   9.483   4.810   8.054  0.5507 -1.5662  0.3559
  459MOL0     H61910   9.408   4.625   8.197  1.5596  0.1361  0.1984
  459MOL0     H61911   9.479   4.724   8.304  3.1685 -3.3007 -3.2973
  459MOL0     H61912   9.218   4.841   8.305  3.3259  2.1485  0.7712
  459MOL0     H61913   9.285   4.720   8.422 -0.1027 -0.0923  0.3552
  459MOL0     H61914   9.170   4.651   8.159  1.6090 -0.7006 -0.4259
  459MOL0     H61915   9.203   4.532   8.298  0.9308  0.6592  3.7913
  459MOL0     H61916   8.940   4.492   8.175  1.7578  1.4252 -0.4867
  459MOL0     H61917   8.693   4.413   8.249 -0.0465  4.5796 -4.7135
  459MOL0     H61918   8.670   4.430   8.429  1.0531  1.9785  2.1023
  459MOL0     H61919   8.496   4.535   8.343  0.1965  1.4555  2.8640
  459MOL0     H61920   8.610   4.679   8.361 -2.1912  1.2304  1.0067
  459MOL0     H61921   8.544   4.527   8.101 -2.4376  1.7117 -1.2358
  459MOL0     H61922   8.674   4.654   8.120  2.4509 -1.7713  2.8846
  459MOL0     H61923   8.476   4.797   8.207  0.9417 -0.9637 -0.2869
  459MOL0     H61924   8.376   4.670   8.137 -0.3695  0.1694 -0.1652
  459MOL0     H61925   8.397   4.540   7.927  0.1832 -0.6884 -0.2992
  459MOL0     H61926   8.395   4.448   7.693  1.1930 -0.9856 -1.7676
  459MOL0     H61927   8.623   4.327   7.284 -0.6639  0.4614  2.4820
  459MOL0     H61928   8.544   4.226   7.057 -0.2334 -0.3548 -1.2394
  459MOL0     H61929   8.450   4.152   6.909 -0.8161 -1.6574  1.7154
  459MOL0     H61930   8.294   4.115   6.853  2.2536 -1.8531 -0.8355
  459MOL0     H61931   8.318   4.355   6.703  2.1532  0.7756  0.5553
  459MOL0     H61932   8.481   4.323   6.734  0.3681 -0.1352 -0.0789
  459MOL0     H61933   8.446   4.094   6.611  0.3850  0.2827 -2.5518
  459MOL0     H61934   8.283   4.152   6.588  0.3754 -0.6651  0.6713
  459MOL0     H61935   8.550   4.288   6.504  0.0830  2.2000 -3.5759
  459MOL0     H61936   8.381   4.360   6.509 -2.2084 -1.6748 -1.3141
  459MOL0     H61937   8.322   4.166   6.339 -1.7014  2.3612  1.5160
  459MOL0     H61938   8.510   4.153   6.324  0.4561  1.6635 -2.1005
  459MOL0     H61939   8.360   4.409   6.296 -5.4402 -4.3657 -2.3792
  459MOL0     H61940   8.538   4.363   6.283  0.7586 -2.9583  2.4615
  459MOL0     H61941   8.308   4.271   6.104  0.5367 -0.0546 -1.0568
  459MOL0     H61942   8.455   4.206   6.079 -2.3058 -1.1472  0.1785
  459MOL0     H61943   8.445   4.395   5.916 -0.5620 -3.4609  0.5458
  459MOL0     H61944   8.360   4.497   6.028  0.3843  0.6231 -1.7704
  459MOL0     H61945   8.153   4.385   7.131 -1.3274  3.7119  2.5459
  459MOL0     H61946   8.228   4.422   7.376  0.7771 -2.6186  2.2890
  459MOL0     H61947   8.569   4.817   7.555 -0.8201 -1.2814 -0.1946
  459MOL0     H61948   8.561   4.905   7.803  0.4593 -1.0567  1.1878
  459MOL0     H61949   9.151   5.535   7.952  2.0606 -0.2851  0.7039
  459MOL0     H61950   8.924   5.649   7.969 -0.8296 -1.1317 -0.0603
  459MOL0     H61951   8.672   5.970   8.137  2.0402 -2.4538 -0.4326
  459MOL0     H61952   8.449   6.082   8.141  2.2514  0.7847  1.6531
  459MOL0     H61953   8.146   6.079   8.027 -1.1990 -3.0826  0.5367
  459MOL0     H61954   8.257   6.158   8.130 -0.0443  0.0788 -3.5162
  459MOL0     H61955   8.082   6.100   8.316 -1.3352  0.3227  1.0116
  459MOL0     H61956   7.971   6.067   8.186  0.8488  0.0553 -1.3983
  459MOL0     H61957   8.109   6.302   8.121  0.4714 -0.4368  1.7037
  459MOL0     H61958   8.047   6.327   8.283  2.7141 -0.4273 -0.5164
  459MOL0     H61959   7.924   6.397   8.077  2.1055  0.7227  2.4504
  459MOL0     H61960   7.878   6.234   8.057 -2.3586 -2.4286  2.9821
  459MOL0     H61961   7.671   6.411   8.399 -0.8413 -1.0763 -0.2677
  459MOL0     H61962   8.267   5.725   8.259 -0.6056  1.7248  0.5245
  459MOL0     H61963   8.584   5.553   8.359  0.6621 -2.3967 -1.9687
  459MOL0     H61964   8.397   5.547   8.367 -1.3804  2.5353 -0.0174
  459MOL0     H61965   8.482   5.508   8.216 -0.7436  1.0347  0.1349
  460MOL0     O61966   3.535   5.026   7.601  0.6519  0.5955  0.1489
  460MOL0     C61967   3.439   5.098   7.602 -1.3250  1.5861  0.2447
  460MOL0     O61968   3.388   5.153   7.497 -0.1434  0.0131  0.0823
  460MOL0     C61969   3.470   5.213   7.401  0.1669  0.1011 -1.6424
  460MOL0     C61970   3.411   5.223   7.277  0.2995 -0.7137  0.0331
  460MOL0     C61971   3.477   5.296   7.183  0.6123  0.7455 -0.0427
  460MOL0     C61972   3.604   5.349   7.199 -1.2124 -0.7389  0.3452
  460MOL0     O61973   3.681   5.413   7.099 -0.4863  0.2086  0.1396
  460MOL0     C61974   3.615   5.445   6.972  0.0041 -0.9974 -1.4626
  460MOL0     C61975   3.719   5.468   6.864  0.1241  1.5115 -0.2312
  460MOL0     C61976   3.801   5.593   6.906 -0.3329 -1.2858 -0.4575
  460MOL0     C61977   3.890   5.631   6.786 -0.0898 -0.3519  0.1480
  460MOL0     C61978   3.962   5.766   6.807  0.6543 -0.8249  0.0073
  460MOL0     C61979   4.035   5.813   6.673  0.6677  0.2256  0.0443
  460MOL0     C61980   4.146   5.907   6.698 -0.9367 -0.3354  0.2400
  460MOL0     C61981   4.212   5.974   6.572  0.1083 -0.0961  0.4827
  460MOL0     N61982   4.307   6.080   6.587  0.3619 -0.4859  0.2021
  460MOL0     C61983   4.284   6.211   6.616 -0.5124  0.2452 -0.4480
  460MOL0     C61984   4.412   6.259   6.642  0.5427  0.4950 -0.2727
  460MOL0     C61985   4.451   6.403   6.689  0.4827 -0.5847 -0.3521
  460MOL0     C61986   4.606   6.418   6.700 -0.4257 -0.8041 -0.1318
  460MOL0     C61987   4.655   6.548   6.772 -1.3125 -0.5544  0.6829
  460MOL0     C61988   4.606   6.539   6.912  0.3938 -0.3638  0.7387
  460MOL0     O61989   4.667   6.638   6.991 -0.4653 -0.0191 -0.0908
  460MOL0     C61990   4.609   6.651   7.108 -0.2373 -0.1122 -0.9516
  460MOL0     C61991   4.675   6.604   7.218  0.2161 -0.1267  0.6639
  460MOL0     C61992   4.634   6.649   7.340  0.6019 -1.5999 -0.2261
  460MOL0     C61993   4.517   6.730   7.364 -0.6645  0.0257 -0.5164
  460MOL0     C61994   4.485   6.771   7.505 -0.5813 -0.2555  0.2622
  460MOL0     O61995   4.434   6.900   7.512  0.5060  0.0905 -0.4573
  460MOL0     C61996   4.428   6.955   7.635 -0.2966  0.3806 -0.2396
  460MOL0     C61997   4.546   6.951   7.709 -0.5760 -0.5141  0.2369
  460MOL0     C61998   4.545   7.004   7.840 -0.0677 -0.5643 -0.9838
  460MOL0     C61999   4.428   7.050   7.902  0.5204 -0.1431 -0.3478
  460MOL0     O62000   4.410   7.090   8.033  0.2475 -0.1487 -0.2597
  460MOL0     C62001   4.488   7.048   8.145 -0.1336 -0.4797  0.5425
  460MOL0     C62002   4.368   7.023   8.242 -0.2106  1.0962 -1.7340
  460MOL0     C62003   4.265   6.911   8.222  1.1062 -0.1894  0.3232
  460MOL0     C62004   4.346   6.787   8.167  0.9984 -0.2643  0.2478
  460MOL0     C62005   4.243   6.682   8.135 -1.1456 -0.3209 -0.1531
  460MOL0     C62006   4.289   6.573   8.033 -0.7638 -0.2698 -0.0298
  460MOL0     C62007   4.195   6.450   8.033 -0.1138 -0.0308 -0.8600
  460MOL0     C62008   4.234   6.340   7.931  0.2363  0.1234  1.1342
  460MOL0    Cl62009   4.182   6.181   7.965  0.1228 -0.5265 -0.2131
  460MOL0     C62010   4.314   7.053   7.824  0.2595  0.7488  0.5816
  460MOL0     C62011   4.316   6.999   7.695  0.5112  0.1717 -0.8428
  460MOL0     O62012   4.509   6.689   7.593  0.4617  0.5326  0.0399
  460MOL0     C62013   4.449   6.774   7.252 -0.4984 -0.4495 -0.1732
  460MOL0     C62014   4.493   6.738   7.122  0.2293 -0.0974 -0.5262
  460MOL0     N62015   4.502   6.149   6.638  0.1192 -0.4061  0.7009
  460MOL0     N62016   4.437   6.047   6.599  0.2149 -0.1193  0.4114
  460MOL0     C62017   3.670   5.330   7.324  0.9702 -0.7482 -0.2786
  460MOL0     C62018   3.600   5.266   7.425  0.0117  0.4601  0.1272
  460MOL0     C62019   3.368   5.132   7.727  1.0575  0.2514  0.6220
  460MOL0     C62020   3.381   5.043   7.837  0.2601 -0.2127  0.7598
  460MOL0     C62021   3.310   5.062   7.952 -0.1626  0.5866  0.7926
  460MOL0     C62022   3.208   5.162   7.964  0.6031  0.1412 -0.8154
  460MOL0     O62023   3.142   5.195   8.081  0.0374  0.7240  0.6574
  460MOL0     C62024   3.195   5.127   8.194  0.4449  0.2058 -0.6281
  460MOL0     C62025   3.105   5.156   8.324 -0.4360  0.2231  0.2887
  460MOL0     C62026   2.954   5.142   8.270 -0.3569  0.7250 -0.5878
  460MOL0     C62027   2.856   5.159   8.384  0.4941 -0.3417 -0.0472
  460MOL0     C62028   2.725   5.109   8.337  0.4726  0.2918  0.3205
  460MOL0     C62029   2.628   5.046   8.303  0.2932  0.2620  0.3603
  460MOL0     C62030   3.193   5.250   7.857  0.2595 -0.0158 -0.0365
  460MOL0     C62031   3.270   5.231   7.741  0.3061 -1.2115 -0.6368
  460MOL0     C62032   3.257   5.352   7.652  0.1737  0.2805  0.3219
  460MOL0     H62033   3.309   5.191   7.256 -0.3181  2.7463 -3.2833
  460MOL0     H62034   3.405   5.305   7.102 -2.2421  0.8947  2.3617
  460MOL0     H62035   3.537   5.373   6.944  0.8507 -2.1013 -1.0781
  460MOL0     H62036   3.569   5.540   6.999  3.4885  0.1579  1.2777
  460MOL0     H62037   3.664   5.488   6.772 -1.6973  1.7551  0.8749
  460MOL0     H62038   3.778   5.378   6.846 -0.8244  1.0629 -1.1282
  460MOL0     H62039   3.858   5.576   6.998 -1.9131  4.6241  2.1006
  460MOL0     H62040   3.739   5.681   6.927  1.1982  0.5673 -3.1000
  460MOL0     H62041   3.973   5.560   6.778 -0.3364 -0.5078 -1.1744
  460MOL0     H62042   3.836   5.626   6.691 -0.1141  0.4266  0.1146
  460MOL0     H62043   3.892   5.842   6.842  0.6311 -1.3513  1.1802
  460MOL0     H62044   4.038   5.762   6.886 -0.5246 -0.3099  1.2022
  460MOL0     H62045   4.066   5.724   6.618  0.0017  0.6962 -1.1201
  460MOL0     H62046   3.945   5.854   6.626 -0.2271 -0.4766  1.0971
  460MOL0     H62047   4.214   5.831   6.739 -1.2599 -2.3233 -2.6577
  460MOL0     H62048   4.150   5.978   6.781 -1.2466 -1.7579  1.5220
  460MOL0     H62049   4.267   5.889   6.529 -1.4597 -1.4026  0.9565
  460MOL0     H62050   4.130   6.010   6.510 -0.2549  1.8233  1.9709
  460MOL0     H62051   4.186   6.257   6.606 -0.2010  1.1667  0.4877
  460MOL0     H62052   4.406   6.480   6.627  0.8160 -1.8632 -2.2720
  460MOL0     H62053   4.414   6.417   6.791  2.1259  1.5301  0.0090
  460MOL0     H62054   4.655   6.334   6.749 -0.1027 -0.7192 -0.3107
  460MOL0     H62055   4.648   6.422   6.599  0.6844 -1.7209  0.2644
  460MOL0     H62056   4.636   6.642   6.720 -0.8994 -0.9474 -0.2112
  460MOL0     H62057   4.764   6.542   6.765 -1.3747 -0.0723 -1.5066
  460MOL0     H62058   4.622   6.438   6.951  1.6887 -0.3625  0.2625
  460MOL0     H62059   4.497   6.551   6.924 -0.1100 -2.0077 -1.5548
  460MOL0     H62060   4.754   6.534   7.197 -0.3942 -1.2841  2.0652
  460MOL0     H62061   4.684   6.625   7.433 -1.6784 -2.1726  0.9394
  460MOL0     H62062   4.633   6.897   7.673 -0.1396 -0.1505  0.7316
  460MOL0     H62063   4.638   6.996   7.896 -0.2580 -2.7036 -0.8931
  460MOL0     H62064   4.547   6.958   8.122  1.4778  0.5644  0.4479
  460MOL0     H62065   4.564   7.118   8.178  2.3894 -2.6120 -0.3668
  460MOL0     H62066   4.412   7.015   8.342  2.4938  0.0576 -2.9391
  460MOL0     H62067   4.309   7.114   8.259 -0.4993  0.8531 -1.4110
  460MOL0     H62068   4.223   6.886   8.320  1.8455 -1.4694  0.3344
  460MOL0     H62069   4.189   6.946   8.151  3.4568  2.0086 -1.2746
  460MOL0     H62070   4.426   6.754   8.233  1.3764  1.1360  0.5308
  460MOL0     H62071   4.395   6.817   8.073  0.7639  0.8561  0.4651
  460MOL0     H62072   4.147   6.723   8.102 -0.5365  0.6932 -0.7243
  460MOL0     H62073   4.230   6.637   8.234  1.7936 -1.9152 -0.3746
  460MOL0     H62074   4.281   6.615   7.932 -5.7294  1.7832  0.9073
  460MOL0     H62075   4.385   6.528   8.057 -0.3707 -0.0659 -1.1501
  460MOL0     H62076   4.087   6.467   8.031 -0.1093 -0.0709 -1.6278
  460MOL0     H62077   4.220   6.400   8.127  1.8564 -0.6530 -1.6656
  460MOL0     H62078   4.181   6.370   7.841  3.2541  3.2754  0.1945
  460MOL0     H62079   4.339   6.336   7.900 -0.8244 -0.3610 -2.9792
  460MOL0     H62080   4.222   7.079   7.875  0.7922 -1.8788  3.1220
  460MOL0     H62081   4.231   6.996   7.627  1.5774 -1.9665 -2.2099
  460MOL0     H62082   4.356   6.828   7.267  0.8953  1.8454  0.9450
  460MOL0     H62083   4.449   6.783   7.033  0.0542 -0.6206 -0.7078
  460MOL0     H62084   3.770   5.370   7.333  0.4503  0.4851  0.2093
  460MOL0     H62085   3.651   5.239   7.517 -3.0520 -3.8098  0.8846
  460MOL0     H62086   3.437   4.952   7.822 -0.6864 -0.8184  0.8350
  460MOL0     H62087   3.323   4.979   8.021  1.3749 -0.5590 -0.7627
  460MOL0     H62088   3.300   5.155   8.205  0.8969 -1.5904  0.1250
  460MOL0     H62089   3.192   5.017   8.193 -1.3007  0.2196  0.2064
  460MOL0     H62090   3.126   5.260   8.352 -2.7115  0.8208 -0.0205
  460MOL0     H62091   3.138   5.087   8.402 -0.6947 -0.8950 -0.5704
  460MOL0     H62092   2.953   5.042   8.226 -2.5711  1.2013 -1.7456
  460MOL0     H62093   2.930   5.212   8.189  0.9042 -1.4212 -2.9479
  460MOL0     H62094   2.888   5.120   8.481 -1.2544 -2.0932 -0.1206
  460MOL0     H62095   2.839   5.266   8.402 -2.7224 -0.6165 -0.8281
  460MOL0     H62096   2.544   4.984   8.277 -0.1282 -0.3731  2.9190
  460MOL0     H62097   3.125   5.334   7.867 -0.0105 -0.1691 -0.5125
  460MOL0     H62098   3.352   5.394   7.618 -0.0236  0.1966 -0.3446
  460MOL0     H62099   3.209   5.324   7.558  2.4127  0.4083 -0.9305
  460MOL0     H62100   3.186   5.427   7.688  1.3575  1.4121  0.4111
  461MOL0     O62101  10.865   5.761   0.531 -0.8966 -0.1217 -0.0096
  461MOL0     C62102  10.772   5.840   0.526 -0.0914 -0.4455 -0.4539
  461MOL0     O62103  10.658   5.821   0.458  0.3076  0.3205  0.7587
  461MOL0     C62104  10.634   5.708   0.371  0.2643  0.3490  0.8519
  461MOL0     C62105  10.499   5.701   0.317  0.3650 -1.2299  0.1749
  461MOL0     C62106  10.463   5.606   0.225 -0.4838  0.3604  0.1975
  461MOL0     C62107  10.541   5.493   0.196 -0.7763 -0.0536 -1.1306
  461MOL0     O62108  10.492   5.411   0.094 -0.3012  0.0816  0.8789
  461MOL0     C62109  10.458   5.287   0.163 -0.0294 -0.2756 -0.5179
  461MOL0     C62110  10.353   5.208   0.080 -0.8284 -0.9498  0.2841
  461MOL0     C62111  10.297   5.097   0.175  0.0308  0.1072  0.4577
  461MOL0     C62112  10.232   4.989   0.088  0.0987  0.2798 -0.3563
  461MOL0     C62113  10.174   4.880   0.173 -0.2548  0.4642  0.3527
  461MOL0     C62114  10.118   4.763   0.087  0.2562 -0.5685 -0.3139
  461MOL0     C62115   9.974   4.789   0.036  0.6115 -0.1542 -0.4079
  461MOL0     C62116   9.905   4.673  -0.041  0.2679 -1.2404  0.5721
  461MOL0     N62117   9.911   4.546   0.019 -0.2176  0.3980  0.0306
  461MOL0     C62118   9.863   4.518   0.149 -0.5830  0.4282  0.1895
  461MOL0     C62119   9.869   4.384   0.160 -0.4078  0.7577  1.1991
  461MOL0     C62120   9.871   4.307   0.288 -0.2575  0.7678 -0.0415
  461MOL0     C62121   9.879   4.156   0.270 -0.1963 -0.7657  0.4227
  461MOL0     C62122   9.750   4.092   0.207  0.7060  1.1232 -0.7621
  461MOL0     C62123   9.728   3.949   0.251  0.1158  1.2555 -0.2222
  461MOL0     O62124   9.850   3.874   0.275  0.5230 -0.1799  0.1713
  461MOL0     C62125   9.824   3.744   0.260 -0.2259  0.6592 -0.2633
  461MOL0     C62126   9.852   3.685   0.144  0.0527  0.0002  0.9020
  461MOL0     C62127   9.827   3.543   0.143  0.4180  0.0023  0.1596
  461MOL0     C62128   9.796   3.474   0.258  0.7088 -0.4619 -0.5412
  461MOL0     C62129   9.771   3.322   0.273  0.2452  0.1011  0.3388
  461MOL0     O62130   9.758   3.247   0.152 -0.5909 -0.0474 -0.5214
  461MOL0     C62131   9.736   3.114   0.162 -0.2744 -1.4491 -0.6663
  461MOL0     C62132   9.846   3.023   0.168 -0.0979  0.1285 -0.3854
  461MOL0     C62133   9.821   2.884   0.163 -0.1366  0.4439  1.1830
  461MOL0     C62134   9.690   2.836   0.154  0.0058 -0.4954  0.1190
  461MOL0     O62135   9.680   2.698   0.148 -0.4684  0.5445 -0.3327
  461MOL0     C62136   9.552   2.642   0.147  0.5620  0.7263 -0.7968
  461MOL0     C62137   9.559   2.487   0.152 -0.6034  0.0678  0.0616
  461MOL0     C62138   9.612   2.433   0.021  0.2735 -1.3712 -0.1216
  461MOL0     C62139   9.586   2.280   0.017 -0.0092 -0.2081 -0.3816
  461MOL0     C62140   9.651   2.209   0.131  0.2456  0.0313 -0.3096
  461MOL0     C62141   9.796   2.219   0.147 -0.8600 -0.0541  0.0591
  461MOL0     C62142   9.848   2.128   0.252  0.1518 -0.0224  0.4949
  461MOL0     C62143   9.997   2.171   0.287 -0.3664 -0.1654  0.0526
  461MOL0    Cl62144  10.103   2.078   0.188  0.2814  0.1944  0.0571
  461MOL0     C62145   9.581   2.930   0.149 -0.6675  0.1301 -0.0594
  461MOL0     C62146   9.602   3.067   0.155 -0.1051 -0.0937 -0.4581
  461MOL0     O62147   9.764   3.279   0.390  0.0940  0.3904  0.3670
  461MOL0     C62148   9.786   3.546   0.377 -0.3618  1.0108  0.0672
  461MOL0     C62149   9.802   3.683   0.372 -0.9658  0.1093 -0.3346
  461MOL0     N62150   9.906   4.339   0.041 -0.0752 -0.2006  0.0851
  461MOL0     N62151   9.936   4.432  -0.038  0.0653  0.1267  0.7109
  461MOL0     C62152  10.669   5.490   0.254  0.4910  0.5573 -0.1829
  461MOL0     C62153  10.711   5.594   0.340 -0.2392  0.3498  0.0212
  461MOL0     C62154  10.777   5.966   0.597 -1.1141 -0.0695 -0.5701
  461MOL0     C62155  10.667   6.049   0.598  0.1455 -0.6073  0.5654
  461MOL0     C62156  10.658   6.161   0.683  0.4904  0.5000  0.0037
  461MOL0     C62157  10.758   6.194   0.767  0.4291  0.5910  0.0301
  461MOL0     O62158  10.736   6.315   0.831  0.7639  1.0623  0.0800
  461MOL0     C62159  10.850   6.387   0.890  0.2727  0.1022  0.4189
  461MOL0     C62160  10.784   6.506   0.970 -0.3772  0.1631 -0.0552
  461MOL0     C62161  10.882   6.587   1.050  0.6177  0.4293  0.6110
  461MOL0     C62162  10.993   6.644   0.950  0.3639 -0.2205  0.3333
  461MOL0     C62163  11.056   6.751   1.025  0.9818  0.4289  0.5712
  461MOL0     C62164  11.087   6.836   1.105  0.2876 -0.0448 -0.8410
  461MOL0     C62165  10.877   6.122   0.761  0.7475 -0.6963 -0.6265
  461MOL0     C62166  10.880   6.000   0.691 -0.9877  0.1328  1.0144
  461MOL0     C62167  11.006   5.917   0.708 -0.2573 -0.1973 -0.1231
  461MOL0     H62168  10.427   5.772   0.357 -0.0321 -1.4086 -0.2178
  461MOL0     H62169  10.362   5.619   0.186 -1.4484 -1.3791  1.9156
  461MOL0     H62170  10.545   5.221   0.173 -1.1238 -2.0050 -2.0596
  461MOL0     H62171  10.415   5.303   0.263  4.4155 -1.6347  1.9148
  461MOL0     H62172  10.401   5.157  -0.005  0.4437  0.6653 -0.0072
  461MOL0     H62173  10.285   5.279   0.034  0.8737  0.1070 -0.6921
  461MOL0     H62174  10.230   5.144   0.247  2.2386 -2.1347  4.2711
  461MOL0     H62175  10.373   5.046   0.235 -0.1314 -3.1653 -1.8687
  461MOL0     H62176  10.156   5.028   0.019  0.3479 -1.3004 -1.5830
  461MOL0     H62177  10.300   4.939   0.018 -3.9744 -1.3764 -3.5992
  461MOL0     H62178  10.240   4.840   0.250 -1.2965 -1.9838  0.0687
  461MOL0     H62179  10.091   4.926   0.227 -1.5258  0.6691 -1.6780
  461MOL0     H62180  10.185   4.739   0.004 -0.5634 -3.6452 -0.2169
  461MOL0     H62181  10.111   4.670   0.144 -3.5779 -3.8997 -5.3399
  461MOL0     H62182   9.975   4.877  -0.028  0.4033  0.9658  1.0650
  461MOL0     H62183   9.912   4.812   0.124  2.7710 -1.5901  1.6069
  461MOL0     H62184   9.800   4.693  -0.063  0.7769  0.0441 -0.8953
  461MOL0     H62185   9.960   4.666  -0.135 -1.2880 -0.2465 -0.4543
  461MOL0     H62186   9.838   4.584   0.232 -0.5233 -2.6341  2.8912
  461MOL0     H62187   9.967   4.335   0.331 -0.8400  3.3315 -0.2078
  461MOL0     H62188   9.785   4.335   0.350  1.4318  1.8697  1.9124
  461MOL0     H62189   9.971   4.126   0.220  0.7890 -0.1504  1.8205
  461MOL0     H62190   9.883   4.127   0.375  4.9121 -1.5725  0.2558
  461MOL0     H62191   9.768   4.073   0.100  0.4671 -2.8028 -0.2545
  461MOL0     H62192   9.658   4.149   0.221 -0.8954 -0.8724 -2.4686
  461MOL0     H62193   9.654   3.900   0.187  0.7279 -0.9870  0.6916
  461MOL0     H62194   9.683   3.964   0.350 -1.8892 -3.4830 -0.1441
  461MOL0     H62195   9.882   3.730   0.050  1.0157  1.0480  1.6840
  461MOL0     H62196   9.815   3.495   0.046  1.3490 -0.0653  0.0711
  461MOL0     H62197   9.944   3.068   0.172 -0.0683  0.1021 -0.7864
  461MOL0     H62198   9.896   2.807   0.177 -0.2195 -0.0351 -0.7170
  461MOL0     H62199   9.489   2.676   0.230 -0.5291 -2.0983 -0.3608
  461MOL0     H62200   9.493   2.678   0.062 -2.0365 -1.2923  0.0035
  461MOL0     H62201   9.617   2.457   0.239 -2.0053 -4.0985 -0.2092
  461MOL0     H62202   9.457   2.448   0.162 -0.0811 -0.9231  2.1791
  461MOL0     H62203   9.564   2.479  -0.066  0.6031 -3.4250 -1.4750
  461MOL0     H62204   9.716   2.458  -0.000  0.3092 -1.1924  0.2626
  461MOL0     H62205   9.628   2.244  -0.077 -1.6811 -0.7198 -0.9704
  461MOL0     H62206   9.478   2.261   0.017  0.0792 -1.5172 -4.3079
  461MOL0     H62207   9.625   2.103   0.120 -0.0603  0.1836 -1.1437
  461MOL0     H62208   9.609   2.240   0.228  0.5234 -1.9121  0.4688
  461MOL0     H62209   9.834   2.202   0.045 -3.1015 -2.1554 -0.5392
  461MOL0     H62210   9.811   2.323   0.175 -0.9054  0.3863 -1.4529
  461MOL0     H62211   9.860   2.023   0.221  0.7949  0.7455 -2.0598
  461MOL0     H62212   9.785   2.140   0.340 -1.5177  1.1962 -0.8096
  461MOL0     H62213  10.009   2.279   0.275  1.8536 -0.4158 -0.4346
  461MOL0     H62214  10.011   2.148   0.393  2.1494 -1.0409 -0.4241
  461MOL0     H62215   9.480   2.892   0.155  0.0276 -1.6284  2.1480
  461MOL0     H62216   9.520   3.137   0.167 -1.0316 -1.4864  1.7390
  461MOL0     H62217   9.775   3.501   0.476 -0.7702  0.1403 -0.3629
  461MOL0     H62218   9.820   3.741   0.462  0.0129  0.9425 -1.0386
  461MOL0     H62219  10.728   5.401   0.234 -0.9443  0.0646 -2.6743
  461MOL0     H62220  10.815   5.594   0.371  0.2143 -2.8394 -1.1633
  461MOL0     H62221  10.575   6.029   0.543  1.4952 -1.7626 -1.3776
  461MOL0     H62222  10.571   6.226   0.687  0.1797  0.0535  0.9952
  461MOL0     H62223  10.921   6.421   0.814 -0.7442  1.2981 -0.0270
  461MOL0     H62224  10.904   6.327   0.965 -0.6601  0.7290  1.6306
  461MOL0     H62225  10.712   6.459   1.037 -1.3201  0.2084 -1.0046
  461MOL0     H62226  10.731   6.573   0.901  1.4499  0.9010 -0.8085
  461MOL0     H62227  10.924   6.531   1.134 -2.8278 -2.7332  0.4546
  461MOL0     H62228  10.825   6.674   1.083 -1.4642 -0.1009 -1.3745
  461MOL0     H62229  11.074   6.573   0.928  1.6084 -0.2959  4.2914
  461MOL0     H62230  10.948   6.688   0.861  1.4471  1.6673  0.6615
  461MOL0     H62231  11.101   6.930   1.153 -2.7936  0.6037 -1.0180
  461MOL0     H62232  10.967   6.151   0.814 -0.9578  0.8811  1.5920
  461MOL0     H62233  11.071   5.966   0.780 -1.1442 -0.6275  1.0020
  461MOL0     H62234  10.975   5.818   0.743  1.6396 -2.6973 -4.5701
  461MOL0     H62235  11.070   5.905   0.620 -0.7910  1.4990 -0.7823
  462MOL0     O62236   7.015  11.086   4.213  0.2137  0.1858 -0.2541
  462MOL0     C62237   6.972  11.177   4.146  0.3909 -0.0182  0.0748
  462MOL0     O62238   6.847  11.243   4.167 -0.2779 -0.0078 -0.0605
  462MOL0     C62239   6.758  11.197   4.259  0.8963 -0.7044 -1.2215
  462MOL0     C62240   6.795  11.194   4.394  1.3036 -0.3090  0.0247
  462MOL0     C62241   6.700  11.157   4.488 -0.5652 -0.4544  0.5615
  462MOL0     C62242   6.564  11.149   4.459  0.7179 -0.4715  0.5195
  462MOL0     O62243   6.462  11.138   4.554 -0.0820  0.4124  0.2479
  462MOL0     C62244   6.505  11.145   4.687 -0.1983 -0.2790  0.5589
  462MOL0     C62245   6.384  11.142   4.775  0.9590 -0.4553 -1.3702
  462MOL0     C62246   6.419  11.128   4.926 -0.3140  0.2594 -1.4822
  462MOL0     C62247   6.311  11.079   5.020 -0.8302 -0.0429 -0.2277
  462MOL0     C62248   6.370  11.026   5.157 -0.0509 -0.1882 -0.9866
  462MOL0     C62249   6.414  11.143   5.250 -0.5666 -0.0929  0.5829
  462MOL0     C62250   6.476  11.088   5.386 -0.3031  1.5950  0.1327
  462MOL0     C62251   6.405  10.981   5.472 -0.4334  0.7400  0.0933
  462MOL0     N62252   6.492  10.947   5.587  0.0637 -0.3517  0.1097
  462MOL0     C62253   6.429  10.921   5.703 -0.0429  0.9241  0.0865
  462MOL0     C62254   6.528  10.935   5.796  0.0767  0.4472 -0.6637
  462MOL0     C62255   6.520  10.921   5.942  0.0520  0.0994 -1.0572
  462MOL0     C62256   6.422  11.017   6.011  0.7528 -0.0676  0.0341
  462MOL0     C62257   6.427  10.990   6.154  0.4116  0.3326  0.6431
  462MOL0     C62258   6.340  11.088   6.237  1.1298 -0.3215  0.1140
  462MOL0     O62259   6.397  11.215   6.270  0.6720  0.1665  0.1358
  462MOL0     C62260   6.455  11.222   6.391  0.2103  0.4771  0.1487
  462MOL0     C62261   6.415  11.327   6.463 -0.1092 -0.0471 -0.6581
  462MOL0     C62262   6.460  11.355   6.605  0.5290  0.0850  0.8759
  462MOL0     C62263   6.524  11.245   6.671  1.1118  0.1072  0.1794
  462MOL0     C62264   6.544  11.255   6.820 -0.2200 -0.4512  0.3640
  462MOL0     O62265   6.624  11.162   6.882  0.0581  0.7288  0.4623
  462MOL0     C62266   6.692  11.172   6.998  0.3319 -0.1006  1.0220
  462MOL0     C62267   6.735  11.292   7.056 -0.5850  0.2327  0.1414
  462MOL0     C62268   6.803  11.286   7.178 -0.1157 -1.4036  0.3427
  462MOL0     C62269   6.845  11.172   7.237  0.0131  0.1599 -0.0083
  462MOL0     O62270   6.917  11.189   7.356  0.1482  0.3457  0.0491
  462MOL0     C62271   6.997  11.085   7.408 -0.2208 -0.2568 -0.1406
  462MOL0     C62272   7.132  11.090   7.337 -0.1271  0.5485 -0.1844
  462MOL0     C62273   7.231  11.011   7.427  0.0085 -0.6062  0.5580
  462MOL0     C62274   7.290  11.094   7.538  0.3193 -1.1396 -0.2423
  462MOL0     C62275   7.397  11.189   7.496  0.0141  0.3660 -0.8817
  462MOL0     C62276   7.470  11.231   7.614 -1.1907  0.6120 -0.3113
  462MOL0     C62277   7.390  11.345   7.677  0.0733 -0.7511 -0.3820
  462MOL0     C62278   7.455  11.357   7.815 -0.2564  0.0614  0.0873
  462MOL0    Cl62279   7.389  11.500   7.906  0.5525 -0.1855 -0.1072
  462MOL0     C62280   6.793  11.054   7.187  0.1028  0.3520 -0.0025
  462MOL0     C62281   6.727  11.054   7.061 -0.0008 -0.1801 -0.0851
  462MOL0     O62282   6.496  11.346   6.883  0.0122 -0.1504  1.1972
  462MOL0     C62283   6.574  11.142   6.593  1.1050  0.4111 -0.3790
  462MOL0     C62284   6.535  11.124   6.457  0.7968  0.2365  0.4045
  462MOL0     N62285   6.647  10.958   5.735 -0.5190  0.0246 -0.0462
  462MOL0     N62286   6.629  10.957   5.604 -0.1037  0.1596  0.2510
  462MOL0     C62287   6.527  11.154   4.323  0.7098  0.0906  0.8725
  462MOL0     C62288   6.627  11.182   4.222  0.1547  0.2739  0.2026
  462MOL0     C62289   7.073  11.228   4.047 -0.0796  0.2337  0.7943
  462MOL0     C62290   7.213  11.220   4.080  0.6392 -0.3924  0.1678
  462MOL0     C62291   7.312  11.253   3.992 -0.1700 -0.2829  0.1675
  462MOL0     C62292   7.283  11.302   3.869 -0.0162  0.6096 -0.3053
  462MOL0     O62293   7.373  11.315   3.771  0.7989 -1.1864 -0.1132
  462MOL0     C62294   7.380  11.243   3.653 -0.7514 -0.3613 -0.3600
  462MOL0     C62295   7.400  11.339   3.542  0.3448 -0.8063 -0.1170
  462MOL0     C62296   7.269  11.421   3.508 -0.2917 -0.9236  0.0184
  462MOL0     C62297   7.284  11.525   3.396  1.0794 -0.2816 -0.3906
  462MOL0     C62298   7.306  11.455   3.274 -0.5457  0.0458 -0.9915
  462MOL0     C62299   7.332  11.410   3.163 -1.0631  0.2420 -0.4791
  462MOL0     C62300   7.143  11.292   3.827  0.8638 -0.7733  0.0190
  462MOL0     C62301   7.038  11.255   3.915  0.9944 -0.3741 -0.0803
  462MOL0     C62302   6.892  11.259   3.861 -0.1368 -0.2716 -0.3368
  462MOL0     H62303   6.891  11.232   4.425  0.3143  3.4706 -1.0848
  462MOL0     H62304   6.726  11.159   4.593  1.0908  2.1731  0.2029
  462MOL0     H62305   6.550  11.049   4.712 -0.8649 -0.5815  0.6353
  462MOL0     H62306   6.570  11.229   4.713 -0.1050  1.2296 -3.7145
  462MOL0     H62307   6.326  11.051   4.758  0.4788 -0.2519 -0.8652
  462MOL0     H62308   6.317  11.225   4.752  2.5135  0.8793 -1.1770
  462MOL0     H62309   6.447  11.228   4.958 -1.7191  0.3400 -0.4170
  462MOL0     H62310   6.508  11.065   4.936 -0.1999  0.5721 -0.4171
  462MOL0     H62311   6.230  11.146   5.050 -1.5096 -0.5735 -0.8396
  462MOL0     H62312   6.272  10.990   4.970  0.7440 -2.9054  3.1541
  462MOL0     H62313   6.289  10.976   5.210  2.0593 -0.9114  1.7619
  462MOL0     H62314   6.455  10.960   5.137  3.0987  3.4032 -0.6048
  462MOL0     H62315   6.497  11.197   5.203  2.3472 -2.4490  2.5762
  462MOL0     H62316   6.327  11.203   5.277 -1.4445 -0.6710 -0.8367
  462MOL0     H62317   6.498  11.168   5.457 -0.2092 -0.4786  2.6226
  462MOL0     H62318   6.574  11.044   5.365 -0.9713  0.5734 -1.0377
  462MOL0     H62319   6.307  11.006   5.514 -1.1721 -1.8195  0.0588
  462MOL0     H62320   6.400  10.900   5.399  0.1045 -0.1017  0.9778
  462MOL0     H62321   6.326  10.894   5.723 -0.3417  3.1889  1.9609
  462MOL0     H62322   6.497  10.818   5.967  1.7213  0.2139  1.2989
  462MOL0     H62323   6.622  10.939   5.979 -0.6452  0.2022  0.9178
  462MOL0     H62324   6.449  11.119   5.985  0.6124 -0.3882 -1.4539
  462MOL0     H62325   6.320  11.002   5.973 -1.6743  4.5626  3.5592
  462MOL0     H62326   6.525  11.008   6.200 -0.8093 -0.4639  3.8757
  462MOL0     H62327   6.403  10.886   6.179  0.1625 -0.0149 -0.9835
  462MOL0     H62328   6.286  11.044   6.321 -3.7723 -1.2554 -3.1069
  462MOL0     H62329   6.253  11.118   6.177  0.2754  2.1935  2.3897
  462MOL0     H62330   6.365  11.405   6.406 -3.2493  0.0102  1.9284
  462MOL0     H62331   6.438  11.439   6.670 -0.1710  0.3228  0.3451
  462MOL0     H62332   6.716  11.383   6.999  0.3552  0.1293 -0.3626
  462MOL0     H62333   6.847  11.379   7.214  2.2111 -1.2526 -2.5663
  462MOL0     H62334   7.012  11.116   7.512  0.3755 -0.7347 -0.0783
  462MOL0     H62335   6.955  10.984   7.409 -3.3640  0.8531 -2.8769
  462MOL0     H62336   7.125  11.045   7.237 -1.8403  2.0918 -0.8072
  462MOL0     H62337   7.176  11.187   7.309 -1.5164  0.2535 -3.9441
  462MOL0     H62338   7.170  10.931   7.469  1.2874 -1.9798 -0.0967
  462MOL0     H62339   7.323  10.983   7.374  1.0323  3.5045 -0.1281
  462MOL0     H62340   7.341  11.026   7.606  0.2980  2.3904  3.7057
  462MOL0     H62341   7.217  11.145   7.602  3.1879  0.7271  1.8006
  462MOL0     H62342   7.340  11.274   7.458 -1.1356 -0.3394 -0.7658
  462MOL0     H62343   7.464  11.146   7.421  0.1120 -2.3609  0.6328
  462MOL0     H62344   7.463  11.145   7.682 -0.0391  1.4902  0.9739
  462MOL0     H62345   7.573  11.260   7.593 -1.4155  3.3288  1.7859
  462MOL0     H62346   7.280  11.337   7.677 -0.2778  2.6008 -0.7434
  462MOL0     H62347   7.413  11.440   7.627  0.6155 -1.7424 -2.1302
  462MOL0     H62348   7.440  11.262   7.867  1.4328  0.1992  0.8887
  462MOL0     H62349   7.562  11.380   7.805 -0.2003 -0.1147  0.2778
  462MOL0     H62350   6.808  10.961   7.240  1.7567  1.4490  1.5529
  462MOL0     H62351   6.681  10.967   7.016  0.7930 -0.7567  0.1972
  462MOL0     H62352   6.634  11.071   6.649  3.5890  3.2274  0.7712
  462MOL0     H62353   6.564  11.036   6.401 -0.8916 -0.4034  0.4974
  462MOL0     H62354   6.421  11.147   4.300  0.6738 -3.5987  1.5158
  462MOL0     H62355   6.590  11.217   4.127  0.3008 -0.0744  0.0155
  462MOL0     H62356   7.249  11.203   4.181  0.3311 -3.2983 -0.1348
  462MOL0     H62357   7.416  11.254   4.023  0.1456 -0.6140 -0.8321
  462MOL0     H62358   7.295  11.176   3.632  0.7685 -2.2270 -0.8810
  462MOL0     H62359   7.467  11.177   3.655 -0.2399  0.2965  1.8539
  462MOL0     H62360   7.444  11.285   3.457  1.1067 -0.3149 -0.0460
  462MOL0     H62361   7.470  11.417   3.574  1.8305 -2.2037  0.1620
  462MOL0     H62362   7.235  11.478   3.596  1.4952  0.1389  0.0687
  462MOL0     H62363   7.190  11.346   3.495  0.8618 -1.9211 -1.5452
  462MOL0     H62364   7.186  11.571   3.381  1.0277 -0.2525  0.0175
  462MOL0     H62365   7.353  11.609   3.404  1.7876 -0.7995 -0.9420
  462MOL0     H62366   7.351  11.364   3.068 -2.2236 -0.3101 -0.4552
  462MOL0     H62367   7.123  11.314   3.722  0.3954 -0.0335  0.2569
  462MOL0     H62368   6.831  11.176   3.899  0.1512 -0.7176 -0.8431
  462MOL0     H62369   6.835  11.352   3.872 -0.4754 -0.7669  3.1802
  462MOL0     H62370   6.908  11.241   3.754  3.3460  0.7048 -0.0988
  463MOL0     O62371   1.393   2.163   4.556 -0.7868  0.7591 -0.2266
  463MOL0     C62372   1.451   2.058   4.568 -0.7521  0.5715  0.5541
  463MOL0     O62373   1.587   2.040   4.586  1.2413 -0.1674  0.1174
  463MOL0     C62374   1.679   2.136   4.588 -1.0929 -0.8191 -0.0327
  463MOL0     C62375   1.664   2.278   4.590 -0.1114 -0.0844  0.7638
  463MOL0     C62376   1.772   2.368   4.581  0.5665  0.7506 -0.7923
  463MOL0     C62377   1.904   2.314   4.580  0.1403 -0.4010  0.3277
  463MOL0     O62378   2.019   2.398   4.577  0.4968  0.9183 -0.3434
  463MOL0     C62379   2.008   2.524   4.644  0.0693 -0.7722 -0.8184
  463MOL0     C62380   2.133   2.612   4.618 -0.1772 -0.3956 -0.5073
  463MOL0     C62381   2.096   2.763   4.642 -0.7660  0.4759  0.5889
  463MOL0     C62382   2.206   2.855   4.574  0.5833  0.4192 -1.3172
  463MOL0     C62383   2.345   2.847   4.651  0.5142  0.4614 -0.2984
  463MOL0     C62384   2.463   2.926   4.586  0.5723 -0.1554  0.7415
  463MOL0     C62385   2.592   2.915   4.669  0.4949 -0.1379 -0.4626
  463MOL0     C62386   2.603   2.993   4.800 -0.3108  0.1899  0.3308
  463MOL0     N62387   2.635   3.134   4.763  0.2190  0.3610  0.2346
  463MOL0     C62388   2.747   3.186   4.704  0.2553 -1.3874  0.4767
  463MOL0     C62389   2.709   3.317   4.684 -0.4347  0.0622 -0.2359
  463MOL0     C62390   2.792   3.443   4.642 -0.8900  1.0669  0.0268
  463MOL0     C62391   2.945   3.438   4.684  0.1560 -0.0219 -0.1923
  463MOL0     C62392   3.037   3.558   4.641 -0.2273  0.4485  0.5781
  463MOL0     C62393   3.044   3.590   4.491 -0.5475  0.1320 -1.2403
  463MOL0     O62394   3.055   3.465   4.427 -0.0805 -0.2575 -0.8935
  463MOL0     C62395   3.092   3.474   4.300  0.4623  0.3294 -0.6361
  463MOL0     C62396   3.217   3.513   4.263  0.4314 -0.3258 -0.4176
  463MOL0     C62397   3.259   3.499   4.134 -0.4781 -0.1506  1.5170
  463MOL0     C62398   3.178   3.453   4.033 -0.0095  0.3742  0.7757
  463MOL0     C62399   3.228   3.455   3.893  0.6042  0.3251 -0.3372
  463MOL0     O62400   3.356   3.478   3.858  0.0640 -0.1005  0.0904
  463MOL0     C62401   3.399   3.472   3.732 -0.6364  0.2605  0.9748
  463MOL0     C62402   3.528   3.417   3.703  0.5649  0.8391 -0.1712
  463MOL0     C62403   3.565   3.378   3.572 -0.4744  0.3812  0.0786
  463MOL0     C62404   3.489   3.415   3.457 -0.3157  0.4280 -0.2708
  463MOL0     O62405   3.521   3.392   3.325 -0.0120 -0.6049  0.1698
  463MOL0     C62406   3.618   3.283   3.304 -0.4667  0.0743  0.8686
  463MOL0     C62407   3.628   3.258   3.154 -0.9259  0.0240  0.2344
  463MOL0     C62408   3.726   3.146   3.115 -0.1506  0.4597  0.3626
  463MOL0     C62409   3.736   3.138   2.962 -0.6526 -0.4297 -0.0129
  463MOL0     C62410   3.613   3.088   2.893 -0.3064 -0.4599  0.1837
  463MOL0     C62411   3.646   3.080   2.742  0.4196  0.1143  0.7417
  463MOL0     C62412   3.511   3.070   2.665 -0.9243 -0.3917  0.0016
  463MOL0     C62413   3.514   2.998   2.524 -0.4659  0.1882 -0.6155
  463MOL0    Cl62414   3.361   3.024   2.440  0.0940  0.0098  0.5494
  463MOL0     C62415   3.376   3.495   3.482 -0.2175 -0.9308 -0.4421
  463MOL0     C62416   3.333   3.524   3.614  0.5187  0.8357 -0.8399
  463MOL0     O62417   3.136   3.428   3.812  0.0849  0.4554  0.0854
  463MOL0     C62418   3.045   3.417   4.066  0.9354 -0.0489 -0.1099
  463MOL0     C62419   3.007   3.413   4.202 -0.3543 -0.1449 -0.3956
  463MOL0     N62420   2.592   3.347   4.746  0.1194  0.4945  0.6260
  463MOL0     N62421   2.541   3.232   4.765  0.3194  0.2387 -0.3111
  463MOL0     C62422   1.915   2.175   4.567  0.7354 -0.3560  0.1209
  463MOL0     C62423   1.818   2.086   4.588  0.5300 -0.4721  0.4543
  463MOL0     C62424   1.369   1.934   4.550  0.1215  1.0577  0.3184
  463MOL0     C62425   1.252   1.951   4.476 -0.1429  1.0283  0.5159
  463MOL0     C62426   1.161   1.850   4.455  0.4844  0.9191 -0.0805
  463MOL0     C62427   1.170   1.725   4.524 -0.0047 -0.6846 -0.2981
  463MOL0     O62428   1.076   1.632   4.512  0.1423 -0.8699  0.1005
  463MOL0     C62429   1.075   1.515   4.597 -0.0901 -0.1360 -0.0368
  463MOL0     C62430   0.958   1.423   4.546  0.1768 -0.4264  0.1041
  463MOL0     C62431   0.823   1.501   4.538  0.9905  0.4792 -1.2886
  463MOL0     C62432   0.795   1.563   4.677 -0.1259 -0.1325 -0.6140
  463MOL0     C62433   0.660   1.615   4.689  0.5087 -0.9366  0.5694
  463MOL0     C62434   0.547   1.655   4.700  0.7979  0.7052 -0.1768
  463MOL0     C62435   1.287   1.711   4.592 -0.8323 -0.1565 -0.2060
  463MOL0     C62436   1.393   1.804   4.597 -0.0862 -0.2216 -0.2009
  463MOL0     C62437   1.517   1.771   4.667  0.0598  0.2575  0.3601
  463MOL0     H62438   1.565   2.322   4.592 -0.6704 -1.1628 -0.8654
  463MOL0     H62439   1.746   2.473   4.585  2.9897  1.3823  1.1383
  463MOL0     H62440   1.915   2.575   4.618  1.2016  1.9079  0.1312
  463MOL0     H62441   2.008   2.512   4.753 -1.1385  2.7703 -0.2997
  463MOL0     H62442   2.161   2.593   4.513 -1.2388 -1.9158 -0.5504
  463MOL0     H62443   2.218   2.589   4.682 -0.5484  0.1343  0.1778
  463MOL0     H62444   2.084   2.797   4.745  0.4344 -0.2117  0.9779
  463MOL0     H62445   2.005   2.792   4.588  0.6062  1.1261 -1.4968
  463MOL0     H62446   2.218   2.820   4.471  0.3591  0.6629 -1.4274
  463MOL0     H62447   2.168   2.955   4.551  0.9183  0.3168 -2.3569
  463MOL0     H62448   2.337   2.891   4.752  0.8664 -0.0703 -0.0353
  463MOL0     H62449   2.373   2.742   4.664  0.9278  0.6624  0.5148
  463MOL0     H62450   2.486   2.876   4.491 -4.0840 -2.8124  0.6805
  463MOL0     H62451   2.433   3.030   4.570 -3.0491 -1.2647 -0.7940
  463MOL0     H62452   2.673   2.947   4.602  1.5570 -1.7400 -0.0120
  463MOL0     H62453   2.614   2.811   4.692  1.2383  0.1781  0.3358
  463MOL0     H62454   2.508   2.995   4.854 -0.1415 -0.1988  0.6483
  463MOL0     H62455   2.679   2.940   4.858  2.3143  3.0539 -0.1934
  463MOL0     H62456   2.850   3.152   4.698  1.7521  2.0685  3.1871
  463MOL0     H62457   2.779   3.465   4.536  5.4292  0.9755 -1.1062
  463MOL0     H62458   2.748   3.530   4.692  1.2126  1.4239  1.3663
  463MOL0     H62459   2.943   3.443   4.794 -0.3316  1.9507 -0.2557
  463MOL0     H62460   2.990   3.342   4.658 -0.3600 -0.4088  0.3268
  463MOL0     H62461   3.133   3.512   4.669 -1.4247 -1.5746  1.5422
  463MOL0     H62462   3.023   3.650   4.698 -0.0579  1.6238 -1.1973
  463MOL0     H62463   3.136   3.647   4.475 -0.2059  1.0381  2.8577
  463MOL0     H62464   2.961   3.649   4.450 -0.2462 -1.1071 -3.9085
  463MOL0     H62465   3.287   3.566   4.328  0.0265 -3.4160  2.8328
  463MOL0     H62466   3.352   3.546   4.104 -1.2959  0.9366  0.6065
  463MOL0     H62467   3.592   3.373   3.779  1.5368  0.4652 -1.1693
  463MOL0     H62468   3.648   3.313   3.546 -1.5847 -1.5132  1.0125
  463MOL0     H62469   3.717   3.318   3.336 -1.4901  2.2574  1.9069
  463MOL0     H62470   3.581   3.193   3.354  0.8187 -1.3020 -0.5641
  463MOL0     H62471   3.531   3.231   3.112 -0.4039 -1.7987  0.0984
  463MOL0     H62472   3.668   3.351   3.114 -2.5184  0.6373  0.0014
  463MOL0     H62473   3.824   3.162   3.162  1.2836 -3.0890 -1.0710
  463MOL0     H62474   3.701   3.051   3.163  1.8022  0.3688  1.3119
  463MOL0     H62475   3.827   3.081   2.941 -1.0138 -0.7776 -0.6649
  463MOL0     H62476   3.755   3.242   2.934  0.0983 -0.2867  0.9740
  463MOL0     H62477   3.526   3.155   2.901 -0.0218  0.1087 -1.1662
  463MOL0     H62478   3.582   2.988   2.923 -0.2641 -0.2094  1.0913
  463MOL0     H62479   3.713   3.162   2.715  3.1199 -1.8611  0.9332
  463MOL0     H62480   3.711   3.000   2.705  2.7337  0.7330  3.1552
  463MOL0     H62481   3.470   3.170   2.648 -1.7504 -0.5726  0.8372
  463MOL0     H62482   3.443   3.010   2.727  1.4529 -1.3936  1.7694
  463MOL0     H62483   3.589   3.034   2.453 -3.9511 -1.0016 -5.4441
  463MOL0     H62484   3.545   2.894   2.522  1.7556  0.7916  0.0372
  463MOL0     H62485   3.327   3.538   3.395 -0.2853 -0.6174 -0.2525
  463MOL0     H62486   3.241   3.578   3.634  2.4350  3.3599  2.1952
  463MOL0     H62487   2.975   3.372   3.997  0.4755  1.1766 -0.4593
  463MOL0     H62488   2.914   3.363   4.226  0.1442 -1.1680 -0.5216
  463MOL0     H62489   2.010   2.134   4.535  0.9401 -0.4036  0.7712
  463MOL0     H62490   1.847   1.981   4.589 -0.1418 -0.8009 -3.1383
  463MOL0     H62491   1.223   2.048   4.436  1.1830  2.1031  2.0305
  463MOL0     H62492   1.074   1.873   4.394  2.0085  2.6712 -1.7404
  463MOL0     H62493   1.076   1.549   4.701  1.9255 -0.2664  0.0112
  463MOL0     H62494   1.165   1.452   4.597  1.3211  1.7878  0.7881
  463MOL0     H62495   0.952   1.332   4.606  2.1172 -0.5801  0.1267
  463MOL0     H62496   0.988   1.403   4.443  1.6408 -0.5838  0.5400
  463MOL0     H62497   0.747   1.423   4.527  0.1229  0.9662  0.7922
  463MOL0     H62498   0.810   1.582   4.465  1.5661  1.1009 -0.7187
  463MOL0     H62499   0.807   1.479   4.746 -0.5326 -0.5370 -1.0213
  463MOL0     H62500   0.866   1.642   4.702  0.9758 -0.6616 -1.8898
  463MOL0     H62501   0.454   1.688   4.658 -0.9700 -1.2129  1.9913
  463MOL0     H62502   1.310   1.623   4.651 -1.1980 -0.7144 -0.8901
  463MOL0     H62503   1.529   1.664   4.687 -0.4169  0.5098  2.1522
  463MOL0     H62504   1.612   1.802   4.621  0.0340 -0.9024 -0.5375
  463MOL0     H62505   1.531   1.827   4.760  0.5826  3.0206 -1.2546
  464MOL0     O62506   7.095   3.357  10.384  0.3914  0.1002 -0.5390
  464MOL0     C62507   7.102   3.245  10.433 -0.0648 -0.4060 -0.0388
  464MOL0     O62508   7.111   3.137  10.361  0.3300 -0.6840  0.5020
  464MOL0     C62509   7.170   3.129  10.232 -0.3000 -0.5182 -0.3740
  464MOL0     C62510   7.188   2.994  10.184 -0.1801 -0.3304 -0.5949
  464MOL0     C62511   7.268   2.980  10.065  0.1029  0.4375 -0.1091
  464MOL0     C62512   7.327   3.082   9.984 -0.6770  0.3945  0.3871
  464MOL0     O62513   7.400   3.039   9.876  0.2030  0.3004  0.3442
  464MOL0     C62514   7.503   3.136   9.829 -0.3768  0.6435 -0.6940
  464MOL0     C62515   7.598   3.077   9.722  1.8782 -0.4743  0.2223
  464MOL0     C62516   7.685   3.187   9.656  0.9746 -0.4836 -0.9849
  464MOL0     C62517   7.745   3.122   9.532  0.3237  0.3576  0.6956
  464MOL0     C62518   7.815   3.222   9.450  0.9160 -1.0371  0.7456
  464MOL0     C62519   7.950   3.259   9.511  0.5373 -0.1191 -0.6066
  464MOL0     C62520   8.045   3.346   9.425 -0.1531 -0.5571 -0.6514
  464MOL0     C62521   8.104   3.265   9.310 -0.2130  0.8024  0.4417
  464MOL0     N62522   8.189   3.362   9.244 -0.4019 -0.9341 -0.3309
  464MOL0     C62523   8.328   3.374   9.245 -0.4302  1.2241 -0.7401
  464MOL0     C62524   8.353   3.430   9.126  1.5359 -0.1379  0.4415
  464MOL0     C62525   8.493   3.475   9.096  0.0816  0.1605 -0.1467
  464MOL0     C62526   8.501   3.519   8.953 -0.5517  0.1268  0.2903
  464MOL0     C62527   8.644   3.576   8.922 -0.3149  0.1103 -0.6562
  464MOL0     C62528   8.749   3.455   8.905  0.7028 -0.3557  0.1328
  464MOL0     O62529   8.809   3.428   9.031 -0.0140 -1.0355  0.0728
  464MOL0     C62530   8.924   3.352   9.031 -0.1247 -0.0723 -0.2188
  464MOL0     C62531   9.003   3.340   9.151 -0.7129 -0.1229 -0.2841
  464MOL0     C62532   9.126   3.269   9.155  0.5194  0.1230  1.2059
  464MOL0     C62533   9.162   3.189   9.050  0.5883  0.4108  0.1079
  464MOL0     C62534   9.284   3.104   9.060 -0.1379 -0.9420  0.4855
  464MOL0     O62535   9.339   3.074   9.183  0.0673  0.1108  0.1053
  464MOL0     C62536   9.464   3.013   9.190  0.2645  0.2400 -1.2363
  464MOL0     C62537   9.554   2.974   9.090  0.8569  0.1796 -0.1434
  464MOL0     C62538   9.684   2.924   9.125  0.9670  0.5499  0.0762
  464MOL0     C62539   9.729   2.897   9.254  0.5988  0.3885 -0.2934
  464MOL0     O62540   9.844   2.824   9.276  0.4358 -1.6206  0.5652
  464MOL0     C62541   9.840   2.688   9.226 -0.3588  0.0883 -0.1467
  464MOL0     C62542   9.934   2.607   9.314  0.5115  1.0373 -1.0632
  464MOL0     C62543  10.066   2.556   9.263  0.0331  0.4464 -0.2131
  464MOL0     C62544  10.149   2.669   9.197  0.4307 -0.4109  0.3350
  464MOL0     C62545  10.186   2.774   9.304 -0.3586  0.3951 -0.8259
  464MOL0     C62546  10.328   2.820   9.262  0.6051  0.4695 -0.3610
  464MOL0     C62547  10.429   2.732   9.342 -0.2346  0.0886  0.3634
  464MOL0     C62548  10.573   2.760   9.298  0.0827  0.1250  0.7584
  464MOL0    Cl62549  10.672   2.614   9.352  0.6175 -0.0629 -0.0795
  464MOL0     C62550   9.645   2.945   9.357 -0.3410 -0.4779  0.0031
  464MOL0     C62551   9.517   3.001   9.324 -0.1068 -0.5584  0.7354
  464MOL0     O62552   9.320   3.059   8.951  0.5520 -0.0778  0.9816
  464MOL0     C62553   9.088   3.199   8.933  0.0768  0.0533  0.0084
  464MOL0     C62554   8.976   3.278   8.922  0.2605 -0.7658  0.1242
  464MOL0     N62555   8.233   3.467   9.063 -0.5718  1.2105 -0.0885
  464MOL0     N62556   8.128   3.424   9.135  0.0307  0.7125 -0.3296
  464MOL0     C62557   7.307   3.210  10.036  0.3052  0.3494 -0.3199
  464MOL0     C62558   7.232   3.239  10.152 -0.7942 -0.1170 -0.4226
  464MOL0     C62559   7.126   3.220  10.580  0.6386 -0.8652 -0.4168
  464MOL0     C62560   7.133   3.092  10.628  0.0605  0.0103 -0.3014
  464MOL0     C62561   7.164   3.059  10.763  0.5189 -0.2247 -0.4256
  464MOL0     C62562   7.202   3.166  10.861  0.4771 -0.6226  0.4167
  464MOL0     O62563   7.228   3.149  10.995 -0.8727 -0.1060  1.2391
  464MOL0     C62564   7.271   3.016  11.026  0.5818  0.1285  0.1769
  464MOL0     C62565   7.273   3.013  11.175 -0.5622  0.0656 -0.5819
  464MOL0     C62566   7.134   3.022  11.247 -0.3298 -0.1501  0.0703
  464MOL0     C62567   7.138   3.022  11.403  0.0693  0.3868  0.2459
  464MOL0     C62568   7.163   2.892  11.464 -0.9225 -0.1135  0.4528
  464MOL0     C62569   7.165   2.782  11.507  0.3743 -0.9553  0.7174
  464MOL0     C62570   7.180   3.301  10.812 -0.1411  0.1911  0.3861
  464MOL0     C62571   7.152   3.328  10.672 -0.0393 -0.2842 -0.4617
  464MOL0     C62572   7.116   3.478  10.651  0.1963  0.7255 -0.4558
  464MOL0     H62573   7.167   2.911  10.251  2.7037 -2.2317 -1.8094
  464MOL0     H62574   7.298   2.880  10.034 -3.4221 -1.3133  1.5453
  464MOL0     H62575   7.451   3.224   9.789  0.2006  0.3531 -2.1573
  464MOL0     H62576   7.561   3.173   9.913  2.8005 -0.1170 -2.3848
  464MOL0     H62577   7.534   3.019   9.656  2.6486 -1.1036  0.0049
  464MOL0     H62578   7.668   2.999   9.757  1.5271  0.2242  2.6470
  464MOL0     H62579   7.768   3.209   9.724  3.9247 -1.5978 -3.9402
  464MOL0     H62580   7.626   3.275   9.630 -0.1344 -1.7126 -2.9315
  464MOL0     H62581   7.802   3.031   9.555 -2.0750 -1.2123  0.8590
  464MOL0     H62582   7.666   3.069   9.478  1.4492 -0.2968 -0.3509
  464MOL0     H62583   7.826   3.177   9.351 -1.1841 -1.5964  0.7125
  464MOL0     H62584   7.749   3.309   9.439  0.3866 -1.6744 -1.6240
  464MOL0     H62585   7.921   3.310   9.603 -3.8114 -0.7124 -1.4517
  464MOL0     H62586   8.001   3.172   9.551 -0.9978 -0.2675  1.1473
  464MOL0     H62587   8.125   3.377   9.492 -1.3009 -0.4476  0.7198
  464MOL0     H62588   7.993   3.433   9.383  1.2565  0.7197  0.1635
  464MOL0     H62589   8.170   3.189   9.352  1.1060  1.1829 -0.8102
  464MOL0     H62590   8.024   3.222   9.249  0.1583 -4.0259  2.8949
  464MOL0     H62591   8.402   3.344   9.318  0.2410 -0.0056 -1.8785
  464MOL0     H62592   8.521   3.558   9.162  0.6674  2.5151 -3.1326
  464MOL0     H62593   8.562   3.391   9.103 -0.5608 -0.4862 -1.2553
  464MOL0     H62594   8.474   3.435   8.888  0.3486  1.1619 -1.4855
  464MOL0     H62595   8.432   3.602   8.937 -1.9247 -1.2590 -1.5816
  464MOL0     H62596   8.686   3.641   8.999  0.8221 -2.5086  1.0665
  464MOL0     H62597   8.627   3.640   8.835 -1.1100  2.0145  0.8438
  464MOL0     H62598   8.820   3.485   8.828 -0.5941  4.5289  0.5248
  464MOL0     H62599   8.688   3.372   8.868 -0.0183 -1.7783  3.9846
  464MOL0     H62600   8.977   3.396   9.241  1.4097 -1.6771  1.3981
  464MOL0     H62601   9.180   3.263   9.250  1.9966  0.1686  0.4076
  464MOL0     H62602   9.534   3.007   8.988 -1.5477  2.0472  0.8464
  464MOL0     H62603   9.749   2.895   9.043 -0.5130 -0.9249 -0.6543
  464MOL0     H62604   9.740   2.645   9.239 -0.2487 -0.3077 -0.5778
  464MOL0     H62605   9.840   2.675   9.118 -2.8048  1.3804 -0.3638
  464MOL0     H62606   9.962   2.676   9.394 -0.7924  3.1380 -2.3414
  464MOL0     H62607   9.879   2.522   9.354  1.6558 -1.6571 -4.6293
  464MOL0     H62608  10.120   2.495   9.336 -1.8850 -1.9750 -0.6760
  464MOL0     H62609  10.032   2.483   9.189  1.5132  0.7147 -1.2091
  464MOL0     H62610  10.103   2.726   9.116  1.6860 -0.9136 -0.7806
  464MOL0     H62611  10.242   2.623   9.162  0.5553  1.9908 -2.9205
  464MOL0     H62612  10.190   2.740   9.408 -0.1312 -4.0092 -2.0535
  464MOL0     H62613  10.123   2.864   9.306 -1.4622 -0.3091 -1.8021
  464MOL0     H62614  10.343   2.815   9.154  0.8886  0.2319 -0.3131
  464MOL0     H62615  10.332   2.924   9.296 -1.9591  0.4840  0.0662
  464MOL0     H62616  10.413   2.626   9.320  2.6581  0.2266 -3.5068
  464MOL0     H62617  10.419   2.751   9.449 -2.0719  0.3873  0.1651
  464MOL0     H62618  10.590   2.763   9.190  1.2311 -1.6624  0.8431
  464MOL0     H62619  10.603   2.854   9.346  0.4603 -1.3452  3.6324
  464MOL0     H62620   9.677   2.952   9.460 -4.1163 -1.2711  1.3915
  464MOL0     H62621   9.457   3.031   9.409 -0.7990 -0.0893  0.0874
  464MOL0     H62622   9.121   3.142   8.847  0.4794 -0.7116  0.6533
  464MOL0     H62623   8.934   3.286   8.822  0.3335 -1.0530  0.0693
  464MOL0     H62624   7.356   3.297   9.993 -1.8134  3.6066  3.1946
  464MOL0     H62625   7.227   3.342  10.187  2.0601  0.4922 -1.5531
  464MOL0     H62626   7.101   3.004  10.574  3.1781 -2.0208  0.9029
  464MOL0     H62627   7.140   2.956  10.789 -2.0522  0.5317  0.4910
  464MOL0     H62628   7.361   2.994  10.967  0.7031  0.7155  0.1324
  464MOL0     H62629   7.199   2.939  10.998 -0.0002 -0.1890  2.3662
  464MOL0     H62630   7.326   3.101  11.213  0.7906 -1.5992  1.6195
  464MOL0     H62631   7.325   2.923  11.209 -1.4772  0.7773  3.0411
  464MOL0     H62632   7.070   2.936  11.221 -0.5226  0.2408 -0.7835
  464MOL0     H62633   7.088   3.117  11.220  0.3322  1.1088  3.0280
  464MOL0     H62634   7.224   3.084  11.431  3.3538 -3.1311 -1.1375
  464MOL0     H62635   7.046   3.059  11.450 -0.9734  1.0634 -2.1524
  464MOL0     H62636   7.134   2.693  11.559 -2.5353  1.4185  3.4494
  464MOL0     H62637   7.181   3.362  10.902  0.9110  0.4749  0.2033
  464MOL0     H62638   7.151   3.537  10.736 -0.6259  0.4501  0.0776
  464MOL0     H62639   7.163   3.524  10.563  0.1391 -1.8391 -1.9469
  464MOL0     H62640   7.008   3.488  10.645  0.4595  4.0529 -1.7466
  465MOL0     O62641   9.160   4.756  11.415 -0.0953 -0.1876 -0.2535
  465MOL0     C62642   9.160   4.880  11.444  1.0355 -0.7664  0.3651
  465MOL0     O62643   9.225   4.934  11.548  0.3704 -0.4300 -0.2498
  465MOL0     C62644   9.332   4.879  11.613 -0.3056 -0.3979 -0.5737
  465MOL0     C62645   9.368   4.943  11.736  0.3274 -0.6642  1.8021
  465MOL0     C62646   9.477   4.910  11.817 -0.4457  0.5802  0.1195
  465MOL0     C62647   9.552   4.788  11.783  0.1821  0.6751  0.0870
  465MOL0     O62648   9.666   4.753  11.844 -0.7701  0.1928 -0.1851
  465MOL0     C62649   9.689   4.808  11.976  0.1484  0.2621 -0.4133
  465MOL0     C62650   9.820   4.753  12.037  1.2041  0.0096 -0.2709
  465MOL0     C62651   9.791   4.605  12.083  0.6671 -0.8390 -0.0307
  465MOL0     C62652   9.853   4.571  12.221  0.4653  0.5366  0.5263
  465MOL0     C62653   9.854   4.419  12.240 -0.3278 -0.2646  0.5975
  465MOL0     C62654   9.905   4.382  12.380  0.3825  0.1994 -0.1270
  465MOL0     C62655  10.051   4.408  12.411  0.4423 -0.1640 -0.8104
  465MOL0     C62656  10.102   4.327  12.535 -0.4385  0.9509  0.2965
  465MOL0     N62657  10.242   4.347  12.566 -0.0424 -0.0387 -0.5052
  465MOL0     C62658  10.305   4.288  12.680  0.1017  0.1709 -0.9628
  465MOL0     C62659  10.433   4.331  12.670  1.0895  0.9902  0.3822
  465MOL0     C62660  10.542   4.300  12.769  0.0203  0.4069 -0.0266
  465MOL0     C62661  10.552   4.389  12.890 -0.2585  0.4041 -0.7424
  465MOL0     C62662  10.534   4.537  12.863  0.2082 -0.4593 -0.5736
  465MOL0     C62663  10.634   4.593  12.754  0.5658  0.1820  0.3055
  465MOL0     O62664  10.773   4.601  12.791  0.2284  0.8792  0.4913
  465MOL0     C62665  10.855   4.616  12.678  0.0426  0.5470  0.5279
  465MOL0     C62666  10.813   4.674  12.557 -0.2314 -0.2596  0.1346
  465MOL0     C62667  10.907   4.696  12.459 -0.3627 -0.2416 -0.0466
  465MOL0     C62668  11.042   4.659  12.469  0.4916  0.3525 -0.2930
  465MOL0     C62669  11.139   4.685  12.365 -0.7804 -0.7692  0.8232
  465MOL0     O62670  11.259   4.616  12.355 -0.7090 -0.0092  0.6464
  465MOL0     C62671  11.373   4.664  12.295 -0.3780 -0.1734 -0.0792
  465MOL0     C62672  11.450   4.579  12.214  1.3107  0.2500 -0.0177
  465MOL0     C62673  11.564   4.624  12.145  0.2243  0.3387  0.3319
  465MOL0     C62674  11.612   4.764  12.169  0.0771  0.4072  0.5670
  465MOL0     O62675  11.738   4.805  12.133  0.2450  0.4880 -0.2795
  465MOL0     C62676  11.735   4.896  12.020  0.2463 -0.3762  0.3171
  465MOL0     C62677  11.863   4.969  12.036 -1.1458 -0.4412  0.4412
  465MOL0     C62678  11.874   5.083  11.940 -0.0763  0.9957  0.3033
  465MOL0     C62679  11.784   5.199  11.964 -0.1692 -0.1613  0.0808
  465MOL0     C62680  11.829   5.315  11.869  0.5284 -0.4725  0.0702
  465MOL0     C62681  11.937   5.408  11.930  0.4058 -0.1506 -0.4940
  465MOL0     C62682  12.036   5.466  11.829 -0.0615  0.4715  0.7304
  465MOL0     C62683  12.106   5.592  11.884 -0.1184  0.0626 -0.0854
  465MOL0    Cl62684  12.214   5.557  12.015  0.0764 -0.3400 -0.3288
  465MOL0     C62685  11.537   4.844  12.252  0.4168  0.4934  0.3890
  465MOL0     C62686  11.411   4.799  12.309 -1.0325 -0.0875  0.9427
  465MOL0     O62687  11.096   4.766  12.277 -0.2562 -0.2164  0.0531
  465MOL0     C62688  11.082   4.597  12.586  0.1624  0.3013  0.0011
  465MOL0     C62689  10.991   4.583  12.689  0.5954 -0.8225  0.0546
  465MOL0     N62690  10.433   4.425  12.561  0.4643  0.4763  0.3158
  465MOL0     N62691  10.322   4.435  12.503  1.2997  0.0883  0.3006
  465MOL0     C62692   9.510   4.725  11.661  0.0359  0.5460 -0.0870
  465MOL0     C62693   9.413   4.772  11.572  0.8603  0.5139 -0.1116
  465MOL0     C62694   9.086   4.953  11.353 -0.5825 -0.4036  0.4282
  465MOL0     C62695   9.108   4.928  11.218  0.7190 -1.5727  0.8201
  465MOL0     C62696   9.059   5.007  11.112  0.7690  0.7361  1.1218
  465MOL0     C62697   8.972   5.114  11.137  0.9023  0.6679  0.1205
  465MOL0     O62698   8.914   5.209  11.049 -0.2080  0.8593 -0.1818
  465MOL0     C62699   8.937   5.192  10.913  0.5616  0.6953 -0.0127
  465MOL0     C62700   8.854   5.286  10.835 -0.1348 -1.2571 -0.5046
  465MOL0     C62701   8.880   5.428  10.905 -0.2335 -0.4591  0.3962
  465MOL0     C62702   8.866   5.554  10.809 -0.0360  0.9335  0.0824
  465MOL0     C62703   8.750   5.538  10.722  0.5453  0.3887  0.7615
  465MOL0     C62704   8.665   5.536  10.639 -0.1417 -0.6833 -0.2047
  465MOL0     C62705   8.936   5.133  11.276  0.8407 -0.6189 -0.0568
  465MOL0     C62706   9.008   5.073  11.382  0.2469  0.8038  0.5181
  465MOL0     C62707   8.962   5.121  11.513 -0.7760 -0.9841 -0.4156
  465MOL0     H62708   9.310   5.033  11.753  1.1295 -0.2588  2.4336
  465MOL0     H62709   9.501   4.964  11.908 -0.0673  0.0544  0.3446
  465MOL0     H62710   9.708   4.915  11.965  2.8655 -0.4195 -5.6949
  465MOL0     H62711   9.609   4.782  12.046  1.9315 -0.7856  1.3655
  465MOL0     H62712   9.834   4.811  12.129  0.8541  0.8107 -0.7087
  465MOL0     H62713   9.900   4.761  11.963 -0.4272  0.9886 -2.0264
  465MOL0     H62714   9.810   4.533  12.003 -1.3492  1.2359 -2.5968
  465MOL0     H62715   9.685   4.600  12.109  0.5055  2.0972  0.2211
  465MOL0     H62716   9.956   4.606  12.223  0.5650  0.2445  0.6264
  465MOL0     H62717   9.792   4.623  12.296 -2.2593  1.1238 -1.8951
  465MOL0     H62718   9.752   4.384  12.229 -0.7655  1.0813  0.1385
  465MOL0     H62719   9.910   4.370  12.160  0.3437  0.5572  0.5377
  465MOL0     H62720   9.842   4.430  12.454 -2.5591 -3.1395 -0.2022
  465MOL0     H62721   9.887   4.278  12.408 -1.4061  0.7646  0.9301
  465MOL0     H62722  10.051   4.515  12.433  0.7099 -0.7294  2.4267
  465MOL0     H62723  10.119   4.392  12.326 -2.8672 -0.3719 -3.6346
  465MOL0     H62724  10.037   4.341  12.621  0.3609 -2.2665  1.5797
  465MOL0     H62725  10.103   4.220  12.511  0.7260  1.3030 -1.4387
  465MOL0     H62726  10.251   4.230  12.755  0.9126 -1.7606 -1.8101
  465MOL0     H62727  10.519   4.200  12.806 -4.6016  0.8689 -1.0261
  465MOL0     H62728  10.643   4.297  12.728  0.5534 -2.0829  1.3147
  465MOL0     H62729  10.484   4.347  12.964  1.5020 -2.1993 -0.4647
  465MOL0     H62730  10.653   4.373  12.930 -0.2492  1.7302 -0.1749
  465MOL0     H62731  10.534   4.606  12.948 -3.7202 -1.3211  0.3444
  465MOL0     H62732  10.431   4.537  12.825  0.4565  1.6488 -1.3986
  465MOL0     H62733  10.606   4.688  12.708  0.1162 -0.7017 -1.3376
  465MOL0     H62734  10.613   4.528  12.668  0.7148 -0.5261  0.7934
  465MOL0     H62735  10.708   4.684  12.531 -0.2844 -0.5449  0.2423
  465MOL0     H62736  10.864   4.746  12.373 -0.9684 -1.1218 -0.2716
  465MOL0     H62737  11.427   4.473  12.206  0.6376  0.3845  0.0813
  465MOL0     H62738  11.634   4.550  12.106  1.5014  1.0731  1.1778
  465MOL0     H62739  11.729   4.838  11.928 -2.7154 -2.8078  1.8877
  465MOL0     H62740  11.648   4.962  12.019  1.3645  1.1803  0.5692
  465MOL0     H62741  11.878   5.007  12.137 -1.3638 -1.6130  0.9333
  465MOL0     H62742  11.949   4.906  12.013  0.6458  1.5189  1.4220
  465MOL0     H62743  11.979   5.116  11.939 -0.1089  1.0940 -0.2930
  465MOL0     H62744  11.855   5.036  11.843  2.4897  1.4603 -0.5112
  465MOL0     H62745  11.791   5.234  12.067 -2.3221  0.2322  0.1466
  465MOL0     H62746  11.681   5.163  11.951  0.6587 -1.6876 -3.2012
  465MOL0     H62747  11.741   5.379  11.855 -0.0457 -0.4711  2.9937
  465MOL0     H62748  11.855   5.278  11.770  3.4452  1.0934  0.1548
  465MOL0     H62749  11.889   5.491  11.983  0.2546  0.1538 -1.0956
  465MOL0     H62750  11.993   5.348  12.003 -0.8867  1.6507  2.1511
  465MOL0     H62751  11.980   5.493  11.738 -0.9108 -0.4400  0.9687
  465MOL0     H62752  12.114   5.397  11.797 -0.6734 -0.7976  1.8946
  465MOL0     H62753  12.164   5.643  11.806 -1.2955  3.5142  1.1230
  465MOL0     H62754  12.034   5.667  11.919 -1.2684 -0.2050 -1.7269
  465MOL0     H62755  11.569   4.946  12.270 -1.4621  0.9833  1.2783
  465MOL0     H62756  11.348   4.859  12.374 -2.5996 -1.6164  0.9056
  465MOL0     H62757  11.185   4.571  12.608  0.5316  3.1759  2.1490
  465MOL0     H62758  11.015   4.544  12.787  0.3469  1.3535  1.0329
  465MOL0     H62759   9.565   4.637  11.627  0.9241  0.7232  0.8514
  465MOL0     H62760   9.394   4.732  11.473 -0.1138 -1.8330  0.9521
  465MOL0     H62761   9.165   4.843  11.181 -1.4222 -1.8918 -2.0608
  465MOL0     H62762   9.098   4.994  11.012 -2.6511  0.4154 -0.3224
  465MOL0     H62763   8.901   5.090  10.894 -0.7421  0.6787  2.1565
  465MOL0     H62764   9.040   5.197  10.877  0.7959 -1.3632  0.2441
  465MOL0     H62765   8.751   5.248  10.838 -0.5617 -0.5021 -2.8430
  465MOL0     H62766   8.880   5.272  10.729  0.7160 -0.7124 -0.3760
  465MOL0     H62767   8.986   5.419  10.931  0.4555  1.4475 -1.4405
  465MOL0     H62768   8.810   5.447  10.986 -0.3989 -3.0571  0.9581
  465MOL0     H62769   8.865   5.647  10.867 -0.3875  0.7226  0.4218
  465MOL0     H62770   8.959   5.552  10.751 -0.4837  0.3351 -0.6318
  465MOL0     H62771   8.594   5.526  10.559 -1.6368 -2.1137  1.2354
  465MOL0     H62772   8.876   5.223  11.284  1.0107 -0.6628  3.6949
  465MOL0     H62773   9.045   5.109  11.582 -2.9239  0.1163  2.5757
  465MOL0     H62774   8.934   5.226  11.521 -3.7614 -1.7095 -0.0520
  465MOL0     H62775   8.875   5.067  11.552  1.0926 -2.0559  2.6026
  466MOL0     O62776   3.982   2.093   6.831  0.1980 -0.1662 -0.9623
  466MOL0     C62777   3.963   1.967   6.824  0.2543 -0.2555 -0.7381
  466MOL0     O62778   3.860   1.920   6.753 -0.0989 -0.1328  0.6708
  466MOL0     C62779   3.770   2.016   6.705 -0.6378  1.0405 -0.7179
  466MOL0     C62780   3.767   2.043   6.566  0.3840  0.5131 -0.9289
  466MOL0     C62781   3.679   2.139   6.515  0.1767 -0.3181 -0.3272
  466MOL0     C62782   3.581   2.182   6.606  0.6166 -0.9648  0.2204
  466MOL0     O62783   3.500   2.277   6.537 -0.6655  0.3937  0.1851
  466MOL0     C62784   3.356   2.270   6.559  0.2520  0.8697 -0.0695
  466MOL0     C62785   3.292   2.139   6.527  0.4077 -0.6573 -0.6330
  466MOL0     C62786   3.153   2.124   6.602 -0.1584  0.1419  0.3208
  466MOL0     C62787   3.078   2.000   6.541 -0.4435 -0.3160  0.3499
  466MOL0     C62788   2.950   1.991   6.613  0.7907  0.4044  0.1944
  466MOL0     C62789   2.880   1.860   6.577  0.7757 -0.1711 -0.7635
  466MOL0     C62790   2.730   1.859   6.631  0.6023  0.4204 -0.8759
  466MOL0     C62791   2.724   1.913   6.782 -0.5657  0.6600  0.2975
  466MOL0     N62792   2.581   1.901   6.824  1.0842 -0.7475  0.6440
  466MOL0     C62793   2.467   1.877   6.746  0.6037 -0.5413 -0.8539
  466MOL0     C62794   2.365   1.868   6.835 -0.0396 -0.4174 -0.6890
  466MOL0     C62795   2.227   1.848   6.795  0.1858 -0.9300 -0.0980
  466MOL0     C62796   2.142   1.965   6.816 -0.4356 -0.0729  0.2944
  466MOL0     C62797   2.127   2.065   6.700 -0.4373 -0.1378  0.3362
  466MOL0     C62798   2.061   2.200   6.732  0.4810  0.5978  0.5271
  466MOL0     O62799   2.017   2.244   6.601 -0.2753  0.3934  0.1286
  466MOL0     C62800   1.946   2.363   6.602  0.4195  0.2649 -0.0705
  466MOL0     C62801   1.987   2.454   6.506 -0.4346 -0.0207 -0.6881
  466MOL0     C62802   1.927   2.579   6.488 -0.3561  0.4819  0.0145
  466MOL0     C62803   1.817   2.616   6.566  0.6597  0.2171 -0.2916
  466MOL0     C62804   1.739   2.739   6.553 -0.7687 -0.8763 -0.1999
  466MOL0     O62805   1.666   2.780   6.652  0.1742 -0.7646  0.4094
  466MOL0     C62806   1.600   2.898   6.646 -0.1593  0.4748 -0.0214
  466MOL0     C62807   1.543   2.949   6.528  0.7538 -0.6033  0.8547
  466MOL0     C62808   1.454   3.057   6.536  0.2044  1.2343 -0.8374
  466MOL0     C62809   1.428   3.122   6.655  0.3428 -0.8950 -0.4986
  466MOL0     O62810   1.348   3.233   6.648  0.8724 -0.5402  0.3627
  466MOL0     C62811   1.335   3.312   6.529  0.5042  0.2110  0.4993
  466MOL0     C62812   1.239   3.416   6.574 -0.2019  0.6812  0.1904
  466MOL0     C62813   1.239   3.531   6.462  0.3237  0.8503  0.2569
  466MOL0     C62814   1.153   3.645   6.497 -0.0286  0.2529  0.4167
  466MOL0     C62815   1.177   3.766   6.403 -0.3512  0.6217 -0.1316
  466MOL0     C62816   1.088   3.743   6.275  0.6315  0.7178 -0.0398
  466MOL0     C62817   1.089   3.852   6.186 -0.3390 -0.4580 -0.2159
  466MOL0     C62818   0.994   3.832   6.060  0.0872 -0.8154 -0.3981
  466MOL0    Cl62819   0.919   3.987   5.993 -0.2817 -0.4137  0.3401
  466MOL0     C62820   1.477   3.066   6.770  0.2818  0.3499 -0.4886
  466MOL0     C62821   1.579   2.967   6.768  0.0369 -0.6148 -0.0674
  466MOL0     O62822   1.754   2.791   6.440 -0.0614  0.1121 -0.5036
  466MOL0     C62823   1.780   2.529   6.671  0.1024  0.9861  0.0062
  466MOL0     C62824   1.841   2.407   6.685 -0.2906  1.1118 -0.5087
  466MOL0     N62825   2.415   1.896   6.957 -0.2866 -0.4247 -0.4279
  466MOL0     N62826   2.546   1.921   6.948  0.1607  0.6509 -0.1877
  466MOL0     C62827   3.574   2.153   6.743  0.2804 -0.1292  0.6023
  466MOL0     C62828   3.680   2.071   6.789  0.4927 -0.5332 -0.7960
  466MOL0     C62829   4.064   1.866   6.881  0.3397  0.3325  0.6878
  466MOL0     C62830   4.044   1.734   6.851  0.2270  0.5819 -0.7240
  466MOL0     C62831   4.133   1.632   6.893 -0.1721 -0.4475 -0.0631
  466MOL0     C62832   4.245   1.665   6.957 -0.8612  0.4380  0.1800
  466MOL0     O62833   4.337   1.570   6.988  0.0662 -0.2769 -0.1544
  466MOL0     C62834   4.419   1.539   6.874  0.8630  1.3717  1.2220
  466MOL0     C62835   4.436   1.392   6.854  0.3069 -0.1126 -0.3493
  466MOL0     C62836   4.482   1.307   6.978 -0.3744  0.7257  0.1996
  466MOL0     C62837   4.618   1.362   7.027 -0.3645  0.2662 -0.9184
  466MOL0     C62838   4.728   1.347   6.930  1.3458  0.1314 -1.1188
  466MOL0     C62839   4.802   1.351   6.833  0.4803  0.7106 -0.8767
  466MOL0     C62840   4.264   1.799   6.983 -0.3866 -0.5539  0.1662
  466MOL0     C62841   4.178   1.899   6.950  0.7105  0.1919 -0.0803
  466MOL0     C62842   4.218   2.040   6.994  0.6652 -0.7971 -0.7337
  466MOL0     H62843   3.840   1.992   6.504  1.6875  1.2906 -0.0711
  466MOL0     H62844   3.671   2.164   6.409  2.3345 -0.9366 -0.6821
  466MOL0     H62845   3.327   2.316   6.654  1.6079 -1.6744  1.7075
  466MOL0     H62846   3.313   2.346   6.493 -2.7552  2.6772  3.5728
  466MOL0     H62847   3.353   2.059   6.571  2.8134  3.3123  4.3656
  466MOL0     H62848   3.290   2.120   6.419  1.8652  1.5397 -1.1116
  466MOL0     H62849   3.089   2.212   6.589  0.7053  0.7855  0.3102
  466MOL0     H62850   3.164   2.113   6.710 -0.1886 -0.3470  0.2760
  466MOL0     H62851   3.050   2.015   6.437 -0.9597  5.8107  1.0182
  466MOL0     H62852   3.139   1.911   6.561 -1.1681 -0.9957 -0.3929
  466MOL0     H62853   2.970   1.985   6.720 -2.6651  0.8934  0.9704
  466MOL0     H62854   2.882   2.072   6.589  0.1232  0.0350  0.8184
  466MOL0     H62855   2.871   1.842   6.470 -0.6040  1.9614 -1.0792
  466MOL0     H62856   2.948   1.782   6.612  0.9516 -0.1806 -1.1252
  466MOL0     H62857   2.689   1.758   6.636 -1.4374  1.2048 -0.6880
  466MOL0     H62858   2.664   1.924   6.573  0.4416 -0.0474 -1.2227
  466MOL0     H62859   2.781   1.846   6.848 -0.6165 -0.3444 -0.6369
  466MOL0     H62860   2.761   2.015   6.791  2.3357 -0.0999 -1.7500
  466MOL0     H62861   2.457   1.879   6.638 -0.0056 -0.8452 -0.8075
  466MOL0     H62862   2.227   1.812   6.692 -0.8942  1.0596 -0.8559
  466MOL0     H62863   2.190   1.769   6.861 -0.3213  2.3899  4.0348
  466MOL0     H62864   2.042   1.926   6.836  0.1131 -0.7910  1.7912
  466MOL0     H62865   2.168   2.017   6.909 -2.1764  0.4425  0.5226
  466MOL0     H62866   2.068   2.011   6.625 -3.6861 -0.2343  2.7541
  466MOL0     H62867   2.222   2.081   6.648 -0.7517 -0.3071 -0.3011
  466MOL0     H62868   2.125   2.277   6.777 -0.1080 -0.0390  2.5455
  466MOL0     H62869   1.980   2.187   6.804 -1.8090  0.6324 -1.8744
  466MOL0     H62870   2.079   2.433   6.453  1.5341 -0.5160  2.6731
  466MOL0     H62871   1.972   2.648   6.416  2.5024 -2.5087 -1.3139
  466MOL0     H62872   1.544   2.889   6.438  0.8868 -0.1836  0.5696
  466MOL0     H62873   1.409   3.079   6.440 -0.7108 -1.5611 -1.1452
  466MOL0     H62874   1.436   3.345   6.505  0.2954  0.1683 -0.4686
  466MOL0     H62875   1.291   3.259   6.444 -2.2244  0.2966  1.7708
  466MOL0     H62876   1.140   3.371   6.590  0.6399 -1.2757  0.0817
  466MOL0     H62877   1.286   3.456   6.664  0.1237 -0.6383  0.6306
  466MOL0     H62878   1.339   3.569   6.438  1.2204 -0.2159  2.1064
  466MOL0     H62879   1.197   3.477   6.377  1.4453  2.0959 -1.1400
  466MOL0     H62880   1.173   3.675   6.600  1.9048  2.8490 -0.6178
  466MOL0     H62881   1.046   3.622   6.494  0.1170 -0.4121 -0.1621
  466MOL0     H62882   1.279   3.776   6.367 -0.0817  0.5794  0.5946
  466MOL0     H62883   1.141   3.851   6.462 -2.3975 -0.5554  0.4302
  466MOL0     H62884   1.127   3.658   6.218 -0.4404  1.5858 -2.1830
  466MOL0     H62885   0.981   3.740   6.297  0.6712 -0.5809  0.0918
  466MOL0     H62886   1.187   3.871   6.142 -0.0338  1.5344  1.1907
  466MOL0     H62887   1.065   3.945   6.239  2.6537  1.1606 -1.4653
  466MOL0     H62888   1.043   3.778   5.979 -0.1186 -0.7535 -0.5638
  466MOL0     H62889   0.905   3.772   6.081 -1.9968  1.7911 -1.3104
  466MOL0     H62890   1.454   3.106   6.868 -1.2006 -1.0788 -0.1957
  466MOL0     H62891   1.634   2.936   6.856  1.7374 -2.2527 -1.6366
  466MOL0     H62892   1.695   2.552   6.735 -0.9538  1.7660 -1.5952
  466MOL0     H62893   1.816   2.330   6.757  1.8950  0.1218 -0.7169
  466MOL0     H62894   3.498   2.209   6.795 -1.7134 -1.0598 -1.1181
  466MOL0     H62895   3.679   2.072   6.898 -1.2870  1.8388 -0.7408
  466MOL0     H62896   3.956   1.698   6.798  0.2729 -0.6008 -0.0318
  466MOL0     H62897   4.107   1.531   6.864  4.3077 -2.3164  1.6522
  466MOL0     H62898   4.515   1.592   6.865  1.3173  0.8253  2.5088
  466MOL0     H62899   4.364   1.573   6.786  3.5631  1.2156 -0.6408
  466MOL0     H62900   4.497   1.372   6.765  1.7000  0.2837  0.4938
  466MOL0     H62901   4.337   1.356   6.824  0.2832 -0.6931  0.4201
  466MOL0     H62902   4.515   1.211   6.936  0.4103  2.3046 -3.1476
  466MOL0     H62903   4.402   1.308   7.053  1.7055  2.6269  2.5731
  466MOL0     H62904   4.612   1.471   7.036  0.6451  0.2203  0.5909
  466MOL0     H62905   4.632   1.312   7.123 -1.9358  0.7249 -0.4092
  466MOL0     H62906   4.866   1.366   6.749 -1.4261  0.5579 -2.4451
  466MOL0     H62907   4.357   1.853   7.000  0.0579  0.2085 -3.7416
  466MOL0     H62908   4.278   2.096   6.922 -1.1181  1.5835 -0.4781
  466MOL0     H62909   4.127   2.095   7.019 -1.9552 -4.6751 -0.7434
  466MOL0     H62910   4.273   2.033   7.088 -4.0915  3.1829  2.8835
  467MOL0     O62911   4.485   8.054   6.557  0.1663 -0.3167 -0.7195
  467MOL0     C62912   4.401   7.966   6.527  0.0422  0.1451  0.3336
  467MOL0     O62913   4.395   7.900   6.407 -0.1817 -0.1145 -0.6598
  467MOL0     C62914   4.506   7.923   6.323  0.3406 -0.5673 -1.4261
  467MOL0     C62915   4.505   8.031   6.238 -0.4808  0.8380 -0.0244
  467MOL0     C62916   4.618   8.057   6.154 -0.2064  1.0292  0.1495
  467MOL0     C62917   4.737   7.974   6.169 -0.8096 -0.0681  1.3570
  467MOL0     O62918   4.844   7.988   6.091  0.5997  0.1310  0.5336
  467MOL0     C62919   4.832   8.033   5.958  0.1955 -0.4190  0.2360
  467MOL0     C62920   4.969   8.014   5.895  0.5943  0.5111 -0.2627
  467MOL0     C62921   5.012   7.860   5.885 -0.1948  0.1978 -0.4090
  467MOL0     C62922   5.154   7.841   5.932  0.5542  0.3195  0.2315
  467MOL0     C62923   5.237   7.859   5.798 -0.6106  0.5403 -0.6969
  467MOL0     C62924   5.381   7.888   5.839 -0.3694 -0.2906  0.7179
  467MOL0     C62925   5.461   7.908   5.708  1.2771  0.1288  0.6695
  467MOL0     C62926   5.599   7.961   5.746  0.0339  0.0352 -0.6615
  467MOL0     N62927   5.684   7.985   5.633  0.6500 -0.1975  0.0820
  467MOL0     C62928   5.673   8.083   5.534 -0.5220  0.2835  0.1445
  467MOL0     C62929   5.757   8.032   5.436  0.2015 -0.3109  0.6238
  467MOL0     C62930   5.790   8.084   5.295  0.4605  0.2316 -0.5171
  467MOL0     C62931   5.789   7.971   5.197  0.2785 -0.5044 -0.2265
  467MOL0     C62932   5.655   7.896   5.178  0.0679 -0.4394 -0.3448
  467MOL0     C62933   5.561   7.988   5.110 -0.6061  0.1379 -0.6000
  467MOL0     O62934   5.493   8.075   5.198 -0.2033 -0.6291 -0.3937
  467MOL0     C62935   5.377   8.041   5.254  0.3735  0.8884  0.2057
  467MOL0     C62936   5.340   7.911   5.280  0.7278  0.4592  0.1028
  467MOL0     C62937   5.209   7.885   5.342 -0.4628  0.1790  0.4103
  467MOL0     C62938   5.130   7.992   5.374 -0.2516  0.3721  1.1722
  467MOL0     C62939   4.985   7.976   5.414  0.6546  0.2603  0.6380
  467MOL0     O62940   4.911   8.083   5.454 -0.7670 -0.1717  1.1686
  467MOL0     C62941   4.792   8.061   5.511  0.5643 -0.3389  0.9103
  467MOL0     C62942   4.756   7.948   5.585  0.1932 -1.2118 -0.4193
  467MOL0     C62943   4.636   7.946   5.659 -0.0919  0.8386 -0.2504
  467MOL0     C62944   4.557   8.061   5.653  0.4256  0.4169 -1.1256
  467MOL0     O62945   4.436   8.048   5.710  0.3338 -0.7147 -1.4101
  467MOL0     C62946   4.391   8.152   5.812 -0.0370 -0.0990 -0.4287
  467MOL0     C62947   4.239   8.130   5.843  0.1875  0.9992 -0.4655
  467MOL0     C62948   4.217   8.012   5.932  0.4325  0.2486  0.0883
  467MOL0     C62949   4.211   7.875   5.860 -0.1988  0.0404  0.3752
  467MOL0     C62950   4.242   7.764   5.960 -0.7352  0.1378  0.3420
  467MOL0     C62951   4.123   7.666   5.976  0.7845  0.4811  0.0724
  467MOL0     C62952   4.159   7.526   6.025 -0.3395 -0.4466  0.0246
  467MOL0     C62953   4.244   7.447   5.925 -0.0917  0.2771 -0.3194
  467MOL0    Cl62954   4.210   7.268   5.936 -0.1045 -0.0868 -0.5371
  467MOL0     C62955   4.580   8.158   5.561  0.4112 -0.1167  0.4684
  467MOL0     C62956   4.693   8.164   5.489 -1.0552  0.4500  0.5289
  467MOL0     O62957   4.940   7.863   5.386 -1.1813 -0.1929  0.5921
  467MOL0     C62958   5.168   8.124   5.333 -0.3019 -0.9007  0.7471
  467MOL0     C62959   5.293   8.148   5.280 -0.5414 -0.5073 -1.7940
  467MOL0     N62960   5.813   7.913   5.486  0.8072  0.6405 -0.1703
  467MOL0     N62961   5.753   7.876   5.586  0.4072  0.3169  0.1281
  467MOL0     C62962   4.740   7.881   6.270 -0.5444 -0.3843 -0.9753
  467MOL0     C62963   4.624   7.853   6.338  0.2998  0.6832 -0.0464
  467MOL0     C62964   4.302   7.947   6.632  0.2522 -0.4831 -0.1581
  467MOL0     C62965   4.324   8.006   6.766  0.1739 -0.4095  0.3802
  467MOL0     C62966   4.248   7.965   6.872  0.4954 -0.0350  0.4826
  467MOL0     C62967   4.132   7.891   6.863  0.4326  0.1040  0.4439
  467MOL0     O62968   4.064   7.846   6.970 -0.6166 -0.7793 -0.3808
  467MOL0     C62969   3.930   7.888   6.969 -0.0715  0.6495  0.4620
  467MOL0     C62970   3.886   7.817   7.097 -1.0507 -0.5237  0.3939
  467MOL0     C62971   3.909   7.659   7.115  0.8788 -0.8688  0.2674
  467MOL0     C62972   3.848   7.578   6.997 -1.0833  0.7226 -0.4189
  467MOL0     C62973   3.898   7.434   7.003 -0.7010  0.5506 -0.3490
  467MOL0     C62974   3.938   7.325   7.013 -0.0099  0.6892  0.2814
  467MOL0     C62975   4.090   7.857   6.734 -1.3601  0.5278  1.4631
  467MOL0     C62976   4.177   7.876   6.617 -0.5431 -0.9272 -0.0796
  467MOL0     C62977   4.117   7.829   6.493 -0.8581 -0.3952 -0.3428
  467MOL0     H62978   4.410   8.082   6.227 -0.7281  1.4308  3.7322
  467MOL0     H62979   4.616   8.135   6.079 -1.3676  0.2605 -0.6660
  467MOL0     H62980   4.761   7.973   5.900  0.1863 -1.5317  1.3595
  467MOL0     H62981   4.807   8.140   5.961 -1.2836 -0.7525  0.7203
  467MOL0     H62982   5.047   8.066   5.951  2.4650  1.3861 -3.3989
  467MOL0     H62983   4.976   8.048   5.791  1.8229 -4.7320 -2.2232
  467MOL0     H62984   4.995   7.820   5.785  0.1638  2.7673 -1.5795
  467MOL0     H62985   4.949   7.799   5.950  1.6732 -0.9042  0.4212
  467MOL0     H62986   5.197   7.904   6.009  2.5441  0.9501 -1.3025
  467MOL0     H62987   5.159   7.740   5.975  0.8094  0.6391  0.9634
  467MOL0     H62988   5.229   7.767   5.739 -2.3619  1.6029 -2.2167
  467MOL0     H62989   5.198   7.939   5.735 -4.3039 -0.2769  0.3396
  467MOL0     H62990   5.375   7.978   5.901  0.3921  0.9441 -0.9549
  467MOL0     H62991   5.428   7.804   5.891 -0.1474 -0.5356  0.1318
  467MOL0     H62992   5.411   7.985   5.648  1.6903  0.4387  0.7144
  467MOL0     H62993   5.464   7.820   5.644 -3.2316 -0.9132  1.5810
  467MOL0     H62994   5.580   8.051   5.805  1.6232 -2.2923  3.8123
  467MOL0     H62995   5.656   7.897   5.813 -0.3650  1.2908  0.9311
  467MOL0     H62996   5.612   8.170   5.551 -1.1788 -0.0262 -0.5721
  467MOL0     H62997   5.706   8.150   5.274 -1.6051 -2.2976 -0.7216
  467MOL0     H62998   5.888   8.130   5.301  1.2848 -1.3795 -0.9016
  467MOL0     H62999   5.809   8.000   5.094 -3.1009 -4.5449 -2.3810
  467MOL0     H63000   5.866   7.897   5.223  0.3035  0.4071  2.5899
  467MOL0     H63001   5.621   7.856   5.274  0.4524  3.1889  1.4628
  467MOL0     H63002   5.689   7.822   5.104  0.5573 -0.8215  0.2536
  467MOL0     H63003   5.489   7.929   5.053 -0.6664 -0.8683  0.4858
  467MOL0     H63004   5.619   8.057   5.047  1.1376  0.1902  0.9878
  467MOL0     H63005   5.405   7.824   5.268  0.0968  0.0397 -0.3667
  467MOL0     H63006   5.170   7.785   5.354 -1.6792  0.2313 -2.3768
  467MOL0     H63007   4.810   7.856   5.601 -0.8763 -1.5753  1.3301
  467MOL0     H63008   4.593   7.872   5.725 -4.2815  2.2853 -1.0590
  467MOL0     H63009   4.446   8.152   5.906 -0.6494  2.9039  0.0392
  467MOL0     H63010   4.396   8.254   5.773 -0.9426  0.5421  1.0471
  467MOL0     H63011   4.206   8.213   5.906  1.1510 -0.3349  1.9492
  467MOL0     H63012   4.170   8.136   5.759 -1.4568 -1.0893  0.6396
  467MOL0     H63013   4.297   8.016   6.005 -2.4377  1.1791  3.4487
  467MOL0     H63014   4.127   8.028   5.992  1.4332  0.1023  1.6820
  467MOL0     H63015   4.292   7.864   5.787  0.3252 -1.4282  1.1590
  467MOL0     H63016   4.114   7.854   5.814  0.7679 -3.9076 -0.2396
  467MOL0     H63017   4.294   7.800   6.049 -0.6281 -1.9961  1.2058
  467MOL0     H63018   4.329   7.715   5.914  0.1509  1.4703  0.5682
  467MOL0     H63019   4.050   7.715   6.041  0.6834  2.3328 -1.3541
  467MOL0     H63020   4.078   7.644   5.879  2.4964 -1.9052 -0.2947
  467MOL0     H63021   4.062   7.475   6.023  0.1436 -2.0722  4.8222
  467MOL0     H63022   4.187   7.525   6.131 -0.8650  1.9067  0.2357
  467MOL0     H63023   4.216   7.481   5.824 -4.0777  0.2911  0.5994
  467MOL0     H63024   4.350   7.461   5.946 -0.4421 -0.9441  2.8458
  467MOL0     H63025   4.507   8.234   5.535 -1.0645 -1.8769 -0.7988
  467MOL0     H63026   4.727   8.253   5.438  3.5671  0.7857  3.5884
  467MOL0     H63027   5.095   8.204   5.341 -0.4170 -0.8328 -0.8066
  467MOL0     H63028   5.321   8.244   5.238 -1.9775 -1.4381 -5.2375
  467MOL0     H63029   4.832   7.824   6.268 -0.4615 -0.2270 -2.5704
  467MOL0     H63030   4.639   7.786   6.422  0.8095  3.7382  2.5021
  467MOL0     H63031   4.415   8.057   6.796 -0.0024 -0.2190  0.5963
  467MOL0     H63032   4.289   7.988   6.970  2.2947 -0.7917 -0.0466
  467MOL0     H63033   3.858   7.866   6.890 -0.8873  2.6391  0.5946
  467MOL0     H63034   3.928   7.996   6.987  1.0928  0.4914  1.7042
  467MOL0     H63035   3.781   7.847   7.101 -1.1183 -0.4038 -1.5615
  467MOL0     H63036   3.938   7.867   7.180 -0.3500  0.1884 -0.4501
  467MOL0     H63037   3.849   7.622   7.199 -4.1448  0.9923 -2.1273
  467MOL0     H63038   4.016   7.651   7.136  0.8040 -0.1604  0.9429
  467MOL0     H63039   3.740   7.586   6.987 -1.0849  1.3681  0.0809
  467MOL0     H63040   3.890   7.624   6.907  3.4084 -1.2186  0.3916
  467MOL0     H63041   3.967   7.221   7.014 -2.4333 -0.2690 -3.4758
  467MOL0     H63042   3.999   7.802   6.714 -1.3585  2.2374 -5.3655
  467MOL0     H63043   4.068   7.733   6.514  1.1990 -1.7188 -1.2679
  467MOL0     H63044   4.033   7.896   6.472 -0.4300 -0.0950 -1.1224
  467MOL0     H63045   4.187   7.817   6.410 -0.7836  0.5421 -0.4199
  468MOL0     O63046   8.062   0.733   3.721  0.1561  0.0916  0.1251
  468MOL0     C63047   7.962   0.774   3.666 -0.4588 -0.4393  1.1215
  468MOL0     O63048   7.960   0.896   3.595 -0.0939 -0.3216  0.2464
  468MOL0     C63049   8.076   0.968   3.564  0.4900  0.3599  0.1634
  468MOL0     C63050   8.060   1.051   3.453  0.2509 -0.8384  0.7409
  468MOL0     C63051   8.166   1.133   3.397 -0.1673  0.4297 -0.3186
  468MOL0     C63052   8.293   1.128   3.463 -0.1524  0.0366 -0.6284
  468MOL0     O63053   8.397   1.211   3.426  0.6049  0.1689  0.0977
  468MOL0     C63054   8.439   1.208   3.292 -1.0858 -0.0586  0.0062
  468MOL0     C63055   8.543   1.312   3.271 -0.1365  0.7691 -0.1630
  468MOL0     C63056   8.664   1.298   3.366 -0.4049  0.1267 -0.4021
  468MOL0     C63057   8.728   1.164   3.377 -0.0480  0.9239  0.3340
  468MOL0     C63058   8.791   1.124   3.239 -0.4812 -0.3404 -0.2014
  468MOL0     C63059   8.878   1.003   3.253 -0.1691  0.1574 -0.1011
  468MOL0     C63060   8.810   0.881   3.318 -0.6464  0.0016 -0.0966
  468MOL0     C63061   8.850   0.744   3.249 -0.4923  0.1937  0.3573
  468MOL0     N63062   8.988   0.697   3.272 -0.6616  0.8450  0.1489
  468MOL0     C63063   9.107   0.759   3.299 -0.1951  0.0802  0.4433
  468MOL0     C63064   9.199   0.662   3.340 -0.3244  0.0528 -0.5499
  468MOL0     C63065   9.336   0.694   3.393 -0.6581  0.4966 -0.4029
  468MOL0     C63066   9.333   0.773   3.529 -0.8519  0.1224 -0.6145
  468MOL0     C63067   9.474   0.804   3.579  0.1252 -1.4614  0.2861
  468MOL0     C63068   9.465   0.883   3.710 -0.9503 -1.2336 -0.0588
  468MOL0     O63069   9.341   0.920   3.766  0.9716  0.5109 -0.0868
  468MOL0     C63070   9.281   1.038   3.731 -1.0507  0.6999  0.1886
  468MOL0     C63071   9.330   1.161   3.771 -0.0440 -0.6529 -0.6066
  468MOL0     C63072   9.262   1.279   3.736 -0.1149  0.3594 -0.4859
  468MOL0     C63073   9.146   1.270   3.663  0.2669  0.1682  0.2588
  468MOL0     C63074   9.074   1.387   3.618  0.0910  0.5324  0.4279
  468MOL0     O63075   9.152   1.495   3.621 -0.0744 -0.3546  0.8644
  468MOL0     C63076   9.105   1.623   3.611  0.6718  0.0042  0.1454
  468MOL0     C63077   9.201   1.721   3.596  0.2567 -0.1122  1.1078
  468MOL0     C63078   9.168   1.859   3.594 -0.3327  0.6953 -0.3759
  468MOL0     C63079   9.032   1.897   3.599 -0.9226  0.3715  0.0423
  468MOL0     O63080   8.974   2.031   3.590 -0.8113 -0.0478 -0.1338
  468MOL0     C63081   9.054   2.121   3.667  0.8113 -0.4733  0.9621
  468MOL0     C63082   9.056   2.256   3.584  0.6548  0.1164 -0.1217
  468MOL0     C63083   9.166   2.356   3.630  0.4066  0.5979  1.0780
  468MOL0     C63084   9.124   2.454   3.732 -0.1474  0.5424  0.5697
  468MOL0     C63085   9.216   2.570   3.762 -0.2925 -0.5737  0.1094
  468MOL0     C63086   9.223   2.688   3.659  0.4841  1.0439  0.1165
  468MOL0     C63087   9.333   2.782   3.686 -1.0151  0.7289  0.1796
  468MOL0     C63088   9.474   2.722   3.667 -0.0665  0.2792 -0.1940
  468MOL0    Cl63089   9.495   2.615   3.524 -0.6950 -0.2205  0.0431
  468MOL0     C63090   8.934   1.796   3.614 -0.9937  0.2592  0.9360
  468MOL0     C63091   8.971   1.668   3.627  0.1276  0.4952  0.0060
  468MOL0     O63092   8.959   1.379   3.584  0.6926 -0.0139 -0.2438
  468MOL0     C63093   9.093   1.138   3.625  0.3477  0.3318  0.3660
  468MOL0     C63094   9.165   1.023   3.663  0.3783  0.0095  0.2591
  468MOL0     N63095   9.126   0.547   3.338  0.3393 -0.1619  0.5164
  468MOL0     N63096   9.004   0.562   3.295  0.1301 -0.1403 -0.5757
  468MOL0     C63097   8.304   1.055   3.579 -0.1079 -0.2143  0.6513
  468MOL0     C63098   8.198   0.965   3.623  0.1415 -1.1133 -0.2300
  468MOL0     C63099   7.850   0.679   3.640  0.3578 -0.9556  0.4209
  468MOL0     C63100   7.775   0.689   3.521  0.0417  0.0178  0.1680
  468MOL0     C63101   7.662   0.603   3.486  0.1056  0.0697 -0.3551
  468MOL0     C63102   7.623   0.503   3.575  0.7454 -0.9346  0.0692
  468MOL0     O63103   7.517   0.421   3.552  0.3387  0.4627 -0.5759
  468MOL0     C63104   7.391   0.464   3.610  0.0044 -0.1078 -0.0658
  468MOL0     C63105   7.283   0.444   3.510 -0.2814  0.4910 -0.0762
  468MOL0     C63106   7.157   0.505   3.565 -0.3185 -0.0955 -0.4264
  468MOL0     C63107   7.032   0.454   3.507 -0.0749  0.3910  0.2585
  468MOL0     C63108   7.023   0.464   3.365 -0.1721 -0.4011 -0.9244
  468MOL0     C63109   7.001   0.482   3.246  0.2466 -0.4395 -1.3677
  468MOL0     C63110   7.700   0.498   3.694  0.0865  0.2637  0.2054
  468MOL0     C63111   7.805   0.585   3.733  0.9818  0.1636  0.6335
  468MOL0     C63112   7.875   0.564   3.864  0.9055 -0.4956 -1.4463
  468MOL0     H63113   7.963   1.062   3.406  1.7953  2.1841 -2.2044
  468MOL0     H63114   8.148   1.197   3.311 -0.6836  0.0413 -0.5065
  468MOL0     H63115   8.468   1.105   3.266  0.5260  0.4885 -0.4493
  468MOL0     H63116   8.360   1.244   3.225  1.7899  1.6286 -2.7755
  468MOL0     H63117   8.507   1.413   3.293  0.6783  0.6875  1.7265
  468MOL0     H63118   8.579   1.313   3.168  0.8202  0.8713  0.1644
  468MOL0     H63119   8.657   1.329   3.471  2.5009  1.2773 -0.4693
  468MOL0     H63120   8.745   1.362   3.331 -0.7171  1.5459  1.3052
  468MOL0     H63121   8.810   1.168   3.449  0.3175  3.2428 -0.1345
  468MOL0     H63122   8.653   1.095   3.418 -0.7161  0.5580 -1.4195
  468MOL0     H63123   8.708   1.107   3.170 -0.6784 -1.1773  0.2274
  468MOL0     H63124   8.854   1.204   3.200  1.7819 -0.2855  3.1747
  468MOL0     H63125   8.909   0.979   3.151  2.4491 -1.2301  0.9153
  468MOL0     H63126   8.968   1.028   3.310 -1.3311  0.9046  1.4944
  468MOL0     H63127   8.704   0.904   3.312 -0.5337  0.1717 -1.9267
  468MOL0     H63128   8.840   0.866   3.422 -1.4417  0.3507  0.1914
  468MOL0     H63129   8.794   0.666   3.303  0.9878  0.7434  2.8190
  468MOL0     H63130   8.833   0.749   3.141  2.0832  0.7358 -0.0767
  468MOL0     H63131   9.130   0.864   3.290 -3.7327  1.0959  1.4690
  468MOL0     H63132   9.386   0.597   3.398 -2.5852 -0.5263 -0.1194
  468MOL0     H63133   9.383   0.765   3.324 -1.6470  1.5175 -0.0684
  468MOL0     H63134   9.286   0.871   3.513  0.8712  1.3688  1.3715
  468MOL0     H63135   9.286   0.707   3.602 -0.7913 -1.0452 -1.6101
  468MOL0     H63136   9.527   0.862   3.503 -1.6152 -0.8096 -0.4772
  468MOL0     H63137   9.538   0.716   3.590 -1.1642 -2.4502  0.0763
  468MOL0     H63138   9.519   0.977   3.691 -1.5894 -0.8395  0.0403
  468MOL0     H63139   9.525   0.835   3.788  0.1337  2.1364  1.4052
  468MOL0     H63140   9.418   1.185   3.831 -0.4751 -0.3015 -0.1111
  468MOL0     H63141   9.300   1.376   3.767  0.4059 -0.5530  1.9595
  468MOL0     H63142   9.301   1.681   3.590 -0.5029 -1.8939 -0.6325
  468MOL0     H63143   9.237   1.942   3.577  0.3092  0.3342  0.3773
  468MOL0     H63144   9.003   2.138   3.762 -2.2373  0.4554 -0.7114
  468MOL0     H63145   9.162   2.103   3.671  2.0113  2.0498 -5.9343
  468MOL0     H63146   9.060   2.227   3.478 -2.3620  0.2512 -0.3811
  468MOL0     H63147   8.957   2.299   3.604  0.8177  0.1281  0.6612
  468MOL0     H63148   9.262   2.306   3.649 -0.8335 -1.9558  0.9863
  468MOL0     H63149   9.192   2.415   3.542  0.9607  0.9902  1.4975
  468MOL0     H63150   9.131   2.390   3.820 -2.9562 -1.5344 -0.5697
  468MOL0     H63151   9.025   2.496   3.711  0.4609  2.3356  1.0229
  468MOL0     H63152   9.312   2.520   3.780 -0.6675 -3.1596 -3.8061
  468MOL0     H63153   9.186   2.605   3.861  3.5288 -2.5860  2.2432
  468MOL0     H63154   9.205   2.653   3.557 -0.8391 -0.9092  0.9441
  468MOL0     H63155   9.130   2.741   3.680  1.5551  2.7305  0.8208
  468MOL0     H63156   9.324   2.822   3.787 -3.3477  1.4138 -0.2345
  468MOL0     H63157   9.312   2.873   3.629  1.6935  1.7550  0.6755
  468MOL0     H63158   9.545   2.805   3.670  3.1711 -2.2913 -0.3359
  468MOL0     H63159   9.511   2.670   3.756  1.7809  1.3129 -0.2959
  468MOL0     H63160   8.829   1.825   3.620 -0.6969  2.2110 -1.4537
  468MOL0     H63161   8.882   1.607   3.643 -0.4587  0.8668 -1.6853
  468MOL0     H63162   9.016   1.125   3.550  0.4840  0.9660  0.1062
  468MOL0     H63163   9.131   0.922   3.642 -1.3045  0.7587 -0.9013
  468MOL0     H63164   8.402   1.048   3.626 -0.1757  1.5798  1.1302
  468MOL0     H63165   8.229   0.903   3.706  0.5807  2.1196  2.2222
  468MOL0     H63166   7.800   0.771   3.455 -0.3344  1.7650  2.0801
  468MOL0     H63167   7.616   0.597   3.388 -2.4071 -1.7686  0.8049
  468MOL0     H63168   7.385   0.571   3.631 -0.0424  0.2612 -1.7837
  468MOL0     H63169   7.369   0.413   3.704 -1.9819 -1.3524 -1.1311
  468MOL0     H63170   7.267   0.336   3.499 -0.5689  0.4627  0.5881
  468MOL0     H63171   7.318   0.493   3.419  2.4440 -1.8638 -0.4349
  468MOL0     H63172   7.150   0.614   3.565 -1.5330 -0.1261  1.5680
  468MOL0     H63173   7.156   0.495   3.674  2.8170  3.9551  0.2002
  468MOL0     H63174   7.027   0.348   3.535  1.4940  0.3748  0.5271
  468MOL0     H63175   6.947   0.508   3.552  0.9957  0.9406  1.6917
  468MOL0     H63176   6.978   0.462   3.143  1.1660 -2.0232 -1.2869
  468MOL0     H63177   7.666   0.421   3.763 -0.1287  0.0323 -0.1559
  468MOL0     H63178   7.979   0.540   3.838  0.5342  1.0668 -5.0360
  468MOL0     H63179   7.868   0.659   3.919 -2.4803 -0.2782 -2.0624
  468MOL0     H63180   7.825   0.483   3.917  1.2080  1.2087  1.6584
  469MOL0     O63181   9.602   9.355   8.873  0.6296  0.1157 -0.5458
  469MOL0     C63182   9.481   9.371   8.897 -0.3572  0.6796 -0.3955
  469MOL0     O63183   9.387   9.272   8.918  0.5173  0.1464  1.0836
  469MOL0     C63184   9.417   9.137   8.917  0.0784 -0.5764 -0.2852
  469MOL0     C63185   9.539   9.082   8.942 -1.1741  0.6697  0.5449
  469MOL0     C63186   9.558   8.945   8.926  0.0641 -0.7590 -0.9095
  469MOL0     C63187   9.450   8.859   8.899 -0.2936 -0.3584 -0.4230
  469MOL0     O63188   9.452   8.720   8.902 -0.6254  0.7381  0.6275
  469MOL0     C63189   9.553   8.647   8.833  0.8118  0.5020 -0.0978
  469MOL0     C63190   9.585   8.502   8.889  0.5498 -0.9577  0.1622
  469MOL0     C63191   9.465   8.412   8.882  0.6085  0.1650  0.9161
  469MOL0     C63192   9.481   8.293   8.973  0.0559  1.9932 -0.3283
  469MOL0     C63193   9.397   8.174   8.927 -0.0577  0.5351  0.5486
  469MOL0     C63194   9.414   8.049   9.022  0.4762  0.5720  0.2544
  469MOL0     C63195   9.312   7.936   9.006  0.9965  0.2822  0.2784
  469MOL0     C63196   9.330   7.823   9.107 -0.6349  0.1266  0.7345
  469MOL0     N63197   9.322   7.870   9.247  0.7296 -0.0034  0.5907
  469MOL0     C63198   9.208   7.919   9.307  0.2398 -0.8457  0.1817
  469MOL0     C63199   9.249   7.938   9.440 -0.6653 -0.2422  0.7364
  469MOL0     C63200   9.189   7.985   9.560 -0.0162 -0.7237 -0.0021
  469MOL0     C63201   9.141   7.869   9.655  0.0176  0.4998 -0.1212
  469MOL0     C63202   9.042   7.772   9.581 -0.4103  0.3732  0.0415
  469MOL0     C63203   8.908   7.836   9.605  1.0858 -0.0509  0.2223
  469MOL0     O63204   8.869   7.916   9.491 -0.0984 -0.1643  0.1285
  469MOL0     C63205   8.732   7.948   9.503  0.1163 -0.6499 -0.1824
  469MOL0     C63206   8.672   8.027   9.608  0.5470 -0.6079 -0.0982
  469MOL0     C63207   8.526   8.034   9.629 -1.1399  0.1959  0.3042
  469MOL0     C63208   8.449   8.004   9.513 -0.8777  0.2029 -0.5042
  469MOL0     C63209   8.313   8.057   9.515  0.5039  0.3337 -0.8293
  469MOL0     O63210   8.258   8.128   9.615  0.0314 -0.6940 -0.3883
  469MOL0     C63211   8.130   8.187   9.616 -0.1804 -0.4605  0.4971
  469MOL0     C63212   8.084   8.232   9.737 -0.0639  0.2594 -0.1759
  469MOL0     C63213   7.946   8.272   9.746 -0.5265 -0.8646 -0.0249
  469MOL0     C63214   7.877   8.316   9.637 -0.0398  0.4751 -0.5737
  469MOL0     O63215   7.763   8.394   9.654 -0.4651 -0.0675 -0.2881
  469MOL0     C63216   7.653   8.352   9.564 -0.5070 -0.5696 -0.5418
  469MOL0     C63217   7.519   8.409   9.612 -0.5281 -0.5135 -0.8108
  469MOL0     C63218   7.499   8.403   9.768  0.1381 -0.0791  0.4918
  469MOL0     C63219   7.488   8.257   9.808 -0.4110 -0.0749 -0.3160
  469MOL0     C63220   7.458   8.249   9.961  0.1592  0.9614  0.2876
  469MOL0     C63221   7.305   8.259   9.978 -0.1307  0.6594  0.1303
  469MOL0     C63222   7.256   8.294  10.118 -0.2984 -0.2555 -1.1467
  469MOL0     C63223   7.346   8.224  10.229  0.3118  0.0259  0.3060
  469MOL0    Cl63224   7.368   8.047  10.196 -1.1005 -0.0123  0.1708
  469MOL0     C63225   7.947   8.296   9.510  1.6770 -0.5872 -0.4401
  469MOL0     C63226   8.062   8.223   9.495 -1.5217 -0.3833  0.4760
  469MOL0     O63227   8.253   8.011   9.418 -0.3734 -1.0558  0.2975
  469MOL0     C63228   8.514   7.945   9.403  0.2005 -0.5460 -0.1225
  469MOL0     C63229   8.650   7.910   9.399 -0.1575  0.8571  0.3105
  469MOL0     N63230   9.369   7.881   9.456 -0.6680  0.5229 -0.6548
  469MOL0     N63231   9.413   7.829   9.338  0.8738  0.1800 -0.7481
  469MOL0     C63232   9.329   8.916   8.874  0.4640  0.5908 -0.4378
  469MOL0     C63233   9.309   9.054   8.873 -0.7116  0.7522 -0.7076
  469MOL0     C63234   9.438   9.506   8.905 -1.2971 -1.4623 -0.3263
  469MOL0     C63235   9.386   9.557   8.790 -0.5360 -0.3323 -0.3886
  469MOL0     C63236   9.327   9.679   8.783 -0.4753 -0.1859  0.3423
  469MOL0     C63237   9.289   9.733   8.902 -0.2376  0.1138  0.4662
  469MOL0     O63238   9.209   9.842   8.889  0.5159  0.1173  0.0950
  469MOL0     C63239   9.093   9.824   8.969 -0.0206  0.2710  1.4075
  469MOL0     C63240   8.995   9.908   8.892  0.2577 -0.2586  0.5276
  469MOL0     C63241   8.974   9.861   8.740  0.0762  0.6159  0.6864
  469MOL0     C63242   8.865   9.753   8.728  0.1441  0.3635 -0.5062
  469MOL0     C63243   8.893   9.623   8.792 -0.8831  0.3836  1.3352
  469MOL0     C63244   8.943   9.511   8.828  1.2390 -0.6393 -0.6790
  469MOL0     C63245   9.333   9.678   9.024  0.0946 -0.3686 -0.0104
  469MOL0     C63246   9.398   9.565   9.029 -0.0314 -0.4663  0.0705
  469MOL0     C63247   9.433   9.501   9.165  0.3253  0.4054 -0.4819
  469MOL0     H63248   9.627   9.138   8.975 -0.7113  0.1257  0.2477
  469MOL0     H63249   9.652   8.893   8.940  0.1473 -0.1442  1.1346
  469MOL0     H63250   9.517   8.639   8.730  2.0001  3.1405 -0.7934
  469MOL0     H63251   9.645   8.706   8.826  0.4124  1.3414  1.3171
  469MOL0     H63252   9.626   8.507   8.991 -0.5991 -4.0315  0.8649
  469MOL0     H63253   9.664   8.451   8.834 -0.6247 -1.3803 -1.1718
  469MOL0     H63254   9.463   8.397   8.774  3.5826  2.8873  0.3295
  469MOL0     H63255   9.371   8.463   8.902 -0.5744 -0.9845 -1.3150
  469MOL0     H63256   9.577   8.250   8.945  0.3204  3.6443 -2.2217
  469MOL0     H63257   9.472   8.321   9.078 -1.2359  3.1704 -0.7144
  469MOL0     H63258   9.292   8.203   8.914  0.3465  3.0464  2.1297
  469MOL0     H63259   9.429   8.130   8.832  2.3244  0.4146  1.3531
  469MOL0     H63260   9.515   8.013   9.002 -0.6580 -0.9084 -3.6846
  469MOL0     H63261   9.410   8.088   9.124  3.8637 -2.2971  1.6882
  469MOL0     H63262   9.327   7.884   8.911 -3.3590 -0.0945 -0.4190
  469MOL0     H63263   9.210   7.974   9.019  0.9917  0.6714 -0.8493
  469MOL0     H63264   9.243   7.764   9.075 -0.5542  0.2252  0.3246
  469MOL0     H63265   9.410   7.752   9.087 -2.7572 -1.6918 -2.0672
  469MOL0     H63266   9.111   7.953   9.272  0.9795 -0.9288 -2.1214
  469MOL0     H63267   9.256   8.046   9.622 -0.9622 -0.6520  0.9901
  469MOL0     H63268   9.106   8.051   9.530 -0.4444 -1.2780 -0.0583
  469MOL0     H63269   9.226   7.809   9.692  1.6318  1.9551 -1.3141
  469MOL0     H63270   9.109   7.904   9.753  1.0093  0.3380  0.2780
  469MOL0     H63271   9.030   7.672   9.624  1.8955  0.1079  0.1793
  469MOL0     H63272   9.055   7.758   9.473  1.3864 -0.1587  0.2913
  469MOL0     H63273   8.905   7.895   9.697  0.6088  1.5067 -0.7591
  469MOL0     H63274   8.838   7.754   9.624 -1.8244  1.9011 -1.2707
  469MOL0     H63275   8.725   8.067   9.693 -0.7017  1.4144 -0.1968
  469MOL0     H63276   8.491   8.088   9.717  0.9573  2.9930 -0.4265
  469MOL0     H63277   8.136   8.195   9.825 -1.7852  2.6521  1.9950
  469MOL0     H63278   7.904   8.277   9.846  1.6766 -1.1282  0.9665
  469MOL0     H63279   7.666   8.403   9.468  1.6859  0.4176  0.2169
  469MOL0     H63280   7.648   8.244   9.549  0.5932 -0.8984  1.1919
  469MOL0     H63281   7.512   8.514   9.582  0.5948  1.0068  3.5843
  469MOL0     H63282   7.441   8.354   9.558  0.2446 -1.9889 -0.4618
  469MOL0     H63283   7.581   8.453   9.819  1.7694 -0.3939 -1.6479
  469MOL0     H63284   7.409   8.451   9.806 -0.8467 -2.2861  1.0929
  469MOL0     H63285   7.588   8.217   9.786  1.0144  3.3115 -0.6665
  469MOL0     H63286   7.418   8.208   9.740 -1.7464  0.2261  0.8062
  469MOL0     H63287   7.518   8.331  10.003  0.8407  0.0660  1.0984
  469MOL0     H63288   7.497   8.152   9.995  0.5258  1.2461  0.7036
  469MOL0     H63289   7.266   8.328   9.903  2.4539  0.6949 -1.2966
  469MOL0     H63290   7.248   8.172   9.945 -0.9422  1.9732 -2.1469
  469MOL0     H63291   7.151   8.269  10.135 -0.3410  1.8350  2.9127
  469MOL0     H63292   7.269   8.402  10.133 -1.1320 -0.4434  1.4450
  469MOL0     H63293   7.443   8.273  10.240 -0.3483  0.6773  4.8253
  469MOL0     H63294   7.302   8.251  10.325 -1.4433  3.4923 -1.3075
  469MOL0     H63295   7.906   8.326   9.414 -0.4806  3.8253  1.5563
  469MOL0     H63296   8.109   8.213   9.398 -3.1074  3.7073 -0.9666
  469MOL0     H63297   8.457   7.909   9.318  0.2985 -4.6546  1.3613
  469MOL0     H63298   8.685   7.845   9.319  0.9919 -0.8641  2.1130
  469MOL0     H63299   9.238   8.864   8.846  1.3953  0.2002 -3.0959
  469MOL0     H63300   9.214   9.102   8.849 -0.9460  0.7988  0.2521
  469MOL0     H63301   9.388   9.497   8.700 -1.8531 -2.2999  0.8193
  469MOL0     H63302   9.296   9.722   8.688 -0.6432  0.0650  0.5093
  469MOL0     H63303   9.102   9.860   9.071 -0.8043 -2.3603  2.5023
  469MOL0     H63304   9.067   9.718   8.978  3.5131 -0.9937 -0.9251
  469MOL0     H63305   9.030  10.012   8.894  0.2457 -0.2073 -0.9030
  469MOL0     H63306   8.895   9.898   8.934  0.6049 -1.4266  1.1006
  469MOL0     H63307   9.064   9.825   8.688  0.4856  1.2176  0.9650
  469MOL0     H63308   8.941   9.952   8.689  1.3504 -0.0430 -1.4674
  469MOL0     H63309   8.771   9.785   8.773  0.8178  2.3960 -0.4609
  469MOL0     H63310   8.851   9.733   8.622 -0.7802 -0.3724 -0.2607
  469MOL0     H63311   8.989   9.414   8.837  1.3175 -0.4357  1.5152
  469MOL0     H63312   9.315   9.741   9.111 -1.5777  0.8677 -1.1864
  469MOL0     H63313   9.401   9.570   9.244  0.4669 -1.9394  1.7465
  469MOL0     H63314   9.384   9.405   9.185 -0.4145  1.0905  1.1713
  469MOL0     H63315   9.541   9.484   9.172 -0.1993 -6.0812 -2.2252
  470MOL0     O63316   3.433   1.994   0.730 -0.2756 -0.1303  0.3226
  470MOL0     C63317   3.527   2.061   0.779  0.3981  0.0261  1.4706
  470MOL0     O63318   3.653   2.089   0.722  0.4910 -0.3862  0.8556
  470MOL0     C63319   3.684   2.026   0.603 -0.7290 -0.1259 -0.2652
  470MOL0     C63320   3.743   1.907   0.625 -0.0587 -0.4821  0.2721
  470MOL0     C63321   3.790   1.843   0.505 -1.9269  0.2983 -0.4047
  470MOL0     C63322   3.788   1.885   0.376  0.3316  0.0845 -0.8519
  470MOL0     O63323   3.841   1.806   0.279 -0.0333 -0.0982  0.3805
  470MOL0     C63324   3.847   1.853   0.138 -0.2316  0.0787 -0.0136
  470MOL0     C63325   3.718   1.809   0.057 -0.6426 -0.4681 -0.1271
  470MOL0     C63326   3.699   1.670   0.016 -1.1354  0.4770 -0.1768
  470MOL0     C63327   3.717   1.569   0.125 -0.5857  0.3312  0.2519
  470MOL0     C63328   3.677   1.436   0.074 -0.1517  0.6401  0.4074
  470MOL0     C63329   3.666   1.329   0.193  0.7558 -0.3231  0.8557
  470MOL0     C63330   3.553   1.356   0.295 -0.1902  0.0170 -0.2453
  470MOL0     C63331   3.415   1.325   0.237 -0.7971 -0.4169 -0.9654
  470MOL0     N63332   3.317   1.317   0.350 -0.1637  0.7050  0.6727
  470MOL0     C63333   3.235   1.422   0.379  0.6241 -0.3770  0.3353
  470MOL0     C63334   3.127   1.368   0.439 -0.3437 -0.4465  0.0307
  470MOL0     C63335   2.985   1.428   0.455  1.4174 -0.2950  0.0494
  470MOL0     C63336   2.985   1.564   0.524 -0.2955  0.1898 -0.6902
  470MOL0     C63337   2.850   1.625   0.532  0.5640  0.5450  0.3065
  470MOL0     C63338   2.855   1.756   0.603  0.2014  0.3303 -0.6902
  470MOL0     O63339   2.925   1.860   0.524  0.0285  0.6808  0.6628
  470MOL0     C63340   2.871   1.988   0.517  0.0822  0.2014  0.2542
  470MOL0     C63341   2.960   2.084   0.465 -0.1647  0.8854 -0.6505
  470MOL0     C63342   2.927   2.216   0.461  0.8295 -0.5692 -1.0086
  470MOL0     C63343   2.796   2.254   0.489  0.0380 -0.3814  0.2482
  470MOL0     C63344   2.762   2.401   0.505 -0.7056 -0.3780  0.2400
  470MOL0     O63345   2.834   2.488   0.422  1.7220 -0.0789 -0.0882
  470MOL0     C63346   2.819   2.619   0.457 -0.2566 -1.2511  0.3032
  470MOL0     C63347   2.928   2.707   0.467  0.6735 -0.1003  1.0370
  470MOL0     C63348   2.911   2.840   0.513 -0.6004 -0.3117 -0.5140
  470MOL0     C63349   2.786   2.901   0.517  0.3621  0.2582 -1.0225
  470MOL0     O63350   2.760   3.032   0.557  0.0148  0.2666 -0.4940
  470MOL0     C63351   2.857   3.124   0.501  0.9070 -0.3610 -0.1594
  470MOL0     C63352   2.808   3.269   0.536 -0.4085 -0.1126  0.0418
  470MOL0     C63353   2.908   3.381   0.497 -0.4108  0.5267  0.7851
  470MOL0     C63354   2.893   3.517   0.566 -0.2588 -0.0665  0.1528
  470MOL0     C63355   2.973   3.632   0.496  0.4424  0.6872 -1.1723
  470MOL0     C63356   3.126   3.609   0.500 -0.3230 -0.6706 -0.2153
  470MOL0     C63357   3.195   3.743   0.459 -0.1688  0.6191  0.1045
  470MOL0     C63358   3.281   3.726   0.335  0.8447  0.9826  0.7921
  470MOL0    Cl63359   3.406   3.606   0.364 -0.2642  0.3352 -0.0067
  470MOL0     C63360   2.677   2.805   0.502 -0.2958 -0.3133 -0.7657
  470MOL0     C63361   2.694   2.672   0.482 -0.0086  0.2204 -0.2688
  470MOL0     O63362   2.694   2.425   0.604  0.4299  0.3061 -0.0037
  470MOL0     C63363   2.699   2.159   0.521  0.5962 -0.1729  0.7430
  470MOL0     C63364   2.736   2.021   0.532 -0.1720 -0.2825 -0.0351
  470MOL0     N63365   3.146   1.228   0.444 -1.3550 -0.8445 -0.5527
  470MOL0     N63366   3.258   1.194   0.388 -0.0058 -0.1811 -0.0241
  470MOL0     C63367   3.719   2.006   0.359  0.6329  0.6689 -0.9188
  470MOL0     C63368   3.674   2.077   0.478 -1.0781  0.4931  0.5099
  470MOL0     C63369   3.495   2.117   0.910 -0.3336  0.6780  0.1025
  470MOL0     C63370   3.598   2.114   1.005  0.2600 -0.9035 -0.0999
  470MOL0     C63371   3.584   2.164   1.136 -0.3770 -0.6957 -0.0608
  470MOL0     C63372   3.459   2.228   1.170 -0.4274  0.0728 -0.1109
  470MOL0     O63373   3.430   2.278   1.297 -0.9035 -0.1137 -0.7213
  470MOL0     C63374   3.544   2.335   1.371 -0.2025 -0.6513 -0.3205
  470MOL0     C63375   3.558   2.483   1.336 -0.2121  0.4837  0.6124
  470MOL0     C63376   3.444   2.572   1.391  0.1384  0.2910 -0.4124
  470MOL0     C63377   3.429   2.582   1.543 -0.3796 -0.2217 -0.5563
  470MOL0     C63378   3.320   2.505   1.603 -0.5879 -0.0633 -0.0554
  470MOL0     C63379   3.244   2.426   1.648  0.2014 -0.8453  0.3559
  470MOL0     C63380   3.359   2.232   1.077  0.0182 -0.2407 -0.2916
  470MOL0     C63381   3.369   2.168   0.945 -0.4875 -0.3682 -0.4430
  470MOL0     C63382   3.247   2.183   0.849 -0.2780  0.2838  0.0009
  470MOL0     H63383   3.751   1.852   0.718  1.6604  1.1076  1.1279
  470MOL0     H63384   3.837   1.746   0.520 -0.0172  1.3811  1.0670
  470MOL0     H63385   3.876   1.958   0.134 -0.7569  0.2007 -0.7254
  470MOL0     H63386   3.933   1.806   0.088  1.1312  3.3412 -1.0259
  470MOL0     H63387   3.689   1.869  -0.030 -1.1229 -1.1135 -0.4160
  470MOL0     H63388   3.636   1.835   0.124 -1.5801 -0.2078 -1.3400
  470MOL0     H63389   3.775   1.644  -0.058 -0.0329 -3.1959  2.0005
  470MOL0     H63390   3.597   1.662  -0.025 -2.2332  1.8436  2.0958
  470MOL0     H63391   3.819   1.569   0.165 -1.2735  0.3104  2.1079
  470MOL0     H63392   3.653   1.596   0.210 -1.0420 -0.3395  0.1284
  470MOL0     H63393   3.587   1.428   0.014  1.2614  0.6335 -1.8212
  470MOL0     H63394   3.759   1.405   0.008  1.3477  2.3004  1.4103
  470MOL0     H63395   3.653   1.239   0.134  3.8696  1.1642 -2.5209
  470MOL0     H63396   3.761   1.321   0.246  1.7042 -0.4677 -0.8031
  470MOL0     H63397   3.560   1.456   0.338  1.1965 -0.7314  1.4108
  470MOL0     H63398   3.564   1.296   0.385  3.0848  2.1940  1.0024
  470MOL0     H63399   3.406   1.400   0.157  2.2556  2.2242  0.9428
  470MOL0     H63400   3.416   1.227   0.187 -1.0115 -0.2224 -1.3601
  470MOL0     H63401   3.238   1.523   0.338 -0.8274 -0.6347 -0.4790
  470MOL0     H63402   2.937   1.422   0.356 -0.4320 -0.0977  0.8952
  470MOL0     H63403   2.931   1.363   0.524  1.1133 -0.6331 -0.4988
  470MOL0     H63404   3.008   1.567   0.631 -1.0724  2.1905 -0.5432
  470MOL0     H63405   3.054   1.628   0.469  0.5658 -3.8866 -4.9558
  470MOL0     H63406   2.789   1.563   0.599  1.4189  1.9088  2.4512
  470MOL0     H63407   2.807   1.623   0.431  1.8169 -0.3137 -0.2292
  470MOL0     H63408   2.902   1.750   0.702  0.3900  0.5628 -0.7635
  470MOL0     H63409   2.751   1.781   0.625  1.0586  2.4832  1.3508
  470MOL0     H63410   3.062   2.052   0.449  0.1766  1.4714  0.2497
  470MOL0     H63411   3.011   2.282   0.442 -1.7363  3.3401 -0.1343
  470MOL0     H63412   3.025   2.661   0.451  0.5633  0.5954 -2.3653
  470MOL0     H63413   3.002   2.896   0.537  0.4366 -1.8688 -0.6732
  470MOL0     H63414   2.957   3.115   0.545  0.1836  3.6543  2.8746
  470MOL0     H63415   2.867   3.117   0.392  1.2551  2.4936 -0.3783
  470MOL0     H63416   2.719   3.285   0.475  0.3281 -2.1422 -1.6550
  470MOL0     H63417   2.775   3.279   0.640 -1.5913  0.2188 -0.3524
  470MOL0     H63418   3.002   3.341   0.537  0.2579  2.6179  1.4253
  470MOL0     H63419   2.913   3.383   0.388 -1.4973 -2.7877  0.5453
  470MOL0     H63420   2.917   3.501   0.672 -1.9619 -0.2773  0.5504
  470MOL0     H63421   2.786   3.526   0.546 -1.2197 -2.9527  3.0580
  470MOL0     H63422   2.960   3.726   0.551  3.9344  0.5440  0.1988
  470MOL0     H63423   2.930   3.633   0.396 -2.6987  0.6115  0.0825
  470MOL0     H63424   3.156   3.582   0.601 -1.2682 -1.3105 -0.0854
  470MOL0     H63425   3.149   3.525   0.433 -2.1098  1.1011 -3.2755
  470MOL0     H63426   3.253   3.784   0.543 -2.2032 -1.2615  2.6143
  470MOL0     H63427   3.121   3.820   0.439  0.6094  1.3338 -0.0576
  470MOL0     H63428   3.230   3.684   0.248  3.8517 -0.5318 -0.4020
  470MOL0     H63429   3.321   3.824   0.308 -0.0370  1.3539  0.8277
  470MOL0     H63430   2.577   2.842   0.523 -1.4562 -3.2584 -0.7573
  470MOL0     H63431   2.604   2.613   0.498  1.5349 -1.6955  1.9352
  470MOL0     H63432   2.595   2.185   0.541 -0.1479 -1.9215 -0.5672
  470MOL0     H63433   2.653   1.956   0.557 -0.2156 -1.7247 -3.4079
  470MOL0     H63434   3.697   2.051   0.262  1.2835  1.2702 -0.7993
  470MOL0     H63435   3.637   2.178   0.474  0.8472  1.2314  0.1398
  470MOL0     H63436   3.698   2.072   0.996  1.0674  0.8892  0.0161
  470MOL0     H63437   3.663   2.150   1.210  1.4115  1.1377 -1.5142
  470MOL0     H63438   3.637   2.281   1.355 -1.2703 -3.0709  1.1943
  470MOL0     H63439   3.512   2.318   1.474 -0.9229 -1.0794 -0.6029
  470MOL0     H63440   3.550   2.479   1.227  0.3538 -0.4117  0.5951
  470MOL0     H63441   3.652   2.530   1.367  0.1599  0.1812 -0.0486
  470MOL0     H63442   3.344   2.552   1.349 -0.0581  1.7778 -0.6774
  470MOL0     H63443   3.471   2.671   1.356  3.1515 -0.3065 -0.0065
  470MOL0     H63444   3.522   2.554   1.595 -0.1707  1.9209  0.3389
  470MOL0     H63445   3.412   2.684   1.580  0.9556 -1.1605  3.1873
  470MOL0     H63446   3.171   2.361   1.690 -0.1067  1.1148  3.1279
  470MOL0     H63447   3.264   2.275   1.106  0.9116 -0.8649  4.2671
  470MOL0     H63448   3.211   2.089   0.804  0.9050 -0.9339  1.5076
  470MOL0     H63449   3.155   2.218   0.897 -0.2623 -0.2816  0.4498
  470MOL0     H63450   3.251   2.253   0.765 -3.6318  1.4563  0.6701
  471MOL0     O63451   1.237   7.798   4.199  0.1763 -0.0773 -0.0453
  471MOL0     C63452   1.129   7.814   4.255 -0.1769 -0.2713 -0.6158
  471MOL0     O63453   1.081   7.943   4.293 -0.1229 -0.1706  0.1188
  471MOL0     C63454   1.158   8.050   4.269 -0.4687  0.7740 -0.1754
  471MOL0     C63455   1.286   8.058   4.325  1.0707  0.9108  0.0554
  471MOL0     C63456   1.374   8.159   4.289  0.0369  0.8820  0.2072
  471MOL0     C63457   1.337   8.260   4.189  0.1550 -0.1894  0.0637
  471MOL0     O63458   1.407   8.362   4.142  0.1864  0.4339  0.3506
  471MOL0     C63459   1.540   8.378   4.175 -1.3234  0.8790 -1.0753
  471MOL0     C63460   1.608   8.490   4.090 -0.4381  0.7202  0.9537
  471MOL0     C63461   1.541   8.626   4.109 -0.3927 -0.7919  0.1172
  471MOL0     C63462   1.606   8.725   4.004 -0.8560 -0.4060 -0.2584
  471MOL0     C63463   1.583   8.871   4.038 -0.0600 -1.0705  0.1985
  471MOL0     C63464   1.451   8.932   4.020  0.1056 -0.9208  0.4415
  471MOL0     C63465   1.451   9.068   4.078 -0.5652 -0.3174 -0.0952
  471MOL0     C63466   1.505   9.094   4.229  0.6770  0.3825 -0.6541
  471MOL0     N63467   1.456   9.217   4.286 -0.0656  0.1982 -0.6377
  471MOL0     C63468   1.326   9.232   4.332 -0.3152 -0.6406 -0.3080
  471MOL0     C63469   1.310   9.367   4.349  0.6019 -0.4570 -0.4442
  471MOL0     C63470   1.189   9.442   4.406 -0.2846 -0.1503 -0.2035
  471MOL0     C63471   1.087   9.481   4.292 -0.2706 -0.0003 -0.6819
  471MOL0     C63472   0.963   9.557   4.344  0.5000 -0.3909 -0.2987
  471MOL0     C63473   0.856   9.564   4.245  0.5449 -0.4854  0.1192
  471MOL0     O63474   0.903   9.663   4.146 -0.3583  0.2516  0.2524
  471MOL0     C63475   0.813   9.701   4.042  0.2925 -0.0877 -0.1560
  471MOL0     C63476   0.854   9.821   3.979  0.1632  0.0947 -0.7269
  471MOL0     C63477   0.788   9.864   3.864  0.0761 -0.4318 -0.2498
  471MOL0     C63478   0.673   9.802   3.814  0.4599 -0.2430 -0.3822
  471MOL0     C63479   0.606   9.855   3.689  1.0212  0.1051 -0.6525
  471MOL0     O63480   0.469   9.835   3.672  0.4755  0.6438  0.6384
  471MOL0     C63481   0.435   9.877   3.548 -0.1281 -0.7623 -1.3461
  471MOL0     C63482   0.463   9.788   3.438  0.4702  0.0767  0.1866
  471MOL0     C63483   0.446   9.830   3.307  0.7140 -0.8462  0.8105
  471MOL0     C63484   0.403   9.966   3.277 -0.7983  0.3513 -0.0560
  471MOL0     O63485   0.384  10.016   3.148 -0.0135 -0.0790 -0.3336
  471MOL0     C63486   0.468   9.945   3.055 -0.0018  0.6979  1.0039
  471MOL0     C63487   0.483  10.038   2.926 -0.6562 -0.1471 -0.0055
  471MOL0     C63488   0.360  10.080   2.853 -0.1457  0.0269 -0.6296
  471MOL0     C63489   0.395  10.137   2.714  0.3800 -0.4988  0.6635
  471MOL0     C63490   0.266  10.149   2.620  0.1936  0.3233  0.1054
  471MOL0     C63491   0.177  10.272   2.657 -0.9057 -0.2123 -0.1806
  471MOL0     C63492   0.086  10.310   2.540  0.5070 -0.1360 -0.0833
  471MOL0     C63493   0.001  10.432   2.589  0.2847  0.2028  0.4108
  471MOL0    Cl63494  -0.117  10.394   2.712 -0.4272 -0.5335  0.2160
  471MOL0     C63495   0.361  10.044   3.390  0.3343  0.7651 -0.4179
  471MOL0     C63496   0.383  10.005   3.523 -1.1745  0.2895 -0.3804
  471MOL0     O63497   0.684   9.907   3.612  0.7391 -0.7071 -0.0808
  471MOL0     C63498   0.614   9.704   3.896  0.2800 -1.0027 -0.4791
  471MOL0     C63499   0.691   9.640   3.996  0.2569  0.3692  0.0309
  471MOL0     N63500   1.432   9.422   4.317  0.0833 -0.3129 -0.2628
  471MOL0     N63501   1.520   9.334   4.272 -1.1151 -0.6805  0.1859
  471MOL0     C63502   1.221   8.245   4.122  1.0143  0.2011  0.2227
  471MOL0     C63503   1.128   8.140   4.165 -0.7768  0.3416  0.4046
  471MOL0     C63504   1.057   7.687   4.275  0.6734  0.1512 -0.2018
  471MOL0     C63505   1.133   7.579   4.307  0.4435  0.8316  0.2451
  471MOL0     C63506   1.069   7.457   4.343  0.0363 -0.0360  1.6689
  471MOL0     C63507   0.932   7.444   4.330 -0.0044  0.7180  0.0275
  471MOL0     O63508   0.884   7.313   4.343 -0.6665 -0.7505 -0.1148
  471MOL0     C63509   0.757   7.274   4.311 -0.5582  0.0433 -0.4130
  471MOL0     C63510   0.741   7.128   4.291  0.6079  0.0980  0.3005
  471MOL0     C63511   0.717   7.055   4.423 -0.0042  0.5249  0.3300
  471MOL0     C63512   0.818   6.946   4.449 -0.4039  0.3000 -0.1787
  471MOL0     C63513   0.956   7.003   4.459 -0.0269 -0.2411  0.2602
  471MOL0     C63514   1.079   7.031   4.457 -0.5723 -0.5262  0.3367
  471MOL0     C63515   0.850   7.558   4.291 -0.0028  0.1318 -0.2517
  471MOL0     C63516   0.915   7.680   4.278  0.8907  0.6951  0.2909
  471MOL0     C63517   0.837   7.812   4.258  0.9131 -0.1145  0.1683
  471MOL0     H63518   1.310   7.979   4.396 -2.5775 -1.5022 -1.0801
  471MOL0     H63519   1.461   8.182   4.349 -0.5248  0.1656  1.3453
  471MOL0     H63520   1.547   8.396   4.283  1.2228  0.3792 -1.1021
  471MOL0     H63521   1.594   8.287   4.149 -1.3980  1.2589 -2.6432
  471MOL0     H63522   1.595   8.480   3.981 -0.6651  0.8591  0.9675
  471MOL0     H63523   1.715   8.495   4.113 -0.2803 -0.5932  0.5923
  471MOL0     H63524   1.562   8.661   4.210 -1.6519 -0.6975  0.3631
  471MOL0     H63525   1.434   8.619   4.085  0.0161  0.1174 -2.2846
  471MOL0     H63526   1.713   8.703   4.012 -1.4364 -2.8093  2.8994
  471MOL0     H63527   1.572   8.696   3.904 -4.7842 -0.5746  0.9423
  471MOL0     H63528   1.625   8.878   4.139 -0.0382 -0.1156  0.1292
  471MOL0     H63529   1.651   8.933   3.978  1.2488 -3.0810 -0.5137
  471MOL0     H63530   1.423   8.926   3.915  2.7921 -1.2345 -0.3140
  471MOL0     H63531   1.380   8.876   4.083 -1.6961 -1.1499 -1.6771
  471MOL0     H63532   1.353   9.115   4.071  0.9220  3.3227  1.0541
  471MOL0     H63533   1.521   9.117   4.009 -0.2754  0.0282  0.4360
  471MOL0     H63534   1.479   9.005   4.286 -3.4451 -0.3052 -3.1803
  471MOL0     H63535   1.613   9.092   4.239  0.5283 -1.0323  1.1159
  471MOL0     H63536   1.250   9.156   4.343  1.1270 -2.2190 -0.7632
  471MOL0     H63537   1.136   9.377   4.476 -1.4341  2.4226  1.4570
  471MOL0     H63538   1.228   9.528   4.461 -0.2097  0.8632 -1.7731
  471MOL0     H63539   1.141   9.558   4.235  1.1211  1.1803  2.0526
  471MOL0     H63540   1.045   9.392   4.243 -0.8902  0.2312 -0.5783
  471MOL0     H63541   0.982   9.662   4.366 -0.8324 -0.2778  0.4042
  471MOL0     H63542   0.928   9.501   4.431 -0.4716  0.0387 -0.3997
  471MOL0     H63543   0.763   9.597   4.294  0.2544 -1.3491  0.1541
  471MOL0     H63544   0.838   9.470   4.192 -3.3026  0.1616 -0.0486
  471MOL0     H63545   0.940   9.860   4.033  1.8650 -2.9062 -1.0148
  471MOL0     H63546   0.838   9.946   3.813  0.7574 -0.9219 -0.3849
  471MOL0     H63547   0.495   9.691   3.476 -0.2593 -1.0310 -1.8445
  471MOL0     H63548   0.455   9.759   3.226 -0.5916  2.6423 -2.7134
  471MOL0     H63549   0.566   9.924   3.099  1.8294 -5.0755 -4.2824
  471MOL0     H63550   0.422   9.854   3.014  4.0662 -1.7363  1.2572
  471MOL0     H63551   0.545  10.123   2.957 -2.1587  1.1900 -0.5007
  471MOL0     H63552   0.541   9.978   2.855  1.0430 -1.2631  2.2364
  471MOL0     H63553   0.305   9.986   2.846 -2.0621  1.0001  0.6937
  471MOL0     H63554   0.296  10.144   2.914 -0.0044 -1.3641  1.0426
  471MOL0     H63555   0.467  10.069   2.667  2.5921  3.3463 -2.1168
  471MOL0     H63556   0.451  10.230   2.724  0.6031 -0.7383  1.8273
  471MOL0     H63557   0.217  10.051   2.624  0.2325  0.3228  0.5739
  471MOL0     H63558   0.301  10.167   2.517  0.4599 -0.9187 -0.0438
  471MOL0     H63559   0.129  10.241   2.750  3.0422 -2.3536  1.4086
  471MOL0     H63560   0.239  10.359   2.682  0.3921 -1.1642  0.0383
  471MOL0     H63561   0.014  10.228   2.533  3.4137 -3.0334  1.3283
  471MOL0     H63562   0.152  10.319   2.453  0.7781  0.9406  0.2207
  471MOL0     H63563   0.081  10.489   2.637  2.0116 -1.9883  0.2689
  471MOL0     H63564  -0.054  10.479   2.507  0.1005  1.3196  1.1610
  471MOL0     H63565   0.325  10.147   3.385 -1.9735 -0.0191 -1.1096
  471MOL0     H63566   0.369  10.072   3.607  0.3946  1.0681 -0.7194
  471MOL0     H63567   0.517   9.656   3.883 -0.6413  0.1727  1.5575
  471MOL0     H63568   0.652   9.545   4.032  0.5304  0.4879  0.6413
  471MOL0     H63569   1.182   8.307   4.042 -2.1283  0.1894  1.6027
  471MOL0     H63570   1.029   8.146   4.120  1.1117  4.4326 -4.1701
  471MOL0     H63571   1.241   7.571   4.297  0.6729  2.2914  1.1772
  471MOL0     H63572   1.127   7.367   4.357  1.9677  1.1538  1.7036
  471MOL0     H63573   0.739   7.307   4.208  2.7573  2.1177 -0.4798
  471MOL0     H63574   0.683   7.309   4.383 -0.1906  3.7665 -1.6394
  471MOL0     H63575   0.837   7.099   4.248  2.2038  2.8688  1.7500
  471MOL0     H63576   0.659   7.101   4.224  1.9132 -0.6642 -1.0466
  471MOL0     H63577   0.615   7.015   4.412  1.9901 -5.0877 -1.0081
  471MOL0     H63578   0.712   7.115   4.515  0.1292 -1.6132  1.8119
  471MOL0     H63579   0.797   6.885   4.538  0.0457 -0.0063 -0.2784
  471MOL0     H63580   0.829   6.878   4.365  3.1265 -0.4042  0.6766
  471MOL0     H63581   1.182   7.059   4.441 -1.6186  1.9076 -3.8178
  471MOL0     H63582   0.742   7.561   4.284 -0.0011  0.8830 -0.0486
  471MOL0     H63583   0.855   7.870   4.348 -0.2779 -1.8025  1.5661
  471MOL0     H63584   0.854   7.854   4.158  0.0638 -0.7075 -0.2485
  471MOL0     H63585   0.731   7.786   4.269  1.2987 -0.6463  3.4755
  472MOL0     O63586   6.158   4.176   9.678 -0.1397 -0.4920 -0.6509
  472MOL0     C63587   6.133   4.234   9.780  0.7229 -0.0032  0.6843
  472MOL0     O63588   6.057   4.349   9.790  0.1989 -0.2137  0.2139
  472MOL0     C63589   5.994   4.386   9.670  0.3257 -0.9837 -0.2722
  472MOL0     C63590   5.890   4.301   9.621  1.0772  0.6826 -0.0541
  472MOL0     C63591   5.800   4.332   9.522 -0.4950  0.1975 -0.2022
  472MOL0     C63592   5.816   4.454   9.463 -0.3627 -0.1255  0.0385
  472MOL0     O63593   5.735   4.486   9.363  0.1343 -0.2799 -0.6518
  472MOL0     C63594   5.791   4.502   9.229 -0.3659  0.5780 -1.0801
  472MOL0     C63595   5.669   4.525   9.142  0.4118 -0.4332  1.0345
  472MOL0     C63596   5.590   4.660   9.159  0.7695 -0.6049  0.5162
  472MOL0     C63597   5.456   4.657   9.080 -0.1328  0.5032  0.4305
  472MOL0     C63598   5.400   4.800   9.084 -0.8343  0.1152 -0.4285
  472MOL0     C63599   5.267   4.808   9.012 -0.4253  0.7833 -1.1453
  472MOL0     C63600   5.211   4.953   9.034  0.8450 -0.2787 -0.3130
  472MOL0     C63601   5.099   4.963   8.934 -0.4112 -0.4336 -0.3856
  472MOL0     N63602   4.993   5.068   8.963  0.3077  0.5432 -0.5033
  472MOL0     C63603   4.927   5.138   8.863  0.2799 -0.0384 -0.3450
  472MOL0     C63604   4.824   5.205   8.918  0.6165 -0.3250 -0.4850
  472MOL0     C63605   4.728   5.303   8.851 -0.5246  0.4414 -0.5671
  472MOL0     C63606   4.611   5.352   8.944  0.2285  0.4033 -0.2392
  472MOL0     C63607   4.516   5.239   8.997 -0.1763  0.3463 -0.0865
  472MOL0     C63608   4.383   5.286   9.058 -0.1012  1.3577 -0.6303
  472MOL0     O63609   4.319   5.362   8.962  0.0152  0.6580 -0.2266
  472MOL0     C63610   4.227   5.442   9.013  1.0443  0.1002  0.8155
  472MOL0     C63611   4.146   5.405   9.119  0.3868 -0.6900 -0.4355
  472MOL0     C63612   4.057   5.497   9.177 -0.7070  0.8803  0.4314
  472MOL0     C63613   4.061   5.628   9.132 -0.2355 -1.3063  0.4621
  472MOL0     C63614   3.969   5.729   9.177  1.0247  0.4269  0.6125
  472MOL0     O63615   4.004   5.859   9.147  0.1335  0.4186  0.1149
  472MOL0     C63616   3.950   5.969   9.201 -0.1005  0.3459 -0.9834
  472MOL0     C63617   3.926   6.082   9.121  0.5253  0.5491  0.3027
  472MOL0     C63618   3.870   6.197   9.178  0.3387 -1.1456 -0.6142
  472MOL0     C63619   3.848   6.215   9.314  0.8578  0.6585 -0.5424
  472MOL0     O63620   3.803   6.334   9.368 -0.4075  0.4411  0.2135
  472MOL0     C63621   3.763   6.448   9.282 -0.2379 -0.3877 -0.3998
  472MOL0     C63622   3.742   6.572   9.371 -0.0532 -0.0408  0.6350
  472MOL0     C63623   3.722   6.693   9.273  0.3877 -0.7446  0.2804
  472MOL0     C63624   3.715   6.828   9.337 -0.5338 -1.2875  0.4368
  472MOL0     C63625   3.692   6.923   9.222  0.4175  0.4955  0.1676
  472MOL0     C63626   3.691   7.070   9.267  0.3218  0.1952  0.3619
  472MOL0     C63627   3.824   7.122   9.323  0.6295 -0.2782  0.3008
  472MOL0     C63628   3.820   7.270   9.341 -0.6870  0.2780 -0.3346
  472MOL0    Cl63629   3.797   7.354   9.185 -0.3106  0.3161  0.3535
  472MOL0     C63630   3.887   6.107   9.397  0.4322  0.1954  0.2291
  472MOL0     C63631   3.937   5.982   9.346  0.0804  0.2838 -0.3927
  472MOL0     O63632   3.866   5.699   9.234  0.3391  0.2471 -0.6184
  472MOL0     C63633   4.160   5.666   9.036 -0.1100 -0.1177 -0.2893
  472MOL0     C63634   4.234   5.575   8.967 -0.1610  0.4796  0.4640
  472MOL0     N63635   4.825   5.180   9.054 -0.0963  0.5186 -0.4409
  472MOL0     N63636   4.937   5.109   9.076 -0.4190 -0.8914 -1.0725
  472MOL0     C63637   5.914   4.542   9.507 -0.6318 -0.3913 -1.1027
  472MOL0     C63638   6.007   4.507   9.606 -0.2886 -0.1228 -0.6061
  472MOL0     C63639   6.203   4.202   9.912  0.3802 -0.3911 -0.4582
  472MOL0     C63640   6.259   4.309   9.992 -0.5676 -0.9223 -0.4293
  472MOL0     C63641   6.322   4.262  10.109  0.0706 -0.0366  0.0433
  472MOL0     C63642   6.333   4.131  10.152  1.2947 -0.7389  0.0455
  472MOL0     O63643   6.391   4.088  10.270  0.1692  0.3404  0.3095
  472MOL0     C63644   6.390   4.180  10.376  0.2558 -1.3689 -0.2200
  472MOL0     C63645   6.472   4.105  10.488 -0.2959 -0.3140  0.3998
  472MOL0     C63646   6.457   4.198  10.610 -0.3595 -0.3713 -0.2482
  472MOL0     C63647   6.507   4.344  10.597  0.6663  0.2183 -0.5297
  472MOL0     C63648   6.496   4.425  10.726 -0.3906 -0.9218  0.3914
  472MOL0     C63649   6.483   4.485  10.827 -0.9532  0.1704 -0.3263
  472MOL0     C63650   6.266   4.034  10.073 -0.4367  0.5733 -0.0400
  472MOL0     C63651   6.208   4.068   9.958 -0.2604 -0.6755 -0.1442
  472MOL0     C63652   6.140   3.962   9.887 -0.3120  0.1282 -0.7942
  472MOL0     H63653   5.872   4.214   9.684  0.7978 -0.2788 -1.4254
  472MOL0     H63654   5.723   4.261   9.494 -1.6802  1.7561 -1.0579
  472MOL0     H63655   5.868   4.579   9.222  0.5164  0.5734  4.0765
  472MOL0     H63656   5.832   4.406   9.195  2.0213 -0.2435  3.2848
  472MOL0     H63657   5.597   4.448   9.170  2.5550 -1.8468  2.8957
  472MOL0     H63658   5.694   4.511   9.036 -1.0292 -1.9847  0.8550
  472MOL0     H63659   5.651   4.743   9.123  1.4117 -0.8733  0.9522
  472MOL0     H63660   5.579   4.673   9.267  3.5747 -0.1732  0.8332
  472MOL0     H63661   5.477   4.618   8.980 -0.8095  0.0979  0.4487
  472MOL0     H63662   5.383   4.598   9.135 -1.1831  1.5610  0.2161
  472MOL0     H63663   5.367   4.811   9.188 -4.1631 -0.3065 -1.3158
  472MOL0     H63664   5.470   4.881   9.062 -1.6983  2.2476  3.7803
  472MOL0     H63665   5.283   4.789   8.906 -1.5074 -2.3534 -0.8282
  472MOL0     H63666   5.198   4.731   9.049  1.5568 -2.0035 -2.9289
  472MOL0     H63667   5.291   5.026   9.019 -0.7197  1.8134  0.9360
  472MOL0     H63668   5.173   4.970   9.135  0.3691  0.3481 -0.5896
  472MOL0     H63669   5.155   4.986   8.842 -1.4060 -0.8239 -1.1020
  472MOL0     H63670   5.053   4.864   8.933 -1.0578 -0.2807  2.8922
  472MOL0     H63671   4.964   5.146   8.761 -0.5712  0.7633 -0.6061
  472MOL0     H63672   4.790   5.388   8.822  0.5353  0.5088  1.6446
  472MOL0     H63673   4.696   5.249   8.762  0.2012 -2.6553  0.9128
  472MOL0     H63674   4.670   5.386   9.030  3.2571 -0.7555 -1.7060
  472MOL0     H63675   4.557   5.435   8.899  2.0926  2.0476  0.4620
  472MOL0     H63676   4.571   5.173   9.064 -0.5875  0.0782 -0.0098
  472MOL0     H63677   4.505   5.177   8.907  4.7644 -2.3117  0.8054
  472MOL0     H63678   4.409   5.339   9.150  0.9084  0.2389 -0.2476
  472MOL0     H63679   4.325   5.197   9.083  0.4253  0.8729 -1.0959
  472MOL0     H63680   4.146   5.306   9.164  1.4583  0.5159  2.4532
  472MOL0     H63681   3.986   5.472   9.255 -0.3163  2.1899  1.2373
  472MOL0     H63682   3.941   6.085   9.014  0.1720  4.3959  0.2106
  472MOL0     H63683   3.835   6.271   9.107  0.9636 -0.6308 -0.4061
  472MOL0     H63684   3.848   6.480   9.221  0.9287  2.1416  2.3181
  472MOL0     H63685   3.674   6.424   9.222  0.1275 -2.6853 -0.1321
  472MOL0     H63686   3.656   6.558   9.437 -3.3407 -0.3042 -3.2772
  472MOL0     H63687   3.821   6.618   9.431 -1.2371  5.2738 -1.3466
  472MOL0     H63688   3.813   6.710   9.213 -0.6697  4.7147 -0.3231
  472MOL0     H63689   3.640   6.672   9.204 -0.8637 -1.7956  1.9994
  472MOL0     H63690   3.809   6.854   9.387 -0.5435  1.3495 -0.7783
  472MOL0     H63691   3.637   6.854   9.409 -1.4412  1.5723 -1.4434
  472MOL0     H63692   3.591   6.905   9.183  0.1488  1.2887  0.4672
  472MOL0     H63693   3.765   6.898   9.144 -1.8266 -0.8947 -1.6210
  472MOL0     H63694   3.661   7.122   9.175  1.3003 -2.4700 -1.5787
  472MOL0     H63695   3.602   7.082   9.330 -1.3224 -1.3261 -1.5169
  472MOL0     H63696   3.900   7.086   9.253 -1.6318 -2.6155 -1.1093
  472MOL0     H63697   3.843   7.069   9.417 -1.5638 -2.4121 -0.3738
  472MOL0     H63698   3.739   7.305   9.406 -0.7661  1.1791 -0.9087
  472MOL0     H63699   3.915   7.297   9.388 -2.1194 -0.6011  3.5061
  472MOL0     H63700   3.861   6.112   9.502  0.4935  1.5190  0.1964
  472MOL0     H63701   3.951   5.900   9.415 -0.5379 -1.8333 -2.6659
  472MOL0     H63702   4.167   5.767   8.996 -0.1041  0.1719  0.4354
  472MOL0     H63703   4.315   5.588   8.897  0.1087 -0.8569  0.5037
  472MOL0     H63704   5.913   4.645   9.473 -2.0122  0.4013  1.1234
  472MOL0     H63705   6.060   4.584   9.661 -1.6704  0.3936  0.0491
  472MOL0     H63706   6.269   4.412   9.957  1.1379 -0.8935  0.0342
  472MOL0     H63707   6.379   4.341  10.157 -0.1021 -0.5973  1.2125
  472MOL0     H63708   6.289   4.194  10.417  1.4340  1.9189  2.0023
  472MOL0     H63709   6.419   4.283  10.350 -1.8730  0.4772  3.7489
  472MOL0     H63710   6.574   4.077  10.462 -0.0079  1.2229 -0.2212
  472MOL0     H63711   6.419   4.012  10.509 -6.4412  2.3130 -1.3058
  472MOL0     H63712   6.508   4.148  10.692 -0.6637  1.3348  1.0484
  472MOL0     H63713   6.355   4.216  10.646 -0.8982  1.0106 -2.2861
  472MOL0     H63714   6.613   4.335  10.573  0.7397 -2.4638  0.4726
  472MOL0     H63715   6.445   4.398  10.526 -1.9242  0.7393  1.9448
  472MOL0     H63716   6.455   4.540  10.915  0.5164 -2.6199  2.0563
  472MOL0     H63717   6.263   3.932  10.111 -1.3829  0.0683 -1.4286
  472MOL0     H63718   6.132   3.871   9.947  0.6597  1.5256  1.6039
  472MOL0     H63719   6.037   3.993   9.865 -0.9257 -1.2977 -0.0788
  472MOL0     H63720   6.188   3.941   9.792 -1.9306 -1.3933 -1.3297
  473MOL0     O63721   8.265   7.693   7.720  0.1398 -0.8027 -0.2128
  473MOL0     C63722   8.183   7.602   7.740 -1.1173  1.2323 -0.2246
  473MOL0     O63723   8.091   7.609   7.837 -0.6953  1.1154  0.6579
  473MOL0     C63724   8.044   7.720   7.898  0.0926 -0.1711  0.5988
  473MOL0     C63725   8.087   7.850   7.879 -0.6776  0.1701 -0.7376
  473MOL0     C63726   8.020   7.956   7.945  0.0929  1.1454  0.1533
  473MOL0     C63727   7.921   7.928   8.041  0.2383  0.7176  0.9381
  473MOL0     O63728   7.882   8.038   8.114 -0.2399 -0.8617 -0.6555
  473MOL0     C63729   7.745   8.029   8.155  0.8074  0.2666  0.2696
  473MOL0     C63730   7.688   8.162   8.176 -0.1086 -0.6107  0.9154
  473MOL0     C63731   7.691   8.257   8.050  1.1573 -0.4536  0.7253
  473MOL0     C63732   7.561   8.253   7.957 -0.1092 -0.4238 -0.5918
  473MOL0     C63733   7.591   8.317   7.819  0.6506 -0.9580 -0.0932
  473MOL0     C63734   7.626   8.219   7.703 -0.0399 -0.4293  0.6246
  473MOL0     C63735   7.774   8.162   7.733  0.3942 -0.1053  1.0907
  473MOL0     C63736   7.823   8.055   7.616  0.3421 -0.6927  0.2161
  473MOL0     N63737   7.863   8.112   7.491 -0.1153  0.7866  1.2878
  473MOL0     C63738   8.000   8.110   7.450 -0.2775 -0.6436  0.6272
  473MOL0     C63739   7.992   8.132   7.319  0.7518  0.5940 -1.0175
  473MOL0     C63740   8.096   8.158   7.214  0.4287  0.6921 -0.1862
  473MOL0     C63741   8.233   8.108   7.249 -0.0681  0.0116  0.2450
  473MOL0     C63742   8.344   8.156   7.159 -0.3571  0.0047 -0.1014
  473MOL0     C63743   8.474   8.081   7.193  0.0911  1.0164 -0.6781
  473MOL0     O63744   8.574   8.122   7.093 -0.0103 -0.0426  0.2615
  473MOL0     C63745   8.695   8.052   7.096  0.0218 -0.2076  0.8827
  473MOL0     C63746   8.787   8.078   7.195 -0.0808 -0.2336 -0.0614
  473MOL0     C63747   8.917   8.028   7.188 -0.4712 -0.0747  0.0152
  473MOL0     C63748   8.957   7.957   7.080  0.7179  0.7483  0.6186
  473MOL0     C63749   9.099   7.924   7.061  0.6062 -0.6726 -0.1343
  473MOL0     O63750   9.180   8.020   7.115  0.1099 -0.2184 -0.4679
  473MOL0     C63751   9.316   8.019   7.091  0.4010  0.1112 -0.0796
  473MOL0     C63752   9.413   7.985   7.184  0.2159 -0.2693  0.4301
  473MOL0     C63753   9.548   7.986   7.138 -0.5331  0.0622 -0.3017
  473MOL0     C63754   9.594   8.022   7.007  0.3077  0.0035  0.0221
  473MOL0     O63755   9.713   8.003   6.951  0.4571  0.1451 -0.2853
  473MOL0     C63756   9.822   7.929   7.013  0.0715 -0.8692 -0.2540
  473MOL0     C63757   9.940   7.905   6.925 -0.1136 -0.6242  0.1875
  473MOL0     C63758   9.962   7.773   6.863  0.2481 -0.4203  0.1574
  473MOL0     C63759  10.098   7.769   6.801  0.7738  0.0080  0.1317
  473MOL0     C63760  10.124   7.639   6.715 -0.3504  0.4433  0.3568
  473MOL0     C63761  10.274   7.636   6.667  0.2270 -1.3714 -0.2373
  473MOL0     C63762  10.297   7.513   6.575 -0.0704  0.5085  0.5436
  473MOL0     C63763  10.441   7.523   6.534  0.3867 -0.5328 -0.0299
  473MOL0    Cl63764  10.483   7.384   6.441 -0.2658 -0.7221  0.1038
  473MOL0     C63765   9.482   8.058   6.921 -0.4067  0.6643 -0.1708
  473MOL0     C63766   9.344   8.052   6.959 -0.1951  0.1761 -0.1939
  473MOL0     O63767   9.136   7.820   7.004 -0.3657 -0.4897  0.0639
  473MOL0     C63768   8.859   7.911   6.987  0.0053 -0.0369 -0.0369
  473MOL0     C63769   8.734   7.964   6.996  0.0076  0.8629  0.2126
  473MOL0     N63770   7.864   8.136   7.278  0.3138  1.3033  0.2979
  473MOL0     N63771   7.789   8.135   7.383  0.2943 -0.4499 -0.3842
  473MOL0     C63772   7.887   7.790   8.063  0.5958 -0.3823 -0.5459
  473MOL0     C63773   7.943   7.690   7.991 -0.8363  0.1601 -0.8935
  473MOL0     C63774   8.212   7.472   7.672  1.1259  0.6221  0.0437
  473MOL0     C63775   8.300   7.453   7.569  0.2924  0.0609 -0.4401
  473MOL0     C63776   8.331   7.324   7.515 -0.1852 -0.7521 -0.0455
  473MOL0     C63777   8.268   7.210   7.560  0.7145  0.3198 -0.2210
  473MOL0     O63778   8.305   7.081   7.532  0.0671 -0.3913  0.3079
  473MOL0     C63779   8.417   7.035   7.608 -0.3118  0.4329  0.3488
  473MOL0     C63780   8.442   6.880   7.577  0.2368 -0.4223 -0.2239
  473MOL0     C63781   8.591   6.844   7.592 -0.6526  0.0264 -0.3955
  473MOL0     C63782   8.630   6.717   7.514  0.2006 -0.5024  0.0182
  473MOL0     C63783   8.768   6.679   7.534  0.0525 -0.2063  0.4450
  473MOL0     C63784   8.880   6.645   7.551  0.3747 -0.3185 -0.5350
  473MOL0     C63785   8.159   7.234   7.646 -0.5397 -0.4128 -0.0230
  473MOL0     C63786   8.130   7.358   7.705 -0.4470  1.1317  0.0313
  473MOL0     C63787   8.012   7.357   7.805  0.3561 -0.1066 -0.4062
  473MOL0     H63788   8.163   7.885   7.811  2.8793  0.5690  3.0646
  473MOL0     H63789   8.040   8.063   7.938 -2.8995  1.8695  1.1363
  473MOL0     H63790   7.677   7.976   8.087  0.5565 -0.9127  1.3872
  473MOL0     H63791   7.727   7.964   8.241  1.3361  1.3635  1.2214
  473MOL0     H63792   7.742   8.207   8.260  2.3108 -0.6945 -0.5061
  473MOL0     H63793   7.585   8.160   8.213  0.5309  0.8403  2.9452
  473MOL0     H63794   7.782   8.227   7.997  1.7306  0.5416  1.1010
  473MOL0     H63795   7.715   8.353   8.096 -0.2770 -0.4073  1.4055
  473MOL0     H63796   7.538   8.146   7.954  0.5569 -0.6939  1.7488
  473MOL0     H63797   7.475   8.299   8.006  1.5647 -0.1116  2.3056
  473MOL0     H63798   7.505   8.383   7.800  2.0290  1.1070  0.5229
  473MOL0     H63799   7.669   8.391   7.836 -2.4845  2.7194 -0.4019
  473MOL0     H63800   7.553   8.141   7.680  2.5189 -1.8357 -4.0500
  473MOL0     H63801   7.629   8.278   7.611 -0.8454  0.1854  0.9816
  473MOL0     H63802   7.762   8.105   7.826  2.5942 -2.3548  0.1310
  473MOL0     H63803   7.831   8.255   7.735 -1.0128  0.7994  0.3487
  473MOL0     H63804   7.907   8.001   7.661  2.8782  1.8816 -1.0492
  473MOL0     H63805   7.739   7.988   7.598  1.1498 -1.7272  0.2237
  473MOL0     H63806   8.083   8.099   7.520 -1.1202  0.1098  1.7807
  473MOL0     H63807   8.076   8.082   7.138 -5.1622  0.3868  1.1860
  473MOL0     H63808   8.100   8.265   7.191 -0.4984  1.5476  3.1052
  473MOL0     H63809   8.253   8.136   7.353  1.2305  0.4685 -0.1160
  473MOL0     H63810   8.229   7.999   7.241 -1.0115  0.0473  0.1549
  473MOL0     H63811   8.352   8.265   7.167  0.7233  0.1391 -2.3358
  473MOL0     H63812   8.312   8.132   7.057 -2.6561 -2.0965  0.9999
  473MOL0     H63813   8.453   7.974   7.186  2.0634  0.5685 -0.4551
  473MOL0     H63814   8.507   8.091   7.296 -3.2466 -3.6080  1.1384
  473MOL0     H63815   8.769   8.153   7.272  2.2612  2.8976 -2.3173
  473MOL0     H63816   8.988   8.059   7.263  0.2675 -1.3067 -0.1518
  473MOL0     H63817   9.395   7.952   7.286 -2.6545  2.3620  0.9199
  473MOL0     H63818   9.620   7.973   7.218 -0.6957  2.3575  0.3013
  473MOL0     H63819   9.862   7.991   7.094  1.9822 -1.3795 -0.7646
  473MOL0     H63820   9.788   7.834   7.054 -2.0160  0.1980  0.6680
  473MOL0     H63821   9.951   7.981   6.847  0.3412 -1.0864 -0.2009
  473MOL0     H63822  10.025   7.911   6.993 -0.0380  0.0574  0.0433
  473MOL0     H63823   9.944   7.707   6.949 -3.6580  3.9072  3.1991
  473MOL0     H63824   9.876   7.765   6.795 -0.4775 -1.1704  1.1241
  473MOL0     H63825  10.173   7.788   6.879  0.0174  1.6212  0.5177
  473MOL0     H63826  10.117   7.860   6.744 -1.3526  0.1548 -0.4369
  473MOL0     H63827  10.067   7.623   6.622  2.7716 -3.4009 -1.1798
  473MOL0     H63828  10.096   7.557   6.782 -4.7601  0.8390 -0.6641
  473MOL0     H63829  10.290   7.730   6.615  2.6104 -0.7546  1.4506
  473MOL0     H63830  10.338   7.635   6.756 -1.8035  1.7176  1.4497
  473MOL0     H63831  10.229   7.527   6.490 -0.2354  1.6571  0.8424
  473MOL0     H63832  10.267   7.420   6.624 -2.0652  1.2676  0.8943
  473MOL0     H63833  10.466   7.612   6.475  1.9781 -2.7456 -2.9438
  473MOL0     H63834  10.503   7.513   6.623 -1.1166  3.8453  1.8033
  473MOL0     H63835   9.531   8.094   6.831 -1.2818  1.2856 -0.4028
  473MOL0     H63836   9.288   8.073   6.868  3.7630  3.8549 -2.1331
  473MOL0     H63837   8.893   7.853   6.901  4.4060  1.8591  0.1626
  473MOL0     H63838   8.662   7.930   6.922  0.5991 -2.0215  0.8274
  473MOL0     H63839   7.817   7.759   8.140 -2.2888 -1.1725 -3.2778
  473MOL0     H63840   7.916   7.585   7.992 -0.7562  0.1196  1.1579
  473MOL0     H63841   8.351   7.540   7.528  2.8125 -1.3106 -0.4555
  473MOL0     H63842   8.409   7.324   7.439 -1.4633  0.6787 -1.4568
  473MOL0     H63843   8.410   7.046   7.716  2.4211  0.3394  0.6258
  473MOL0     H63844   8.501   7.102   7.585 -0.5136  0.6329  0.1951
  473MOL0     H63845   8.414   6.852   7.475 -1.8920 -2.4981  0.8515
  473MOL0     H63846   8.374   6.823   7.640 -0.4319 -1.5827 -1.9241
  473MOL0     H63847   8.607   6.825   7.699 -2.9952  0.8678  0.1726
  473MOL0     H63848   8.657   6.921   7.552 -1.1064  0.0350 -1.1511
  473MOL0     H63849   8.564   6.642   7.558  0.8571 -2.0527 -1.5247
  473MOL0     H63850   8.608   6.729   7.407 -2.0786  3.1288  0.7325
  473MOL0     H63851   8.980   6.613   7.574  0.4350 -0.5842 -1.1638
  473MOL0     H63852   8.101   7.150   7.682 -3.1840  1.0202 -0.7076
  473MOL0     H63853   7.944   7.272   7.803 -0.4853  0.5316  0.3394
  473MOL0     H63854   8.061   7.360   7.902 -0.0407  0.5560 -0.2184
  473MOL0     H63855   7.945   7.441   7.781 -1.4645 -1.5812 -0.7425
  474MOL0     O63856  10.906   4.549   8.890  0.5578  0.1333  0.5697
  474MOL0     C63857  10.897   4.464   8.983 -0.3990  0.1102 -1.1749
  474MOL0     O63858  10.913   4.329   8.960 -0.3071 -0.6737  0.0997
  474MOL0     C63859  10.958   4.293   8.836  0.1559 -0.1784 -0.4358
  474MOL0     C63860  10.883   4.304   8.716 -0.2010  1.1146  0.5368
  474MOL0     C63861  10.934   4.253   8.596 -0.0062  0.3702 -0.2109
  474MOL0     C63862  11.069   4.197   8.591  0.7277  0.0572 -0.8523
  474MOL0     O63863  11.102   4.120   8.475  0.2725 -0.8614 -0.0749
  474MOL0     C63864  11.242   4.120   8.430 -0.0144  0.3442  0.9729
  474MOL0     C63865  11.264   4.037   8.295  0.9297 -0.0336 -0.8156
  474MOL0     C63866  11.220   3.891   8.287 -1.1249 -0.2194 -0.9220
  474MOL0     C63867  11.267   3.818   8.412 -0.0038 -0.1596  0.0613
  474MOL0     C63868  11.249   3.671   8.389  0.3209  0.1412  0.3001
  474MOL0     C63869  11.349   3.581   8.460 -0.5703 -0.4458  0.2400
  474MOL0     C63870  11.361   3.602   8.609  0.7425 -0.7088 -0.4765
  474MOL0     C63871  11.431   3.495   8.684  0.9153 -0.5066 -1.0289
  474MOL0     N63872  11.358   3.379   8.735 -0.4202  0.0325 -0.0373
  474MOL0     C63873  11.266   3.320   8.660  0.6082  0.7595 -0.0918
  474MOL0     C63874  11.205   3.237   8.749 -0.3278 -0.3760 -0.3047
  474MOL0     C63875  11.081   3.157   8.706 -0.2108 -0.6702 -0.2523
  474MOL0     C63876  11.114   3.001   8.717 -0.7879 -0.8804  0.3906
  474MOL0     C63877  11.221   2.967   8.609 -0.6859  0.5485 -0.1777
  474MOL0     C63878  11.355   2.927   8.678  0.0098  0.3273 -0.2986
  474MOL0     O63879  11.437   2.857   8.567 -0.4976  0.4867  0.0234
  474MOL0     C63880  11.559   2.803   8.599  0.3147 -0.2216  0.5257
  474MOL0     C63881  11.601   2.691   8.538 -0.0509 -0.4402  0.6202
  474MOL0     C63882  11.716   2.627   8.579 -0.7938 -1.7595 -0.6090
  474MOL0     C63883  11.804   2.688   8.673 -1.2348  0.7345 -0.5879
  474MOL0     C63884  11.935   2.636   8.705 -1.1028  0.5682 -0.2394
  474MOL0     O63885  12.024   2.718   8.774  0.0259  0.1403 -0.7905
  474MOL0     C63886  12.152   2.682   8.798 -0.2121  0.5672  0.0163
  474MOL0     C63887  12.244   2.790   8.793  0.0228  0.4476 -1.3439
  474MOL0     C63888  12.379   2.769   8.815 -0.3482  0.2717  0.8920
  474MOL0     C63889  12.427   2.640   8.838  0.6241  0.2971  0.1110
  474MOL0     O63890  12.564   2.630   8.861  0.3819 -0.6697  0.6566
  474MOL0     C63891  12.597   2.549   8.970  0.0907 -0.2511  0.2251
  474MOL0     C63892  12.750   2.518   8.970 -0.0605  0.2974  0.6164
  474MOL0     C63893  12.830   2.630   9.025  0.1260 -0.9282 -0.1880
  474MOL0     C63894  12.895   2.610   9.160 -0.1302 -0.6869  1.0826
  474MOL0     C63895  12.965   2.724   9.224 -0.8712 -0.2932  0.2643
  474MOL0     C63896  13.108   2.738   9.162 -0.1649 -0.6044  0.2596
  474MOL0     C63897  13.177   2.864   9.202 -0.0221 -0.0016  1.1250
  474MOL0     C63898  13.198   2.879   9.354 -0.6452 -0.5758 -0.2588
  474MOL0    Cl63899  13.307   3.017   9.371 -0.0630  0.0008  0.3613
  474MOL0     C63900  12.333   2.534   8.845  0.5379 -0.1402  1.0760
  474MOL0     C63901  12.196   2.553   8.810 -0.1321 -0.1548 -0.1077
  474MOL0     O63902  11.968   2.538   8.649  0.0753  0.5950  0.3114
  474MOL0     C63903  11.763   2.810   8.726 -0.8436 -0.2459 -0.4632
  474MOL0     C63904  11.638   2.871   8.696 -1.2701 -0.7320  0.5446
  474MOL0     N63905  11.267   3.245   8.871  0.7202  0.5970 -0.0965
  474MOL0     N63906  11.369   3.323   8.859 -0.2347 -0.6871  0.3251
  474MOL0     C63907  11.146   4.196   8.712  0.3700  0.6601 -1.2791
  474MOL0     C63908  11.088   4.236   8.836 -0.5384 -0.4900  1.2356
  474MOL0     C63909  10.845   4.511   9.122 -0.5500 -0.8475 -0.0040
  474MOL0     C63910  10.754   4.431   9.197  0.3511 -0.4180  0.3214
  474MOL0     C63911  10.718   4.468   9.322 -0.5041  0.8020  0.4392
  474MOL0     C63912  10.769   4.578   9.380 -0.1378 -0.0219  0.7979
  474MOL0     O63913  10.732   4.609   9.510 -0.3701  0.0307 -0.0350
  474MOL0     C63914  10.604   4.678   9.529  0.1724  0.7626 -0.7130
  474MOL0     C63915  10.574   4.701   9.681 -0.2528 -1.0185 -0.0907
  474MOL0     C63916  10.693   4.778   9.751  0.4097 -0.4206 -0.3814
  474MOL0     C63917  10.699   4.732   9.897 -0.0202 -0.3717 -0.1511
  474MOL0     C63918  10.786   4.616   9.899 -0.3764  0.1463 -0.1401
  474MOL0     C63919  10.873   4.539   9.920 -0.4746 -0.5969  0.1139
  474MOL0     C63920  10.846   4.662   9.308  0.6010  0.4961 -0.6993
  474MOL0     C63921  10.893   4.633   9.179 -0.3600  0.1861 -0.6328
  474MOL0     C63922  10.977   4.733   9.116 -1.4349 -0.3442  0.1619
  474MOL0     H63923  10.787   4.354   8.726 -2.4748 -2.6529 -0.3554
  474MOL0     H63924  10.888   4.254   8.497 -1.0401  1.0439  0.2668
  474MOL0     H63925  11.277   4.223   8.425 -0.4463  0.4344 -1.3087
  474MOL0     H63926  11.312   4.072   8.499  1.4233 -1.7028 -1.6840
  474MOL0     H63927  11.372   4.042   8.283  0.8467 -0.6619 -1.8772
  474MOL0     H63928  11.215   4.091   8.213 -0.3934 -2.0218 -1.3944
  474MOL0     H63929  11.263   3.854   8.193  0.9126 -1.5829  0.4598
  474MOL0     H63930  11.111   3.890   8.296 -1.0703  0.7332  0.0851
  474MOL0     H63931  11.372   3.846   8.429 -0.1165 -0.1893  0.8469
  474MOL0     H63932  11.208   3.843   8.501  0.4265 -0.1188  0.3394
  474MOL0     H63933  11.145   3.647   8.411  0.0109  0.9204 -0.2626
  474MOL0     H63934  11.270   3.642   8.286 -0.7442 -4.4410  1.1537
  474MOL0     H63935  11.313   3.480   8.440 -2.8623  0.0028  1.6784
  474MOL0     H63936  11.444   3.609   8.414  0.3158 -0.0349  2.2239
  474MOL0     H63937  11.262   3.623   8.650  0.0919  1.4705 -2.8798
  474MOL0     H63938  11.427   3.687   8.625  2.5340 -2.0699 -0.2904
  474MOL0     H63939  11.517   3.463   8.625  4.0278  0.7909  2.3757
  474MOL0     H63940  11.472   3.538   8.777  2.6441 -0.5569 -1.7338
  474MOL0     H63941  11.254   3.325   8.552 -1.4868 -0.6738 -0.0010
  474MOL0     H63942  10.997   3.175   8.775  1.4478  0.5184  1.5507
  474MOL0     H63943  11.049   3.182   8.605 -1.4834 -2.7896 -0.4470
  474MOL0     H63944  11.162   2.980   8.813 -0.4554  0.3490  0.5030
  474MOL0     H63945  11.027   2.934   8.715 -0.9297 -0.6997  0.5287
  474MOL0     H63946  11.240   3.048   8.539  1.7352  1.1767  1.1106
  474MOL0     H63947  11.189   2.887   8.541  0.4178  0.9560 -1.2041
  474MOL0     H63948  11.341   2.858   8.762 -0.1840 -0.5339 -1.0328
  474MOL0     H63949  11.406   3.012   8.725 -0.1337 -1.6174  3.8875
  474MOL0     H63950  11.536   2.646   8.464  1.2554 -0.7984 -0.3455
  474MOL0     H63951  11.735   2.524   8.551 -0.6311 -3.1666  3.9064
  474MOL0     H63952  12.190   2.883   8.782 -0.2244  0.9078  2.3549
  474MOL0     H63953  12.440   2.859   8.812 -1.1949  0.8250 -0.0777
  474MOL0     H63954  12.570   2.591   9.068  0.5045 -1.1983  0.7581
  474MOL0     H63955  12.544   2.454   8.972 -2.8661  1.2658  0.0097
  474MOL0     H63956  12.768   2.427   9.027 -1.2093 -2.1840 -2.6130
  474MOL0     H63957  12.788   2.505   8.868 -1.1187  1.4618  0.0504
  474MOL0     H63958  12.912   2.655   8.956 -1.0132 -2.8378 -2.4052
  474MOL0     H63959  12.769   2.720   9.024 -1.6488 -1.9867 -3.7222
  474MOL0     H63960  12.962   2.523   9.155  0.1246 -0.4577  0.2710
  474MOL0     H63961  12.808   2.598   9.225 -2.0556  0.9706 -1.0238
  474MOL0     H63962  12.980   2.698   9.329  2.7576 -1.1363 -0.2976
  474MOL0     H63963  12.915   2.820   9.226  0.9096  0.6582  2.0444
  474MOL0     H63964  13.163   2.648   9.189  0.8581  0.8411  3.4616
  474MOL0     H63965  13.097   2.731   9.053 -0.0874  0.6181  0.1570
  474MOL0     H63966  13.106   2.946   9.188  1.0809  0.8366  0.2121
  474MOL0     H63967  13.269   2.883   9.146 -0.5099 -1.1232 -0.1029
  474MOL0     H63968  13.098   2.893   9.396 -0.5480 -0.1237 -0.1715
  474MOL0     H63969  13.249   2.790   9.391  2.5668  0.5805 -1.5801
  474MOL0     H63970  12.361   2.430   8.852  0.6703 -0.2845 -0.9842
  474MOL0     H63971  12.132   2.465   8.802 -1.9707  1.2407 -1.8457
  474MOL0     H63972  11.816   2.867   8.802 -2.4297  1.3584 -0.5160
  474MOL0     H63973  11.618   2.969   8.737  0.5179 -0.6452  1.3437
  474MOL0     H63974  11.242   4.154   8.740 -0.6496 -1.6949 -1.0656
  474MOL0     H63975  11.130   4.219   8.934  0.6127  0.5939  0.9621
  474MOL0     H63976  10.716   4.339   9.152 -0.1217  2.2311 -5.6971
  474MOL0     H63977  10.643   4.410   9.376 -1.4318  0.0028 -1.6252
  474MOL0     H63978  10.521   4.614   9.498 -0.7430  0.6240  1.8290
  474MOL0     H63979  10.602   4.774   9.475  1.5404  1.2069 -0.0148
  474MOL0     H63980  10.563   4.606   9.735  1.4674 -1.5969 -0.6947
  474MOL0     H63981  10.484   4.761   9.696 -0.0199 -0.5048 -0.7051
  474MOL0     H63982  10.666   4.883   9.735  0.3160 -0.8916 -4.0044
  474MOL0     H63983  10.783   4.766   9.691  0.3731  1.3739 -0.8695
  474MOL0     H63984  10.754   4.810   9.951  2.4294 -2.2901  0.2799
  474MOL0     H63985  10.601   4.705   9.937  0.4937  0.7538  2.0158
  474MOL0     H63986  10.955   4.476   9.947 -0.3505 -0.3785  0.2448
  474MOL0     H63987  10.871   4.759   9.351  0.2493  0.0213  0.6243
  474MOL0     H63988  11.050   4.691   9.047  0.1132  4.0092 -1.1957
  474MOL0     H63989  10.927   4.811   9.059  0.8359  0.6976 -0.5153
  474MOL0     H63990  11.029   4.798   9.187  1.9453  0.0615 -2.4545
  475MOL0     O63991  11.510   0.860   3.643  0.0094 -0.4899 -0.7674
  475MOL0     C63992  11.589   0.947   3.690  0.2115  0.6646 -0.1685
  475MOL0     O63993  11.550   1.062   3.770  0.1367 -0.3981  0.4347
  475MOL0     C63994  11.418   1.051   3.809 -0.0423 -0.2907  0.0286
  475MOL0     C63995  11.391   1.011   3.939 -0.5477 -0.3832  0.3503
  475MOL0     C63996  11.266   1.000   3.991  0.1427  0.3411  0.7178
  475MOL0     C63997  11.160   1.041   3.908 -0.6341 -0.1065  0.1221
  475MOL0     O63998  11.030   1.026   3.941  0.2076  0.6012  0.4373
  475MOL0     C63999  10.974   1.098   4.057  0.0945  0.4768 -0.0456
  475MOL0     C64000  10.840   1.061   4.111 -0.0211  0.3928 -0.4412
  475MOL0     C64001  10.835   0.911   4.165 -0.8903 -0.1676 -0.8157
  475MOL0     C64002  10.727   0.882   4.274 -1.3481 -0.1635 -0.5619
  475MOL0     C64003  10.743   0.739   4.324  0.4627 -0.0658 -0.2003
  475MOL0     C64004  10.680   0.725   4.452  0.1449  0.3376  0.1087
  475MOL0     C64005  10.533   0.779   4.473 -0.2734 -0.7441  0.1916
  475MOL0     C64006  10.466   0.726   4.602 -0.8044 -0.5206  0.2351
  475MOL0     N64007  10.389   0.599   4.592  0.5308 -0.1908 -0.0461
  475MOL0     C64008  10.262   0.584   4.540  0.8295  0.1400 -0.2373
  475MOL0     C64009  10.231   0.445   4.543  0.5233 -0.4837  0.7382
  475MOL0     C64010  10.108   0.379   4.489  0.1724 -0.3381 -0.8323
  475MOL0     C64011  10.013   0.348   4.601  0.1467  0.6750  0.4230
  475MOL0     C64012   9.890   0.271   4.543  0.0936 -0.3436  0.1050
  475MOL0     C64013   9.778   0.233   4.640  0.0841 -1.0114 -0.4147
  475MOL0     O64014   9.714   0.356   4.698 -0.0690  0.1349  0.2591
  475MOL0     C64015   9.619   0.344   4.792 -0.2899 -0.3490 -0.2443
  475MOL0     C64016   9.629   0.257   4.898  0.6204  1.1995 -0.1767
  475MOL0     C64017   9.546   0.268   5.001 -0.6510 -0.6783  0.1388
  475MOL0     C64018   9.443   0.365   5.007 -0.7390 -0.2253 -0.4026
  475MOL0     C64019   9.350   0.382   5.127 -0.4473 -0.0143 -0.5402
  475MOL0     O64020   9.284   0.498   5.136 -0.0046  0.5673 -0.1209
  475MOL0     C64021   9.175   0.511   5.214 -0.9214 -0.7925 -0.1138
  475MOL0     C64022   9.048   0.453   5.193 -0.2264 -0.0861  0.8424
  475MOL0     C64023   8.937   0.495   5.268 -0.3017 -0.0611  0.3731
  475MOL0     C64024   8.936   0.607   5.357 -0.6493  0.6296  0.4696
  475MOL0     O64025   8.828   0.667   5.415 -0.4014  0.4447 -0.9302
  475MOL0     C64026   8.703   0.642   5.368  1.7554  0.3538 -0.1132
  475MOL0     C64027   8.608   0.759   5.389 -0.1197 -0.5874  0.0634
  475MOL0     C64028   8.468   0.751   5.336 -0.2645  0.8280 -0.1471
  475MOL0     C64029   8.407   0.612   5.369 -0.6701  0.8370  0.2896
  475MOL0     C64030   8.255   0.601   5.353  0.1042  0.5988 -0.4275
  475MOL0     C64031   8.185   0.459   5.372 -0.2018 -0.3218  0.4392
  475MOL0     C64032   8.229   0.389   5.501  0.0418  0.3507 -0.6897
  475MOL0     C64033   8.115   0.292   5.531  0.1014 -0.2944 -0.3918
  475MOL0    Cl64034   8.138   0.152   5.426  0.4326  0.2545 -0.0629
  475MOL0     C64035   9.063   0.660   5.377  1.3197 -0.5050 -0.5374
  475MOL0     C64036   9.177   0.624   5.309 -0.7317 -0.5369  0.6348
  475MOL0     O64037   9.328   0.281   5.191 -0.1602  0.1045  0.2905
  475MOL0     C64038   9.428   0.440   4.886 -0.3701  0.7521  0.5808
  475MOL0     C64039   9.511   0.423   4.778  0.4117 -0.6117  0.0286
  475MOL0     N64040  10.334   0.387   4.621  0.3185 -0.3627  1.3740
  475MOL0     N64041  10.427   0.484   4.638  0.5981 -0.6213  0.4181
  475MOL0     C64042  11.182   1.082   3.778 -0.0362 -0.9688  0.3690
  475MOL0     C64043  11.311   1.089   3.725 -1.0112 -0.1120  0.5700
  475MOL0     C64044  11.741   0.922   3.677  1.1380  0.0900  0.5658
  475MOL0     C64045  11.827   1.015   3.731  0.8146 -0.3314 -0.2055
  475MOL0     C64046  11.968   0.998   3.716 -0.5626 -0.3278  0.1368
  475MOL0     C64047  12.028   0.891   3.651  0.7500  0.1064 -0.2698
  475MOL0     O64048  12.160   0.892   3.631 -0.0397 -0.2213  0.0410
  475MOL0     C64049  12.245   1.001   3.631 -0.4723  0.2359  0.0001
  475MOL0     C64050  12.375   0.968   3.553  0.7066 -0.7895  0.0116
  475MOL0     C64051  12.475   1.079   3.579  0.8351 -0.2175 -0.0245
  475MOL0     C64052  12.523   1.092   3.717  0.1186  0.0736  0.4345
  475MOL0     C64053  12.647   1.166   3.731  0.0142  0.4799  0.2475
  475MOL0     C64054  12.757   1.202   3.708 -0.8234  0.0289 -0.9042
  475MOL0     C64055  11.938   0.802   3.587 -0.3512 -0.4613  0.5742
  475MOL0     C64056  11.801   0.813   3.602 -0.5782  0.1749 -1.2028
  475MOL0     C64057  11.723   0.694   3.556  0.8564  0.1851  0.9256
  475MOL0     H64058  11.473   0.976   4.000  2.0351  1.5387 -1.7667
  475MOL0     H64059  11.260   0.959   4.091  0.1964  0.0626  0.6074
  475MOL0     H64060  11.039   1.089   4.145  1.0921  2.6152 -0.4973
  475MOL0     H64061  10.978   1.205   4.035  1.9934  0.4341 -0.0952
  475MOL0     H64062  10.757   1.089   4.046 -1.4588  0.8112  1.4938
  475MOL0     H64063  10.836   1.124   4.201  1.6450  0.9904 -0.7514
  475MOL0     H64064  10.932   0.885   4.207 -1.1300  0.6415  0.2723
  475MOL0     H64065  10.829   0.845   4.077  2.1957 -1.1069 -0.4364
  475MOL0     H64066  10.737   0.950   4.360  3.3713 -1.6005  0.2992
  475MOL0     H64067  10.625   0.896   4.237 -0.5541 -0.1866 -2.8943
  475MOL0     H64068  10.689   0.682   4.248 -0.6285 -1.5961  1.6313
  475MOL0     H64069  10.849   0.714   4.326  0.7095  0.8814 -0.7372
  475MOL0     H64070  10.696   0.620   4.477  2.9424  0.7265  0.2178
  475MOL0     H64071  10.748   0.771   4.524  2.5324  0.2431 -1.9555
  475MOL0     H64072  10.466   0.755   4.390  1.7481 -1.8282 -1.2446
  475MOL0     H64073  10.544   0.887   4.486  3.9113 -1.0923  0.8949
  475MOL0     H64074  10.550   0.720   4.671  0.0448 -0.9839 -0.8115
  475MOL0     H64075  10.399   0.800   4.647 -2.1754 -1.9086  0.5550
  475MOL0     H64076  10.202   0.667   4.505  0.6413 -0.6534 -1.9155
  475MOL0     H64077  10.051   0.447   4.425  0.8559  0.1101 -0.9617
  475MOL0     H64078  10.140   0.288   4.437 -1.9826 -1.0974 -0.9284
  475MOL0     H64079  10.070   0.290   4.674 -3.4484 -0.7480  2.3645
  475MOL0     H64080   9.978   0.446   4.634  0.6319  0.2222  2.4091
  475MOL0     H64081   9.925   0.172   4.514  1.6617  0.2154  0.0169
  475MOL0     H64082   9.842   0.324   4.460 -1.6610 -0.2514  1.1132
  475MOL0     H64083   9.827   0.187   4.727 -4.0190 -2.1768  1.5265
  475MOL0     H64084   9.701   0.163   4.606 -0.4582 -2.1735  2.7841
  475MOL0     H64085   9.704   0.178   4.899 -2.9322 -2.4778  1.5378
  475MOL0     H64086   9.555   0.201   5.087 -1.4140 -0.9547  0.0100
  475MOL0     H64087   9.018   0.372   5.127 -0.4076  0.1919  0.5780
  475MOL0     H64088   8.846   0.447   5.236  1.3232 -2.2084 -1.3053
  475MOL0     H64089   8.705   0.616   5.262  0.3923 -0.7997  0.1098
  475MOL0     H64090   8.658   0.555   5.417  2.3806  0.1307  0.0711
  475MOL0     H64091   8.609   0.787   5.495  0.8848  3.0584 -0.7545
  475MOL0     H64092   8.648   0.842   5.330  1.0209 -0.4073  1.0633
  475MOL0     H64093   8.408   0.825   5.389  2.2185  2.0699  1.0864
  475MOL0     H64094   8.457   0.775   5.230 -0.4011  1.4758  0.0083
  475MOL0     H64095   8.439   0.592   5.472  2.1119 -0.2280 -0.6757
  475MOL0     H64096   8.455   0.533   5.310 -1.3269 -0.4994  1.4923
  475MOL0     H64097   8.231   0.636   5.252  0.6419 -0.3421 -0.8995
  475MOL0     H64098   8.217   0.658   5.438  4.0749 -1.3297  3.0651
  475MOL0     H64099   8.078   0.478   5.362 -0.0912  2.1633  2.8008
  475MOL0     H64100   8.215   0.392   5.291 -0.3832 -1.0803  0.9889
  475MOL0     H64101   8.236   0.458   5.586 -0.9546 -0.7806  0.3440
  475MOL0     H64102   8.329   0.346   5.486 -1.2677 -2.6052 -1.5996
  475MOL0     H64103   8.090   0.268   5.634 -0.8816 -1.1485 -0.8227
  475MOL0     H64104   8.022   0.348   5.518 -0.0487 -0.8516 -1.9511
  475MOL0     H64105   9.072   0.742   5.448  0.2532  0.2969 -1.2782
  475MOL0     H64106   9.263   0.687   5.329 -2.7123  2.3192  0.8164
  475MOL0     H64107   9.361   0.525   4.876  2.0194  2.4608 -2.7775
  475MOL0     H64108   9.497   0.480   4.687  0.1373  0.9647  1.0075
  475MOL0     H64109  11.097   1.106   3.715  1.9332  1.7350 -1.5107
  475MOL0     H64110  11.327   1.102   3.618  1.9082  1.1327  1.0775
  475MOL0     H64111  11.783   1.093   3.793  1.0375 -0.2131 -0.1946
  475MOL0     H64112  12.032   1.067   3.770 -1.0188  0.9587 -0.9254
  475MOL0     H64113  12.261   1.036   3.734 -0.0930  0.7726 -0.2384
  475MOL0     H64114  12.197   1.087   3.585 -0.6063 -0.4542 -1.2031
  475MOL0     H64115  12.357   0.964   3.446 -0.5067  1.4469  0.0747
  475MOL0     H64116  12.424   0.875   3.585  0.3095 -1.6247 -1.7097
  475MOL0     H64117  12.439   1.181   3.557  0.1830  0.4730  3.5277
  475MOL0     H64118  12.557   1.052   3.512 -0.7776 -1.2822 -1.6719
  475MOL0     H64119  12.450   1.147   3.776  0.4670  1.5353 -0.4489
  475MOL0     H64120  12.535   0.989   3.752 -1.8864 -0.0214  0.9348
  475MOL0     H64121  12.859   1.219   3.682 -0.1611 -0.5413  1.1605
  475MOL0     H64122  11.970   0.719   3.525 -0.9140 -0.4053  0.1905
  475MOL0     H64123  11.665   0.647   3.636 -0.6153  0.6702  0.1712
  475MOL0     H64124  11.650   0.727   3.482  1.8261 -1.3774 -0.8311
  475MOL0     H64125  11.786   0.623   3.501 -1.1366  0.5647 -2.0561
  476MOL0     O64126   0.930   1.809  11.328 -0.6272 -0.3681  0.4795
  476MOL0     C64127   0.868   1.857  11.426 -1.2495  0.1073 -0.0123
  476MOL0     O64128   0.812   1.787  11.527 -0.1512 -0.4127 -0.0228
  476MOL0     C64129   0.803   1.652  11.532  0.4007 -0.4503  0.1105
  476MOL0     C64130   0.695   1.609  11.610  0.0606 -0.3800 -0.6062
  476MOL0     C64131   0.661   1.473  11.603 -0.3079  0.0518 -0.0254
  476MOL0     C64132   0.745   1.380  11.546  0.3590 -0.3608 -0.4999
  476MOL0     O64133   0.729   1.244  11.545 -0.3287  0.1651 -0.6211
  476MOL0     C64134   0.681   1.186  11.667  1.4590  1.4054 -1.0041
  476MOL0     C64135   0.675   1.039  11.654  0.8344  0.2290  0.4655
  476MOL0     C64136   0.614   0.973  11.772  1.0546 -0.1177 -0.2579
  476MOL0     C64137   0.470   1.016  11.789  0.5451 -0.0975 -0.1378
  476MOL0     C64138   0.401   0.914  11.880 -0.1030  0.2283 -0.3019
  476MOL0     C64139   0.438   0.915  12.036  0.0209 -0.2644  0.7218
  476MOL0     C64140   0.395   0.777  12.092  0.3028 -0.8327  0.6652
  476MOL0     C64141   0.445   0.758  12.232  0.6162 -0.3747 -0.7905
  476MOL0     N64142   0.378   0.641  12.307 -0.2055  0.3189  0.6043
  476MOL0     C64143   0.312   0.525  12.263 -0.4892 -1.1881  0.2125
  476MOL0     C64144   0.256   0.471  12.367 -0.7300 -0.7907 -0.5326
  476MOL0     C64145   0.171   0.350  12.393  0.4425 -0.5992  0.4710
  476MOL0     C64146   0.059   0.312  12.292 -0.1686 -0.2897 -0.9800
  476MOL0     C64147  -0.015   0.201  12.353 -0.1080  0.1620  0.3057
  476MOL0     C64148  -0.035   0.086  12.250 -0.5704  1.0215 -0.1065
  476MOL0     O64149   0.094   0.018  12.251  0.4477 -0.1093  0.0646
  476MOL0     C64150   0.112  -0.100  12.182  0.7122  0.2472 -1.1791
  476MOL0     C64151   0.248  -0.135  12.178  0.1734  0.3491  0.5440
  476MOL0     C64152   0.286  -0.248  12.108 -0.3628  0.6899  0.5690
  476MOL0     C64153   0.198  -0.325  12.039 -0.1262  0.7010 -0.4162
  476MOL0     C64154   0.237  -0.435  11.949 -0.1056 -0.2161 -0.1508
  476MOL0     O64155   0.148  -0.477  11.857 -0.2164  1.0934  0.6234
  476MOL0     C64156   0.161  -0.571  11.764  0.2529  0.4643  0.6914
  476MOL0     C64157   0.078  -0.676  11.754  0.0669 -0.2260 -0.4871
  476MOL0     C64158   0.102  -0.777  11.651 -0.0400 -0.6982 -0.2280
  476MOL0     C64159   0.208  -0.758  11.563  0.9757  0.6791  0.0885
  476MOL0     O64160   0.221  -0.852  11.458  0.2476 -0.5384  0.2833
  476MOL0     C64161   0.119  -0.929  11.398 -0.5743 -0.3883  0.3024
  476MOL0     C64162   0.191  -0.994  11.288 -1.0476  0.0167 -0.3412
  476MOL0     C64163   0.253  -0.894  11.183  1.5964  0.3522 -0.1709
  476MOL0     C64164   0.155  -0.807  11.101  0.1947 -0.2545 -0.3316
  476MOL0     C64165   0.190  -0.730  10.976 -0.1223 -0.1051  0.1792
  476MOL0     C64166   0.287  -0.812  10.892  0.5212  0.8474  0.1572
  476MOL0     C64167   0.293  -0.743  10.756  0.2181  0.0937 -0.2101
  476MOL0     C64168   0.323  -0.593  10.759 -0.5003  0.1164 -0.8270
  476MOL0    Cl64169   0.495  -0.577  10.830  0.3509 -0.4173  0.1705
  476MOL0     C64170   0.284  -0.642  11.569 -0.4634  0.1735  0.0349
  476MOL0     C64171   0.265  -0.547  11.670  0.3873 -0.2045  0.6015
  476MOL0     O64172   0.349  -0.484  11.961  0.3228 -0.0335 -0.2693
  476MOL0     C64173   0.060  -0.289  12.039 -0.4947 -0.3307  0.1376
  476MOL0     C64174   0.017  -0.183  12.118 -0.2116  1.0964 -0.1617
  476MOL0     N64175   0.286   0.554  12.476 -0.1912  0.4468  0.6165
  476MOL0     N64176   0.361   0.654  12.437 -0.5407  0.6669  0.2056
  476MOL0     C64177   0.852   1.429  11.484 -1.0951 -0.4022  0.4484
  476MOL0     C64178   0.888   1.563  11.479 -0.0489  0.1081 -0.8633
  476MOL0     C64179   0.861   2.007  11.428 -0.3321 -0.6507  0.5130
  476MOL0     C64180   0.931   2.083  11.329 -0.1199  0.3741  0.1476
  476MOL0     C64181   0.947   2.224  11.350  1.4104 -0.2194  0.2334
  476MOL0     C64182   0.877   2.296  11.447  0.2765  0.2764 -0.7652
  476MOL0     O64183   0.874   2.435  11.453  0.0409 -0.0112 -0.4016
  476MOL0     C64184   0.998   2.507  11.404  0.0544  0.1114  0.2965
  476MOL0     C64185   1.003   2.647  11.461  0.2236  0.1048  0.3272
  476MOL0     C64186   0.978   2.642  11.619  0.6449 -0.5158 -0.7482
  476MOL0     C64187   1.073   2.550  11.693 -0.2661 -0.6150 -0.8769
  476MOL0     C64188   1.200   2.620  11.673 -0.4580 -0.3283 -0.2618
  476MOL0     C64189   1.307   2.670  11.649  1.1016 -0.0521  0.4971
  476MOL0     C64190   0.793   2.223  11.531 -1.1905 -1.0942  0.6141
  476MOL0     C64191   0.788   2.084  11.523  0.8778 -0.2487 -0.3801
  476MOL0     C64192   0.693   2.022  11.614  1.2362 -0.6434  0.3352
  476MOL0     H64193   0.631   1.676  11.667 -0.9919 -2.7863  1.2332
  476MOL0     H64194   0.569   1.432  11.644  0.4698 -0.8855  0.8295
  476MOL0     H64195   0.751   1.194  11.751  2.8595 -4.6759 -1.1066
  476MOL0     H64196   0.590   1.237  11.699  0.9768  0.7139 -1.2342
  476MOL0     H64197   0.775   1.005  11.624  0.3844 -0.4922 -0.2432
  476MOL0     H64198   0.609   1.024  11.568  2.5523  3.5607 -1.6574
  476MOL0     H64199   0.674   0.999  11.860 -0.5511  3.3054 -0.0269
  476MOL0     H64200   0.633   0.866  11.763  0.3491 -0.3856  1.2304
  476MOL0     H64201   0.473   1.117  11.831  3.0033 -0.8023  1.6001
  476MOL0     H64202   0.409   1.024  11.699 -2.0489 -2.2311  1.2871
  476MOL0     H64203   0.293   0.929  11.866  0.3030  3.0495 -0.9383
  476MOL0     H64204   0.423   0.812  11.849 -3.1460 -1.3440  2.0344
  476MOL0     H64205   0.546   0.929  12.038  0.0779 -0.7575  1.6310
  476MOL0     H64206   0.402   0.993  12.104  1.3043 -0.2194  1.3920
  476MOL0     H64207   0.441   0.697  12.034 -0.8194  1.7654 -4.3522
  476MOL0     H64208   0.286   0.772  12.089  0.3267 -2.2596  1.3737
  476MOL0     H64209   0.553   0.743  12.228  0.3047 -3.4831 -0.4502
  476MOL0     H64210   0.415   0.845  12.290  2.9478  0.1124 -0.2055
  476MOL0     H64211   0.315   0.490  12.160 -2.7194 -1.1464  0.0793
  476MOL0     H64212   0.229   0.258  12.411  1.6835 -0.0792 -0.6893
  476MOL0     H64213   0.113   0.372  12.483  0.1379  0.7300 -0.0250
  476MOL0     H64214  -0.012   0.393  12.276  1.1030  0.7122 -1.8305
  476MOL0     H64215   0.108   0.287  12.198 -0.2337  1.9418 -1.6787
  476MOL0     H64216  -0.111   0.220  12.402 -0.3113 -0.3804  0.1270
  476MOL0     H64217   0.045   0.167  12.438 -2.2263  0.5106  2.0222
  476MOL0     H64218  -0.064   0.117  12.149 -1.3920 -0.8322 -0.4832
  476MOL0     H64219  -0.106   0.009  12.281  2.2574 -1.4362  0.7889
  476MOL0     H64220   0.314  -0.066  12.229 -1.9560  2.0142  1.1835
  476MOL0     H64221   0.392  -0.264  12.098 -0.7258 -0.5174 -2.9662
  476MOL0     H64222  -0.007  -0.681  11.821  0.9964 -2.7092  0.6431
  476MOL0     H64223   0.025  -0.848  11.625 -0.2219  0.8231 -4.7307
  476MOL0     H64224   0.079  -1.001  11.470 -1.4103 -0.8399 -0.5696
  476MOL0     H64225   0.048  -0.862  11.349 -2.1278 -0.2087  2.6332
  476MOL0     H64226   0.270  -1.062  11.319 -0.1415 -0.9760 -4.2838
  476MOL0     H64227   0.114  -1.054  11.239 -2.4781  2.0668 -0.7544
  476MOL0     H64228   0.322  -0.828  11.235 -1.4566  3.7056  0.0518
  476MOL0     H64229   0.309  -0.951  11.108 -0.0220  1.8463 -2.6679
  476MOL0     H64230   0.133  -0.729  11.174  0.1220  1.3295 -1.9964
  476MOL0     H64231   0.080  -0.882  11.073  1.0509  0.4706 -5.7389
  476MOL0     H64232   0.228  -0.637  11.019 -2.5759  0.3148  1.6692
  476MOL0     H64233   0.101  -0.697  10.921 -0.7502  1.9025  2.2448
  476MOL0     H64234   0.384  -0.799  10.941  0.4227  0.9323  0.3274
  476MOL0     H64235   0.256  -0.917  10.892 -1.0279  1.2780  0.6423
  476MOL0     H64236   0.200  -0.761  10.703  0.4053  1.3634 -1.0254
  476MOL0     H64237   0.374  -0.786  10.695  2.2667  1.5263  1.3381
  476MOL0     H64238   0.315  -0.542  10.663  1.7770  2.1904 -0.0249
  476MOL0     H64239   0.251  -0.538  10.821  2.3053  1.2968  1.6910
  476MOL0     H64240   0.360  -0.617  11.496  0.0786 -1.7329 -0.1169
  476MOL0     H64241   0.334  -0.464  11.674  0.5538 -0.0268 -2.9643
  476MOL0     H64242  -0.014  -0.350  11.989 -1.8727  0.3483  1.2815
  476MOL0     H64243  -0.088  -0.154  12.119 -0.2947  0.8429 -0.8606
  476MOL0     H64244   0.912   1.363  11.423  0.7815  2.9775 -1.6612
  476MOL0     H64245   0.985   1.582  11.433  1.2026  3.8125  2.6342
  476MOL0     H64246   0.983   2.039  11.244  0.8242  1.4041  0.1761
  476MOL0     H64247   1.011   2.279  11.282  2.0761 -0.0603  0.9741
  476MOL0     H64248   0.997   2.516  11.295 -3.1775  3.2379  0.4078
  476MOL0     H64249   1.094   2.457  11.420  0.0494  0.4316  1.4431
  476MOL0     H64250   0.922   2.701  11.410 -0.5358 -0.2766  1.1167
  476MOL0     H64251   1.104   2.677  11.431  0.4511 -1.0147 -0.0821
  476MOL0     H64252   0.878   2.601  11.634  0.1788  0.2859 -1.5976
  476MOL0     H64253   0.978   2.742  11.662  2.0267 -0.0491 -1.7360
  476MOL0     H64254   1.060   2.552  11.801  2.0626 -4.3393 -0.3309
  476MOL0     H64255   1.063   2.449  11.652 -4.1910 -0.1900 -1.2926
  476MOL0     H64256   1.406   2.710  11.653  0.9410  0.5261 -0.8205
  476MOL0     H64257   0.735   2.276  11.605  1.3288  0.5381  1.5398
  476MOL0     H64258   0.669   2.098  11.689  4.3952  0.2517  0.5801
  476MOL0     H64259   0.609   1.984  11.555  1.6144  0.0231 -0.6566
  476MOL0     H64260   0.743   1.948  11.678  2.9561  0.1571 -0.0172
  477MOL0     O64261   2.375   7.533   0.308 -0.0690 -0.1132  0.0662
  477MOL0     C64262   2.279   7.587   0.364 -0.9615  0.8642  0.1982
  477MOL0     O64263   2.156   7.534   0.369 -0.0684  0.5042  1.3937
  477MOL0     C64264   2.121   7.431   0.283  0.4871  0.3670  0.3807
  477MOL0     C64265   2.029   7.461   0.176  0.7396 -0.5972  0.1596
  477MOL0     C64266   1.987   7.354   0.084 -0.1864  0.2011 -0.2227
  477MOL0     C64267   2.024   7.223   0.108 -0.2475 -0.9013  0.3349
  477MOL0     O64268   2.002   7.122   0.015 -1.0700  0.1617 -0.1028
  477MOL0     C64269   2.011   7.134  -0.131 -0.0552  0.7048  0.5027
  477MOL0     C64270   1.965   7.000  -0.188  0.0629  0.0784 -0.2360
  477MOL0     C64271   2.071   6.893  -0.203 -0.8364 -0.6913  0.6571
  477MOL0     C64272   2.033   6.755  -0.242  0.6425 -0.0767  0.1117
  477MOL0     C64273   1.913   6.741  -0.340 -0.7209  0.1260  0.1767
  477MOL0     C64274   1.859   6.600  -0.365 -0.8216  0.1953 -0.7969
  477MOL0     C64275   1.745   6.595  -0.466  1.0156 -0.8807 -0.0495
  477MOL0     C64276   1.802   6.568  -0.601  0.0928 -0.0372  0.6373
  477MOL0     N64277   1.701   6.603  -0.704 -0.1466  0.7087  0.0987
  477MOL0     C64278   1.579   6.543  -0.721 -0.7460  0.6244  0.0786
  477MOL0     C64279   1.509   6.636  -0.791  0.2223 -0.0418  0.1310
  477MOL0     C64280   1.357   6.640  -0.832 -1.2979  0.3038  0.6461
  477MOL0     C64281   1.281   6.544  -0.745  0.6892  0.2138  1.1806
  477MOL0     C64282   1.125   6.557  -0.753 -0.2953 -0.0169 -0.1710
  477MOL0     C64283   1.064   6.439  -0.676 -0.2252 -0.2085 -0.5129
  477MOL0     O64284   0.926   6.428  -0.705 -0.1633 -0.0660 -0.1424
  477MOL0     C64285   0.840   6.429  -0.600  0.7994 -0.2196  0.0454
  477MOL0     C64286   0.715   6.369  -0.625 -0.2175 -0.4958 -0.2032
  477MOL0     C64287   0.615   6.348  -0.536  0.4641 -0.3281 -0.4009
  477MOL0     C64288   0.623   6.396  -0.403 -1.0707  0.4547  1.2094
  477MOL0     C64289   0.511   6.396  -0.300  0.8538  0.4396 -0.2894
  477MOL0     O64290   0.527   6.478  -0.190 -0.4794  0.0219 -0.1370
  477MOL0     C64291   0.421   6.482  -0.112  0.1503 -1.2197 -0.5026
  477MOL0     C64292   0.439   6.448   0.023 -0.3736  0.1331 -0.6447
  477MOL0     C64293   0.321   6.448   0.101 -0.0209  0.1172 -0.5899
  477MOL0     C64294   0.188   6.480   0.070  0.1278 -0.3683 -0.7688
  477MOL0     O64295   0.079   6.489   0.151  0.4975  0.8929  0.3946
  477MOL0     C64296   0.080   6.516   0.292 -0.2203  1.0339 -0.0880
  477MOL0     C64297  -0.052   6.570   0.342 -0.2431  0.1541  0.1664
  477MOL0     C64298  -0.036   6.681   0.449  0.0006 -0.0729  0.8349
  477MOL0     C64299   0.047   6.642   0.566  0.5607  0.1160 -0.9986
  477MOL0     C64300  -0.049   6.565   0.673 -1.1370 -0.7115  0.1852
  477MOL0     C64301  -0.129   6.655   0.768 -0.0642  0.1573  0.5766
  477MOL0     C64302  -0.042   6.762   0.835 -0.2247 -0.8935  0.3824
  477MOL0     C64303  -0.083   6.766   0.980 -0.0558 -0.0891 -0.4837
  477MOL0    Cl64304  -0.025   6.632   1.089 -0.2050 -0.1011 -0.0371
  477MOL0     C64305   0.179   6.507  -0.069 -0.2954  0.4450  0.0825
  477MOL0     C64306   0.293   6.520  -0.158 -0.2220 -0.0557  0.0676
  477MOL0     O64307   0.411   6.329  -0.332 -0.5587 -0.2306 -0.1546
  477MOL0     C64308   0.746   6.462  -0.371 -0.4251  1.4682  0.0868
  477MOL0     C64309   0.853   6.481  -0.469 -0.2897 -0.1732 -1.1371
  477MOL0     N64310   1.595   6.743  -0.812  0.4704  0.0188 -0.2411
  477MOL0     N64311   1.707   6.719  -0.776 -0.2497  0.3871  0.0272
  477MOL0     C64312   2.105   7.191   0.211 -0.3824 -1.3694  1.0345
  477MOL0     C64313   2.151   7.291   0.298 -0.4229  0.4517  0.0471
  477MOL0     C64314   2.315   7.691   0.458  1.1765 -0.2323  0.0644
  477MOL0     C64315   2.205   7.771   0.501  0.4154  0.3127 -0.4679
  477MOL0     C64316   2.220   7.880   0.581 -0.0522 -0.0336 -0.4236
  477MOL0     C64317   2.350   7.905   0.628  0.7439  0.3695  0.6134
  477MOL0     O64318   2.372   8.012   0.709  0.0326  0.0272 -0.5270
  477MOL0     C64319   2.374   7.978   0.846 -0.3251  0.3369 -0.3859
  477MOL0     C64320   2.430   8.088   0.940  0.5901 -0.0796 -0.6571
  477MOL0     C64321   2.562   8.154   0.906  0.2631  0.8303  0.2574
  477MOL0     C64322   2.693   8.098   0.973  0.7428 -0.9148  0.0016
  477MOL0     C64323   2.705   7.954   0.929  0.2416  0.0284  0.6002
  477MOL0     C64324   2.711   7.839   0.895 -0.8183  0.0971  0.1101
  477MOL0     C64325   2.454   7.827   0.590 -1.6506  0.4538 -0.8867
  477MOL0     C64326   2.445   7.723   0.501  0.3750 -0.3444  1.2136
  477MOL0     C64327   2.563   7.631   0.483 -0.1071  0.3752  0.6173
  477MOL0     H64328   2.005   7.567   0.177  2.6431 -0.1408  0.8621
  477MOL0     H64329   1.933   7.369  -0.009  4.3200  0.5239 -3.0808
  477MOL0     H64330   1.953   7.218  -0.171  1.4010  1.7295  0.4674
  477MOL0     H64331   2.114   7.154  -0.162  0.3163  1.2008  1.9443
  477MOL0     H64332   1.907   7.015  -0.280 -1.0264 -0.0992  0.4095
  477MOL0     H64333   1.899   6.963  -0.109 -1.5702  0.0746 -1.5227
  477MOL0     H64334   2.145   6.898  -0.123  0.8387  0.3477 -0.8705
  477MOL0     H64335   2.123   6.924  -0.294 -3.4954  2.0750 -0.1196
  477MOL0     H64336   2.112   6.696  -0.290  0.1210 -1.4887  0.9498
  477MOL0     H64337   2.013   6.711  -0.144 -1.0845 -0.9121 -0.5844
  477MOL0     H64338   1.827   6.805  -0.318 -2.1389 -0.7611 -2.3150
  477MOL0     H64339   1.951   6.775  -0.437  2.1449 -2.5324  0.2187
  477MOL0     H64340   1.948   6.541  -0.389  1.3990  2.4388  1.2835
  477MOL0     H64341   1.821   6.565  -0.268  0.9814  1.0256  0.2803
  477MOL0     H64342   1.693   6.691  -0.465  4.8237  1.5011  2.9196
  477MOL0     H64343   1.681   6.512  -0.433  0.9356 -2.2734 -3.3052
  477MOL0     H64344   1.891   6.627  -0.625  1.5925 -1.0796  3.2541
  477MOL0     H64345   1.825   6.461  -0.609 -1.0675 -0.2204 -0.8134
  477MOL0     H64346   1.557   6.449  -0.672  0.6508  0.7056  0.9000
  477MOL0     H64347   1.316   6.740  -0.815 -2.2203  0.3807 -1.6465
  477MOL0     H64348   1.351   6.622  -0.940 -0.6107  1.6082  0.3684
  477MOL0     H64349   1.303   6.437  -0.759 -0.5605 -0.0349  1.0002
  477MOL0     H64350   1.313   6.556  -0.641 -2.2309 -2.4392  2.5545
  477MOL0     H64351   1.092   6.537  -0.855  0.6612 -1.5066 -0.2258
  477MOL0     H64352   1.091   6.655  -0.719 -0.5263 -0.9780  2.7008
  477MOL0     H64353   1.088   6.421  -0.571 -1.6738 -5.6887 -0.8248
  477MOL0     H64354   1.116   6.352  -0.715  3.2553 -0.0748  3.1675
  477MOL0     H64355   0.697   6.335  -0.726  0.6977  2.0163 -1.3132
  477MOL0     H64356   0.523   6.297  -0.562 -1.0685  0.7187  2.5619
  477MOL0     H64357   0.538   6.420   0.057 -0.0330 -1.5125 -2.7574
  477MOL0     H64358   0.333   6.439   0.209  2.4935  1.6714 -0.6768
  477MOL0     H64359   0.114   6.430   0.350 -0.4854 -0.0523 -1.4830
  477MOL0     H64360   0.155   6.596   0.304  2.3777 -1.3813  0.8134
  477MOL0     H64361  -0.109   6.602   0.254 -3.0223  2.5368  2.5886
  477MOL0     H64362  -0.110   6.486   0.381  0.0924 -0.0723  0.1745
  477MOL0     H64363   0.015   6.764   0.398 -3.0418  0.6210 -1.3632
  477MOL0     H64364  -0.135   6.712   0.482 -0.9503 -2.4688  0.3838
  477MOL0     H64365   0.092   6.730   0.612 -0.2290 -0.1668  0.3928
  477MOL0     H64366   0.131   6.576   0.543  1.4287  1.2992 -1.2821
  477MOL0     H64367   0.018   6.501   0.732  0.9846  0.8905 -0.3360
  477MOL0     H64368  -0.116   6.494   0.625 -3.0271 -1.2179  3.2834
  477MOL0     H64369  -0.215   6.708   0.727  0.0574 -0.3635 -0.3797
  477MOL0     H64370  -0.180   6.594   0.843 -4.3757  1.0377 -1.3892
  477MOL0     H64371  -0.074   6.854   0.787 -0.7440 -1.6346 -0.7370
  477MOL0     H64372   0.067   6.752   0.833 -0.1119 -1.0584  3.0599
  477MOL0     H64373  -0.044   6.855   1.031  1.2759 -2.2236  2.6018
  477MOL0     H64374  -0.191   6.769   0.995  0.0820  1.6272  0.4230
  477MOL0     H64375   0.082   6.536  -0.108 -1.1005 -2.5591 -0.3625
  477MOL0     H64376   0.273   6.557  -0.258  2.7100  1.3311 -0.1064
  477MOL0     H64377   0.739   6.509  -0.274 -2.3029 -2.9026  2.3377
  477MOL0     H64378   0.943   6.529  -0.431  0.2952 -0.2343 -2.4072
  477MOL0     H64379   2.129   7.088   0.238 -1.4390 -1.0421  3.6060
  477MOL0     H64380   2.218   7.272   0.382  0.7392 -2.6828 -1.4486
  477MOL0     H64381   2.105   7.754   0.462 -1.6042 -0.2971  4.2883
  477MOL0     H64382   2.135   7.946   0.595  0.0256  0.0003 -0.1120
  477MOL0     H64383   2.426   7.882   0.857 -0.2078  0.0659 -2.8367
  477MOL0     H64384   2.271   7.945   0.865 -0.4990 -0.5895 -2.6713
  477MOL0     H64385   2.434   8.041   1.039  0.0626  1.2937  0.0460
  477MOL0     H64386   2.362   8.173   0.953  1.1586  0.9040 -3.4331
  477MOL0     H64387   2.560   8.262   0.921  0.0886  1.5327 -3.7333
  477MOL0     H64388   2.574   8.149   0.797 -2.0878 -1.7337 -0.0098
  477MOL0     H64389   2.789   8.146   0.950  1.0176 -0.9982  0.9302
  477MOL0     H64390   2.688   8.125   1.078  0.9855 -0.7347 -0.0314
  477MOL0     H64391   2.700   7.735   0.872 -1.4664  0.6126 -2.2771
  477MOL0     H64392   2.545   7.856   0.640 -1.0739 -1.8916 -0.4573
  477MOL0     H64393   2.652   7.685   0.516 -0.5212  1.1093  0.5710
  477MOL0     H64394   2.566   7.543   0.548 -1.7184 -0.5256 -0.4551
  477MOL0     H64395   2.583   7.608   0.378  1.3051 -2.0555  1.3485
  478MOL0     O64396   1.763   2.701   5.952 -0.3803  0.0673  0.6326
  478MOL0     C64397   1.670   2.692   5.875  0.9609 -0.1767  0.1683
  478MOL0     O64398   1.674   2.631   5.752  0.7251  0.0704 -0.0784
  478MOL0     C64399   1.793   2.586   5.693  0.6182 -0.6733 -0.1446
  478MOL0     C64400   1.779   2.502   5.581 -0.0167 -0.0713  0.2310
  478MOL0     C64401   1.887   2.461   5.504  0.6138 -0.4576 -0.5043
  478MOL0     C64402   2.013   2.510   5.533  0.3382  0.8660 -0.4224
  478MOL0     O64403   2.110   2.467   5.448  0.1523 -0.0400  0.2618
  478MOL0     C64404   2.237   2.533   5.459 -0.7169  0.4584  0.2889
  478MOL0     C64405   2.320   2.506   5.338  0.3420  1.0803 -0.4613
  478MOL0     C64406   2.433   2.615   5.327 -0.7875  0.8259 -0.0082
  478MOL0     C64407   2.498   2.610   5.196 -0.8790 -0.2666 -0.2453
  478MOL0     C64408   2.621   2.512   5.199 -0.9024 -0.6479  1.2325
  478MOL0     C64409   2.669   2.458   5.063  0.3609 -0.2136 -0.4662
  478MOL0     C64410   2.717   2.574   4.974  0.0263  0.4533 -0.2517
  478MOL0     C64411   2.784   2.531   4.843  1.4151  0.3146 -0.4037
  478MOL0     N64412   2.707   2.437   4.763  0.3694 -0.7421  0.7743
  478MOL0     C64413   2.569   2.433   4.740 -0.0122  0.0408 -0.0067
  478MOL0     C64414   2.553   2.366   4.626  0.0149  0.5357 -1.2479
  478MOL0     C64415   2.419   2.348   4.565 -0.4275  1.2167  0.2199
  478MOL0     C64416   2.425   2.209   4.487 -0.1101  0.6963  0.2490
  478MOL0     C64417   2.295   2.174   4.417  0.5392 -0.0731 -0.2224
  478MOL0     C64418   2.296   2.041   4.338 -0.2134  0.6955  0.6091
  478MOL0     O64419   2.340   1.922   4.405 -0.0478 -0.0001  0.0509
  478MOL0     C64420   2.252   1.871   4.496  0.2723 -0.7431 -0.2671
  478MOL0     C64421   2.288   1.850   4.627 -0.0174  0.5723  0.0732
  478MOL0     C64422   2.193   1.821   4.725  0.3102  0.0734 -0.3576
  478MOL0     C64423   2.057   1.788   4.696  0.2723 -0.3404 -0.1797
  478MOL0     C64424   1.970   1.738   4.813  0.4113  0.8923 -0.5794
  478MOL0     O64425   2.025   1.748   4.937 -0.0610 -0.4167  0.6794
  478MOL0     C64426   1.953   1.712   5.045 -0.4279 -0.0024 -0.9892
  478MOL0     C64427   1.947   1.578   5.089  0.6038  0.8456  0.4792
  478MOL0     C64428   1.869   1.541   5.200 -0.1395 -0.0714 -0.0854
  478MOL0     C64429   1.794   1.642   5.275  0.0994 -0.7882  0.3010
  478MOL0     O64430   1.728   1.608   5.383  0.0882  0.1249 -0.4946
  478MOL0     C64431   1.808   1.563   5.492 -0.4594 -0.4324 -0.8059
  478MOL0     C64432   1.814   1.408   5.500 -0.2817  0.6314  0.5308
  478MOL0     C64433   1.668   1.354   5.510 -0.2388 -1.0399 -0.0070
  478MOL0     C64434   1.686   1.199   5.511 -0.4849  0.6162  0.4864
  478MOL0     C64435   1.565   1.123   5.543  0.4986  0.7223  0.2298
  478MOL0     C64436   1.448   1.138   5.439  0.8801 -0.1851 -0.9094
  478MOL0     C64437   1.489   1.102   5.305 -0.2693  0.6154  0.2753
  478MOL0     C64438   1.365   1.033   5.233 -1.3120  0.1044  0.3756
  478MOL0    Cl64439   1.417   0.988   5.063 -0.1064 -0.1403 -0.0791
  478MOL0     C64440   1.781   1.769   5.209 -1.1360 -0.4406 -0.4613
  478MOL0     C64441   1.867   1.807   5.105  0.6795 -0.4888  0.7675
  478MOL0     O64442   1.854   1.701   4.783  0.1944  0.9954 -0.8360
  478MOL0     C64443   2.026   1.804   4.561 -0.2941  0.6250  0.9288
  478MOL0     C64444   2.119   1.843   4.461 -0.1911 -0.7499  0.1283
  478MOL0     N64445   2.676   2.325   4.593 -0.3302  0.4188 -0.4103
  478MOL0     N64446   2.768   2.376   4.665  0.8702  0.0141  0.4301
  478MOL0     C64447   2.022   2.604   5.638 -0.0537  0.7007 -0.1640
  478MOL0     C64448   1.912   2.647   5.705  0.0440  0.5596  0.6174
  478MOL0     C64449   1.528   2.737   5.913  0.5086 -0.6740 -0.6950
  478MOL0     C64450   1.425   2.739   5.810  0.3608 -0.4727  0.5528
  478MOL0     C64451   1.295   2.792   5.837 -0.3380  1.0484  0.9584
  478MOL0     C64452   1.271   2.865   5.952  0.2734 -0.0924 -0.0124
  478MOL0     O64453   1.151   2.925   5.964 -0.0614 -0.2467  0.1275
  478MOL0     C64454   1.111   3.010   5.859  0.0003  0.7137 -1.0702
  478MOL0     C64455   1.056   3.146   5.905  0.0693 -0.0520 -0.6071
  478MOL0     C64456   1.173   3.237   5.953 -0.7544  0.1091  0.0109
  478MOL0     C64457   1.133   3.358   6.051 -0.2242 -0.4195  0.6399
  478MOL0     C64458   1.089   3.466   5.965 -0.3065  0.2632 -0.8915
  478MOL0     C64459   1.055   3.545   5.888 -0.1544  0.2694 -0.3087
  478MOL0     C64460   1.373   2.886   6.041 -0.2182  0.4799 -0.0468
  478MOL0     C64461   1.495   2.818   6.027 -0.4913 -0.0473 -0.3376
  478MOL0     C64462   1.606   2.847   6.137 -0.1987 -0.2766  1.3605
  478MOL0     H64463   1.676   2.469   5.570 -0.8731  2.5599 -0.2245
  478MOL0     H64464   1.876   2.395   5.419  1.2293  2.5477 -3.1008
  478MOL0     H64465   2.218   2.640   5.467  0.6771  0.9112 -1.7537
  478MOL0     H64466   2.299   2.494   5.540 -0.2053  0.1301 -0.2525
  478MOL0     H64467   2.252   2.499   5.252 -0.3020 -0.6685  0.1456
  478MOL0     H64468   2.358   2.405   5.352  0.3165  1.2605  1.0386
  478MOL0     H64469   2.499   2.605   5.412 -0.4534 -1.2532 -0.4705
  478MOL0     H64470   2.389   2.715   5.335 -2.6974 -0.0983  1.9248
  478MOL0     H64471   2.417   2.589   5.126  0.1732 -0.6743 -1.3852
  478MOL0     H64472   2.531   2.712   5.172  3.3708 -0.7093  2.5947
  478MOL0     H64473   2.705   2.561   5.250  1.2316 -1.3299 -1.4207
  478MOL0     H64474   2.594   2.424   5.259  0.6291 -4.3530 -3.0141
  478MOL0     H64475   2.751   2.390   5.089  1.0270  1.0182  0.7868
  478MOL0     H64476   2.595   2.397   5.010  0.3610 -1.6712  1.1183
  478MOL0     H64477   2.793   2.632   5.027 -0.3841 -0.9880  2.0348
  478MOL0     H64478   2.627   2.632   4.957 -0.2455  0.7336  1.9257
  478MOL0     H64479   2.799   2.627   4.794  1.8953  1.9586  2.7180
  478MOL0     H64480   2.880   2.480   4.856  0.3671 -2.0042 -1.1041
  478MOL0     H64481   2.492   2.484   4.797 -0.4056  1.0021 -1.3335
  478MOL0     H64482   2.352   2.334   4.650 -1.2144  1.1074 -0.4071
  478MOL0     H64483   2.386   2.431   4.502 -0.7444 -0.1086 -1.4372
  478MOL0     H64484   2.507   2.211   4.414  0.1439 -0.7728  0.4650
  478MOL0     H64485   2.454   2.132   4.560 -0.9339  1.1154  1.0371
  478MOL0     H64486   2.262   2.259   4.356  0.7114 -0.9621 -1.5700
  478MOL0     H64487   2.221   2.163   4.498  1.9204 -0.7709  0.9953
  478MOL0     H64488   2.367   2.064   4.257  2.3251  0.8779  2.7647
  478MOL0     H64489   2.192   2.033   4.305 -0.0464  0.0547  0.2058
  478MOL0     H64490   2.393   1.868   4.648  0.8891 -0.5596 -2.9036
  478MOL0     H64491   2.226   1.817   4.828 -0.5974  0.2292 -0.0549
  478MOL0     H64492   2.001   1.493   5.049  1.1491  1.8746 -1.0450
  478MOL0     H64493   1.855   1.436   5.226 -2.0872  0.3604  0.7907
  478MOL0     H64494   1.908   1.605   5.500 -1.7311  2.6383  0.6088
  478MOL0     H64495   1.764   1.596   5.587  0.6859 -2.7004  0.5927
  478MOL0     H64496   1.861   1.368   5.410 -2.4399  0.5709 -0.6623
  478MOL0     H64497   1.871   1.383   5.590  2.2722  2.2547 -0.5383
  478MOL0     H64498   1.617   1.381   5.603 -2.8066 -2.0885 -1.0066
  478MOL0     H64499   1.604   1.393   5.429 -1.2612  1.6287  1.9446
  478MOL0     H64500   1.756   1.173   5.590 -1.0717 -1.2566  0.4502
  478MOL0     H64501   1.725   1.167   5.414  0.0555  1.9269  0.2597
  478MOL0     H64502   1.537   1.147   5.646  0.4267  0.4950  0.2640
  478MOL0     H64503   1.596   1.019   5.545  1.3262  0.9631  0.1181
  478MOL0     H64504   1.364   1.073   5.467  0.2621  1.3974  1.0995
  478MOL0     H64505   1.409   1.240   5.433  1.1702 -0.1084 -1.6434
  478MOL0     H64506   1.576   1.035   5.307 -2.0626 -1.8998 -0.2117
  478MOL0     H64507   1.506   1.194   5.248  0.5211 -0.1305 -0.7423
  478MOL0     H64508   1.333   0.951   5.296  0.4932  0.3008  1.6169
  478MOL0     H64509   1.293   1.115   5.226 -1.2622  0.2580  1.5406
  478MOL0     H64510   1.716   1.849   5.245  0.3176 -0.1119  1.6437
  478MOL0     H64511   1.863   1.906   5.060  1.9393  0.2196  2.1203
  478MOL0     H64512   1.930   1.772   4.521  1.3248 -4.0378  0.1851
  478MOL0     H64513   2.081   1.853   4.360  4.1894  1.8948 -1.5282
  478MOL0     H64514   2.121   2.639   5.663  2.0697 -3.5268 -1.7100
  478MOL0     H64515   1.934   2.728   5.775  1.0914  0.8578 -0.0263
  478MOL0     H64516   1.439   2.688   5.715  3.1955  1.4880 -0.2074
  478MOL0     H64517   1.235   2.789   5.747 -1.9207  1.0374  1.9834
  478MOL0     H64518   1.044   2.948   5.799  1.1712 -0.1864 -1.4697
  478MOL0     H64519   1.196   3.042   5.798  1.9396  1.7099  1.9208
  478MOL0     H64520   0.979   3.127   5.980 -0.6510 -1.7241 -1.7013
  478MOL0     H64521   1.005   3.199   5.824 -2.3888  2.8223  2.5620
  478MOL0     H64522   1.226   3.286   5.870  0.4736  3.4682  2.5398
  478MOL0     H64523   1.245   3.186   6.017 -2.0373 -1.0023  0.6162
  478MOL0     H64524   1.049   3.332   6.115 -0.4587  1.3090  1.0676
  478MOL0     H64525   1.213   3.387   6.120 -0.3204 -2.1262  1.5244
  478MOL0     H64526   1.005   3.598   5.809  0.5018  0.2088 -0.7646
  478MOL0     H64527   1.361   2.957   6.122 -1.8483 -0.2845  0.4228
  478MOL0     H64528   1.563   2.923   6.203 -2.4713  0.5393 -0.8972
  478MOL0     H64529   1.619   2.755   6.194  3.3886 -1.2656 -0.7369
  478MOL0     H64530   1.705   2.885   6.111 -0.4016 -0.2051  0.6708
  479MOL0     O64531   0.164   9.308  10.075  0.1525  0.8821  0.1796
  479MOL0     C64532   0.273   9.363  10.090 -0.5971  0.4218 -0.1203
  479MOL0     O64533   0.301   9.482  10.044 -0.2862  0.2566  0.1815
  479MOL0     C64534   0.226   9.534   9.938 -0.8341 -0.6272 -0.2453
  479MOL0     C64535   0.232   9.472   9.815 -0.4417 -0.2518 -0.1994
  479MOL0     C64536   0.149   9.525   9.715  0.3024 -0.0473  0.3695
  479MOL0     C64537   0.064   9.639   9.739  0.2379 -0.0042 -0.0229
  479MOL0     O64538  -0.019   9.684   9.641  0.3143  0.9880 -0.4395
  479MOL0     C64539  -0.060   9.819   9.638 -0.3551 -0.2013 -0.4949
  479MOL0     C64540  -0.126   9.845   9.511 -0.3650 -0.3681  0.3722
  479MOL0     C64541  -0.046   9.807   9.381  0.3550  0.0579 -1.1612
  479MOL0     C64542  -0.123   9.835   9.256 -0.2547 -0.5992  0.0602
  479MOL0     C64543  -0.041   9.866   9.120  0.9822 -0.2705  0.4420
  479MOL0     C64544  -0.125   9.913   9.012  0.1796 -0.0045 -0.0269
  479MOL0     C64545  -0.069   9.919   8.867 -0.2271  0.2000 -0.4374
  479MOL0     C64546   0.060   9.996   8.859 -0.3297  0.4728  0.5346
  479MOL0     N64547   0.178   9.913   8.891  0.1001 -0.3434  0.2064
  479MOL0     C64548   0.270   9.951   8.983 -0.1027  0.9517 -0.1115
  479MOL0     C64549   0.354   9.845   8.991  0.1963  0.4563  0.2975
  479MOL0     C64550   0.484   9.853   9.073 -0.4978  0.2987 -0.3058
  479MOL0     C64551   0.596   9.913   8.997 -0.5588 -0.3399 -0.6209
  479MOL0     C64552   0.635   9.838   8.870 -0.3302  0.4639 -0.0760
  479MOL0     C64553   0.691   9.704   8.894  0.3604  0.3558 -0.5166
  479MOL0     O64554   0.806   9.719   8.985  0.8496  0.4822  0.2269
  479MOL0     C64555   0.862   9.605   9.037  0.0586 -0.3205 -0.1648
  479MOL0     C64556   0.960   9.625   9.131 -0.9635 -0.2119  0.1772
  479MOL0     C64557   1.020   9.516   9.188 -0.4849 -0.2266 -0.9079
  479MOL0     C64558   0.977   9.385   9.169 -0.9094 -1.0875 -0.2133
  479MOL0     C64559   1.050   9.277   9.234  0.1951  0.1812 -0.6125
  479MOL0     O64560   1.031   9.157   9.183  0.0414  1.0600 -0.3387
  479MOL0     C64561   1.074   9.051   9.261 -1.7191  0.9113 -0.4154
  479MOL0     C64562   1.185   8.969   9.218  0.5738  0.9764  0.1734
  479MOL0     C64563   1.206   8.858   9.304  0.9593 -0.1974  1.2708
  479MOL0     C64564   1.140   8.824   9.420 -0.2152 -0.6474 -0.1235
  479MOL0     O64565   1.154   8.707   9.475  0.2063  0.4408  0.0011
  479MOL0     C64566   1.228   8.603   9.413  0.5775 -0.3735  0.2854
  479MOL0     C64567   1.182   8.472   9.482 -0.7832 -0.4451  0.5261
  479MOL0     C64568   1.258   8.346   9.412 -0.1929 -0.8176  0.1432
  479MOL0     C64569   1.244   8.223   9.501  0.1191 -0.6244  0.2052
  479MOL0     C64570   1.289   8.091   9.436 -0.0504 -0.0774  0.0871
  479MOL0     C64571   1.300   7.988   9.546  0.6273  0.6828 -0.6886
  479MOL0     C64572   1.266   7.844   9.499  0.0765  0.2020 -0.6190
  479MOL0     C64573   1.260   7.748   9.610  0.1127  0.6439 -0.7660
  479MOL0    Cl64574   1.265   7.583   9.538  0.0142 -0.5256  0.2234
  479MOL0     C64575   1.048   8.918   9.473  0.7479  0.4903  0.2785
  479MOL0     C64576   1.002   9.024   9.387 -0.5316 -0.1886  1.2117
  479MOL0     O64577   1.116   9.298   9.337  0.2648 -0.7883 -0.1426
  479MOL0     C64578   0.868   9.368   9.079 -0.0382 -0.4720 -0.0370
  479MOL0     C64579   0.817   9.475   9.015 -0.1242 -0.3408 -0.0067
  479MOL0     N64580   0.307   9.745   8.893  0.2512 -0.4615  0.3104
  479MOL0     N64581   0.197   9.790   8.841  0.4623 -0.4903  0.1448
  479MOL0     C64582   0.079   9.707   9.861  0.0439  0.3563  0.1221
  479MOL0     C64583   0.153   9.651   9.960 -0.1747  0.1931 -0.6311
  479MOL0     C64584   0.374   9.317  10.178  0.0457  0.3921 -0.0016
  479MOL0     C64585   0.334   9.287  10.309 -0.5185 -0.2094  0.2603
  479MOL0     C64586   0.432   9.263  10.416 -0.3588  0.4545 -0.0587
  479MOL0     C64587   0.559   9.242  10.373 -0.4325 -0.8120 -0.0303
  479MOL0     O64588   0.653   9.189  10.455  0.9352  0.3691  0.7723
  479MOL0     C64589   0.689   9.048  10.434  0.5668  1.3637 -0.7232
  479MOL0     C64590   0.572   8.950  10.460  0.5925 -0.2838 -0.1449
  479MOL0     C64591   0.526   8.955  10.610  0.8869  0.4323  0.4893
  479MOL0     C64592   0.427   8.845  10.647  0.1584  0.0029  0.2288
  479MOL0     C64593   0.478   8.708  10.617  1.0340 -0.6202 -0.0723
  479MOL0     C64594   0.535   8.602  10.586 -1.0795  0.2334 -0.7456
  479MOL0     C64595   0.597   9.249  10.233 -0.9477  0.4776  0.2432
  479MOL0     C64596   0.507   9.297  10.140  0.2795  0.0638 -0.2926
  479MOL0     C64597   0.555   9.325  10.002 -0.0243 -0.0598 -0.0706
  479MOL0     H64598   0.287   9.380   9.799  3.1362  1.8927 -1.3050
  479MOL0     H64599   0.165   9.495   9.612 -1.3038  0.9112 -0.1932
  479MOL0     H64600  -0.129   9.831   9.722 -0.3138 -0.8905 -0.3631
  479MOL0     H64601   0.026   9.887   9.644 -1.2665  0.9382  0.2115
  479MOL0     H64602  -0.149   9.952   9.519 -0.9652 -0.6316  2.9118
  479MOL0     H64603  -0.223   9.795   9.500 -0.8603  0.5026  0.6944
  479MOL0     H64604  -0.018   9.701   9.387  3.0109  0.7123 -0.6958
  479MOL0     H64605   0.052   9.856   9.387  0.4377 -0.2926  2.4109
  479MOL0     H64606  -0.189   9.750   9.235  1.7396 -1.7457 -1.9941
  479MOL0     H64607  -0.182   9.927   9.269  2.1711  1.1536 -0.5788
  479MOL0     H64608   0.045   9.927   9.148  0.6371  0.9547 -0.9927
  479MOL0     H64609   0.007   9.777   9.077  2.2810  0.0788  1.1279
  479MOL0     H64610  -0.215   9.851   9.015  0.1570 -0.0030 -0.6245
  479MOL0     H64611  -0.153  10.015   9.041  3.5143  0.9803  0.1303
  479MOL0     H64612  -0.140   9.973   8.803 -0.5415 -0.0907 -0.3351
  479MOL0     H64613  -0.057   9.815   8.834  1.9976  0.4002 -0.4418
  479MOL0     H64614   0.060  10.032   8.756 -2.5849 -0.4482  0.1458
  479MOL0     H64615   0.048  10.095   8.906  0.2810  0.7903  0.0256
  479MOL0     H64616   0.291  10.049   9.025  0.1466  0.8777 -0.0650
  479MOL0     H64617   0.466   9.919   9.158 -0.5610  0.7529 -0.6678
  479MOL0     H64618   0.518   9.761   9.121  0.0866 -0.0032 -1.2764
  479MOL0     H64619   0.557  10.012   8.972 -2.8960 -1.2583 -0.8876
  479MOL0     H64620   0.677   9.943   9.064 -1.6238  0.9612  0.1304
  479MOL0     H64621   0.711   9.896   8.817 -0.4103 -0.7681 -1.6212
  479MOL0     H64622   0.543   9.822   8.812 -2.4278 -1.3828  3.4279
  479MOL0     H64623   0.734   9.662   8.802  0.7340 -1.5988  0.4861
  479MOL0     H64624   0.619   9.629   8.929 -1.8355  2.5301 -0.1582
  479MOL0     H64625   1.011   9.719   9.151  0.0137 -0.9986  1.5523
  479MOL0     H64626   1.100   9.524   9.261 -3.3358  0.9728  2.3396
  479MOL0     H64627   1.243   8.988   9.128 -2.4108  2.3788 -1.5953
  479MOL0     H64628   1.286   8.797   9.263 -1.1430  0.3767 -4.6668
  479MOL0     H64629   1.172   8.606   9.319 -1.0243  3.8935  1.1761
  479MOL0     H64630   1.335   8.616   9.394  0.1887  1.1359 -1.0176
  479MOL0     H64631   1.213   8.486   9.586  0.8342 -1.6742  0.2412
  479MOL0     H64632   1.076   8.462   9.459 -0.5068 -0.3820 -0.8772
  479MOL0     H64633   1.212   8.334   9.313  1.1825 -0.6346 -0.5473
  479MOL0     H64634   1.367   8.353   9.401 -0.3035 -0.6257 -0.9016
  479MOL0     H64635   1.143   8.214   9.540  0.7159 -2.8033  1.4089
  479MOL0     H64636   1.304   8.244   9.590 -1.0571 -1.1122  1.1391
  479MOL0     H64637   1.391   8.108   9.399  0.0103  0.5924  0.5479
  479MOL0     H64638   1.213   8.048   9.371  1.0792 -1.0944 -0.6073
  479MOL0     H64639   1.391   7.996   9.606 -0.4505 -1.4304  1.4340
  479MOL0     H64640   1.215   8.020   9.608 -0.0413 -1.9457 -0.0926
  479MOL0     H64641   1.353   7.816   9.438  0.0777 -0.1907 -0.4346
  479MOL0     H64642   1.178   7.833   9.436 -1.4434  0.1465  1.4083
  479MOL0     H64643   1.336   7.760   9.688 -1.2564  2.3533  0.3795
  479MOL0     H64644   1.167   7.767   9.665  0.8921  1.2444  0.4049
  479MOL0     H64645   0.997   8.896   9.566  5.3413 -0.4559  2.8904
  479MOL0     H64646   0.929   9.093   9.428  0.4717 -0.9862  4.6584
  479MOL0     H64647   0.826   9.270   9.057 -0.4465  0.2357 -2.7316
  479MOL0     H64648   0.753   9.448   8.931 -1.8412  2.4551  0.2515
  479MOL0     H64649   0.021   9.795   9.889 -0.3512  0.6875 -1.6115
  479MOL0     H64650   0.152   9.694  10.059 -1.0214 -1.5426  0.1599
  479MOL0     H64651   0.229   9.290  10.334 -0.2666  0.5642  1.2765
  479MOL0     H64652   0.401   9.243  10.518 -0.1711  1.9356  0.3130
  479MOL0     H64653   0.787   9.026  10.478  0.1053 -0.9019 -0.7098
  479MOL0     H64654   0.708   9.039  10.327  0.5156 -1.2719 -0.5720
  479MOL0     H64655   0.609   8.848  10.442 -1.6135 -1.1277 -0.1301
  479MOL0     H64656   0.482   8.970  10.401  1.3304  3.5890 -0.1970
  479MOL0     H64657   0.481   9.053  10.629  0.9346  1.0568 -2.1759
  479MOL0     H64658   0.608   8.954  10.682  0.4585 -0.4960  0.9911
  479MOL0     H64659   0.420   8.840  10.756  0.3243  0.1172  0.2447
  479MOL0     H64660   0.339   8.883  10.594  1.5176  2.1948 -0.6109
  479MOL0     H64661   0.576   8.506  10.563 -0.0296  0.9676 -2.0656
  479MOL0     H64662   0.704   9.239  10.215 -1.3510  2.5151 -5.5310
  479MOL0     H64663   0.484   9.283   9.929  1.3763  1.7078 -2.6020
  479MOL0     H64664   0.578   9.431   9.989  6.0666 -0.7694  1.9359
  479MOL0     H64665   0.648   9.272   9.980  0.8007  1.2708  0.1444
  480MOL0     O64666   4.282   6.398   5.430  0.2162  0.0513  0.2111
  480MOL0     C64667   4.325   6.369   5.320  0.4007  0.2151 -0.1573
  480MOL0     O64668   4.278   6.417   5.199  0.6398 -0.3699 -0.4526
  480MOL0     C64669   4.194   6.524   5.176  0.5688 -0.5261  0.1887
  480MOL0     C64670   4.177   6.636   5.272  0.2237  0.5161  0.8934
  480MOL0     C64671   4.095   6.744   5.248  0.2023  0.5423 -0.3709
  480MOL0     C64672   4.018   6.745   5.135 -0.8026 -0.5496 -1.3224
  480MOL0     O64673   3.917   6.841   5.127  0.1499  0.1961 -0.6319
  480MOL0     C64674   3.862   6.885   5.004 -0.5971  0.6527  0.2092
  480MOL0     C64675   3.983   6.925   4.927 -0.0908  0.2204 -0.0365
  480MOL0     C64676   3.948   6.993   4.793 -0.2836  0.4998  0.3384
  480MOL0     C64677   4.076   7.050   4.727  1.0165 -0.1292 -0.2162
  480MOL0     C64678   4.128   7.184   4.782  0.3451 -0.7584  0.4488
  480MOL0     C64679   4.253   7.226   4.713 -0.6205 -0.1790 -0.0915
  480MOL0     C64680   4.310   7.356   4.785 -0.0763 -0.5866 -0.0797
  480MOL0     C64681   4.449   7.396   4.725 -0.0113  0.3482  0.2735
  480MOL0     N64682   4.551   7.294   4.760  0.5873 -0.6018  0.1608
  480MOL0     C64683   4.645   7.308   4.870  0.1925  0.1772 -0.2936
  480MOL0     C64684   4.737   7.209   4.848 -0.4317 -0.8377  0.4496
  480MOL0     C64685   4.864   7.173   4.936  0.7778  0.3612 -0.0532
  480MOL0     C64686   4.953   7.301   4.931 -0.5284  0.5721  0.3940
  480MOL0     C64687   5.084   7.294   5.008 -0.3874 -0.7587 -0.0316
  480MOL0     C64688   5.078   7.272   5.161 -0.0819 -0.0512 -0.4184
  480MOL0     O64689   5.026   7.145   5.209 -0.5555 -0.7610  1.4228
  480MOL0     C64690   5.127   7.051   5.202  0.4641  0.1431  0.2641
  480MOL0     C64691   5.131   6.961   5.101  0.3230  0.6653  0.1161
  480MOL0     C64692   5.243   6.873   5.092  1.1784  0.0466  0.3760
  480MOL0     C64693   5.343   6.872   5.190  0.0472  0.6984  0.1759
  480MOL0     C64694   5.460   6.781   5.191 -0.8655  0.5181  0.5921
  480MOL0     O64695   5.525   6.759   5.303 -0.1728  1.0383 -1.1288
  480MOL0     C64696   5.609   6.653   5.323  0.9120 -0.8472  0.1796
  480MOL0     C64697   5.744   6.677   5.362  0.0726 -0.1748  0.1425
  480MOL0     C64698   5.820   6.563   5.378 -0.5176 -0.3554  0.1558
  480MOL0     C64699   5.779   6.431   5.352  0.5922  1.0096 -0.1889
  480MOL0     O64700   5.860   6.324   5.366  0.3364  0.4921 -0.1568
  480MOL0     C64701   5.969   6.325   5.455  0.3716 -0.2072  0.3178
  480MOL0     C64702   6.028   6.182   5.446 -0.6309  0.0893 -0.2802
  480MOL0     C64703   5.936   6.071   5.509 -0.1532 -0.1605  0.0232
  480MOL0     C64704   6.015   5.956   5.563 -0.2152  0.8171 -0.2823
  480MOL0     C64705   5.938   5.856   5.636  0.0931  0.1547 -0.9210
  480MOL0     C64706   6.024   5.749   5.695 -0.6769 -0.1516 -0.0862
  480MOL0     C64707   5.944   5.639   5.758  0.2895  0.9303 -0.5837
  480MOL0     C64708   5.964   5.640   5.909 -0.5762  0.0114 -1.1371
  480MOL0    Cl64709   5.896   5.485   5.968  0.0703 -0.4502  0.0691
  480MOL0     C64710   5.641   6.412   5.336  0.1252  0.2238  0.9464
  480MOL0     C64711   5.565   6.529   5.318  0.3735  0.4600 -0.1804
  480MOL0     O64712   5.477   6.722   5.087 -0.1516 -0.3382 -0.1847
  480MOL0     C64713   5.318   6.949   5.302 -0.0113 -0.5903  0.0283
  480MOL0     C64714   5.214   7.042   5.303 -0.0593  0.1021 -1.0056
  480MOL0     N64715   4.697   7.147   4.736 -0.5455  0.1877 -0.5553
  480MOL0     N64716   4.586   7.197   4.675 -0.4791 -0.7587  0.1238
  480MOL0     C64717   4.037   6.637   5.037  0.2195 -0.3508 -0.4100
  480MOL0     C64718   4.122   6.534   5.057 -0.1671 -0.1774 -0.2203
  480MOL0     C64719   4.432   6.263   5.316 -1.1361  0.3438 -0.0335
  480MOL0     C64720   4.525   6.266   5.427  0.4868  0.7764 -0.5074
  480MOL0     C64721   4.640   6.186   5.436 -1.9476  0.9259  0.3625
  480MOL0     C64722   4.671   6.107   5.327 -1.3347  0.2804  0.6725
  480MOL0     O64723   4.792   6.033   5.326 -0.6259 -0.0155 -0.0493
  480MOL0     C64724   4.884   6.052   5.430 -0.0939  0.2059 -0.4284
  480MOL0     C64725   5.015   5.977   5.393  0.2779 -0.1987 -0.1305
  480MOL0     C64726   4.977   5.827   5.423 -1.7293 -1.2864  1.1940
  480MOL0     C64727   5.100   5.738   5.419 -0.3539  0.4903 -0.0322
  480MOL0     C64728   5.075   5.604   5.460 -0.6896 -0.0998  0.2558
  480MOL0     C64729   5.060   5.498   5.515  0.7260  0.3319 -0.0206
  480MOL0     C64730   4.586   6.103   5.219  0.1037  0.5115 -0.6941
  480MOL0     C64731   4.469   6.178   5.212  0.0306 -0.9317 -0.1802
  480MOL0     C64732   4.365   6.139   5.104 -0.4895 -0.0549 -0.4671
  480MOL0     H64733   4.237   6.632   5.363 -1.3449 -2.9840  1.9447
  480MOL0     H64734   4.068   6.823   5.317 -3.8996 -1.1127  0.2521
  480MOL0     H64735   3.806   6.805   4.954  0.4090  1.1178 -1.7519
  480MOL0     H64736   3.817   6.982   5.024  1.7567  1.3008  3.3146
  480MOL0     H64737   4.040   6.836   4.900  1.3540  1.7270 -2.2910
  480MOL0     H64738   4.048   6.993   4.983  0.4080 -0.0725 -0.2612
  480MOL0     H64739   3.870   7.069   4.804  0.4559  1.2778  0.3170
  480MOL0     H64740   3.916   6.911   4.728 -0.5647  1.6704 -1.0674
  480MOL0     H64741   4.163   6.985   4.739  1.5625 -0.2553 -3.7445
  480MOL0     H64742   4.054   7.051   4.620 -2.8598 -1.6327  0.3823
  480MOL0     H64743   4.058   7.268   4.774 -0.2658 -1.1366  1.6155
  480MOL0     H64744   4.147   7.160   4.887 -1.1270  0.1002  0.9512
  480MOL0     H64745   4.325   7.144   4.722 -2.1066 -1.4077  1.3322
  480MOL0     H64746   4.226   7.235   4.608  1.5574 -0.8176 -0.7625
  480MOL0     H64747   4.313   7.330   4.891 -3.1842 -0.1503  0.2168
  480MOL0     H64748   4.237   7.437   4.774  0.6792  0.2438  0.9181
  480MOL0     H64749   4.440   7.403   4.616 -1.2997  1.5422  0.4326
  480MOL0     H64750   4.475   7.496   4.762  1.5363  0.0977 -0.0379
  480MOL0     H64751   4.651   7.376   4.954 -1.5116 -1.0779  0.9124
  480MOL0     H64752   4.823   7.141   5.032 -1.5334 -0.3733 -1.2275
  480MOL0     H64753   4.918   7.090   4.889  1.2104  1.5161 -1.7009
  480MOL0     H64754   4.983   7.334   4.831 -0.1221  2.4225  1.0905
  480MOL0     H64755   4.900   7.387   4.974 -0.3183  0.9466 -0.0812
  480MOL0     H64756   5.134   7.390   4.993  0.2484 -0.9194  0.9720
  480MOL0     H64757   5.146   7.225   4.951 -1.9817 -0.7250 -1.9209
  480MOL0     H64758   5.013   7.344   5.212 -2.0424 -1.6995 -0.4497
  480MOL0     H64759   5.179   7.288   5.200 -0.8153  1.0877  1.1105
  480MOL0     H64760   5.061   6.968   5.019  1.7931  2.3235 -1.0753
  480MOL0     H64761   5.228   6.814   5.002 -2.0610  1.0163  0.1645
  480MOL0     H64762   5.772   6.781   5.380 -2.0472  0.1542  1.8105
  480MOL0     H64763   5.921   6.583   5.413 -1.0065  1.8905  0.4231
  480MOL0     H64764   6.047   6.396   5.427  0.6343 -0.7222 -0.2842
  480MOL0     H64765   5.930   6.349   5.554 -0.4518 -1.0123  0.1950
  480MOL0     H64766   6.050   6.162   5.341 -3.5868  1.7187 -1.3444
  480MOL0     H64767   6.120   6.179   5.504 -2.9535  0.2963  3.8354
  480MOL0     H64768   5.864   6.107   5.584 -2.0330 -2.2211 -0.6689
  480MOL0     H64769   5.859   6.031   5.442  1.2476 -0.4687 -1.4394
  480MOL0     H64770   6.098   5.985   5.628  0.7593 -1.9208 -0.1831
  480MOL0     H64771   6.064   5.913   5.475 -2.4583 -0.2487 -1.0949
  480MOL0     H64772   5.864   5.814   5.567  0.1477 -0.4953 -0.5872
  480MOL0     H64773   5.875   5.900   5.715 -0.2114 -0.9661 -0.5230
  480MOL0     H64774   6.079   5.696   5.616 -0.8910 -2.0867  1.0031
  480MOL0     H64775   6.095   5.783   5.772 -2.1888  1.2424  0.7660
  480MOL0     H64776   5.969   5.540   5.719 -1.4654 -0.8875  2.4972
  480MOL0     H64777   5.839   5.662   5.735 -0.7871  0.7116  3.3470
  480MOL0     H64778   6.065   5.643   5.952 -1.3766 -1.1536  0.9720
  480MOL0     H64779   5.915   5.733   5.940  3.4488  2.8649 -2.4864
  480MOL0     H64780   5.586   6.318   5.337  0.0378  0.2704  0.5255
  480MOL0     H64781   5.458   6.511   5.308  0.1889  0.5920  1.2904
  480MOL0     H64782   5.380   6.952   5.391  1.1623 -2.2110 -0.6723
  480MOL0     H64783   5.182   7.089   5.395  0.7722 -0.9916 -0.1273
  480MOL0     H64784   3.983   6.636   4.943  1.4673  1.4782 -1.1919
  480MOL0     H64785   4.129   6.450   4.989  2.9153 -0.9065  0.8445
  480MOL0     H64786   4.514   6.330   5.514  3.1332  0.1964  0.3308
  480MOL0     H64787   4.703   6.190   5.524  0.5687 -2.0425 -1.1182
  480MOL0     H64788   4.852   6.006   5.523  0.5092 -1.0679 -0.8315
  480MOL0     H64789   4.908   6.158   5.445  0.3317 -0.1969  2.2567
  480MOL0     H64790   5.113   5.995   5.437  1.3065  0.2959 -2.4597
  480MOL0     H64791   5.033   5.987   5.286  0.3345 -1.0864 -0.2119
  480MOL0     H64792   4.909   5.792   5.346 -2.5712  0.5100  1.0986
  480MOL0     H64793   4.922   5.815   5.517 -2.6195  2.4650  1.3038
  480MOL0     H64794   5.161   5.741   5.327 -0.1487 -0.7912  0.0466
  480MOL0     H64795   5.166   5.790   5.489 -0.9300  0.7146  0.3458
  480MOL0     H64796   5.040   5.407   5.568  0.5617  1.1390  1.3545
  480MOL0     H64797   4.609   6.030   5.142  0.0519  1.6187 -1.7958
  480MOL0     H64798   4.277   6.156   5.166 -1.0592 -0.6277 -1.1148
  480MOL0     H64799   4.372   6.207   5.018  1.6746  1.3815  0.7248
  480MOL0     H64800   4.368   6.035   5.069 -3.4445 -0.6229  0.7037
  481MOL0     O64801   0.380  11.496   7.164  0.2654  0.2453  0.6587
  481MOL0     C64802   0.363  11.394   7.234  1.0099  0.4327  1.0437
  481MOL0     O64803   0.243  11.332   7.252 -0.0708 -0.0013 -1.1614
  481MOL0     C64804   0.137  11.412   7.234 -0.4743  0.1497 -0.4034
  481MOL0     C64805   0.025  11.387   7.148  0.2809  0.0672  0.2749
  481MOL0     C64806  -0.093  11.455   7.158  1.0013 -0.6995 -0.9547
  481MOL0     C64807  -0.115  11.549   7.259 -1.3736  0.8437  0.1442
  481MOL0     O64808  -0.239  11.594   7.280  0.6548 -0.0106 -1.1718
  481MOL0     C64809  -0.301  11.547   7.394 -0.1616 -0.6495  0.0891
  481MOL0     C64810  -0.326  11.396   7.387  0.1352 -1.0780  0.0167
  481MOL0     C64811  -0.461  11.372   7.304 -0.3165 -0.7318 -0.3545
  481MOL0     C64812  -0.500  11.226   7.252  0.6304  0.1070 -0.0487
  481MOL0     C64813  -0.604  11.165   7.347 -0.0582  0.4319  0.0335
  481MOL0     C64814  -0.613  11.016   7.310 -0.5999  0.5310 -0.1361
  481MOL0     C64815  -0.723  10.936   7.372 -0.3845 -0.1454 -0.4325
  481MOL0     C64816  -0.731  10.936   7.526  0.3908  0.0085 -0.3250
  481MOL0     N64817  -0.615  10.877   7.600 -0.5159 -0.3165  1.0372
  481MOL0     C64818  -0.599  10.743   7.601  0.3276  1.5385 -0.1106
  481MOL0     C64819  -0.482  10.708   7.639 -0.3034 -0.5382  0.6342
  481MOL0     C64820  -0.432  10.577   7.685 -0.1738  0.1603 -0.1814
  481MOL0     C64821  -0.545  10.469   7.659 -0.4604  0.1290 -0.4691
  481MOL0     C64822  -0.499  10.330   7.703 -0.2226 -1.0363 -0.0638
  481MOL0     C64823  -0.431  10.324   7.838 -0.2905  0.0843 -0.0238
  481MOL0     O64824  -0.389  10.185   7.855  0.3858  0.1069  0.0829
  481MOL0     C64825  -0.366  10.148   7.988 -0.2108 -1.2866 -0.2158
  481MOL0     C64826  -0.429  10.037   8.040 -0.0288 -0.5127 -1.0571
  481MOL0     C64827  -0.417  10.001   8.177  0.8484 -0.9717 -0.2834
  481MOL0     C64828  -0.370  10.091   8.267 -0.1880 -1.1808 -0.0541
  481MOL0     C64829  -0.367  10.063   8.411 -0.0159  0.6519  0.0852
  481MOL0     O64830  -0.460   9.973   8.451 -0.6816  0.1410 -1.6014
  481MOL0     C64831  -0.460   9.938   8.584  1.2031 -0.2398 -0.1733
  481MOL0     C64832  -0.375   9.841   8.620  0.0705  0.3522  0.0188
  481MOL0     C64833  -0.387   9.782   8.749  0.3164  0.6350  0.1581
  481MOL0     C64834  -0.484   9.825   8.846 -0.0751 -0.5518 -0.2302
  481MOL0     O64835  -0.489   9.761   8.971 -0.6382 -0.0527  0.5151
  481MOL0     C64836  -0.609   9.757   9.037 -0.3022  0.7196 -0.3510
  481MOL0     C64837  -0.593   9.662   9.170 -0.9098 -0.6962  0.7508
  481MOL0     C64838  -0.507   9.728   9.284  0.0964 -0.0625  1.5986
  481MOL0     C64839  -0.570   9.849   9.347  0.3666  1.3349  0.0608
  481MOL0     C64840  -0.464   9.924   9.434  0.0188 -0.0868  0.8315
  481MOL0     C64841  -0.541  10.041   9.491  0.2454  0.3069 -0.7699
  481MOL0     C64842  -0.467  10.139   9.582 -0.4364  0.8649  0.3911
  481MOL0     C64843  -0.388  10.235   9.482  0.0617 -0.2810 -1.1850
  481MOL0    Cl64844  -0.254  10.295   9.581  0.0871  0.2340 -0.0283
  481MOL0     C64845  -0.576   9.919   8.805 -0.6265  0.9262 -0.7952
  481MOL0     C64846  -0.560   9.976   8.674  0.6619 -0.1614  0.5886
  481MOL0     O64847  -0.288  10.122   8.484  0.0229 -0.1342  0.2281
  481MOL0     C64848  -0.299  10.202   8.217  0.1862  0.4505  0.8282
  481MOL0     C64849  -0.291  10.230   8.073  0.2532 -0.1752  0.2001
  481MOL0     N64850  -0.415  10.840   7.635  0.2713 -0.1515 -0.7873
  481MOL0     N64851  -0.499  10.933   7.619 -0.6040  0.1609 -0.6497
  481MOL0     C64852   0.000  11.580   7.334 -0.1005  0.1881 -0.1549
  481MOL0     C64853   0.126  11.519   7.319  0.5729  0.2410  0.1307
  481MOL0     C64854   0.478  11.323   7.286 -0.3916 -0.4058 -0.6147
  481MOL0     C64855   0.479  11.182   7.313  0.0556  0.2797  0.6919
  481MOL0     C64856   0.579  11.109   7.368 -0.5323  0.2225  0.5199
  481MOL0     C64857   0.707  11.180   7.392  0.9619  0.7612 -0.9284
  481MOL0     O64858   0.814  11.114   7.442 -0.1585 -1.2214  0.7120
  481MOL0     C64859   0.837  10.989   7.387  0.3918  0.7227 -0.2694
  481MOL0     C64860   0.783  10.865   7.469  0.1095  0.5139 -0.5345
  481MOL0     C64861   0.880  10.819   7.585  0.2156 -0.8329  0.1809
  481MOL0     C64862   0.834  10.698   7.670  0.0170 -0.9357  0.2141
  481MOL0     C64863   0.711  10.707   7.737  0.3353 -0.0193 -0.1392
  481MOL0     C64864   0.599  10.703   7.787 -0.3063  0.4996  0.1301
  481MOL0     C64865   0.707  11.324   7.380 -0.2441  0.3328  0.4151
  481MOL0     C64866   0.601  11.394   7.327 -0.0618  0.1237 -0.2453
  481MOL0     C64867   0.621  11.547   7.328 -0.2049 -0.0255 -1.1647
  481MOL0     H64868   0.026  11.303   7.078  2.4245  1.4543 -1.4872
  481MOL0     H64869  -0.179  11.429   7.098  0.2900  3.9943 -2.3882
  481MOL0     H64870  -0.246  11.591   7.477  2.2083 -0.5887 -1.4223
  481MOL0     H64871  -0.398  11.597   7.384 -0.7249 -2.1364 -4.0008
  481MOL0     H64872  -0.340  11.357   7.488 -0.3194 -1.1526 -0.0714
  481MOL0     H64873  -0.242  11.335   7.351  2.6336  0.9031  2.1131
  481MOL0     H64874  -0.467  11.428   7.210  0.0778  0.6703  0.4290
  481MOL0     H64875  -0.544  11.400   7.369  0.0102  0.1388 -0.3039
  481MOL0     H64876  -0.533  11.223   7.147  0.9847 -2.0756 -0.1489
  481MOL0     H64877  -0.407  11.169   7.248  3.9233  4.8622 -0.7336
  481MOL0     H64878  -0.567  11.172   7.450  1.1826 -1.5500 -0.2230
  481MOL0     H64879  -0.700  11.216   7.337 -0.4174  0.7870  3.8568
  481MOL0     H64880  -0.634  11.018   7.203  1.6286  0.4060 -0.6145
  481MOL0     H64881  -0.518  10.962   7.316 -0.1828  1.3711  1.3921
  481MOL0     H64882  -0.709  10.832   7.340 -1.7700 -0.7270  0.6845
  481MOL0     H64883  -0.824  10.956   7.334 -0.4509 -2.4376 -1.6544
  481MOL0     H64884  -0.745  11.041   7.555 -1.4125 -0.5131  0.8920
  481MOL0     H64885  -0.823  10.882   7.551  1.7548 -0.2532  5.5627
  481MOL0     H64886  -0.684  10.676   7.598  1.1794  0.4542 -2.0997
  481MOL0     H64887  -0.345  10.547   7.626  0.6974  2.5919 -0.2512
  481MOL0     H64888  -0.401  10.587   7.790 -3.0068 -2.8803  1.1266
  481MOL0     H64889  -0.631  10.493   7.723  0.3739  3.1730 -0.3191
  481MOL0     H64890  -0.581  10.471   7.556 -0.6496  1.4091 -0.3961
  481MOL0     H64891  -0.422  10.297   7.632  1.0367  1.2440  0.1379
  481MOL0     H64892  -0.584  10.264   7.686 -0.0073 -1.0226 -1.2940
  481MOL0     H64893  -0.497  10.363   7.915 -1.7114 -1.3663 -0.4446
  481MOL0     H64894  -0.339  10.383   7.828  0.3506 -0.5412  1.8499
  481MOL0     H64895  -0.477   9.980   7.961 -2.4813  1.5640 -1.1839
  481MOL0     H64896  -0.454   9.902   8.202  0.4680 -0.8144 -0.2291
  481MOL0     H64897  -0.293   9.810   8.556  2.8295  2.7406  2.1018
  481MOL0     H64898  -0.312   9.712   8.782 -1.0724 -0.0401  2.0611
  481MOL0     H64899  -0.631   9.856   9.078 -1.8685 -1.3799  4.7656
  481MOL0     H64900  -0.693   9.709   8.985  1.0621 -3.2016  0.6813
  481MOL0     H64901  -0.686   9.623   9.212 -0.6578  1.1451  3.2533
  481MOL0     H64902  -0.543   9.569   9.142  0.0552 -0.7020  2.3493
  481MOL0     H64903  -0.490   9.651   9.359  1.5935  0.2258  1.5910
  481MOL0     H64904  -0.414   9.738   9.227 -1.2194 -0.3661 -0.7643
  481MOL0     H64905  -0.653   9.810   9.407  3.4032  0.7004  4.2826
  481MOL0     H64906  -0.608   9.910   9.264  2.4419  0.4290 -1.6476
  481MOL0     H64907  -0.370   9.952   9.386  0.5591 -2.5301  0.3285
  481MOL0     H64908  -0.428   9.856   9.511 -1.3905  3.0907  4.5933
  481MOL0     H64909  -0.572  10.106   9.408 -2.7514  0.0107  0.0190
  481MOL0     H64910  -0.625  10.000   9.546  3.0169  1.5983  5.2422
  481MOL0     H64911  -0.390  10.079   9.632 -0.8405 -0.5000 -0.5576
  481MOL0     H64912  -0.531  10.197   9.648 -3.2154  0.9490 -2.1623
  481MOL0     H64913  -0.351  10.186   9.392  0.4005  0.2026 -1.3176
  481MOL0     H64914  -0.448  10.312   9.433  0.1260 -1.5659 -3.4057
  481MOL0     H64915  -0.655   9.955   8.870 -1.0354  0.6407 -1.1277
  481MOL0     H64916  -0.641  10.043   8.647  1.1176 -0.5160 -1.8914
  481MOL0     H64917  -0.239  10.265   8.282  0.8650  1.7589 -0.9673
  481MOL0     H64918  -0.234  10.311   8.029 -1.0238  1.1785  0.9175
  481MOL0     H64919   0.001  11.671   7.394  0.4800  1.1363 -1.5260
  481MOL0     H64920   0.210  11.550   7.381 -0.2379  1.8061  0.4986
  481MOL0     H64921   0.385  11.136   7.285 -1.0800  2.3559  0.8940
  481MOL0     H64922   0.566  11.002   7.386  2.2241 -0.4763 -0.9763
  481MOL0     H64923   0.945  10.969   7.383  0.5152  1.0069  1.2116
  481MOL0     H64924   0.791  10.975   7.288 -1.5542 -0.3854  0.7329
  481MOL0     H64925   0.779  10.769   7.416  1.0181 -0.0614  0.4120
  481MOL0     H64926   0.693  10.895   7.524  1.7374 -1.7617  3.8471
  481MOL0     H64927   0.883  10.902   7.656 -2.8226  0.4767 -1.0363
  481MOL0     H64928   0.977  10.803   7.538  0.9571  0.7485  1.1043
  481MOL0     H64929   0.834  10.611   7.604  0.1175 -0.8950  0.1606
  481MOL0     H64930   0.912  10.688   7.747 -1.0454 -1.4226  1.2617
  481MOL0     H64931   0.496  10.696   7.818 -0.1536  1.5144  0.9213
  481MOL0     H64932   0.804  11.365   7.404  0.0007 -1.7321  3.5196
  481MOL0     H64933   0.533  11.608   7.306  0.8306  1.5672 -1.0473
  481MOL0     H64934   0.648  11.594   7.423 -3.3344  0.8626 -0.6236
  481MOL0     H64935   0.699  11.584   7.261  0.8502  1.2654  0.6795
  482MOL0     O64936   8.233   3.191   1.932 -0.1830  0.0643 -0.5067
  482MOL0     C64937   8.167   3.184   1.829  0.9087 -0.1714 -0.1499
  482MOL0     O64938   8.053   3.108   1.814  0.4040 -0.3262 -0.8125
  482MOL0     C64939   8.051   2.981   1.862 -1.1649  1.4504  0.1956
  482MOL0     C64940   7.931   2.933   1.915  0.3210  0.2464 -0.5574
  482MOL0     C64941   7.919   2.805   1.964 -0.1995 -0.7191  0.4754
  482MOL0     C64942   8.022   2.704   1.952  0.1132 -0.2583  0.8364
  482MOL0     O64943   7.991   2.586   2.015  0.4783 -0.4660 -0.4473
  482MOL0     C64944   8.084   2.483   2.035 -0.3558  1.0699 -0.0192
  482MOL0     C64945   8.166   2.486   2.162 -0.0817 -1.2622 -0.5654
  482MOL0     C64946   8.246   2.355   2.177  0.0380  0.0355  0.0221
  482MOL0     C64947   8.371   2.373   2.250 -1.2862  0.1459  0.1707
  482MOL0     C64948   8.415   2.232   2.307  0.9337  0.4912 -0.6369
  482MOL0     C64949   8.568   2.216   2.314  0.7453 -0.1372  0.0113
  482MOL0     C64950   8.608   2.085   2.393  0.7995  0.4499  0.7366
  482MOL0     C64951   8.608   1.954   2.308  0.5968 -1.1912 -0.2610
  482MOL0     N64952   8.694   1.961   2.191 -0.3881 -0.6610 -0.5717
  482MOL0     C64953   8.830   1.951   2.184 -0.2226 -0.3029  1.1134
  482MOL0     C64954   8.856   1.969   2.050  0.5816  0.9856  0.4154
  482MOL0     C64955   8.981   1.968   1.975  0.2331  0.9290  0.2681
  482MOL0     C64956   9.090   2.031   2.066 -0.7959  0.0442  0.8463
  482MOL0     C64957   9.213   2.048   1.983  0.5350  0.7833  0.9455
  482MOL0     C64958   9.332   2.125   2.050 -0.0531 -0.0733 -0.5838
  482MOL0     O64959   9.401   2.029   2.139 -0.9744  0.7909 -0.5318
  482MOL0     C64960   9.508   2.089   2.207 -0.4284  0.1756  0.7034
  482MOL0     C64961   9.492   2.204   2.286 -0.1525 -0.5001  0.4464
  482MOL0     C64962   9.599   2.251   2.354 -0.1677 -0.1064 -0.2379
  482MOL0     C64963   9.727   2.188   2.354  0.3474  0.9186 -0.1387
  482MOL0     C64964   9.841   2.230   2.434 -0.3693 -0.7675 -0.7128
  482MOL0     O64965   9.821   2.349   2.499  0.2558  0.7481 -0.0395
  482MOL0     C64966   9.930   2.400   2.566  0.2256  0.3717  0.2800
  482MOL0     C64967   9.914   2.386   2.706  0.1687 -0.4502  0.6074
  482MOL0     C64968  10.012   2.437   2.789  0.7027  0.2310  0.3041
  482MOL0     C64969  10.123   2.502   2.741 -0.7388  0.0720 -0.9677
  482MOL0     O64970  10.200   2.567   2.839  0.1782  0.1980  0.7219
  482MOL0     C64971  10.332   2.606   2.816 -0.5388 -0.3667  1.1069
  482MOL0     C64972  10.311   2.758   2.791  0.2344  0.1228  0.5069
  482MOL0     C64973  10.273   2.828   2.920 -0.8398 -0.4702 -0.2315
  482MOL0     C64974  10.319   2.977   2.935  0.3348  1.0410 -1.2544
  482MOL0     C64975  10.306   3.029   3.092 -0.3420  0.9044 -0.2073
  482MOL0     C64976  10.161   3.058   3.137  0.1158  0.5602 -1.0086
  482MOL0     C64977  10.142   3.065   3.289  0.3711 -0.5158  0.3432
  482MOL0     C64978  10.060   3.195   3.321 -0.7666 -0.5857 -0.5062
  482MOL0    Cl64979   9.893   3.185   3.250  0.2334  0.2923  0.4760
  482MOL0     C64980  10.141   2.518   2.596 -0.8555 -0.0878 -0.2071
  482MOL0     C64981  10.042   2.456   2.515 -0.4668 -0.0710 -0.1051
  482MOL0     O64982   9.946   2.164   2.424 -0.5576  0.1345  0.0009
  482MOL0     C64983   9.737   2.072   2.280  1.0149  0.1956 -0.3755
  482MOL0     C64984   9.629   2.022   2.206  1.2039 -0.6578  0.2692
  482MOL0     N64985   8.735   1.975   1.988  0.3705 -0.2482  0.0031
  482MOL0     N64986   8.636   1.976   2.073  0.1706  0.1543  0.1689
  482MOL0     C64987   8.147   2.749   1.902 -0.7998  0.6583  0.1762
  482MOL0     C64988   8.156   2.882   1.849 -0.1673 -0.6369 -0.5175
  482MOL0     C64989   8.194   3.275   1.710  0.0028 -1.1264  0.2668
  482MOL0     C64990   8.129   3.243   1.585 -0.2424 -0.2494 -0.9559
  482MOL0     C64991   8.155   3.310   1.466  0.0996 -0.4576  0.1648
  482MOL0     C64992   8.237   3.417   1.458 -0.0668  0.2998  0.4874
  482MOL0     O64993   8.262   3.473   1.341 -0.5610 -0.1708  1.0505
  482MOL0     C64994   8.338   3.597   1.342  0.7638  0.1150  0.0775
  482MOL0     C64995   8.481   3.573   1.318 -0.1337 -1.7488 -0.2495
  482MOL0     C64996   8.519   3.515   1.185  0.3974 -0.1879 -0.3039
  482MOL0     C64997   8.661   3.480   1.180 -1.3107  0.3372 -0.2915
  482MOL0     C64998   8.741   3.610   1.199  0.7475  0.2235  0.5326
  482MOL0     C64999   8.800   3.717   1.202  0.0902  0.1470  0.3261
  482MOL0     C65000   8.310   3.444   1.576 -0.5226  0.3502 -0.1804
  482MOL0     C65001   8.280   3.386   1.696 -1.1659 -0.1952 -0.9080
  482MOL0     C65002   8.354   3.436   1.819  0.2596 -0.2145  0.7782
  482MOL0     H65003   7.845   2.999   1.921  0.8941  1.1897 -2.0521
  482MOL0     H65004   7.821   2.772   1.996 -0.6503 -2.1830 -2.1229
  482MOL0     H65005   8.029   2.390   2.019  0.3587  0.8507 -1.3303
  482MOL0     H65006   8.158   2.473   1.955  0.1985  1.0208  0.4875
  482MOL0     H65007   8.105   2.504   2.250  1.5413  0.2760  0.3172
  482MOL0     H65008   8.226   2.576   2.144 -0.2173 -0.8989  0.6981
  482MOL0     H65009   8.272   2.319   2.077 -2.2472  1.0326 -1.0194
  482MOL0     H65010   8.183   2.283   2.230 -3.5259  2.2506 -0.8226
  482MOL0     H65011   8.440   2.416   2.176 -2.8858 -2.5795 -3.2028
  482MOL0     H65012   8.358   2.453   2.322 -0.0986 -0.7838  1.4747
  482MOL0     H65013   8.354   2.217   2.397  1.3932  1.5320 -0.1351
  482MOL0     H65014   8.385   2.156   2.234 -0.4781 -0.6717  1.0764
  482MOL0     H65015   8.609   2.208   2.213 -0.6551 -0.9894 -0.5320
  482MOL0     H65016   8.617   2.299   2.365  2.6776 -0.4573 -1.2316
  482MOL0     H65017   8.533   2.074   2.472  1.9321 -1.1727  1.6508
  482MOL0     H65018   8.704   2.095   2.444  0.3215  1.8684  1.3953
  482MOL0     H65019   8.638   1.861   2.358  2.0900 -1.4093 -1.4678
  482MOL0     H65020   8.505   1.937   2.275 -0.4692 -0.7027  2.5463
  482MOL0     H65021   8.897   1.929   2.267 -1.1392 -0.6344  1.7812
  482MOL0     H65022   9.012   1.865   1.956 -0.0299  1.1344 -1.3957
  482MOL0     H65023   8.967   2.008   1.874  0.9029 -0.6551 -0.4812
  482MOL0     H65024   9.049   2.125   2.103 -0.1888 -0.0593  1.8069
  482MOL0     H65025   9.109   1.977   2.159 -1.0918  0.9916  1.4667
  482MOL0     H65026   9.189   2.096   1.888 -0.6758 -0.9754  0.3155
  482MOL0     H65027   9.245   1.949   1.951 -0.8365  0.7710 -0.4925
  482MOL0     H65028   9.299   2.219   2.094  2.0417  1.4269 -2.0165
  482MOL0     H65029   9.401   2.173   1.981  1.4050  0.0039  0.8734
  482MOL0     H65030   9.395   2.252   2.290  0.4137  0.5607  2.4981
  482MOL0     H65031   9.597   2.335   2.422  2.7492 -0.2439  0.1279
  482MOL0     H65032   9.822   2.338   2.739 -0.8647  0.9685 -0.1095
  482MOL0     H65033  10.006   2.441   2.897  3.6038  0.6898  0.5393
  482MOL0     H65034  10.400   2.601   2.901  0.1582 -2.7159  0.4807
  482MOL0     H65035  10.386   2.559   2.733  0.6759  3.0542 -0.2349
  482MOL0     H65036  10.401   2.805   2.750  1.1054 -0.3533  1.8494
  482MOL0     H65037  10.226   2.780   2.725 -0.8705  0.2666  1.9241
  482MOL0     H65038  10.167   2.826   2.947 -1.1193  4.1980 -0.0556
  482MOL0     H65039  10.315   2.769   3.001 -0.3943 -1.6043 -1.2550
  482MOL0     H65040  10.243   3.031   2.878 -2.9460  0.7884  2.4203
  482MOL0     H65041  10.422   2.979   2.901  1.3328 -2.5150  0.9635
  482MOL0     H65042  10.372   3.111   3.122  1.6940 -0.9167  0.5671
  482MOL0     H65043  10.355   2.950   3.150 -0.3383 -0.3935 -1.8898
  482MOL0     H65044  10.132   3.151   3.088  0.5127  0.1038 -2.1692
  482MOL0     H65045  10.089   2.982   3.106 -2.3426  1.8631  1.1417
  482MOL0     H65046  10.241   3.064   3.335 -0.2329  0.4929  1.7165
  482MOL0     H65047  10.080   2.988   3.336 -0.9593 -0.0435 -0.5843
  482MOL0     H65048  10.055   3.193   3.430 -0.4435  0.6113 -0.4521
  482MOL0     H65049  10.097   3.291   3.284  0.7376  0.1932  2.6688
  482MOL0     H65050  10.212   2.589   2.554 -0.2803 -1.3044 -1.3744
  482MOL0     H65051  10.058   2.469   2.409  3.2543  1.0190  0.4278
  482MOL0     H65052   9.826   2.010   2.285  1.2333  0.2027 -2.8280
  482MOL0     H65053   9.627   1.931   2.147  0.1322 -0.4681 -0.0046
  482MOL0     H65054   8.228   2.677   1.896 -2.5407 -1.3389 -0.4584
  482MOL0     H65055   8.251   2.925   1.817 -1.1669  2.6599  0.4899
  482MOL0     H65056   8.061   3.159   1.585  1.2285 -1.5023  0.0999
  482MOL0     H65057   8.105   3.270   1.378  1.2803 -0.0623 -0.7098
  482MOL0     H65058   8.330   3.661   1.430  2.3974  2.4621 -1.3832
  482MOL0     H65059   8.289   3.651   1.260 -2.0641  0.0380  1.5578
  482MOL0     H65060   8.522   3.506   1.394  3.9052 -0.0704 -0.6561
  482MOL0     H65061   8.524   3.671   1.343 -3.8453 -0.6353  2.7701
  482MOL0     H65062   8.510   3.595   1.110 -1.7892  1.1392  1.2422
  482MOL0     H65063   8.458   3.427   1.166  1.9279 -0.9254 -2.0805
  482MOL0     H65064   8.691   3.413   1.261 -1.5626 -1.4090 -1.5797
  482MOL0     H65065   8.674   3.440   1.079 -2.8838 -1.0643  0.0192
  482MOL0     H65066   8.859   3.804   1.221  1.2807 -0.7730  1.0098
  482MOL0     H65067   8.396   3.510   1.576 -1.4628  1.7293 -2.5610
  482MOL0     H65068   8.430   3.371   1.862 -2.9042 -3.5326  1.9142
  482MOL0     H65069   8.385   3.537   1.790  0.8093 -1.1021 -2.0797
  482MOL0     H65070   8.283   3.450   1.901  1.8761  0.2637  2.1460
  483MOL0     O65071   7.735   5.281   9.677  0.1989 -0.7421 -0.7424
  483MOL0     C65072   7.843   5.319   9.629  0.6254  0.1331  0.1622
  483MOL0     O65073   7.958   5.257   9.656  0.5700  0.3374 -0.0280
  483MOL0     C65074   7.961   5.156   9.758  0.7462  0.0706  0.0944
  483MOL0     C65075   8.014   5.025   9.737 -0.3491  0.3736  0.4875
  483MOL0     C65076   8.008   4.936   9.842  0.4198  0.7256 -0.0984
  483MOL0     C65077   7.995   4.977   9.976  0.0985  0.1240 -0.0013
  483MOL0     O65078   8.020   4.901  10.079 -0.1874 -0.1405  0.0639
  483MOL0     C65079   8.107   4.793  10.069 -0.0773  0.0195 -0.0845
  483MOL0     C65080   8.136   4.748  10.218  0.0568 -0.7445  0.6481
  483MOL0     C65081   8.179   4.856  10.309  0.0505 -0.2493  0.1240
  483MOL0     C65082   8.286   4.962  10.244  0.1242 -0.1608  0.7342
  483MOL0     C65083   8.353   5.034  10.349  0.1211 -0.6079 -0.1628
  483MOL0     C65084   8.417   5.169  10.296  0.6222 -0.2341  0.4695
  483MOL0     C65085   8.400   5.287  10.391 -0.0366  1.2065  0.1389
  483MOL0     C65086   8.453   5.250  10.524 -0.0454  0.4594 -0.7132
  483MOL0     N65087   8.593   5.203  10.525  0.5245 -0.6477 -0.3380
  483MOL0     C65088   8.700   5.259  10.465  0.7481  0.2623 -0.3094
  483MOL0     C65089   8.803   5.171  10.495  0.0044 -0.9934  0.7598
  483MOL0     C65090   8.955   5.177  10.479  0.2971 -0.4243  0.2341
  483MOL0     C65091   9.011   5.088  10.360 -0.0668 -0.5546  0.2068
  483MOL0     C65092   8.996   5.129  10.212  0.3254 -0.7070 -0.1247
  483MOL0     C65093   8.854   5.129  10.161 -0.1202 -0.0074 -0.3442
  483MOL0     O65094   8.836   5.118  10.019 -1.2460  0.3594 -0.3319
  483MOL0     C65095   8.783   5.230   9.963  0.2640  0.5211 -0.1215
  483MOL0     C65096   8.863   5.290   9.867  0.3805 -0.0470  0.1973
  483MOL0     C65097   8.821   5.403   9.801 -0.7718 -0.2704 -0.1692
  483MOL0     C65098   8.697   5.464   9.822 -0.0604  0.4964 -0.1534
  483MOL0     C65099   8.661   5.588   9.745  0.8084 -0.0169  0.1600
  483MOL0     O65100   8.551   5.665   9.787  0.4815 -0.0069  0.1615
  483MOL0     C65101   8.533   5.781   9.722  0.1483  0.4055  0.4034
  483MOL0     C65102   8.598   5.905   9.752 -0.5463  0.6414 -0.0779
  483MOL0     C65103   8.566   6.022   9.679 -0.0014 -0.1625 -0.4351
  483MOL0     C65104   8.477   6.026   9.576  0.2475  0.4988  0.5894
  483MOL0     O65105   8.461   6.127   9.483  0.4131 -0.0359 -0.6775
  483MOL0     C65106   8.339   6.202   9.506 -0.6812 -0.0622 -0.8002
  483MOL0     C65107   8.332   6.305   9.392  0.3758 -0.1948 -0.3302
  483MOL0     C65108   8.202   6.384   9.398  0.8033 -0.0960 -0.3744
  483MOL0     C65109   8.197   6.500   9.300 -0.6059  0.2532 -0.3132
  483MOL0     C65110   8.085   6.597   9.319  0.1058  0.2704 -0.5803
  483MOL0     C65111   7.950   6.544   9.264  0.0089  1.2349 -0.1784
  483MOL0     C65112   7.933   6.521   9.115 -0.9525  0.2209  0.7007
  483MOL0     C65113   7.976   6.636   9.023  0.5847  0.5213  0.1259
  483MOL0    Cl65114   7.880   6.778   9.056  0.5027  0.1218 -0.0116
  483MOL0     C65115   8.414   5.900   9.540 -0.1925 -0.9603  0.3414
  483MOL0     C65116   8.438   5.789   9.611  0.7185  0.8081 -0.8241
  483MOL0     O65117   8.746   5.621   9.658 -0.0094 -0.1831  0.6193
  483MOL0     C65118   8.616   5.415   9.926  0.4029 -0.2343  0.7979
  483MOL0     C65119   8.663   5.302  10.001 -0.5008  0.1168 -0.0936
  483MOL0     N65120   8.751   5.067  10.566  0.6321  0.8742 -0.5222
  483MOL0     N65121   8.626   5.087  10.589 -0.9738 -0.4551 -0.1265
  483MOL0     C65122   7.942   5.108   9.993  0.5990 -0.3623 -0.3050
  483MOL0     C65123   7.940   5.195   9.888 -0.1360 -0.5127  0.2868
  483MOL0     C65124   7.841   5.442   9.559 -1.5231  0.6159  0.4043
  483MOL0     C65125   7.946   5.526   9.581 -0.1438  0.0862 -0.0246
  483MOL0     C65126   7.966   5.651   9.515  0.0975 -0.0489 -0.4227
  483MOL0     C65127   7.866   5.692   9.430  0.4996 -0.5796  0.0724
  483MOL0     O65128   7.868   5.809   9.354  0.0956  0.3921  1.0285
  483MOL0     C65129   7.899   5.936   9.412 -0.3102 -0.2536  0.2222
  483MOL0     C65130   7.850   6.045   9.309 -0.4609  0.1060 -0.0334
  483MOL0     C65131   7.706   6.029   9.277  1.5214  1.2053 -0.1367
  483MOL0     C65132   7.618   6.050   9.397 -0.5292  0.6193 -0.5329
  483MOL0     C65133   7.633   6.170   9.475 -0.5435 -0.6395  0.0598
  483MOL0     C65134   7.660   6.255   9.559  0.5080 -0.3620 -0.3153
  483MOL0     C65135   7.750   5.615   9.416 -0.4893  0.6637  0.4028
  483MOL0     C65136   7.733   5.491   9.480 -0.4700 -0.1164 -0.3630
  483MOL0     C65137   7.599   5.412   9.448 -0.5625 -0.1723  0.7642
  483MOL0     H65138   8.050   4.989   9.641  0.3328 -0.9253  1.2011
  483MOL0     H65139   8.035   4.832   9.829 -0.9793  0.0954  1.6734
  483MOL0     H65140   8.071   4.714  10.002  1.8929  1.3165 -2.8630
  483MOL0     H65141   8.199   4.829  10.023  0.3605 -3.1424 -1.9914
  483MOL0     H65142   8.206   4.664  10.222 -0.7708 -1.4941 -0.0605
  483MOL0     H65143   8.041   4.706  10.253 -0.5707  1.4138  1.7005
  483MOL0     H65144   8.204   4.812  10.406  1.7350 -2.3610 -1.1730
  483MOL0     H65145   8.094   4.913  10.347  0.0120 -1.4092  1.8967
  483MOL0     H65146   8.369   4.911  10.193  0.2602  1.2307 -0.5092
  483MOL0     H65147   8.232   5.030  10.177  0.6082 -0.8367 -0.3658
  483MOL0     H65148   8.275   5.062  10.420 -0.7923 -0.8920 -1.0355
  483MOL0     H65149   8.420   4.976  10.413  1.6095  1.1683 -0.0194
  483MOL0     H65150   8.522   5.161  10.267  0.7278  2.9869 -0.3993
  483MOL0     H65151   8.358   5.195  10.207  1.1090 -3.1853 -0.8446
  483MOL0     H65152   8.292   5.309  10.390 -0.2440  0.2034 -0.2055
  483MOL0     H65153   8.458   5.367  10.344 -0.4808  1.0266 -0.7379
  483MOL0     H65154   8.451   5.336  10.592  2.2747 -1.6710  2.3061
  483MOL0     H65155   8.375   5.183  10.562 -2.3437  1.3389 -3.5018
  483MOL0     H65156   8.704   5.348  10.402 -3.0604 -0.0476 -1.2720
  483MOL0     H65157   8.985   5.280  10.459  2.6055 -1.3238 -1.4265
  483MOL0     H65158   8.992   5.149  10.579 -1.9107 -0.0931  1.1974
  483MOL0     H65159   9.119   5.079  10.373 -0.1466 -1.4845  0.2816
  483MOL0     H65160   8.968   4.988  10.372 -0.3721 -0.5219 -0.5185
  483MOL0     H65161   9.045   5.057  10.147  0.7103  0.7585 -1.5144
  483MOL0     H65162   9.044   5.227  10.202 -3.3464  1.2581 -0.3197
  483MOL0     H65163   8.811   5.218  10.208 -2.5769 -2.0119  1.4920
  483MOL0     H65164   8.805   5.036  10.193 -1.4260  1.5006  2.3672
  483MOL0     H65165   8.966   5.256   9.857 -0.1751 -1.2858 -1.9574
  483MOL0     H65166   8.891   5.444   9.729 -0.9188  1.1565  0.4700
  483MOL0     H65167   8.671   5.917   9.831 -0.2636 -0.4112 -0.1579
  483MOL0     H65168   8.637   6.099   9.708  0.1874 -0.4998  0.0062
  483MOL0     H65169   8.253   6.134   9.504 -0.4819 -0.6283  2.9338
  483MOL0     H65170   8.345   6.246   9.606  3.0827 -0.6125 -0.6436
  483MOL0     H65171   8.424   6.364   9.384  0.5749 -0.7591 -4.1434
  483MOL0     H65172   8.338   6.256   9.294  0.4390  0.0789 -0.4667
  483MOL0     H65173   8.124   6.310   9.381  1.2511 -0.5493 -0.4877
  483MOL0     H65174   8.197   6.423   9.501 -2.0138 -1.1353 -0.0476
  483MOL0     H65175   8.196   6.456   9.199 -1.4959  0.9982 -0.6379
  483MOL0     H65176   8.295   6.547   9.311  0.7973 -2.8560  2.1920
  483MOL0     H65177   8.105   6.688   9.261 -1.6315 -0.0660 -1.8104
  483MOL0     H65178   8.082   6.626   9.424  0.6590 -0.6838 -0.2974
  483MOL0     H65179   7.927   6.445   9.305  2.4501  0.2362 -1.0583
  483MOL0     H65180   7.874   6.614   9.302  0.0155  0.6552  0.9534
  483MOL0     H65181   7.826   6.512   9.091 -0.5421  0.5230 -1.3516
  483MOL0     H65182   7.990   6.432   9.087  2.9404  1.8525  2.7766
  483MOL0     H65183   8.083   6.660   9.033 -0.0114  3.3506  0.6490
  483MOL0     H65184   7.964   6.595   8.922  0.4587 -2.9697  1.4313
  483MOL0     H65185   8.339   5.898   9.461  0.1111  0.0715 -0.0014
  483MOL0     H65186   8.374   5.704   9.589 -0.3395  1.3510  0.0484
  483MOL0     H65187   8.523   5.463   9.952 -0.7239 -0.0617 -2.8891
  483MOL0     H65188   8.601   5.273  10.085 -1.3453  0.0027 -0.7432
  483MOL0     H65189   7.916   5.159  10.086  1.7036 -1.0779  0.4210
  483MOL0     H65190   7.909   5.296   9.914 -1.2259 -1.4839  3.2345
  483MOL0     H65191   8.038   5.497   9.631  1.4725 -0.1815 -2.8955
  483MOL0     H65192   8.060   5.706   9.521  1.4466 -2.2440 -0.2243
  483MOL0     H65193   8.006   5.942   9.433 -0.1381  3.3668 -1.1466
  483MOL0     H65194   7.855   5.949   9.511  2.3130  0.3435  1.3964
  483MOL0     H65195   7.915   6.028   9.223 -1.0755  0.9327 -0.6785
  483MOL0     H65196   7.857   6.149   9.341 -2.2558  0.2724 -0.0805
  483MOL0     H65197   7.693   5.925   9.243  0.0655  1.8323 -1.6259
  483MOL0     H65198   7.676   6.092   9.193  0.5184 -2.8284 -3.1537
  483MOL0     H65199   7.513   6.033   9.371 -0.2245  0.3586 -1.6531
  483MOL0     H65200   7.638   5.968   9.467  1.5281 -2.3504 -4.2138
  483MOL0     H65201   7.686   6.330   9.631  3.7957  1.3503 -3.0104
  483MOL0     H65202   7.671   5.650   9.351  0.9853 -0.0832 -1.8934
  483MOL0     H65203   7.532   5.411   9.534  0.5045  0.8304  1.6536
  483MOL0     H65204   7.543   5.457   9.366 -0.7538  1.1136  1.5586
  483MOL0     H65205   7.623   5.309   9.424 -0.3243  0.0331  0.1045
  484MOL0     O65206   5.819   5.388   7.623 -1.2229 -0.2282 -0.1235
  484MOL0     C65207   5.742   5.445   7.542  0.3695 -0.1348 -0.0057
  484MOL0     O65208   5.650   5.547   7.575  0.1206  0.2918 -0.8394
  484MOL0     C65209   5.688   5.629   7.683  0.0571 -1.1838 -0.7394
  484MOL0     C65210   5.723   5.765   7.643 -0.6875  0.6506 -0.9013
  484MOL0     C65211   5.765   5.851   7.742  0.1812  0.3857 -0.8837
  484MOL0     C65212   5.790   5.811   7.870 -0.4136  0.4648 -0.9299
  484MOL0     O65213   5.827   5.897   7.973 -0.0743 -0.3343  0.8544
  484MOL0     C65214   5.717   5.991   8.010 -0.4677 -0.5515  0.8358
  484MOL0     C65215   5.776   6.084   8.124  1.0429 -1.0744  0.2865
  484MOL0     C65216   5.864   6.202   8.055 -0.3230 -0.4561 -0.1188
  484MOL0     C65217   5.973   6.144   7.963  1.0887 -0.2142  0.0496
  484MOL0     C65218   6.046   6.272   7.918  0.0974  1.0746  0.0485
  484MOL0     C65219   6.145   6.236   7.805 -0.6332 -1.1869  0.0250
  484MOL0     C65220   6.236   6.362   7.770 -0.1803  0.2885  0.7034
  484MOL0     C65221   6.358   6.319   7.698 -0.5182  1.5367  0.7788
  484MOL0     N65222   6.333   6.268   7.565  0.0698  0.1381 -0.0955
  484MOL0     C65223   6.281   6.346   7.466 -0.4366  0.7162 -0.3551
  484MOL0     C65224   6.274   6.255   7.368 -0.0756  0.6447  1.3097
  484MOL0     C65225   6.254   6.301   7.225 -0.1473 -1.9989  0.4781
  484MOL0     C65226   6.303   6.215   7.104 -0.5840  0.1788  0.3927
  484MOL0     C65227   6.456   6.204   7.111 -0.5466 -0.4665 -0.4138
  484MOL0     C65228   6.519   6.125   6.996  0.0591 -0.4151 -0.0316
  484MOL0     O65229   6.658   6.110   7.019  0.2356  0.2738 -0.1906
  484MOL0     C65230   6.731   6.064   6.904  0.8144  0.3529  0.3244
  484MOL0     C65231   6.673   6.023   6.786  0.7259  0.0006 -0.0988
  484MOL0     C65232   6.752   5.996   6.667  0.7229  0.6281 -0.4622
  484MOL0     C65233   6.893   5.991   6.684  0.4265 -0.8321 -0.2374
  484MOL0     C65234   6.977   5.937   6.574  0.1301  0.0479  0.4221
  484MOL0     O65235   6.929   5.942   6.444 -0.7293 -0.3849  0.6728
  484MOL0     C65236   7.005   5.888   6.341  0.0427  0.0401 -0.6700
  484MOL0     C65237   7.045   5.757   6.352  0.7568  0.7158  0.1382
  484MOL0     C65238   7.149   5.708   6.269  0.1329 -0.6242  0.1513
  484MOL0     C65239   7.211   5.784   6.163 -0.1461  0.0448  0.6105
  484MOL0     O65240   7.321   5.717   6.101  0.6168 -0.2935 -0.2742
  484MOL0     C65241   7.391   5.786   5.999 -0.1971  0.9629 -0.1506
  484MOL0     C65242   7.492   5.885   6.065 -0.0380 -0.0430  0.1268
  484MOL0     C65243   7.604   5.937   5.965  0.9715  0.1510 -0.3447
  484MOL0     C65244   7.714   5.843   5.944 -0.7758 -0.9090 -0.3713
  484MOL0     C65245   7.831   5.921   5.882 -0.7196 -0.0445 -0.3198
  484MOL0     C65246   7.959   5.841   5.868 -0.2853  0.0454  0.4188
  484MOL0     C65247   8.080   5.924   5.806  1.0967 -0.5041 -0.7723
  484MOL0     C65248   8.207   5.846   5.815  0.4118 -0.1750  0.2547
  484MOL0    Cl65249   8.353   5.938   5.781  0.0769  0.3117  0.3325
  484MOL0     C65250   7.162   5.921   6.149  0.8068  0.5252 -0.2572
  484MOL0     C65251   7.061   5.967   6.240  0.5103 -0.2810 -0.2895
  484MOL0     O65252   7.088   5.895   6.604 -0.4356  0.1129  1.0928
  484MOL0     C65253   6.952   6.025   6.804  0.2906 -1.2134 -0.9243
  484MOL0     C65254   6.876   6.068   6.915  0.4025  0.8979  0.6480
  484MOL0     N65255   6.298   6.124   7.406  0.3606  0.2624 -0.3181
  484MOL0     N65256   6.360   6.138   7.521 -0.5814 -0.0052  0.0262
  484MOL0     C65257   5.771   5.676   7.905  0.4380 -0.1024 -0.0882
  484MOL0     C65258   5.704   5.592   7.818  0.1754  0.7356 -0.0669
  484MOL0     C65259   5.730   5.378   7.401  0.7497  0.4652 -0.4999
  484MOL0     C65260   5.633   5.425   7.318  0.2339 -0.5723 -0.5024
  484MOL0     C65261   5.604   5.363   7.197 -0.4351 -0.9284 -0.2809
  484MOL0     C65262   5.685   5.263   7.145  0.7275 -0.6450 -0.4682
  484MOL0     O65263   5.656   5.219   7.017  0.4786  0.7144 -1.0047
  484MOL0     C65264   5.727   5.103   6.966  0.0125  0.2021  0.1607
  484MOL0     C65265   5.672   4.970   7.026 -0.1585  0.0317  0.1769
  484MOL0     C65266   5.741   4.846   6.956  0.4052  0.2607 -1.0030
  484MOL0     C65267   5.890   4.837   6.993 -0.3452 -0.7774  0.2410
  484MOL0     C65268   5.921   4.833   7.134  0.2769  0.6822  0.7733
  484MOL0     C65269   5.944   4.818   7.252  0.9120  0.0433  0.1443
  484MOL0     C65270   5.779   5.224   7.234  0.7908  0.7324  0.2895
  484MOL0     C65271   5.808   5.272   7.364  0.5454 -0.6237 -0.2598
  484MOL0     C65272   5.919   5.201   7.441 -0.4301 -0.0951 -1.3158
  484MOL0     H65273   5.739   5.786   7.538  5.6466  1.2027 -0.1647
  484MOL0     H65274   5.796   5.952   7.718  0.5896  0.3019 -0.7345
  484MOL0     H65275   5.697   6.056   7.924  1.2791  1.3146  1.7413
  484MOL0     H65276   5.625   5.938   8.038 -1.5191  0.3603 -0.7455
  484MOL0     H65277   5.838   6.025   8.192  3.2794  0.0124 -0.6698
  484MOL0     H65278   5.687   6.116   8.178  0.3955 -1.2509 -0.6551
  484MOL0     H65279   5.897   6.273   8.131  1.8579 -0.6957 -0.7921
  484MOL0     H65280   5.791   6.266   8.003 -0.2111  1.7296  2.2172
  484MOL0     H65281   6.047   6.076   8.006  3.0995 -0.3543 -3.2988
  484MOL0     H65282   5.928   6.111   7.869  0.6538 -1.4525  0.6668
  484MOL0     H65283   5.985   6.360   7.895  0.9594  2.4841  2.7897
  484MOL0     H65284   6.105   6.307   8.002 -3.0495  2.6327  1.8072
  484MOL0     H65285   6.220   6.162   7.832 -1.0197 -2.6000 -2.4104
  484MOL0     H65286   6.094   6.193   7.718  2.3540 -1.7369 -1.5663
  484MOL0     H65287   6.261   6.415   7.863 -0.2788 -1.8436  2.0177
  484MOL0     H65288   6.176   6.428   7.708 -1.9723 -0.0275  2.0063
  484MOL0     H65289   6.428   6.403   7.691 -1.6070  2.3597 -1.0228
  484MOL0     H65290   6.411   6.250   7.765 -0.3481  0.8819 -0.0022
  484MOL0     H65291   6.263   6.453   7.461 -0.9911  0.7933  2.1610
  484MOL0     H65292   6.161   6.350   7.197  0.6776  0.9088  2.3462
  484MOL0     H65293   6.321   6.388   7.228  0.7725 -2.4000 -3.1634
  484MOL0     H65294   6.254   6.118   7.112  3.8224 -2.6775 -2.8325
  484MOL0     H65295   6.283   6.249   7.002  2.6289 -2.0385 -1.1323
  484MOL0     H65296   6.485   6.165   7.209 -1.5240 -6.0987 -2.0150
  484MOL0     H65297   6.493   6.306   7.100  0.0573 -0.6749 -0.3208
  484MOL0     H65298   6.495   6.181   6.906 -2.4826 -1.0608  0.1694
  484MOL0     H65299   6.469   6.028   7.002 -2.3320  0.7807  0.7815
  484MOL0     H65300   6.565   6.024   6.778  0.7634  2.3623 -1.0838
  484MOL0     H65301   6.713   5.959   6.572 -0.9849  0.5188  0.2468
  484MOL0     H65302   7.012   5.700   6.438  2.5737 -3.5754 -1.7379
  484MOL0     H65303   7.192   5.613   6.301  1.4153 -0.4182 -0.8766
  484MOL0     H65304   7.457   5.717   5.945 -0.3874  1.1874 -0.6746
  484MOL0     H65305   7.328   5.837   5.926  0.4960  5.8346  2.2035
  484MOL0     H65306   7.432   5.970   6.099  0.5149 -0.7155  2.9930
  484MOL0     H65307   7.540   5.827   6.143 -0.9149 -2.4973 -1.0595
  484MOL0     H65308   7.563   5.962   5.866 -1.0848  1.4825  0.7758
  484MOL0     H65309   7.640   6.032   6.004 -0.8996  0.4849  0.7048
  484MOL0     H65310   7.679   5.767   5.874 -2.8661 -0.6747  0.3474
  484MOL0     H65311   7.749   5.799   6.038 -2.4799 -0.9686  0.2635
  484MOL0     H65312   7.853   6.009   5.943 -0.2445 -0.7529  0.5687
  484MOL0     H65313   7.783   5.953   5.789 -2.3452  1.5805  1.0056
  484MOL0     H65314   7.983   5.805   5.969  0.3678 -2.3847 -0.5317
  484MOL0     H65315   7.922   5.760   5.805 -0.0982 -0.1641  0.5781
  484MOL0     H65316   8.098   6.013   5.866 -3.2287 -0.0713  0.1498
  484MOL0     H65317   8.057   5.958   5.705  0.9009  1.6428 -0.0425
  484MOL0     H65318   8.221   5.789   5.907  1.3139 -5.7405 -2.8656
  484MOL0     H65319   8.196   5.768   5.739 -0.5923  0.1546  0.0490
  484MOL0     H65320   7.197   5.995   6.078 -4.8687  2.2800 -1.7545
  484MOL0     H65321   7.032   6.072   6.241 -1.3082 -0.7717  0.3053
  484MOL0     H65322   7.061   6.022   6.808  0.3646 -0.3590 -1.8801
  484MOL0     H65323   6.939   6.092   7.000  1.8567 -3.6906  1.1752
  484MOL0     H65324   5.774   5.665   8.013  1.5877  0.3582 -0.0678
  484MOL0     H65325   5.663   5.498   7.851  0.3093  1.1888  1.4818
  484MOL0     H65326   5.574   5.511   7.346 -0.8402 -0.8361 -1.8230
  484MOL0     H65327   5.519   5.399   7.140  0.1294  0.1263 -0.4989
  484MOL0     H65328   5.834   5.115   6.984 -0.2200  1.0738  1.0830
  484MOL0     H65329   5.709   5.108   6.858 -3.5900  2.1031  0.6925
  484MOL0     H65330   5.564   4.970   7.013 -0.0341 -0.9899 -1.0858
  484MOL0     H65331   5.680   4.969   7.135  0.8183  3.1900  0.2226
  484MOL0     H65332   5.726   4.850   6.848  0.5273  0.9840 -0.9963
  484MOL0     H65333   5.694   4.752   6.986 -0.6414  0.9633 -0.4137
  484MOL0     H65334   5.924   4.746   6.943  3.2203  0.8703 -0.6189
  484MOL0     H65335   5.947   4.910   6.936 -0.8833 -1.7254 -1.6022
  484MOL0     H65336   5.974   4.784   7.349  1.1438  0.1487  0.1111
  484MOL0     H65337   5.831   5.138   7.193  0.8850 -0.1054  2.1115
  484MOL0     H65338   5.972   5.125   7.382  1.1215 -0.3373  0.3281
  484MOL0     H65339   5.996   5.266   7.485 -1.6148 -0.1975  1.0290
  484MOL0     H65340   5.873   5.154   7.528  0.0893  4.0891  1.4829
  485MOL0     O65341   2.407   6.481   6.287  0.5584 -0.1128  0.6980
  485MOL0     C65342   2.399   6.595   6.331  0.2505 -0.7411 -0.3400
  485MOL0     O65343   2.499   6.666   6.387  0.3758 -0.3734  0.7978
  485MOL0     C65344   2.593   6.618   6.469  0.3598 -0.2165  0.4810
  485MOL0     C65345   2.688   6.716   6.513 -0.8756  0.0743  0.0907
  485MOL0     C65346   2.788   6.675   6.599 -0.1021  0.5676  0.5711
  485MOL0     C65347   2.795   6.543   6.645 -0.3778 -0.0201  0.2456
  485MOL0     O65348   2.896   6.476   6.716  0.2550 -0.7268 -0.0759
  485MOL0     C65349   2.861   6.439   6.855  0.1814 -0.3807  0.4913
  485MOL0     C65350   2.969   6.496   6.943 -1.1972 -0.1056 -0.6870
  485MOL0     C65351   3.111   6.461   6.888 -0.8448  1.1571 -0.3450
  485MOL0     C65352   3.145   6.321   6.887 -0.3118  0.0216  0.2462
  485MOL0     C65353   3.282   6.309   6.825  0.5802 -0.2937 -0.2812
  485MOL0     C65354   3.340   6.170   6.853 -0.3063 -0.2537  0.4268
  485MOL0     C65355   3.483   6.160   6.802 -0.5283 -0.2332  0.1296
  485MOL0     C65356   3.567   6.034   6.849  0.5813  0.5334  0.0378
  485MOL0     N65357   3.547   5.905   6.771 -0.1880  0.0276 -1.1007
  485MOL0     C65358   3.472   5.796   6.796  0.3592  0.1614  0.3696
  485MOL0     C65359   3.450   5.725   6.684 -0.3633 -0.1313  0.9135
  485MOL0     C65360   3.354   5.618   6.653 -0.6802 -0.4864 -0.2703
  485MOL0     C65361   3.312   5.539   6.776  0.7533 -0.4999  0.1236
  485MOL0     C65362   3.212   5.430   6.727 -0.3500  0.5228 -0.0705
  485MOL0     C65363   3.195   5.320   6.837  0.1773  0.6296  0.8163
  485MOL0     O65364   3.308   5.246   6.863  0.0116 -0.9703 -0.0485
  485MOL0     C65365   3.308   5.115   6.895 -0.1989  0.9676  0.6695
  485MOL0     C65366   3.206   5.028   6.937  0.7193 -0.6469  1.1941
  485MOL0     C65367   3.226   4.892   6.957 -0.6833 -0.5104  0.1382
  485MOL0     C65368   3.348   4.834   6.939 -0.7072 -0.0912 -1.1110
  485MOL0     C65369   3.371   4.683   6.938  0.5926  0.0348 -0.3801
  485MOL0     O65370   3.283   4.605   6.999 -0.3675  0.7433 -0.2261
  485MOL0     C65371   3.298   4.471   7.000  0.1504 -0.3812  0.2597
  485MOL0     C65372   3.385   4.384   6.936  0.0097  1.2989 -0.2834
  485MOL0     C65373   3.391   4.250   6.976 -0.8253 -0.6210  0.6062
  485MOL0     C65374   3.309   4.199   7.076  0.3909  0.7265  0.0324
  485MOL0     O65375   3.315   4.064   7.131 -0.1865 -0.8826  0.4516
  485MOL0     C65376   3.449   4.018   7.156  0.7422  0.6598 -0.9463
  485MOL0     C65377   3.444   3.912   7.256  0.2127 -0.0354 -1.1241
  485MOL0     C65378   3.459   3.970   7.388  0.3545 -0.3310  0.4619
  485MOL0     C65379   3.389   3.887   7.493  0.2904  0.6214 -0.9528
  485MOL0     C65380   3.432   3.741   7.521 -0.7553 -0.5053  0.3798
  485MOL0     C65381   3.589   3.724   7.512 -0.0620  0.4980 -0.5765
  485MOL0     C65382   3.642   3.588   7.564  0.0426 -0.0141  0.5995
  485MOL0     C65383   3.599   3.464   7.489  0.1848  0.8337 -0.3592
  485MOL0    Cl65384   3.693   3.325   7.552 -0.4649  0.5597  0.5686
  485MOL0     C65385   3.215   4.286   7.138  0.0928 -0.9700  0.5572
  485MOL0     C65386   3.211   4.415   7.092  0.7073  0.1393  0.4324
  485MOL0     O65387   3.469   4.645   6.872  0.1822 -0.4040  0.1767
  485MOL0     C65388   3.453   4.924   6.911  0.0044 -0.1475  0.7186
  485MOL0     C65389   3.435   5.062   6.877  0.5797  1.0235 -0.5413
  485MOL0     N65390   3.524   5.786   6.583 -0.5189 -0.0028 -0.1383
  485MOL0     N65391   3.574   5.889   6.636 -0.0614 -0.2651 -0.4395
  485MOL0     C65392   2.693   6.455   6.619  0.9760  0.5826  0.1055
  485MOL0     C65393   2.587   6.494   6.527 -0.4752 -0.1746  0.2348
  485MOL0     C65394   2.263   6.662   6.320 -0.3396  0.0213  0.3969
  485MOL0     C65395   2.155   6.582   6.280  0.0605 -0.1197  0.4276
  485MOL0     C65396   2.025   6.638   6.261 -1.0103 -0.6884  0.3442
  485MOL0     C65397   2.005   6.772   6.295 -0.2690  0.0643 -0.4897
  485MOL0     O65398   1.879   6.823   6.294 -0.0844  0.1059  0.6475
  485MOL0     C65399   1.767   6.741   6.280  0.9884  0.8300 -0.6259
  485MOL0     C65400   1.640   6.822   6.245  1.0297  0.5933  0.3391
  485MOL0     C65401   1.511   6.726   6.238 -0.1102 -0.5650 -0.3207
  485MOL0     C65402   1.455   6.705   6.372 -0.4481 -0.0962  0.1894
  485MOL0     C65403   1.334   6.618   6.366  0.4701  0.0568 -0.6373
  485MOL0     C65404   1.235   6.557   6.379  0.2305 -0.3067 -0.0455
  485MOL0     C65405   2.108   6.849   6.341 -0.1236  0.0857  0.2828
  485MOL0     C65406   2.234   6.796   6.355  0.1587 -0.6693  0.4503
  485MOL0     C65407   2.334   6.899   6.384 -0.4506 -0.7049  0.4906
  485MOL0     H65408   2.697   6.819   6.480  2.2043 -0.4393 -0.9216
  485MOL0     H65409   2.865   6.749   6.615  1.5660 -1.2001  1.0299
  485MOL0     H65410   2.763   6.479   6.882 -0.7685 -1.0992 -1.7355
  485MOL0     H65411   2.864   6.331   6.874  1.2278 -0.1299  2.0067
  485MOL0     H65412   2.963   6.474   7.050  2.1125  0.6223 -0.2261
  485MOL0     H65413   2.961   6.605   6.942  1.0041  0.1079 -0.8652
  485MOL0     H65414   3.183   6.522   6.944 -0.6921  0.7894 -0.1410
  485MOL0     H65415   3.117   6.491   6.783 -2.0339  0.9458 -0.4821
  485MOL0     H65416   3.148   6.287   6.991  0.0096 -0.3611  0.1161
  485MOL0     H65417   3.070   6.263   6.832 -1.4515  1.5176  0.1701
  485MOL0     H65418   3.283   6.325   6.717  3.2113 -2.8666 -0.7510
  485MOL0     H65419   3.354   6.382   6.864 -0.1620  1.0375 -1.2823
  485MOL0     H65420   3.345   6.154   6.961  1.2500 -0.5738  0.3292
  485MOL0     H65421   3.277   6.099   6.799  1.1012 -1.0041 -0.2480
  485MOL0     H65422   3.545   6.246   6.830  0.6859 -1.7529  2.4167
  485MOL0     H65423   3.480   6.155   6.692 -1.7351  0.2870  0.1282
  485MOL0     H65424   3.675   6.042   6.836  0.5236  1.4494  0.0464
  485MOL0     H65425   3.558   6.017   6.957  2.5923  5.2412  1.1776
  485MOL0     H65426   3.405   5.785   6.880  0.1655  0.5612  0.2714
  485MOL0     H65427   3.271   5.660   6.597  0.6463  2.0816 -0.4366
  485MOL0     H65428   3.410   5.548   6.590  2.4767  1.1528  0.5068
  485MOL0     H65429   3.407   5.509   6.821  2.5226  0.0936 -2.9398
  485MOL0     H65430   3.254   5.600   6.846 -0.1593 -1.6331  0.3934
  485MOL0     H65431   3.266   5.384   6.644 -0.6440 -0.3145  0.1910
  485MOL0     H65432   3.113   5.472   6.704 -1.2187 -1.6612 -0.6245
  485MOL0     H65433   3.122   5.242   6.810 -1.1891  0.5729  4.2043
  485MOL0     H65434   3.151   5.352   6.931 -0.7381  0.7702  0.3521
  485MOL0     H65435   3.108   5.073   6.952  0.2659 -1.5904  1.0758
  485MOL0     H65436   3.140   4.832   6.983 -4.1374  4.3472  1.3899
  485MOL0     H65437   3.440   4.418   6.850 -1.4159 -1.6336 -2.5246
  485MOL0     H65438   3.460   4.191   6.917  0.2236  1.1865 -0.0752
  485MOL0     H65439   3.495   3.972   7.068  0.3458  2.9733 -2.4563
  485MOL0     H65440   3.510   4.103   7.187 -2.5883  2.5820  0.9860
  485MOL0     H65441   3.348   3.863   7.236  0.9469 -2.3358  0.6663
  485MOL0     H65442   3.518   3.834   7.235  0.5835  0.0272 -0.0840
  485MOL0     H65443   3.565   3.987   7.409  0.3383  0.8636 -0.3274
  485MOL0     H65444   3.415   4.069   7.377  0.8459 -0.3628 -2.8885
  485MOL0     H65445   3.280   3.890   7.491  0.1414 -0.7264  1.4191
  485MOL0     H65446   3.426   3.936   7.584 -1.4699 -3.2281  2.1031
  485MOL0     H65447   3.379   3.681   7.447  2.6492 -2.1560 -0.9890
  485MOL0     H65448   3.401   3.709   7.621 -1.2210  1.7675  0.9993
  485MOL0     H65449   3.625   3.747   7.411  4.8041 -0.0733  0.8006
  485MOL0     H65450   3.631   3.801   7.576  1.4778 -1.7228  1.2079
  485MOL0     H65451   3.612   3.567   7.667 -3.3434  0.6091 -0.1565
  485MOL0     H65452   3.752   3.592   7.562  0.0396  1.2814  1.6206
  485MOL0     H65453   3.496   3.449   7.524  0.6767 -0.5120  0.5802
  485MOL0     H65454   3.599   3.477   7.380 -1.8186 -1.5420 -0.7283
  485MOL0     H65455   3.156   4.251   7.222 -0.4404 -2.1321 -0.2714
  485MOL0     H65456   3.151   4.482   7.154  1.2483  1.5138 -0.4933
  485MOL0     H65457   3.557   4.898   6.899  0.0714  0.8100 -1.0135
  485MOL0     H65458   3.522   5.125   6.861  2.5691 -0.4625  3.1645
  485MOL0     H65459   2.698   6.357   6.664  2.7287  0.4732 -0.2701
  485MOL0     H65460   2.517   6.420   6.490  2.0585 -1.4190 -2.4151
  485MOL0     H65461   2.162   6.474   6.273 -0.1247 -0.1655  0.8870
  485MOL0     H65462   1.946   6.584   6.209 -1.6762  2.0367 -1.6853
  485MOL0     H65463   1.739   6.690   6.373 -2.0725  2.3234 -0.6139
  485MOL0     H65464   1.773   6.665   6.201  1.2119 -0.9017  0.9720
  485MOL0     H65465   1.648   6.860   6.143 -3.7900 -0.7594 -0.8453
  485MOL0     H65466   1.627   6.901   6.319  4.5244 -0.2013  2.0410
  485MOL0     H65467   1.545   6.636   6.187  1.4661  0.1882 -0.6718
  485MOL0     H65468   1.444   6.778   6.168  1.7682  2.7755  0.1457
  485MOL0     H65469   1.538   6.660   6.428 -0.8440 -2.3326 -0.9076
  485MOL0     H65470   1.429   6.803   6.411 -0.0666 -0.4079  1.2655
  485MOL0     H65471   1.148   6.495   6.368  0.6121 -0.4143 -3.8982
  485MOL0     H65472   2.081   6.953   6.359 -0.9734 -0.5790  3.4340
  485MOL0     H65473   2.377   6.886   6.483 -0.6329  0.0902  0.6809
  485MOL0     H65474   2.420   6.898   6.317  1.6377 -1.7140  3.0243
  485MOL0     H65475   2.293   7.000   6.384 -0.7002 -0.7997 -0.1831
  486MOL0     O65476   1.495   5.815   6.108 -0.3704  0.2348 -0.8042
  486MOL0     C65477   1.432   5.747   6.187  0.1847 -0.4586  0.0331
  486MOL0     O65478   1.485   5.691   6.296 -0.0886  0.3312  0.8632
  486MOL0     C65479   1.621   5.708   6.301 -0.1063 -0.1413 -0.1979
  486MOL0     C65480   1.670   5.775   6.417 -0.3208 -0.2491  0.5703
  486MOL0     C65481   1.809   5.769   6.445  0.4141  0.0854  0.3784
  486MOL0     C65482   1.897   5.712   6.356  0.1023  0.3649 -0.4003
  486MOL0     O65483   2.030   5.699   6.379  0.0379  0.2295  0.2550
  486MOL0     C65484   2.079   5.708   6.515  1.2131 -0.2093  0.8856
  486MOL0     C65485   2.224   5.649   6.513  0.5037  0.3851 -0.6111
  486MOL0     C65486   2.260   5.531   6.425 -0.1696 -0.0033 -0.0996
  486MOL0     C65487   2.306   5.583   6.294  0.2256  0.2075  0.4640
  486MOL0     C65488   2.320   5.457   6.200  0.6179  0.1074 -0.3148
  486MOL0     C65489   2.423   5.465   6.082  0.5926  0.6687 -0.9159
  486MOL0     C65490   2.404   5.341   5.993 -0.3054  0.6659 -0.0041
  486MOL0     C65491   2.460   5.212   6.056  0.2353  0.6102  0.2965
  486MOL0     N65492   2.401   5.103   5.976 -0.0477  0.7557 -0.1568
  486MOL0     C65493   2.439   5.079   5.847 -0.7637  0.5673 -0.1691
  486MOL0     C65494   2.392   4.956   5.812 -0.5520  0.5300 -0.2009
  486MOL0     C65495   2.408   4.884   5.685 -0.2355  0.2963 -0.4897
  486MOL0     C65496   2.553   4.854   5.636  0.0365  0.5747 -0.1242
  486MOL0     C65497   2.544   4.801   5.493 -0.3028  0.2482 -0.3147
  486MOL0     C65498   2.500   4.653   5.484 -0.2013  1.0201  0.1179
  486MOL0     O65499   2.498   4.597   5.344  0.1985  0.6353 -0.5059
  486MOL0     C65500   2.370   4.602   5.287  0.2233 -0.8257  0.1685
  486MOL0     C65501   2.272   4.701   5.316  0.7340 -0.2560  0.9913
  486MOL0     C65502   2.151   4.710   5.240 -0.0744  0.6121 -0.5900
  486MOL0     C65503   2.132   4.617   5.138 -0.2592 -0.1415  1.0203
  486MOL0     C65504   2.007   4.624   5.057  0.6528  0.2361  0.5255
  486MOL0     O65505   1.920   4.725   5.090  0.0597  0.3138  0.8824
  486MOL0     C65506   1.809   4.774   5.018 -1.0872 -0.1654  1.0287
  486MOL0     C65507   1.749   4.730   4.888 -0.5097 -0.1086  0.5278
  486MOL0     C65508   1.640   4.808   4.834 -0.3329  0.7038 -0.5225
  486MOL0     C65509   1.595   4.922   4.883 -0.4003  0.5398 -0.2712
  486MOL0     O65510   1.488   4.989   4.828 -0.2138  0.4407 -0.1313
  486MOL0     C65511   1.500   5.110   4.761 -0.5350 -0.1029  0.0507
  486MOL0     C65512   1.553   5.088   4.616  0.6465  1.1042 -0.5645
  486MOL0     C65513   1.530   5.203   4.533  0.5015  0.9224 -0.4957
  486MOL0     C65514   1.633   5.195   4.418  0.2456  0.1133 -0.2043
  486MOL0     C65515   1.605   5.083   4.324  0.5266 -0.6894 -0.0548
  486MOL0     C65516   1.701   5.088   4.209  0.0432  0.2325 -0.1696
  486MOL0     C65517   1.704   4.959   4.122  0.7786  0.7285  0.3576
  486MOL0     C65518   1.796   4.962   3.995 -0.5954  0.8092  0.2639
  486MOL0    Cl65519   1.865   4.796   3.966  0.1181 -0.4015  0.4511
  486MOL0     C65520   1.667   4.975   4.997  0.6629 -0.9432 -0.0203
  486MOL0     C65521   1.763   4.894   5.059  0.0980  0.7262 -0.5588
  486MOL0     O65522   1.995   4.554   4.952  0.0864 -0.3788 -0.7712
  486MOL0     C65523   2.221   4.501   5.120 -0.0481  0.4126  0.0527
  486MOL0     C65524   2.339   4.497   5.195 -0.3477 -1.2798 -0.5626
  486MOL0     N65525   2.322   4.912   5.927  0.7810  0.3894  0.0531
  486MOL0     N65526   2.326   5.002   6.019 -0.2571  0.4318  0.7742
  486MOL0     C65527   1.848   5.655   6.241  0.8945  0.1038 -1.0735
  486MOL0     C65528   1.713   5.646   6.210  0.9486 -0.1990 -0.3745
  486MOL0     C65529   1.284   5.739   6.166  0.2294 -0.4022 -0.0876
  486MOL0     C65530   1.237   5.807   6.054 -0.0863 -0.2939 -0.4785
  486MOL0     C65531   1.097   5.835   6.036 -0.0701  0.3916 -0.7228
  486MOL0     C65532   1.012   5.795   6.134 -0.1842  0.6619 -1.0857
  486MOL0     O65533   0.884   5.842   6.126  0.3612 -0.4206 -0.2668
  486MOL0     C65534   0.786   5.786   6.215  0.0986  0.6863  0.2959
  486MOL0     C65535   0.647   5.825   6.158 -0.5088 -1.0587 -0.8411
  486MOL0     C65536   0.614   5.731   6.042 -0.6115  1.3694  0.4897
  486MOL0     C65537   0.475   5.761   5.987  0.5128 -0.7963  1.4897
  486MOL0     C65538   0.453   5.669   5.874 -0.6540 -0.1205  0.2341
  486MOL0     C65539   0.436   5.600   5.775  0.6525  0.0831 -0.2983
  486MOL0     C65540   1.053   5.711   6.243 -0.5641  0.1767 -0.1790
  486MOL0     C65541   1.192   5.680   6.259  0.0825 -0.7772  0.1884
  486MOL0     C65542   1.237   5.615   6.394 -0.0310 -0.5149 -0.6704
  486MOL0     H65543   1.589   5.814   6.477 -0.4512 -0.2668  0.4049
  486MOL0     H65544   1.846   5.802   6.541  2.4600 -1.2285  0.0941
  486MOL0     H65545   2.064   5.815   6.534 -0.9334 -0.2385 -0.2778
  486MOL0     H65546   2.021   5.654   6.590 -2.9619 -0.6694 -2.3005
  486MOL0     H65547   2.253   5.625   6.615 -1.2637 -0.1817 -0.2088
  486MOL0     H65548   2.283   5.735   6.480  0.3660  0.0078 -1.9171
  486MOL0     H65549   2.168   5.476   6.403 -0.8148  0.8303  0.4252
  486MOL0     H65550   2.326   5.468   6.485  1.8368 -0.1159 -2.2843
  486MOL0     H65551   2.242   5.662   6.256 -3.1149 -2.0941  0.8047
  486MOL0     H65552   2.411   5.609   6.309  1.5231 -4.3876  0.8755
  486MOL0     H65553   2.351   5.372   6.261  1.4626  0.9100  0.4056
  486MOL0     H65554   2.225   5.422   6.159  1.0733 -2.3297  0.5457
  486MOL0     H65555   2.381   5.541   6.015 -3.9406 -0.4027  0.3871
  486MOL0     H65556   2.525   5.489   6.114  0.4049  0.2669  0.0205
  486MOL0     H65557   2.461   5.345   5.899  1.5052 -4.2095  0.5876
  486MOL0     H65558   2.299   5.335   5.962 -1.1891 -0.2154  2.8385
  486MOL0     H65559   2.568   5.208   6.065  0.3882  4.2175  1.6883
  486MOL0     H65560   2.427   5.200   6.159  2.5852  0.1782  1.0435
  486MOL0     H65561   2.499   5.147   5.787 -1.6477  0.5641 -1.0840
  486MOL0     H65562   2.350   4.793   5.703  0.6924  0.2134  2.6461
  486MOL0     H65563   2.362   4.953   5.614  0.8552  0.8345 -0.6994
  486MOL0     H65564   2.620   4.939   5.652 -0.2826  0.6985  0.6017
  486MOL0     H65565   2.593   4.770   5.693 -1.5187  1.0497  1.7762
  486MOL0     H65566   2.643   4.791   5.449 -0.2947 -0.8646 -0.0574
  486MOL0     H65567   2.483   4.865   5.428 -3.5063 -2.5242 -0.3158
  486MOL0     H65568   2.395   4.643   5.515 -0.8852  0.0988 -2.2241
  486MOL0     H65569   2.560   4.596   5.555 -0.7693 -0.3548 -0.4506
  486MOL0     H65570   2.294   4.789   5.375  2.5931  0.7841 -1.0823
  486MOL0     H65571   2.078   4.790   5.247 -0.8516  0.1247 -2.5739
  486MOL0     H65572   1.790   4.645   4.835  0.2444 -0.2822  1.3714
  486MOL0     H65573   1.592   4.772   4.743  0.7187 -3.1021  0.2574
  486MOL0     H65574   1.399   5.153   4.768  0.9034  3.7551 -0.2797
  486MOL0     H65575   1.569   5.179   4.811  0.9468 -0.3930 -1.5212
  486MOL0     H65576   1.660   5.075   4.634  0.7179  2.5300  0.1948
  486MOL0     H65577   1.521   4.995   4.569  5.1039 -1.2117  0.4366
  486MOL0     H65578   1.426   5.197   4.498  0.6205  2.2394 -1.1268
  486MOL0     H65579   1.534   5.296   4.589 -0.0315 -0.6407  2.3024
  486MOL0     H65580   1.727   5.182   4.472 -1.5339  0.5885  3.3428
  486MOL0     H65581   1.641   5.279   4.349  2.1644 -2.4098 -3.2891
  486MOL0     H65582   1.502   5.083   4.288  0.5280 -3.0636 -0.2105
  486MOL0     H65583   1.618   4.983   4.365 -2.3586 -2.6283 -3.3746
  486MOL0     H65584   1.659   5.161   4.138 -4.2584 -2.1467 -0.4401
  486MOL0     H65585   1.801   5.107   4.248 -0.6845 -2.4903  3.6625
  486MOL0     H65586   1.603   4.925   4.097  1.2690 -2.6870  2.4494
  486MOL0     H65587   1.738   4.877   4.186  1.0391  0.8769  0.4101
  486MOL0     H65588   1.739   4.988   3.905 -0.1820  1.9936  0.3270
  486MOL0     H65589   1.878   5.034   4.006 -1.2420  1.4004  1.3068
  486MOL0     H65590   1.645   5.072   5.039 -2.2592 -1.2940 -0.5467
  486MOL0     H65591   1.821   4.918   5.148  0.0366 -0.4982 -0.1754
  486MOL0     H65592   2.207   4.422   5.047  0.1311 -1.7309  2.2239
  486MOL0     H65593   2.414   4.421   5.179  1.9272  0.4814  0.9656
  486MOL0     H65594   1.922   5.608   6.177 -0.0084  1.8510 -3.5381
  486MOL0     H65595   1.683   5.572   6.137  0.7524 -0.7843  0.2974
  486MOL0     H65596   1.291   5.854   5.973 -1.0811  2.1326  0.1737
  486MOL0     H65597   1.053   5.888   5.953  1.2500 -1.1591 -2.4836
  486MOL0     H65598   0.802   5.834   6.311 -0.9326  2.5618 -0.4210
  486MOL0     H65599   0.793   5.677   6.226 -1.3470  0.5653  0.1437
  486MOL0     H65600   0.634   5.930   6.129  1.3009  0.1957  2.4677
  486MOL0     H65601   0.572   5.808   6.235 -0.2043  0.8178 -0.0718
  486MOL0     H65602   0.615   5.624   6.068  3.1020  0.7186 -1.6357
  486MOL0     H65603   0.682   5.749   5.958 -0.5650  0.2240  0.2628
  486MOL0     H65604   0.390   5.762   6.055 -1.3384  2.4127 -0.5806
  486MOL0     H65605   0.484   5.863   5.949  0.2840 -0.5315  2.1396
  486MOL0     H65606   0.409   5.549   5.684 -1.6275  0.0476  0.3273
  486MOL0     H65607   0.998   5.659   6.321 -1.0518 -0.3843 -0.8778
  486MOL0     H65608   1.283   5.687   6.463  1.7641 -1.1861 -1.1019
  486MOL0     H65609   1.151   5.593   6.457  0.0645  2.8486  0.8416
  486MOL0     H65610   1.313   5.538   6.378  1.9460  1.3350 -0.6587
  487MOL0     O65611   0.820   2.729   8.203  0.3454  0.9477 -0.5063
  487MOL0     C65612   0.705   2.696   8.221  0.2881  0.0608 -0.0756
  487MOL0     O65613   0.658   2.592   8.293 -0.4356  0.1896  0.7705
  487MOL0     C65614   0.737   2.495   8.349 -0.4034  0.1831 -0.5779
  487MOL0     C65615   0.861   2.456   8.293  0.0230  0.6406  0.2345
  487MOL0     C65616   0.937   2.357   8.367 -0.7538 -0.1773  0.3714
  487MOL0     C65617   0.897   2.315   8.491 -0.1597  0.1996  0.4827
  487MOL0     O65618   0.979   2.225   8.562  0.9319  0.4364 -0.1175
  487MOL0     C65619   0.977   2.244   8.704  0.7318  0.1558  0.2178
  487MOL0     C65620   1.104   2.220   8.768 -0.4710 -0.6186  0.3872
  487MOL0     C65621   1.147   2.072   8.772  0.3240  0.3019  0.6996
  487MOL0     C65622   1.272   2.050   8.857 -0.2586  0.3805  0.5100
  487MOL0     C65623   1.321   1.908   8.830  0.0318 -0.4302 -0.2357
  487MOL0     C65624   1.466   1.887   8.893  0.8179  0.7505  0.1992
  487MOL0     C65625   1.497   1.739   8.905  0.3892 -0.8127 -0.3114
  487MOL0     C65626   1.654   1.721   8.954 -0.4699 -1.2416  0.4298
  487MOL0     N65627   1.667   1.788   9.082 -0.8976 -0.4736 -0.0525
  487MOL0     C65628   1.602   1.761   9.196  0.7354 -0.5143 -0.7005
  487MOL0     C65629   1.619   1.865   9.281 -0.8036  0.2435 -0.2366
  487MOL0     C65630   1.578   1.877   9.420  1.1563  0.1637  0.2089
  487MOL0     C65631   1.698   1.883   9.521 -0.2202 -0.2285  0.4701
  487MOL0     C65632   1.675   1.977   9.644 -0.3376  0.4121  0.5082
  487MOL0     C65633   1.793   1.965   9.738  1.1095  0.2679 -0.7940
  487MOL0     O65634   1.908   2.018   9.678  0.0169 -0.6948  0.1961
  487MOL0     C65635   2.028   2.044   9.746  0.2326 -0.6594 -0.0509
  487MOL0     C65636   2.055   2.018   9.878 -0.4419 -0.3006  1.5987
  487MOL0     C65637   2.177   2.047   9.940 -0.1462 -0.5592 -0.1768
  487MOL0     C65638   2.285   2.102   9.866  0.1839  0.3717 -0.2335
  487MOL0     C65639   2.407   2.141   9.943  0.4565 -0.2593  0.3987
  487MOL0     O65640   2.447   2.070  10.053  0.3695  0.3199 -0.1901
  487MOL0     C65641   2.569   2.012  10.055  0.5377  0.5406  0.2936
  487MOL0     C65642   2.643   1.974   9.941  0.5176 -0.8300 -0.9042
  487MOL0     C65643   2.758   1.898   9.955 -0.0869  0.2287 -0.4776
  487MOL0     C65644   2.807   1.855  10.079 -1.2390  0.0254  0.9868
  487MOL0     O65645   2.920   1.772  10.074 -0.5689  0.1796  0.7715
  487MOL0     C65646   2.960   1.707  10.187 -0.6751 -0.4459 -0.6238
  487MOL0     C65647   3.066   1.791  10.270 -0.1281 -1.0237  0.2985
  487MOL0     C65648   3.188   1.838  10.185 -0.6539 -0.0278 -0.1065
  487MOL0     C65649   3.296   1.900  10.278  0.0177 -1.1076 -0.4276
  487MOL0     C65650   3.431   1.938  10.211  0.5297 -0.6442  0.4367
  487MOL0     C65651   3.537   1.983  10.307 -1.3568  0.3061 -0.0877
  487MOL0     C65652   3.686   1.986  10.251 -0.2848  0.1941 -0.4982
  487MOL0     C65653   3.774   2.032  10.369 -0.2827 -0.1412  0.2194
  487MOL0    Cl65654   3.717   2.181  10.439  0.1039  0.3811  0.5144
  487MOL0     C65655   2.738   1.899  10.197 -0.3922  0.0348 -0.5932
  487MOL0     C65656   2.626   1.977  10.181 -0.1704 -0.0706 -0.4640
  487MOL0     O65657   2.460   2.239   9.896 -0.4158  0.0341  0.7854
  487MOL0     C65658   2.259   2.132   9.729 -0.0993  0.2812  0.1255
  487MOL0     C65659   2.136   2.088   9.669  1.0399  0.1340  0.3983
  487MOL0     N65660   1.712   1.951   9.228 -0.1783 -0.4128 -0.9850
  487MOL0     N65661   1.739   1.902   9.109 -0.6726  0.9652  0.6633
  487MOL0     C65662   0.766   2.336   8.525  0.4618 -0.6680 -0.4691
  487MOL0     C65663   0.683   2.426   8.454  0.0919  0.6022 -1.2283
  487MOL0     C65664   0.612   2.803   8.187  0.2101 -1.0921 -0.0859
  487MOL0     C65665   0.648   2.883   8.074  0.5852  1.2294  0.1446
  487MOL0     C65666   0.556   2.979   8.023 -0.4368  0.9326  0.1153
  487MOL0     C65667   0.427   3.000   8.090  0.1601  0.0672  0.5181
  487MOL0     O65668   0.370   3.117   8.064 -0.3190  0.3756  1.2306
  487MOL0     C65669   0.313   3.126   7.932 -0.9032  0.5642 -0.0082
  487MOL0     C65670   0.186   3.043   7.910 -0.4292 -0.6436 -0.1310
  487MOL0     C65671   0.127   3.062   7.777 -0.8946  0.8494  1.1209
  487MOL0     C65672  -0.012   3.121   7.774 -0.5655  1.3612  0.1076
  487MOL0     C65673  -0.020   3.266   7.773 -0.2331 -0.8846  0.3117
  487MOL0     C65674  -0.047   3.388   7.759 -0.1426 -0.3844 -0.3279
  487MOL0     C65675   0.394   2.920   8.192 -0.3141  0.8680 -1.2370
  487MOL0     C65676   0.487   2.826   8.245  0.5415  0.8671  1.4705
  487MOL0     C65677   0.429   2.746   8.357  0.7748  0.3325  0.6127
  487MOL0     H65678   0.894   2.502   8.200  1.3741  4.4541  2.3986
  487MOL0     H65679   1.030   2.326   8.322 -1.1150 -2.2412  0.9736
  487MOL0     H65680   0.952   2.349   8.722 -2.4874 -1.1771  5.8607
  487MOL0     H65681   0.897   2.182   8.746  1.3386 -2.2110 -1.8883
  487MOL0     H65682   1.100   2.270   8.865 -1.6157 -2.0139  1.0998
  487MOL0     H65683   1.177   2.278   8.710 -2.8858  0.9911 -1.2422
  487MOL0     H65684   1.168   2.036   8.671  0.4366  0.1206  0.7875
  487MOL0     H65685   1.061   2.020   8.815 -1.1836  1.5328 -0.6699
  487MOL0     H65686   1.347   2.128   8.840 -1.1530  0.5749 -3.4190
  487MOL0     H65687   1.256   2.055   8.965  0.5218  1.7749  0.5900
  487MOL0     H65688   1.261   1.834   8.885 -0.1139  0.0569  0.2798
  487MOL0     H65689   1.329   1.878   8.725 -0.4863  0.2616 -0.4812
  487MOL0     H65690   1.537   1.942   8.830 -0.7908  2.2285 -0.4054
  487MOL0     H65691   1.461   1.930   8.993 -3.5710  1.9411 -0.3281
  487MOL0     H65692   1.484   1.690   8.808  1.6073 -0.6008 -0.5885
  487MOL0     H65693   1.425   1.689   8.971  2.7539 -1.5205  1.9040
  487MOL0     H65694   1.691   1.618   8.959  3.5403  0.0678  0.8239
  487MOL0     H65695   1.718   1.773   8.882 -2.4398  1.2238  0.3265
  487MOL0     H65696   1.529   1.685   9.224  0.4402 -0.1863 -0.5814
  487MOL0     H65697   1.525   1.973   9.417 -3.0318 -1.9235 -0.1144
  487MOL0     H65698   1.503   1.804   9.452 -0.4136  2.1580  1.3738
  487MOL0     H65699   1.723   1.778   9.537 -0.6007 -0.8591 -2.4821
  487MOL0     H65700   1.779   1.939   9.474 -0.6085  2.2641  2.5674
  487MOL0     H65701   1.585   1.949   9.700 -0.0681 -0.3805  0.5546
  487MOL0     H65702   1.672   2.084   9.618 -1.6631  0.1654 -0.4703
  487MOL0     H65703   1.791   1.856   9.749 -2.5831  0.2757 -0.3083
  487MOL0     H65704   1.773   2.012   9.835  0.7035 -1.1550 -0.1552
  487MOL0     H65705   1.973   1.966   9.927 -2.2593  0.0789 -0.8365
  487MOL0     H65706   2.185   2.035  10.048 -0.9510 -0.3297 -0.0784
  487MOL0     H65707   2.603   1.996   9.842 -1.2811  3.8412  0.5992
  487MOL0     H65708   2.808   1.859   9.867  2.3716  0.4401  0.7585
  487MOL0     H65709   2.877   1.670  10.249  0.7514 -1.4853  0.7452
  487MOL0     H65710   3.005   1.613  10.153 -2.9311 -1.7573 -0.2254
  487MOL0     H65711   3.019   1.877  10.319  0.4828 -1.5502  1.8744
  487MOL0     H65712   3.111   1.729  10.348  2.8843  3.2942  2.3739
  487MOL0     H65713   3.232   1.750  10.137  0.8485  1.3646 -1.4292
  487MOL0     H65714   3.151   1.917  10.119 -2.8957  0.2828  1.4096
  487MOL0     H65715   3.309   1.829  10.360  0.2437 -0.0328  0.4830
  487MOL0     H65716   3.256   1.989  10.327 -0.3107 -1.6020  0.2152
  487MOL0     H65717   3.417   2.010  10.130 -0.9595 -0.3533  0.9333
  487MOL0     H65718   3.482   1.859  10.155  2.4448  3.1241 -3.7596
  487MOL0     H65719   3.527   2.083  10.351 -5.1032  0.5440 -1.0982
  487MOL0     H65720   3.541   1.917  10.394 -1.2192  2.0156  1.2609
  487MOL0     H65721   3.683   2.048  10.161 -1.1358 -0.4364 -0.9138
  487MOL0     H65722   3.718   1.885  10.224  0.2863  0.8761 -2.5667
  487MOL0     H65723   3.767   1.968  10.457 -4.0857  0.0851  0.2828
  487MOL0     H65724   3.878   2.036  10.337  0.2152  2.2373  1.8404
  487MOL0     H65725   2.762   1.868  10.298  0.9212 -0.8123 -1.1394
  487MOL0     H65726   2.573   2.011  10.269 -0.0939  3.3696 -1.5964
  487MOL0     H65727   2.336   2.174   9.665 -0.9958  1.0047 -0.5069
  487MOL0     H65728   2.125   2.103   9.562  0.9602 -3.9559 -0.3327
  487MOL0     H65729   0.717   2.284   8.607 -1.3298  1.1141 -0.3225
  487MOL0     H65730   0.585   2.443   8.498  0.7077  1.9094 -0.2943
  487MOL0     H65731   0.744   2.879   8.023 -0.0057 -1.5263 -0.9436
  487MOL0     H65732   0.588   3.059   7.957  1.9676 -1.9407 -2.5340
  487MOL0     H65733   0.380   3.090   7.853 -2.4244 -1.1821 -0.5485
  487MOL0     H65734   0.289   3.229   7.903  0.9644  1.2007  0.5283
  487MOL0     H65735   0.107   3.065   7.983 -1.9372 -0.4230 -1.7516
  487MOL0     H65736   0.216   2.939   7.920 -2.9608 -1.5744 -1.4452
  487MOL0     H65737   0.138   2.965   7.728  2.2978  1.6452 -0.0008
  487MOL0     H65738   0.186   3.139   7.726  2.2801 -0.9637  1.7942
  487MOL0     H65739  -0.043   3.085   7.675  1.6150 -1.7640  0.3942
  487MOL0     H65740  -0.073   3.077   7.853 -1.3938  1.9323 -0.2002
  487MOL0     H65741  -0.079   3.490   7.752  0.6328 -0.2032 -1.6973
  487MOL0     H65742   0.299   2.947   8.239 -0.6811 -1.6326 -0.4167
  487MOL0     H65743   0.327   2.770   8.388  1.3584  2.6538  0.9583
  487MOL0     H65744   0.441   2.638   8.342  3.7566  0.8548 -1.7773
  487MOL0     H65745   0.505   2.755   8.436  0.9593 -1.7715  0.7239
  488MOL0     O65746  10.706   0.938  10.953 -0.0667 -0.1054  0.3136
  488MOL0     C65747  10.613   0.931  11.033 -0.6455 -0.2029  0.3671
  488MOL0     O65748  10.627   0.895  11.163  0.4279  0.3179 -0.9301
  488MOL0     C65749  10.752   0.844  11.191  0.0701  0.3465 -0.9910
  488MOL0     C65750  10.857   0.931  11.193  0.6861  0.8322 -0.2233
  488MOL0     C65751  10.990   0.876  11.215 -0.2981  0.0478  0.5185
  488MOL0     C65752  11.008   0.748  11.254 -0.3318 -0.6893 -0.2683
  488MOL0     O65753  11.133   0.717  11.285 -0.1616  0.2546 -0.6781
  488MOL0     C65754  11.156   0.602  11.379 -0.3162  0.2413  0.4367
  488MOL0     C65755  11.284   0.629  11.454 -0.7425  0.3526  1.0557
  488MOL0     C65756  11.403   0.567  11.374 -0.2765  0.3354  0.6786
  488MOL0     C65757  11.522   0.563  11.469 -0.0270 -0.3754 -0.9086
  488MOL0     C65758  11.640   0.487  11.399  0.6783 -0.9869  0.7088
  488MOL0     C65759  11.781   0.508  11.464  0.2420  0.1835 -0.2790
  488MOL0     C65760  11.842   0.640  11.413  0.3005 -0.5217 -0.0317
  488MOL0     C65761  11.987   0.653  11.458 -0.1161 -1.0096  0.0584
  488MOL0     N65762  12.051   0.771  11.400 -0.3988  0.1471 -0.2114
  488MOL0     C65763  12.186   0.789  11.370  0.8099  1.4860 -0.2317
  488MOL0     C65764  12.199   0.913  11.330 -0.2791 -0.1229  0.3985
  488MOL0     C65765  12.336   0.979  11.323 -0.0003 -0.8643  0.2424
  488MOL0     C65766  12.360   1.074  11.212 -0.5644 -0.2510 -0.1638
  488MOL0     C65767  12.494   1.149  11.226 -0.1576  0.1303 -0.1461
  488MOL0     C65768  12.483   1.282  11.144  0.5378  0.1318  0.5514
  488MOL0     O65769  12.609   1.332  11.099 -0.6929  0.3388  0.1663
  488MOL0     C65770  12.613   1.455  11.040  0.6198 -1.7549  0.2315
  488MOL0     C65771  12.669   1.471  10.917 -0.2651 -0.7660 -0.1445
  488MOL0     C65772  12.672   1.587  10.845 -0.5682  0.3357  0.1871
  488MOL0     C65773  12.620   1.704  10.909  0.5948  0.3782  0.0824
  488MOL0     C65774  12.627   1.847  10.850 -0.4329 -1.1383 -0.6736
  488MOL0     O65775  12.625   1.952  10.938  0.1389 -0.3073  1.1566
  488MOL0     C65776  12.640   2.086  10.903  0.5605  1.1802 -0.4857
  488MOL0     C65777  12.685   2.174  11.008  0.1515  0.2174  0.2248
  488MOL0     C65778  12.691   2.305  10.984  0.8354  0.3674  0.2397
  488MOL0     C65779  12.659   2.357  10.854 -0.6085 -0.1842 -0.4996
  488MOL0     O65780  12.675   2.491  10.841 -0.0316  0.1813  0.2063
  488MOL0     C65781  12.612   2.558  10.719 -0.9211 -0.0626 -0.0987
  488MOL0     C65782  12.632   2.711  10.733 -0.1161  0.1676 -0.1706
  488MOL0     C65783  12.751   2.770  10.653  0.0334  0.9959  0.1938
  488MOL0     C65784  12.695   2.856  10.543  0.8117  0.7294  0.0947
  488MOL0     C65785  12.791   2.928  10.453  0.1078  0.4500  0.1227
  488MOL0     C65786  12.850   3.045  10.534  0.0531  0.2220  0.1612
  488MOL0     C65787  12.965   3.099  10.447  0.5163  0.5549  0.4531
  488MOL0     C65788  13.008   3.239  10.501 -0.5098  0.1521 -0.3522
  488MOL0    Cl65789  13.116   3.318  10.380 -0.0154  0.1142 -0.3073
  488MOL0     C65790  12.612   2.279  10.755  0.2840  0.5723 -1.4208
  488MOL0     C65791  12.601   2.136  10.780 -0.0364 -0.4289 -0.2738
  488MOL0     O65792  12.671   1.851  10.734 -0.2829  0.0222 -0.2542
  488MOL0     C65793  12.562   1.692  11.040  1.2389 -0.1608  0.0048
  488MOL0     C65794  12.550   1.569  11.101 -0.1798 -0.2058  0.1798
  488MOL0     N65795  12.070   0.964  11.307  0.0677  0.8145  0.2727
  488MOL0     N65796  11.980   0.881  11.355  0.0820 -0.2445  0.2282
  488MOL0     C65797  10.895   0.661  11.257 -0.7836  0.1652  0.6086
  488MOL0     C65798  10.768   0.709  11.223 -0.5087  0.4791  0.3813
  488MOL0     C65799  10.482   1.007  11.015 -0.7654 -0.4934  0.5981
  488MOL0     C65800  10.387   1.015  11.124 -0.1830 -1.1385 -0.5026
  488MOL0     C65801  10.261   1.073  11.103 -0.4567 -0.0084 -0.3353
  488MOL0     C65802  10.233   1.125  10.981 -0.1121 -0.3772  0.6200
  488MOL0     O65803  10.105   1.168  10.952 -0.1379 -0.4965  0.1341
  488MOL0     C65804  10.039   1.059  10.884 -0.5975 -0.2479  0.0070
  488MOL0     C65805   9.883   1.075  10.910 -0.3114  0.9615  0.8648
  488MOL0     C65806   9.811   1.029  10.788  0.0011 -0.7487  0.6013
  488MOL0     C65807   9.650   1.040  10.797 -0.2947 -0.7471 -0.2420
  488MOL0     C65808   9.606   0.977  10.924 -0.8348  0.3942  0.9516
  488MOL0     C65809   9.589   0.916  11.031 -0.0775 -0.7440 -0.2035
  488MOL0     C65810  10.326   1.136  10.881  0.3294 -0.3430  0.9013
  488MOL0     C65811  10.459   1.089  10.902  0.4337  0.2514  0.7126
  488MOL0     C65812  10.554   1.130  10.795  0.4087  0.5629 -0.5558
  488MOL0     H65813  10.851   1.034  11.161  5.5008  2.0247  1.9137
  488MOL0     H65814  11.078   0.940  11.210  2.2511 -3.2599 -0.9511
  488MOL0     H65815  11.071   0.599  11.448 -1.0770  2.3205 -0.3306
  488MOL0     H65816  11.156   0.503  11.332 -0.6669  0.5223 -0.1726
  488MOL0     H65817  11.281   0.589  11.556 -1.0005 -0.9933  0.5425
  488MOL0     H65818  11.318   0.733  11.459 -0.3699  0.2383  0.9002
  488MOL0     H65819  11.420   0.628  11.285  0.0981 -2.7557 -1.5391
  488MOL0     H65820  11.382   0.465  11.342 -1.9680  0.9427 -0.2967
  488MOL0     H65821  11.543   0.669  11.488 -3.1485 -0.4059  4.6282
  488MOL0     H65822  11.514   0.519  11.568 -1.4085  2.7602  0.5207
  488MOL0     H65823  11.620   0.379  11.405  2.0177 -1.2312  1.0964
  488MOL0     H65824  11.640   0.520  11.295 -3.8366 -0.8829  0.5372
  488MOL0     H65825  11.773   0.501  11.573 -2.6219 -2.4594 -0.5031
  488MOL0     H65826  11.851   0.427  11.444 -0.5234 -1.4500  2.9326
  488MOL0     H65827  11.777   0.712  11.464 -0.4351 -1.4932  0.4405
  488MOL0     H65828  11.841   0.647  11.304  2.5893  0.5484 -0.0337
  488MOL0     H65829  12.001   0.679  11.564  0.3858  3.4055 -0.8755
  488MOL0     H65830  12.056   0.575  11.428  3.5834  2.2842 -0.8915
  488MOL0     H65831  12.257   0.714  11.403 -1.6192  0.1079  2.3343
  488MOL0     H65832  12.340   1.030  11.420  0.3628  1.1977 -0.8086
  488MOL0     H65833  12.425   0.916  11.312  3.1265  3.0889  0.5482
  488MOL0     H65834  12.363   1.014  11.121 -2.3854  3.4422 -2.9288
  488MOL0     H65835  12.269   1.134  11.197 -0.4890  1.0554  3.6336
  488MOL0     H65836  12.570   1.085  11.178  1.7621  0.5988  2.0866
  488MOL0     H65837  12.532   1.166  11.327  1.2899  0.7280 -0.7593
  488MOL0     H65838  12.431   1.354  11.208  2.7265  3.2340 -0.8865
  488MOL0     H65839  12.420   1.270  11.055  1.6287  0.8105 -0.3410
  488MOL0     H65840  12.716   1.388  10.866 -1.1353 -0.6004 -1.2546
  488MOL0     H65841  12.709   1.584  10.743 -1.1520 -2.2710 -0.0009
  488MOL0     H65842  12.715   2.136  11.105 -0.0740  0.7221  0.4954
  488MOL0     H65843  12.736   2.376  11.053 -0.0448  1.8090 -0.6143
  488MOL0     H65844  12.651   2.536  10.620 -1.4200  4.1809 -1.4369
  488MOL0     H65845  12.506   2.535  10.736 -0.9963  0.8235  0.7440
  488MOL0     H65846  12.542   2.768  10.708  0.5780  0.5445 -2.0077
  488MOL0     H65847  12.662   2.739  10.834 -2.7223  5.1256 -0.4697
  488MOL0     H65848  12.830   2.813  10.714  0.1018  1.8924 -0.5014
  488MOL0     H65849  12.796   2.685  10.600 -0.6394 -0.3067  1.6440
  488MOL0     H65850  12.619   2.931  10.567  1.9151  1.3843  1.6377
  488MOL0     H65851  12.652   2.780  10.477 -0.5497 -0.0688  1.8210
  488MOL0     H65852  12.747   2.969  10.362  3.0531  0.4450 -1.4086
  488MOL0     H65853  12.865   2.863  10.406 -2.7108 -1.6863 -1.6076
  488MOL0     H65854  12.767   3.116  10.539  0.1018  0.2156  3.0266
  488MOL0     H65855  12.896   3.025  10.631  0.7208 -1.2809 -0.4414
  488MOL0     H65856  12.935   3.116  10.343  1.1059  1.8469  0.4736
  488MOL0     H65857  13.049   3.029  10.453 -1.1222 -1.4384  1.3834
  488MOL0     H65858  12.921   3.300  10.525  0.3563  1.1766  0.2596
  488MOL0     H65859  13.080   3.239  10.584 -3.9468  2.3285  2.9479
  488MOL0     H65860  12.562   2.309  10.663  0.5945  0.5735 -1.5896
  488MOL0     H65861  12.565   2.062  10.709 -0.1519  1.6082 -2.4721
  488MOL0     H65862  12.533   1.779  11.099 -1.3148  0.7696 -2.4343
  488MOL0     H65863  12.481   1.561  11.185 -2.3882  3.4110 -1.0901
  488MOL0     H65864  10.890   0.564  11.305 -5.8520 -1.6960 -2.8431
  488MOL0     H65865  10.675   0.657  11.244 -0.6874 -0.4567 -2.3819
  488MOL0     H65866  10.398   0.972  11.224 -0.1491  2.4171  1.1979
  488MOL0     H65867  10.184   1.072  11.179 -0.5219 -2.5134 -0.3634
  488MOL0     H65868  10.082   0.959  10.897  1.4857  0.2488 -2.2384
  488MOL0     H65869  10.065   1.078  10.779  2.1971 -0.9872  0.4602
  488MOL0     H65870   9.856   1.175  10.944  0.1162  0.5982  2.3308
  488MOL0     H65871   9.852   1.002  10.985  1.2616  1.7185  2.2969
  488MOL0     H65872   9.836   0.923  10.778 -1.2215 -0.8109 -4.2196
  488MOL0     H65873   9.852   1.088  10.705  0.6305 -0.0883  1.3576
  488MOL0     H65874   9.621   1.146  10.800  2.1248 -0.0258  3.4315
  488MOL0     H65875   9.598   0.998  10.710 -1.9074  1.0497 -0.2227
  488MOL0     H65876   9.580   0.874  11.129  0.5783  0.9735  0.6267
  488MOL0     H65877  10.308   1.179  10.784  2.9411 -0.7013  0.1790
  488MOL0     H65878  10.576   1.050  10.725 -2.1060 -0.1378 -0.6277
  488MOL0     H65879  10.510   1.210  10.734 -1.1126  0.1230 -0.0761
  488MOL0     H65880  10.648   1.172  10.834 -0.6663  1.7137  0.9469
  489MOL0     O65881   4.120   0.261   3.738  0.3520 -0.3014 -0.8084
  489MOL0     C65882   4.127   0.224   3.618  0.1456 -0.4796 -0.0479
  489MOL0     O65883   4.166   0.302   3.510  0.3364  0.3858 -0.1075
  489MOL0     C65884   4.149   0.434   3.519 -0.3170 -1.1745 -0.3904
  489MOL0     C65885   4.033   0.494   3.556  0.7383  0.2534 -1.3731
  489MOL0     C65886   4.016   0.625   3.595 -0.5980 -0.7232  0.2208
  489MOL0     C65887   4.126   0.705   3.591 -0.0097 -0.4933  0.9368
  489MOL0     O65888   4.102   0.832   3.635 -0.2852 -0.3749 -0.0772
  489MOL0     C65889   4.171   0.944   3.571 -0.4887 -0.1393  0.3048
  489MOL0     C65890   4.134   0.964   3.421 -0.1955 -1.0035  0.2463
  489MOL0     C65891   4.203   1.087   3.371  0.1779  0.1657  0.4044
  489MOL0     C65892   4.189   1.086   3.222  0.1693  0.7688  0.2787
  489MOL0     C65893   4.277   1.199   3.160  0.8771 -0.4351  0.0879
  489MOL0     C65894   4.417   1.150   3.133 -0.1825 -0.2804  0.1068
  489MOL0     C65895   4.525   1.240   3.073  0.0637 -0.6594 -0.8750
  489MOL0     C65896   4.649   1.175   3.011 -0.0660 -1.3901  0.7748
  489MOL0     N65897   4.625   1.063   2.913  0.2053 -0.5836 -0.2121
  489MOL0     C65898   4.615   1.063   2.778  0.2676 -0.0773  0.7157
  489MOL0     C65899   4.592   0.930   2.741 -0.2145  0.7726 -0.5127
  489MOL0     C65900   4.573   0.877   2.602  0.6189  0.5475  0.1998
  489MOL0     C65901   4.703   0.899   2.524  0.0483  0.8097  0.6666
  489MOL0     C65902   4.788   0.769   2.510 -0.0874 -0.3079 -0.3561
  489MOL0     C65903   4.884   0.777   2.391 -0.5375  1.7289 -0.4296
  489MOL0     O65904   5.001   0.861   2.413  0.4450 -0.0910  0.8527
  489MOL0     C65905   5.116   0.822   2.351  0.2894 -0.1326 -0.3443
  489MOL0     C65906   5.193   0.753   2.434 -0.3497  0.0567 -0.8563
  489MOL0     C65907   5.325   0.740   2.395 -0.1221 -0.0969  0.1479
  489MOL0     C65908   5.380   0.791   2.277 -0.7098  0.0892  0.4091
  489MOL0     C65909   5.518   0.753   2.237 -0.7194  0.1232  0.0807
  489MOL0     O65910   5.585   0.646   2.293  0.6184  0.3427 -0.6582
  489MOL0     C65911   5.708   0.600   2.244 -0.4862  1.1479 -0.0950
  489MOL0     C65912   5.807   0.555   2.335 -0.7475 -0.2059  0.3314
  489MOL0     C65913   5.927   0.491   2.292  0.5322 -1.2218  0.1728
  489MOL0     C65914   5.942   0.464   2.153  0.9216  0.2096  0.4513
  489MOL0     O65915   6.038   0.386   2.104 -0.6654  0.1907 -0.2603
  489MOL0     C65916   6.039   0.257   2.156 -0.2214  0.4086  0.3772
  489MOL0     C65917   6.013   0.157   2.045  0.0826  0.3468 -0.6672
  489MOL0     C65918   5.871   0.175   1.984 -0.2743 -1.1607 -0.8257
  489MOL0     C65919   5.750   0.196   2.089 -1.3789 -0.2526  0.1818
  489MOL0     C65920   5.615   0.209   2.015  0.0712  0.7206 -0.4172
  489MOL0     C65921   5.510   0.273   2.111 -0.6287  0.2126 -0.0096
  489MOL0     C65922   5.368   0.276   2.043  0.4689  0.7802  0.1157
  489MOL0     C65923   5.263   0.345   2.126  1.0660  0.7339  0.2842
  489MOL0    Cl65924   5.118   0.334   2.007  0.2713 -0.6215 -0.3745
  489MOL0     C65925   5.846   0.516   2.065  0.6087 -1.0167  0.3588
  489MOL0     C65926   5.731   0.586   2.105  0.5405  0.2044 -0.2740
  489MOL0     O65927   5.563   0.815   2.146 -0.8142 -0.6442  0.2620
  489MOL0     C65928   5.294   0.869   2.196 -0.2557  1.4394  0.4524
  489MOL0     C65929   5.167   0.883   2.239  0.2285  0.6954  0.0162
  489MOL0     N65930   4.589   0.853   2.853 -0.1611  0.1376 -0.0716
  489MOL0     N65931   4.595   0.933   2.957  0.1357 -0.3423  0.5262
  489MOL0     C65932   4.248   0.653   3.531  0.5045 -1.0500  0.0640
  489MOL0     C65933   4.256   0.521   3.499  0.1439  0.8250  0.4669
  489MOL0     C65934   4.100   0.078   3.612  0.3005 -0.7184  0.3239
  489MOL0     C65935   4.151   0.020   3.491 -0.4846 -1.0768  0.3704
  489MOL0     C65936   4.149  -0.107   3.458 -0.8670  1.5804 -0.7926
  489MOL0     C65937   4.102  -0.191   3.550 -0.0111 -0.2627 -0.4118
  489MOL0     O65938   4.104  -0.327   3.527 -0.6028  0.1295  0.5817
  489MOL0     C65939   4.033  -0.370   3.413  0.0442  0.1776 -0.3999
  489MOL0     C65940   3.939  -0.485   3.449 -0.3632  0.6564  0.2816
  489MOL0     C65941   3.831  -0.528   3.348 -0.2781 -0.2580 -0.5744
  489MOL0     C65942   3.905  -0.621   3.243 -0.2556 -0.3016 -0.5787
  489MOL0     C65943   3.809  -0.686   3.150 -0.4515  1.1051  0.5313
  489MOL0     C65944   3.735  -0.739   3.062 -0.0958  1.1056  0.2577
  489MOL0     C65945   4.040  -0.147   3.672 -0.3909 -0.6733  0.7117
  489MOL0     C65946   4.047  -0.012   3.709  0.7354  0.1082 -0.3445
  489MOL0     C65947   3.990   0.025   3.840  0.3100 -0.6792  0.5088
  489MOL0     H65948   3.951   0.426   3.575  2.2425 -0.7985  2.3060
  489MOL0     H65949   3.925   0.673   3.627  1.3719  2.9022  1.0101
  489MOL0     H65950   4.144   1.030   3.633  3.1774  1.2686  0.2188
  489MOL0     H65951   4.278   0.929   3.587 -0.4461 -0.9710 -0.6975
  489MOL0     H65952   4.029   0.986   3.403  0.0353  0.5628  0.6205
  489MOL0     H65953   4.178   0.880   3.366  3.9683  0.2201  1.3221
  489MOL0     H65954   4.308   1.072   3.399  0.4846 -2.0415 -1.6036
  489MOL0     H65955   4.144   1.170   3.411  0.7323  0.3362  0.8757
  489MOL0     H65956   4.218   0.998   3.164 -2.2870 -0.8992  1.4484
  489MOL0     H65957   4.081   1.095   3.214 -0.4728 -1.1863  4.3773
  489MOL0     H65958   4.233   1.223   3.062  1.5909 -0.1117 -0.1571
  489MOL0     H65959   4.278   1.289   3.222 -0.1868 -0.4489  0.1420
  489MOL0     H65960   4.465   1.088   3.209  0.4073 -1.5265 -1.2424
  489MOL0     H65961   4.400   1.072   3.059  3.6967 -1.0586 -0.1827
  489MOL0     H65962   4.560   1.316   3.143  0.6278  0.5421 -2.3949
  489MOL0     H65963   4.475   1.289   2.989 -0.1693 -0.2782 -0.5160
  489MOL0     H65964   4.719   1.246   2.966 -1.0376 -3.1530 -4.0760
  489MOL0     H65965   4.701   1.133   3.098 -0.0347 -0.3742  1.2596
  489MOL0     H65966   4.625   1.144   2.707 -0.3776  1.4434  2.2943
  489MOL0     H65967   4.535   0.775   2.600  0.6414  0.5523 -0.9038
  489MOL0     H65968   4.488   0.928   2.555  0.0337  1.8126  2.4506
  489MOL0     H65969   4.662   0.920   2.425  0.0180  1.1269  0.7467
  489MOL0     H65970   4.753   0.992   2.551  1.1840  0.3708  0.1311
  489MOL0     H65971   4.734   0.675   2.492  0.2698 -0.3556 -1.2084
  489MOL0     H65972   4.834   0.753   2.608 -1.0881 -0.6971  0.0719
  489MOL0     H65973   4.845   0.785   2.290 -0.5020 -3.0500 -1.0629
  489MOL0     H65974   4.924   0.675   2.386 -0.0548  1.9760 -3.2254
  489MOL0     H65975   5.156   0.725   2.532  1.6382 -0.6221 -0.2515
  489MOL0     H65976   5.382   0.676   2.462 -1.5978  0.3576  1.9428
  489MOL0     H65977   5.788   0.576   2.440  1.8177  2.5123  0.3698
  489MOL0     H65978   6.007   0.474   2.364  1.2564  0.4499 -0.2048
  489MOL0     H65979   6.138   0.225   2.189  0.7191  0.3273 -2.2482
  489MOL0     H65980   5.954   0.252   2.224 -1.2760  0.2720 -0.9011
  489MOL0     H65981   6.081   0.179   1.962  0.3792 -2.0803 -1.1416
  489MOL0     H65982   6.026   0.053   2.078  3.2557  0.7006 -0.5297
  489MOL0     H65983   5.876   0.243   1.898 -3.6941 -0.0228 -0.2664
  489MOL0     H65984   5.850   0.081   1.931  0.5579 -2.1074  0.4682
  489MOL0     H65985   5.757   0.282   2.155 -1.1369 -0.5854  0.5968
  489MOL0     H65986   5.749   0.105   2.150 -0.4454 -0.2196  0.2521
  489MOL0     H65987   5.582   0.111   1.981 -2.2126  1.3389 -0.1834
  489MOL0     H65988   5.611   0.256   1.916 -0.5968  0.1139 -0.6879
  489MOL0     H65989   5.501   0.207   2.197  3.6871  1.0435  1.2850
  489MOL0     H65990   5.542   0.373   2.144 -0.4867 -0.1666  1.0335
  489MOL0     H65991   5.337   0.173   2.025 -1.0515  1.3783 -0.9519
  489MOL0     H65992   5.373   0.318   1.943  0.8229  0.7710  0.1289
  489MOL0     H65993   5.248   0.306   2.227 -0.4672 -3.5860 -1.3800
  489MOL0     H65994   5.298   0.448   2.138  3.4066  0.2215 -1.3426
  489MOL0     H65995   5.873   0.489   1.964  2.0865  0.2415  0.3795
  489MOL0     H65996   5.655   0.628   2.040 -1.9224  1.1233  2.9489
  489MOL0     H65997   5.320   0.913   2.100 -1.7427  5.0089  1.5464
  489MOL0     H65998   5.107   0.951   2.179 -0.5760  1.6055  1.7714
  489MOL0     H65999   4.338   0.715   3.522 -0.8421  0.8691 -1.0004
  489MOL0     H66000   4.350   0.480   3.462 -1.1875  0.5452 -2.9360
  489MOL0     H66001   4.177   0.081   3.405  1.2915 -2.1904  0.0560
  489MOL0     H66002   4.187  -0.133   3.360 -0.2834  0.6765 -0.3411
  489MOL0     H66003   4.099  -0.426   3.346 -0.1814 -1.5165  0.7246
  489MOL0     H66004   3.989  -0.290   3.352 -0.5882 -1.1802 -1.8009
  489MOL0     H66005   3.879  -0.443   3.530 -1.7590  0.7384 -0.7559
  489MOL0     H66006   3.981  -0.573   3.498 -0.3119  0.6352  0.1992
  489MOL0     H66007   3.789  -0.437   3.305 -1.1787 -0.4080 -0.0319
  489MOL0     H66008   3.748  -0.579   3.399  0.7554 -0.1049  1.3489
  489MOL0     H66009   3.977  -0.565   3.181  2.1098 -1.6284  0.8172
  489MOL0     H66010   3.961  -0.698   3.297 -0.1750  1.2117  1.6234
  489MOL0     H66011   3.670  -0.800   3.004  0.8194 -0.9384  1.2828
  489MOL0     H66012   4.015  -0.239   3.724  1.9710 -1.0089  1.3721
  489MOL0     H66013   4.075   0.055   3.902 -0.6510  0.2742  1.4016
  489MOL0     H66014   3.922   0.111   3.834  0.5352 -0.0185  4.6960
  489MOL0     H66015   3.922  -0.053   3.877  2.1433 -2.0590  1.1216
  490MOL0     O66016   7.714   7.514  10.334 -0.3765 -0.2926 -0.3921
  490MOL0     C66017   7.738   7.395  10.330 -0.3042  0.5296  0.2115
  490MOL0     O66018   7.810   7.322  10.423 -0.8320  0.2992 -0.5037
  490MOL0     C66019   7.842   7.381  10.542  0.2142 -0.8532  0.2150
  490MOL0     C66020   7.762   7.474  10.620  0.0736  0.3476  0.7342
  490MOL0     C66021   7.813   7.532  10.747 -0.1148  0.0237  1.2657
  490MOL0     C66022   7.942   7.499  10.784 -1.0105 -0.6893 -0.1070
  490MOL0     O66023   7.994   7.556  10.898 -0.1035  0.6459  0.3130
  490MOL0     C66024   8.128   7.528  10.939 -0.0743 -0.3368 -0.4106
  490MOL0     C66025   8.163   7.618  11.059 -0.0190 -0.3581 -0.2996
  490MOL0     C66026   8.305   7.580  11.132 -0.7230  0.0509  0.7237
  490MOL0     C66027   8.424   7.596  11.029  0.7851 -0.0857 -0.3897
  490MOL0     C66028   8.556   7.575  11.076 -0.5344 -0.0026  0.6685
  490MOL0     C66029   8.648   7.603  10.952 -0.4391  0.0658 -0.6477
  490MOL0     C66030   8.798   7.568  10.982  0.4949  0.8446  0.3299
  490MOL0     C66031   8.840   7.428  10.938 -0.1622  0.2303 -0.8649
  490MOL0     N66032   8.768   7.320  10.997 -0.1103 -0.2839 -0.2919
  490MOL0     C66033   8.796   7.297  11.131  0.6034  0.6025 -0.7136
  490MOL0     C66034   8.750   7.167  11.152  0.4401  1.0286  0.0477
  490MOL0     C66035   8.746   7.089  11.274  0.7069 -0.4960  1.2209
  490MOL0     C66036   8.611   7.117  11.340  0.2790  0.7115  0.8006
  490MOL0     C66037   8.556   7.005  11.417  0.2128  0.4180  0.4459
  490MOL0     C66038   8.634   6.941  11.532 -0.7265  0.5460 -0.8241
  490MOL0     O66039   8.652   7.037  11.641 -0.0314  0.4655 -0.5041
  490MOL0     C66040   8.697   6.982  11.767  0.3447 -0.5415  0.1192
  490MOL0     C66041   8.764   7.064  11.854 -0.3714 -0.8950  0.5590
  490MOL0     C66042   8.822   7.023  11.975 -0.0034 -0.5134  0.4151
  490MOL0     C66043   8.797   6.899  12.021  0.8045 -0.1929 -0.2016
  490MOL0     C66044   8.860   6.855  12.152  1.4914  0.6568 -0.4120
  490MOL0     O66045   8.901   6.723  12.160 -0.2148  0.4479 -0.0615
  490MOL0     C66046   8.945   6.677  12.279  0.0197  0.3462 -0.4893
  490MOL0     C66047   9.071   6.700  12.319  0.4706  0.1365  0.3494
  490MOL0     C66048   9.117   6.635  12.433  0.0308 -0.1511  0.0427
  490MOL0     C66049   9.031   6.534  12.494  0.0077 -0.6940  0.2771
  490MOL0     O66050   9.074   6.450  12.590  0.2961 -0.0902 -0.0114
  490MOL0     C66051   9.210   6.456  12.637 -0.2323  0.3788  0.6400
  490MOL0     C66052   9.234   6.315  12.685  0.0082  1.5105 -0.6756
  490MOL0     C66053   9.144   6.285  12.809  0.0699 -0.6118 -0.1580
  490MOL0     C66054   9.222   6.183  12.898  0.2399 -0.6651 -0.2263
  490MOL0     C66055   9.290   6.068  12.824  0.3935  0.6220  0.2322
  490MOL0     C66056   9.341   5.962  12.917 -1.0082  0.4409  0.5950
  490MOL0     C66057   9.235   5.888  13.000 -0.1213 -0.4690  0.4905
  490MOL0     C66058   9.305   5.762  13.062 -0.4434 -0.6880 -0.2902
  490MOL0    Cl66059   9.402   5.813  13.195  1.1289  0.3115 -0.3257
  490MOL0     C66060   8.899   6.519  12.457  0.4250 -0.1758  0.4723
  490MOL0     C66061   8.853   6.593  12.350  0.1501 -0.4706 -0.0595
  490MOL0     O66062   8.887   6.944  12.230  0.6219  0.0736 -0.3858
  490MOL0     C66063   8.736   6.813  11.928 -0.1892  0.5644  0.1634
  490MOL0     C66064   8.696   6.847  11.804  0.7092 -0.2825  0.0363
  490MOL0     N66065   8.689   7.120  11.033  0.1645 -0.9211 -0.9853
  490MOL0     N66066   8.709   7.211  10.941  0.0195  0.1102 -0.1540
  490MOL0     C66067   8.019   7.414  10.712  0.1257  0.7383 -0.5430
  490MOL0     C66068   7.969   7.355  10.594 -0.4988  0.2581 -0.3570
  490MOL0     C66069   7.684   7.328  10.208 -0.4353 -0.7687  0.2916
  490MOL0     C66070   7.638   7.411  10.093  0.5139 -0.8184 -0.1495
  490MOL0     C66071   7.577   7.357   9.984  0.2315  0.6244  0.0250
  490MOL0     C66072   7.570   7.220   9.974  0.6561  0.4777 -0.1666
  490MOL0     O66073   7.523   7.169   9.851 -0.0702  0.0527  0.0207
  490MOL0     C66074   7.548   7.029   9.818  0.3365 -0.0462  0.0299
  490MOL0     C66075   7.694   7.006   9.777  0.3233  0.4666  0.2534
  490MOL0     C66076   7.740   7.124   9.678  1.0522  0.0758  0.3286
  490MOL0     C66077   7.879   7.082   9.635 -0.6740  0.6621  0.2742
  490MOL0     C66078   7.868   6.980   9.533 -0.3757  0.2379  0.7509
  490MOL0     C66079   7.869   6.895   9.441  0.3218 -0.5806  0.1500
  490MOL0     C66080   7.601   7.136  10.079 -0.5353 -0.1604  0.0730
  490MOL0     C66081   7.655   7.185  10.199 -0.3131 -0.9258  0.6078
  490MOL0     C66082   7.679   7.094  10.315  0.2032 -0.0826  0.4967
  490MOL0     H66083   7.660   7.502  10.596 -0.4835 -0.8628  1.5790
  490MOL0     H66084   7.753   7.611  10.790 -3.8163  0.3953 -3.7717
  490MOL0     H66085   8.148   7.422  10.960 -0.4367 -0.5000 -0.8668
  490MOL0     H66086   8.196   7.558  10.858  0.8957 -0.2144  0.4302
  490MOL0     H66087   8.085   7.618  11.136 -0.3970 -1.1882 -0.6716
  490MOL0     H66088   8.172   7.719  11.020 -0.8613 -0.8443 -1.8189
  490MOL0     H66089   8.307   7.478  11.171  1.0510  0.3094  1.3607
  490MOL0     H66090   8.317   7.641  11.222  0.9397  0.3076  0.3649
  490MOL0     H66091   8.406   7.525  10.947  1.2568  1.0750 -1.5293
  490MOL0     H66092   8.426   7.695  10.983  3.2430 -0.8501 -2.1560
  490MOL0     H66093   8.574   7.642  11.161  0.2032  1.2472 -0.4212
  490MOL0     H66094   8.564   7.471  11.109 -0.3614 -1.6389 -3.8899
  490MOL0     H66095   8.623   7.553  10.858  0.2590  0.5290 -1.0942
  490MOL0     H66096   8.656   7.712  10.944  0.2246  0.1337  0.7513
  490MOL0     H66097   8.830   7.587  11.085 -1.9716 -0.6628  1.4557
  490MOL0     H66098   8.855   7.629  10.911  0.4114 -2.0954 -2.5076
  490MOL0     H66099   8.832   7.434  10.829 -2.3200  4.6429 -0.6640
  490MOL0     H66100   8.945   7.410  10.964 -0.8853 -3.4162  0.1906
  490MOL0     H66101   8.829   7.351  11.219 -0.7126 -2.7981  2.1130
  490MOL0     H66102   8.748   6.984  11.245 -2.1885 -0.3373  0.0785
  490MOL0     H66103   8.836   7.120  11.328  1.2870 -0.9869  0.5522
  490MOL0     H66104   8.614   7.208  11.401 -2.9314  1.9463 -0.6835
  490MOL0     H66105   8.537   7.146  11.266  0.1726  2.1745  1.4431
  490MOL0     H66106   8.513   6.927  11.354 -0.3947  1.8227 -0.9344
  490MOL0     H66107   8.475   7.048  11.476  0.5837  1.4153  0.2415
  490MOL0     H66108   8.732   6.913  11.491 -0.2759 -2.4573  1.8623
  490MOL0     H66109   8.579   6.849  11.555 -0.6195 -0.6957 -4.8048
  490MOL0     H66110   8.762   7.170  11.829 -1.9109 -1.4782 -2.3416
  490MOL0     H66111   8.871   7.104  12.029  0.4210 -0.3377 -0.2236
  490MOL0     H66112   9.130   6.769  12.259 -2.2049  2.1324 -0.2219
  490MOL0     H66113   9.218   6.664  12.459 -0.3760  0.9638  0.4552
  490MOL0     H66114   9.275   6.487  12.555  1.8763  0.6449  2.3260
  490MOL0     H66115   9.229   6.532  12.713  2.0334  1.8411 -1.2328
  490MOL0     H66116   9.213   6.248  12.601 -1.2683  2.3345 -1.0355
  490MOL0     H66117   9.339   6.322  12.715  0.6100  1.3912 -2.6396
  490MOL0     H66118   9.144   6.384  12.854  2.7296 -0.3339 -0.5754
  490MOL0     H66119   9.045   6.247  12.785 -0.6311  0.5314  0.8564
  490MOL0     H66120   9.149   6.141  12.968  2.7630 -0.3470  2.8159
  490MOL0     H66121   9.292   6.230  12.967 -0.7052 -2.2919  1.9663
  490MOL0     H66122   9.372   6.110  12.765  0.0750  2.7730  1.2327
  490MOL0     H66123   9.213   6.029  12.757 -0.6965 -0.1426  1.8697
  490MOL0     H66124   9.379   5.887  12.847  1.9469  3.2893 -1.1620
  490MOL0     H66125   9.426   6.002  12.973  0.3209  1.2966 -1.8776
  490MOL0     H66126   9.156   5.846  12.936  1.3851  0.9980 -2.5213
  490MOL0     H66127   9.195   5.951  13.080  2.8869  1.1108  0.8775
  490MOL0     H66128   9.228   5.694  13.098 -1.1055 -0.3507 -1.0148
  490MOL0     H66129   9.371   5.711  12.991 -0.1992 -0.0763 -0.5178
  490MOL0     H66130   8.847   6.431  12.496  2.1107 -1.5306 -0.2003
  490MOL0     H66131   8.749   6.582  12.318  0.8053 -0.2714 -2.4241
  490MOL0     H66132   8.724   6.710  11.962 -1.2916  0.7461  0.3560
  490MOL0     H66133   8.646   6.776  11.740  2.4258 -0.6661 -0.9347
  490MOL0     H66134   8.123   7.388  10.726 -0.3064 -1.1962 -0.6503
  490MOL0     H66135   8.033   7.296  10.528  0.4186 -0.0474  0.7649
  490MOL0     H66136   7.658   7.518  10.097 -0.1078 -0.6070 -1.9400
  490MOL0     H66137   7.549   7.424   9.903  0.5537  1.6550  0.7462
  490MOL0     H66138   7.497   7.011   9.722  2.9933 -3.1037 -0.9911
  490MOL0     H66139   7.501   6.960   9.889 -1.2613 -1.3200 -2.1064
  490MOL0     H66140   7.701   6.904   9.739 -1.9313  0.0622  0.8263
  490MOL0     H66141   7.764   6.999   9.862  3.1678  2.4705 -1.7052
  490MOL0     H66142   7.747   7.225   9.719 -1.1220  0.5048 -0.2540
  490MOL0     H66143   7.659   7.128   9.604 -2.5334 -0.1721  3.9060
  490MOL0     H66144   7.913   7.170   9.580  0.4911 -0.6570 -1.2094
  490MOL0     H66145   7.943   7.057   9.720 -0.4259  2.4685  0.6443
  490MOL0     H66146   7.850   6.847   9.346  0.0894 -2.3781  1.0638
  490MOL0     H66147   7.597   7.030  10.057 -0.6961 -0.3096  0.7983
  490MOL0     H66148   7.662   7.141  10.412 -1.4878 -1.6872  1.0270
  490MOL0     H66149   7.607   7.012  10.310  1.3826 -1.0602 -2.6398
  490MOL0     H66150   7.779   7.050  10.311  0.4985 -0.0080  3.9621
  491MOL0     O66151   6.189  10.964   8.923  0.0089 -0.3602 -0.1756
  491MOL0     C66152   6.121  11.057   8.875 -0.2156 -0.7550  0.4281
  491MOL0     O66153   6.025  11.040   8.783 -0.4505  0.1130 -0.0600
  491MOL0     C66154   6.000  10.911   8.748 -0.9207  0.0322  0.9611
  491MOL0     C66155   6.089  10.831   8.664  0.9984 -0.4312 -0.0976
  491MOL0     C66156   6.063  10.691   8.652 -0.1017 -1.3096 -0.4102
  491MOL0     C66157   5.947  10.634   8.703  0.1658 -0.5656 -0.3612
  491MOL0     O66158   5.935  10.495   8.673  0.1677 -0.1645  0.2931
  491MOL0     C66159   5.840  10.423   8.749 -0.3833  0.4810 -0.6564
  491MOL0     C66160   5.871  10.273   8.731  0.5679  0.2655 -0.0646
  491MOL0     C66161   5.818  10.199   8.853 -0.3339  0.3499 -1.0709
  491MOL0     C66162   5.894  10.063   8.880  0.3184 -0.3844 -0.2751
  491MOL0     C66163   5.839   9.998   9.016 -0.0757  0.6803  0.0693
  491MOL0     C66164   5.701   9.950   9.021  0.6329 -0.2393  0.2050
  491MOL0     C66165   5.652   9.869   8.900  0.1508 -0.2963  0.5349
  491MOL0     C66166   5.742   9.743   8.866  0.1276 -0.0321  0.1273
  491MOL0     N66167   5.767   9.654   8.983 -0.1597  0.5477 -0.3863
  491MOL0     C66168   5.679   9.618   9.084 -0.5867 -0.0335 -0.5709
  491MOL0     C66169   5.750   9.534   9.171  0.2262 -0.4752  0.0582
  491MOL0     C66170   5.694   9.470   9.293 -0.3845  0.3249 -1.2862
  491MOL0     C66171   5.798   9.389   9.382 -0.5966 -0.5752  0.3744
  491MOL0     C66172   5.718   9.278   9.435  0.4761  0.4143 -0.2575
  491MOL0     C66173   5.801   9.177   9.515  1.0678 -0.3843 -0.8294
  491MOL0     O66174   5.722   9.068   9.569 -0.0565 -0.1646 -0.6091
  491MOL0     C66175   5.770   8.946   9.617  0.2549 -0.0036  0.5691
  491MOL0     C66176   5.899   8.901   9.622  0.5237  0.4620  0.1024
  491MOL0     C66177   5.921   8.764   9.661 -0.8402  0.3867  0.6794
  491MOL0     C66178   5.818   8.678   9.697 -0.3806  0.1767  0.1915
  491MOL0     C66179   5.846   8.536   9.729 -0.4983  0.4075 -1.0616
  491MOL0     O66180   5.744   8.444   9.726  0.9524  0.5112  0.2687
  491MOL0     C66181   5.762   8.313   9.755 -0.1407 -0.2004 -0.2575
  491MOL0     C66182   5.684   8.246   9.851 -0.2220  1.0044  0.4985
  491MOL0     C66183   5.707   8.107   9.885  0.9073  0.1963  0.1411
  491MOL0     C66184   5.807   8.036   9.813 -0.7522 -0.1094 -0.6382
  491MOL0     O66185   5.845   7.901   9.831  0.2964 -0.1794  0.3544
  491MOL0     C66186   5.759   7.808   9.894  0.2407  0.2941 -1.0931
  491MOL0     C66187   5.815   7.667   9.881  1.3187  0.9469  0.5225
  491MOL0     C66188   5.723   7.588   9.969 -0.6491 -0.2702 -0.3129
  491MOL0     C66189   5.748   7.437   9.980 -0.6065  0.2113 -0.3932
  491MOL0     C66190   5.697   7.371   9.855  0.0037 -0.6579  0.2055
  491MOL0     C66191   5.548   7.389   9.829  0.0304  0.5907 -0.0002
  491MOL0     C66192   5.496   7.287   9.729 -0.5840  1.5003  0.9196
  491MOL0     C66193   5.362   7.327   9.679  0.0563  0.2586  0.2054
  491MOL0    Cl66194   5.248   7.323   9.813 -0.3174  0.2773 -0.1963
  491MOL0     C66195   5.886   8.102   9.713  0.3130  0.3782 -0.2818
  491MOL0     C66196   5.860   8.235   9.691 -0.0456 -0.1586 -0.2714
  491MOL0     O66197   5.960   8.514   9.772  0.0575  0.2240 -0.6848
  491MOL0     C66198   5.688   8.717   9.686  0.9561 -0.3377  0.8572
  491MOL0     C66199   5.664   8.852   9.649 -0.2309  0.2007  0.0316
  491MOL0     N66200   5.884   9.540   9.126  0.7057  0.2855  0.0877
  491MOL0     N66201   5.893   9.610   9.018 -0.4062  0.6761 -0.0578
  491MOL0     C66202   5.853  10.713   8.775 -0.1227  0.3227 -0.7735
  491MOL0     C66203   5.882  10.853   8.796 -0.0758 -0.0484 -0.3086
  491MOL0     C66204   6.153  11.200   8.908 -0.0617 -0.1815 -0.5504
  491MOL0     C66205   6.285  11.212   8.969 -0.5844  0.0609 -1.0779
  491MOL0     C66206   6.325  11.343   8.996 -0.0067  0.2560  0.5371
  491MOL0     C66207   6.253  11.455   8.972 -0.7850 -0.1839  1.0967
  491MOL0     O66208   6.309  11.573   9.011 -0.6860  0.4680  1.0124
  491MOL0     C66209   6.238  11.696   9.022 -0.1858 -0.3406  0.4510
  491MOL0     C66210   6.314  11.791   9.124  0.5208 -0.2293  0.2712
  491MOL0     C66211   6.263  11.942   9.117  0.5597  0.3207  1.0153
  491MOL0     C66212   6.281  12.016   9.245  0.4546 -0.5055  0.9684
  491MOL0     C66213   6.253  12.163   9.245 -0.7289 -0.6130 -0.2207
  491MOL0     C66214   6.222  12.282   9.252 -0.5965  0.6794 -0.4612
  491MOL0     C66215   6.122  11.447   8.921 -0.1583  0.0064  0.6540
  491MOL0     C66216   6.073  11.320   8.893 -0.5171 -0.1352 -0.5769
  491MOL0     C66217   5.933  11.299   8.847  0.1563  0.0903 -0.7332
  491MOL0     H66218   6.179  10.881   8.631 -0.8429  1.2034 -3.0984
  491MOL0     H66219   6.134  10.623   8.606 -0.1040  0.7661 -3.8367
  491MOL0     H66220   5.867  10.442   8.853 -4.3903  1.7638  0.3443
  491MOL0     H66221   5.734  10.440   8.728 -1.8503 -4.8057  0.9753
  491MOL0     H66222   5.979  10.254   8.735  0.2818 -1.2494  1.4352
  491MOL0     H66223   5.825  10.236   8.638  0.3223 -2.8914  1.1807
  491MOL0     H66224   5.710  10.185   8.843 -0.6468  1.9359 -0.2370
  491MOL0     H66225   5.826  10.261   8.943 -0.1885  0.9784 -1.5131
  491MOL0     H66226   5.876   9.995   8.796  1.7488  0.4492 -1.3053
  491MOL0     H66227   5.998  10.094   8.890 -0.0770  0.7383  0.6291
  491MOL0     H66228   5.903   9.912   9.039  0.0353  1.2191  1.9090
  491MOL0     H66229   5.861  10.064   9.100 -0.7256  2.7975 -1.3373
  491MOL0     H66230   5.674   9.902   9.115  1.1342 -1.9486 -0.4798
  491MOL0     H66231   5.648  10.046   9.019  2.5665  0.8756  0.4020
  491MOL0     H66232   5.640   9.938   8.817  0.0931 -2.2312 -1.1506
  491MOL0     H66233   5.546   9.847   8.913 -0.4930  0.7233 -2.3672
  491MOL0     H66234   5.686   9.685   8.792  2.0078 -1.2347 -0.4090
  491MOL0     H66235   5.828   9.780   8.810  1.0171 -0.0892  1.4108
  491MOL0     H66236   5.579   9.654   9.104 -0.2452  0.0872  1.0987
  491MOL0     H66237   5.663   9.548   9.363  2.8556  1.4286 -0.8990
  491MOL0     H66238   5.614   9.406   9.256  1.4869 -1.6727 -2.0640
  491MOL0     H66239   5.881   9.345   9.326  0.9160  1.8904  0.5021
  491MOL0     H66240   5.835   9.455   9.461 -2.6813 -2.3923  3.0549
  491MOL0     H66241   5.658   9.231   9.357  1.8114 -1.6993 -0.0854
  491MOL0     H66242   5.647   9.310   9.512  1.6077 -0.2987  1.1374
  491MOL0     H66243   5.850   9.223   9.601 -1.3551  1.3759 -0.2736
  491MOL0     H66244   5.879   9.128   9.455  0.1314 -1.9187 -0.8425
  491MOL0     H66245   5.980   8.964   9.588 -0.8305  1.3806 -1.5439
  491MOL0     H66246   6.024   8.732   9.668 -1.5240 -1.6151  3.0482
  491MOL0     H66247   5.597   8.291   9.899  0.4070  0.4217  2.2717
  491MOL0     H66248   5.649   8.053   9.959  0.3866  1.3273  0.5777
  491MOL0     H66249   5.738   7.838   9.997  1.9395  1.6433 -1.1030
  491MOL0     H66250   5.658   7.811   9.851  0.5927 -0.9414 -2.0618
  491MOL0     H66251   5.805   7.625   9.781 -0.7182 -1.4363  1.6295
  491MOL0     H66252   5.916   7.642   9.914  0.6051 -0.6841  1.6269
  491MOL0     H66253   5.726   7.625  10.072 -1.2952 -0.9722 -0.0319
  491MOL0     H66254   5.618   7.613   9.951 -0.2703  1.8954  0.1041
  491MOL0     H66255   5.685   7.393  10.058 -1.0515 -0.9914 -1.4063
  491MOL0     H66256   5.854   7.429  10.006 -0.4182 -0.5267 -1.3595
  491MOL0     H66257   5.726   7.266   9.860  3.4769  0.2118  0.9224
  491MOL0     H66258   5.750   7.414   9.770 -0.5698  2.4007  1.2323
  491MOL0     H66259   5.497   7.374   9.925  1.2907 -1.0426  0.4687
  491MOL0     H66260   5.532   7.485   9.780 -1.0123 -0.7137 -2.3601
  491MOL0     H66261   5.484   7.193   9.782 -0.8309  0.8526 -0.2458
  491MOL0     H66262   5.557   7.261   9.642  0.6035  1.2691  1.8077
  491MOL0     H66263   5.361   7.424   9.629 -0.0558  0.4469  0.5727
  491MOL0     H66264   5.315   7.254   9.612 -0.6950 -0.5802  1.5974
  491MOL0     H66265   5.968   8.054   9.660  1.0842  0.7135  0.5854
  491MOL0     H66266   5.918   8.293   9.621 -2.8651  2.3993 -0.6837
  491MOL0     H66267   5.601   8.657   9.712  0.7488 -0.9244 -1.0813
  491MOL0     H66268   5.558   8.875   9.636 -0.8342 -0.1543  3.2692
  491MOL0     H66269   5.765  10.682   8.830  0.0962  1.6249  0.3660
  491MOL0     H66270   5.824  10.917   8.863  1.5487 -0.5833  1.7068
  491MOL0     H66271   6.358  11.135   8.991 -2.6744 -0.7801  4.5049
  491MOL0     H66272   6.426  11.345   9.037  0.5971 -3.0043 -0.4644
  491MOL0     H66273   6.130  11.692   9.038 -0.4244 -2.6414 -1.3422
  491MOL0     H66274   6.253  11.742   8.924  1.8809  2.5100  1.9551
  491MOL0     H66275   6.423  11.793   9.109  1.0624  1.6661  3.5562
  491MOL0     H66276   6.297  11.759   9.227  0.5545  1.0840  0.7088
  491MOL0     H66277   6.156  11.949   9.095  1.2482  1.3715 -2.8590
  491MOL0     H66278   6.313  11.981   9.027 -0.4065  0.0803  0.3613
  491MOL0     H66279   6.197  11.975   9.302 -0.6124 -3.3891 -2.3852
  491MOL0     H66280   6.375  11.986   9.292  1.6913  0.3697 -0.8277
  491MOL0     H66281   6.188  12.381   9.235 -1.9782  0.2568 -0.2623
  491MOL0     H66282   6.052  11.528   8.903  0.9339  0.9369  0.4742
  491MOL0     H66283   5.942  11.280   8.739  0.0320 -2.8236 -0.3172
  491MOL0     H66284   5.880  11.214   8.891  1.2325 -0.8505 -1.1850
  491MOL0     H66285   5.866  11.384   8.861  1.2469  0.9768 -0.7733
  492MOL0     O66286   6.196  11.175   5.874 -1.2033 -0.5492 -0.0807
  492MOL0     C66287   6.154  11.158   5.757  0.0751  0.0374  0.1807
  492MOL0     O66288   6.076  11.064   5.709  0.4459  0.1398 -1.2956
  492MOL0     C66289   6.030  10.961   5.785  0.2332  0.3493 -0.0532
  492MOL0     C66290   6.072  10.832   5.748  1.2909 -0.0168  0.3066
  492MOL0     C66291   6.022  10.711   5.816 -0.6961  0.1006 -1.4844
  492MOL0     C66292   5.941  10.726   5.926 -0.4479  0.9338 -0.1643
  492MOL0     O66293   5.927  10.622   6.011  0.2004 -0.0712  0.4891
  492MOL0     C66294   6.033  10.626   6.109 -0.0799 -0.5375  0.2836
  492MOL0     C66295   5.982  10.623   6.252  0.0200 -0.5597 -0.2048
  492MOL0     C66296   5.873  10.520   6.276  1.1788 -0.0827 -0.4530
  492MOL0     C66297   5.817  10.535   6.414 -0.0310 -0.6226 -0.7420
  492MOL0     C66298   5.769  10.399   6.480 -0.4090  1.1986 -0.2831
  492MOL0     C66299   5.656  10.336   6.390 -0.7864  0.4138 -1.2049
  492MOL0     C66300   5.621  10.193   6.439 -0.2162 -0.6107 -0.3483
  492MOL0     C66301   5.718  10.080   6.415  0.4129  0.4906 -0.4529
  492MOL0     N66302   5.678   9.961   6.491 -0.4678 -0.2908  0.3072
  492MOL0     C66303   5.690   9.956   6.632 -0.3737  0.5656  0.1625
  492MOL0     C66304   5.609   9.856   6.662  1.2310 -0.0559  0.4583
  492MOL0     C66305   5.567   9.800   6.802 -0.3040 -0.0089  0.5139
  492MOL0     C66306   5.691   9.733   6.884 -0.1065  0.9856 -0.3652
  492MOL0     C66307   5.737   9.584   6.843 -0.1142  0.5327  0.8084
  492MOL0     C66308   5.756   9.559   6.699  0.7613 -0.0145  0.4168
  492MOL0     O66309   5.823   9.437   6.667 -0.2301 -0.7269  1.0676
  492MOL0     C66310   5.815   9.383   6.538 -0.3430 -0.0526 -0.1350
  492MOL0     C66311   5.785   9.442   6.416  0.3481 -0.6717 -0.1781
  492MOL0     C66312   5.785   9.365   6.299 -0.2921 -0.3333 -0.9853
  492MOL0     C66313   5.829   9.237   6.292  0.3122  0.5386  0.3905
  492MOL0     C66314   5.810   9.168   6.163  0.5162  0.6308  0.6119
  492MOL0     O66315   5.783   9.040   6.164  0.4209  0.1219  0.6567
  492MOL0     C66316   5.775   8.970   6.049 -0.2112  0.2907  0.1222
  492MOL0     C66317   5.894   8.914   6.005 -1.3024  0.1400 -0.4125
  492MOL0     C66318   5.890   8.844   5.881  0.6918  0.3547  0.7736
  492MOL0     C66319   5.777   8.853   5.801  0.2648 -0.4387 -0.1756
  492MOL0     O66320   5.765   8.803   5.673 -0.3630 -0.0872  0.1717
  492MOL0     C66321   5.823   8.880   5.562 -0.0919  0.3430 -0.9618
  492MOL0     C66322   5.844   8.792   5.436 -0.2558  0.0145 -0.2085
  492MOL0     C66323   5.939   8.837   5.324  0.0066 -1.4898  0.8126
  492MOL0     C66324   5.868   8.933   5.218 -0.9993 -0.3374  0.0873
  492MOL0     C66325   5.802   9.068   5.278 -0.2839  0.1665  0.8195
  492MOL0     C66326   5.732   9.155   5.171  0.3927 -0.3046 -0.2753
  492MOL0     C66327   5.599   9.099   5.126  0.4926  0.1681  0.7711
  492MOL0     C66328   5.500   9.196   5.054 -0.5301  0.2158 -0.0504
  492MOL0    Cl66329   5.583   9.243   4.900  0.3659 -0.1021  0.1299
  492MOL0     C66330   5.665   8.916   5.843 -0.2851  0.3980  0.4465
  492MOL0     C66331   5.663   8.973   5.963  0.0743 -0.4647  0.1457
  492MOL0     O66332   5.813   9.229   6.055  0.4887  0.0713  0.7508
  492MOL0     C66333   5.855   9.170   6.414 -0.1984 -0.3091 -0.4368
  492MOL0     C66334   5.861   9.249   6.534 -0.6714  0.1363  0.0803
  492MOL0     N66335   5.556   9.802   6.545 -0.0487 -0.0822 -0.9102
  492MOL0     N66336   5.593   9.870   6.444 -0.0223 -0.1529 -0.1716
  492MOL0     C66337   5.906  10.850   5.966  0.2450 -0.4807  0.0239
  492MOL0     C66338   5.946  10.975   5.894  0.3804  1.0787 -1.0684
  492MOL0     C66339   6.211  11.245   5.647  0.2848  0.0998  0.9578
  492MOL0     C66340   6.127  11.268   5.533  0.7573  0.2189 -0.0207
  492MOL0     C66341   6.164  11.366   5.435 -0.5248 -0.1714  0.5040
  492MOL0     C66342   6.281  11.442   5.446 -1.0081 -1.0423  0.1260
  492MOL0     O66343   6.323  11.535   5.350 -0.5704 -0.1267 -1.0444
  492MOL0     C66344   6.293  11.519   5.212  0.6494  1.0111  0.7936
  492MOL0     C66345   6.296  11.651   5.146 -0.0782  0.5644 -0.3087
  492MOL0     C66346   6.246  11.640   4.997  0.8641 -0.5072  0.2278
  492MOL0     C66347   6.300  11.528   4.897  0.3811  0.7112 -0.4910
  492MOL0     C66348   6.447  11.512   4.906 -0.1743  0.4232  0.8337
  492MOL0     C66349   6.570  11.504   4.906 -0.1153  0.5323 -0.3281
  492MOL0     C66350   6.361  11.420   5.567  0.3287 -0.0587  0.7268
  492MOL0     C66351   6.331  11.319   5.664 -0.3236  0.0119  0.4364
  492MOL0     C66352   6.418  11.277   5.778 -0.5436  0.4820  0.3635
  492MOL0     H66353   6.146  10.822   5.669  0.3944  1.3674 -0.7660
  492MOL0     H66354   6.058  10.614   5.782 -0.4599 -0.7944  1.1165
  492MOL0     H66355   6.090  10.536   6.088 -1.6203 -1.9016  1.6627
  492MOL0     H66356   6.091  10.717   6.088 -1.2819  0.2936  0.4279
  492MOL0     H66357   5.942  10.723   6.271  3.7214  0.7909  1.3547
  492MOL0     H66358   6.062  10.627   6.326 -0.7618 -0.1350  0.6422
  492MOL0     H66359   5.916  10.422   6.256 -0.3097 -1.2182  1.5333
  492MOL0     H66360   5.784  10.545   6.217 -0.2806  1.7216  2.2650
  492MOL0     H66361   5.898  10.567   6.481 -1.9704 -1.3883  2.1712
  492MOL0     H66362   5.751  10.622   6.424  2.3596  1.5421 -2.4116
  492MOL0     H66363   5.858  10.336   6.482 -0.9595  0.3983 -0.5756
  492MOL0     H66364   5.724  10.418   6.578 -1.5494 -0.3233 -0.4608
  492MOL0     H66365   5.571  10.405   6.397  0.7174  2.1609  2.4419
  492MOL0     H66366   5.686  10.348   6.286 -0.7662 -2.9531 -1.6934
  492MOL0     H66367   5.518  10.169   6.409 -0.7371 -1.5283  1.9754
  492MOL0     H66368   5.623  10.213   6.546  1.0151  1.8694 -0.7684
  492MOL0     H66369   5.728  10.054   6.310 -2.6950  0.1426 -0.7589
  492MOL0     H66370   5.816  10.112   6.452  1.2558  0.6467 -2.7075
  492MOL0     H66371   5.746  10.019   6.701 -0.5764  0.1184  0.7391
  492MOL0     H66372   5.524   9.887   6.854 -3.0486 -0.9054 -0.0739
  492MOL0     H66373   5.487   9.726   6.791  0.3335 -0.6227 -0.0209
  492MOL0     H66374   5.778   9.795   6.861 -1.9469  2.8905 -2.8589
  492MOL0     H66375   5.674   9.744   6.991  0.8358  0.0385 -0.1082
  492MOL0     H66376   5.662   9.511   6.876  0.8902 -1.1380 -0.4319
  492MOL0     H66377   5.831   9.564   6.895 -1.8458 -0.2030  3.9019
  492MOL0     H66378   5.819   9.641   6.663  1.4845  0.0505  1.7714
  492MOL0     H66379   5.658   9.556   6.651  0.3410 -1.9777  1.3083
  492MOL0     H66380   5.747   9.544   6.414 -1.5153 -1.3483 -1.7539
  492MOL0     H66381   5.741   9.408   6.210 -0.8620 -2.0689 -1.5753
  492MOL0     H66382   5.983   8.927   6.067 -1.2018 -1.3452 -0.2058
  492MOL0     H66383   5.984   8.818   5.834 -0.1039  0.9573 -1.2535
  492MOL0     H66384   5.754   8.960   5.536 -0.0879  0.3315 -1.0081
  492MOL0     H66385   5.919   8.924   5.592 -1.1871  0.9781  1.9713
  492MOL0     H66386   5.877   8.693   5.468 -0.1355  0.4097  0.9435
  492MOL0     H66387   5.747   8.791   5.385  0.4494  1.6673 -1.6700
  492MOL0     H66388   6.020   8.898   5.365 -1.2470  0.7752  0.1551
  492MOL0     H66389   5.981   8.753   5.269 -0.2035  0.0984 -2.0102
  492MOL0     H66390   5.789   8.886   5.159 -3.9600  2.0644  1.8224
  492MOL0     H66391   5.943   8.962   5.144  1.0531 -0.4806  2.0024
  492MOL0     H66392   5.884   9.130   5.314  2.2575 -2.8907  0.7134
  492MOL0     H66393   5.738   9.043   5.364 -0.6091 -2.1531 -0.0129
  492MOL0     H66394   5.715   9.254   5.213  2.0023 -0.1962  0.1973
  492MOL0     H66395   5.796   9.159   5.082 -1.1308  1.2107 -1.3615
  492MOL0     H66396   5.543   9.063   5.213  0.1376  0.7939  0.8094
  492MOL0     H66397   5.618   9.008   5.069  0.3400  1.1441 -0.8896
  492MOL0     H66398   5.404   9.147   5.031 -0.8862 -0.3506  2.2991
  492MOL0     H66399   5.490   9.281   5.122 -1.1435 -0.3477  0.5962
  492MOL0     H66400   5.581   8.923   5.774  1.0607  0.7204 -1.2199
  492MOL0     H66401   5.575   9.033   5.986  0.0392  0.4614 -2.1111
  492MOL0     H66402   5.874   9.063   6.414  3.5153  0.2468  0.2437
  492MOL0     H66403   5.889   9.198   6.626  4.3471  0.5108 -0.9650
  492MOL0     H66404   5.858  10.849   6.063  0.5785  3.0860  0.3302
  492MOL0     H66405   5.929  11.072   5.939  4.6165  2.2710 -1.5759
  492MOL0     H66406   6.034  11.216   5.511  1.5613 -0.6550 -1.4861
  492MOL0     H66407   6.094  11.378   5.353 -2.9574  0.0338  2.4719
  492MOL0     H66408   6.196  11.474   5.188  2.5636 -1.6926 -2.9693
  492MOL0     H66409   6.357  11.441   5.170 -0.6598 -2.1338  4.1231
  492MOL0     H66410   6.397  11.690   5.130  0.4578 -1.7377 -3.6480
  492MOL0     H66411   6.237  11.711   5.216  0.3659 -0.1177  0.6601
  492MOL0     H66412   6.251  11.735   4.942 -2.7066  0.4744  1.3509
  492MOL0     H66413   6.137  11.634   4.987  0.8220  1.4449 -1.0978
  492MOL0     H66414   6.254  11.430   4.912  4.1247 -1.1527 -0.1732
  492MOL0     H66415   6.270  11.539   4.792  2.2410  0.1832 -1.1010
  492MOL0     H66416   6.677  11.511   4.898 -0.2449  2.1855 -0.8071
  492MOL0     H66417   6.442  11.491   5.582  0.8857 -1.0822  3.1699
  492MOL0     H66418   6.373  11.312   5.871 -1.1168  2.3703 -0.5660
  492MOL0     H66419   6.426  11.168   5.781 -3.4417  0.2121  0.6001
  492MOL0     H66420   6.509  11.337   5.787 -1.3992  1.4936  4.2973
  493MOL0     O66421   8.922   5.854   7.686  0.1094  0.8840 -0.5452
  493MOL0     C66422   8.827   5.792   7.740  0.3530 -0.9325  0.7264
  493MOL0     O66423   8.738   5.847   7.820  0.2158 -0.4343 -0.4892
  493MOL0     C66424   8.754   5.969   7.875  0.2404  1.0933 -0.2947
  493MOL0     C66425   8.868   6.000   7.948  0.5835 -0.8322  0.1349
  493MOL0     C66426   8.879   6.117   8.010 -0.0519 -0.4261 -0.0181
  493MOL0     C66427   8.779   6.221   7.999  0.4114 -0.2969 -0.3536
  493MOL0     O66428   8.804   6.350   8.054  0.7168 -0.6318  0.2445
  493MOL0     C66429   8.941   6.394   8.047 -0.0876 -0.0341  0.4216
  493MOL0     C66430   8.949   6.547   8.059  0.3062 -0.0877  0.4204
  493MOL0     C66431   8.886   6.602   7.931 -0.4250  0.4141 -0.0864
  493MOL0     C66432   8.913   6.754   7.922  1.0212  0.2184 -0.1070
  493MOL0     C66433   8.810   6.822   8.008 -0.6680  0.0471  0.1294
  493MOL0     C66434   8.795   6.967   7.966 -0.7150  0.5024  0.0772
  493MOL0     C66435   8.695   7.042   8.051  0.3615  0.0851 -0.6522
  493MOL0     C66436   8.660   7.173   7.999  0.3840 -0.8168 -0.5038
  493MOL0     N66437   8.561   7.258   8.071 -0.2505 -0.6254 -0.8913
  493MOL0     C66438   8.450   7.332   8.034 -0.2179 -1.1106  0.4321
  493MOL0     C66439   8.407   7.398   8.141 -0.2305 -0.1458 -0.1234
  493MOL0     C66440   8.289   7.496   8.142  0.0775  0.0059 -0.2077
  493MOL0     C66441   8.170   7.421   8.215  0.3854 -0.1770 -0.0303
  493MOL0     C66442   8.070   7.507   8.290 -0.9642 -0.1164 -0.2509
  493MOL0     C66443   7.959   7.431   8.373  0.1639  0.1649  0.7500
  493MOL0     O66444   7.876   7.353   8.283 -0.0372 -0.4381 -0.0204
  493MOL0     C66445   7.750   7.390   8.256 -0.2972 -0.4760  0.6440
  493MOL0     C66446   7.665   7.295   8.203 -0.5166 -0.3578 -0.4568
  493MOL0     C66447   7.534   7.322   8.175 -0.4945 -0.3569 -0.4320
  493MOL0     C66448   7.482   7.453   8.208  0.4957  0.1043 -0.3590
  493MOL0     C66449   7.343   7.469   8.177 -0.5027  0.2833 -0.3130
  493MOL0     O66450   7.296   7.587   8.230  0.0903 -0.1776  0.2919
  493MOL0     C66451   7.164   7.613   8.209 -0.8655 -1.1008 -0.4066
  493MOL0     C66452   7.081   7.644   8.317  0.1870 -0.7648 -0.0577
  493MOL0     C66453   6.945   7.681   8.301  0.3415  1.2442 -0.5882
  493MOL0     C66454   6.891   7.685   8.169 -0.2542 -0.8195  0.3072
  493MOL0     O66455   6.766   7.742   8.175 -0.0874 -0.0017 -0.4301
  493MOL0     C66456   6.704   7.793   8.058  0.5134  0.5259  0.7943
  493MOL0     C66457   6.740   7.932   8.011  0.7816  0.6932 -0.2589
  493MOL0     C66458   6.632   7.995   7.927  0.0206 -0.4532  0.0090
  493MOL0     C66459   6.494   8.027   8.004 -1.3099 -0.2346 -0.4337
  493MOL0     C66460   6.391   8.120   7.936  1.4613  1.0242 -0.2156
  493MOL0     C66461   6.304   8.207   8.031  0.3028 -0.9646 -1.0696
  493MOL0     C66462   6.359   8.351   8.035  0.4574 -0.2528  0.9886
  493MOL0     C66463   6.272   8.443   8.109  0.3179  0.3996 -0.1379
  493MOL0    Cl66464   6.286   8.408   8.283 -0.3336 -0.1919 -0.6016
  493MOL0     C66465   6.967   7.658   8.055 -0.6775 -0.0143 -0.7326
  493MOL0     C66466   7.103   7.633   8.080 -0.5094 -0.5916 -0.3890
  493MOL0     O66467   7.284   7.380   8.112 -0.0198 -0.9213 -0.5249
  493MOL0     C66468   7.570   7.555   8.250  0.2627  0.4053 -0.1095
  493MOL0     C66469   7.707   7.518   8.284 -0.5047 -0.1114  0.6346
  493MOL0     N66470   8.485   7.367   8.253 -0.5749 -0.3247  0.0475
  493MOL0     N66471   8.579   7.290   8.202  0.7550 -0.0119 -0.9270
  493MOL0     C66472   8.664   6.202   7.914 -0.1113  0.4593  0.2308
  493MOL0     C66473   8.654   6.072   7.855  0.0740  0.1287 -1.4019
  493MOL0     C66474   8.790   5.658   7.698 -0.2149 -0.0977  0.0026
  493MOL0     C66475   8.881   5.563   7.719  0.4921  0.4253 -0.4866
  493MOL0     C66476   8.849   5.435   7.686 -0.7172 -0.6003  0.4559
  493MOL0     C66477   8.730   5.394   7.623 -0.6860 -0.9097  0.0654
  493MOL0     O66478   8.694   5.267   7.601 -0.6830  0.1239  0.0606
  493MOL0     C66479   8.803   5.177   7.561 -1.1331  0.1408  0.5988
  493MOL0     C66480   8.733   5.071   7.477 -0.0486 -0.1868 -0.1307
  493MOL0     C66481   8.815   4.952   7.430 -0.4806  0.5014  0.3434
  493MOL0     C66482   8.912   4.973   7.318 -0.4443 -0.0553 -0.5379
  493MOL0     C66483   9.002   4.853   7.333 -0.0665  0.8427  0.5901
  493MOL0     C66484   9.081   4.760   7.349  0.1782 -0.3887 -0.2942
  493MOL0     C66485   8.637   5.494   7.606  0.4527 -0.3159 -0.2917
  493MOL0     C66486   8.671   5.625   7.630 -0.5610  0.5011 -0.5702
  493MOL0     C66487   8.581   5.739   7.581  0.4314  0.1822 -0.6594
  493MOL0     H66488   8.955   5.937   7.962  5.2249  3.6289 -4.3471
  493MOL0     H66489   8.968   6.156   8.059  0.0807  0.2437 -0.7643
  493MOL0     H66490   8.996   6.350   8.131 -0.4167 -2.0948 -0.3845
  493MOL0     H66491   8.974   6.363   7.948  2.0592 -0.0594  1.0833
  493MOL0     H66492   9.050   6.586   8.077 -0.4823  3.0049 -1.1732
  493MOL0     H66493   8.894   6.583   8.147  1.3560  2.8863 -0.0244
  493MOL0     H66494   8.780   6.580   7.942 -0.0915 -1.3424 -0.1172
  493MOL0     H66495   8.905   6.539   7.844 -1.5536  1.3424 -1.0308
  493MOL0     H66496   9.017   6.776   7.947  0.6686  0.5821  1.0709
  493MOL0     H66497   8.884   6.789   7.822 -1.3229 -1.6313 -0.1751
  493MOL0     H66498   8.706   6.788   8.006 -1.7349  3.0451 -1.4531
  493MOL0     H66499   8.835   6.811   8.114 -1.5685 -0.6911  0.2759
  493MOL0     H66500   8.897   7.004   7.955  0.6530 -3.2257 -1.2370
  493MOL0     H66501   8.760   6.969   7.862 -1.5115 -0.8013  0.2955
  493MOL0     H66502   8.740   7.060   8.149  2.1856 -1.8245 -1.0479
  493MOL0     H66503   8.609   6.976   8.070  0.1784  0.5722  0.3088
  493MOL0     H66504   8.752   7.232   8.005 -0.1553 -0.0984  0.9443
  493MOL0     H66505   8.617   7.164   7.899  1.1796 -2.5310 -0.7353
  493MOL0     H66506   8.425   7.338   7.928  1.3966 -2.7255 -0.1093
  493MOL0     H66507   8.319   7.589   8.191 -1.1021  0.2872  0.0053
  493MOL0     H66508   8.253   7.524   8.042 -2.6676 -1.7960  0.1683
  493MOL0     H66509   8.108   7.383   8.134  1.1250 -1.5305  0.0105
  493MOL0     H66510   8.201   7.333   8.273 -1.1875 -0.9956 -0.3975
  493MOL0     H66511   8.019   7.570   8.216 -1.0477  2.2951  1.7024
  493MOL0     H66512   8.131   7.568   8.358  0.4180 -3.5166  1.7983
  493MOL0     H66513   7.911   7.498   8.445  0.3414  1.0406  0.0714
  493MOL0     H66514   8.005   7.374   8.455  0.1509  0.4308  0.9449
  493MOL0     H66515   7.711   7.199   8.183  3.1702  0.8308  1.3092
  493MOL0     H66516   7.470   7.238   8.149  0.5412 -1.3786  0.1994
  493MOL0     H66517   7.125   7.626   8.414 -1.7148  0.9538  1.2031
  493MOL0     H66518   6.874   7.698   8.381  0.7276  0.2733 -0.0328
  493MOL0     H66519   6.730   7.729   7.973  2.2292 -1.2521  2.5372
  493MOL0     H66520   6.595   7.788   8.065  0.4756  0.7288  0.3967
  493MOL0     H66521   6.761   7.992   8.100  2.2079 -0.1598  0.0098
  493MOL0     H66522   6.836   7.923   7.960 -0.1796 -3.4294 -1.7553
  493MOL0     H66523   6.671   8.080   7.871 -0.5782 -0.3400 -0.2484
  493MOL0     H66524   6.594   7.921   7.855  1.9444 -1.4527 -0.0230
  493MOL0     H66525   6.528   8.084   8.091  3.5294  0.7372 -2.6017
  493MOL0     H66526   6.441   7.940   8.042 -0.5552 -0.0975  1.0314
  493MOL0     H66527   6.330   8.047   7.881  4.7623 -1.6130 -0.6986
  493MOL0     H66528   6.439   8.184   7.862  0.6425  2.2242  0.2728
  493MOL0     H66529   6.200   8.216   8.000 -0.7401 -1.6089  1.9182
  493MOL0     H66530   6.307   8.151   8.125  1.0299 -0.1496 -0.5975
  493MOL0     H66531   6.354   8.383   7.930  0.9961 -2.8483  0.0938
  493MOL0     H66532   6.463   8.353   8.070  1.4777 -1.6598 -1.6537
  493MOL0     H66533   6.316   8.543   8.097  1.6848 -0.2821 -0.9547
  493MOL0     H66534   6.167   8.442   8.077 -0.6331 -2.6311  2.5798
  493MOL0     H66535   6.931   7.684   7.956 -0.8852 -0.4712 -0.7751
  493MOL0     H66536   7.165   7.633   7.991 -2.2392 -0.3002 -1.6448
  493MOL0     H66537   7.540   7.659   8.258 -3.8101 -0.3986 -2.4244
  493MOL0     H66538   7.765   7.602   8.321 -1.1775  0.7971 -0.3320
  493MOL0     H66539   8.583   6.272   7.898  1.0665  1.3022 -2.4905
  493MOL0     H66540   8.560   6.049   7.807 -0.3594 -0.9009 -0.1194
  493MOL0     H66541   8.983   5.575   7.752  1.6299  0.3265 -3.6603
  493MOL0     H66542   8.929   5.364   7.703  0.7299  0.3372 -1.9367
  493MOL0     H66543   8.828   5.132   7.658 -2.1561  0.5286  1.0516
  493MOL0     H66544   8.888   5.218   7.506 -0.5206  0.9939  2.1017
  493MOL0     H66545   8.687   5.125   7.393  3.6830  2.4630 -0.6744
  493MOL0     H66546   8.648   5.029   7.532  0.8734 -1.3963  0.4133
  493MOL0     H66547   8.747   4.875   7.392 -0.2991 -0.0140  1.0298
  493MOL0     H66548   8.858   4.913   7.523 -1.2432  1.6204  1.2028
  493MOL0     H66549   8.865   4.980   7.219 -1.8092 -2.0992 -0.1084
  493MOL0     H66550   8.976   5.061   7.327 -1.0140  0.2324  0.9757
  493MOL0     H66551   9.154   4.688   7.380 -1.8334 -1.8615  1.3247
  493MOL0     H66552   8.551   5.466   7.546  1.2309 -1.7281 -0.8109
  493MOL0     H66553   8.528   5.708   7.490  1.0423 -3.2899  0.0219
  493MOL0     H66554   8.498   5.769   7.646  3.4775  0.3340  3.5926
  493MOL0     H66555   8.628   5.837   7.568 -3.5783  2.3666 -0.2491
  494MOL0     O66556   1.212   3.807   8.142  0.0050 -0.3236 -0.4834
  494MOL0     C66557   1.328   3.774   8.178  0.5217 -0.4065  0.3234
  494MOL0     O66558   1.393   3.812   8.287  0.3816 -0.3460  0.6457
  494MOL0     C66559   1.335   3.900   8.362  0.1254 -0.3288  0.2184
  494MOL0     C66560   1.389   4.025   8.356  0.2811  0.6470 -0.1825
  494MOL0     C66561   1.339   4.132   8.436  1.1974  0.9746 -0.2918
  494MOL0     C66562   1.228   4.118   8.519  0.4460  0.4058 -0.1185
  494MOL0     O66563   1.181   4.210   8.611  0.6637 -0.4827 -0.1777
  494MOL0     C66564   1.222   4.347   8.614 -0.0864  0.1885  0.3866
  494MOL0     C66565   1.165   4.404   8.746 -0.5418 -0.3215  0.4065
  494MOL0     C66566   1.035   4.482   8.724 -0.1282  0.0771 -0.7325
  494MOL0     C66567   0.908   4.396   8.740 -0.3794 -0.5860  1.2319
  494MOL0     C66568   0.828   4.406   8.874  0.6168  0.7413  0.8420
  494MOL0     C66569   0.669   4.357   8.864 -0.1753  1.3250 -0.0689
  494MOL0     C66570   0.619   4.348   9.004 -0.5046  0.4294  0.1990
  494MOL0     C66571   0.476   4.285   9.019  0.2776 -0.3385  0.0320
  494MOL0     N66572   0.414   4.310   9.148 -0.0129  0.0779  0.0154
  494MOL0     C66573   0.481   4.285   9.265  0.2734 -0.3532 -0.3771
  494MOL0     C66574   0.397   4.326   9.366  0.1694 -0.3569 -0.7426
  494MOL0     C66575   0.420   4.312   9.515 -0.6541  1.1813  0.0795
  494MOL0     C66576   0.304   4.343   9.604  0.3256 -0.1110 -0.2416
  494MOL0     C66577   0.241   4.479   9.577 -0.5684  0.5440  0.1963
  494MOL0     C66578   0.151   4.518   9.689  1.1288 -0.2730 -0.2359
  494MOL0     O66579   0.192   4.494   9.823 -0.0895 -0.1686  0.6543
  494MOL0     C66580   0.273   4.596   9.873 -0.7454 -1.0787 -0.6634
  494MOL0     C66581   0.412   4.588   9.859 -0.4903  0.2202 -0.7888
  494MOL0     C66582   0.485   4.687   9.926  0.6201  1.3571  0.5782
  494MOL0     C66583   0.435   4.791  10.005 -0.1729 -0.1398  0.4525
  494MOL0     C66584   0.522   4.903  10.064 -0.4207  0.7586 -0.4079
  494MOL0     O66585   0.482   4.998  10.150 -0.2354 -0.2309 -0.1915
  494MOL0     C66586   0.579   5.076  10.213  1.1274  0.5324 -1.0003
  494MOL0     C66587   0.664   5.018  10.310  0.0495 -0.8159 -0.5393
  494MOL0     C66588   0.776   5.089  10.359  0.0481 -0.6939  0.8124
  494MOL0     C66589   0.791   5.225  10.316  0.3430  0.4215 -0.6049
  494MOL0     O66590   0.901   5.285  10.354  0.9153 -0.6686  0.3387
  494MOL0     C66591   0.962   5.365  10.253  0.6382 -0.7776 -0.5455
  494MOL0     C66592   1.114   5.383  10.270  0.5372  0.9033  0.2964
  494MOL0     C66593   1.178   5.452  10.156 -1.6305 -0.3383  0.4771
  494MOL0     C66594   1.327   5.455  10.154 -0.0535 -0.8386  1.1839
  494MOL0     C66595   1.383   5.514  10.015  0.3749 -0.2542 -0.0938
  494MOL0     C66596   1.401   5.673  10.027 -0.7359  0.3453  0.6876
  494MOL0     C66597   1.458   5.733   9.887  0.2519  0.0632 -0.8869
  494MOL0     C66598   1.489   5.876   9.902 -0.5012 -0.2161  0.2603
  494MOL0    Cl66599   1.351   5.987   9.928  0.1677  0.4253 -0.5679
  494MOL0     C66600   0.695   5.280  10.230 -0.1934 -0.2527  0.3976
  494MOL0     C66601   0.599   5.211  10.170  0.3494  0.5252  0.2078
  494MOL0     O66602   0.634   4.895  10.014  0.2195 -0.7331 -0.7924
  494MOL0     C66603   0.296   4.804  10.003  1.5176  0.5422 -0.2125
  494MOL0     C66604   0.215   4.711   9.942  0.9123 -0.3813  0.4451
  494MOL0     N66605   0.293   4.380   9.309 -0.5071 -0.7963  0.8592
  494MOL0     N66606   0.300   4.372   9.178 -0.7038 -0.6944 -0.0782
  494MOL0     C66607   1.181   3.989   8.526  0.5091 -0.3899  0.0937
  494MOL0     C66608   1.227   3.878   8.450 -0.1996  0.3041 -0.1561
  494MOL0     C66609   1.384   3.660   8.085 -0.1269  0.6074  0.5336
  494MOL0     C66610   1.367   3.532   8.127  0.3020  0.6717  0.6501
  494MOL0     C66611   1.415   3.431   8.044  0.8791  0.4470 -0.7234
  494MOL0     C66612   1.492   3.455   7.929  0.9289  0.2643  0.5865
  494MOL0     O66613   1.537   3.352   7.847  0.1318 -0.6458  0.5154
  494MOL0     C66614   1.500   3.218   7.863 -0.0939  0.3525  0.5214
  494MOL0     C66615   1.590   3.149   7.758 -0.4855 -0.3767 -0.5545
  494MOL0     C66616   1.571   2.998   7.760  0.3804  0.1532  0.3387
  494MOL0     C66617   1.625   2.933   7.638 -0.1765 -0.9554  0.0005
  494MOL0     C66618   1.616   2.787   7.673 -1.1434 -0.3877 -0.2525
  494MOL0     C66619   1.632   2.683   7.739  0.0488  0.2976 -0.7524
  494MOL0     C66620   1.536   3.583   7.908  0.4363  0.1248  0.1992
  494MOL0     C66621   1.471   3.686   7.978 -0.3881 -0.6760  0.3348
  494MOL0     C66622   1.507   3.828   7.952  0.4374  0.1968  0.9140
  494MOL0     H66623   1.467   4.055   8.287 -0.0740 -2.3457 -2.0075
  494MOL0     H66624   1.401   4.220   8.425  1.9129  0.5417  0.1592
  494MOL0     H66625   1.331   4.346   8.621  0.0202  1.5566 -0.6100
  494MOL0     H66626   1.187   4.398   8.524 -1.5268  0.6335  1.1554
  494MOL0     H66627   1.225   4.486   8.785  1.2444  0.0680 -2.8659
  494MOL0     H66628   1.174   4.325   8.822  1.2872  1.3547  2.0152
  494MOL0     H66629   1.040   4.521   8.622  0.1167  1.0818 -0.3468
  494MOL0     H66630   1.017   4.562   8.796 -2.8779 -1.2184  0.1270
  494MOL0     H66631   0.846   4.444   8.663  0.7264  0.5611  1.0380
  494MOL0     H66632   0.934   4.292   8.718  1.6964 -0.0596  1.0480
  494MOL0     H66633   0.885   4.356   8.953  1.1446 -1.8450 -1.0176
  494MOL0     H66634   0.824   4.514   8.891 -0.3496  0.6810  1.0304
  494MOL0     H66635   0.617   4.429   8.799 -2.8488  1.3272  1.9003
  494MOL0     H66636   0.668   4.260   8.813  2.0027  1.8848 -1.2775
  494MOL0     H66637   0.628   4.450   9.043  0.5848  0.5240 -0.2612
  494MOL0     H66638   0.689   4.278   9.050 -2.4291 -2.0325 -0.4217
  494MOL0     H66639   0.418   4.344   8.947  1.7231  1.4234  0.2412
  494MOL0     H66640   0.482   4.182   8.983 -0.6872 -0.1678 -0.6471
  494MOL0     H66641   0.562   4.217   9.288 -2.0407 -2.2884  2.8430
  494MOL0     H66642   0.453   4.208   9.520  1.7511  1.9243  3.2400
  494MOL0     H66643   0.510   4.372   9.535  2.7038 -3.9394  2.5736
  494MOL0     H66644   0.227   4.266   9.591 -2.1832  2.2785 -0.3827
  494MOL0     H66645   0.343   4.347   9.706  1.5748  0.7795 -0.7233
  494MOL0     H66646   0.173   4.464   9.492 -2.9615 -2.2643  2.3659
  494MOL0     H66647   0.318   4.553   9.557  0.8129 -0.9769 -0.3028
  494MOL0     H66648   0.053   4.473   9.671 -0.4815  1.8907  2.3305
  494MOL0     H66649   0.132   4.626   9.687  2.6632  0.2569  3.9391
  494MOL0     H66650   0.462   4.509   9.804  0.2577 -0.4689  0.8074
  494MOL0     H66651   0.592   4.672   9.918  0.6163  1.1559  0.8731
  494MOL0     H66652   0.644   4.914  10.331  1.0282 -0.7822  0.6895
  494MOL0     H66653   0.839   5.042  10.434  0.8991 -0.4002  0.2880
  494MOL0     H66654   0.945   5.318  10.156 -2.4672  4.9946 -3.3145
  494MOL0     H66655   0.916   5.464  10.246 -1.5288 -1.7840 -1.7570
  494MOL0     H66656   1.148   5.416  10.369  1.3013 -1.2491  0.8219
  494MOL0     H66657   1.150   5.281  10.252 -0.2660  0.9469 -1.7343
  494MOL0     H66658   1.140   5.411  10.062 -0.3220 -1.4282  0.4014
  494MOL0     H66659   1.146   5.557  10.160  1.6053  0.7532  0.3756
  494MOL0     H66660   1.369   5.355  10.164  0.0453 -1.1433 -1.6145
  494MOL0     H66661   1.364   5.511  10.240 -2.0491  2.9912 -0.1918
  494MOL0     H66662   1.307   5.492   9.940  1.1888  0.7416 -1.2285
  494MOL0     H66663   1.474   5.461   9.985 -0.4660 -2.0734  0.4219
  494MOL0     H66664   1.309   5.725  10.055 -0.6101  0.4573  0.8909
  494MOL0     H66665   1.469   5.690  10.111  0.5829  1.5604 -0.5646
  494MOL0     H66666   1.382   5.729   9.808  1.1735 -0.9692 -1.7526
  494MOL0     H66667   1.549   5.673   9.878  0.4558  0.2008  0.1160
  494MOL0     H66668   1.557   5.887   9.986 -2.6561 -2.2201  2.4241
  494MOL0     H66669   1.534   5.911   9.808  1.3375 -3.4305 -0.2192
  494MOL0     H66670   0.710   5.381  10.194 -0.0520 -0.1449  0.7528
  494MOL0     H66671   0.539   5.259  10.093 -2.4440  0.7569  2.3503
  494MOL0     H66672   0.255   4.890  10.054  4.2645  2.6133 -1.2582
  494MOL0     H66673   0.109   4.702   9.964 -0.0127 -0.5518 -3.3498
  494MOL0     H66674   1.102   3.963   8.596 -2.7156  1.8441 -2.4083
  494MOL0     H66675   1.182   3.779   8.458  3.6854 -1.6536 -0.0640
  494MOL0     H66676   1.309   3.499   8.213  1.1490 -0.1021  0.9344
  494MOL0     H66677   1.396   3.331   8.084  4.4057  1.0504  3.2132
  494MOL0     H66678   1.401   3.178   7.842  1.4490 -4.3030  0.9803
  494MOL0     H66679   1.526   3.185   7.964  1.7020 -0.0300 -0.0225
  494MOL0     H66680   1.695   3.170   7.781 -0.6515 -2.7924  3.3450
  494MOL0     H66681   1.576   3.188   7.657  0.2896 -1.6421 -1.1826
  494MOL0     H66682   1.468   2.968   7.781 -0.5184  1.1230 -2.2538
  494MOL0     H66683   1.629   2.979   7.851  2.3328  1.2035 -0.6123
  494MOL0     H66684   1.557   2.962   7.556 -0.5106 -1.8145 -0.0440
  494MOL0     H66685   1.729   2.961   7.623  0.4925 -1.2063  3.3964
  494MOL0     H66686   1.650   2.588   7.784  0.4036 -0.3708 -2.2307
  494MOL0     H66687   1.613   3.608   7.835 -1.0492 -1.0431 -1.8561
  494MOL0     H66688   1.599   3.826   7.893 -1.1345 -2.4029 -1.7021
  494MOL0     H66689   1.432   3.874   7.887  0.5535 -2.1740 -1.0584
  494MOL0     H66690   1.519   3.884   8.045  3.3594 -0.3423  0.9338
  495MOL0     O66691   2.162  11.180  10.293 -0.4251 -0.5355 -0.1853
  495MOL0     C66692   2.062  11.157  10.359 -0.5141  0.7664 -0.9246
  495MOL0     O66693   2.050  11.136  10.501  0.0653  0.5393  0.3190
  495MOL0     C66694   2.151  11.179  10.576 -0.7240 -0.3721 -0.0144
  495MOL0     C66695   2.218  11.096  10.663 -0.0453 -0.7166 -0.5082
  495MOL0     C66696   2.329  11.138  10.735 -0.4672 -0.1242 -0.9516
  495MOL0     C66697   2.371  11.278  10.728 -0.1271  0.2677 -0.8264
  495MOL0     O66698   2.473  11.335  10.805 -0.2106  0.3487  0.0165
  495MOL0     C66699   2.510  11.258  10.921 -0.4777  0.6835 -0.8698
  495MOL0     C66700   2.601  11.334  11.020  0.6432 -0.8466  1.1044
  495MOL0     C66701   2.741  11.341  10.976 -0.4086 -0.0812 -0.5556
  495MOL0     C66702   2.834  11.299  11.091 -0.4906  0.6587  0.0016
  495MOL0     C66703   2.811  11.147  11.127  0.5660  0.4339 -0.0632
  495MOL0     C66704   2.871  11.050  11.025 -0.5188 -0.4174 -0.0049
  495MOL0     C66705   2.821  10.905  11.038  0.7073  0.0671  0.0838
  495MOL0     C66706   2.911  10.813  10.939  0.3503 -0.4909  0.5050
  495MOL0     N66707   3.038  10.782  11.006  0.1979 -0.2797 -0.1167
  495MOL0     C66708   3.146  10.860  11.005 -0.8981  0.3748 -0.7845
  495MOL0     C66709   3.226  10.808  11.106 -0.9369  0.9421 -0.5864
  495MOL0     C66710   3.365  10.859  11.141  0.1731  0.0023 -1.0704
  495MOL0     C66711   3.385  11.005  11.172 -0.3260  0.2358  0.0872
  495MOL0     C66712   3.531  11.050  11.144  0.2587 -0.8850 -0.5733
  495MOL0     C66713   3.536  11.194  11.163  0.5726 -0.3435 -0.2521
  495MOL0     O66714   3.530  11.219  11.309 -0.2707  0.4089  0.1173
  495MOL0     C66715   3.643  11.232  11.383  0.5404 -0.8693 -0.3916
  495MOL0     C66716   3.767  11.181  11.347 -0.1546 -0.1499 -0.5659
  495MOL0     C66717   3.886  11.199  11.425  0.8442 -0.1855 -0.0271
  495MOL0     C66718   3.879  11.266  11.543  0.3192 -0.9476  0.0047
  495MOL0     C66719   4.001  11.272  11.638 -1.0273 -0.0388  0.4338
  495MOL0     O66720   4.001  11.349  11.747  0.2072  0.0210  0.4705
  495MOL0     C66721   4.122  11.364  11.814 -0.4044 -1.0637  0.6632
  495MOL0     C66722   4.158  11.263  11.900  0.2557  0.0896 -0.7914
  495MOL0     C66723   4.274  11.287  11.975 -0.3677 -0.0779 -0.3738
  495MOL0     C66724   4.364  11.392  11.947 -0.1429  0.5123 -0.2930
  495MOL0     O66725   4.481  11.421  12.020 -0.0793 -0.5723  0.3798
  495MOL0     C66726   4.604  11.463  11.951  0.1672 -0.0061 -0.2863
  495MOL0     C66727   4.710  11.483  12.059  0.8459  0.6858  0.4865
  495MOL0     C66728   4.803  11.592  12.004 -0.1995  0.3053 -0.3464
  495MOL0     C66729   4.927  11.614  12.085 -0.2735 -0.9054 -0.5548
  495MOL0     C66730   4.890  11.650  12.237  0.4237  0.7306  0.5027
  495MOL0     C66731   5.020  11.686  12.311  0.9179 -1.5688 -0.8022
  495MOL0     C66732   5.130  11.583  12.319  0.7765 -0.1316 -0.4690
  495MOL0     C66733   5.090  11.443  12.384 -0.1109 -0.3367  0.0460
  495MOL0    Cl66734   5.155  11.317  12.283 -0.0995 -0.0114  0.1435
  495MOL0     C66735   4.325  11.489  11.856  0.3052  0.3717 -0.3101
  495MOL0     C66736   4.207  11.477  11.786  0.2389 -0.3949  0.8047
  495MOL0     O66737   4.098  11.205  11.599 -0.0420 -0.2342 -0.2861
  495MOL0     C66738   3.753  11.316  11.585 -0.0122 -0.4029 -0.6020
  495MOL0     C66739   3.638  11.302  11.504 -0.0921 -0.5176 -0.3116
  495MOL0     N66740   3.160  10.693  11.167  0.0874 -0.4571  1.1825
  495MOL0     N66741   3.052  10.684  11.096  0.0442  0.8032 -1.0417
  495MOL0     C66742   2.312  11.358  10.641  0.7484 -0.8912  1.0573
  495MOL0     C66743   2.200  11.310  10.569 -0.6760  0.0480 -0.9188
  495MOL0     C66744   1.946  11.105  10.276 -0.8507 -0.1341 -0.2170
  495MOL0     C66745   1.813  11.105  10.334  0.3633 -0.1345 -0.7074
  495MOL0     C66746   1.694  11.076  10.271  0.0882 -0.3593  0.1348
  495MOL0     C66747   1.705  11.027  10.145  0.6930  0.7247  1.4813
  495MOL0     O66748   1.602  10.983  10.067 -1.2072 -0.7134 -0.0979
  495MOL0     C66749   1.467  10.978  10.127  0.4136  0.3620 -1.4766
  495MOL0     C66750   1.462  10.869  10.243  0.6178 -0.0406  0.4276
  495MOL0     C66751   1.555  10.748  10.211 -1.1621  0.4567 -0.5271
  495MOL0     C66752   1.521  10.634  10.307  1.1528 -0.0166 -0.1384
  495MOL0     C66753   1.403  10.559  10.257  0.7053  0.3501 -0.4399
  495MOL0     C66754   1.311  10.487  10.216  0.3152 -0.2414  0.6070
  495MOL0     C66755   1.833  11.010  10.088  0.3493 -0.2694  0.7559
  495MOL0     C66756   1.951  11.049  10.148  1.1815 -0.0519  0.8535
  495MOL0     C66757   2.088  11.039  10.069  0.6252  0.9295 -0.4514
  495MOL0     H66758   2.174  10.998  10.679 -0.0549 -0.7951 -1.0072
  495MOL0     H66759   2.366  11.067  10.809 -2.1893 -2.2561 -2.0304
  495MOL0     H66760   2.423  11.230  10.981 -0.2530  2.7697  0.5110
  495MOL0     H66761   2.559  11.162  10.904 -0.1132  0.6700  0.2042
  495MOL0     H66762   2.592  11.295  11.121  1.3838 -2.3962  0.6129
  495MOL0     H66763   2.552  11.431  11.020  1.9305 -0.0828 -1.7273
  495MOL0     H66764   2.763  11.444  10.948 -1.9899 -0.0430 -1.8417
  495MOL0     H66765   2.752  11.304  10.873 -1.5930  0.8742 -1.0448
  495MOL0     H66766   2.937  11.306  11.055 -1.7931 -0.8756 -4.8143
  495MOL0     H66767   2.818  11.354  11.184 -0.8444  1.3995 -0.4835
  495MOL0     H66768   2.858  11.124  11.223 -0.9408 -1.3335  0.3155
  495MOL0     H66769   2.708  11.113  11.142  0.6909 -0.5289 -1.2579
  495MOL0     H66770   2.856  11.084  10.922 -1.9013  1.8029  0.8645
  495MOL0     H66771   2.980  11.057  11.020 -0.3274 -3.2251 -2.1466
  495MOL0     H66772   2.713  10.902  11.021  0.7247 -0.2163  0.0140
  495MOL0     H66773   2.826  10.867  11.141 -1.7708  1.7105  0.9011
  495MOL0     H66774   2.861  10.724  10.900 -0.6724 -0.3650  1.4862
  495MOL0     H66775   2.939  10.867  10.848 -3.2011 -1.5601 -1.4168
  495MOL0     H66776   3.177  10.940  10.937  0.0845 -2.6342 -4.1809
  495MOL0     H66777   3.420  10.807  11.221 -0.8193 -0.9312 -0.9758
  495MOL0     H66778   3.417  10.827  11.050  2.9500  0.1029  0.3507
  495MOL0     H66779   3.309  11.056  11.111  2.6485  4.6480 -0.4249
  495MOL0     H66780   3.367  11.020  11.279 -2.2725 -0.0745 -0.1648
  495MOL0     H66781   3.558  11.018  11.042  0.5960 -1.1825 -0.3924
  495MOL0     H66782   3.596  11.003  11.218  3.0547  0.9953 -1.6780
  495MOL0     H66783   3.453  11.243  11.112  1.5574  1.7038  0.0256
  495MOL0     H66784   3.630  11.225  11.118  0.3556 -1.3758 -1.4844
  495MOL0     H66785   3.782  11.138  11.249  0.7055  1.5602 -1.2220
  495MOL0     H66786   3.978  11.153  11.392 -0.3327 -1.1667 -2.1314
  495MOL0     H66787   4.097  11.176  11.924 -1.5649  1.3234 -0.6975
  495MOL0     H66788   4.308  11.225  12.058  2.0745  2.1380  0.4188
  495MOL0     H66789   4.634  11.388  11.877 -0.1019 -1.4493  1.0173
  495MOL0     H66790   4.569  11.549  11.894 -4.7935 -1.3321  0.3364
  495MOL0     H66791   4.670  11.510  12.157 -1.7607  0.4753 -0.4564
  495MOL0     H66792   4.758  11.385  12.070 -0.7002 -0.3548 -1.5564
  495MOL0     H66793   4.832  11.558  11.904  0.1193 -0.5103  0.0140
  495MOL0     H66794   4.738  11.679  11.989 -3.3474 -2.0103 -1.1535
  495MOL0     H66795   4.984  11.700  12.050  0.3457 -0.2102  1.9774
  495MOL0     H66796   5.001  11.534  12.073  1.2178  0.4138 -0.4556
  495MOL0     H66797   4.845  11.560  12.280 -0.4369  0.1143 -1.5655
  495MOL0     H66798   4.821  11.734  12.252 -3.4042 -1.8733 -0.9765
  495MOL0     H66799   5.051  11.782  12.269 -2.4028  0.5703  1.2108
  495MOL0     H66800   4.995  11.711  12.414  0.4732  0.4049 -1.3387
  495MOL0     H66801   5.209  11.624  12.383  1.3087 -3.1349  1.0130
  495MOL0     H66802   5.174  11.565  12.220 -2.4014 -1.3175 -1.7935
  495MOL0     H66803   5.128  11.443  12.487 -0.1349 -1.2764  0.0588
  495MOL0     H66804   4.982  11.431  12.394 -0.4716  1.0768 -1.7345
  495MOL0     H66805   4.387  11.575  11.837  1.0416  0.2901  1.4839
  495MOL0     H66806   4.176  11.557  11.720  2.2588  1.5542  2.0590
  495MOL0     H66807   3.739  11.357  11.685 -0.8200  1.3599 -1.3860
  495MOL0     H66808   3.540  11.328  11.542  0.2594  2.3228 -1.1370
  495MOL0     H66809   2.333  11.465  10.641  3.4507 -1.1756 -3.5700
  495MOL0     H66810   2.145  11.374  10.500 -0.9581 -0.7010 -1.3947
  495MOL0     H66811   1.812  11.141  10.436  1.4729 -0.5976 -0.5138
  495MOL0     H66812   1.601  11.090  10.326  0.6928  4.4099  0.3337
  495MOL0     H66813   1.392  10.943  10.056  0.2141  2.2569 -2.2587
  495MOL0     H66814   1.445  11.078  10.166  0.4308  0.4553 -1.7098
  495MOL0     H66815   1.358  10.837  10.246  1.2854 -2.4706  0.0665
  495MOL0     H66816   1.493  10.923  10.333  1.2675  2.9350 -1.4405
  495MOL0     H66817   1.656  10.790  10.221 -1.3671  2.0840 -3.9065
  495MOL0     H66818   1.559  10.725  10.104 -1.2026 -2.1841 -0.0089
  495MOL0     H66819   1.615  10.578  10.307  1.4607  0.3484  2.9444
  495MOL0     H66820   1.505  10.664  10.411  0.2097 -1.5094  0.1629
  495MOL0     H66821   1.228  10.424  10.189 -0.6657  2.0544 -2.2044
  495MOL0     H66822   1.839  10.965   9.989 -2.0001  2.9306 -1.0232
  495MOL0     H66823   2.183  11.023  10.121  0.2643  2.3834  0.7187
  495MOL0     H66824   2.075  10.963   9.991 -2.5653  1.8008 -0.9165
  495MOL0     H66825   2.090  11.142  10.032  1.5328  1.2000  0.3042
  496MOL0     O66826   0.621   8.987   0.150 -0.0056  0.6083  0.7850
  496MOL0     C66827   0.632   8.929   0.037  0.1111  0.2072 -0.9499
  496MOL0     O66828   0.528   8.905  -0.049  0.5144 -0.0218 -0.1238
  496MOL0     C66829   0.405   8.900  -0.005  1.2799  0.2164 -1.2503
  496MOL0     C66830   0.337   8.800  -0.063 -0.6769 -0.7928 -0.2111
  496MOL0     C66831   0.199   8.788  -0.045  0.7466  0.3681  0.1912
  496MOL0     C66832   0.132   8.886   0.029  0.0330  0.1124  0.1172
  496MOL0     O66833  -0.006   8.881   0.049  0.7900 -0.3930  0.0752
  496MOL0     C66834  -0.075   8.767   0.016  0.1463 -0.0199  0.3605
  496MOL0     C66835  -0.231   8.791   0.012 -1.3502  0.4456  0.2902
  496MOL0     C66836  -0.293   8.648  -0.000  0.5287 -0.0772 -0.9847
  496MOL0     C66837  -0.329   8.586  -0.135  0.3184 -0.6890  0.5376
  496MOL0     C66838  -0.365   8.439  -0.133 -0.1231  0.7866  0.4720
  496MOL0     C66839  -0.252   8.351  -0.084  1.0083  0.8227  0.5632
  496MOL0     C66840  -0.133   8.350  -0.185  0.2557 -0.3220 -0.3515
  496MOL0     C66841  -0.139   8.242  -0.294 -0.9426  0.2615 -1.4390
  496MOL0     N66842  -0.090   8.111  -0.240  1.2773  0.1574  0.3261
  496MOL0     C66843  -0.182   8.015  -0.185  0.0492 -0.4265  0.9053
  496MOL0     C66844  -0.096   7.902  -0.170 -0.3726  0.5209 -0.2859
  496MOL0     C66845  -0.146   7.770  -0.125  0.2152  0.4535 -0.5924
  496MOL0     C66846  -0.103   7.742   0.016 -0.1446 -0.0383 -0.6511
  496MOL0     C66847  -0.102   7.587   0.046  0.2107 -1.2942  0.0128
  496MOL0     C66848  -0.057   7.556   0.186 -0.0574  0.4818  0.5737
  496MOL0     O66849   0.088   7.551   0.209  0.6500  0.9141  0.0524
  496MOL0     C66850   0.123   7.485   0.327 -0.0846 -0.7879 -0.4526
  496MOL0     C66851   0.076   7.366   0.380  0.1975  0.4313 -0.5987
  496MOL0     C66852   0.142   7.321   0.493 -0.4875  0.1471 -0.4575
  496MOL0     C66853   0.235   7.394   0.563  0.3083  0.4559 -0.3462
  496MOL0     C66854   0.290   7.343   0.691 -0.1092 -0.8976 -0.1367
  496MOL0     O66855   0.391   7.426   0.751 -0.0620  0.4145  0.0617
  496MOL0     C66856   0.436   7.394   0.880 -0.0922 -0.3732  0.9612
  496MOL0     C66857   0.353   7.358   0.986 -0.7184 -0.1414  0.3166
  496MOL0     C66858   0.400   7.323   1.114 -0.1875  0.0726  0.1822
  496MOL0     C66859   0.542   7.303   1.119 -0.8672  0.3048 -0.5365
  496MOL0     O66860   0.607   7.244   1.228 -0.6486  0.0826 -0.1664
  496MOL0     C66861   0.528   7.213   1.341 -0.7757 -0.1089  0.3635
  496MOL0     C66862   0.531   7.333   1.427  0.1172 -0.8873 -1.1338
  496MOL0     C66863   0.469   7.308   1.571 -0.7651 -0.0916  0.1806
  496MOL0     C66864   0.582   7.271   1.665  0.0735 -0.9711  0.4604
  496MOL0     C66865   0.564   7.126   1.714 -0.3978 -0.6743 -0.3643
  496MOL0     C66866   0.642   7.108   1.842 -0.0124  1.0938  0.0562
  496MOL0     C66867   0.797   7.071   1.815 -0.4087  0.0943  0.5239
  496MOL0     C66868   0.878   7.110   1.931 -0.5428 -0.5809 -0.6421
  496MOL0    Cl66869   0.839   7.033   2.083 -0.0207  0.0363 -0.0768
  496MOL0     C66870   0.626   7.343   1.013 -0.1977  0.5793  0.9687
  496MOL0     C66871   0.573   7.398   0.893  0.3523 -0.0411 -0.2299
  496MOL0     O66872   0.250   7.238   0.740 -0.3567 -0.2995 -0.0978
  496MOL0     C66873   0.267   7.520   0.525  0.0912  0.1035  1.0474
  496MOL0     C66874   0.204   7.565   0.404 -0.3908  0.4923  0.4229
  496MOL0     N66875   0.034   7.936  -0.223  0.2740 -0.2338 -0.0451
  496MOL0     N66876   0.031   8.061  -0.267 -0.3060  0.0847 -0.0438
  496MOL0     C66877   0.203   8.998   0.073  0.2807  0.8294 -0.3069
  496MOL0     C66878   0.338   9.008   0.056 -0.7092  0.3642 -0.6606
  496MOL0     C66879   0.766   8.919  -0.017  1.5259  0.3090 -0.2122
  496MOL0     C66880   0.785   8.970  -0.148 -0.8231 -0.2862 -0.0366
  496MOL0     C66881   0.907   8.953  -0.210  0.6991  0.2693 -0.5220
  496MOL0     C66882   1.013   8.898  -0.137  0.3543 -0.6190 -0.2350
  496MOL0     O66883   1.139   8.868  -0.187 -0.8158 -0.0679 -0.1168
  496MOL0     C66884   1.190   8.907  -0.314  0.7813  0.0295  0.3439
  496MOL0     C66885   1.254   9.044  -0.317 -0.1875 -0.6006  0.2029
  496MOL0     C66886   1.382   9.050  -0.400  0.5079  0.3765  0.3360
  496MOL0     C66887   1.426   9.199  -0.400 -0.7204 -0.8536 -0.2090
  496MOL0     C66888   1.507   9.214  -0.271  0.0387 -0.8478  0.0395
  496MOL0     C66889   1.567   9.225  -0.173 -1.1255 -0.4101  0.5273
  496MOL0     C66890   0.994   8.858  -0.007 -0.7163 -0.1262  0.2406
  496MOL0     C66891   0.871   8.859   0.057 -0.0326 -0.6589  0.4621
  496MOL0     C66892   0.873   8.827   0.206  0.1329 -0.4333  0.5941
  496MOL0     H66893   0.376   8.724  -0.130 -1.3409  1.1988 -3.0012
  496MOL0     H66894   0.156   8.695  -0.082  2.0467 -0.7708  1.3960
  496MOL0     H66895  -0.060   8.753  -0.092  3.7845 -0.2170  0.7711
  496MOL0     H66896  -0.044   8.679   0.074  3.1903  0.5742 -0.1682
  496MOL0     H66897  -0.255   8.847  -0.079 -4.1712 -4.7950 -2.6500
  496MOL0     H66898  -0.269   8.850   0.096 -0.6251  0.2596  0.7563
  496MOL0     H66899  -0.387   8.654   0.055  0.6259 -1.6463 -0.6094
  496MOL0     H66900  -0.235   8.578   0.061 -0.2768  0.8503  0.9169
  496MOL0     H66901  -0.409   8.642  -0.184  0.5383  0.5002  1.5047
  496MOL0     H66902  -0.247   8.602  -0.205  0.7255 -3.6921  0.1770
  496MOL0     H66903  -0.449   8.412  -0.068 -0.5043  2.0772  0.5432
  496MOL0     H66904  -0.398   8.420  -0.235 -3.0556  2.2006  1.0427
  496MOL0     H66905  -0.227   8.388   0.016  4.9614  1.2871 -0.4182
  496MOL0     H66906  -0.296   8.252  -0.070 -0.3506  1.1650 -1.0237
  496MOL0     H66907  -0.040   8.340  -0.128  1.2387 -0.3557 -1.9010
  496MOL0     H66908  -0.129   8.446  -0.237 -1.5165  0.2191  0.4618
  496MOL0     H66909  -0.243   8.233  -0.324 -2.1200 -0.7107  2.3558
  496MOL0     H66910  -0.078   8.260  -0.383  3.5278  0.6181  1.3366
  496MOL0     H66911  -0.276   8.038  -0.136 -0.1160 -1.5368  1.1467
  496MOL0     H66912  -0.256   7.768  -0.130  0.1136  0.3403  1.0852
  496MOL0     H66913  -0.100   7.696  -0.190  1.3461 -1.4443  2.1705
  496MOL0     H66914  -0.005   7.787   0.031 -0.0906 -0.5073  0.4789
  496MOL0     H66915  -0.164   7.791   0.092  0.4595 -2.9128  1.8888
  496MOL0     H66916  -0.042   7.529  -0.025  2.7489 -2.8372  3.1677
  496MOL0     H66917  -0.205   7.551   0.047  0.1495 -1.2016 -1.0588
  496MOL0     H66918  -0.102   7.458   0.204  0.7661 -0.6880 -2.9754
  496MOL0     H66919  -0.107   7.627   0.253  0.0958  1.1263  0.0242
  496MOL0     H66920   0.006   7.299   0.332 -0.8716  0.7312  0.5056
  496MOL0     H66921   0.107   7.225   0.530 -2.4863 -0.1755 -2.8926
  496MOL0     H66922   0.246   7.362   0.969 -0.4645  1.1217 -1.2004
  496MOL0     H66923   0.321   7.301   1.185 -2.3278  3.3908 -0.9759
  496MOL0     H66924   0.424   7.183   1.324 -0.5007 -1.6603  1.2038
  496MOL0     H66925   0.585   7.128   1.379  3.5044  0.3742 -4.0979
  496MOL0     H66926   0.632   7.375   1.434 -1.4104  3.1260 -0.0699
  496MOL0     H66927   0.478   7.422   1.391  1.0375  0.5927  0.9340
  496MOL0     H66928   0.426   7.402   1.608  1.6590  0.9282  0.6311
  496MOL0     H66929   0.382   7.244   1.552 -1.7769  0.9505  1.1381
  496MOL0     H66930   0.583   7.345   1.744  3.1711  2.4679 -2.4145
  496MOL0     H66931   0.675   7.293   1.612 -1.1326  2.4012 -0.5135
  496MOL0     H66932   0.606   7.062   1.636  0.0412  0.2985 -0.9371
  496MOL0     H66933   0.460   7.099   1.735  0.2347 -3.4206 -0.4078
  496MOL0     H66934   0.649   7.204   1.894  3.8298 -1.2308  4.6408
  496MOL0     H66935   0.597   7.025   1.897  0.9147 -1.4506 -2.7990
  496MOL0     H66936   0.830   7.132   1.731  2.0868  0.4543  1.6895
  496MOL0     H66937   0.808   6.962   1.805  0.7993 -0.0622  2.9170
  496MOL0     H66938   0.985   7.099   1.911 -0.3016 -0.1932  0.3399
  496MOL0     H66939   0.875   7.218   1.949  1.3718 -0.7076  0.7381
  496MOL0     H66940   0.731   7.317   1.012 -0.3045  0.1394 -0.3685
  496MOL0     H66941   0.632   7.435   0.810 -0.6246 -3.5518 -2.7376
  496MOL0     H66942   0.336   7.582   0.582 -0.5988 -0.6208  2.7207
  496MOL0     H66943   0.233   7.662   0.364 -0.0182  0.2846  0.1916
  496MOL0     H66944   0.145   9.074   0.124 -0.2697  0.5630 -0.5257
  496MOL0     H66945   0.391   9.094   0.096 -0.4074 -0.1015 -0.0566
  496MOL0     H66946   0.709   9.014  -0.212 -0.6800 -0.4564 -0.3245
  496MOL0     H66947   0.923   8.991  -0.310  0.4194 -0.4018 -0.8273
  496MOL0     H66948   1.114   8.908  -0.393  0.6702 -0.2631  0.4445
  496MOL0     H66949   1.257   8.823  -0.334  2.5511  0.8422  2.4291
  496MOL0     H66950   1.291   9.056  -0.215  1.5038  1.6074 -0.5844
  496MOL0     H66951   1.196   9.128  -0.358  2.0175  1.5939  1.2664
  496MOL0     H66952   1.354   9.024  -0.502 -1.2968  2.5883  0.1911
  496MOL0     H66953   1.452   8.977  -0.358 -0.3352 -1.3449 -1.0961
  496MOL0     H66954   1.492   9.223  -0.484 -1.6441  0.1318 -0.6792
  496MOL0     H66955   1.336   9.258  -0.418 -0.5299 -0.7193 -0.7321
  496MOL0     H66956   1.644   9.243  -0.101 -2.4786  0.8485  1.7506
  496MOL0     H66957   1.090   8.827   0.033 -0.0942 -0.6028 -1.4970
  496MOL0     H66958   0.925   8.732   0.217 -2.1413 -1.7445  0.4637
  496MOL0     H66959   0.908   8.917   0.257 -0.8758  2.2701 -3.0304
  496MOL0     H66960   0.769   8.817   0.237 -2.3157  0.6542 -5.7409
  497MOL0     O66961   9.218   3.771   7.515 -0.1554 -0.0110  0.4467
  497MOL0     C66962   9.249   3.648   7.510 -0.0401 -0.4485 -0.4712
  497MOL0     O66963   9.363   3.604   7.564 -0.3615 -0.6365 -0.8253
  497MOL0     C66964   9.447   3.688   7.642  0.0002 -0.4543  0.3699
  497MOL0     C66965   9.509   3.793   7.580 -0.1334 -0.0985  0.6084
  497MOL0     C66966   9.592   3.882   7.646  0.5337 -0.2385 -1.3663
  497MOL0     C66967   9.614   3.863   7.783 -0.4833 -0.1900 -0.4846
  497MOL0     O66968   9.696   3.949   7.853 -0.1494 -0.0130 -0.3344
  497MOL0     C66969   9.648   4.023   7.965 -0.2702 -0.3809  0.5460
  497MOL0     C66970   9.770   4.064   8.038  0.6685 -0.5088 -0.1726
  497MOL0     C66971   9.823   3.941   8.114 -0.6577  0.6076  0.8334
  497MOL0     C66972   9.921   3.976   8.233 -0.8306 -0.2187 -0.7332
  497MOL0     C66973   9.982   3.848   8.294 -0.5502 -0.2346  0.0197
  497MOL0     C66974  10.088   3.893   8.407 -0.0825 -0.1164  0.6737
  497MOL0     C66975  10.084   3.763   8.505  1.0000 -1.0998 -0.3024
  497MOL0     C66976  10.191   3.785   8.615  0.3842  0.4462  0.1721
  497MOL0     N66977  10.188   3.678   8.704 -0.8472  0.3095 -0.2822
  497MOL0     C66978  10.179   3.679   8.839  0.4196 -0.7717 -1.0480
  497MOL0     C66979  10.152   3.556   8.875  0.8120 -1.0960 -0.9418
  497MOL0     C66980  10.123   3.510   9.021 -0.2181 -0.3040 -0.2125
  497MOL0     C66981  10.252   3.490   9.104 -0.5961  0.1680 -0.1555
  497MOL0     C66982  10.347   3.402   9.027  0.4267 -1.1558  0.1325
  497MOL0     C66983  10.479   3.370   9.091 -0.5019 -0.1758 -0.2588
  497MOL0     O66984  10.547   3.266   9.020 -0.2023 -0.6745 -0.9207
  497MOL0     C66985  10.669   3.216   9.079 -0.3710  0.8819  0.1967
  497MOL0     C66986  10.785   3.294   9.119  0.9584  0.6073 -0.6014
  497MOL0     C66987  10.908   3.231   9.162  0.2114 -1.9020  0.1646
  497MOL0     C66988  10.914   3.091   9.174 -0.2893  0.5828 -0.2937
  497MOL0     C66989  11.042   3.028   9.220 -0.1216 -0.0679 -0.6338
  497MOL0     O66990  11.058   2.894   9.183 -0.6276 -0.5210 -0.4301
  497MOL0     C66991  11.183   2.857   9.143 -0.2062  0.0361  0.3664
  497MOL0     C66992  11.271   2.928   9.059  0.2722 -0.5275  0.3224
  497MOL0     C66993  11.406   2.891   9.042  1.3543 -0.2344  0.2434
  497MOL0     C66994  11.453   2.783   9.107  0.4194  0.2786 -0.4550
  497MOL0     O66995  11.584   2.757   9.093 -0.3054 -0.3110 -0.9854
  497MOL0     C66996  11.653   2.721   9.212  0.4145  0.1880  0.2445
  497MOL0     C66997  11.798   2.728   9.193  0.1010  0.1571 -0.0105
  497MOL0     C66998  11.872   2.678   9.318 -1.3370 -0.2840  0.1174
  497MOL0     C66999  11.855   2.769   9.450 -0.5179 -0.0399  1.0459
  497MOL0     C67000  11.917   2.706   9.567 -0.7542  0.6821 -0.5143
  497MOL0     C67001  12.071   2.741   9.578 -0.0089 -0.4757 -0.2476
  497MOL0     C67002  12.135   2.704   9.718  0.1840 -0.2183  0.0540
  497MOL0     C67003  12.065   2.768   9.829 -0.4873 -0.0048 -0.3666
  497MOL0    Cl67004  12.133   2.746   9.988 -0.1257  0.3007 -0.6526
  497MOL0     C67005  11.363   2.709   9.191  0.5559  0.4656  0.1654
  497MOL0     C67006  11.228   2.744   9.202  1.5763 -0.5489  0.7123
  497MOL0     O67007  11.128   3.104   9.258  0.1814  0.3744 -0.3228
  497MOL0     C67008  10.799   3.014   9.136  0.6600 -0.5565  0.9305
  497MOL0     C67009  10.682   3.077   9.082  0.0360  0.4677 -0.3168
  497MOL0     N67010  10.146   3.471   8.769 -0.4453 -0.3460 -0.2996
  497MOL0     N67011  10.171   3.542   8.664  0.4631 -0.5093 -0.1363
  497MOL0     C67012   9.550   3.755   7.857 -0.5646  1.7751  0.9340
  497MOL0     C67013   9.481   3.660   7.777 -1.0096 -0.7319 -0.5202
  497MOL0     C67014   9.179   3.548   7.430  0.2628  0.5548  0.0863
  497MOL0     C67015   9.209   3.412   7.467  0.5492  0.9900  0.2161
  497MOL0     C67016   9.147   3.302   7.399  0.3294  0.2888 -0.9143
  497MOL0     C67017   9.053   3.326   7.300  0.0740  0.2780  0.2503
  497MOL0     O67018   9.005   3.218   7.234 -0.4586 -0.9628  0.6076
  497MOL0     C67019   8.904   3.228   7.132  0.9259  0.0750  0.3992
  497MOL0     C67020   8.769   3.241   7.193  0.1382  0.0366 -0.9885
  497MOL0     C67021   8.708   3.100   7.214 -0.0053 -0.0737  0.2880
  497MOL0     C67022   8.559   3.110   7.252 -0.0269  0.3960 -0.6735
  497MOL0     C67023   8.535   3.147   7.394 -0.1287 -0.0349  0.8601
  497MOL0     C67024   8.520   3.180   7.510  0.3897  0.3787  0.1523
  497MOL0     C67025   9.015   3.465   7.274 -0.7847  0.2811 -0.2260
  497MOL0     C67026   9.073   3.575   7.343 -0.4199  0.9790  0.1473
  497MOL0     C67027   9.024   3.715   7.310  0.2198 -0.2592 -0.6325
  497MOL0     H67028   9.513   3.799   7.471  2.7799 -2.8541  0.3813
  497MOL0     H67029   9.640   3.967   7.601 -0.3996  1.1334  0.1076
  497MOL0     H67030   9.585   4.105   7.930 -2.9081 -1.5966  2.0907
  497MOL0     H67031   9.586   3.951   8.020  0.2712 -0.8369  0.5685
  497MOL0     H67032   9.737   4.141   8.108 -0.3050 -0.3662 -0.7712
  497MOL0     H67033   9.859   4.095   7.982 -0.3979  1.8876 -0.6616
  497MOL0     H67034   9.890   3.891   8.044  1.1719  0.9098  2.2764
  497MOL0     H67035   9.744   3.868   8.135 -0.0297 -0.6117 -0.8521
  497MOL0     H67036   9.994   4.055   8.218 -2.0306  0.9849 -0.5031
  497MOL0     H67037   9.858   4.011   8.316 -0.9505 -2.1253  0.0527
  497MOL0     H67038   9.897   3.793   8.335  2.0548 -6.4222 -1.6479
  497MOL0     H67039  10.029   3.786   8.216  3.1249 -0.0212  1.8281
  497MOL0     H67040  10.188   3.909   8.367 -0.3749  2.1108  0.7057
  497MOL0     H67041  10.053   3.980   8.464 -0.1974  0.9102 -0.9217
  497MOL0     H67042  10.114   3.677   8.444  2.6060 -0.3496 -0.6141
  497MOL0     H67043   9.982   3.746   8.541  0.2037 -0.6133 -2.1764
  497MOL0     H67044  10.291   3.773   8.574  0.4987 -1.9213  0.9626
  497MOL0     H67045  10.157   3.881   8.656 -1.2916 -0.1853  0.3548
  497MOL0     H67046  10.195   3.764   8.904  2.9827 -1.2354 -0.9966
  497MOL0     H67047  10.058   3.587   9.066 -0.6215 -0.1309 -1.0780
  497MOL0     H67048  10.067   3.417   9.014  2.6815 -1.9878 -4.1921
  497MOL0     H67049  10.291   3.586   9.139  0.1908 -0.5005  0.8522
  497MOL0     H67050  10.221   3.434   9.193  0.5328 -1.2609 -0.6174
  497MOL0     H67051  10.366   3.458   8.934  2.5400 -0.3489  0.9686
  497MOL0     H67052  10.302   3.303   9.013 -2.6613  0.4484 -2.8742
  497MOL0     H67053  10.446   3.337   9.190 -1.5315 -0.5415 -0.7106
  497MOL0     H67054  10.531   3.466   9.099 -1.0106  0.0064  0.9647
  497MOL0     H67055  10.788   3.402   9.128 -0.4619  0.4644  3.9328
  497MOL0     H67056  10.995   3.284   9.201 -0.1091 -0.7671 -0.6073
  497MOL0     H67057  11.224   3.018   9.021 -1.4847 -0.3813  2.5879
  497MOL0     H67058  11.464   2.965   8.989  0.9979  1.2042  1.7794
  497MOL0     H67059  11.614   2.797   9.280  0.2941  2.8612 -2.6017
  497MOL0     H67060  11.610   2.626   9.243 -1.2180  0.2894 -1.5661
  497MOL0     H67061  11.831   2.657   9.116 -0.4575  0.7540 -0.8043
  497MOL0     H67062  11.832   2.827   9.163  0.5108 -0.0066 -0.1069
  497MOL0     H67063  11.834   2.577   9.336  0.7097 -1.5316 -2.0450
  497MOL0     H67064  11.980   2.669   9.303 -1.3282 -1.5972  0.8203
  497MOL0     H67065  11.749   2.787   9.467 -0.9093 -0.1252 -1.1094
  497MOL0     H67066  11.891   2.867   9.417 -0.2697 -0.4540  0.0508
  497MOL0     H67067  11.900   2.598   9.569 -1.1793  0.7118 -1.8434
  497MOL0     H67068  11.861   2.733   9.657 -0.8295 -2.3927  0.5018
  497MOL0     H67069  12.113   2.685   9.494 -1.1210  0.3083 -1.3481
  497MOL0     H67070  12.088   2.845   9.550 -1.2705 -0.0685  0.4297
  497MOL0     H67071  12.241   2.734   9.714  0.2095 -0.3609 -0.4256
  497MOL0     H67072  12.127   2.595   9.724  0.9904 -0.2475  0.8069
  497MOL0     H67073  12.062   2.874   9.802 -0.3684  0.1297  0.1278
  497MOL0     H67074  11.958   2.749   9.839 -0.1790 -2.9575 -1.6400
  497MOL0     H67075  11.398   2.623   9.246 -1.5018  0.9602  2.4292
  497MOL0     H67076  11.152   2.690   9.257 -0.9278 -0.8014 -2.6557
  497MOL0     H67077  10.799   2.906   9.140  3.6489 -0.8849 -2.7724
  497MOL0     H67078  10.599   3.016   9.046  0.9548 -0.5801 -0.7405
  497MOL0     H67079   9.571   3.728   7.960  2.9968 -0.8363 -0.2947
  497MOL0     H67080   9.438   3.578   7.833  1.6297 -0.0068  2.8884
  497MOL0     H67081   9.288   3.380   7.533  1.8687  5.5154  1.1925
  497MOL0     H67082   9.168   3.197   7.415 -2.0164 -0.1320 -0.2110
  497MOL0     H67083   8.900   3.147   7.059 -2.5005 -0.2941  0.7901
  497MOL0     H67084   8.911   3.324   7.080 -1.4469  0.8195  1.3219
  497MOL0     H67085   8.710   3.289   7.114  0.2570 -3.4395 -3.4379
  497MOL0     H67086   8.779   3.303   7.282  3.6303 -0.8566 -0.5841
  497MOL0     H67087   8.774   3.054   7.289  1.4369  2.3486  0.6077
  497MOL0     H67088   8.716   3.043   7.122 -1.7028  0.1366 -0.0146
  497MOL0     H67089   8.504   3.184   7.193 -3.2034 -1.2619 -0.0053
  497MOL0     H67090   8.515   3.011   7.238  2.6094 -1.1465  1.0015
  497MOL0     H67091   8.498   3.224   7.605 -2.0034  0.9463 -0.6146
  497MOL0     H67092   8.928   3.484   7.213 -0.8254  1.7522  0.2363
  497MOL0     H67093   8.946   3.713   7.233 -0.9393  2.7421  0.3246
  497MOL0     H67094   8.964   3.738   7.398 -2.1555 -3.1969 -1.3347
  497MOL0     H67095   9.100   3.794   7.299  2.4159 -2.2081 -0.3489
  498MOL0     O67096   0.688   3.247   3.214 -0.5837 -0.6712  0.4502
  498MOL0     C67097   0.750   3.354   3.202  0.0226 -0.3042  1.0932
  498MOL0     O67098   0.772   3.420   3.079  0.4608 -0.3197 -0.5225
  498MOL0     C67099   0.766   3.338   2.961 -0.2955  0.0929  0.1460
  498MOL0     C67100   0.882   3.299   2.886  0.7652  0.3024  0.1590
  498MOL0     C67101   0.880   3.227   2.769  0.3659  1.0334  0.2630
  498MOL0     C67102   0.747   3.205   2.717  0.5694 -0.3976 -0.5977
  498MOL0     O67103   0.716   3.151   2.596 -0.6596 -0.1217  0.2100
  498MOL0     C67104   0.816   3.154   2.494  0.2254 -0.3150 -0.6196
  498MOL0     C67105   0.906   3.036   2.491  0.8802  0.3120  0.6837
  498MOL0     C67106   1.018   3.068   2.391 -0.3670 -0.2633 -0.4930
  498MOL0     C67107   1.109   2.939   2.365 -0.1202  0.2537 -0.4615
  498MOL0     C67108   1.260   2.958   2.356  0.4475 -0.1713 -0.7132
  498MOL0     C67109   1.337   2.823   2.357 -0.2095 -0.6286 -0.7964
  498MOL0     C67110   1.366   2.782   2.502 -0.2031  1.1127  0.1212
  498MOL0     C67111   1.473   2.676   2.502  0.3059 -0.3400 -0.4592
  498MOL0     N67112   1.517   2.656   2.644 -0.2976  0.2242  1.0958
  498MOL0     C67113   1.476   2.556   2.728 -1.0170  0.0045 -0.5679
  498MOL0     C67114   1.540   2.577   2.845 -0.8195  0.8605  0.6672
  498MOL0     C67115   1.507   2.498   2.972 -0.1205 -0.5628 -0.2280
  498MOL0     C67116   1.355   2.474   2.989  0.5731 -0.0937 -0.2897
  498MOL0     C67117   1.321   2.326   2.951  0.2026 -0.6402 -0.1687
  498MOL0     C67118   1.178   2.292   2.910  0.0227 -0.5464  0.0169
  498MOL0     O67119   1.134   2.390   2.804 -0.1485 -0.7365 -0.3777
  498MOL0     C67120   1.165   2.372   2.673  0.3797 -0.8437 -0.1018
  498MOL0     C67121   1.247   2.266   2.628  0.3481  0.7977  0.6196
  498MOL0     C67122   1.262   2.250   2.491 -0.0215 -0.0426  0.4641
  498MOL0     C67123   1.181   2.318   2.403  0.0563 -0.0778  0.6185
  498MOL0     C67124   1.180   2.278   2.256 -0.8131  0.0789 -0.2537
  498MOL0     O67125   1.099   2.347   2.167 -0.7593  0.4972 -0.3588
  498MOL0     C67126   1.085   2.304   2.033  0.1902 -0.1303 -0.7579
  498MOL0     C67127   1.082   2.168   1.988 -0.0466  0.1605 -0.7953
  498MOL0     C67128   1.057   2.129   1.858  0.6363  0.2587 -1.0927
  498MOL0     C67129   1.028   2.224   1.764  0.6098  0.2981 -0.1047
  498MOL0     O67130   0.983   2.182   1.643  1.2580 -0.0837 -0.1363
  498MOL0     C67131   0.867   2.247   1.582  0.9825 -1.1484  0.0675
  498MOL0     C67132   0.905   2.291   1.436  0.5249 -0.5411  0.0677
  498MOL0     C67133   0.860   2.177   1.339  1.2433 -0.3038  0.1999
  498MOL0     C67134   0.917   2.186   1.191 -0.1556 -0.1446  0.5747
  498MOL0     C67135   0.900   2.076   1.082 -0.0657  0.3834 -0.8052
  498MOL0     C67136   0.981   2.066   0.960 -0.8056 -0.1257  0.3338
  498MOL0     C67137   0.931   1.958   0.864  0.4679 -0.4272 -1.0752
  498MOL0     C67138   1.019   1.921   0.740 -1.1470  0.4328  0.3782
  498MOL0    Cl67139   0.950   1.787   0.649 -0.1506 -0.4012  0.0362
  498MOL0     C67140   1.041   2.356   1.799 -0.2979 -0.9797 -0.2228
  498MOL0     C67141   1.067   2.401   1.935  0.4890  0.3986  1.1298
  498MOL0     O67142   1.262   2.186   2.223  0.2600  0.1863 -0.2874
  498MOL0     C67143   1.098   2.417   2.447  0.1487 -0.6741  0.5687
  498MOL0     C67144   1.093   2.442   2.582  0.4832  0.8627  0.1649
  498MOL0     N67145   1.632   2.675   2.826  0.5817 -0.0117 -0.7955
  498MOL0     N67146   1.615   2.722   2.709 -0.4521  0.0393 -0.3891
  498MOL0     C67147   0.635   3.248   2.788  0.6714  0.7961  1.3893
  498MOL0     C67148   0.633   3.317   2.908 -0.2001  0.4512  0.2051
  498MOL0     C67149   0.802   3.429   3.319  0.1371  0.4860 -0.8334
  498MOL0     C67150   0.915   3.508   3.299  0.9978 -0.0393 -0.7544
  498MOL0     C67151   0.971   3.581   3.395 -0.6245  0.5766  0.0508
  498MOL0     C67152   0.922   3.582   3.524  1.5488 -0.1368 -0.3989
  498MOL0     O67153   0.995   3.655   3.621  0.6665  0.6709 -0.1119
  498MOL0     C67154   0.935   3.669   3.750  0.1770 -0.0058 -0.4060
  498MOL0     C67155   1.009   3.785   3.838 -0.0246  0.3467 -0.1556
  498MOL0     C67156   0.946   3.788   3.973 -0.9392  0.2705 -0.7007
  498MOL0     C67157   0.985   3.668   4.064  0.3144  0.6203  0.3166
  498MOL0     C67158   1.125   3.650   4.098  0.4688 -0.7873 -1.7351
  498MOL0     C67159   1.243   3.648   4.121  1.6109  0.0382 -0.7849
  498MOL0     C67160   0.809   3.508   3.551 -0.8653  0.0998 -0.6658
  498MOL0     C67161   0.753   3.437   3.452 -0.4931  0.0084 -0.0470
  498MOL0     C67162   0.627   3.350   3.481  0.0640  0.1132 -0.7515
  498MOL0     H67163   0.975   3.342   2.923  1.8753 -1.8794  0.0544
  498MOL0     H67164   0.970   3.196   2.717 -0.9258 -4.1889  0.6498
  498MOL0     H67165   0.777   3.169   2.393  0.3969  4.1121 -0.2265
  498MOL0     H67166   0.861   3.251   2.517 -0.7396 -0.8863  5.0056
  498MOL0     H67167   0.846   2.953   2.454  1.5879  0.0299  0.1675
  498MOL0     H67168   0.930   3.003   2.593 -1.4459  1.1448  1.5779
  498MOL0     H67169   1.080   3.148   2.432  1.5717 -2.4264  1.0437
  498MOL0     H67170   0.977   3.108   2.297 -2.6452  2.7947  1.6150
  498MOL0     H67171   1.081   2.869   2.445 -0.0855  0.1413 -0.5491
  498MOL0     H67172   1.078   2.908   2.265 -0.4381 -1.4572  0.1414
  498MOL0     H67173   1.278   3.011   2.262 -3.1120  2.7879  0.0558
  498MOL0     H67174   1.298   3.013   2.443  0.1712  1.4961 -1.6026
  498MOL0     H67175   1.279   2.749   2.301 -0.6445  1.5665 -3.4030
  498MOL0     H67176   1.433   2.835   2.308 -0.4134  1.0212 -0.8492
  498MOL0     H67177   1.273   2.733   2.532  0.0916 -0.7320 -1.6991
  498MOL0     H67178   1.403   2.865   2.563  0.6676 -0.7084  2.1627
  498MOL0     H67179   1.419   2.584   2.477  2.2994 -2.1475  1.5246
  498MOL0     H67180   1.546   2.701   2.424 -0.3124  1.3662 -0.5323
  498MOL0     H67181   1.408   2.474   2.707 -1.7726  0.0908  1.3586
  498MOL0     H67182   1.554   2.399   2.971 -0.8098 -0.9987  2.7211
  498MOL0     H67183   1.547   2.561   3.052  0.3484  0.6916 -1.4236
  498MOL0     H67184   1.326   2.498   3.092  0.4831  3.0177 -0.9506
  498MOL0     H67185   1.294   2.540   2.926 -1.1117 -0.0434  1.3042
  498MOL0     H67186   1.349   2.263   3.035  1.7367 -0.8678 -0.8163
  498MOL0     H67187   1.382   2.300   2.864 -2.6861 -2.8032 -1.7252
  498MOL0     H67188   1.114   2.320   2.994 -0.1813  3.4698 -1.2412
  498MOL0     H67189   1.158   2.189   2.881 -0.4249 -0.6813  0.7571
  498MOL0     H67190   1.295   2.195   2.695  0.8874  0.6244  0.0636
  498MOL0     H67191   1.323   2.166   2.458 -0.0500 -0.0778  0.5007
  498MOL0     H67192   1.094   2.082   2.052 -1.2728 -0.4067 -1.2912
  498MOL0     H67193   1.034   2.031   1.819 -3.6111  0.9790 -0.9569
  498MOL0     H67194   0.786   2.174   1.591 -0.1827 -0.1319 -1.5504
  498MOL0     H67195   0.827   2.330   1.642  3.0044  1.3100 -1.7507
  498MOL0     H67196   0.857   2.385   1.406  0.9404 -0.7372 -1.2805
  498MOL0     H67197   1.010   2.314   1.418  0.4280  1.5068  1.7637
  498MOL0     H67198   0.870   2.080   1.388 -1.0176  0.2082  1.8532
  498MOL0     H67199   0.753   2.191   1.318  1.2577  1.2596  0.9452
  498MOL0     H67200   1.026   2.194   1.197 -0.0163 -1.5539  0.4833
  498MOL0     H67201   0.893   2.286   1.154  3.7930  0.7840  0.0616
  498MOL0     H67202   0.794   2.084   1.054 -1.4177 -0.3012  3.4407
  498MOL0     H67203   0.923   1.979   1.126 -1.7822 -0.6514 -2.0688
  498MOL0     H67204   0.977   2.158   0.902 -0.1015 -0.8903 -0.9557
  498MOL0     H67205   1.085   2.058   0.992 -0.1505  0.5736 -1.5285
  498MOL0     H67206   0.830   1.990   0.835 -1.2330 -1.0269  3.3559
  498MOL0     H67207   0.907   1.870   0.924  0.2059  0.8214  0.7232
  498MOL0     H67208   1.028   2.011   0.677  1.7982 -1.3366 -2.0012
  498MOL0     H67209   1.120   1.892   0.770  0.3056 -0.4723 -4.4704
  498MOL0     H67210   1.031   2.422   1.713  0.9536 -0.4303  0.0350
  498MOL0     H67211   1.091   2.501   1.971  1.1077  0.6463  0.0785
  498MOL0     H67212   1.033   2.469   2.377  0.2778 -0.8259  0.3338
  498MOL0     H67213   1.030   2.525   2.611 -0.2312  0.2491  0.3892
  498MOL0     H67214   0.537   3.233   2.745  0.5992  1.4321  1.3136
  498MOL0     H67215   0.541   3.343   2.958 -1.4730 -4.2018  0.7990
  498MOL0     H67216   0.965   3.519   3.204 -0.2869  2.1699 -1.2419
  498MOL0     H67217   1.064   3.632   3.372 -0.7971  0.8496 -0.0537
  498MOL0     H67218   0.937   3.582   3.816 -3.3557  2.7141  3.8163
  498MOL0     H67219   0.828   3.688   3.741 -0.6907 -3.7046  0.3773
  498MOL0     H67220   0.986   3.887   3.808 -1.6956 -0.0851 -0.4593
  498MOL0     H67221   1.115   3.762   3.846 -0.3645 -0.8960  1.2983
  498MOL0     H67222   0.838   3.776   3.958 -0.9818  0.4160 -0.5135
  498MOL0     H67223   0.978   3.881   4.022  0.7696 -0.9221  0.5531
  498MOL0     H67224   0.925   3.681   4.155  0.1532 -0.6783  0.4200
  498MOL0     H67225   0.962   3.566   4.032  2.9395 -0.1486  0.6394
  498MOL0     H67226   1.343   3.639   4.158  1.2309 -0.3204  0.1875
  498MOL0     H67227   0.759   3.501   3.647 -1.8842 -2.3727 -1.2965
  498MOL0     H67228   0.634   3.242   3.467  0.1689 -0.0629  0.5497
  498MOL0     H67229   0.600   3.356   3.587  3.8347 -0.1479  0.3611
  498MOL0     H67230   0.540   3.396   3.434 -0.0088  0.4857 -0.2621
  499MOL0     O67231   9.204   8.031   4.886  0.2110  0.3735  0.1510
  499MOL0     C67232   9.194   8.075   4.999 -0.8010  0.2061 -0.2275
  499MOL0     O67233   9.177   8.211   5.032 -0.6137  0.5092 -0.3312
  499MOL0     C67234   9.079   8.283   4.956 -0.0965  0.8236 -0.6083
  499MOL0     C67235   9.112   8.345   4.833 -0.4382  0.0882 -0.2013
  499MOL0     C67236   9.014   8.387   4.743 -0.3786  0.2863  0.3875
  499MOL0     C67237   8.876   8.367   4.788 -0.3789 -0.1273  0.7666
  499MOL0     O67238   8.771   8.432   4.724  0.5878  0.3286 -0.0012
  499MOL0     C67239   8.794   8.548   4.635  0.7138 -0.3361 -0.1144
  499MOL0     C67240   8.670   8.639   4.624 -0.3630  0.2743 -0.9402
  499MOL0     C67241   8.676   8.778   4.556  1.0081  0.9466  0.3746
  499MOL0     C67242   8.724   8.773   4.408  0.1692  0.1133 -0.4016
  499MOL0     C67243   8.711   8.915   4.341 -0.0788 -0.0854 -0.4048
  499MOL0     C67244   8.753   8.911   4.195  0.3388 -0.5323 -0.0407
  499MOL0     C67245   8.674   8.812   4.103  0.5968 -0.3891 -0.4861
  499MOL0     C67246   8.650   8.876   3.966  0.1088 -0.1484 -0.0246
  499MOL0     N67247   8.530   8.974   3.971 -0.3676  0.5473  0.6545
  499MOL0     C67248   8.403   8.928   3.993  0.3196  0.2906  0.0016
  499MOL0     C67249   8.328   9.048   4.012  0.8089  0.3739  0.5539
  499MOL0     C67250   8.179   9.072   4.013  0.4639  1.0353  0.6957
  499MOL0     C67251   8.079   8.956   3.986 -0.1596  0.3822 -0.4475
  499MOL0     C67252   8.077   8.903   3.844  0.5427  0.0432  0.2799
  499MOL0     C67253   8.044   9.015   3.736 -0.0215  0.3087  0.3961
  499MOL0     O67254   8.029   8.949   3.611 -0.1020 -0.7090  0.2733
  499MOL0     C67255   8.153   8.914   3.556  0.2517 -0.5681 -0.1544
  499MOL0     C67256   8.155   8.811   3.461 -0.2904 -0.4434 -0.0045
  499MOL0     C67257   8.279   8.760   3.415 -0.6004  0.5280 -0.4603
  499MOL0     C67258   8.394   8.791   3.478 -0.5059  0.0275 -0.4103
  499MOL0     C67259   8.521   8.718   3.442  0.2582 -0.9987  0.4142
  499MOL0     O67260   8.526   8.646   3.322 -0.7444 -0.2008  0.1569
  499MOL0     C67261   8.634   8.559   3.305  0.8930  0.3512 -0.4925
  499MOL0     C67262   8.618   8.423   3.324 -0.6449 -0.7075  1.1178
  499MOL0     C67263   8.723   8.329   3.294  0.5077  0.3802  0.0281
  499MOL0     C67264   8.851   8.367   3.267  0.1764 -0.0904 -0.0010
  499MOL0     O67265   8.958   8.284   3.248 -0.2361 -0.2663 -0.7610
  499MOL0     C67266   9.084   8.317   3.302 -0.9875  0.4379 -0.2554
  499MOL0     C67267   9.177   8.207   3.246  0.7048  0.0230 -0.5603
  499MOL0     C67268   9.238   8.251   3.097  0.1860 -0.2195 -0.6279
  499MOL0     C67269   9.230   8.137   3.004 -1.1534 -0.3450 -0.2472
  499MOL0     C67270   9.251   8.168   2.859  0.1493 -0.0362 -0.9263
  499MOL0     C67271   9.402   8.149   2.834  0.7590  0.5879 -0.7162
  499MOL0     C67272   9.413   8.167   2.691  0.3584  0.4023 -0.9199
  499MOL0     C67273   9.555   8.205   2.667 -0.7611  0.2568 -0.2158
  499MOL0    Cl67274   9.674   8.072   2.698  0.0380  0.4157  0.1402
  499MOL0     C67275   8.862   8.505   3.247  0.7612 -0.1112  0.3157
  499MOL0     C67276   8.761   8.598   3.278  0.7163  0.1084  0.0054
  499MOL0     O67277   8.610   8.729   3.528 -0.0595 -0.4140  0.9914
  499MOL0     C67278   8.404   8.898   3.566 -0.0918 -0.3851 -1.1684
  499MOL0     C67279   8.281   8.956   3.613 -0.3924  0.6155  1.0934
  499MOL0     N67280   8.415   9.157   4.011 -0.2001  0.1276 -0.3805
  499MOL0     N67281   8.535   9.110   3.984 -0.6190 -0.6214  0.1228
  499MOL0     C67282   8.846   8.298   4.908  0.2986 -0.1510  0.1724
  499MOL0     C67283   8.950   8.263   4.989 -0.2445 -0.2647 -0.4068
  499MOL0     C67284   9.207   7.989   5.121 -1.3433  0.2582  0.4949
  499MOL0     C67285   9.263   8.037   5.236  0.2498 -0.0828  0.2010
  499MOL0     C67286   9.296   7.976   5.354 -0.1158 -0.6099  0.8551
  499MOL0     C67287   9.255   7.843   5.360  0.7260  0.3078 -0.0286
  499MOL0     O67288   9.251   7.776   5.475 -0.1367 -0.9450  0.5296
  499MOL0     C67289   9.351   7.809   5.581  1.0074 -0.7765  0.1192
  499MOL0     C67290   9.501   7.789   5.550  0.3874  0.6013  0.8761
  499MOL0     C67291   9.536   7.643   5.502 -0.1276  0.4689 -0.0648
  499MOL0     C67292   9.682   7.609   5.506 -0.1116  0.1667  0.2149
  499MOL0     C67293   9.757   7.668   5.400  0.0632  0.9414  0.3905
  499MOL0     C67294   9.796   7.727   5.305 -0.2550 -0.5239 -0.2500
  499MOL0     C67295   9.196   7.789   5.251 -0.2698 -0.3967  0.1460
  499MOL0     C67296   9.178   7.855   5.129  0.5658 -0.1905  0.0506
  499MOL0     C67297   9.144   7.770   5.005 -0.2220  0.6057  0.5006
  499MOL0     H67298   9.214   8.363   4.800 -1.0687  6.1559  0.0307
  499MOL0     H67299   9.040   8.436   4.650 -1.9677  0.6772  0.1214
  499MOL0     H67300   8.877   8.607   4.674  1.3406 -2.0852  1.3050
  499MOL0     H67301   8.820   8.520   4.532 -2.4481  4.4702 -2.6205
  499MOL0     H67302   8.635   8.655   4.727 -1.0373 -1.0456 -0.9386
  499MOL0     H67303   8.590   8.585   4.571  1.9846  0.3447 -4.9276
  499MOL0     H67304   8.739   8.846   4.614 -1.1276  4.3020 -0.9254
  499MOL0     H67305   8.573   8.814   4.559 -0.1370 -1.5658 -2.8860
  499MOL0     H67306   8.828   8.740   4.417 -0.3616 -0.9788  5.3361
  499MOL0     H67307   8.662   8.696   4.360  0.5402  0.6291 -1.7723
  499MOL0     H67308   8.608   8.951   4.338 -0.2842 -0.3435  2.0324
  499MOL0     H67309   8.763   8.991   4.400  0.9326 -1.1802  0.1843
  499MOL0     H67310   8.733   9.014   4.162  1.7022 -1.1869 -3.2273
  499MOL0     H67311   8.857   8.879   4.204 -0.1285 -1.8352  0.9094
  499MOL0     H67312   8.572   8.796   4.140  0.3210  2.9581  0.4867
  499MOL0     H67313   8.725   8.718   4.080 -2.5513 -1.5352 -3.8329
  499MOL0     H67314   8.740   8.925   3.929 -1.7408  1.8407 -2.1614
  499MOL0     H67315   8.621   8.799   3.893  2.1276  0.1745 -1.2261
  499MOL0     H67316   8.368   8.825   3.997  1.1710 -0.0538 -0.8604
  499MOL0     H67317   8.160   9.121   4.110 -3.6428  0.7151  0.2435
  499MOL0     H67318   8.152   9.154   3.945 -1.0026 -0.7416 -0.9637
  499MOL0     H67319   8.087   8.868   4.050 -2.2009 -1.0641 -2.0730
  499MOL0     H67320   7.974   8.985   3.995 -1.0045 -1.8012 -2.4743
  499MOL0     H67321   7.984   8.844   3.841  0.6526 -0.1464  0.5016
  499MOL0     H67322   8.154   8.829   3.820 -0.3336 -0.2941 -1.7049
  499MOL0     H67323   8.114   9.098   3.740  0.2295  0.0811  0.7808
  499MOL0     H67324   7.948   9.064   3.757  0.5585  2.0349 -0.8215
  499MOL0     H67325   8.062   8.765   3.431 -0.6037 -0.9632  1.7034
  499MOL0     H67326   8.283   8.677   3.345  0.0024  0.0707  0.0970
  499MOL0     H67327   8.520   8.387   3.355 -1.4065  0.1300 -0.2035
  499MOL0     H67328   8.715   8.222   3.304  0.4480  0.2355 -1.4069
  499MOL0     H67329   9.137   8.407   3.268  0.4448 -0.1390  0.3519
  499MOL0     H67330   9.062   8.320   3.409  0.8411  3.0975  0.1594
  499MOL0     H67331   9.258   8.190   3.317  0.2333 -2.1140 -0.4802
  499MOL0     H67332   9.130   8.110   3.232  0.7250 -0.3596  1.7160
  499MOL0     H67333   9.178   8.333   3.056 -0.6578 -0.5498 -0.1000
  499MOL0     H67334   9.343   8.275   3.115  0.5210 -1.5587 -0.6567
  499MOL0     H67335   9.129   8.096   3.007 -1.6604  0.7538  3.5713
  499MOL0     H67336   9.292   8.052   3.035  1.0443  0.4363 -2.1485
  499MOL0     H67337   9.213   8.266   2.829  0.5518  0.8672  1.3834
  499MOL0     H67338   9.181   8.098   2.811  0.5488 -1.3505  0.3302
  499MOL0     H67339   9.450   8.221   2.902  2.1621 -0.8329 -0.1445
  499MOL0     H67340   9.435   8.052   2.872  2.0591  1.5384  0.7208
  499MOL0     H67341   9.352   8.254   2.662 -1.6058 -0.6905 -0.2541
  499MOL0     H67342   9.370   8.079   2.643 -0.5221  0.2032  0.1684
  499MOL0     H67343   9.563   8.222   2.559 -0.5097 -0.3507 -0.2975
  499MOL0     H67344   9.592   8.289   2.726  0.7524  0.6754 -1.7064
  499MOL0     H67345   8.962   8.542   3.224  0.5991  0.6285  0.7735
  499MOL0     H67346   8.787   8.699   3.249  1.1638  0.4392  1.4792
  499MOL0     H67347   8.502   8.926   3.603  0.7267 -2.4750 -1.6183
  499MOL0     H67348   8.290   9.032   3.690 -0.2105 -0.4483  2.1494
  499MOL0     H67349   8.739   8.290   4.924  0.3710 -1.7156 -0.0009
  499MOL0     H67350   8.918   8.209   5.078 -1.2398 -1.5121 -1.4743
  499MOL0     H67351   9.294   8.141   5.240  1.4016 -0.3672 -0.8934
  499MOL0     H67352   9.328   8.040   5.435  1.6477  1.0266 -1.0313
  499MOL0     H67353   9.321   7.744   5.664 -2.3844 -1.4415 -1.4748
  499MOL0     H67354   9.335   7.914   5.609 -3.1644 -0.9963 -0.7975
  499MOL0     H67355   9.569   7.812   5.633 -0.1859  1.5412  1.0928
  499MOL0     H67356   9.529   7.861   5.473 -0.4332 -0.5945 -0.5895
  499MOL0     H67357   9.499   7.643   5.399 -0.7733  0.6773  0.1587
  499MOL0     H67358   9.490   7.573   5.572  1.4190 -0.5771 -0.0530
  499MOL0     H67359   9.725   7.642   5.601  1.7484  3.7888 -1.6853
  499MOL0     H67360   9.678   7.500   5.497 -3.9872  0.2855 -1.2131
  499MOL0     H67361   9.821   7.793   5.225  0.3904 -1.4643 -0.8512
  499MOL0     H67362   9.166   7.686   5.268  0.4794 -0.4796  1.0172
  499MOL0     H67363   9.049   7.807   4.965 -0.9201 -0.8832  0.7029
  499MOL0     H67364   9.220   7.771   4.927 -3.0010 -0.9865 -2.4643
  499MOL0     H67365   9.133   7.667   5.038  1.4522 -0.9705 -3.3538
  500MOL0     O67366   6.183  10.557   0.347 -0.3916 -0.3101 -0.0589
  500MOL0     C67367   6.156  10.635   0.438  0.7589 -0.0691  0.2984
  500MOL0     O67368   6.188  10.763   0.449 -0.3033 -0.2351  0.5143
  500MOL0     C67369   6.246  10.827   0.346  0.0606  0.1324  0.7951
  500MOL0     C67370   6.352  10.770   0.267  0.1673 -0.0800 -0.0267
  500MOL0     C67371   6.411  10.860   0.165  0.4464  0.4521 -0.6318
  500MOL0     C67372   6.371  10.992   0.145 -0.4389  0.1113  0.1897
  500MOL0     O67373   6.425  11.070   0.045  0.0863 -0.1221 -0.2326
  500MOL0     C67374   6.558  11.041  -0.009 -0.0551 -0.2717 -0.7509
  500MOL0     C67375   6.615  11.160  -0.102  0.0988  0.5100 -1.0558
  500MOL0     C67376   6.758  11.191  -0.062 -0.6708  0.3322 -0.0301
  500MOL0     C67377   6.859  11.069  -0.069 -0.0606 -1.1239 -0.9062
  500MOL0     C67378   7.007  11.119  -0.065  0.1667  0.5700  0.7596
  500MOL0     C67379   7.046  11.200  -0.198  1.0982  0.1721 -0.4178
  500MOL0     C67380   7.014  11.116  -0.330  0.2845  0.0828  0.0017
  500MOL0     C67381   6.873  11.155  -0.403  0.6960 -0.0052  0.3704
  500MOL0     N67382   6.864  11.294  -0.429  0.1855  0.0103 -0.4555
  500MOL0     C67383   6.906  11.370  -0.532 -0.1898 -0.0207  0.9151
  500MOL0     C67384   6.834  11.481  -0.530  0.3508 -0.6524 -0.7597
  500MOL0     C67385   6.850  11.580  -0.634 -0.6437 -1.2489  0.6839
  500MOL0     C67386   6.729  11.641  -0.687  0.8976  0.4713 -0.1340
  500MOL0     C67387   6.671  11.550  -0.795 -1.9880 -0.0494 -0.1876
  500MOL0     C67388   6.541  11.587  -0.842 -0.3276  0.0431  0.4969
  500MOL0     O67389   6.436  11.585  -0.742  0.0213 -0.2639  0.3328
  500MOL0     C67390   6.367  11.473  -0.723  0.2672  0.5808  0.3813
  500MOL0     C67391   6.255  11.492  -0.646  0.3787  0.3070 -0.0779
  500MOL0     C67392   6.165  11.392  -0.609  0.1989 -0.1046  0.9055
  500MOL0     C67393   6.179  11.272  -0.677 -0.1190  0.0126 -0.2517
  500MOL0     C67394   6.081  11.156  -0.655  0.5620 -0.0968 -0.4821
  500MOL0     O67395   5.984  11.196  -0.569 -0.5709 -0.5991 -0.5467
  500MOL0     C67396   5.888  11.112  -0.520 -0.5426  0.4860  0.2881
  500MOL0     C67397   5.821  11.018  -0.612  0.2487 -1.0931  0.8547
  500MOL0     C67398   5.727  10.932  -0.573 -0.8782 -0.1675 -0.2405
  500MOL0     C67399   5.681  10.934  -0.440  0.7796 -0.0418  0.4339
  500MOL0     O67400   5.575  10.869  -0.391  0.5503  0.9360 -0.6338
  500MOL0     C67401   5.546  10.738  -0.443 -0.7028 -0.3911 -0.8229
  500MOL0     C67402   5.450  10.667  -0.347  0.4243 -1.1919  0.3993
  500MOL0     C67403   5.525  10.611  -0.224 -0.5335 -0.3147  0.3669
  500MOL0     C67404   5.431  10.584  -0.104 -0.2001  0.2538 -0.2429
  500MOL0     C67405   5.521  10.546   0.019  0.4670  0.3794 -0.9388
  500MOL0     C67406   5.435  10.557   0.145 -0.3125  0.7963 -0.1380
  500MOL0     C67407   5.526  10.558   0.263  0.1787 -0.4196  1.0722
  500MOL0     C67408   5.449  10.504   0.381 -0.4035  0.1470 -0.8190
  500MOL0    Cl67409   5.567  10.469   0.498 -0.0377  0.0808 -0.4260
  500MOL0     C67410   5.742  11.025  -0.355  0.2285 -1.0175  0.1221
  500MOL0     C67411   5.845  11.116  -0.388 -0.0552 -0.1160  0.7953
  500MOL0     O67412   6.109  11.041  -0.688  0.8643 -0.4397  0.2765
  500MOL0     C67413   6.298  11.245  -0.750  0.0862 -0.4839  0.0931
  500MOL0     C67414   6.396  11.347  -0.779 -0.7630  0.5297 -1.3520
  500MOL0     N67415   6.759  11.491  -0.421  0.5794  0.6123  0.1743
  500MOL0     N67416   6.768  11.376  -0.369 -0.7647  0.2182  0.1511
  500MOL0     C67417   6.272  11.036   0.230  1.0109 -0.8680 -0.5261
  500MOL0     C67418   6.213  10.959   0.330 -0.5096 -0.2270 -0.6531
  500MOL0     C67419   6.078  10.580   0.544 -0.2161  0.5090  0.2840
  500MOL0     C67420   6.139  10.480   0.621  0.6428  0.8726 -0.7700
  500MOL0     C67421   6.070  10.406   0.718 -0.5421 -0.2264  0.2667
  500MOL0     C67422   5.936  10.453   0.746  0.2838 -0.1157 -0.3428
  500MOL0     O67423   5.863  10.417   0.852 -0.2509  0.2035  0.5752
  500MOL0     C67424   5.931  10.354   0.960 -0.0522  0.3489  0.2142
  500MOL0     C67425   5.831  10.390   1.068  0.4803 -0.2073 -1.4279
  500MOL0     C67426   5.687  10.334   1.067  0.6008 -0.3234 -0.5567
  500MOL0     C67427   5.616  10.371   1.197  0.3030  0.5206  0.5521
  500MOL0     C67428   5.566  10.508   1.191 -0.1841 -0.7228  0.5759
  500MOL0     C67429   5.526  10.623   1.193  0.3660  0.1455  0.8039
  500MOL0     C67430   5.874  10.559   0.677  0.2287  0.1272  1.1165
  500MOL0     C67431   5.938  10.608   0.563  0.2673  0.4861  0.6499
  500MOL0     C67432   5.857  10.709   0.476 -0.0876 -0.9266 -0.4958
  500MOL0     H67433   6.380  10.666   0.278 -0.5468 -0.2497  0.2316
  500MOL0     H67434   6.499  10.815   0.119 -1.2467 -3.9452 -0.0791
  500MOL0     H67435   6.621  11.025   0.079  0.2977 -1.7570 -1.2480
  500MOL0     H67436   6.551  10.956  -0.077  0.6669  1.0594 -2.5607
  500MOL0     H67437   6.562  11.254  -0.079 -0.1210 -0.0925  1.2269
  500MOL0     H67438   6.615  11.141  -0.209 -2.3821 -0.2076 -1.0092
  500MOL0     H67439   6.763  11.239   0.036 -0.2784  1.4126 -0.5598
  500MOL0     H67440   6.786  11.275  -0.127  0.5752 -0.1130 -0.0934
  500MOL0     H67441   6.837  11.011   0.021 -2.1656  2.9849  1.4934
  500MOL0     H67442   6.832  10.998  -0.148 -1.1974 -1.5835 -0.1260
  500MOL0     H67443   7.043  11.182   0.017  3.7160  0.8986 -0.8517
  500MOL0     H67444   7.069  11.028  -0.069 -0.4843  0.0997 -2.8944
  500MOL0     H67445   6.995  11.296  -0.197 -2.2040 -1.4399 -1.0031
  500MOL0     H67446   7.150  11.236  -0.202  0.8227  0.9058 -1.1469
  500MOL0     H67447   7.019  11.008  -0.313  1.0781 -0.0636 -1.0622
  500MOL0     H67448   7.098  11.147  -0.393 -1.2920  2.5262 -1.0153
  500MOL0     H67449   6.867  11.104  -0.500  3.5783  0.3872 -0.1264
  500MOL0     H67450   6.786  11.116  -0.350 -1.8751 -3.9351 -5.6757
  500MOL0     H67451   6.967  11.328  -0.611 -0.6833  2.0984 -0.6958
  500MOL0     H67452   6.920  11.648  -0.585 -0.4381 -0.7046 -0.3214
  500MOL0     H67453   6.897  11.533  -0.721  0.8992 -0.1753  0.9033
  500MOL0     H67454   6.649  11.657  -0.614  1.2310  1.2499  0.0683
  500MOL0     H67455   6.746  11.744  -0.717 -1.9335  1.0217 -0.0725
  500MOL0     H67456   6.669  11.448  -0.757 -2.8656 -0.3270 -0.9407
  500MOL0     H67457   6.735  11.538  -0.882  1.0169 -1.7507  2.0609
  500MOL0     H67458   6.511  11.524  -0.926 -3.9759  3.1174 -0.7607
  500MOL0     H67459   6.550  11.682  -0.895 -1.3691  0.9709  1.9173
  500MOL0     H67460   6.245  11.598  -0.624  2.9929  1.0510 -2.0234
  500MOL0     H67461   6.070  11.408  -0.560 -0.6962 -1.2741 -0.3740
  500MOL0     H67462   5.862  11.015  -0.712  0.1539  3.1172  0.5184
  500MOL0     H67463   5.682  10.851  -0.629 -1.6551 -0.1664  0.3603
  500MOL0     H67464   5.495  10.745  -0.539 -4.0258  0.2560  0.8220
  500MOL0     H67465   5.643  10.687  -0.440  0.7588  2.2213 -0.2297
  500MOL0     H67466   5.381  10.736  -0.297  1.6148 -0.5981  1.2416
  500MOL0     H67467   5.397  10.581  -0.391 -0.4876  0.3640 -1.7358
  500MOL0     H67468   5.560  10.508  -0.236 -2.6314 -1.0936  0.5762
  500MOL0     H67469   5.619  10.666  -0.212 -0.6944  1.0125 -3.1453
  500MOL0     H67470   5.357  10.506  -0.122 -0.5143  0.6766 -0.8236
  500MOL0     H67471   5.386  10.681  -0.082 -1.4396  0.2688 -2.4690
  500MOL0     H67472   5.605  10.615   0.030 -2.0426  3.4290  0.7252
  500MOL0     H67473   5.556  10.442   0.019  1.4078  0.6319  1.2923
  500MOL0     H67474   5.371  10.646   0.150  2.8701  3.4311 -1.9725
  500MOL0     H67475   5.375  10.466   0.154  0.4236  0.4657  1.8206
  500MOL0     H67476   5.563  10.660   0.279  1.0755 -1.0023  3.0841
  500MOL0     H67477   5.616  10.498   0.248  2.9349  3.7630 -1.4246
  500MOL0     H67478   5.387  10.585   0.423  1.4358 -0.8812  4.8264
  500MOL0     H67479   5.392  10.416   0.348 -3.2941  1.9660 -1.0949
  500MOL0     H67480   5.702  11.030  -0.255  0.1223 -3.0084  0.2075
  500MOL0     H67481   5.887  11.190  -0.322  1.7958  1.4158 -1.9277
  500MOL0     H67482   6.298  11.144  -0.791  1.3949 -1.1391  1.6183
  500MOL0     H67483   6.478  11.323  -0.846  3.0571  0.2050  2.9537
  500MOL0     H67484   6.245  11.141   0.226 -2.1614 -1.4412  1.5566
  500MOL0     H67485   6.140  10.996   0.402  1.1096 -0.7228  1.3249
  500MOL0     H67486   6.244  10.456   0.607  0.5333  0.9631 -1.9096
  500MOL0     H67487   6.114  10.329   0.781 -1.0480  0.3506  1.3640
  500MOL0     H67488   6.032  10.392   0.980 -0.8019  2.8827 -0.5368
  500MOL0     H67489   5.941  10.249   0.931  2.3687  0.3979  0.6361
  500MOL0     H67490   5.837  10.494   1.101 -0.6341 -0.6104  0.1832
  500MOL0     H67491   5.867  10.328   1.151 -0.9615 -1.8188 -1.9664
  500MOL0     H67492   5.690  10.226   1.051  0.0429 -0.1494 -2.0935
  500MOL0     H67493   5.638  10.390   0.986 -0.3911  0.2523  0.4143
  500MOL0     H67494   5.523  10.314   1.203 -0.7030  2.1839  1.4014
  500MOL0     H67495   5.675  10.349   1.287  2.0218  1.5411 -0.2800
  500MOL0     H67496   5.483  10.719   1.210 -2.3218 -0.4440 -1.7726
  500MOL0     H67497   5.775  10.594   0.705 -0.3416  0.1606 -0.8318
  500MOL0     H67498   5.868  10.686   0.370 -2.5414  2.7432 -1.7770
  500MOL0     H67499   5.750  10.716   0.498  0.1244 -0.6564  0.5224
  500MOL0     H67500   5.900  10.809   0.490  0.3948 -0.9149 -1.9022
  501MOL0     O67501   5.696   6.749  10.741 -0.0290  0.0226  0.4172
  501MOL0     C67502   5.643   6.637  10.742 -0.8276  0.0792 -0.3187
  501MOL0     O67503   5.689   6.537  10.821 -0.4475  0.4520  0.1728
  501MOL0     C67504   5.788   6.539  10.915  1.0422 -0.6179 -0.2034
  501MOL0     C67505   5.784   6.453  11.021 -0.4819 -0.6772  0.2675
  501MOL0     C67506   5.890   6.444  11.107 -0.4966  0.3783 -0.4411
  501MOL0     C67507   6.013   6.515  11.094  0.6296 -0.0753  0.7913
  501MOL0     O67508   6.121   6.512  11.174  0.0200 -0.3724  0.2635
  501MOL0     C67509   6.104   6.429  11.293 -0.0737 -0.3929 -0.1691
  501MOL0     C67510   6.246   6.426  11.367 -0.5320  1.4111 -0.2004
  501MOL0     C67511   6.291   6.280  11.379  0.0734  0.0599 -0.6069
  501MOL0     C67512   6.421   6.277  11.458 -0.5064  0.0461  0.0912
  501MOL0     C67513   6.465   6.136  11.515 -0.2087 -0.0041  0.2493
  501MOL0     C67514   6.374   6.093  11.633  0.2360  0.7893 -0.1117
  501MOL0     C67515   6.396   5.951  11.692  0.9037 -0.0910 -0.8503
  501MOL0     C67516   6.305   5.927  11.810  0.9110 -0.4092 -0.1341
  501MOL0     N67517   6.376   5.972  11.931  1.7663 -0.6806  0.2519
  501MOL0     C67518   6.482   5.898  11.981  0.8880 -0.7053 -0.6930
  501MOL0     C67519   6.517   5.964  12.091 -0.6776 -0.9778 -0.2095
  501MOL0     C67520   6.635   5.931  12.183 -0.2617 -0.7664 -0.1413
  501MOL0     C67521   6.722   5.821  12.126 -0.5204  0.1768 -0.3488
  501MOL0     C67522   6.815   5.870  12.014  0.3067 -0.3389 -1.5606
  501MOL0     C67523   6.892   5.752  11.954 -0.1819 -0.2918 -0.1825
  501MOL0     O67524   6.807   5.685  11.856 -0.2298  0.5446 -0.1721
  501MOL0     C67525   6.806   5.716  11.725  0.5032 -0.2774 -0.9945
  501MOL0     C67526   6.728   5.640  11.637  0.0420 -0.6113  0.4103
  501MOL0     C67527   6.711   5.672  11.500  0.0266 -0.8631  0.0117
  501MOL0     C67528   6.782   5.786  11.456  0.2578 -0.5547 -0.3229
  501MOL0     C67529   6.779   5.812  11.311 -0.2541 -0.3434 -0.8802
  501MOL0     O67530   6.806   5.942  11.285  1.1237 -0.1098  0.3392
  501MOL0     C67531   6.769   5.988  11.154 -0.2013 -0.4902  0.4276
  501MOL0     C67532   6.855   6.074  11.085 -1.0629  0.4432 -0.5514
  501MOL0     C67533   6.824   6.123  10.955 -0.3267  0.4006  0.7554
  501MOL0     C67534   6.702   6.084  10.897  0.0641 -0.4796 -1.1108
  501MOL0     O67535   6.653   6.123  10.766 -0.0704 -0.4966 -0.9566
  501MOL0     C67536   6.718   6.231  10.695  0.0507 -0.1846 -0.2795
  501MOL0     C67537   6.618   6.284  10.583 -0.4916  0.1839  0.1840
  501MOL0     C67538   6.694   6.390  10.501  0.2837  0.6789  0.4492
  501MOL0     C67539   6.613   6.437  10.383  0.7126 -1.0076  0.6548
  501MOL0     C67540   6.564   6.580  10.403  0.1329 -0.5079 -0.3936
  501MOL0     C67541   6.492   6.635  10.280  0.3221  0.1927 -0.1717
  501MOL0     C67542   6.391   6.757  10.304  0.3388  0.8882 -0.2400
  501MOL0     C67543   6.466   6.888  10.330 -0.2626 -0.2837 -0.7467
  501MOL0    Cl67544   6.622   6.903  10.230 -0.5863  0.2717 -0.3623
  501MOL0     C67545   6.611   6.015  10.980 -0.6959 -0.2026  0.5933
  501MOL0     C67546   6.644   5.966  11.103  0.4717 -0.4834  0.7606
  501MOL0     O67547   6.744   5.727  11.235  0.0129  0.1745  0.1184
  501MOL0     C67548   6.847   5.870  11.542 -0.0363 -0.3585 -0.6816
  501MOL0     C67549   6.866   5.830  11.677  0.6402 -1.2314 -0.0474
  501MOL0     N67550   6.438   6.074  12.111  0.3796  0.3676  0.4665
  501MOL0     N67551   6.354   6.078  12.017  1.1781 -0.7267 -0.4792
  501MOL0     C67552   6.019   6.610  10.988  0.2340  0.3600 -0.3195
  501MOL0     C67553   5.900   6.629  10.909 -0.8796  0.8038  0.4775
  501MOL0     C67554   5.543   6.597  10.644  0.2775 -0.7874 -0.2712
  501MOL0     C67555   5.543   6.458  10.597  0.9372 -0.2060  0.6595
  501MOL0     C67556   5.439   6.412  10.516 -0.7051 -0.7225 -0.1131
  501MOL0     C67557   5.345   6.503  10.467 -0.3432  0.2312  0.1003
  501MOL0     O67558   5.253   6.463  10.384  0.4845 -1.0085  0.1566
  501MOL0     C67559   5.282   6.477  10.239  0.4516 -0.0297 -0.0932
  501MOL0     C67560   5.335   6.350  10.174  0.6084 -0.1528  0.2770
  501MOL0     C67561   5.420   6.378  10.041  0.2704 -0.4080 -0.1424
  501MOL0     C67562   5.333   6.418   9.924 -1.0613 -0.8103  0.0072
  501MOL0     C67563   5.404   6.470   9.807 -0.4217  0.1208 -0.3592
  501MOL0     C67564   5.485   6.491   9.719  0.1550 -0.4380  0.5846
  501MOL0     C67565   5.342   6.636  10.502  0.1428 -0.9360 -0.0390
  501MOL0     C67566   5.443   6.683  10.582 -0.1843  0.5411  1.6146
  501MOL0     C67567   5.427   6.821  10.615 -1.0964 -0.4826 -0.1906
  501MOL0     H67568   5.691   6.398  11.030 -0.1595 -0.9557  2.6012
  501MOL0     H67569   5.881   6.375  11.190  3.6361 -1.6336 -1.4083
  501MOL0     H67570   6.018   6.447  11.358 -1.0572 -0.4484 -1.4327
  501MOL0     H67571   6.084   6.328  11.257 -0.5168  0.3577 -2.1035
  501MOL0     H67572   6.238   6.462  11.470 -0.0027  0.3175  0.2449
  501MOL0     H67573   6.326   6.482  11.317  1.0725  0.6904  1.4500
  501MOL0     H67574   6.301   6.239  11.278  1.4269  0.6755 -0.7388
  501MOL0     H67575   6.217   6.217  11.430  1.8354 -2.5352 -1.0452
  501MOL0     H67576   6.494   6.302  11.380  1.2353  0.5518  1.8070
  501MOL0     H67577   6.435   6.362  11.525  5.7910  0.0775 -0.6700
  501MOL0     H67578   6.448   6.057  11.442 -2.3142  0.1900  0.4674
  501MOL0     H67579   6.571   6.130  11.541  0.5840 -0.0443 -2.6506
  501MOL0     H67580   6.378   6.173  11.708 -1.8628  2.7377 -1.9358
  501MOL0     H67581   6.270   6.089  11.597  0.1985  2.7172 -0.3311
  501MOL0     H67582   6.500   5.933  11.719  0.3098 -4.3130 -0.6975
  501MOL0     H67583   6.376   5.880  11.611 -0.3916 -0.8516  0.0966
  501MOL0     H67584   6.207   5.973  11.795  2.3252  1.7709 -4.2558
  501MOL0     H67585   6.292   5.818  11.810  0.9810 -0.4619 -2.3574
  501MOL0     H67586   6.532   5.808  11.948 -1.3709 -2.7446  1.0655
  501MOL0     H67587   6.698   6.014  12.217  2.3610 -3.8399  3.3338
  501MOL0     H67588   6.577   5.893  12.268 -1.6903 -2.5506 -1.8328
  501MOL0     H67589   6.778   5.784  12.212 -3.2881  0.5325  1.7467
  501MOL0     H67590   6.654   5.739  12.099 -1.9898  2.0225 -2.6269
  501MOL0     H67591   6.869   5.949  12.067  0.3207 -0.4718 -1.3756
  501MOL0     H67592   6.757   5.910  11.930 -2.9145  0.0881  0.6561
  501MOL0     H67593   6.916   5.686  12.038 -0.9277  3.2197  3.1122
  501MOL0     H67594   6.990   5.773  11.911  0.7141  0.7341  2.2015
  501MOL0     H67595   6.686   5.549  11.679  0.6185 -0.7915  0.6157
  501MOL0     H67596   6.639   5.609  11.449 -2.9433  1.3994  1.0742
  501MOL0     H67597   6.948   6.110  11.127  1.4785 -3.9225 -1.8350
  501MOL0     H67598   6.876   6.200  10.898 -0.1269 -0.4435 -0.2340
  501MOL0     H67599   6.755   6.317  10.751  3.7187 -0.6609 -1.6829
  501MOL0     H67600   6.806   6.193  10.641 -1.1700 -0.9568 -1.8334
  501MOL0     H67601   6.563   6.212  10.522 -0.7790  0.2146  0.4000
  501MOL0     H67602   6.530   6.334  10.626 -1.3349  0.9432 -2.2721
  501MOL0     H67603   6.736   6.468  10.564 -2.4487  1.5092  1.3365
  501MOL0     H67604   6.779   6.340  10.452 -0.7760 -1.6328  0.8136
  501MOL0     H67605   6.521   6.379  10.380 -0.7367  0.5196  5.8003
  501MOL0     H67606   6.663   6.431  10.286  2.0293 -0.7728  1.2852
  501MOL0     H67607   6.649   6.645  10.426 -0.3324  0.1171 -0.4110
  501MOL0     H67608   6.494   6.597  10.486 -1.8837  2.7162 -2.5253
  501MOL0     H67609   6.572   6.657  10.209  2.2571 -2.6696  0.9304
  501MOL0     H67610   6.441   6.553  10.228 -1.1250  2.6552 -2.8709
  501MOL0     H67611   6.334   6.738  10.396  0.1039  1.2946 -0.2971
  501MOL0     H67612   6.331   6.765  10.213  0.3918  0.9740 -0.2672
  501MOL0     H67613   6.405   6.978  10.316 -1.0139 -0.3951  1.3777
  501MOL0     H67614   6.486   6.881  10.437 -1.7713 -1.6734 -0.5185
  501MOL0     H67615   6.517   5.995  10.928  0.1235 -1.5962 -0.4114
  501MOL0     H67616   6.574   5.897  11.148 -0.3443 -0.2752 -0.1568
  501MOL0     H67617   6.899   5.953  11.495  1.8042 -1.0237  0.0565
  501MOL0     H67618   6.923   5.899  11.738  1.5309  1.6580 -3.7795
  501MOL0     H67619   6.106   6.674  10.983  1.2392 -0.8471  0.9170
  501MOL0     H67620   5.918   6.709  10.838 -1.9690 -1.2710 -2.3583
  501MOL0     H67621   5.617   6.390  10.639  2.2010  2.5683  3.3543
  501MOL0     H67622   5.431   6.310  10.481 -2.2959  0.6403 -4.4069
  501MOL0     H67623   5.361   6.549  10.215 -1.0957  1.2343 -1.6845
  501MOL0     H67624   5.198   6.520  10.186  2.3520  2.1909 -1.4943
  501MOL0     H67625   5.254   6.283  10.144  1.0261 -0.3979 -0.3457
  501MOL0     H67626   5.403   6.284  10.228  0.3089 -1.2773 -0.6774
  501MOL0     H67627   5.469   6.282  10.027 -1.7896 -1.4114 -0.9803
  501MOL0     H67628   5.495   6.457  10.053 -0.6477  0.9534 -2.5080
  501MOL0     H67629   5.273   6.330   9.896 -0.9326 -0.5987 -0.9621
  501MOL0     H67630   5.263   6.497   9.953  0.6127  0.3585  1.0237
  501MOL0     H67631   5.572   6.515   9.660  0.7563 -0.5553  1.4004
  501MOL0     H67632   5.263   6.699  10.462  1.6611  1.2393  0.1908
  501MOL0     H67633   5.526   6.868  10.620 -0.3287 -1.8703 -1.5346
  501MOL0     H67634   5.360   6.875  10.548 -0.3293  0.2709 -0.3802
  501MOL0     H67635   5.387   6.835  10.716  2.0176 -0.3860  1.1307
  502MOL0     O67636  10.085   2.903  11.430 -0.0121 -0.3260  0.1062
  502MOL0     C67637  10.037   3.010  11.409 -0.6024 -0.3745 -0.1022
  502MOL0     O67638   9.918   3.026  11.339  1.2586  0.0789  1.1358
  502MOL0     C67639   9.867   2.915  11.270 -0.2879  0.3225  0.1663
  502MOL0     C67640   9.881   2.889  11.132 -1.1659 -0.7018 -1.0149
  502MOL0     C67641   9.848   2.763  11.078  0.2808 -0.5448  0.1325
  502MOL0     C67642   9.786   2.665  11.154  0.4328  0.5972  0.1211
  502MOL0     O67643   9.745   2.542  11.101 -0.4110  0.6159 -0.3589
  502MOL0     C67644   9.791   2.507  10.977 -0.1159 -0.3905  1.0892
  502MOL0     C67645   9.774   2.359  10.936  0.8187  0.3903  0.3694
  502MOL0     C67646   9.626   2.325  10.932  0.3342 -1.3537 -0.3864
  502MOL0     C67647   9.582   2.187  10.889  0.6127 -0.5632  0.1936
  502MOL0     C67648   9.584   2.171  10.734 -0.3936  0.0825  0.1952
  502MOL0     C67649   9.468   2.246  10.664 -0.0151 -0.1069 -0.2512
  502MOL0     C67650   9.443   2.219  10.521  0.3233 -0.0697  0.0198
  502MOL0     C67651   9.400   2.075  10.485  0.1444  0.4573 -0.0942
  502MOL0     N67652   9.395   2.058  10.336  0.3536  0.0605  0.6848
  502MOL0     C67653   9.310   2.118  10.252  0.1520  0.4106  0.6012
  502MOL0     C67654   9.357   2.100  10.126 -0.8286 -0.1491 -0.7060
  502MOL0     C67655   9.269   2.132  10.006  0.6976 -0.1693  0.3540
  502MOL0     C67656   9.337   2.163   9.871 -0.7787 -0.6873 -0.2744
  502MOL0     C67657   9.251   2.193   9.757  0.9497  0.5159  0.9035
  502MOL0     C67658   9.227   2.076   9.669 -0.4559  0.3795  0.3863
  502MOL0     O67659   9.348   2.032   9.610 -0.2339 -0.1878 -0.3467
  502MOL0     C67660   9.346   1.898   9.591 -0.6571 -0.0696  0.2391
  502MOL0     C67661   9.342   1.801   9.695 -0.3244  0.1349  0.5224
  502MOL0     C67662   9.340   1.662   9.666  1.2596 -0.3486  0.3660
  502MOL0     C67663   9.347   1.605   9.536  0.3293  1.0894  0.5319
  502MOL0     C67664   9.352   1.462   9.519  0.0842 -0.9901 -0.1305
  502MOL0     O67665   9.382   1.427   9.396 -0.3027 -0.5853  0.3621
  502MOL0     C67666   9.426   1.299   9.376  0.3039 -0.6187 -0.5902
  502MOL0     C67667   9.550   1.249   9.427 -0.4490 -0.2131 -0.8058
  502MOL0     C67668   9.599   1.125   9.385 -0.5520  0.8903 -1.1261
  502MOL0     C67669   9.528   1.052   9.291 -0.1217 -0.3232  0.4445
  502MOL0     O67670   9.569   0.938   9.230 -1.4600 -0.1933 -0.3023
  502MOL0     C67671   9.686   0.961   9.153  0.1281  0.5800  0.6235
  502MOL0     C67672   9.684   0.869   9.023  0.8041  0.2541  0.3892
  502MOL0     C67673   9.779   0.921   8.906 -0.5356  0.1828  0.3540
  502MOL0     C67674   9.824   0.818   8.801  0.3172  0.4739  0.9790
  502MOL0     C67675   9.707   0.738   8.730  1.3961  0.0757 -0.0332
  502MOL0     C67676   9.622   0.837   8.642  0.1901 -0.1135 -0.8696
  502MOL0     C67677   9.557   0.765   8.530  0.6884  0.3767  0.8977
  502MOL0     C67678   9.509   0.623   8.561  0.0466  0.3818  0.0691
  502MOL0    Cl67679   9.407   0.556   8.425 -0.3486 -0.4288 -0.0925
  502MOL0     C67680   9.408   1.103   9.243 -0.0397  0.0916 -0.6844
  502MOL0     C67681   9.353   1.220   9.292 -0.8037 -0.3448 -0.8275
  502MOL0     O67682   9.312   1.391   9.607 -0.5745 -0.1948 -0.7859
  502MOL0     C67683   9.357   1.706   9.430 -0.0032 -0.5737 -0.4277
  502MOL0     C67684   9.356   1.847   9.459 -0.3358  0.3387  1.1347
  502MOL0     N67685   9.479   2.032  10.134  0.3600  0.0931  0.0292
  502MOL0     N67686   9.493   2.012  10.259  0.4066  0.9276 -0.1309
  502MOL0     C67687   9.766   2.689  11.289  0.0499 -0.0606 -1.0639
  502MOL0     C67688   9.808   2.808  11.338  0.8591 -0.3674 -0.8826
  502MOL0     C67689  10.107   3.129  11.469  0.0148  0.8070 -0.2458
  502MOL0     C67690  10.074   3.250  11.424 -0.7440 -1.1414  0.6612
  502MOL0     C67691  10.142   3.364  11.462 -0.3884 -0.1357 -0.0536
  502MOL0     C67692  10.233   3.363  11.571  0.8727  0.3762 -0.4299
  502MOL0     O67693  10.285   3.478  11.625 -0.2425  0.1163 -0.1532
  502MOL0     C67694  10.223   3.607  11.609 -0.4481 -0.1301 -0.3884
  502MOL0     C67695  10.279   3.709  11.705  0.7919  0.3298 -0.0777
  502MOL0     C67696  10.401   3.780  11.644  0.8133 -0.7152 -0.8376
  502MOL0     C67697  10.514   3.689  11.618 -0.0942 -0.5095  0.7232
  502MOL0     C67698  10.630   3.758  11.564 -0.7053 -0.1043  0.0482
  502MOL0     C67699  10.743   3.805  11.525 -0.6658  0.0525 -0.3215
  502MOL0     C67700  10.266   3.237  11.622 -0.0475 -0.1622  0.1330
  502MOL0     C67701  10.207   3.117  11.574  0.2303  1.2429 -0.4331
  502MOL0     C67702  10.259   2.992  11.637 -0.6835 -0.2585  0.5554
  502MOL0     H67703   9.942   2.953  11.069 -1.8999  0.7375 -0.3085
  502MOL0     H67704   9.884   2.744  10.977  0.1902 -1.0834  0.2000
  502MOL0     H67705   9.735   2.564  10.903  1.7337  0.1022  0.0041
  502MOL0     H67706   9.898   2.528  10.970 -0.0999 -0.1947  1.7886
  502MOL0     H67707   9.830   2.301  11.011  0.7924 -1.5715 -1.0657
  502MOL0     H67708   9.815   2.340  10.837 -1.5822  0.1330 -0.6360
  502MOL0     H67709   9.574   2.408  10.883 -1.2889 -0.8312  2.0531
  502MOL0     H67710   9.582   2.320  11.032 -2.7422 -0.2462 -1.5579
  502MOL0     H67711   9.665   2.133  10.937  3.1793  1.5398 -1.5924
  502MOL0     H67712   9.480   2.169  10.924  0.5759 -0.6484  0.0405
  502MOL0     H67713   9.683   2.205  10.703  1.2922 -1.7062  3.1794
  502MOL0     H67714   9.584   2.064  10.714  0.8565 -1.3076  5.9193
  502MOL0     H67715   9.372   2.223  10.711 -0.0930 -0.2988 -0.5072
  502MOL0     H67716   9.481   2.354  10.677 -4.6839  0.7877 -1.1622
  502MOL0     H67717   9.517   2.261  10.452  0.7921 -0.9619 -0.0324
  502MOL0     H67718   9.356   2.282  10.501  0.7644  0.9813  1.2838
  502MOL0     H67719   9.467   1.995  10.519 -1.3284 -1.3844 -1.3001
  502MOL0     H67720   9.298   2.056  10.521 -0.2333  3.3709  0.6327
  502MOL0     H67721   9.210   2.159  10.265 -0.2483  0.1038 -1.2233
  502MOL0     H67722   9.196   2.051   9.996  1.3009 -0.6579 -0.2545
  502MOL0     H67723   9.198   2.212  10.030  0.9705 -0.3776  1.9753
  502MOL0     H67724   9.407   2.246   9.886 -0.2147 -1.0713 -0.7457
  502MOL0     H67725   9.405   2.078   9.858  0.8956  0.9721 -3.6529
  502MOL0     H67726   9.288   2.275   9.694 -0.1401 -0.2588 -0.8125
  502MOL0     H67727   9.151   2.215   9.794  0.4771 -0.8603  0.4862
  502MOL0     H67728   9.154   2.102   9.591  0.2285  1.4142  0.0674
  502MOL0     H67729   9.184   1.995   9.729  1.3678 -0.7936  0.1767
  502MOL0     H67730   9.349   1.830   9.799  1.2819  0.8482  0.2550
  502MOL0     H67731   9.330   1.593   9.749 -3.6438  0.6926  0.9266
  502MOL0     H67732   9.606   1.312   9.494 -0.5641  0.6346 -1.4851
  502MOL0     H67733   9.695   1.086   9.414 -1.3726 -0.9746 -0.7942
  502MOL0     H67734   9.688   1.065   9.120  2.0492  0.9961  1.8684
  502MOL0     H67735   9.773   0.938   9.216 -0.1733 -3.0885 -0.0569
  502MOL0     H67736   9.713   0.771   9.063  1.1304  0.4430  0.6206
  502MOL0     H67737   9.578   0.868   8.995  1.2787  4.2700 -2.4341
  502MOL0     H67738   9.727   1.003   8.855  0.5341 -0.1010 -1.2904
  502MOL0     H67739   9.874   0.952   8.951  0.9253 -1.7908 -1.1817
  502MOL0     H67740   9.885   0.743   8.851  1.3801  0.8309  0.2511
  502MOL0     H67741   9.877   0.877   8.725 -0.5140 -0.2715 -0.2209
  502MOL0     H67742   9.644   0.691   8.806 -0.3339 -2.2829 -2.7071
  502MOL0     H67743   9.755   0.651   8.683 -1.5265 -2.5393  1.4733
  502MOL0     H67744   9.553   0.903   8.694  2.6424  2.1007 -0.2345
  502MOL0     H67745   9.686   0.915   8.600  0.5152  1.5744  2.4266
  502MOL0     H67746   9.636   0.752   8.455 -0.3444  4.0817 -1.0724
  502MOL0     H67747   9.478   0.822   8.481  1.4561  1.4155  0.8454
  502MOL0     H67748   9.590   0.551   8.573  1.1768  1.6968  0.6350
  502MOL0     H67749   9.448   0.624   8.651  1.3497 -0.9962  1.0091
  502MOL0     H67750   9.357   1.053   9.162  0.2105 -2.5603  0.6846
  502MOL0     H67751   9.270   1.276   9.251 -0.5001  1.2870  0.6594
  502MOL0     H67752   9.335   1.695   9.324 -3.0125  1.1542 -0.1060
  502MOL0     H67753   9.360   1.916   9.375  0.3984 -1.4231 -0.3505
  502MOL0     H67754   9.717   2.615  11.351 -0.8908 -0.1139 -1.8525
  502MOL0     H67755   9.801   2.818  11.445 -1.9288  2.9913 -1.1943
  502MOL0     H67756   9.991   3.264  11.354  1.2158  3.0217 -1.1594
  502MOL0     H67757  10.104   3.455  11.417 -0.4835 -0.1053  0.0850
  502MOL0     H67758  10.116   3.595  11.628 -0.4783  2.5824  1.7885
  502MOL0     H67759  10.249   3.625  11.504  2.2170 -2.7556 -0.3137
  502MOL0     H67760  10.302   3.662  11.801 -1.8746  0.5573  0.7586
  502MOL0     H67761  10.200   3.784  11.709  0.7436  0.7089 -4.1086
  502MOL0     H67762  10.426   3.863  11.711 -2.4218  0.1564 -0.5133
  502MOL0     H67763  10.378   3.834  11.551  1.1001  1.0550  0.0711
  502MOL0     H67764  10.546   3.646  11.713  0.3027 -0.2175  0.7188
  502MOL0     H67765  10.486   3.619  11.538  0.0287  0.6209 -0.3434
  502MOL0     H67766  10.829   3.855  11.486 -1.4978 -0.3967 -2.9317
  502MOL0     H67767  10.340   3.244  11.702 -1.6260  3.0447  1.5079
  502MOL0     H67768  10.328   2.933  11.576 -0.3692 -2.4223  2.8520
  502MOL0     H67769  10.294   3.004  11.740  0.5450 -0.4668  0.1815
  502MOL0     H67770  10.175   2.923  11.652  0.9834 -2.6162 -0.2826
  503MOL0     O67771   8.197   3.016  10.347  0.1205 -0.1824  0.5627
  503MOL0     C67772   8.244   2.923  10.406  0.4973 -0.5407 -0.0791
  503MOL0     O67773   8.372   2.893  10.417 -0.1599  0.4115  0.3004
  503MOL0     C67774   8.456   3.001  10.430  0.0118  0.8723 -0.6519
  503MOL0     C67775   8.511   3.035  10.552  0.4489 -1.1394 -0.5451
  503MOL0     C67776   8.591   3.144  10.561 -0.1396  0.4460 -0.2557
  503MOL0     C67777   8.617   3.234  10.461 -1.1473 -0.1094  0.5073
  503MOL0     O67778   8.692   3.343  10.470 -0.7827  0.2113  0.0094
  503MOL0     C67779   8.702   3.435  10.355 -1.4396  0.5612 -0.5690
  503MOL0     C67780   8.796   3.554  10.384 -0.9109  0.1614  0.1867
  503MOL0     C67781   8.729   3.676  10.448  0.0489  0.1506  0.2110
  503MOL0     C67782   8.734   3.672  10.604 -0.3688  0.4447  0.6231
  503MOL0     C67783   8.866   3.714  10.653  0.4288  0.5074 -0.8682
  503MOL0     C67784   8.871   3.816  10.762 -0.1148 -0.2022  0.0941
  503MOL0     C67785   8.790   3.784  10.887  0.0845 -1.0611  0.5565
  503MOL0     C67786   8.727   3.910  10.954 -0.2067 -0.4204 -0.2636
  503MOL0     N67787   8.829   4.001  11.004  0.2946 -0.6421 -0.1673
  503MOL0     C67788   8.895   3.980  11.127 -0.2574  0.1034  0.1060
  503MOL0     C67789   8.984   4.077  11.132 -0.3650 -0.2438  0.4197
  503MOL0     C67790   9.072   4.106  11.252 -0.5189  0.7244 -0.5610
  503MOL0     C67791   8.997   4.159  11.374 -0.1417 -0.2939 -0.6623
  503MOL0     C67792   9.090   4.162  11.504 -0.1395 -0.1778  0.0523
  503MOL0     C67793   9.028   4.213  11.629 -0.0945  0.0117  0.3262
  503MOL0     O67794   8.925   4.125  11.665 -0.8348 -1.2197 -0.1484
  503MOL0     C67795   8.860   4.129  11.783 -0.7874 -1.1963  0.1427
  503MOL0     C67796   8.896   4.227  11.882  0.1718  0.3567 -0.6341
  503MOL0     C67797   8.810   4.235  12.000  0.8326 -0.3649 -0.3898
  503MOL0     C67798   8.705   4.146  12.022 -0.8141 -0.0936  0.3019
  503MOL0     C67799   8.622   4.133  12.141 -1.0143 -0.2818 -0.1219
  503MOL0     O67800   8.533   4.038  12.145 -0.6990 -0.1443  0.7263
  503MOL0     C67801   8.435   4.051  12.241  0.1647  1.6713 -0.6727
  503MOL0     C67802   8.420   3.944  12.337 -0.3148  0.1777 -0.4027
  503MOL0     C67803   8.299   3.933  12.410  0.0685 -0.3530 -0.8044
  503MOL0     C67804   8.198   4.031  12.390  0.4265  0.7037 -1.7983
  503MOL0     O67805   8.082   4.037  12.464 -0.1937 -0.0226  0.1860
  503MOL0     C67806   8.071   4.153  12.551 -0.8290  0.8409 -0.4787
  503MOL0     C67807   7.967   4.126  12.660 -0.3708 -0.1322  0.2346
  503MOL0     C67808   7.822   4.115  12.595 -0.6852 -0.3138  0.2061
  503MOL0     C67809   7.716   4.124  12.701  0.0007 -0.5136  0.6983
  503MOL0     C67810   7.578   4.088  12.651  0.4339  0.4114 -0.1518
  503MOL0     C67811   7.531   4.173  12.536  0.2558  0.2457 -0.2725
  503MOL0     C67812   7.565   4.117  12.398 -0.2659  0.9886 -0.2800
  503MOL0     C67813   7.450   4.096  12.309  0.7023  0.8617  0.4665
  503MOL0    Cl67814   7.498   4.035  12.144  0.3491 -0.1548 -0.0208
  503MOL0     C67815   8.222   4.140  12.307 -0.6372  0.4581 -0.6609
  503MOL0     C67816   8.344   4.153  12.236 -0.6208  0.6237 -0.6834
  503MOL0     O67817   8.635   4.215  12.234 -0.3690 -0.9422  0.1516
  503MOL0     C67818   8.688   4.053  11.927 -0.3348  0.2619 -0.1441
  503MOL0     C67819   8.761   4.041  11.806  0.2539  1.0350  0.4338
  503MOL0     N67820   8.973   4.163  11.015  0.5178  0.9850  0.0571
  503MOL0     N67821   8.878   4.116  10.944 -0.5231  0.3143 -0.3295
  503MOL0     C67822   8.557   3.192  10.344 -0.4320  0.0636  0.6271
  503MOL0     C67823   8.479   3.084  10.323  0.4811  0.0167  0.2353
  503MOL0     C67824   8.145   2.823  10.464 -0.6466 -0.1851  0.3632
  503MOL0     C67825   8.195   2.695  10.488 -0.6370  0.9824 -0.1935
  503MOL0     C67826   8.116   2.594  10.564 -0.7286 -0.2521 -0.1283
  503MOL0     C67827   7.982   2.632  10.592  0.3123  0.3356  0.2531
  503MOL0     O67828   7.905   2.534  10.653  0.4134  0.1171  0.4363
  503MOL0     C67829   7.768   2.558  10.672 -0.2551  0.0207  0.0214
  503MOL0     C67830   7.701   2.430  10.728  0.0202 -0.8747 -0.3152
  503MOL0     C67831   7.556   2.468  10.772  0.2038 -0.4828  0.4660
  503MOL0     C67832   7.477   2.523  10.651 -0.0779  0.1219  0.1544
  503MOL0     C67833   7.334   2.522  10.678 -0.2559 -0.7780 -0.2466
  503MOL0     C67834   7.210   2.487  10.683  0.4476 -0.7798  0.2891
  503MOL0     C67835   7.937   2.762  10.568 -1.1434  0.6595 -0.0480
  503MOL0     C67836   8.015   2.851  10.507 -0.2408  0.1117  0.3094
  503MOL0     C67837   7.964   2.998  10.503 -0.4208  0.6799 -0.2923
  503MOL0     H67838   8.489   2.973  10.638 -0.4475  1.1910  1.0125
  503MOL0     H67839   8.645   3.173  10.651 -0.7836  2.0614 -0.3705
  503MOL0     H67840   8.755   3.374  10.282  1.8795  1.2406  1.0645
  503MOL0     H67841   8.603   3.476  10.330 -0.7946  1.3499 -1.9368
  503MOL0     H67842   8.843   3.586  10.290  1.3962  2.0444  1.8310
  503MOL0     H67843   8.877   3.515  10.446 -1.6760 -0.8689  0.5640
  503MOL0     H67844   8.623   3.674  10.422  0.3294 -0.4695 -0.9688
  503MOL0     H67845   8.766   3.770  10.406 -1.4190  0.5406 -0.2755
  503MOL0     H67846   8.654   3.744  10.625 -2.6558 -1.8219  0.1841
  503MOL0     H67847   8.699   3.578  10.648 -2.8049  1.1098  0.2589
  503MOL0     H67848   8.916   3.631  10.704 -3.8383 -1.7542  0.1140
  503MOL0     H67849   8.929   3.746  10.570  0.4005 -0.4142 -1.2630
  503MOL0     H67850   8.976   3.823  10.791 -0.5595 -0.9183  2.0665
  503MOL0     H67851   8.832   3.910  10.724 -1.7753  0.0631  2.2517
  503MOL0     H67852   8.842   3.741  10.974  0.9706 -2.7215 -0.7336
  503MOL0     H67853   8.709   3.713  10.867  0.4423 -1.1705 -0.5530
  503MOL0     H67854   8.680   3.964  10.871  1.5917 -1.7905 -2.2983
  503MOL0     H67855   8.657   3.879  11.032 -2.0054  2.2272 -0.6978
  503MOL0     H67856   8.882   3.911  11.210  2.2644  2.0782  2.3321
  503MOL0     H67857   9.113   4.006  11.271 -0.2235  0.7903 -0.8293
  503MOL0     H67858   9.159   4.168  11.229 -0.1700 -0.3423 -2.3478
  503MOL0     H67859   8.956   4.259  11.355  6.9583  3.6814  1.3294
  503MOL0     H67860   8.913   4.092  11.395 -0.6134 -0.0695 -1.7279
  503MOL0     H67861   9.185   4.212  11.483 -0.4258  0.8297  1.0211
  503MOL0     H67862   9.109   4.057  11.527 -1.4983 -0.4095  0.2075
  503MOL0     H67863   8.978   4.309  11.613 -1.2009 -1.0194 -3.4639
  503MOL0     H67864   9.095   4.228  11.714 -1.4749  2.8610  1.0229
  503MOL0     H67865   8.974   4.302  11.872  1.0149 -0.4171 -0.0049
  503MOL0     H67866   8.812   4.321  12.066 -2.4266 -0.5621  0.1208
  503MOL0     H67867   8.491   3.862  12.343 -0.0441  0.4960  1.7538
  503MOL0     H67868   8.280   3.854  12.482 -1.7779  1.0438  0.3666
  503MOL0     H67869   8.166   4.184  12.596 -0.9678  0.6312 -0.0429
  503MOL0     H67870   8.035   4.242  12.497  0.7428  0.7676 -1.7434
  503MOL0     H67871   7.997   4.031  12.706  0.2919 -1.0900 -2.0251
  503MOL0     H67872   7.978   4.212  12.727  0.3948 -0.0736  0.0476
  503MOL0     H67873   7.804   4.197  12.525 -1.4056 -1.3992 -0.8990
  503MOL0     H67874   7.822   4.019  12.543  2.4283 -0.5212  0.3986
  503MOL0     H67875   7.700   4.225  12.739 -0.3492 -0.4893  0.4894
  503MOL0     H67876   7.758   4.057  12.777 -0.4999 -3.7412 -1.6616
  503MOL0     H67877   7.507   4.088  12.733 -1.2746 -0.5925 -1.5683
  503MOL0     H67878   7.594   3.985  12.616  1.6344  1.2122 -2.1371
  503MOL0     H67879   7.423   4.189  12.549  0.0220  1.7707 -3.2875
  503MOL0     H67880   7.567   4.276  12.538 -3.3005  1.9036 -4.6383
  503MOL0     H67881   7.615   4.022  12.414 -1.4522  0.4392  0.2794
  503MOL0     H67882   7.647   4.178  12.357  0.6901  0.6664  1.0728
  503MOL0     H67883   7.377   4.024  12.348  2.6641 -1.5464 -0.0634
  503MOL0     H67884   7.407   4.196  12.297  2.1328  1.4630  0.1782
  503MOL0     H67885   8.178   4.238  12.301 -0.0300  0.7378 -0.6146
  503MOL0     H67886   8.349   4.244  12.178 -2.2202  0.3139 -1.3601
  503MOL0     H67887   8.608   3.980  11.935  0.2537 -0.3648  0.1122
  503MOL0     H67888   8.735   3.968  11.731  0.3829  3.4197 -2.1198
  503MOL0     H67889   8.578   3.246  10.252 -0.1531 -1.5259 -0.2693
  503MOL0     H67890   8.443   3.059  10.224  1.8163 -0.7658 -0.0692
  503MOL0     H67891   8.292   2.658  10.457 -0.2067  1.6033  0.3780
  503MOL0     H67892   8.156   2.493  10.572  0.6296  0.2305 -0.4531
  503MOL0     H67893   7.725   2.598  10.580 -1.2640  2.2787  1.3609
  503MOL0     H67894   7.753   2.636  10.748 -0.1957  0.5893 -0.5482
  503MOL0     H67895   7.763   2.400  10.813 -0.3580  1.8631  1.0242
  503MOL0     H67896   7.702   2.353  10.651  2.6370  0.8512 -2.1559
  503MOL0     H67897   7.549   2.545  10.849 -3.0083 -0.1282 -0.0746
  503MOL0     H67898   7.524   2.374  10.817  0.1653  0.3377  2.2144
  503MOL0     H67899   7.498   2.627  10.627  1.0480 -0.5040 -1.7580
  503MOL0     H67900   7.492   2.455  10.567 -0.7547 -1.6086  1.3558
  503MOL0     H67901   7.120   2.430  10.692  1.3607 -2.4941 -0.8495
  503MOL0     H67902   7.841   2.785  10.613 -1.4501  1.5110 -1.0959
  503MOL0     H67903   8.035   3.064  10.555 -1.2089 -0.1350  1.9617
  503MOL0     H67904   7.954   3.018  10.396 -1.0617 -3.6986 -1.2457
  503MOL0     H67905   7.862   3.009  10.541 -1.5797  0.8204 -3.1820
  504MOL0     O67906   2.369   5.891   7.965 -0.9446  0.2704  0.5633
  504MOL0     C67907   2.336   5.948   7.859 -0.0088  0.8463  0.5953
  504MOL0     O67908   2.360   5.888   7.740  0.5984  0.2939 -0.2358
  504MOL0     C67909   2.437   5.776   7.734  0.1378  0.3179  1.1812
  504MOL0     C67910   2.573   5.785   7.743 -0.4145 -0.3096 -0.5065
  504MOL0     C67911   2.648   5.664   7.724 -0.2224  0.3271  0.7715
  504MOL0     C67912   2.589   5.537   7.693  0.2496 -0.9426 -0.5540
  504MOL0     O67913   2.668   5.430   7.651 -0.3918 -0.2334  0.1293
  504MOL0     C67914   2.678   5.325   7.752  0.0625  0.0345 -0.2706
  504MOL0     C67915   2.794   5.244   7.713  0.1291  0.1577  0.9916
  504MOL0     C67916   2.835   5.152   7.814  0.9012 -0.1028 -0.3008
  504MOL0     C67917   2.923   5.033   7.770  0.3136  0.1699  0.1840
  504MOL0     C67918   2.926   4.923   7.877  1.3180 -0.5047  0.8716
  504MOL0     C67919   2.990   4.794   7.822  0.7741  0.3476  0.3322
  504MOL0     C67920   2.901   4.716   7.719  0.1427  0.1917 -0.2988
  504MOL0     C67921   2.982   4.601   7.659  0.1606 -0.7579 -0.0186
  504MOL0     N67922   2.931   4.522   7.543 -0.8534 -0.5052  0.3544
  504MOL0     C67923   2.847   4.417   7.551  0.4843 -0.3916 -0.3085
  504MOL0     C67924   2.847   4.359   7.427  0.4419 -0.0077  0.4787
  504MOL0     C67925   2.774   4.236   7.382 -0.6835 -0.1230  0.3549
  504MOL0     C67926   2.863   4.103   7.396  0.0379 -0.0852  0.1623
  504MOL0     C67927   2.884   4.046   7.536  1.2957 -0.7856 -0.1962
  504MOL0     C67928   2.962   3.922   7.533 -0.0309  0.2703 -0.2862
  504MOL0     O67929   2.952   3.869   7.668  0.3309 -0.8541  0.4230
  504MOL0     C67930   3.038   3.764   7.712 -0.7142  0.7415  0.4067
  504MOL0     C67931   3.094   3.668   7.626  0.4457 -0.2607  0.0987
  504MOL0     C67932   3.166   3.556   7.675 -0.4411 -0.5140  0.0015
  504MOL0     C67933   3.192   3.536   7.809 -0.3847 -0.7181 -0.7714
  504MOL0     C67934   3.267   3.425   7.867 -1.1173 -0.7978 -0.3620
  504MOL0     O67935   3.339   3.452   7.981 -0.1054  0.1551  0.3333
  504MOL0     C67936   3.445   3.375   7.997 -0.2782 -0.1917 -0.6303
  504MOL0     C67937   3.553   3.375   7.900  0.4746  0.0031 -0.1599
  504MOL0     C67938   3.667   3.298   7.924 -0.6576  1.3463  0.3314
  504MOL0     C67939   3.675   3.213   8.033  0.1862  0.0857 -0.0244
  504MOL0     O67940   3.792   3.144   8.046 -0.0329  0.1090  0.0830
  504MOL0     C67941   3.817   3.035   8.137  0.3143  1.2130 -0.4534
  504MOL0     C67942   3.756   2.916   8.074  0.3111  0.0249 -0.4017
  504MOL0     C67943   3.844   2.788   8.069  0.3936  0.3329  0.0578
  504MOL0     C67944   3.793   2.668   7.995  0.6622  0.3661 -0.6247
  504MOL0     C67945   3.873   2.532   8.025 -0.2366 -0.9318  0.1266
  504MOL0     C67946   4.025   2.535   7.985 -0.4200 -0.2461  0.6477
  504MOL0     C67947   4.033   2.571   7.833 -0.1498  0.3139 -0.6471
  504MOL0     C67948   4.170   2.548   7.782 -0.0842  0.3922  0.1597
  504MOL0    Cl67949   4.299   2.635   7.843 -0.0652  0.0673 -0.7483
  504MOL0     C67950   3.571   3.225   8.133 -0.5434  0.6121  0.3130
  504MOL0     C67951   3.459   3.295   8.116  0.9416 -0.7556  0.0486
  504MOL0     O67952   3.287   3.329   7.798 -0.8441  0.0088  0.2506
  504MOL0     C67953   3.139   3.637   7.892 -0.2532 -0.5446 -0.5387
  504MOL0     C67954   3.059   3.747   7.842  0.6616 -0.3638 -0.2150
  504MOL0     N67955   2.945   4.430   7.351  0.1856 -0.3890 -0.5802
  504MOL0     N67956   2.982   4.535   7.417  0.4428 -0.2842 -0.2217
  504MOL0     C67957   2.454   5.540   7.685  0.1050  0.1903 -0.0063
  504MOL0     C67958   2.380   5.656   7.698 -0.5369  0.9284 -0.1544
  504MOL0     C67959   2.273   6.084   7.850 -0.1431  0.0475  0.1759
  504MOL0     C67960   2.196   6.112   7.738 -0.1797 -0.5550  0.9900
  504MOL0     C67961   2.151   6.242   7.715  0.1674  0.0310  0.0337
  504MOL0     C67962   2.163   6.351   7.803 -0.4983 -0.1629 -0.9536
  504MOL0     O67963   2.096   6.462   7.782  1.3195 -0.5675  0.0347
  504MOL0     C67964   2.112   6.583   7.858  0.4977 -0.4229 -0.3013
  504MOL0     C67965   2.008   6.618   7.957 -0.7612  0.2565 -0.4432
  504MOL0     C67966   1.968   6.769   7.986 -0.0695 -0.0073  0.5292
  504MOL0     C67967   2.090   6.851   8.038  0.7344 -0.1086  0.2684
  504MOL0     C67968   2.190   6.868   7.931 -1.0098 -0.1450 -0.5096
  504MOL0     C67969   2.291   6.870   7.866  1.3507 -0.5293  0.1275
  504MOL0     C67970   2.235   6.322   7.927  0.5092 -0.5284  0.3103
  504MOL0     C67971   2.301   6.194   7.941  0.4534  1.4573 -0.2878
  504MOL0     C67972   2.392   6.165   8.056  0.4151  0.6838 -0.8671
  504MOL0     H67973   2.634   5.872   7.766  0.6860 -0.7502 -1.6164
  504MOL0     H67974   2.754   5.686   7.733 -0.5950  2.1137  1.0214
  504MOL0     H67975   2.686   5.379   7.847 -0.3682  1.1142 -0.8361
  504MOL0     H67976   2.582   5.273   7.761 -0.6028  1.2751 -0.0064
  504MOL0     H67977   2.873   5.313   7.681 -0.9180  1.5821  1.3991
  504MOL0     H67978   2.764   5.190   7.622  0.9358  1.9163 -0.3761
  504MOL0     H67979   2.747   5.114   7.868  0.2113  3.7536  1.6733
  504MOL0     H67980   2.885   5.217   7.887 -1.7613  0.0289  1.5895
  504MOL0     H67981   2.893   4.981   7.678 -1.1988  0.1035  0.6842
  504MOL0     H67982   3.026   5.068   7.760  0.3917  0.0763  0.6219
  504MOL0     H67983   2.990   4.954   7.960  2.3361  0.8778 -0.3726
  504MOL0     H67984   2.827   4.894   7.913  0.6001  0.6218 -0.1128
  504MOL0     H67985   3.078   4.821   7.763  0.5120  0.3668 -0.0558
  504MOL0     H67986   3.020   4.741   7.913  0.4078  1.4469  1.1143
  504MOL0     H67987   2.870   4.762   7.625  1.1866 -2.7196 -2.2269
  504MOL0     H67988   2.811   4.672   7.763  0.2597 -0.6584 -0.8746
  504MOL0     H67989   3.070   4.654   7.620 -0.2374 -2.2588 -3.3470
  504MOL0     H67990   3.017   4.526   7.730  1.9163 -1.8137 -1.8663
  504MOL0     H67991   2.785   4.386   7.635  3.1233 -0.8393  1.6342
  504MOL0     H67992   2.682   4.240   7.443 -1.0123 -0.8068 -0.0775
  504MOL0     H67993   2.753   4.256   7.277 -1.0687 -0.2415  0.4059
  504MOL0     H67994   2.817   4.024   7.336  0.1373  0.7443 -1.0520
  504MOL0     H67995   2.959   4.127   7.350  0.1165  2.3248  1.3729
  504MOL0     H67996   2.784   4.024   7.573  0.6233 -2.1651 -2.5710
  504MOL0     H67997   2.935   4.121   7.598 -0.6729  0.9066 -0.5204
  504MOL0     H67998   3.068   3.935   7.507  0.6696 -1.8608  1.2241
  504MOL0     H67999   2.919   3.861   7.453 -0.0361 -0.2346  0.0939
  504MOL0     H68000   3.092   3.686   7.519 -1.2217  2.2731  0.4590
  504MOL0     H68001   3.199   3.477   7.608  0.9395 -0.1410  0.2205
  504MOL0     H68002   3.529   3.417   7.803  1.8761 -0.0051 -0.5378
  504MOL0     H68003   3.743   3.285   7.848 -0.0041  0.8754  1.0439
  504MOL0     H68004   3.924   3.012   8.144 -0.2234 -1.1142  1.2568
  504MOL0     H68005   3.784   3.041   8.241  4.0437 -2.7210  1.2636
  504MOL0     H68006   3.660   2.886   8.116 -1.1493  0.8703 -2.9438
  504MOL0     H68007   3.742   2.932   7.967 -3.3440 -0.8254 -0.1851
  504MOL0     H68008   3.945   2.803   8.031 -0.7499 -0.5575 -3.7198
  504MOL0     H68009   3.851   2.750   8.172 -0.6516 -0.6259 -0.2098
  504MOL0     H68010   3.788   2.687   7.888 -0.1850  1.3794 -0.4274
  504MOL0     H68011   3.693   2.652   8.036  1.4767  0.8264  1.7560
  504MOL0     H68012   3.825   2.459   7.959 -1.3066 -1.2915  1.2608
  504MOL0     H68013   3.855   2.491   8.125 -1.2101 -2.7241 -0.7399
  504MOL0     H68014   4.082   2.606   8.046 -0.9326  0.9245 -0.2263
  504MOL0     H68015   4.069   2.435   7.999  4.1383  1.1689 -1.6907
  504MOL0     H68016   4.007   2.675   7.809  0.9421  0.7315 -0.0757
  504MOL0     H68017   3.968   2.505   7.775  0.7070  1.2274 -2.7419
  504MOL0     H68018   4.190   2.441   7.792  2.5367  0.9503  1.7386
  504MOL0     H68019   4.160   2.569   7.675 -0.2435  0.2391  0.1433
  504MOL0     H68020   3.582   3.179   8.230  0.7805 -0.1105 -0.1516
  504MOL0     H68021   3.380   3.308   8.189 -0.2964  1.9549 -1.6058
  504MOL0     H68022   3.157   3.632   7.999  1.2129 -2.9182 -0.8285
  504MOL0     H68023   3.007   3.821   7.901  0.3401 -0.0993 -0.8182
  504MOL0     H68024   2.414   5.442   7.665 -2.3129  0.9983  0.5639
  504MOL0     H68025   2.273   5.648   7.678 -0.0559  2.7709 -4.7104
  504MOL0     H68026   2.188   6.048   7.650  1.3437  0.6641 -0.0803
  504MOL0     H68027   2.100   6.270   7.623  1.4645 -0.1994 -0.7994
  504MOL0     H68028   2.111   6.660   7.781 -4.1395  0.0951 -0.0283
  504MOL0     H68029   2.210   6.570   7.904  0.1609 -2.4342 -0.0696
  504MOL0     H68030   2.028   6.570   8.053 -1.8456  1.8495  0.6288
  504MOL0     H68031   1.919   6.573   7.912 -2.2581  0.8999  1.6859
  504MOL0     H68032   1.884   6.765   8.056 -0.8620  1.3853 -0.2999
  504MOL0     H68033   1.949   6.818   7.890  1.4731  2.9297  1.5909
  504MOL0     H68034   2.068   6.948   8.083 -1.0055 -0.9467  1.3095
  504MOL0     H68035   2.142   6.798   8.118  1.0932  0.2734  0.2907
  504MOL0     H68036   2.374   6.845   7.803  0.3294  0.7437 -1.8235
  504MOL0     H68037   2.242   6.388   8.012  0.5972 -0.1168 -0.0097
  504MOL0     H68038   2.404   6.253   8.120 -0.1461 -0.6558  1.2112
  504MOL0     H68039   2.351   6.083   8.117 -0.0207  0.9508 -0.7994
  504MOL0     H68040   2.490   6.130   8.021  0.7492  1.6991 -0.9552
  505MOL0     O68041  11.249   5.124   2.517  0.1913 -0.1582  0.6616
  505MOL0     C68042  11.225   5.161   2.630  0.5491  0.1353 -0.3824
  505MOL0     O68043  11.139   5.262   2.655  0.7101 -0.3798 -1.4347
  505MOL0     C68044  11.065   5.315   2.549  0.9600 -0.1932  0.0013
  505MOL0     C68045  11.056   5.454   2.524 -0.5904  0.3508  0.3368
  505MOL0     C68046  10.965   5.515   2.435 -0.1926  0.4147 -0.6869
  505MOL0     C68047  10.899   5.436   2.348  0.1036  0.1052 -0.1151
  505MOL0     O68048  10.824   5.496   2.249 -0.0860 -0.1709  0.2012
  505MOL0     C68049  10.903   5.579   2.166 -0.5774 -0.0462 -0.2260
  505MOL0     C68050  10.866   5.731   2.162  0.1898  0.2329 -0.4864
  505MOL0     C68051  10.733   5.753   2.089  0.4223  0.8755 -0.1635
  505MOL0     C68052  10.721   5.892   2.031 -0.1869 -0.3723  1.2096
  505MOL0     C68053  10.790   5.909   1.891 -0.5092  0.4662 -0.6069
  505MOL0     C68054  10.733   5.835   1.772 -0.2940 -1.0189  0.9104
  505MOL0     C68055  10.790   5.903   1.649  0.9290 -0.1847  0.7708
  505MOL0     C68056  10.938   5.874   1.639  0.0863  0.2698 -0.6804
  505MOL0     N68057  10.988   5.834   1.511  0.1067  0.4602 -0.1535
  505MOL0     C68058  10.989   5.898   1.398 -0.4746 -0.2697  0.4752
  505MOL0     C68059  11.058   5.817   1.306 -0.5160 -0.4790 -0.8617
  505MOL0     C68060  11.079   5.831   1.164 -0.0528 -0.6047 -0.1521
  505MOL0     C68061  10.973   5.736   1.099  0.1367 -1.0303  0.4772
  505MOL0     C68062  10.989   5.590   1.137 -0.6548 -0.5618 -0.0026
  505MOL0     C68063  10.900   5.507   1.059  0.2499 -0.1592 -0.7775
  505MOL0     O68064  10.957   5.480   0.931 -0.1357  0.0961  0.4324
  505MOL0     C68065  10.903   5.385   0.839 -0.2000 -0.5965  0.0823
  505MOL0     C68066  10.836   5.276   0.877 -0.1838 -0.4653  0.3509
  505MOL0     C68067  10.784   5.188   0.783 -0.8618 -0.1181 -0.6568
  505MOL0     C68068  10.819   5.201   0.646  0.5978 -0.3009 -0.3809
  505MOL0     C68069  10.794   5.096   0.553 -0.6463  1.9659  0.6298
  505MOL0     O68070  10.748   4.978   0.613  0.2267  0.1394  0.7855
  505MOL0     C68071  10.720   4.870   0.527 -0.8722 -0.3923 -0.0923
  505MOL0     C68072  10.613   4.885   0.445 -0.3507 -1.1172 -0.6060
  505MOL0     C68073  10.578   4.794   0.355 -0.9532 -0.0493 -0.0623
  505MOL0     C68074  10.658   4.678   0.340  0.8228 -0.2896  0.4089
  505MOL0     O68075  10.622   4.583   0.253  0.0956  0.0932 -0.0695
  505MOL0     C68076  10.496   4.598   0.181  0.4248  0.2696  0.4565
  505MOL0     C68077  10.470   4.505   0.069 -0.0983  0.2306 -0.3683
  505MOL0     C68078  10.468   4.366   0.131 -0.0394 -0.0198 -0.8297
  505MOL0     C68079  10.336   4.338   0.205 -0.2307 -0.4321  0.4633
  505MOL0     C68080  10.349   4.204   0.282  0.4600  0.8921 -0.3672
  505MOL0     C68081  10.223   4.178   0.367 -0.0708 -0.0551  0.0032
  505MOL0     C68082  10.230   4.044   0.433 -0.4304 -0.0250  0.3111
  505MOL0     C68083  10.121   4.008   0.532  0.7416  0.7222 -0.2129
  505MOL0    Cl68084  10.121   4.120   0.679 -0.1418  0.3159 -0.0694
  505MOL0     C68085  10.768   4.656   0.421  0.0919  0.4080 -0.0071
  505MOL0     C68086  10.797   4.754   0.516  0.0831 -0.4426  0.4530
  505MOL0     O68087  10.810   5.111   0.434  0.4744  0.4349 -0.5699
  505MOL0     C68088  10.899   5.301   0.608 -0.7280 -0.0860 -0.3819
  505MOL0     C68089  10.938   5.396   0.702  0.5553  0.4406 -0.1024
  505MOL0     N68090  11.126   5.714   1.371  1.0391  0.5170  0.2676
  505MOL0     N68091  11.071   5.722   1.497 -0.7362  0.3053 -0.0636
  505MOL0     C68092  10.917   5.294   2.363  0.9641 -0.6141  0.5134
  505MOL0     C68093  10.987   5.239   2.469  0.7694 -0.0643 -0.0144
  505MOL0     C68094  11.312   5.113   2.743  0.2100  0.3123 -0.1851
  505MOL0     C68095  11.319   5.183   2.863  0.5397  0.1839 -0.5113
  505MOL0     C68096  11.394   5.139   2.969  0.5483 -0.1255 -1.0069
  505MOL0     C68097  11.486   5.032   2.963  0.0929  0.7068  0.2731
  505MOL0     O68098  11.556   4.997   3.069 -0.7475  0.2147  0.1212
  505MOL0     C68099  11.568   4.853   3.097 -0.6607 -0.6605  0.1397
  505MOL0     C68100  11.597   4.821   3.254 -1.4173 -0.0185  0.1096
  505MOL0     C68101  11.736   4.874   3.303  0.0269  0.1634  0.4980
  505MOL0     C68102  11.759   5.016   3.363  0.2771  0.4021 -0.1686
  505MOL0     C68103  11.874   5.030   3.457  0.4668 -0.8998  0.4391
  505MOL0     C68104  11.963   5.028   3.536 -0.1217  0.8723  0.0711
  505MOL0     C68105  11.486   4.966   2.843  0.0889 -0.0414  0.4528
  505MOL0     C68106  11.405   5.001   2.731 -0.6795  0.6876  0.8497
  505MOL0     C68107  11.418   4.911   2.609 -0.5465 -0.4326  0.5998
  505MOL0     H68108  11.101   5.514   2.602 -0.2784  0.0770  0.3673
  505MOL0     H68109  10.958   5.623   2.439  0.4602  0.4504 -0.3103
  505MOL0     H68110  11.008   5.571   2.194  0.0439  0.4288 -2.3038
  505MOL0     H68111  10.893   5.546   2.063  1.6122 -0.4630 -0.3381
  505MOL0     H68112  10.937   5.802   2.119 -2.5077  1.3283 -3.6238
  505MOL0     H68113  10.859   5.766   2.265 -2.0237 -1.6759  0.0992
  505MOL0     H68114  10.653   5.743   2.162 -0.7484  0.3423 -1.4821
  505MOL0     H68115  10.709   5.685   2.007 -0.9808  0.4072  0.6107
  505MOL0     H68116  10.620   5.931   2.021  1.1116  2.6683 -4.0406
  505MOL0     H68117  10.761   5.972   2.095 -1.5222  0.9219  0.4697
  505MOL0     H68118  10.791   6.014   1.863  0.6331  1.2311  2.0297
  505MOL0     H68119  10.893   5.872   1.897 -0.7984 -0.1753  0.8534
  505MOL0     H68120  10.748   5.727   1.783  1.1469 -0.7715  1.5646
  505MOL0     H68121  10.626   5.855   1.784 -0.1913 -0.7018  1.3460
  505MOL0     H68122  10.782   6.012   1.642 -0.2897 -0.3536 -4.0691
  505MOL0     H68123  10.749   5.867   1.554  3.6413 -2.6292  0.3671
  505MOL0     H68124  10.994   5.963   1.670 -2.4019  1.7686 -0.1971
  505MOL0     H68125  10.973   5.801   1.713  0.6433 -1.4164 -2.5135
  505MOL0     H68126  10.940   5.986   1.358 -1.0259 -2.1650 -3.5172
  505MOL0     H68127  11.072   5.935   1.133  3.4395 -0.8196 -2.1406
  505MOL0     H68128  11.172   5.791   1.123  0.2905  0.6237 -0.6188
  505MOL0     H68129  10.871   5.756   1.134 -0.9487  0.5795 -3.0679
  505MOL0     H68130  10.994   5.749   0.992  0.2656 -3.8064  0.0974
  505MOL0     H68131  10.968   5.581   1.244 -1.0077  4.1847  0.5396
  505MOL0     H68132  11.084   5.547   1.104 -0.3660 -0.6926  0.9593
  505MOL0     H68133  10.806   5.560   1.041  0.1044 -0.1538 -0.0266
  505MOL0     H68134  10.875   5.415   1.112  0.1776  1.2312  1.8050
  505MOL0     H68135  10.823   5.265   0.985  2.2131  0.2539  0.7780
  505MOL0     H68136  10.728   5.105   0.825  1.9129 -0.6396  2.4538
  505MOL0     H68137  10.558   4.978   0.453  1.2637 -0.2784  1.8370
  505MOL0     H68138  10.484   4.815   0.303 -1.8582  2.3772  2.3404
  505MOL0     H68139  10.415   4.615   0.253  0.7029  1.5082  0.5127
  505MOL0     H68140  10.512   4.687   0.119  0.0909 -0.7158 -1.0965
  505MOL0     H68141  10.378   4.534   0.017  1.0463  2.4453 -1.3010
  505MOL0     H68142  10.540   4.514  -0.015 -1.4592  0.4088 -1.5299
  505MOL0     H68143  10.488   4.298   0.047  2.3674  2.1462 -2.1710
  505MOL0     H68144  10.548   4.340   0.201  2.1947  1.2794 -2.7388
  505MOL0     H68145  10.253   4.335   0.134  0.7259 -1.0165 -0.6621
  505MOL0     H68146  10.323   4.417   0.279 -4.3227  1.4548 -1.9376
  505MOL0     H68147  10.423   4.209   0.363  1.3680  1.0331 -1.1932
  505MOL0     H68148  10.359   4.120   0.213 -4.4666  2.9649 -4.1850
  505MOL0     H68149  10.215   4.267   0.430 -2.2424 -0.3371  0.2235
  505MOL0     H68150  10.132   4.173   0.305 -1.9319  2.5059  2.2768
  505MOL0     H68151  10.326   4.026   0.482  1.7145  2.2181 -2.7153
  505MOL0     H68152  10.237   3.980   0.344 -1.8546  1.2237 -0.7421
  505MOL0     H68153  10.024   4.013   0.482 -0.3721 -0.5107  1.7056
  505MOL0     H68154  10.127   3.905   0.569 -1.3593  1.7226  3.5231
  505MOL0     H68155  10.832   4.572   0.398 -1.6212 -1.1190  0.5711
  505MOL0     H68156  10.888   4.750   0.574 -0.9396 -2.6862  2.0702
  505MOL0     H68157  10.930   5.329   0.508 -0.2288  0.8947  0.0398
  505MOL0     H68158  11.003   5.478   0.674 -2.0014  2.2207 -1.2674
  505MOL0     H68159  10.864   5.232   2.291  1.6184 -0.1807 -0.3544
  505MOL0     H68160  11.000   5.135   2.496  1.4355 -0.5285 -1.9481
  505MOL0     H68161  11.262   5.275   2.872  3.8349  2.7627 -3.3849
  505MOL0     H68162  11.388   5.200   3.058 -3.1201 -2.3769  0.4998
  505MOL0     H68163  11.629   4.800   3.024 -1.6252  0.3362 -1.4668
  505MOL0     H68164  11.467   4.812   3.089 -1.0636  0.5185 -1.4814
  505MOL0     H68165  11.587   4.716   3.279  0.0894 -0.0361  0.7237
  505MOL0     H68166  11.520   4.867   3.317 -1.3544  0.8681 -0.4360
  505MOL0     H68167  11.809   4.868   3.222 -1.1936 -1.1345 -0.5728
  505MOL0     H68168  11.757   4.796   3.376 -4.5758 -1.9280  0.0045
  505MOL0     H68169  11.759   5.087   3.280  1.3623 -0.0159 -0.5415
  505MOL0     H68170  11.675   5.054   3.423 -0.9352 -0.9203 -0.9560
  505MOL0     H68171  12.039   5.032   3.611 -0.6884 -1.3292  0.8535
  505MOL0     H68172  11.544   4.877   2.823 -1.0471 -0.3812 -1.6182
  505MOL0     H68173  11.324   4.884   2.560 -1.0422 -1.0629  1.8307
  505MOL0     H68174  11.485   4.958   2.537 -0.5125 -1.4727 -0.0637
  505MOL0     H68175  11.464   4.814   2.632 -1.6107 -0.8484  1.0681
  506MOL0     O68176   7.564   6.578   2.801 -0.0008 -0.1650  0.4471
  506MOL0     C68177   7.601   6.691   2.803 -0.2306  0.3187  0.0304
  506MOL0     O68178   7.717   6.726   2.862 -1.1646  0.2668  0.7330
  506MOL0     C68179   7.805   6.643   2.926  0.1837  0.3267  0.4752
  506MOL0     C68180   7.914   6.597   2.859 -0.9315  0.8273 -0.4155
  506MOL0     C68181   8.008   6.513   2.935  0.2305  0.1067 -0.6415
  506MOL0     C68182   7.985   6.481   3.076  1.2065 -0.3235 -0.8089
  506MOL0     O68183   8.061   6.425   3.175  0.1043  0.5482  0.4352
  506MOL0     C68184   8.144   6.312   3.132  0.2936 -0.3556  0.2251
  506MOL0     C68185   8.084   6.173   3.161 -1.0572  0.1123  0.1219
  506MOL0     C68186   8.068   6.152   3.308  0.3492  0.6331 -1.3592
  506MOL0     C68187   7.954   6.061   3.365  1.2976 -0.5878 -0.5475
  506MOL0     C68188   7.920   6.090   3.516  0.2831  0.7529  0.3412
  506MOL0     C68189   7.849   6.224   3.531  0.4836 -0.2528 -0.0855
  506MOL0     C68190   7.807   6.252   3.678 -0.7647  0.1173 -0.0399
  506MOL0     C68191   7.767   6.407   3.689  0.0336 -0.0687 -0.1628
  506MOL0     N68192   7.644   6.431   3.621 -0.0953  0.9629  0.1704
  506MOL0     C68193   7.524   6.420   3.683  0.0909  0.0326 -0.3757
  506MOL0     C68194   7.436   6.476   3.600  0.5079 -0.2366 -0.2851
  506MOL0     C68195   7.290   6.473   3.639 -0.3175  0.8056  0.5780
  506MOL0     C68196   7.231   6.611   3.626  0.1658  1.0372  0.0807
  506MOL0     C68197   7.277   6.699   3.738  0.1238  0.2760 -0.1238
  506MOL0     C68198   7.227   6.848   3.726 -0.8665  0.0892  0.6527
  506MOL0     O68199   7.084   6.842   3.750  0.7137 -0.1232 -0.6312
  506MOL0     C68200   7.042   6.903   3.873 -0.0153  0.2134 -0.3562
  506MOL0     C68201   7.107   6.891   3.994 -0.7954  0.3640 -0.3118
  506MOL0     C68202   7.048   6.935   4.113  0.2847 -0.2092 -0.3704
  506MOL0     C68203   6.921   6.989   4.103  0.2441 -0.0275  1.2004
  506MOL0     C68204   6.854   7.002   4.229  0.6225 -0.8015 -0.5158
  506MOL0     O68205   6.930   7.042   4.332 -0.2594 -0.2287 -0.1677
  506MOL0     C68206   6.870   7.043   4.455 -0.4999  0.2299  1.2202
  506MOL0     C68207   6.786   7.150   4.484 -0.7633 -0.3917 -0.4033
  506MOL0     C68208   6.724   7.151   4.605  0.3294  0.1270  0.6447
  506MOL0     C68209   6.762   7.054   4.705  0.0106 -1.2568  0.1973
  506MOL0     O68210   6.685   7.053   4.819  0.9017  1.3774 -0.6321
  506MOL0     C68211   6.753   7.095   4.936 -0.1878 -0.2692 -0.7174
  506MOL0     C68212   6.731   7.013   5.067 -0.8388 -0.5530  0.8674
  506MOL0     C68213   6.724   6.863   5.041 -0.3105 -0.4385  0.4565
  506MOL0     C68214   6.735   6.796   5.178  0.3961  0.4940 -0.0729
  506MOL0     C68215   6.745   6.642   5.148  0.7908  0.2313  0.6137
  506MOL0     C68216   6.671   6.563   5.261  0.0328 -0.0889 -0.2330
  506MOL0     C68217   6.676   6.422   5.225  0.3726 -0.6208 -0.1096
  506MOL0     C68218   6.639   6.336   5.348  0.5912 -0.3447  0.3268
  506MOL0    Cl68219   6.470   6.354   5.420 -0.5018 -0.0465  0.0121
  506MOL0     C68220   6.847   6.949   4.677 -0.4382  0.1965 -0.6362
  506MOL0     C68221   6.902   6.935   4.552 -0.8985 -1.5666  0.2768
  506MOL0     O68222   6.739   6.978   4.239 -0.0421  1.3252 -0.0654
  506MOL0     C68223   6.848   6.998   3.983 -0.1559  0.7954  0.1035
  506MOL0     C68224   6.910   6.951   3.871  0.8132 -0.5391  0.0842
  506MOL0     N68225   7.511   6.519   3.489  0.2959 -0.2145 -0.0101
  506MOL0     N68226   7.635   6.503   3.511 -0.5255  0.5063  0.7396
  506MOL0     C68227   7.863   6.530   3.125  0.1153 -0.5273  0.0555
  506MOL0     C68228   7.777   6.603   3.050  0.4599  0.1000  0.1454
  506MOL0     C68229   7.510   6.799   2.754 -0.3334  0.3040 -0.5115
  506MOL0     C68230   7.503   6.918   2.827 -0.2759 -0.0184 -0.7983
  506MOL0     C68231   7.414   7.021   2.811 -0.1351  1.0196  0.5906
  506MOL0     C68232   7.326   7.013   2.703  1.0651  0.1500 -1.6469
  506MOL0     O68233   7.231   7.111   2.693 -0.2142 -0.5725  0.0360
  506MOL0     C68234   7.111   7.109   2.615 -0.4725  1.1549  0.1069
  506MOL0     C68235   7.138   7.170   2.478  0.2398  0.1144 -0.1076
  506MOL0     C68236   7.007   7.203   2.404  0.6347 -0.0661  0.0305
  506MOL0     C68237   7.046   7.295   2.284  1.0610  0.1774 -0.3467
  506MOL0     C68238   7.071   7.425   2.333 -1.0881 -0.8257 -0.1141
  506MOL0     C68239   7.084   7.544   2.375 -0.0465 -0.1343  0.6213
  506MOL0     C68240   7.319   6.893   2.628 -0.8834 -0.2927 -0.0973
  506MOL0     C68241   7.412   6.785   2.647  0.1255 -0.7605 -0.9218
  506MOL0     C68242   7.396   6.661   2.561 -1.2127  0.3102  0.4630
  506MOL0     H68243   7.933   6.618   2.754  1.1181  0.1263 -0.2329
  506MOL0     H68244   8.102   6.478   2.893  1.2987  0.6052  1.1997
  506MOL0     H68245   8.161   6.310   3.024  1.6248  2.1699  0.3306
  506MOL0     H68246   8.241   6.323   3.180 -0.9578 -2.5755  3.6002
  506MOL0     H68247   8.148   6.087   3.141 -0.6342  0.6457 -0.8905
  506MOL0     H68248   7.991   6.158   3.107 -1.7238 -0.7604  1.4660
  506MOL0     H68249   8.041   6.245   3.357  0.1645 -1.6570  3.4130
  506MOL0     H68250   8.163   6.121   3.353 -0.7294 -0.4815  0.2444
  506MOL0     H68251   7.861   6.084   3.313 -0.2631  1.2346  2.7152
  506MOL0     H68252   7.982   5.957   3.350 -2.0022 -1.9164  1.3438
  506MOL0     H68253   7.856   6.009   3.552  2.0062 -1.1028 -0.5362
  506MOL0     H68254   8.017   6.090   3.567 -0.2290 -0.2048  1.3514
  506MOL0     H68255   7.900   6.310   3.487  0.4880  0.4593  1.2680
  506MOL0     H68256   7.755   6.218   3.476  0.5847  0.8887 -0.4117
  506MOL0     H68257   7.898   6.244   3.738  0.5697 -2.8898 -2.1909
  506MOL0     H68258   7.730   6.181   3.708 -0.0568 -0.2803  0.8483
  506MOL0     H68259   7.757   6.442   3.792  0.2191 -1.7854  0.4892
  506MOL0     H68260   7.847   6.468   3.646 -0.0591 -0.2464 -0.5883
  506MOL0     H68261   7.494   6.364   3.771  0.0337  0.8196  0.1091
  506MOL0     H68262   7.238   6.416   3.561  2.3311 -1.6331  0.4051
  506MOL0     H68263   7.271   6.429   3.737  0.0706  1.8077  1.1183
  506MOL0     H68264   7.253   6.648   3.526  1.9437 -2.6102 -1.0819
  506MOL0     H68265   7.124   6.590   3.635  0.0099  1.5293 -0.6043
  506MOL0     H68266   7.386   6.696   3.731 -0.0441 -1.9727 -4.1686
  506MOL0     H68267   7.247   6.645   3.829 -1.5488 -2.2602 -2.0545
  506MOL0     H68268   7.250   6.875   3.622  1.7162  0.3184  1.2158
  506MOL0     H68269   7.297   6.900   3.792  0.0882  0.4354 -0.6042
  506MOL0     H68270   7.202   6.839   3.998 -1.8449 -1.6684 -0.6466
  506MOL0     H68271   7.105   6.909   4.201  1.4902  1.0783 -0.7357
  506MOL0     H68272   6.775   7.233   4.416 -2.5827 -0.4129 -0.1956
  506MOL0     H68273   6.644   7.214   4.643  0.3816 -0.3264  1.5156
  506MOL0     H68274   6.861   7.105   4.920 -0.2617 -0.5704 -1.4806
  506MOL0     H68275   6.706   7.192   4.956 -0.2069 -0.5208  0.4806
  506MOL0     H68276   6.808   7.042   5.139 -0.5982 -1.0145  0.8008
  506MOL0     H68277   6.633   7.042   5.104  0.3436  6.4918 -0.0242
  506MOL0     H68278   6.642   6.835   4.975 -1.5798  0.2089  1.7086
  506MOL0     H68279   6.813   6.831   4.985  1.2600  1.0328  1.9500
  506MOL0     H68280   6.647   6.817   5.240  1.8116  2.6212  1.3685
  506MOL0     H68281   6.822   6.818   5.241  0.3154  2.0640 -0.4781
  506MOL0     H68282   6.849   6.610   5.143  0.7049  0.0012  0.2472
  506MOL0     H68283   6.705   6.613   5.050  1.3142 -1.6446  0.9157
  506MOL0     H68284   6.719   6.597   5.353  1.5547  1.6416 -1.5818
  506MOL0     H68285   6.567   6.595   5.253 -0.6571 -1.8470  1.1068
  506MOL0     H68286   6.776   6.379   5.210  1.7415  2.4771 -0.5753
  506MOL0     H68287   6.608   6.408   5.141 -1.6019  1.1182  1.0975
  506MOL0     H68288   6.652   6.229   5.327  1.3131 -0.6714  2.2241
  506MOL0     H68289   6.721   6.361   5.416  2.6703  0.6564 -2.3798
  506MOL0     H68290   6.861   6.871   4.752 -2.1053 -0.2729 -0.7617
  506MOL0     H68291   6.957   6.852   4.509 -0.3551  0.7275 -4.0573
  506MOL0     H68292   6.748   7.041   3.991 -1.3170 -2.0142  1.9666
  506MOL0     H68293   6.861   6.954   3.775 -2.3093  4.4533  1.5027
  506MOL0     H68294   7.842   6.514   3.230  1.1260 -0.9825  0.2019
  506MOL0     H68295   7.691   6.661   3.080  0.8763  1.0982 -0.5436
  506MOL0     H68296   7.543   6.916   2.928 -2.9773 -2.2885  0.3538
  506MOL0     H68297   7.402   7.108   2.875 -0.5689  0.5510  1.1566
  506MOL0     H68298   7.023   7.155   2.661 -0.7731 -1.2535  2.1913
  506MOL0     H68299   7.072   7.007   2.607 -0.5792  1.3048 -1.6670
  506MOL0     H68300   7.193   7.106   2.409  0.2976  2.5397 -2.5388
  506MOL0     H68301   7.195   7.262   2.494  2.9999 -1.4350 -0.4528
  506MOL0     H68302   6.942   7.263   2.469 -1.3746 -2.6946  0.6263
  506MOL0     H68303   6.944   7.115   2.391 -2.8750  2.2742 -0.0706
  506MOL0     H68304   7.133   7.258   2.229  1.6864  1.3830 -0.2074
  506MOL0     H68305   6.953   7.296   2.226 -1.2749  1.1469  3.1006
  506MOL0     H68306   7.110   7.642   2.410 -0.9832  0.2215  0.3432
  506MOL0     H68307   7.237   6.880   2.559  0.9972 -0.6028 -2.4187
  506MOL0     H68308   7.370   6.571   2.618 -2.5201 -2.4135 -3.9355
  506MOL0     H68309   7.328   6.678   2.477  2.3376  1.3293 -2.4666
  506MOL0     H68310   7.496   6.640   2.521 -1.1871  0.7248  0.3053
  507MOL0     O68311  11.403   4.294   9.984 -0.3718  0.2879 -0.2943
  507MOL0     C68312  11.483   4.346  10.065 -0.3210 -0.5071  0.0106
  507MOL0     O68313  11.579   4.274  10.134  0.4356 -0.9843  0.2160
  507MOL0     C68314  11.589   4.142  10.085  0.5861 -0.7139  0.7827
  507MOL0     C68315  11.516   4.042  10.150 -0.3100  0.3331 -0.3399
  507MOL0     C68316  11.555   3.913  10.122  0.0904  0.0410  0.2287
  507MOL0     C68317  11.655   3.875  10.027 -0.7173 -0.1547 -0.2908
  507MOL0     O68318  11.708   3.749  10.000 -0.5181 -0.3636  0.8189
  507MOL0     C68319  11.658   3.640  10.084 -1.0136 -1.0283 -0.0164
  507MOL0     C68320  11.701   3.501  10.044 -0.8088 -0.7388  0.4772
  507MOL0     C68321  11.680   3.402  10.159  0.3198 -0.0459 -0.0112
  507MOL0     C68322  11.647   3.263  10.103 -0.0347  0.3445  0.3004
  507MOL0     C68323  11.621   3.158  10.217 -0.3795  0.0944  0.2108
  507MOL0     C68324  11.487   3.173  10.287  1.5745  0.2999 -0.4888
  507MOL0     C68325  11.464   3.068  10.398 -0.1755 -0.5087  0.0137
  507MOL0     C68326  11.572   3.068  10.516 -0.5963  0.0884  0.7225
  507MOL0     N68327  11.548   3.187  10.598 -0.2212  0.0957  0.3144
  507MOL0     C68328  11.632   3.308  10.605 -0.0942  0.1394 -1.0765
  507MOL0     C68329  11.579   3.381  10.709 -0.1486  0.2762 -0.0708
  507MOL0     C68330  11.616   3.523  10.765  0.0451 -0.9942 -0.0595
  507MOL0     C68331  11.489   3.609  10.755  0.2672  0.2671 -1.2458
  507MOL0     C68332  11.503   3.714  10.637  0.7113  0.0783 -0.0431
  507MOL0     C68333  11.399   3.815  10.627  0.1738  0.2469  0.2847
  507MOL0     O68334  11.395   3.899  10.735 -0.3104 -0.1867 -0.4568
  507MOL0     C68335  11.382   4.038  10.724 -0.6035  1.4913 -0.8138
  507MOL0     C68336  11.356   4.101  10.842 -0.1657 -0.0373  0.2884
  507MOL0     C68337  11.362   4.244  10.849  0.3798 -0.6263  0.2903
  507MOL0     C68338  11.400   4.320  10.732 -0.5657  0.2703  0.2559
  507MOL0     C68339  11.397   4.469  10.737  1.0071 -0.2510 -0.4112
  507MOL0     O68340  11.356   4.524  10.853  0.5339  0.5389 -0.3106
  507MOL0     C68341  11.317   4.647  10.831  0.2179 -1.1829 -0.1076
  507MOL0     C68342  11.399   4.751  10.863 -0.2421 -0.3550  0.1836
  507MOL0     C68343  11.364   4.880  10.830  1.1058 -0.4804  0.6257
  507MOL0     C68344  11.236   4.905  10.767  0.5324 -0.0105 -0.1195
  507MOL0     O68345  11.192   5.026  10.733 -0.3823 -1.0374 -0.3335
  507MOL0     C68346  11.255   5.141  10.788  0.0487  0.2778 -0.5041
  507MOL0     C68347  11.319   5.211  10.680  0.1062 -0.7514  0.1574
  507MOL0     C68348  11.358   5.346  10.737  0.4806  1.5967  1.1412
  507MOL0     C68349  11.406   5.453  10.630 -1.3884  0.4354 -0.3306
  507MOL0     C68350  11.290   5.484  10.531 -0.2666 -0.7715 -0.3987
  507MOL0     C68351  11.317   5.592  10.419 -0.2533  0.2154  0.0043
  507MOL0     C68352  11.412   5.540  10.307  0.2281 -0.4478 -0.1774
  507MOL0     C68353  11.372   5.410  10.226  0.4069  0.8011  0.9855
  507MOL0    Cl68354  11.209   5.425  10.141  0.1813 -0.1647 -0.1744
  507MOL0     C68355  11.151   4.807  10.739 -0.2790 -0.4034 -0.3946
  507MOL0     C68356  11.186   4.675  10.773 -0.8192 -0.1960 -0.0639
  507MOL0     O68357  11.430   4.528  10.636  0.1287 -0.4171 -0.2446
  507MOL0     C68358  11.435   4.257  10.609 -0.1929 -0.1518  0.3197
  507MOL0     C68359  11.413   4.112  10.611 -0.5149  0.4256 -0.6811
  507MOL0     N68360  11.464   3.307  10.747  1.0118 -0.1830 -1.2793
  507MOL0     N68361  11.443   3.201  10.676 -0.7665  0.2759  0.6647
  507MOL0     C68362  11.705   3.982   9.947 -0.1197 -0.3129 -0.4547
  507MOL0     C68363  11.674   4.119   9.977 -0.0676 -0.3886  0.9928
  507MOL0     C68364  11.476   4.493  10.109  0.1288 -0.6318  0.3564
  507MOL0     C68365  11.534   4.523  10.237  0.4349 -1.1205  0.9120
  507MOL0     C68366  11.528   4.652  10.292  0.3676 -0.3960 -0.5551
  507MOL0     C68367  11.478   4.757  10.219 -0.9390  0.5975 -0.5105
  507MOL0     O68368  11.475   4.887  10.272  0.5616 -0.5837  0.3340
  507MOL0     C68369  11.554   4.922  10.391  0.3397  0.2074 -0.0151
  507MOL0     C68370  11.577   5.074  10.383  0.2170  0.0827  0.3900
  507MOL0     C68371  11.667   5.107  10.265 -0.5516 -0.0317  0.2103
  507MOL0     C68372  11.761   5.229  10.292 -0.1642 -0.9429 -1.2367
  507MOL0     C68373  11.858   5.218  10.402 -0.8891  0.3722  0.7193
  507MOL0     C68374  11.953   5.196  10.473 -0.5717 -0.9170  0.4469
  507MOL0     C68375  11.429   4.733  10.094 -0.4572 -0.8908 -0.9548
  507MOL0     C68376  11.425   4.603  10.034 -0.3237 -0.1569 -0.1754
  507MOL0     C68377  11.388   4.593   9.887 -0.2741  0.4834 -0.2415
  507MOL0     H68378  11.444   4.060  10.229 -0.5972  0.2516 -0.5834
  507MOL0     H68379  11.515   3.839  10.191  1.3609 -0.4201  0.4976
  507MOL0     H68380  11.689   3.657  10.188 -3.6350 -2.2501  1.0447
  507MOL0     H68381  11.549   3.639  10.088 -1.0054 -1.4595  0.2360
  507MOL0     H68382  11.804   3.514  10.009 -1.5182  1.7197 -0.9353
  507MOL0     H68383  11.633   3.478   9.962 -0.0653 -3.1675  0.4537
  507MOL0     H68384  11.588   3.423  10.214 -1.9853 -1.8642 -2.8572
  507MOL0     H68385  11.775   3.407  10.212  1.1958  2.1497 -1.6516
  507MOL0     H68386  11.556   3.275  10.043  0.3501 -2.3281 -0.9961
  507MOL0     H68387  11.728   3.219  10.044 -0.9198 -1.4305  0.3399
  507MOL0     H68388  11.630   3.056  10.178 -1.1746 -0.5307  1.5723
  507MOL0     H68389  11.700   3.174  10.291  0.4634  1.3628 -0.9091
  507MOL0     H68390  11.484   3.269  10.340  1.1245  0.6648 -1.1499
  507MOL0     H68391  11.401   3.157  10.222  1.6292  1.4781 -0.8801
  507MOL0     H68392  11.477   2.971  10.349  1.1736  0.4057 -1.5462
  507MOL0     H68393  11.364   3.070  10.442  0.2699 -1.6163  1.1409
  507MOL0     H68394  11.560   2.979  10.578  0.9574  0.1930  1.2321
  507MOL0     H68395  11.676   3.064  10.483 -1.0956 -3.6798 -0.8535
  507MOL0     H68396  11.718   3.348  10.553  0.5732  0.0890 -0.0562
  507MOL0     H68397  11.647   3.498  10.866 -0.6550 -0.0427  0.4035
  507MOL0     H68398  11.704   3.568  10.718  0.7394 -0.8104  1.3652
  507MOL0     H68399  11.396   3.553  10.739  1.0623 -1.8941  1.0825
  507MOL0     H68400  11.471   3.648  10.856 -1.9192  1.6790 -2.0843
  507MOL0     H68401  11.482   3.647  10.553 -1.1982 -3.9685  3.2524
  507MOL0     H68402  11.605   3.752  10.642  0.8100 -0.3076  1.5011
  507MOL0     H68403  11.308   3.756  10.621  0.9085 -0.8178 -0.9417
  507MOL0     H68404  11.412   3.868  10.532  0.6024  1.2436  0.8719
  507MOL0     H68405  11.316   4.036  10.919  0.7541 -0.7291  0.1995
  507MOL0     H68406  11.340   4.303  10.937 -1.8613  0.3256 -0.8199
  507MOL0     H68407  11.494   4.727  10.910 -0.0893  3.0219  1.9506
  507MOL0     H68408  11.428   4.965  10.851 -1.9960  1.9385  1.0618
  507MOL0     H68409  11.174   5.199  10.833  2.0507  2.2403  0.7484
  507MOL0     H68410  11.331   5.125  10.865  0.7030 -1.4189 -1.4352
  507MOL0     H68411  11.406   5.150  10.656 -1.7779 -2.3906 -3.3565
  507MOL0     H68412  11.253   5.218  10.593  2.8336 -2.0627 -2.2079
  507MOL0     H68413  11.288   5.395  10.807  0.3192  1.1614  1.2882
  507MOL0     H68414  11.444   5.319  10.798  0.5134 -3.5335 -0.7498
  507MOL0     H68415  11.492   5.402  10.586 -3.0950 -3.5331  0.4090
  507MOL0     H68416  11.446   5.536  10.689 -2.7191  0.9929 -0.1806
  507MOL0     H68417  11.207   5.505  10.600 -1.4405 -3.4801 -0.8303
  507MOL0     H68418  11.260   5.392  10.480 -2.4789 -1.0411  1.2362
  507MOL0     H68419  11.223   5.619  10.371 -1.3689 -0.1883  1.8290
  507MOL0     H68420  11.362   5.683  10.460 -2.2114  1.1874  0.0991
  507MOL0     H68421  11.504   5.500  10.351  2.0952  0.1951 -3.1916
  507MOL0     H68422  11.443   5.613  10.231 -0.9160 -0.7104 -0.9171
  507MOL0     H68423  11.456   5.393  10.157  0.6631  0.6805  1.3266
  507MOL0     H68424  11.357   5.321  10.287  0.5415 -0.9266 -1.3591
  507MOL0     H68425  11.066   4.823  10.674  0.3765  1.9407 -0.7802
  507MOL0     H68426  11.120   4.591  10.753  1.3677 -1.8006 -1.0190
  507MOL0     H68427  11.479   4.305  10.522 -1.3132 -0.9765 -0.7377
  507MOL0     H68428  11.455   4.064  10.523  0.6080  1.2042 -0.5935
  507MOL0     H68429  11.783   3.956   9.876  0.8366 -1.3512  0.9106
  507MOL0     H68430  11.733   4.202   9.940  2.8213 -3.1168 -1.1088
  507MOL0     H68431  11.582   4.453  10.305  0.9162 -1.3771  0.3145
  507MOL0     H68432  11.574   4.666  10.389  1.6502 -1.7583 -0.9208
  507MOL0     H68433  11.649   4.869  10.392 -0.2853 -0.9387  0.7552
  507MOL0     H68434  11.490   4.890  10.474  0.4838  1.4391  0.6040
  507MOL0     H68435  11.635   5.104  10.471  2.6695  0.5869 -1.2849
  507MOL0     H68436  11.478   5.121  10.388  1.2824  2.9042 -2.1975
  507MOL0     H68437  11.608   5.140  10.179  0.8612 -0.4102 -0.9396
  507MOL0     H68438  11.723   5.018  10.234 -0.7753 -0.1156  0.0416
  507MOL0     H68439  11.821   5.258  10.205  0.5478 -0.5603 -0.6271
  507MOL0     H68440  11.699   5.316  10.319  1.7048  0.4704 -1.2574
  507MOL0     H68441  12.031   5.173  10.544  1.1143  2.2956 -0.1697
  507MOL0     H68442  11.380   4.818  10.048 -1.8967 -0.5107  1.1279
  507MOL0     H68443  11.384   4.694   9.845 -1.6572  1.5254  2.2206
  507MOL0     H68444  11.466   4.533   9.839 -0.6841 -1.6916  1.6269
  507MOL0     H68445  11.292   4.545   9.864  1.6466 -2.6761 -2.5450
  508MOL0     O68446   7.305   8.201   6.109  0.6590 -0.1085 -0.0756
  508MOL0     C68447   7.242   8.309   6.129 -0.1013  0.6874  0.1598
  508MOL0     O68448   7.218   8.354   6.254  0.3103  0.2053 -0.3082
  508MOL0     C68449   7.228   8.278   6.367  0.0269 -0.3783 -0.3579
  508MOL0     C68450   7.244   8.345   6.487 -0.6190 -0.4699 -0.0298
  508MOL0     C68451   7.261   8.275   6.608  0.4172 -0.5339 -0.1069
  508MOL0     C68452   7.241   8.140   6.617  0.5400  0.6710 -1.0287
  508MOL0     O68453   7.266   8.085   6.747 -0.4939 -0.8296 -0.0668
  508MOL0     C68454   7.225   7.948   6.772  0.1353 -0.8803  0.7476
  508MOL0     C68455   7.246   7.917   6.919  0.5787  0.8306  0.0354
  508MOL0     C68456   7.140   7.989   7.000  0.3422 -0.3670 -0.7819
  508MOL0     C68457   7.158   7.964   7.149  0.3574  0.1719  0.0651
  508MOL0     C68458   7.022   7.979   7.231 -0.4870  0.2296 -1.3806
  508MOL0     C68459   7.054   7.976   7.385  0.2366 -1.5324  1.0299
  508MOL0     C68460   6.925   7.961   7.462  0.4222  0.9937  0.0711
  508MOL0     C68461   6.936   8.020   7.605  0.3233 -0.5334  1.0567
  508MOL0     N68462   7.031   7.948   7.697  0.7000 -0.2913 -0.1253
  508MOL0     C68463   7.131   8.001   7.764 -0.1116  0.5320  1.2187
  508MOL0     C68464   7.199   7.892   7.814  0.7813 -0.0491  1.2040
  508MOL0     C68465   7.330   7.883   7.883  0.3769  0.5049  0.3288
  508MOL0     C68466   7.430   7.860   7.771  0.6923 -0.0002 -0.4880
  508MOL0     C68467   7.426   7.709   7.724  0.0096 -0.8469 -0.0840
  508MOL0     C68468   7.570   7.683   7.684  0.6556 -0.4416  0.2703
  508MOL0     O68469   7.598   7.765   7.568 -0.3861 -0.2000  0.0038
  508MOL0     C68470   7.711   7.744   7.492 -0.9825 -1.0780 -0.8992
  508MOL0     C68471   7.710   7.808   7.369 -0.6480 -0.5057 -0.3100
  508MOL0     C68472   7.823   7.789   7.283 -0.5383  0.9158  0.4170
  508MOL0     C68473   7.935   7.713   7.326 -0.9290 -0.0322 -0.3295
  508MOL0     C68474   8.055   7.702   7.238 -1.4075 -0.3391  0.0716
  508MOL0     O68475   8.157   7.608   7.282  0.1115  0.1702 -1.1160
  508MOL0     C68476   8.269   7.589   7.208  0.3426  0.0888 -0.5727
  508MOL0     C68477   8.296   7.472   7.127 -0.0590 -0.3228 -0.8154
  508MOL0     C68478   8.414   7.464   7.053 -0.2055 -0.7149 -0.1974
  508MOL0     C68479   8.510   7.574   7.061  0.3600  0.7070  0.4522
  508MOL0     O68480   8.628   7.575   6.989 -0.3680  0.2822  0.0753
  508MOL0     C68481   8.716   7.469   7.012  0.4945  0.0575  0.6850
  508MOL0     C68482   8.856   7.484   6.962  0.5326 -1.5087  0.3040
  508MOL0     C68483   8.867   7.424   6.819  0.3699  0.4795 -0.2107
  508MOL0     C68484   8.769   7.484   6.724 -0.4712 -0.4693 -0.0032
  508MOL0     C68485   8.796   7.630   6.678  0.0401 -0.7155 -0.3126
  508MOL0     C68486   8.685   7.701   6.593 -1.5434 -0.4313  0.6755
  508MOL0     C68487   8.658   7.616   6.472 -0.6582  1.1373  0.2938
  508MOL0     C68488   8.586   7.693   6.365 -0.2482 -0.1045  0.4357
  508MOL0    Cl68489   8.421   7.752   6.407  0.2503 -0.4803 -0.1370
  508MOL0     C68490   8.474   7.687   7.141 -0.4710  0.1858 -0.5757
  508MOL0     C68491   8.363   7.691   7.213 -0.6786  0.2856  0.7958
  508MOL0     O68492   8.061   7.770   7.134  0.0787  0.7253  0.3331
  508MOL0     C68493   7.936   7.657   7.458  0.2964 -0.0181  0.3472
  508MOL0     C68494   7.825   7.669   7.545  0.1048  0.3387  0.7298
  508MOL0     N68495   7.120   7.777   7.797  0.3521 -0.4430 -0.2280
  508MOL0     N68496   7.016   7.812   7.729 -0.5347  0.3997  0.1812
  508MOL0     C68497   7.220   8.065   6.497 -1.0785  0.9825  0.6869
  508MOL0     C68498   7.212   8.135   6.375 -0.0241 -0.3288  0.1355
  508MOL0     C68499   7.212   8.382   5.996 -0.3234  0.3459 -0.0857
  508MOL0     C68500   7.178   8.309   5.884  0.8371  0.0116  0.4379
  508MOL0     C68501   7.133   8.355   5.765  0.6244  0.8291  0.6448
  508MOL0     C68502   7.124   8.491   5.748 -0.4537  0.4469 -0.8681
  508MOL0     O68503   7.067   8.552   5.644 -0.5528  0.6880  0.0792
  508MOL0     C68504   6.997   8.477   5.543  0.6657  0.0446  0.2297
  508MOL0     C68505   6.926   8.568   5.445 -0.9114  0.1621  0.3743
  508MOL0     C68506   6.880   8.482   5.334  0.8396 -0.5080  0.8071
  508MOL0     C68507   6.766   8.556   5.271  0.4633  0.5432 -0.2268
  508MOL0     C68508   6.660   8.470   5.216  0.1158  0.0764  0.8822
  508MOL0     C68509   6.576   8.389   5.187 -0.6372 -0.0465 -0.6328
  508MOL0     C68510   7.160   8.575   5.852  0.0862 -0.0931 -0.4562
  508MOL0     C68511   7.214   8.527   5.972  0.7149 -0.6630 -0.3043
  508MOL0     C68512   7.246   8.613   6.091 -1.1140 -0.8062  1.0086
  508MOL0     H68513   7.265   8.451   6.490 -2.8229  0.1665 -2.7743
  508MOL0     H68514   7.288   8.334   6.695 -2.1361  2.1068 -0.9539
  508MOL0     H68515   7.123   7.933   6.736  0.2632  1.6457 -0.9239
  508MOL0     H68516   7.283   7.884   6.705 -1.2430 -2.1917  0.7535
  508MOL0     H68517   7.348   7.950   6.940  0.4651  0.6951  0.8116
  508MOL0     H68518   7.257   7.809   6.936 -0.9634  0.4415 -1.1553
  508MOL0     H68519   7.038   7.959   6.975  0.4694 -1.4731 -0.0249
  508MOL0     H68520   7.148   8.098   6.990 -0.1850  0.1456  2.9371
  508MOL0     H68521   7.193   7.861   7.156 -4.0694 -1.4770  1.3117
  508MOL0     H68522   7.228   8.040   7.186 -1.1715  1.7716 -0.1788
  508MOL0     H68523   6.974   8.072   7.199 -0.6944  0.4312 -0.5120
  508MOL0     H68524   6.950   7.897   7.222  1.7863 -2.0933  0.1898
  508MOL0     H68525   7.127   7.899   7.411  3.0004  0.7873  0.7332
  508MOL0     H68526   7.103   8.073   7.403  0.1753 -0.3272 -3.9099
  508MOL0     H68527   6.895   7.856   7.461 -2.4213  1.6986  1.7806
  508MOL0     H68528   6.854   8.021   7.404 -0.9885  1.3939  2.1230
  508MOL0     H68529   6.970   8.122   7.584 -0.4890 -0.8607 -2.5036
  508MOL0     H68530   6.839   8.025   7.654 -0.7080 -2.2083 -0.6772
  508MOL0     H68531   7.163   8.104   7.749  0.3335  0.2755  0.3409
  508MOL0     H68532   7.353   7.973   7.940  1.4391 -1.0829  2.5345
  508MOL0     H68533   7.333   7.806   7.960  2.3937  1.5068  1.3198
  508MOL0     H68534   7.407   7.920   7.682  0.6190 -0.0513 -0.5033
  508MOL0     H68535   7.528   7.896   7.804  1.1879 -3.9047  3.1388
  508MOL0     H68536   7.363   7.701   7.635  0.4691  0.4147 -0.5438
  508MOL0     H68537   7.397   7.624   7.787 -2.0503  0.0951  0.3245
  508MOL0     H68538   7.580   7.575   7.670  3.1426 -0.6060  2.5861
  508MOL0     H68539   7.640   7.712   7.762  1.2659  1.7597 -1.0020
  508MOL0     H68540   7.646   7.892   7.343  0.6559 -0.0246 -2.1938
  508MOL0     H68541   7.834   7.854   7.197  3.0833  0.1078  0.1270
  508MOL0     H68542   8.225   7.391   7.114  1.8201 -1.6801 -3.3700
  508MOL0     H68543   8.440   7.380   6.988  3.7792 -0.7042  1.0769
  508MOL0     H68544   8.722   7.452   7.120 -0.8104 -1.7954  0.5109
  508MOL0     H68545   8.671   7.377   6.972 -0.6891  0.3183  1.3785
  508MOL0     H68546   8.863   7.593   6.970 -1.3025 -1.3031 -0.2501
  508MOL0     H68547   8.929   7.439   7.030 -0.3498 -2.2853  0.7639
  508MOL0     H68548   8.974   7.437   6.800  0.7790 -3.2787 -1.3751
  508MOL0     H68549   8.835   7.319   6.828 -4.3687  1.8223  1.6212
  508MOL0     H68550   8.664   7.486   6.752 -0.6409  1.8559 -0.6155
  508MOL0     H68551   8.789   7.439   6.626  4.6656  2.1786 -0.5473
  508MOL0     H68552   8.898   7.625   6.638  0.7922  1.5780  1.1281
  508MOL0     H68553   8.811   7.695   6.764  1.1824 -0.9679 -0.3116
  508MOL0     H68554   8.591   7.721   6.646 -2.3627  0.1719 -0.9597
  508MOL0     H68555   8.723   7.801   6.568 -0.9186 -1.3556 -2.4967
  508MOL0     H68556   8.595   7.539   6.516 -0.3692  0.6467 -0.1460
  508MOL0     H68557   8.756   7.580   6.441  0.4342  0.2891  4.2700
  508MOL0     H68558   8.650   7.781   6.352  1.5889 -1.3667  0.5565
  508MOL0     H68559   8.596   7.641   6.270  0.5960 -1.8307  1.4162
  508MOL0     H68560   8.540   7.773   7.139  0.0548 -0.2076 -2.1873
  508MOL0     H68561   8.348   7.779   7.274 -1.1252  1.8773 -1.4984
  508MOL0     H68562   8.020   7.600   7.497  1.4340 -0.0155 -1.8985
  508MOL0     H68563   7.820   7.618   7.640  1.0204  0.7018  0.9965
  508MOL0     H68564   7.204   7.958   6.493  1.5842  0.4278  2.4041
  508MOL0     H68565   7.183   8.079   6.286 -1.3578 -1.1442  1.0514
  508MOL0     H68566   7.181   8.201   5.888  0.7559  0.0084  0.3969
  508MOL0     H68567   7.114   8.301   5.673  2.2917  0.1730  0.6553
  508MOL0     H68568   6.924   8.417   5.598  1.2282 -2.2506 -1.3571
  508MOL0     H68569   7.079   8.415   5.505  2.8803  1.0358  2.9859
  508MOL0     H68570   6.998   8.640   5.406 -1.7968  0.8963  0.0583
  508MOL0     H68571   6.853   8.634   5.493 -0.4595 -0.1625  1.5504
  508MOL0     H68572   6.848   8.385   5.374 -4.0710  0.8350  0.7072
  508MOL0     H68573   6.956   8.470   5.256  3.3370  2.3419  2.5905
  508MOL0     H68574   6.725   8.637   5.333 -0.2016 -0.1105  0.1977
  508MOL0     H68575   6.807   8.619   5.192  1.1554 -0.0642 -0.3552
  508MOL0     H68576   6.506   8.318   5.149 -0.1972 -0.3407 -0.9052
  508MOL0     H68577   7.139   8.680   5.833 -1.3366 -0.8927 -4.0174
  508MOL0     H68578   7.146   8.628   6.131 -1.5698  2.2653 -0.9849
  508MOL0     H68579   7.308   8.579   6.175  0.1796  1.9098  1.2462
  508MOL0     H68580   7.289   8.706   6.053 -2.8942 -0.5690 -0.5387
  509MOL0     O68581   8.065   8.226   6.397 -0.6339  0.5589  0.3728
  509MOL0     C68582   7.963   8.242   6.333  0.4704 -0.9649  0.2789
  509MOL0     O68583   7.938   8.184   6.212 -0.0099 -1.1195  0.3928
  509MOL0     C68584   8.029   8.087   6.176  0.7401 -0.5034 -0.0690
  509MOL0     C68585   8.087   8.108   6.044 -0.3385  0.4386  0.7326
  509MOL0     C68586   8.170   8.010   5.988 -1.2083  0.3673 -0.2440
  509MOL0     C68587   8.196   7.889   6.062 -0.1380  0.0046  0.1583
  509MOL0     O68588   8.275   7.779   6.024  0.1173  0.4101 -0.4202
  509MOL0     C68589   8.336   7.792   5.898  0.3995  0.6498  0.1427
  509MOL0     C68590   8.395   7.663   5.847 -0.3085  0.3878 -0.1869
  509MOL0     C68591   8.394   7.668   5.694 -0.7978  0.1992 -0.1827
  509MOL0     C68592   8.483   7.561   5.634 -0.4854 -0.1863  0.8275
  509MOL0     C68593   8.493   7.577   5.484 -0.1095  0.4573 -0.7503
  509MOL0     C68594   8.353   7.578   5.417  0.3549 -0.3591 -0.9049
  509MOL0     C68595   8.359   7.567   5.267 -0.5215  0.0266 -0.3116
  509MOL0     C68596   8.408   7.428   5.213  1.0982 -0.1350  0.3031
  509MOL0     N68597   8.442   7.449   5.071  0.0999  0.6132 -0.0243
  509MOL0     C68598   8.353   7.445   4.969  0.2756  0.3868  1.0733
  509MOL0     C68599   8.409   7.512   4.859 -0.5065 -0.8665 -0.1074
  509MOL0     C68600   8.335   7.549   4.728 -0.4200 -0.5319  0.0813
  509MOL0     C68601   8.257   7.685   4.756 -1.2391  0.2487 -0.3647
  509MOL0     C68602   8.160   7.705   4.642 -1.0583  0.3870 -0.8338
  509MOL0     C68603   8.044   7.788   4.705 -0.0887 -0.3987  0.4039
  509MOL0     O68604   8.082   7.932   4.717  0.3398  0.1892 -0.0025
  509MOL0     C68605   7.993   8.023   4.743 -0.6819  0.7622  0.2642
  509MOL0     C68606   8.023   8.157   4.769  0.1497 -0.0223 -0.7423
  509MOL0     C68607   7.923   8.249   4.807  0.7571 -0.1113  0.6106
  509MOL0     C68608   7.789   8.216   4.818  0.2995  0.1499  0.1575
  509MOL0     C68609   7.681   8.314   4.842 -0.0157 -0.6663 -1.3138
  509MOL0     O68610   7.546   8.270   4.836 -0.3702  0.9001  0.4924
  509MOL0     C68611   7.462   8.362   4.891  1.9523  1.0692  0.2661
  509MOL0     C68612   7.432   8.363   5.028  0.1707  0.1930  0.4415
  509MOL0     C68613   7.330   8.446   5.069  0.0674  0.0670 -0.3140
  509MOL0     C68614   7.270   8.533   4.980  0.6657 -1.5526 -0.1338
  509MOL0     O68615   7.174   8.624   5.028 -0.1692  0.1067 -0.7361
  509MOL0     C68616   7.118   8.723   4.946  0.3749  0.3270  0.2056
  509MOL0     C68617   7.031   8.820   5.031  0.6290  0.0937  0.5140
  509MOL0     C68618   6.884   8.828   4.997 -0.8281 -0.7769 -0.8048
  509MOL0     C68619   6.812   8.918   5.100 -0.8877 -0.2029 -0.0595
  509MOL0     C68620   6.677   8.979   5.044 -0.2335  0.4863  0.2691
  509MOL0     C68621   6.547   8.902   5.042  0.1267 -0.0807 -0.6539
  509MOL0     C68622   6.503   8.862   5.183 -0.4193 -0.4011  0.4537
  509MOL0     C68623   6.354   8.834   5.188 -0.7294  0.2572 -0.5552
  509MOL0    Cl68624   6.259   8.984   5.163  0.2646  0.4478  0.3008
  509MOL0     C68625   7.311   8.542   4.839  0.4024  0.2747 -0.2218
  509MOL0     C68626   7.404   8.456   4.800  0.1188  1.4165  0.0819
  509MOL0     O68627   7.722   8.426   4.875 -0.0535  0.5350  0.0925
  509MOL0     C68628   7.755   8.078   4.801 -0.3383 -0.9737  0.4424
  509MOL0     C68629   7.856   7.987   4.768 -0.0417 -0.4206 -0.2996
  509MOL0     N68630   8.532   7.552   4.891 -0.8147 -1.0576 -1.1014
  509MOL0     N68631   8.554   7.501   5.011 -0.7108 -0.5092  0.4003
  509MOL0     C68632   8.138   7.875   6.193 -0.0170 -0.5141  0.7731
  509MOL0     C68633   8.057   7.974   6.254  0.0505  0.3054 -0.4309
  509MOL0     C68634   7.863   8.338   6.385  0.0920 -0.8757  0.3341
  509MOL0     C68635   7.893   8.432   6.493 -0.5345 -0.6125  1.3469
  509MOL0     C68636   7.802   8.520   6.554 -0.7299 -0.0362  0.2638
  509MOL0     C68637   7.661   8.509   6.522 -0.8865  0.2517  0.4070
  509MOL0     O68638   7.557   8.580   6.575  1.5593 -0.7912  0.0911
  509MOL0     C68639   7.592   8.683   6.667 -0.2249  0.2802 -0.3803
  509MOL0     C68640   7.462   8.762   6.711  0.0099 -0.2466 -0.1626
  509MOL0     C68641   7.514   8.889   6.787  0.5818 -0.7646 -1.5399
  509MOL0     C68642   7.399   8.966   6.843 -0.0177  0.5152  1.1953
  509MOL0     C68643   7.428   9.033   6.972  0.4791 -1.0128  0.0151
  509MOL0     C68644   7.445   9.113   7.065 -0.3918  0.5047 -0.0212
  509MOL0     C68645   7.627   8.420   6.416  0.3136 -0.3465 -1.1651
  509MOL0     C68646   7.725   8.349   6.344  0.0841 -0.2784  0.0044
  509MOL0     C68647   7.660   8.266   6.229 -0.5223  0.0086  0.4393
  509MOL0     H68648   8.071   8.194   5.980 -2.0935  0.2703  0.8985
  509MOL0     H68649   8.201   8.017   5.884  0.0096 -3.8055 -0.3535
  509MOL0     H68650   8.265   7.819   5.819 -1.0353 -0.2426  1.0967
  509MOL0     H68651   8.421   7.859   5.913  1.8417 -0.7458 -1.3505
  509MOL0     H68652   8.348   7.568   5.877  0.9678 -0.6907 -1.4326
  509MOL0     H68653   8.502   7.647   5.864 -0.3019 -0.8969 -1.1793
  509MOL0     H68654   8.444   7.754   5.647  2.0433 -0.9580  0.5439
  509MOL0     H68655   8.296   7.648   5.650 -1.1492  2.3173 -0.4845
  509MOL0     H68656   8.584   7.555   5.674  1.8256  0.7270 -4.0894
  509MOL0     H68657   8.450   7.458   5.653  3.0144 -1.1609  2.5588
  509MOL0     H68658   8.541   7.667   5.443  2.3540 -1.3055 -1.9816
  509MOL0     H68659   8.548   7.489   5.448  0.2129  1.0042 -1.6231
  509MOL0     H68660   8.285   7.501   5.457 -0.2557 -0.1064 -1.4379
  509MOL0     H68661   8.313   7.676   5.444  0.7131 -0.5320  0.2988
  509MOL0     H68662   8.432   7.641   5.232 -0.2888 -0.7312 -1.4864
  509MOL0     H68663   8.270   7.593   5.209  0.9663  0.1228 -2.7181
  509MOL0     H68664   8.503   7.404   5.263  1.1992  0.0018  0.1778
  509MOL0     H68665   8.330   7.353   5.227 -0.5315  1.7399  1.8737
  509MOL0     H68666   8.255   7.399   4.974 -0.7099  2.2230 -0.3166
  509MOL0     H68667   8.407   7.554   4.646  2.4876 -0.8499  2.4120
  509MOL0     H68668   8.257   7.475   4.706 -2.6056  2.2336 -2.3913
  509MOL0     H68669   8.204   7.686   4.852 -5.7158 -1.2121 -2.5661
  509MOL0     H68670   8.325   7.769   4.773 -1.7953  0.0766  3.7348
  509MOL0     H68671   8.113   7.614   4.603 -0.3200 -0.4181  0.1083
  509MOL0     H68672   8.197   7.765   4.558  1.6138 -0.3558 -0.2484
  509MOL0     H68673   8.008   7.744   4.799 -0.7843  0.3508  0.4960
  509MOL0     H68674   7.962   7.776   4.633 -0.6030 -0.4369  0.9835
  509MOL0     H68675   8.121   8.201   4.753 -0.8920  2.4295 -0.8594
  509MOL0     H68676   7.960   8.348   4.834 -3.6281  2.1437 -0.8236
  509MOL0     H68677   7.495   8.294   5.082  0.6977  0.5217  0.2508
  509MOL0     H68678   7.296   8.449   5.172  0.0302  0.9999 -0.3390
  509MOL0     H68679   7.192   8.776   4.886 -0.4272 -1.2545 -2.3794
  509MOL0     H68680   7.052   8.676   4.872 -1.6328  2.7483  0.3442
  509MOL0     H68681   7.039   8.780   5.132  3.1582 -0.9202 -0.0199
  509MOL0     H68682   7.071   8.922   5.035 -0.7376  0.6374  0.9214
  509MOL0     H68683   6.879   8.866   4.895 -1.4549 -1.6036 -1.0939
  509MOL0     H68684   6.831   8.732   5.002 -1.4900 -0.4351  3.5915
  509MOL0     H68685   6.867   9.011   5.119 -1.0287 -0.0563 -0.3736
  509MOL0     H68686   6.801   8.860   5.192  0.4840  1.2436  1.0801
  509MOL0     H68687   6.703   9.002   4.940 -1.0010 -3.7088 -1.0444
  509MOL0     H68688   6.667   9.072   5.100  2.7702  1.7706 -1.0765
  509MOL0     H68689   6.467   8.965   5.002  0.5614 -0.7494 -2.7171
  509MOL0     H68690   6.553   8.807   4.988 -1.2005 -0.9421  0.6377
  509MOL0     H68691   6.533   8.929   5.264  1.8862 -1.0071  0.1936
  509MOL0     H68692   6.536   8.760   5.203 -0.3963 -0.9958 -2.2403
  509MOL0     H68693   6.328   8.764   5.108  1.1926 -0.5898 -0.5043
  509MOL0     H68694   6.343   8.794   5.289  3.0279  2.1290  0.8079
  509MOL0     H68695   7.271   8.617   4.772 -2.4478  1.3645  2.4794
  509MOL0     H68696   7.438   8.458   4.697  0.8368  1.1688  0.3071
  509MOL0     H68697   7.653   8.041   4.808 -1.6222  2.1917  0.0596
  509MOL0     H68698   7.830   7.882   4.762  0.2062 -0.5539  0.6843
  509MOL0     H68699   8.155   7.784   6.249  3.2724 -1.5034 -1.5263
  509MOL0     H68700   8.013   7.946   6.349  1.2304  2.6163  0.8627
  509MOL0     H68701   7.993   8.435   6.535 -1.4905 -3.6127  4.3723
  509MOL0     H68702   7.830   8.588   6.634 -0.0542  1.9976 -1.6112
  509MOL0     H68703   7.666   8.751   6.623 -1.9955  2.5971  0.0057
  509MOL0     H68704   7.638   8.634   6.753 -0.7546 -0.3817 -0.4610
  509MOL0     H68705   7.391   8.712   6.778  1.5766 -3.6235 -0.8376
  509MOL0     H68706   7.403   8.788   6.623 -2.2066  2.8240  1.9971
  509MOL0     H68707   7.576   8.950   6.720 -0.9066  0.6733 -1.6765
  509MOL0     H68708   7.571   8.851   6.872  0.6433  0.6104 -0.9406
  509MOL0     H68709   7.369   9.036   6.765  3.9518 -1.2335 -2.2341
  509MOL0     H68710   7.314   8.899   6.857 -2.6815  3.2429 -0.5334
  509MOL0     H68711   7.463   9.187   7.140 -2.8370  0.5666  0.5803
  509MOL0     H68712   7.522   8.413   6.389  0.4992  3.0061 -3.2742
  509MOL0     H68713   7.551   8.266   6.242 -0.2238  1.9417  4.4563
  509MOL0     H68714   7.681   8.320   6.136  2.5025 -3.7643 -1.3352
  509MOL0     H68715   7.697   8.164   6.224  3.3227  0.9269  4.2744
  510MOL0     O68716   7.819   8.753   7.014  0.2749  0.2724  0.3906
  510MOL0     C68717   7.826   8.694   7.121 -0.0994  0.5902  0.3490
  510MOL0     O68718   7.895   8.577   7.133 -0.7492 -0.3685 -0.0156
  510MOL0     C68719   7.960   8.521   7.029  0.1577  0.5512  0.3978
  510MOL0     C68720   8.077   8.572   6.963  0.1368 -0.5028 -0.8413
  510MOL0     C68721   8.152   8.510   6.866  0.2061  0.2077 -0.4665
  510MOL0     C68722   8.112   8.376   6.840  0.1106 -0.4588 -0.8825
  510MOL0     O68723   8.187   8.325   6.739 -0.9125 -0.0047  0.2612
  510MOL0     C68724   8.156   8.201   6.676 -0.1501  0.2962 -0.0225
  510MOL0     C68725   8.215   8.092   6.765  0.6897 -0.1172 -0.1919
  510MOL0     C68726   8.200   7.945   6.720  0.1275 -0.5405 -0.4495
  510MOL0     C68727   8.270   7.851   6.827 -0.1908  0.2325 -0.1587
  510MOL0     C68728   8.191   7.718   6.831 -0.1646 -0.7267 -0.1489
  510MOL0     C68729   8.207   7.630   6.710 -0.3130  0.4341  0.6889
  510MOL0     C68730   8.121   7.496   6.706 -0.0263 -0.1341  0.1335
  510MOL0     C68731   8.163   7.404   6.596 -0.3217  0.6456  0.1261
  510MOL0     N68732   8.057   7.320   6.561 -0.1188  0.8968 -0.1553
  510MOL0     C68733   8.015   7.219   6.649 -0.2789 -0.1838 -0.6085
  510MOL0     C68734   7.889   7.193   6.614  0.4909  0.3609  0.3368
  510MOL0     C68735   7.792   7.103   6.674 -0.0540 -0.4363 -0.3532
  510MOL0     C68736   7.812   6.957   6.633  0.1076  0.0392 -0.3183
  510MOL0     C68737   7.826   6.932   6.477  0.6184 -0.9813  0.3631
  510MOL0     C68738   7.743   6.821   6.423 -0.0999 -0.2262  0.5415
  510MOL0     O68739   7.737   6.703   6.504  0.3155 -0.4871  0.0835
  510MOL0     C68740   7.853   6.633   6.519  0.1841  0.0500  0.2404
  510MOL0     C68741   7.874   6.579   6.650  0.1202 -0.0451  1.0343
  510MOL0     C68742   7.985   6.516   6.682 -0.6922  0.7713 -0.6869
  510MOL0     C68743   8.089   6.496   6.583  0.1771  0.3385 -0.2299
  510MOL0     C68744   8.220   6.421   6.621 -0.5619 -0.2672 -0.1676
  510MOL0     O68745   8.309   6.394   6.525  0.4799  0.6582 -0.5743
  510MOL0     C68746   8.410   6.306   6.544 -1.0028 -0.2795  0.2461
  510MOL0     C68747   8.395   6.175   6.506  0.4467  0.0132 -0.4243
  510MOL0     C68748   8.486   6.070   6.536 -0.1261 -1.1847 -0.0435
  510MOL0     C68749   8.610   6.107   6.590 -0.2000  0.0309 -0.7524
  510MOL0     O68750   8.706   6.011   6.614  0.0506 -0.6168 -0.2906
  510MOL0     C68751   8.809   6.013   6.520  0.3619  0.3402  1.3689
  510MOL0     C68752   8.944   5.946   6.555  0.2660  0.6279 -0.0119
  510MOL0     C68753   9.047   5.958   6.452  0.1441 -0.5823 -0.1759
  510MOL0     C68754   9.184   5.916   6.509  0.7140  0.8851  0.5263
  510MOL0     C68755   9.295   5.919   6.412 -0.6718  0.2450 -0.0107
  510MOL0     C68756   9.425   5.884   6.484  0.6220  0.3195  0.3141
  510MOL0     C68757   9.553   5.890   6.405 -0.1397  0.1511  0.3612
  510MOL0     C68758   9.580   6.036   6.364  0.8721 -0.5661 -0.8778
  510MOL0    Cl68759   9.742   6.058   6.450 -0.3020 -0.0127  0.3856
  510MOL0     C68760   8.642   6.241   6.617  0.9782 -0.5215 -1.1247
  510MOL0     C68761   8.537   6.339   6.608 -0.4794  0.1090  0.0329
  510MOL0     O68762   8.241   6.378   6.734  0.0414 -0.2976  0.5430
  510MOL0     C68763   8.077   6.565   6.466 -0.7361  0.1670  0.1130
  510MOL0     C68764   7.966   6.629   6.427  0.5301  0.0972 -1.0319
  510MOL0     N68765   7.851   7.289   6.522  0.5603 -0.1801 -0.5240
  510MOL0     N68766   7.949   7.371   6.497  0.2018  0.1719  0.1919
  510MOL0     C68767   8.003   8.316   6.912  0.1489  0.0081  0.3901
  510MOL0     C68768   7.920   8.396   7.006  0.8018  0.0695 -0.0639
  510MOL0     C68769   7.750   8.752   7.231  0.0465 -0.2684 -0.0957
  510MOL0     C68770   7.702   8.881   7.214  0.0047 -0.0294  0.8935
  510MOL0     C68771   7.629   8.936   7.315  1.2319  0.4127  0.0970
  510MOL0     C68772   7.605   8.875   7.432  0.4346  0.0720  1.1507
  510MOL0     O68773   7.535   8.950   7.519  0.2040  0.7293 -0.2704
  510MOL0     C68774   7.609   9.031   7.612  0.9319  0.5166 -0.1394
  510MOL0     C68775   7.598   8.980   7.754  0.4865  1.3106 -0.6304
  510MOL0     C68776   7.707   9.049   7.842 -0.1049  0.9071  0.9033
  510MOL0     C68777   7.646   9.086   7.980  0.4199  0.8143 -0.0790
  510MOL0     C68778   7.560   9.204   7.982  0.2718  0.3039 -0.8740
  510MOL0     C68779   7.490   9.306   7.986 -1.0192  0.7749  0.4262
  510MOL0     C68780   7.645   8.740   7.452 -0.6734  0.1035  0.1867
  510MOL0     C68781   7.721   8.682   7.351  0.9080 -0.0220 -0.2549
  510MOL0     C68782   7.754   8.543   7.378  0.1156  0.7578  0.7202
  510MOL0     H68783   8.120   8.665   6.997  1.0868 -1.2053 -0.0678
  510MOL0     H68784   8.240   8.554   6.821 -0.0154  1.9019  0.6866
  510MOL0     H68785   8.047   8.189   6.670 -0.6820  3.8150  0.0303
  510MOL0     H68786   8.193   8.199   6.573 -4.2111 -1.6436 -1.6599
  510MOL0     H68787   8.182   8.101   6.870  2.2824  1.8736  0.1908
  510MOL0     H68788   8.322   8.112   6.759  0.4082  1.8152  0.5802
  510MOL0     H68789   8.234   7.916   6.620 -0.6295 -2.2892 -0.2275
  510MOL0     H68790   8.091   7.933   6.723 -0.4022  3.2569  1.7853
  510MOL0     H68791   8.372   7.835   6.793 -0.5799  0.2448 -1.3881
  510MOL0     H68792   8.276   7.898   6.926  2.2345 -2.3134  1.0462
  510MOL0     H68793   8.235   7.662   6.915 -1.0968  2.8991  3.0402
  510MOL0     H68794   8.085   7.723   6.856  0.2214 -2.4755  2.2731
  510MOL0     H68795   8.194   7.680   6.614  0.8336 -1.7465 -0.7081
  510MOL0     H68796   8.313   7.604   6.715 -0.5481 -0.4245  1.6728
  510MOL0     H68797   8.017   7.529   6.701  1.2937  4.9278  0.7644
  510MOL0     H68798   8.127   7.432   6.795  0.2654 -0.5419 -0.1803
  510MOL0     H68799   8.173   7.461   6.503 -0.5411  0.9002  0.2597
  510MOL0     H68800   8.258   7.354   6.612  0.7096  1.9132 -1.6500
  510MOL0     H68801   8.066   7.172   6.731 -0.1835 -1.5768 -1.4304
  510MOL0     H68802   7.802   7.106   6.783  0.5331 -1.8721 -0.3455
  510MOL0     H68803   7.689   7.134   6.652  0.1120  0.9388  0.6763
  510MOL0     H68804   7.901   6.912   6.678  0.6511 -1.1053 -2.4468
  510MOL0     H68805   7.731   6.893   6.670 -0.3805  1.2515  0.7928
  510MOL0     H68806   7.929   6.918   6.442  1.6818 -0.3774  3.0324
  510MOL0     H68807   7.789   7.023   6.428  0.1769 -0.8280  0.9662
  510MOL0     H68808   7.783   6.792   6.326 -1.4779 -0.9487  0.1640
  510MOL0     H68809   7.643   6.858   6.398  0.3463  1.0624  0.6011
  510MOL0     H68810   7.795   6.595   6.723  0.7501  1.6049  1.4266
  510MOL0     H68811   7.984   6.473   6.782 -2.6047 -3.4803 -2.2770
  510MOL0     H68812   8.299   6.153   6.460 -0.4810  2.6764  0.0293
  510MOL0     H68813   8.480   5.965   6.511 -1.6531 -0.8855 -1.0409
  510MOL0     H68814   8.765   5.973   6.428 -1.5907 -2.2405  3.3026
  510MOL0     H68815   8.845   6.117   6.515  2.0336 -0.2028  1.3925
  510MOL0     H68816   9.003   5.995   6.633 -1.4484  1.5564  0.7551
  510MOL0     H68817   8.910   5.843   6.572 -1.9168  0.9840 -1.8217
  510MOL0     H68818   9.037   5.893   6.365 -2.0239 -1.3390  0.5792
  510MOL0     H68819   9.047   6.064   6.426 -4.2381 -0.4097 -0.1437
  510MOL0     H68820   9.169   5.816   6.550  5.3704  0.8497  2.9611
  510MOL0     H68821   9.212   5.987   6.588  0.3717  0.8327  0.6950
  510MOL0     H68822   9.298   6.021   6.371  0.7140  1.4011  2.7210
  510MOL0     H68823   9.277   5.844   6.335  1.9698 -2.3962  1.7341
  510MOL0     H68824   9.433   5.941   6.577 -3.6230 -1.1148  1.8094
  510MOL0     H68825   9.417   5.778   6.510 -1.9034  0.3090 -0.2285
  510MOL0     H68826   9.544   5.844   6.306  0.1681 -2.8405  1.6009
  510MOL0     H68827   9.644   5.838   6.437  0.5539 -0.2270 -2.0251
  510MOL0     H68828   9.600   6.036   6.257  3.5723  0.6181 -0.4531
  510MOL0     H68829   9.502   6.107   6.394  0.7929 -0.5449 -1.1348
  510MOL0     H68830   8.742   6.269   6.648  1.0838 -0.2755 -1.6645
  510MOL0     H68831   8.552   6.442   6.640 -0.5339  0.4514 -0.9951
  510MOL0     H68832   8.165   6.570   6.403 -0.4309 -0.5715  0.4675
  510MOL0     H68833   7.965   6.685   6.334  2.3549  0.6942 -0.7287
  510MOL0     H68834   7.986   8.212   6.889 -1.6472 -0.1464  2.2121
  510MOL0     H68835   7.820   8.366   7.033  0.0442  2.3283 -0.1042
  510MOL0     H68836   7.711   8.940   7.124  0.3400 -1.1681  0.1465
  510MOL0     H68837   7.579   9.031   7.297  2.0716  0.7998 -0.2650
  510MOL0     H68838   7.560   9.129   7.615  3.4204  1.8676  3.9459
  510MOL0     H68839   7.708   9.059   7.574  1.1581  0.1203  0.1517
  510MOL0     H68840   7.611   8.872   7.756  0.0491  1.2649  0.0913
  510MOL0     H68841   7.497   9.000   7.791 -1.0080 -3.6853 -1.2946
  510MOL0     H68842   7.753   9.123   7.776 -0.8250 -0.3823 -1.1437
  510MOL0     H68843   7.775   8.966   7.862  0.4660  0.8604 -0.9863
  510MOL0     H68844   7.596   9.003   8.029 -1.6516  0.7373 -2.1808
  510MOL0     H68845   7.724   9.115   8.052 -0.1490  1.2834  0.3651
  510MOL0     H68846   7.451   9.405   7.982  2.4162  2.3786  2.0117
  510MOL0     H68847   7.626   8.680   7.540 -1.2466 -0.6805 -0.4566
  510MOL0     H68848   7.862   8.527   7.368 -0.3972 -1.8970 -2.0502
  510MOL0     H68849   7.712   8.503   7.471 -1.5351 -1.5624 -0.9069
  510MOL0     H68850   7.714   8.471   7.306  2.8375  1.2879 -1.4967
  511MOL0     O68851   8.391   2.949   7.007  0.1658 -0.1719 -0.2108
  511MOL0     C68852   8.404   2.843   6.947  1.0854  0.0241  0.4095
  511MOL0     O68853   8.487   2.836   6.832  0.9121  0.4929 -0.2446
  511MOL0     C68854   8.561   2.941   6.804  0.8998 -0.9751 -0.1905
  511MOL0     C68855   8.521   3.082   6.813 -0.5062  1.2826 -0.1516
  511MOL0     C68856   8.611   3.175   6.772 -0.0824  0.1313 -0.4211
  511MOL0     C68857   8.740   3.152   6.721 -0.3935  0.1039 -0.5879
  511MOL0     O68858   8.822   3.252   6.688  0.1190  0.8625  0.1108
  511MOL0     C68859   8.944   3.223   6.620  0.0928 -0.4888 -0.8502
  511MOL0     C68860   9.022   3.351   6.594 -0.2627 -0.7402  0.6068
  511MOL0     C68861   9.073   3.419   6.723  0.3469 -0.7588 -0.4386
  511MOL0     C68862   9.164   3.544   6.692  0.0787  0.0829 -0.4701
  511MOL0     C68863   9.159   3.649   6.810  0.1050 -0.2776 -0.7611
  511MOL0     C68864   9.063   3.769   6.801  0.5275 -1.2040 -0.1461
  511MOL0     C68865   9.049   3.832   6.940  0.6223  0.3395  0.5365
  511MOL0     C68866   8.943   3.947   6.943  0.6007 -0.0430  0.5241
  511MOL0     N68867   8.967   4.017   7.068 -0.3045 -0.2070 -0.4297
  511MOL0     C68868   8.911   3.996   7.192  0.0458 -0.0768  1.1474
  511MOL0     C68869   8.958   4.096   7.267 -0.2800 -0.5045  0.3345
  511MOL0     C68870   8.938   4.112   7.414  0.3150  0.7892 -1.2103
  511MOL0     C68871   9.032   4.031   7.499  0.0237 -0.0933 -0.0979
  511MOL0     C68872   8.977   4.025   7.651  0.3584 -0.5601 -0.1972
  511MOL0     C68873   9.086   4.015   7.753 -0.0393  0.6388 -1.0219
  511MOL0     O68874   9.031   4.000   7.888 -0.8184  0.1194  0.1711
  511MOL0     C68875   9.110   4.061   7.988  1.0304  0.0140  1.3756
  511MOL0     C68876   9.255   4.075   7.986  0.2754  0.2141  0.5190
  511MOL0     C68877   9.323   4.119   8.105  0.3524  0.2765  0.2208
  511MOL0     C68878   9.250   4.153   8.218  0.4728  0.5790  0.0753
  511MOL0     C68879   9.314   4.202   8.342 -0.4512 -0.9355 -1.4413
  511MOL0     O68880   9.237   4.191   8.466  0.0917 -0.6149 -0.0351
  511MOL0     C68881   9.264   4.289   8.558  0.1578  0.1479  0.3116
  511MOL0     C68882   9.354   4.286   8.665  0.0410  0.2811  0.4955
  511MOL0     C68883   9.361   4.377   8.762 -0.4464 -0.1123  1.0864
  511MOL0     C68884   9.281   4.493   8.755  0.3411 -0.3837  1.2190
  511MOL0     O68885   9.297   4.604   8.843  0.2608  0.0198  0.2877
  511MOL0     C68886   9.424   4.622   8.896 -0.5701  0.0300  0.2255
  511MOL0     C68887   9.522   4.664   8.802 -1.1080 -0.3564  0.7862
  511MOL0     C68888   9.653   4.690   8.876  0.2616 -1.1812  0.3553
  511MOL0     C68889   9.764   4.732   8.780  0.4781 -0.7826 -0.1613
  511MOL0     C68890   9.889   4.785   8.849 -0.6476 -0.7312  0.7896
  511MOL0     C68891  10.013   4.827   8.765  0.0413  0.1900 -0.0935
  511MOL0     C68892  10.140   4.865   8.862 -0.0434 -0.4654  1.2822
  511MOL0     C68893  10.191   5.016   8.879  0.0535  0.1598  0.6058
  511MOL0    Cl68894  10.235   5.104   8.719 -0.0583 -0.2269 -0.1837
  511MOL0     C68895   9.184   4.494   8.655 -0.7135  0.3230  1.1290
  511MOL0     C68896   9.171   4.392   8.559  0.5245 -0.5898 -0.3639
  511MOL0     O68897   9.423   4.264   8.334 -0.2085  0.9960  0.5109
  511MOL0     C68898   9.113   4.135   8.218  1.0348  0.1518  0.2746
  511MOL0     C68899   9.054   4.085   8.105  0.1843 -0.3413 -0.5142
  511MOL0     N68900   9.044   4.183   7.193  0.0472  0.0098 -0.3534
  511MOL0     N68901   9.047   4.128   7.073  0.6570  0.6836 -0.9245
  511MOL0     C68902   8.781   3.014   6.712  0.6406  0.4994  0.3899
  511MOL0     C68903   8.690   2.909   6.748  0.3195  0.1567  0.2374
  511MOL0     C68904   8.341   2.723   6.994  0.1179  0.2469 -0.1280
  511MOL0     C68905   8.325   2.616   6.903 -0.6483  0.7398 -0.5425
  511MOL0     C68906   8.261   2.496   6.931 -0.0326 -0.5718 -0.0278
  511MOL0     C68907   8.192   2.486   7.054  0.6927  0.8784 -0.0370
  511MOL0     O68908   8.125   2.370   7.070 -0.5645 -0.9118  0.3993
  511MOL0     C68909   8.030   2.360   7.178 -0.0713  0.5093  0.3709
  511MOL0     C68910   7.922   2.255   7.136  0.2211 -0.4606  1.4254
  511MOL0     C68911   7.818   2.310   7.029 -1.1034 -0.3089  0.4683
  511MOL0     C68912   7.684   2.349   7.101  0.1697  0.4590 -0.2044
  511MOL0     C68913   7.700   2.467   7.176  0.1350 -0.0135 -0.0186
  511MOL0     C68914   7.726   2.576   7.229 -0.1673  0.3068  0.4551
  511MOL0     C68915   8.209   2.585   7.145 -0.3975 -0.0298  0.0946
  511MOL0     C68916   8.273   2.704   7.114 -0.2686  0.8282 -0.6122
  511MOL0     C68917   8.299   2.801   7.231  0.2840 -0.5887 -0.1145
  511MOL0     H68918   8.421   3.108   6.843 -0.7673  1.2304 -0.9555
  511MOL0     H68919   8.605   3.283   6.786  0.9342  0.0562  0.8175
  511MOL0     H68920   9.006   3.159   6.684  1.4215  2.9125  1.5794
  511MOL0     H68921   8.922   3.174   6.525 -1.0895  2.0715 -1.9904
  511MOL0     H68922   8.956   3.422   6.544  0.5566 -0.5523 -0.2452
  511MOL0     H68923   9.112   3.337   6.534 -0.7594  0.0002 -0.3407
  511MOL0     H68924   9.134   3.341   6.769  0.7729 -0.6984 -0.8892
  511MOL0     H68925   8.995   3.459   6.789  0.7178  4.2220 -2.5929
  511MOL0     H68926   9.261   3.498   6.674 -0.8156 -3.5695  2.7299
  511MOL0     H68927   9.127   3.588   6.599 -2.6441  2.2783  1.5098
  511MOL0     H68928   9.136   3.600   6.905 -1.7707  0.3434 -0.8532
  511MOL0     H68929   9.259   3.690   6.830 -0.5451  1.5330 -0.9954
  511MOL0     H68930   9.105   3.841   6.730 -1.3284 -1.5278 -1.6461
  511MOL0     H68931   8.961   3.746   6.769 -1.0869  2.6830  1.5065
  511MOL0     H68932   9.144   3.864   6.983  1.3441  2.7108 -2.4889
  511MOL0     H68933   9.002   3.755   7.003  0.0453 -0.0919 -0.3900
  511MOL0     H68934   8.931   4.017   6.861 -3.4798 -2.3147 -1.0730
  511MOL0     H68935   8.843   3.903   6.935  0.6589  0.1846 -2.5195
  511MOL0     H68936   8.861   3.907   7.227 -0.9505  0.6529  1.6120
  511MOL0     H68937   8.946   4.217   7.445  1.0522  0.1576  0.8713
  511MOL0     H68938   8.833   4.088   7.435  1.2757  0.2767  4.6925
  511MOL0     H68939   9.037   3.930   7.456 -1.5596 -0.9494  1.5777
  511MOL0     H68940   9.136   4.066   7.504 -0.1180  0.4055 -0.6706
  511MOL0     H68941   8.902   3.949   7.673 -1.3414  0.6326 -1.5927
  511MOL0     H68942   8.931   4.120   7.680 -1.5320 -1.2168 -0.9059
  511MOL0     H68943   9.153   4.099   7.733 -0.7893  1.8466  1.1934
  511MOL0     H68944   9.147   3.925   7.739  0.7116  1.2427 -1.7460
  511MOL0     H68945   9.312   4.047   7.898  2.3940  1.0447  1.5492
  511MOL0     H68946   9.431   4.122   8.095  0.1302  1.3255 -3.0748
  511MOL0     H68947   9.416   4.198   8.683 -1.0499 -0.0305  3.0635
  511MOL0     H68948   9.440   4.348   8.830  1.7762 -1.8136 -1.9635
  511MOL0     H68949   9.419   4.694   8.979  0.8430  0.1277  0.2550
  511MOL0     H68950   9.459   4.532   8.948 -0.1479 -0.2381 -0.5167
  511MOL0     H68951   9.541   4.589   8.725 -1.6517  0.4286 -0.1384
  511MOL0     H68952   9.500   4.762   8.759  0.5570 -0.0370  0.6217
  511MOL0     H68953   9.625   4.768   8.947 -2.6544 -1.9500  0.1750
  511MOL0     H68954   9.680   4.605   8.940 -2.7745 -2.7378 -0.2702
  511MOL0     H68955   9.728   4.818   8.723 -0.4342  0.4070  2.1063
  511MOL0     H68956   9.780   4.654   8.704 -2.1064 -0.6121 -0.9605
  511MOL0     H68957   9.926   4.709   8.919  0.4527  0.8123  1.9742
  511MOL0     H68958   9.855   4.870   8.910 -0.5024  0.2645 -0.4649
  511MOL0     H68959  10.035   4.738   8.706  1.0557 -1.3072  2.4120
  511MOL0     H68960   9.985   4.914   8.705  1.1483  0.2970 -0.4821
  511MOL0     H68961  10.228   4.814   8.822  0.1350 -3.5496  4.9575
  511MOL0     H68962  10.118   4.834   8.965 -1.5420  3.7673  2.4333
  511MOL0     H68963  10.113   5.074   8.929 -1.9400 -2.0062  0.1650
  511MOL0     H68964  10.282   5.018   8.940  1.1435  4.6105 -0.7730
  511MOL0     H68965   9.120   4.581   8.642 -1.6860 -0.5856 -0.4842
  511MOL0     H68966   9.097   4.396   8.480  1.5352 -0.1077 -1.3318
  511MOL0     H68967   9.042   4.128   8.301  0.1633  2.3129 -0.2178
  511MOL0     H68968   8.947   4.070   8.113 -0.4914  3.6877  0.1436
  511MOL0     H68969   8.876   2.978   6.673 -2.5715 -4.0812 -4.5458
  511MOL0     H68970   8.728   2.808   6.743  1.6430  0.6356  0.2341
  511MOL0     H68971   8.382   2.627   6.812  0.7952  0.2063  0.2587
  511MOL0     H68972   8.268   2.411   6.862 -1.2075 -1.8210  1.3215
  511MOL0     H68973   7.976   2.452   7.204 -0.1512  0.2846  1.0331
  511MOL0     H68974   8.076   2.320   7.269 -1.3878 -1.7014  0.1506
  511MOL0     H68975   7.874   2.196   7.215 -0.6541 -1.9951 -0.1976
  511MOL0     H68976   7.987   2.184   7.085  0.6673 -0.3836  1.8786
  511MOL0     H68977   7.804   2.224   6.962 -1.6263 -0.3074  0.5668
  511MOL0     H68978   7.862   2.393   6.972  1.5355 -2.4567 -0.8148
  511MOL0     H68979   7.609   2.354   7.023  1.1998 -0.5709 -1.2965
  511MOL0     H68980   7.670   2.265   7.170  0.2945 -0.2852 -1.0653
  511MOL0     H68981   7.732   2.679   7.258 -0.2462  1.4676 -3.0715
  511MOL0     H68982   8.174   2.573   7.247 -3.7349  1.7849 -0.7014
  511MOL0     H68983   8.244   2.896   7.223  0.8907 -0.1489  0.8240
  511MOL0     H68984   8.262   2.754   7.322  0.7127 -1.5275 -0.4166
  511MOL0     H68985   8.404   2.826   7.246  0.1669 -0.8746  1.3027
  512MOL0     O68986   8.492   1.652  10.444 -0.1081 -0.2755  0.1029
  512MOL0     C68987   8.552   1.715  10.366 -0.8949 -0.6370 -0.5689
  512MOL0     O68988   8.659   1.679  10.287 -0.3340  0.4761 -0.0953
  512MOL0     C68989   8.725   1.563  10.305  0.6506  0.4471  0.0967
  512MOL0     C68990   8.733   1.466  10.204  0.1739 -0.1120 -0.2326
  512MOL0     C68991   8.835   1.364  10.209  0.6766  0.4013  0.1867
  512MOL0     C68992   8.925   1.346  10.317  0.0241 -0.4344  0.0479
  512MOL0     O68993   9.015   1.240  10.314 -0.1563  0.5353 -0.0340
  512MOL0     C68994   9.080   1.206  10.438 -0.6962  0.4475 -0.1510
  512MOL0     C68995   8.975   1.159  10.542  0.0361 -0.1345 -0.9517
  512MOL0     C68996   8.892   1.037  10.489 -1.1370 -0.2374  0.1023
  512MOL0     C68997   8.806   0.972  10.594  0.3768  0.0008  0.3243
  512MOL0     C68998   8.700   1.058  10.662  0.7159 -0.6377  0.8805
  512MOL0     C68999   8.622   0.958  10.746  0.3918 -0.1025 -0.0717
  512MOL0     C69000   8.505   1.031  10.821 -0.1192  0.3698 -0.7805
  512MOL0     C69001   8.462   0.946  10.938 -0.8103  0.0985 -0.1996
  512MOL0     N69002   8.562   0.963  11.047  0.1126 -0.9247 -0.0396
  512MOL0     C69003   8.549   1.069  11.134  0.5701 -0.1288 -0.0414
  512MOL0     C69004   8.662   1.068  11.206 -0.1492  0.3999 -1.2483
  512MOL0     C69005   8.670   1.159  11.334  0.1296 -1.6773 -0.6769
  512MOL0     C69006   8.812   1.184  11.373  0.0877 -0.6427 -0.2302
  512MOL0     C69007   8.885   1.064  11.428  0.1925  0.5601  0.3474
  512MOL0     C69008   8.802   0.961  11.514 -0.3967 -0.3813 -0.7642
  512MOL0     O69009   8.785   1.019  11.648  0.4589 -0.1960  1.2376
  512MOL0     C69010   8.828   0.945  11.743 -0.7501  1.4445 -0.5023
  512MOL0     C69011   8.968   0.934  11.753 -0.9763  0.2488  0.0697
  512MOL0     C69012   9.022   0.858  11.860  0.0050 -0.4084 -0.5916
  512MOL0     C69013   8.939   0.808  11.968  0.2932  0.5805  0.1426
  512MOL0     C69014   8.992   0.735  12.087  0.2695 -1.1096 -0.0229
  512MOL0     O69015   8.888   0.705  12.183 -0.0770 -0.2306 -0.3352
  512MOL0     C69016   8.929   0.646  12.298  0.0611 -0.6093  0.5707
  512MOL0     C69017   8.933   0.713  12.421 -0.0449 -0.5392 -0.1622
  512MOL0     C69018   8.981   0.648  12.531  0.6174  0.6877 -0.0893
  512MOL0     C69019   9.016   0.508  12.534 -0.1736 -0.1753  0.3502
  512MOL0     O69020   9.034   0.441  12.648 -0.0413 -0.4776 -0.3486
  512MOL0     C69021   9.005   0.498  12.777 -1.0899  0.1871 -0.2449
  512MOL0     C69022   9.048   0.398  12.874  0.1280  0.3088  0.2794
  512MOL0     C69023   9.041   0.451  13.020 -0.3155 -0.0170 -0.2811
  512MOL0     C69024   8.906   0.496  13.085 -0.3269  0.3749  0.2924
  512MOL0     C69025   8.798   0.382  13.088 -0.3966  0.7264  0.0410
  512MOL0     C69026   8.659   0.421  13.138 -0.1256  0.4591  0.9389
  512MOL0     C69027   8.575   0.297  13.153  0.0092 -0.0921  0.7751
  512MOL0     C69028   8.544   0.274  13.294 -0.4417  0.1364  0.2599
  512MOL0    Cl69029   8.682   0.203  13.377 -0.5153  0.5884 -0.5829
  512MOL0     C69030   9.006   0.446  12.406 -0.2772  0.8442  0.6552
  512MOL0     C69031   8.966   0.509  12.285  0.5687  0.0909  1.1821
  512MOL0     O69032   9.107   0.696  12.090  0.7962 -0.1728  0.2057
  512MOL0     C69033   8.803   0.809  11.947  0.2498 -0.2152  0.0841
  512MOL0     C69034   8.746   0.883  11.839  0.2741  0.0081  0.8133
  512MOL0     N69035   8.743   0.953  11.168  0.6617 -0.6574  0.6021
  512MOL0     N69036   8.670   0.888  11.082  0.7805 -0.7439  0.4241
  512MOL0     C69037   8.904   1.437  10.428 -1.0628  0.4597 -0.3596
  512MOL0     C69038   8.811   1.543  10.422  0.4064  0.3172  0.9708
  512MOL0     C69039   8.490   1.847  10.322 -0.1472 -0.5021 -0.2397
  512MOL0     C69040   8.516   1.887  10.186  0.6880  0.9098 -0.2248
  512MOL0     C69041   8.460   2.003  10.127 -0.4938 -0.3531  0.4329
  512MOL0     C69042   8.379   2.089  10.204  0.6228  0.4508  0.1221
  512MOL0     O69043   8.327   2.196  10.129 -0.3755  0.5150 -0.4069
  512MOL0     C69044   8.217   2.269  10.182  0.1103  0.8457 -0.3302
  512MOL0     C69045   8.251   2.408  10.216  0.4482  0.3302  0.6040
  512MOL0     C69046   8.316   2.485  10.104  0.0138  0.5552 -0.0068
  512MOL0     C69047   8.334   2.631  10.128 -0.2937  0.8471 -0.3728
  512MOL0     C69048   8.428   2.693  10.033 -0.2171  0.4757  0.5585
  512MOL0     C69049   8.495   2.737   9.935 -0.4300  0.6098 -0.1410
  512MOL0     C69050   8.372   2.057  10.343  0.4688  0.5522 -0.6399
  512MOL0     C69051   8.412   1.930  10.401  0.2407  0.2279 -0.1516
  512MOL0     C69052   8.393   1.902  10.548 -0.6520  0.4611  1.1185
  512MOL0     H69053   8.665   1.464  10.119  2.5700 -1.0254 -2.2342
  512MOL0     H69054   8.839   1.298  10.123 -0.5832  0.3658  0.1436
  512MOL0     H69055   9.141   1.115  10.431 -0.6872  0.0312  3.3368
  512MOL0     H69056   9.145   1.287  10.470  0.2887 -0.6456  0.7025
  512MOL0     H69057   8.898   1.234  10.560 -1.7633 -1.2463 -3.4461
  512MOL0     H69058   9.033   1.133  10.631 -1.2220 -1.6656 -0.5394
  512MOL0     H69059   8.953   0.954  10.451  3.4697  2.5462  0.5836
  512MOL0     H69060   8.827   1.070  10.408  0.8853  4.0279 -0.0784
  512MOL0     H69061   8.751   0.891  10.547 -1.8064  1.8169 -0.4071
  512MOL0     H69062   8.872   0.931  10.672 -0.1178 -0.6185  0.4184
  512MOL0     H69063   8.751   1.140  10.714 -0.0779  0.4713 -0.0311
  512MOL0     H69064   8.643   1.108  10.582  2.7001  0.1981 -0.1013
  512MOL0     H69065   8.582   0.876  10.684  2.1024 -3.1717  2.5529
  512MOL0     H69066   8.696   0.911  10.811  0.7415 -0.5382 -0.7713
  512MOL0     H69067   8.418   1.049  10.757  0.4182  0.4072 -1.5189
  512MOL0     H69068   8.532   1.130  10.858  1.9903  0.5974 -2.6650
  512MOL0     H69069   8.369   0.999  10.959  0.7885  2.7216  0.6813
  512MOL0     H69070   8.456   0.842  10.903  0.4111  0.4410 -1.5313
  512MOL0     H69071   8.473   1.145  11.147  1.1980  1.0966 -2.7290
  512MOL0     H69072   8.622   1.256  11.319 -0.3961 -1.6086  1.3094
  512MOL0     H69073   8.614   1.106  11.411  1.9200 -0.0756  1.8514
  512MOL0     H69074   8.870   1.209  11.283 -0.4671 -0.7021 -0.6101
  512MOL0     H69075   8.816   1.272  11.438 -0.5710  0.3600 -1.4827
  512MOL0     H69076   8.970   1.106  11.481  0.0029  0.5856  0.6356
  512MOL0     H69077   8.930   0.999  11.352  1.9304 -0.0006  1.7958
  512MOL0     H69078   8.861   0.869  11.523  2.4994  1.4812  1.0025
  512MOL0     H69079   8.709   0.926  11.469 -1.6562 -0.9370  2.0413
  512MOL0     H69080   9.035   0.974  11.679 -0.7856 -0.3171 -0.0701
  512MOL0     H69081   9.129   0.845  11.869  0.1946 -1.2640 -3.3425
  512MOL0     H69082   8.909   0.818  12.437  4.7208  0.5392  1.5089
  512MOL0     H69083   9.000   0.710  12.618  2.1917  0.9963 -0.6179
  512MOL0     H69084   9.066   0.588  12.793 -2.9333  1.6793 -1.1564
  512MOL0     H69085   8.901   0.532  12.785 -0.9271  1.5810 -2.9803
  512MOL0     H69086   8.989   0.307  12.879  2.4343 -1.2182  1.8267
  512MOL0     H69087   9.151   0.370  12.846 -0.3876 -1.4350  0.0173
  512MOL0     H69088   9.074   0.365  13.080 -3.6100 -1.2301  0.0356
  512MOL0     H69089   9.111   0.530  13.047  0.8813 -1.3735  0.7562
  512MOL0     H69090   8.871   0.572  13.014  0.6261 -0.3032 -0.9390
  512MOL0     H69091   8.905   0.549  13.180 -0.9223  1.8531 -0.5056
  512MOL0     H69092   8.833   0.304  13.157 -0.4679  0.6265 -0.0353
  512MOL0     H69093   8.785   0.341  12.988  3.0098  0.4524 -0.3848
  512MOL0     H69094   8.685   0.486  13.222  0.6172 -1.1162  1.9580
  512MOL0     H69095   8.609   0.490  13.069 -0.9118 -0.4025  0.6282
  512MOL0     H69096   8.629   0.212  13.109 -5.2724 -3.4263 -0.3166
  512MOL0     H69097   8.483   0.296  13.094  0.3429 -0.3415  0.2468
  512MOL0     H69098   8.511   0.362  13.351  1.3639  1.9776 -1.3652
  512MOL0     H69099   8.459   0.205  13.301  0.9742 -1.9616 -1.7544
  512MOL0     H69100   9.041   0.343  12.404 -0.4491  0.6907 -3.8010
  512MOL0     H69101   8.965   0.460  12.188 -0.2036  1.1326  0.6346
  512MOL0     H69102   8.736   0.749  12.008  1.6695 -3.7912 -1.6170
  512MOL0     H69103   8.641   0.879  11.811  0.4874  0.8313 -0.1713
  512MOL0     H69104   8.968   1.438  10.515 -0.5036  1.9289 -0.7551
  512MOL0     H69105   8.814   1.609  10.508 -0.2885 -0.8563  1.9316
  512MOL0     H69106   8.573   1.830  10.114  0.1355 -1.5193  1.1521
  512MOL0     H69107   8.479   2.016  10.021  0.7051  0.5541  0.7425
  512MOL0     H69108   8.166   2.228  10.270  0.1843  2.5205  0.5421
  512MOL0     H69109   8.151   2.267  10.095 -1.6039 -0.4120  0.9351
  512MOL0     H69110   8.317   2.413  10.303  0.3349  1.9599  0.6265
  512MOL0     H69111   8.161   2.462  10.250 -0.3884  1.6161 -3.1303
  512MOL0     H69112   8.262   2.482  10.009 -0.3160 -1.5674  0.2007
  512MOL0     H69113   8.419   2.450  10.089  0.8841  4.0184 -3.9649
  512MOL0     H69114   8.232   2.667  10.113 -1.8919 -2.7055  0.8661
  512MOL0     H69115   8.378   2.653  10.226  2.7424 -4.5958 -0.1389
  512MOL0     H69116   8.552   2.774   9.853 -1.9671 -1.4070 -2.2428
  512MOL0     H69117   8.320   2.132  10.401 -0.3867  0.2499 -1.0060
  512MOL0     H69118   8.318   1.825  10.563 -0.6964  0.2736  0.0296
  512MOL0     H69119   8.490   1.872  10.588  0.7312  1.7632 -1.0158
  512MOL0     H69120   8.355   1.993  10.596 -2.3277  0.0228  0.6804
  513MOL0     O69121   4.928   1.907   6.161 -0.4764  0.1324 -0.5166
  513MOL0     C69122   5.005   1.837   6.233 -0.2211 -0.4285 -0.3417
  513MOL0     O69123   5.134   1.804   6.197 -0.1443  0.2427 -0.8631
  513MOL0     C69124   5.178   1.846   6.073 -0.2253 -1.1224  0.4950
  513MOL0     C69125   5.120   1.816   5.952  0.4400  0.4736 -0.6095
  513MOL0     C69126   5.157   1.867   5.828  0.3107  0.7356 -1.5976
  513MOL0     C69127   5.277   1.944   5.827 -0.9337 -0.1546  0.4163
  513MOL0     O69128   5.323   1.982   5.701 -0.1417 -0.3231 -0.4982
  513MOL0     C69129   5.423   2.071   5.683  0.0912  0.6892 -0.0167
  513MOL0     C69130   5.531   2.005   5.622 -0.0720  0.3028  0.1062
  513MOL0     C69131   5.577   1.862   5.663 -0.1845 -0.0482 -0.1692
  513MOL0     C69132   5.672   1.825   5.552  0.2908  1.0854 -0.3805
  513MOL0     C69133   5.763   1.697   5.599  0.2831 -0.0851  0.3189
  513MOL0     C69134   5.879   1.664   5.512  0.3816  0.1818 -0.2122
  513MOL0     C69135   5.993   1.603   5.596 -0.7884  0.0190  0.1158
  513MOL0     C69136   6.097   1.540   5.508 -0.3294 -0.1609  0.1151
  513MOL0     N69137   6.163   1.637   5.426  0.5381  0.9311 -0.8739
  513MOL0     C69138   6.233   1.600   5.316  0.5130 -0.7197 -0.2038
  513MOL0     C69139   6.308   1.710   5.283  1.2355  0.1077 -0.0836
  513MOL0     C69140   6.413   1.723   5.168 -0.8201 -0.6659  0.6173
  513MOL0     C69141   6.548   1.720   5.214  0.3464 -0.2557  0.3454
  513MOL0     C69142   6.578   1.782   5.352  0.5013 -0.1283  0.4009
  513MOL0     C69143   6.584   1.937   5.340  0.1742  0.1777 -0.7766
  513MOL0     O69144   6.708   1.990   5.282  1.0063 -0.5158 -0.2227
  513MOL0     C69145   6.713   2.136   5.268 -0.2083  0.0704  1.2352
  513MOL0     C69146   6.640   2.228   5.340  0.6466 -1.1185 -0.0309
  513MOL0     C69147   6.632   2.367   5.313  0.0585 -0.6318  0.6796
  513MOL0     C69148   6.698   2.409   5.203  0.4929  0.0615  0.3995
  513MOL0     C69149   6.682   2.545   5.150  0.9712  0.0670 -0.3681
  513MOL0     O69150   6.589   2.623   5.221 -1.2049 -0.5637  0.1266
  513MOL0     C69151   6.567   2.754   5.178 -0.1206  0.8151 -0.5901
  513MOL0     C69152   6.440   2.791   5.142 -0.1472 -1.4638 -0.2042
  513MOL0     C69153   6.415   2.924   5.121 -0.7442 -0.2409 -0.2184
  513MOL0     C69154   6.516   3.029   5.132 -0.9503  0.0735  0.2967
  513MOL0     O69155   6.494   3.161   5.087  0.3016  0.9519 -0.6896
  513MOL0     C69156   6.533   3.174   4.956  0.4815 -0.2451 -0.1814
  513MOL0     C69157   6.489   3.305   4.885  0.6809  0.7019 -0.0528
  513MOL0     C69158   6.582   3.336   4.756 -0.4544 -0.7765  0.3127
  513MOL0     C69159   6.737   3.371   4.771 -0.1247  1.2434  0.0629
  513MOL0     C69160   6.787   3.437   4.646  0.0807 -0.2842  0.6463
  513MOL0     C69161   6.845   3.340   4.537 -0.6148  0.2379  0.3088
  513MOL0     C69162   6.895   3.406   4.409  0.2586 -0.0623  0.0124
  513MOL0     C69163   7.014   3.501   4.423  0.6969 -0.5497  0.2814
  513MOL0    Cl69164   7.117   3.444   4.554 -0.4076 -0.2401 -0.0713
  513MOL0     C69165   6.646   2.981   5.178  0.5333 -0.2079 -0.7963
  513MOL0     C69166   6.670   2.844   5.192 -0.5423 -0.6040  0.2337
  513MOL0     O69167   6.751   2.582   5.058 -0.2178 -0.6656  0.0352
  513MOL0     C69168   6.793   2.318   5.139 -0.1115 -0.6313  0.0473
  513MOL0     C69169   6.797   2.185   5.176 -0.1969 -1.3090  0.7811
  513MOL0     N69170   6.268   1.816   5.368 -0.2466  0.0343 -0.1919
  513MOL0     N69171   6.179   1.769   5.453 -1.1162  0.8437 -0.1907
  513MOL0     C69172   5.344   1.975   5.946 -0.4635  0.4221  0.1276
  513MOL0     C69173   5.297   1.923   6.069  0.8009  0.4274  0.0781
  513MOL0     C69174   4.958   1.813   6.369 -0.5150 -0.5565  0.2859
  513MOL0     C69175   4.914   1.921   6.449  0.6043  0.2806 -0.4090
  513MOL0     C69176   4.885   1.894   6.588  0.0687  0.0357 -0.0327
  513MOL0     C69177   4.898   1.767   6.642 -0.5342 -0.6882 -0.1960
  513MOL0     O69178   4.872   1.735   6.775 -0.2391  0.1955 -0.2703
  513MOL0     C69179   4.789   1.812   6.862 -0.3631 -0.5489  0.1045
  513MOL0     C69180   4.765   1.746   6.992 -0.3592  0.5504 -0.4629
  513MOL0     C69181   4.657   1.814   7.075  0.6003 -0.2631 -0.2123
  513MOL0     C69182   4.631   1.730   7.202  0.1039  0.0632  0.6657
  513MOL0     C69183   4.550   1.805   7.291 -0.5007 -0.4479 -0.6014
  513MOL0     C69184   4.481   1.871   7.373  0.3083  0.1744 -0.0763
  513MOL0     C69185   4.945   1.666   6.559 -0.3238  0.1762  0.3106
  513MOL0     C69186   4.973   1.684   6.426  0.5725  0.1282  0.2906
  513MOL0     C69187   5.011   1.571   6.342 -0.6084 -0.2280  0.7271
  513MOL0     H69188   5.031   1.754   5.955 -0.7976  2.2147  0.4612
  513MOL0     H69189   5.132   1.837   5.727  0.5544  0.6842 -1.6435
  513MOL0     H69190   5.375   2.151   5.625  3.3643  1.6152 -1.7242
  513MOL0     H69191   5.460   2.126   5.770  1.6705 -1.5246  0.7969
  513MOL0     H69192   5.612   2.078   5.611 -0.4582  0.3284 -3.8954
  513MOL0     H69193   5.501   2.009   5.517 -1.9705  3.5731  0.6554
  513MOL0     H69194   5.498   1.786   5.662 -0.2983  0.0238 -2.3570
  513MOL0     H69195   5.630   1.863   5.758 -1.7331  1.9762  0.7340
  513MOL0     H69196   5.611   1.822   5.461 -0.7120  2.4778  0.2098
  513MOL0     H69197   5.739   1.911   5.556  1.5886  0.0705  2.8768
  513MOL0     H69198   5.800   1.717   5.700  0.7631  0.1310  0.1057
  513MOL0     H69199   5.690   1.617   5.606  1.2221 -1.1743 -1.5074
  513MOL0     H69200   5.841   1.586   5.444  1.8464 -2.4589  1.8047
  513MOL0     H69201   5.906   1.754   5.455 -3.3292  0.1353 -2.4384
  513MOL0     H69202   5.956   1.532   5.671 -0.6234 -1.6410 -1.2884
  513MOL0     H69203   6.039   1.686   5.649 -1.2536  1.6754 -1.9615
  513MOL0     H69204   6.171   1.482   5.564 -1.8233  1.0289  3.5838
  513MOL0     H69205   6.039   1.470   5.448 -1.0274  0.4701  0.0353
  513MOL0     H69206   6.228   1.506   5.261  1.5701 -1.2097  0.4905
  513MOL0     H69207   6.394   1.645   5.094  1.0278 -0.8904  0.3169
  513MOL0     H69208   6.392   1.810   5.105 -1.3483 -2.0912 -1.2575
  513MOL0     H69209   6.582   1.618   5.231  0.8369 -0.9018 -3.4880
  513MOL0     H69210   6.614   1.757   5.135 -0.7937 -0.9542 -0.9908
  513MOL0     H69211   6.673   1.745   5.391  1.2330  0.8615 -0.4007
  513MOL0     H69212   6.499   1.763   5.425 -0.5782 -2.6301 -1.2831
  513MOL0     H69213   6.564   1.984   5.437  1.3647  0.8528 -0.8418
  513MOL0     H69214   6.500   1.964   5.276  0.0229  0.2196 -0.5627
  513MOL0     H69215   6.577   2.185   5.417 -1.0018  1.4641  0.1970
  513MOL0     H69216   6.585   2.434   5.384  0.3357  0.8669 -0.4920
  513MOL0     H69217   6.357   2.721   5.139 -1.1264 -0.4235  1.1985
  513MOL0     H69218   6.312   2.941   5.090 -1.1998  1.1133  1.8134
  513MOL0     H69219   6.641   3.159   4.944  0.5295 -0.5165  0.5379
  513MOL0     H69220   6.505   3.087   4.896  4.0181 -0.4953 -1.7154
  513MOL0     H69221   6.387   3.287   4.851 -0.1553  0.5632  2.3376
  513MOL0     H69222   6.489   3.385   4.959  1.9080  1.9275 -1.3021
  513MOL0     H69223   6.576   3.260   4.678  0.2434 -0.2936 -0.2204
  513MOL0     H69224   6.541   3.427   4.710  0.0146  0.3035  1.9126
  513MOL0     H69225   6.805   3.291   4.800 -0.7070  0.8704  0.4030
  513MOL0     H69226   6.754   3.430   4.861 -0.1504  0.3004  0.6884
  513MOL0     H69227   6.867   3.510   4.666  0.8933 -1.3160  1.2549
  513MOL0     H69228   6.710   3.500   4.602  1.0612  1.4894  1.3454
  513MOL0     H69229   6.918   3.270   4.580 -0.3500 -0.2546 -0.9099
  513MOL0     H69230   6.764   3.272   4.513  0.0477 -0.6448  0.5189
  513MOL0     H69231   6.812   3.449   4.353 -1.6455 -3.7610 -0.3015
  513MOL0     H69232   6.924   3.328   4.338 -1.6117 -0.2121 -0.6367
  513MOL0     H69233   7.069   3.483   4.330 -3.4803 -1.7837 -2.2705
  513MOL0     H69234   6.978   3.603   4.439 -1.1108 -1.6408  4.4785
  513MOL0     H69235   6.726   3.051   5.200  0.0241 -0.1708  1.1524
  513MOL0     H69236   6.767   2.818   5.233  0.0244  3.0334  1.6257
  513MOL0     H69237   6.853   2.348   5.054 -4.1126 -1.5570 -3.3926
  513MOL0     H69238   6.866   2.132   5.111 -0.0121  0.5362 -0.6297
  513MOL0     H69239   5.441   2.023   5.939 -0.1640 -0.4154 -2.7273
  513MOL0     H69240   5.364   1.937   6.154  2.8835  1.5824 -1.6681
  513MOL0     H69241   4.891   2.016   6.402 -0.6733 -1.2865 -3.1621
  513MOL0     H69242   4.841   1.973   6.649 -2.1132 -0.5746 -0.7434
  513MOL0     H69243   4.700   1.840   6.805 -0.4338 -1.9605 -0.5259
  513MOL0     H69244   4.837   1.910   6.877 -0.4250 -0.2896 -1.2555
  513MOL0     H69245   4.852   1.757   7.057 -3.0089 -0.0430  3.6099
  513MOL0     H69246   4.742   1.642   6.969  0.3637  0.3441 -0.2744
  513MOL0     H69247   4.564   1.805   7.019 -0.3082  2.2036  0.7577
  513MOL0     H69248   4.680   1.919   7.093  2.0998 -0.6601  0.3428
  513MOL0     H69249   4.573   1.644   7.167 -3.0079  2.5888 -0.8721
  513MOL0     H69250   4.725   1.699   7.249 -2.3860 -6.5074  2.3497
  513MOL0     H69251   4.412   1.923   7.436 -0.4270 -1.5683  0.6183
  513MOL0     H69252   4.976   1.575   6.610  2.7016  0.1299 -1.3835
  513MOL0     H69253   5.114   1.592   6.309 -1.6586  1.6030 -1.6738
  513MOL0     H69254   5.022   1.484   6.407 -1.9392 -0.7406  0.2887
  513MOL0     H69255   4.944   1.549   6.259  0.1553 -1.6459  0.4634
  514MOL0     O69256   0.355   8.253   5.218  0.0886 -0.2766  0.8724
  514MOL0     C69257   0.326   8.270   5.099  0.4217 -0.3334 -0.3122
  514MOL0     O69258   0.335   8.170   4.999 -0.3740 -0.1715 -0.3412
  514MOL0     C69259   0.354   8.043   5.044  0.2111 -0.1020 -0.7063
  514MOL0     C69260   0.483   7.999   5.069 -0.2524 -0.3634  0.7050
  514MOL0     C69261   0.515   7.863   5.100 -1.2421 -0.2016 -0.0336
  514MOL0     C69262   0.413   7.770   5.128 -0.4762  0.0816  0.5389
  514MOL0     O69263   0.431   7.634   5.137  0.1373  0.0451 -0.5679
  514MOL0     C69264   0.533   7.578   5.220  0.2696 -0.2880  0.2328
  514MOL0     C69265   0.524   7.421   5.217 -0.2494  0.2661 -1.2786
  514MOL0     C69266   0.461   7.377   5.351 -0.6058 -0.0366  0.3265
  514MOL0     C69267   0.479   7.232   5.367  0.0410  0.6379 -0.0876
  514MOL0     C69268   0.453   7.184   5.508 -1.1080  0.3287 -0.8337
  514MOL0     C69269   0.566   7.219   5.607 -0.1649  0.2061 -0.0092
  514MOL0     C69270   0.517   7.200   5.753  0.3573 -0.2037  0.2239
  514MOL0     C69271   0.628   7.228   5.848 -0.6230 -0.5883 -0.5390
  514MOL0     N69272   0.742   7.143   5.845  0.9121 -0.2955  0.5673
  514MOL0     C69273   0.849   7.177   5.774 -0.7098  0.1178  0.2520
  514MOL0     C69274   0.954   7.111   5.831  0.5730 -1.6648  0.5201
  514MOL0     C69275   1.098   7.114   5.797 -1.0669 -0.8835  0.1797
  514MOL0     C69276   1.195   7.064   5.913 -0.0723  0.1824 -0.7672
  514MOL0     C69277   1.337   7.087   5.890 -0.6690  0.6929 -0.6978
  514MOL0     C69278   1.414   6.991   5.799  0.9958  0.1229  0.0430
  514MOL0     O69279   1.405   6.850   5.843  0.0871 -0.3803 -0.6375
  514MOL0     C69280   1.510   6.775   5.864 -1.5556  0.5677  0.6607
  514MOL0     C69281   1.637   6.822   5.883 -0.9812 -0.4955 -0.5999
  514MOL0     C69282   1.746   6.740   5.892  0.0783  0.2336 -0.7241
  514MOL0     C69283   1.719   6.599   5.899  0.0154  1.9101 -0.2527
  514MOL0     C69284   1.838   6.506   5.918  0.5097  0.9093 -0.4349
  514MOL0     O69285   1.961   6.551   5.891 -1.1254  0.9012 -0.2608
  514MOL0     C69286   2.070   6.466   5.903 -0.4151  0.1220 -0.0417
  514MOL0     C69287   2.085   6.356   5.815  0.3229  0.5847 -1.4240
  514MOL0     C69288   2.192   6.267   5.815  0.2773 -0.1936  0.5396
  514MOL0     C69289   2.295   6.295   5.900  0.0314 -0.4286  0.1170
  514MOL0     O69290   2.406   6.218   5.877  0.5695 -0.0146  0.3260
  514MOL0     C69291   2.409   6.071   5.853  1.0625 -0.6689 -0.7944
  514MOL0     C69292   2.540   6.013   5.908 -0.0115 -0.5787  0.7308
  514MOL0     C69293   2.541   5.864   5.872 -0.6879  0.0190  0.1724
  514MOL0     C69294   2.669   5.814   5.826  0.5545 -0.6747  0.0620
  514MOL0     C69295   2.643   5.674   5.767  0.0462 -0.8056  0.5748
  514MOL0     C69296   2.772   5.584   5.765 -1.0031 -1.1163 -0.6208
  514MOL0     C69297   2.730   5.440   5.730 -0.2141  0.6863  0.1478
  514MOL0     C69298   2.850   5.346   5.738  0.6332  0.1990  1.0810
  514MOL0    Cl69299   2.793   5.176   5.700  0.0012 -0.1982 -0.6333
  514MOL0     C69300   2.296   6.406   5.988 -0.0134 -0.9338 -0.7479
  514MOL0     C69301   2.184   6.499   5.981  0.1461  0.2396 -0.0797
  514MOL0     O69302   1.819   6.392   5.950  0.2401  0.8013 -0.0446
  514MOL0     C69303   1.588   6.545   5.874  0.5352  0.5829  0.0466
  514MOL0     C69304   1.486   6.635   5.845 -0.7094  0.9481  0.2244
  514MOL0     N69305   0.901   7.038   5.934 -0.3315 -0.0684  0.1243
  514MOL0     N69306   0.771   7.057   5.941 -0.2688 -0.1432  0.6331
  514MOL0     C69307   0.282   7.819   5.103  0.1490 -0.2242  0.9141
  514MOL0     C69308   0.252   7.946   5.055  0.0402  0.0082  0.1286
  514MOL0     C69309   0.291   8.404   5.063 -1.0205 -0.8509 -0.7313
  514MOL0     C69310   0.358   8.448   4.941  0.1012 -0.4778  0.7175
  514MOL0     C69311   0.341   8.569   4.883  1.4290  0.2618 -0.6002
  514MOL0     C69312   0.250   8.650   4.953  0.0945 -0.3607  0.1873
  514MOL0     O69313   0.213   8.774   4.903 -0.0168  0.1005  0.3049
  514MOL0     C69314   0.285   8.823   4.784  0.1218 -0.3807 -1.5695
  514MOL0     C69315   0.221   8.964   4.741  0.9851  0.1918 -1.2386
  514MOL0     C69316   0.259   9.058   4.845  0.5429 -0.0357 -1.2089
  514MOL0     C69317   0.196   9.194   4.846  0.2570  0.2179 -0.0402
  514MOL0     C69318   0.222   9.284   4.962 -0.8124  0.4012  0.4664
  514MOL0     C69319   0.253   9.352   5.054  0.1592 -0.5514 -0.6701
  514MOL0     C69320   0.184   8.612   5.080  0.7929 -0.5676  1.1024
  514MOL0     C69321   0.199   8.490   5.132 -0.5872  0.0431  1.1818
  514MOL0     C69322   0.115   8.450   5.254  0.6913 -0.2324 -0.3585
  514MOL0     H69323   0.564   8.068   5.050 -1.7733  0.8322 -2.0921
  514MOL0     H69324   0.621   7.840   5.112 -1.7874 -2.6499  0.7865
  514MOL0     H69325   0.634   7.610   5.194 -0.1913 -1.1324 -3.0820
  514MOL0     H69326   0.526   7.618   5.322 -0.5625  3.6760 -1.1752
  514MOL0     H69327   0.618   7.365   5.215  0.6737  1.5770  1.0963
  514MOL0     H69328   0.449   7.399   5.141 -2.3016  2.1380  0.0805
  514MOL0     H69329   0.359   7.416   5.355  1.3307  6.0867 -0.3867
  514MOL0     H69330   0.513   7.427   5.432 -0.9128 -1.6602  1.5836
  514MOL0     H69331   0.420   7.178   5.292 -0.4031 -0.0420  0.7330
  514MOL0     H69332   0.586   7.210   5.364  0.4033  2.3093 -0.5618
  514MOL0     H69333   0.360   7.218   5.555 -1.2327 -2.5478  1.2783
  514MOL0     H69334   0.448   7.075   5.495 -0.5453 -0.1029  1.8966
  514MOL0     H69335   0.651   7.156   5.580 -0.9511 -0.0003 -2.2620
  514MOL0     H69336   0.600   7.321   5.591 -0.2619  0.2293 -0.0753
  514MOL0     H69337   0.471   7.102   5.771 -0.8268  0.6264  1.9614
  514MOL0     H69338   0.437   7.274   5.754 -0.0326 -0.4843 -2.5406
  514MOL0     H69339   0.675   7.325   5.832  0.8964 -0.5795  3.0564
  514MOL0     H69340   0.582   7.215   5.947  1.2470  0.3042  0.4931
  514MOL0     H69341   0.855   7.251   5.694 -3.8986  1.8498  1.4351
  514MOL0     H69342   1.120   7.041   5.719 -1.3336 -0.5123 -0.2499
  514MOL0     H69343   1.133   7.215   5.773  0.2482 -1.3224  0.1349
  514MOL0     H69344   1.179   7.115   6.009  0.8443 -1.8089  0.5198
  514MOL0     H69345   1.183   6.957   5.934 -0.3094  0.9474  4.1104
  514MOL0     H69346   1.399   7.088   5.981  0.3993  2.7188 -1.3764
  514MOL0     H69347   1.342   7.194   5.865 -0.3974  1.0181  0.6210
  514MOL0     H69348   1.515   7.029   5.787  1.1184 -0.4505 -0.7976
  514MOL0     H69349   1.372   6.994   5.698 -1.2060  0.0139  0.9009
  514MOL0     H69350   1.659   6.927   5.897  1.5690 -1.1877  1.3587
  514MOL0     H69351   1.841   6.779   5.928  0.2732 -1.0258  0.2159
  514MOL0     H69352   2.000   6.325   5.755 -1.8189  0.7940  1.2961
  514MOL0     H69353   2.185   6.180   5.750  0.4829  0.9395 -1.0723
  514MOL0     H69354   2.326   6.021   5.903  1.6723 -3.7240 -2.6374
  514MOL0     H69355   2.390   6.056   5.746 -0.6138 -0.5828 -0.5466
  514MOL0     H69356   2.621   6.066   5.859  0.1193 -2.8151 -1.6871
  514MOL0     H69357   2.532   6.025   6.016 -0.2082 -0.2797  0.6839
  514MOL0     H69358   2.510   5.816   5.965 -0.5718 -0.2676  0.0642
  514MOL0     H69359   2.466   5.851   5.793 -1.5586 -0.3440  1.0374
  514MOL0     H69360   2.741   5.829   5.907 -0.3046  0.0926  0.6945
  514MOL0     H69361   2.715   5.873   5.745  0.6410 -1.1226 -0.2231
  514MOL0     H69362   2.595   5.689   5.670  0.1179 -1.1965  0.4791
  514MOL0     H69363   2.569   5.630   5.834 -1.7044  3.1305  1.5267
  514MOL0     H69364   2.846   5.613   5.691  0.6553  1.7356  1.9567
  514MOL0     H69365   2.820   5.585   5.863 -0.4002 -2.3844 -0.8824
  514MOL0     H69366   2.688   5.441   5.629  2.1800  1.1606 -0.9101
  514MOL0     H69367   2.653   5.399   5.797  1.0398 -1.6278  0.2890
  514MOL0     H69368   2.929   5.386   5.675  0.1347  2.8084  1.9817
  514MOL0     H69369   2.879   5.348   5.844  0.0026  1.5685  1.2593
  514MOL0     H69370   2.384   6.430   6.047 -0.7519 -1.3628  0.5667
  514MOL0     H69371   2.197   6.592   6.036  0.6987 -0.8524  1.7154
  514MOL0     H69372   1.547   6.445   5.885 -0.9581  1.3971  2.5101
  514MOL0     H69373   1.383   6.606   5.826 -1.8856  2.9675  2.9007
  514MOL0     H69374   0.199   7.754   5.127  0.0234 -1.1152 -1.6328
  514MOL0     H69375   0.148   7.976   5.058 -0.4317 -1.6373  1.0071
  514MOL0     H69376   0.435   8.395   4.886 -2.6165 -3.7144 -0.3008
  514MOL0     H69377   0.387   8.598   4.789 -0.7109  0.7082 -1.5693
  514MOL0     H69378   0.276   8.746   4.707  4.0875 -2.7007 -0.0088
  514MOL0     H69379   0.391   8.825   4.811 -0.1729 -2.4298 -0.0373
  514MOL0     H69380   0.115   8.944   4.723  0.3404  1.1207  1.1360
  514MOL0     H69381   0.266   8.991   4.645  3.4707 -0.7509 -0.4317
  514MOL0     H69382   0.368   9.064   4.846  0.9438  0.0441  5.6487
  514MOL0     H69383   0.259   9.012   4.945  0.9215  2.5593  0.0792
  514MOL0     H69384   0.227   9.246   4.755  2.1255 -0.0873  0.3825
  514MOL0     H69385   0.087   9.179   4.844  0.4134 -0.9819 -1.4612
  514MOL0     H69386   0.271   9.422   5.134 -2.3683 -1.6493  0.9763
  514MOL0     H69387   0.117   8.687   5.121 -0.6448 -0.8493 -0.6171
  514MOL0     H69388   0.017   8.498   5.242  0.2594 -0.9331  0.2734
  514MOL0     H69389   0.098   8.343   5.269 -3.9193  0.7533  4.0366
  514MOL0     H69390   0.147   8.489   5.351  0.5684  1.6322 -1.0207
  515MOL0     O69391   3.370  10.564   4.136 -0.1188  0.3898 -0.2750
  515MOL0     C69392   3.453  10.657   4.151  0.1262  0.7117  0.1199
  515MOL0     O69393   3.582  10.649   4.130  0.0905 -0.4814 -0.8939
  515MOL0     C69394   3.640  10.531   4.099  0.0243  0.2003  0.1125
  515MOL0     C69395   3.620  10.463   3.978  0.2088  0.0409 -0.5916
  515MOL0     C69396   3.689  10.336   3.968 -0.0252  0.5625  0.5117
  515MOL0     C69397   3.763  10.276   4.071 -0.3846 -1.0343  0.4094
  515MOL0     O69398   3.804  10.143   4.074  0.0220  0.4943 -0.4299
  515MOL0     C69399   3.751  10.060   3.966 -0.5569  0.6743 -0.7199
  515MOL0     C69400   3.803   9.924   3.993  0.0396  0.2084  0.3972
  515MOL0     C69401   3.747   9.824   3.888 -0.5365  0.3379  0.5601
  515MOL0     C69402   3.830   9.700   3.893  0.0636  0.2890  0.4935
  515MOL0     C69403   3.786   9.589   3.795  0.0793 -0.2400  0.0476
  515MOL0     C69404   3.878   9.459   3.811 -0.2094  0.2049 -0.0420
  515MOL0     C69405   4.022   9.453   3.737  0.1122  1.1039  0.3833
  515MOL0     C69406   4.065   9.315   3.693  0.5051  0.0773 -0.3833
  515MOL0     N69407   4.176   9.318   3.599 -1.1192 -1.2213  0.0542
  515MOL0     C69408   4.157   9.310   3.466  0.7748 -0.6760  0.7791
  515MOL0     C69409   4.280   9.322   3.414 -0.0290  0.0088 -0.4002
  515MOL0     C69410   4.337   9.317   3.268 -0.5401 -0.4220  0.4215
  515MOL0     C69411   4.285   9.190   3.194 -0.1499 -0.6545  0.0848
  515MOL0     C69412   4.334   9.197   3.047 -0.1738  0.1065 -0.5701
  515MOL0     C69413   4.286   9.071   2.961 -0.6814 -0.4923 -0.7309
  515MOL0     O69414   4.385   8.958   2.987  1.0013 -0.0659  0.2256
  515MOL0     C69415   4.367   8.844   2.900 -0.2808  0.3382  0.0904
  515MOL0     C69416   4.258   8.828   2.806  0.6912 -0.7562 -0.9365
  515MOL0     C69417   4.242   8.728   2.718  0.0064  0.0170  0.2781
  515MOL0     C69418   4.337   8.624   2.718  0.1022  1.1357 -0.1346
  515MOL0     C69419   4.328   8.502   2.636 -0.4281 -0.2042  1.3791
  515MOL0     O69420   4.422   8.398   2.647  0.2314  0.0761 -0.2804
  515MOL0     C69421   4.414   8.284   2.571  0.1343  1.2614  0.1984
  515MOL0     C69422   4.434   8.153   2.631  0.0696  0.0526 -0.3653
  515MOL0     C69423   4.403   8.038   2.553  0.5586  0.2332 -0.3277
  515MOL0     C69424   4.375   8.050   2.410  0.4221  0.2026 -0.6588
  515MOL0     O69425   4.334   7.940   2.341  0.0676  0.1119  0.4219
  515MOL0     C69426   4.224   7.969   2.244 -0.1716  0.1700 -0.3251
  515MOL0     C69427   4.158   7.835   2.190  0.8004  1.0068 -0.0565
  515MOL0     C69428   4.241   7.768   2.088  0.2896 -0.4400  0.0408
  515MOL0     C69429   4.208   7.628   2.060  0.8354  0.8959  0.0155
  515MOL0     C69430   4.249   7.579   1.920 -0.1365  0.6674  0.4198
  515MOL0     C69431   4.214   7.430   1.910 -0.0154  0.1856  0.2708
  515MOL0     C69432   4.186   7.380   1.768 -0.0461  0.3398 -0.5384
  515MOL0     C69433   4.157   7.230   1.755 -0.0869 -0.2253  1.3416
  515MOL0    Cl69434   4.171   7.199   1.587  0.0647  0.0267 -0.1994
  515MOL0     C69435   4.377   8.182   2.350 -0.4018  0.6561 -0.4188
  515MOL0     C69436   4.400   8.292   2.431 -0.1700  0.8956 -0.2600
  515MOL0     O69437   4.237   8.495   2.555  0.9227 -0.1605 -0.0342
  515MOL0     C69438   4.440   8.630   2.814 -0.7495  0.4474  0.2521
  515MOL0     C69439   4.455   8.739   2.909  0.6348  0.3456  0.1071
  515MOL0     N69440   4.375   9.345   3.516  0.3133 -0.0422  1.0089
  515MOL0     N69441   4.309   9.335   3.627  0.1742  0.9804  0.3995
  515MOL0     C69442   3.771  10.348   4.190  1.0595 -0.7784 -0.2022
  515MOL0     C69443   3.723  10.480   4.198 -0.0060 -1.2478  0.3351
  515MOL0     C69444   3.388  10.783   4.190  0.4488 -1.5939 -0.8491
  515MOL0     C69445   3.476  10.895   4.196 -0.0199 -0.5017  0.2134
  515MOL0     C69446   3.438  11.025   4.194 -0.1301 -0.7915 -0.5141
  515MOL0     C69447   3.300  11.056   4.197 -0.1085  0.9199 -0.0562
  515MOL0     O69448   3.264  11.187   4.195  0.6614  0.7513  0.7849
  515MOL0     C69449   3.173  11.241   4.291 -0.1490  0.3336  0.6845
  515MOL0     C69450   3.223  11.219   4.435 -0.2419 -0.2362 -0.9173
  515MOL0     C69451   3.111  11.291   4.525 -0.1005 -0.6469 -0.2984
  515MOL0     C69452   3.152  11.283   4.669  0.0323  0.1827  0.4823
  515MOL0     C69453   3.086  11.381   4.760 -0.7883  0.6857  0.8801
  515MOL0     C69454   3.028  11.452   4.834  0.8971  1.8796  0.9473
  515MOL0     C69455   3.215  10.950   4.202  0.2993 -0.1199 -0.4622
  515MOL0     C69456   3.254  10.818   4.203  0.4592  0.2987 -0.0218
  515MOL0     C69457   3.148  10.712   4.201  0.6028 -0.7769  0.1936
  515MOL0     H69458   3.555  10.515   3.908  1.4252  1.1995 -0.8894
  515MOL0     H69459   3.681  10.284   3.873 -0.7456  2.4259 -0.4998
  515MOL0     H69460   3.643  10.066   3.976 -0.5249 -1.6124  2.2818
  515MOL0     H69461   3.787  10.098   3.870  2.2314  1.4752  0.5165
  515MOL0     H69462   3.784   9.883   4.093 -0.9077  0.4400  0.3221
  515MOL0     H69463   3.911   9.937   3.988 -0.1406  2.0035  0.7494
  515MOL0     H69464   3.762   9.871   3.790 -1.7251 -0.2225  0.0922
  515MOL0     H69465   3.642   9.806   3.909 -0.2200  0.1897  2.1154
  515MOL0     H69466   3.939   9.703   3.882  0.0058  0.0621 -0.1774
  515MOL0     H69467   3.827   9.668   3.998 -0.1074  1.0233  0.7144
  515MOL0     H69468   3.681   9.572   3.822 -0.9493  2.1887 -2.0235
  515MOL0     H69469   3.783   9.620   3.690  0.1122 -0.0271  0.1073
  515MOL0     H69470   3.909   9.446   3.915 -2.7849  4.7186  1.5772
  515MOL0     H69471   3.814   9.378   3.776 -0.3178 -0.8953  2.5369
  515MOL0     H69472   4.098   9.502   3.798 -0.0859  1.8527  0.0420
  515MOL0     H69473   4.009   9.520   3.652 -0.4866 -0.2034 -0.5925
  515MOL0     H69474   4.098   9.268   3.786 -1.8749  1.6774  1.4213
  515MOL0     H69475   3.977   9.257   3.662 -0.0600 -0.2704  1.7050
  515MOL0     H69476   4.065   9.281   3.416 -0.5266  2.6167  1.0050
  515MOL0     H69477   4.318   9.409   3.212  2.4856 -1.2842 -2.3597
  515MOL0     H69478   4.446   9.315   3.267 -0.4132  2.0758 -1.4349
  515MOL0     H69479   4.328   9.101   3.241 -0.6464 -0.1608  1.5270
  515MOL0     H69480   4.176   9.182   3.197 -0.1745 -0.6328 -0.7328
  515MOL0     H69481   4.443   9.198   3.047 -0.1232  2.2537  1.1906
  515MOL0     H69482   4.302   9.281   2.984  2.1194  0.6203 -1.1108
  515MOL0     H69483   4.291   9.101   2.856  1.5618  2.4094  0.0448
  515MOL0     H69484   4.182   9.050   2.985 -0.8577  1.4573  0.4549
  515MOL0     H69485   4.181   8.904   2.796 -1.8239 -3.4174 -4.0600
  515MOL0     H69486   4.164   8.727   2.643 -0.0209 -1.0202  0.3037
  515MOL0     H69487   4.461   8.130   2.733 -1.0323 -1.9450 -0.4736
  515MOL0     H69488   4.404   7.939   2.598 -0.6344 -0.4111 -1.5859
  515MOL0     H69489   4.144   8.021   2.297 -1.2830 -1.0486 -0.7276
  515MOL0     H69490   4.264   8.032   2.164 -2.0139  2.8563  0.7455
  515MOL0     H69491   4.147   7.758   2.267  0.4020 -1.3915 -2.3445
  515MOL0     H69492   4.062   7.864   2.145  1.0741 -1.5206 -2.5375
  515MOL0     H69493   4.223   7.824   1.996  0.6550  0.7127  0.6515
  515MOL0     H69494   4.347   7.766   2.115  1.3547 -2.2088 -3.6056
  515MOL0     H69495   4.100   7.617   2.068  0.9239 -0.0998 -0.0336
  515MOL0     H69496   4.249   7.559   2.134  1.9496 -3.1091 -3.9089
  515MOL0     H69497   4.348   7.600   1.879 -1.9399  2.0786 -3.7567
  515MOL0     H69498   4.198   7.640   1.844  1.2547 -0.1428 -1.2303
  515MOL0     H69499   4.305   7.381   1.945  0.4889  0.0868 -1.1413
  515MOL0     H69500   4.126   7.404   1.971  0.2479 -0.7990  0.2459
  515MOL0     H69501   4.279   7.401   1.714 -0.6904  1.7319 -1.1561
  515MOL0     H69502   4.119   7.442   1.707  2.7320  2.3883 -1.7474
  515MOL0     H69503   4.227   7.156   1.796 -0.2083 -0.5337  1.0011
  515MOL0     H69504   4.053   7.214   1.785 -1.0423  2.8113  0.0187
  515MOL0     H69505   4.352   8.199   2.246 -3.1171  1.8142  0.3089
  515MOL0     H69506   4.382   8.388   2.384  2.9000  1.2009 -1.0062
  515MOL0     H69507   4.511   8.549   2.818 -1.4032 -0.1807 -0.4975
  515MOL0     H69508   4.548   8.734   2.964  1.0959 -1.6816 -0.7537
  515MOL0     H69509   3.827  10.307   4.272  4.0384  3.3888  0.2020
  515MOL0     H69510   3.730  10.550   4.280  2.0789 -0.7964 -0.1745
  515MOL0     H69511   3.583  10.885   4.175  0.0297 -0.1480  0.2937
  515MOL0     H69512   3.508  11.108   4.197  1.0080 -1.7484  0.4923
  515MOL0     H69513   3.069  11.208   4.285 -0.1185  0.2437  0.6434
  515MOL0     H69514   3.169  11.347   4.267 -1.6727 -0.5003 -3.5254
  515MOL0     H69515   3.322  11.264   4.453 -0.2465 -0.7630  0.5215
  515MOL0     H69516   3.251  11.119   4.470  1.0476 -0.5006 -2.5176
  515MOL0     H69517   3.016  11.240   4.504 -1.9314  0.8442  3.5392
  515MOL0     H69518   3.117  11.399   4.508  5.5395 -0.4187  1.2177
  515MOL0     H69519   3.132  11.183   4.709  4.0174  0.3968  3.6363
  515MOL0     H69520   3.261  11.287   4.680  0.0918 -2.6179  1.6413
  515MOL0     H69521   2.959  11.520   4.880 -3.7099 -0.4402 -1.7645
  515MOL0     H69522   3.109  10.970   4.205 -0.3652 -3.2961  0.6372
  515MOL0     H69523   3.156  10.637   4.280 -3.8928 -1.0819  0.6244
  515MOL0     H69524   3.048  10.750   4.227 -0.0712 -2.2815 -0.1216
  515MOL0     H69525   3.137  10.664   4.104 -3.2323  2.5776 -1.3218
  516MOL0     O69526   8.960   8.634   4.171  0.2653 -0.0700 -0.0662
  516MOL0     C69527   8.961   8.532   4.240 -0.1550 -0.4539  0.3720
  516MOL0     O69528   8.870   8.434   4.235  0.1746 -0.7160  0.1388
  516MOL0     C69529   8.774   8.438   4.139 -0.7593 -0.4665  0.3585
  516MOL0     C69530   8.646   8.472   4.175 -0.1565 -0.6465  0.5398
  516MOL0     C69531   8.550   8.485   4.081 -0.0441 -0.6648  0.0977
  516MOL0     C69532   8.564   8.464   3.946  0.8884 -0.0074 -0.4543
  516MOL0     O69533   8.451   8.472   3.863  0.1754  0.5165  0.7329
  516MOL0     C69534   8.471   8.477   3.724 -0.4758 -0.4390 -0.0113
  516MOL0     C69535   8.340   8.508   3.641  0.0626 -0.6936 -0.2657
  516MOL0     C69536   8.219   8.421   3.699  0.3469 -0.2547  0.1729
  516MOL0     C69537   8.087   8.447   3.610  0.6125  0.0792 -0.4387
  516MOL0     C69538   7.970   8.338   3.643 -0.2976 -0.8673  0.2023
  516MOL0     C69539   7.912   8.340   3.781  0.0137 -0.3290 -0.1170
  516MOL0     C69540   7.766   8.274   3.792 -1.0374  0.2176  0.2078
  516MOL0     C69541   7.697   8.312   3.926  0.1702  0.2282  1.3413
  516MOL0     N69542   7.722   8.445   3.972 -0.4064 -0.0601 -0.8146
  516MOL0     C69543   7.627   8.547   3.959  0.4336  0.0079  0.5154
  516MOL0     C69544   7.690   8.654   4.016 -0.5355  0.8324 -0.1536
  516MOL0     C69545   7.642   8.803   4.001  0.4063  0.2975  0.2273
  516MOL0     C69546   7.676   8.848   3.862 -0.1063 -0.0264 -1.5500
  516MOL0     C69547   7.665   9.000   3.843  0.4033 -0.2220 -0.4598
  516MOL0     C69548   7.538   9.060   3.905  0.7771  0.2350  1.1500
  516MOL0     O69549   7.419   9.015   3.847  0.0990  0.6071  0.0187
  516MOL0     C69550   7.303   9.020   3.919 -0.2324  0.4781 -0.1033
  516MOL0     C69551   7.286   9.077   4.043 -0.5943  0.0181 -0.4118
  516MOL0     C69552   7.161   9.062   4.105 -0.8641  0.5866 -0.2979
  516MOL0     C69553   7.056   9.001   4.031 -0.1462 -0.7000  0.3944
  516MOL0     C69554   6.919   8.991   4.088 -0.7549 -0.7101  0.4371
  516MOL0     O69555   6.820   8.923   4.019 -0.5910 -1.2242 -0.0722
  516MOL0     C69556   6.693   8.899   4.074 -0.4238 -0.1531  0.2884
  516MOL0     C69557   6.627   9.004   4.145 -0.8830  0.8063 -0.3448
  516MOL0     C69558   6.509   8.975   4.208  0.5190 -0.2734  0.1686
  516MOL0     C69559   6.446   8.849   4.193 -0.2854 -0.1399 -0.8030
  516MOL0     O69560   6.327   8.818   4.259  0.7200 -0.4519  0.0657
  516MOL0     C69561   6.326   8.833   4.404 -0.0397  0.0285  0.5524
  516MOL0     C69562   6.275   8.716   4.484 -0.4184  0.3893 -0.4215
  516MOL0     C69563   6.334   8.720   4.628  0.4795  0.4154  0.1816
  516MOL0     C69564   6.319   8.597   4.710  0.7602 -0.0528  0.3713
  516MOL0     C69565   6.366   8.624   4.850 -0.5615  0.8421  0.2648
  516MOL0     C69566   6.359   8.498   4.951  0.1653  0.2076 -0.6403
  516MOL0     C69567   6.231   8.421   4.950  0.1133 -0.4379  0.2055
  516MOL0     C69568   6.222   8.323   5.069 -0.0242 -0.8420  0.5210
  516MOL0    Cl69569   6.096   8.221   5.047 -0.0230 -0.2555  0.4270
  516MOL0     C69570   6.498   8.755   4.108  0.9108  0.7923  0.4067
  516MOL0     C69571   6.626   8.776   4.048  0.1184  0.3768 -0.5297
  516MOL0     O69572   6.906   9.036   4.204  0.0862 -0.4991  0.4072
  516MOL0     C69573   7.072   8.967   3.895 -0.1087 -1.0735  0.5342
  516MOL0     C69574   7.194   8.976   3.838 -0.0384 -0.3135 -0.2907
  516MOL0     N69575   7.814   8.621   4.069  0.5252  0.1535  0.0367
  516MOL0     N69576   7.827   8.491   4.045 -0.6041 -0.4943 -0.3485
  516MOL0     C69577   8.699   8.424   3.902 -0.0833 -0.2032 -0.6217
  516MOL0     C69578   8.804   8.418   3.996 -1.2915  0.1101  0.2281
  516MOL0     C69579   9.076   8.513   4.334  0.8108  0.0309  0.7328
  516MOL0     C69580   9.116   8.619   4.425  0.4299  0.8682 -0.7637
  516MOL0     C69581   9.226   8.602   4.507 -0.0729  0.0987 -0.1642
  516MOL0     C69582   9.304   8.478   4.501  0.5706 -0.0656 -0.7987
  516MOL0     O69583   9.402   8.449   4.596  0.0616 -0.4683 -0.1712
  516MOL0     C69584   9.531   8.473   4.544 -0.2135 -0.0410 -0.5024
  516MOL0     C69585   9.625   8.533   4.655  0.2643  0.3695 -0.3229
  516MOL0     C69586   9.561   8.556   4.794 -0.0697  0.0117 -0.5604
  516MOL0     C69587   9.656   8.623   4.893  0.3633  0.5361 -0.2699
  516MOL0     C69588   9.782   8.551   4.903  0.0566  0.2934  0.3521
  516MOL0     C69589   9.887   8.490   4.899  0.2031 -0.1234 -0.8008
  516MOL0     C69590   9.251   8.369   4.426  0.2405 -0.8235  1.3254
  516MOL0     C69591   9.143   8.394   4.339  0.5804  0.9313 -0.6158
  516MOL0     C69592   9.102   8.275   4.248 -0.3388 -0.8528 -0.3605
  516MOL0     H69593   8.639   8.514   4.274  2.8484  0.8181  0.2567
  516MOL0     H69594   8.452   8.527   4.103  0.1563  2.4473 -3.7082
  516MOL0     H69595   8.528   8.570   3.714 -1.0759 -0.3080 -2.8923
  516MOL0     H69596   8.525   8.390   3.684 -0.1964 -0.6742  0.8491
  516MOL0     H69597   8.347   8.486   3.534 -1.2214 -1.3067 -0.2390
  516MOL0     H69598   8.306   8.612   3.650 -0.0494 -0.6234 -1.3638
  516MOL0     H69599   8.195   8.445   3.803 -1.2342  0.1691 -0.2763
  516MOL0     H69600   8.241   8.316   3.677 -3.8379 -1.1967 -0.2937
  516MOL0     H69601   8.049   8.548   3.626 -0.9610 -0.5642 -0.0063
  516MOL0     H69602   8.110   8.452   3.503 -1.9335  0.0459 -1.0492
  516MOL0     H69603   7.891   8.358   3.569 -1.0717  2.0483  1.6303
  516MOL0     H69604   8.011   8.238   3.632 -0.6463 -0.9764 -0.1423
  516MOL0     H69605   7.981   8.298   3.855 -1.5004 -1.7105  0.5807
  516MOL0     H69606   7.896   8.446   3.801  0.3917  0.2569 -2.6234
  516MOL0     H69607   7.759   8.167   3.770  2.1992  0.1246 -0.8200
  516MOL0     H69608   7.701   8.327   3.721 -0.4683  4.1208  2.3400
  516MOL0     H69609   7.590   8.290   3.924  0.3641 -1.1887 -3.0529
  516MOL0     H69610   7.736   8.245   4.003 -0.3740 -0.4167  1.0675
  516MOL0     H69611   7.526   8.532   3.924 -0.4396 -1.3895  3.2788
  516MOL0     H69612   7.533   8.807   3.989  0.2613 -4.0425 -2.3068
  516MOL0     H69613   7.688   8.853   4.087  2.4142 -1.3444  0.1996
  516MOL0     H69614   7.778   8.821   3.835  1.6102  2.4285  1.8564
  516MOL0     H69615   7.612   8.791   3.794 -0.6937 -0.7959 -0.3853
  516MOL0     H69616   7.646   9.014   3.736  0.2212 -3.3425 -0.9187
  516MOL0     H69617   7.749   9.057   3.883  0.3414 -0.3309 -0.1734
  516MOL0     H69618   7.550   9.168   3.888  2.6507 -0.0183  0.6532
  516MOL0     H69619   7.531   9.038   4.012 -2.6855  0.2082  1.0549
  516MOL0     H69620   7.368   9.119   4.101 -0.3328 -0.3446 -0.5173
  516MOL0     H69621   7.150   9.097   4.207  1.6183  2.4341 -0.5666
  516MOL0     H69622   6.673   9.102   4.155 -0.5250  0.5366  0.7503
  516MOL0     H69623   6.480   9.051   4.280  0.5401  0.2407 -0.3673
  516MOL0     H69624   6.423   8.875   4.432  1.4924 -0.9669 -2.8009
  516MOL0     H69625   6.254   8.914   4.422 -1.6898 -1.3704  0.5343
  516MOL0     H69626   6.167   8.730   4.474 -0.8233 -2.7175 -1.4527
  516MOL0     H69627   6.298   8.616   4.447 -1.9585 -0.9323  1.9207
  516MOL0     H69628   6.442   8.732   4.617  0.4089  2.9313  1.3952
  516MOL0     H69629   6.303   8.812   4.679  3.0256  1.3958  0.1332
  516MOL0     H69630   6.371   8.515   4.658 -0.0625  0.3531 -1.1675
  516MOL0     H69631   6.217   8.561   4.717  0.2738  1.4526  1.4515
  516MOL0     H69632   6.316   8.715   4.883 -1.4614  0.6930 -0.6543
  516MOL0     H69633   6.473   8.641   4.836 -0.3378 -0.5223  0.1542
  516MOL0     H69634   6.438   8.430   4.916 -2.1975 -3.7247  0.9515
  516MOL0     H69635   6.382   8.534   5.052 -2.4700  0.6932 -0.1610
  516MOL0     H69636   6.234   8.363   4.857  0.1553 -2.6686  1.5465
  516MOL0     H69637   6.146   8.490   4.941  0.5616  0.3147  1.5301
  516MOL0     H69638   6.317   8.268   5.075  0.7991  0.6766  2.5718
  516MOL0     H69639   6.228   8.377   5.163  4.2075  0.1214 -0.0778
  516MOL0     H69640   6.446   8.660   4.101  1.0795  0.4934  2.6545
  516MOL0     H69641   6.649   8.700   3.974 -3.1502  1.2574 -2.6367
  516MOL0     H69642   6.993   8.940   3.825  1.6964 -1.7518 -1.3648
  516MOL0     H69643   7.221   8.978   3.733 -0.1030 -2.5874 -0.4053
  516MOL0     H69644   8.721   8.403   3.797  0.4214 -0.1904 -0.5230
  516MOL0     H69645   8.905   8.382   3.979 -0.9802 -0.2899  2.6569
  516MOL0     H69646   9.044   8.700   4.438  0.0718  0.0480  4.4626
  516MOL0     H69647   9.253   8.670   4.587  0.0635  0.4105 -0.4697
  516MOL0     H69648   9.539   8.535   4.455  0.3484 -2.5445 -2.2932
  516MOL0     H69649   9.567   8.374   4.515  1.9255  0.6955 -0.5433
  516MOL0     H69650   9.661   8.621   4.600  2.3627 -1.4517 -2.0523
  516MOL0     H69651   9.711   8.467   4.668 -0.3785 -0.3775  0.1679
  516MOL0     H69652   9.542   8.461   4.844  2.6500  0.1823  0.9902
  516MOL0     H69653   9.469   8.614   4.788 -1.0607 -1.4246  0.2248
  516MOL0     H69654   9.675   8.727   4.864  1.3062  0.2888 -0.5762
  516MOL0     H69655   9.615   8.655   4.989 -0.7945 -1.2700 -0.1179
  516MOL0     H69656   9.983   8.444   4.891  1.1510  0.8414  2.9758
  516MOL0     H69657   9.285   8.266   4.422 -1.8605 -1.5076 -0.3246
  516MOL0     H69658   9.191   8.211   4.254  0.8129  0.6971 -0.2229
  516MOL0     H69659   9.013   8.236   4.297 -0.1788  0.0398  0.6835
  516MOL0     H69660   9.072   8.302   4.147 -3.5573 -1.1509  0.4143
  517MOL0     O69661   5.928   7.920   2.927 -0.7885 -1.0308 -0.4149
  517MOL0     C69662   5.869   7.817   2.900 -0.8822 -0.9587  0.0072
  517MOL0     O69663   5.765   7.772   2.982  1.0008  0.2194 -0.0691
  517MOL0     C69664   5.710   7.858   3.074 -0.3156 -0.7529 -0.3421
  517MOL0     C69665   5.630   7.970   3.043  1.0311 -0.0927  0.5041
  517MOL0     C69666   5.579   8.064   3.132  0.7180 -0.1940  0.6262
  517MOL0     C69667   5.602   8.041   3.273 -0.3987 -0.1787 -0.1977
  517MOL0     O69668   5.546   8.113   3.380 -0.8487 -1.0635  0.3059
  517MOL0     C69669   5.631   8.122   3.496 -0.2164 -0.1431  0.6442
  517MOL0     C69670   5.550   8.224   3.572 -0.6370 -1.0907  0.8425
  517MOL0     C69671   5.424   8.166   3.631  0.2041 -0.0119 -0.1534
  517MOL0     C69672   5.321   8.266   3.684  0.0457  0.6497 -0.5760
  517MOL0     C69673   5.195   8.197   3.747  0.1532  0.1117  1.0248
  517MOL0     C69674   5.098   8.131   3.642  0.0002 -0.2496 -0.5857
  517MOL0     C69675   4.970   8.093   3.716  0.1045 -0.0939  0.4976
  517MOL0     C69676   4.891   8.214   3.753  0.2232  0.3785 -0.2712
  517MOL0     N69677   4.858   8.283   3.629  0.2849 -0.4882  0.9634
  517MOL0     C69678   4.762   8.252   3.530 -0.9062 -0.4705 -0.3382
  517MOL0     C69679   4.749   8.359   3.447 -0.5389  0.0694 -0.4072
  517MOL0     C69680   4.662   8.356   3.320 -0.2562 -0.3970  0.4963
  517MOL0     C69681   4.562   8.473   3.334  0.0353  0.0686 -0.1122
  517MOL0     C69682   4.436   8.423   3.249 -0.7673  0.1747  0.6161
  517MOL0     C69683   4.355   8.554   3.234 -0.4041  0.2775 -0.4270
  517MOL0     O69684   4.213   8.520   3.211  0.4378  0.3367  0.0650
  517MOL0     C69685   4.110   8.495   3.297 -0.4140  0.8688  0.3418
  517MOL0     C69686   3.972   8.480   3.266  0.1104  0.0087  0.1956
  517MOL0     C69687   3.876   8.455   3.364 -0.3725  0.0200 -0.0317
  517MOL0     C69688   3.919   8.476   3.499  0.2427 -0.6862 -0.2005
  517MOL0     C69689   3.819   8.476   3.615  0.9347  0.2317 -0.4574
  517MOL0     O69690   3.869   8.505   3.739  0.8863 -0.7613 -0.2911
  517MOL0     C69691   3.804   8.436   3.840 -0.6993  0.0370 -0.0465
  517MOL0     C69692   3.758   8.510   3.953  0.0221  0.0377  0.5175
  517MOL0     C69693   3.710   8.452   4.067 -0.4569 -0.9917 -0.1980
  517MOL0     C69694   3.695   8.311   4.064 -0.2052 -0.5375  0.8506
  517MOL0     O69695   3.644   8.255   4.175 -0.6074 -0.1409 -0.0545
  517MOL0     C69696   3.583   8.124   4.179 -0.6564 -0.1731  0.6854
  517MOL0     C69697   3.431   8.139   4.184 -0.5806  0.2312  0.6950
  517MOL0     C69698   3.362   8.204   4.076  0.1330  0.6425  0.1582
  517MOL0     C69699   3.223   8.149   4.050  0.1702 -0.0261  0.4108
  517MOL0     C69700   3.124   8.171   4.165 -0.2374 -0.3117 -0.6180
  517MOL0     C69701   3.118   8.315   4.208 -0.2365 -0.0154  0.3617
  517MOL0     C69702   2.992   8.347   4.289 -0.3134  0.0158 -0.2114
  517MOL0     C69703   3.014   8.472   4.367  0.1915 -0.1787  0.4557
  517MOL0    Cl69704   3.031   8.604   4.250  0.3651  0.1252 -0.3701
  517MOL0     C69705   3.727   8.237   3.955  0.0548  0.2554  0.1111
  517MOL0     C69706   3.782   8.298   3.837 -0.4311  0.8430 -0.5293
  517MOL0     O69707   3.711   8.427   3.583 -0.3760  0.6470 -0.2112
  517MOL0     C69708   4.051   8.492   3.538  0.1611 -0.3561  0.9257
  517MOL0     C69709   4.145   8.502   3.434  0.6984  0.1775 -0.1285
  517MOL0     N69710   4.839   8.449   3.493 -0.6879  0.6318  0.3385
  517MOL0     N69711   4.905   8.402   3.589 -0.2509 -0.6359  0.0919
  517MOL0     C69712   5.682   7.928   3.304 -0.4937  0.5864  0.9900
  517MOL0     C69713   5.736   7.835   3.209  0.2097  0.2843  0.4482
  517MOL0     C69714   5.926   7.723   2.805 -0.4744 -0.0180 -0.8918
  517MOL0     C69715   5.861   7.600   2.790 -0.0401  1.2394 -0.0136
  517MOL0     C69716   5.894   7.514   2.686  0.0297 -0.5791 -0.0302
  517MOL0     C69717   5.987   7.541   2.581 -0.0729  0.0176 -0.0783
  517MOL0     O69718   6.003   7.474   2.466 -1.8277  0.0487 -0.2481
  517MOL0     C69719   5.903   7.375   2.424  0.2979 -0.5433  0.5517
  517MOL0     C69720   5.769   7.443   2.374 -0.1798 -0.5514  0.2157
  517MOL0     C69721   5.765   7.584   2.330 -0.5588  0.5750  0.0045
  517MOL0     C69722   5.646   7.614   2.241 -0.0871  0.1169 -1.3509
  517MOL0     C69723   5.639   7.549   2.109 -0.7158 -0.1210  1.1894
  517MOL0     C69724   5.639   7.505   1.998 -0.4112 -0.8508 -0.6453
  517MOL0     C69725   6.066   7.650   2.606  0.8664  0.4364  0.6028
  517MOL0     C69726   6.039   7.738   2.721  0.1096 -1.2590  1.4854
  517MOL0     C69727   6.125   7.871   2.707 -0.9570 -0.4922  1.3613
  517MOL0     H69728   5.598   7.979   2.940  0.0050 -0.9034  0.7270
  517MOL0     H69729   5.532   8.155   3.096 -0.9977 -1.8643 -1.6643
  517MOL0     H69730   5.628   8.029   3.554  2.5902 -1.3753 -0.9945
  517MOL0     H69731   5.734   8.151   3.472  0.6911 -1.7320  2.3716
  517MOL0     H69732   5.532   8.310   3.507  3.6841 -1.4951 -1.2611
  517MOL0     H69733   5.617   8.255   3.653 -0.3677 -0.4417  0.3808
  517MOL0     H69734   5.440   8.088   3.706 -0.9807  1.1828  1.4288
  517MOL0     H69735   5.369   8.112   3.553 -0.5015  1.4515 -0.7253
  517MOL0     H69736   5.367   8.311   3.773 -1.8324 -1.4379  1.6084
  517MOL0     H69737   5.293   8.337   3.606 -1.0272  2.8878  1.6907
  517MOL0     H69738   5.212   8.109   3.810 -1.0419 -1.4582 -0.7382
  517MOL0     H69739   5.140   8.272   3.804  0.2662  0.8106  0.2282
  517MOL0     H69740   5.075   8.200   3.560 -5.5316 -0.7906  0.1472
  517MOL0     H69741   5.149   8.042   3.606 -2.4171 -1.7580 -0.5227
  517MOL0     H69742   4.981   8.042   3.813 -2.2481 -1.3795  0.1481
  517MOL0     H69743   4.902   8.025   3.664  0.8063 -1.2083  0.9760
  517MOL0     H69744   4.794   8.180   3.789 -0.0001 -2.3459 -2.9971
  517MOL0     H69745   4.932   8.269   3.838 -1.5554 -1.2669  1.7726
  517MOL0     H69746   4.717   8.154   3.513  0.6365 -1.9536  3.1790
  517MOL0     H69747   4.728   8.376   3.235 -3.2288 -0.7365 -2.0990
  517MOL0     H69748   4.611   8.259   3.319  0.6341 -0.9435  2.8882
  517MOL0     H69749   4.529   8.485   3.438 -1.8853 -0.8664 -0.5788
  517MOL0     H69750   4.599   8.570   3.300 -0.1298 -0.0906 -0.7599
  517MOL0     H69751   4.367   8.353   3.299 -1.4610  0.3756 -0.0429
  517MOL0     H69752   4.466   8.378   3.154  0.9706  2.2962  0.1040
  517MOL0     H69753   4.387   8.610   3.146  0.1226  2.2130  0.9400
  517MOL0     H69754   4.368   8.622   3.318 -3.6353 -1.2142  1.5097
  517MOL0     H69755   3.932   8.467   3.166 -1.1841 -4.3198  1.0670
  517MOL0     H69756   3.772   8.434   3.341  0.1952 -2.6515 -0.4722
  517MOL0     H69757   3.757   8.618   3.947  1.6268  0.0199 -0.7615
  517MOL0     H69758   3.691   8.517   4.151  1.1019 -0.2746 -0.3612
  517MOL0     H69759   3.633   8.055   4.110  4.8297  0.8255  3.1043
  517MOL0     H69760   3.600   8.073   4.274 -0.4992 -2.1116 -0.3365
  517MOL0     H69761   3.398   8.035   4.171  1.6816 -0.4344 -0.2500
  517MOL0     H69762   3.405   8.181   4.282  0.6670  0.3654  0.9907
  517MOL0     H69763   3.354   8.312   4.093  1.5356  0.6912  0.6409
  517MOL0     H69764   3.422   8.195   3.985 -1.7553  0.3141 -1.1183
  517MOL0     H69765   3.227   8.040   4.038  1.7888  0.0660 -0.1285
  517MOL0     H69766   3.200   8.198   3.955  0.6089 -1.6288 -0.5747
  517MOL0     H69767   3.151   8.103   4.246  0.8779 -1.1544 -1.6535
  517MOL0     H69768   3.026   8.140   4.128 -0.5587 -2.0506  1.5385
  517MOL0     H69769   3.206   8.340   4.268 -2.0882  0.4649  3.0823
  517MOL0     H69770   3.125   8.374   4.117 -1.1415  1.6613  1.3352
  517MOL0     H69771   2.972   8.262   4.355  1.7103 -1.0118 -0.8164
  517MOL0     H69772   2.910   8.359   4.218 -0.5903  2.3169  0.4232
  517MOL0     H69773   2.915   8.485   4.412  1.2643  0.0749  2.9090
  517MOL0     H69774   3.100   8.464   4.433 -0.3395  0.1849  1.2039
  517MOL0     H69775   3.725   8.128   3.955 -0.0888  0.2085 -2.1920
  517MOL0     H69776   3.808   8.232   3.755 -3.8164 -0.3709 -0.8166
  517MOL0     H69777   4.078   8.486   3.643  0.2568  0.7705  0.9767
  517MOL0     H69778   4.247   8.522   3.466  0.1516  2.5450  0.2855
  517MOL0     H69779   5.696   7.916   3.411 -0.9294  0.3845  1.0248
  517MOL0     H69780   5.806   7.760   3.245 -0.3360 -0.7602 -0.6010
  517MOL0     H69781   5.777   7.569   2.852 -1.9709  2.8764 -1.6680
  517MOL0     H69782   5.824   7.432   2.673 -2.2978  1.1798  0.7280
  517MOL0     H69783   5.895   7.287   2.488 -1.1713 -0.8424  0.0191
  517MOL0     H69784   5.935   7.333   2.328 -2.3947 -1.9494  0.1736
  517MOL0     H69785   5.705   7.439   2.463 -2.1290 -2.4989 -1.1841
  517MOL0     H69786   5.727   7.373   2.302 -1.1813  0.3577 -0.1153
  517MOL0     H69787   5.861   7.606   2.284  0.2740  0.3295  1.5419
  517MOL0     H69788   5.739   7.650   2.413 -3.6935  0.7137 -0.9457
  517MOL0     H69789   5.554   7.592   2.295  0.1151  0.0800 -1.0207
  517MOL0     H69790   5.647   7.723   2.230 -1.5413  0.5698  1.8563
  517MOL0     H69791   5.629   7.449   1.907 -1.4494  1.2662 -1.9125
  517MOL0     H69792   6.148   7.684   2.544  2.4911  3.6539  4.0680
  517MOL0     H69793   6.060   7.957   2.689 -0.2375  0.1729  1.8587
  517MOL0     H69794   6.187   7.905   2.791 -1.4649  0.8769  1.2108
  517MOL0     H69795   6.200   7.858   2.629  1.8498 -3.3201  4.2001
  518MOL0     O69796   5.804   4.106  11.194 -0.7185  0.3192  0.5426
  518MOL0     C69797   5.695   4.048  11.177  0.3801  0.7863 -0.7871
  518MOL0     O69798   5.608   4.086  11.081  0.1649  0.7804  0.0066
  518MOL0     C69799   5.631   4.157  10.971 -0.3533 -0.6198 -0.2421
  518MOL0     C69800   5.753   4.173  10.899 -0.1242 -0.5730 -0.2455
  518MOL0     C69801   5.751   4.230  10.771  0.1965  0.7534  0.0938
  518MOL0     C69802   5.629   4.273  10.713 -0.1053  0.6017 -0.2055
  518MOL0     O69803   5.645   4.296  10.585 -0.3228  0.6171  0.4332
  518MOL0     C69804   5.539   4.362  10.510 -0.0560  0.0267  0.2245
  518MOL0     C69805   5.590   4.393  10.361  0.8585  0.4268  0.5954
  518MOL0     C69806   5.571   4.261  10.278  0.0993 -0.6857 -0.4316
  518MOL0     C69807   5.635   4.275  10.149 -0.7890  0.8437  0.1823
  518MOL0     C69808   5.550   4.353  10.047  1.1095 -0.2381  0.1205
  518MOL0     C69809   5.632   4.393   9.926 -0.9125  0.0196 -0.2009
  518MOL0     C69810   5.563   4.461   9.806 -0.3068  2.1523 -0.5484
  518MOL0     C69811   5.479   4.355   9.729 -0.4355  0.9285  0.1843
  518MOL0     N69812   5.403   4.428   9.621 -0.1424  1.2888 -0.5008
  518MOL0     C69813   5.276   4.464   9.638 -1.4663  0.3302  0.4051
  518MOL0     C69814   5.247   4.553   9.540 -0.2463 -0.1159 -0.5853
  518MOL0     C69815   5.138   4.648   9.533  0.1766  0.2326  0.2479
  518MOL0     C69816   5.083   4.651   9.396  0.0620 -0.1042  0.2911
  518MOL0     C69817   4.963   4.747   9.388  0.0365  0.7809 -1.0351
  518MOL0     C69818   4.941   4.768   9.246  0.0051 -0.4163  0.5463
  518MOL0     O69819   4.810   4.722   9.204  0.1654 -0.3147 -0.4405
  518MOL0     C69820   4.700   4.798   9.218 -0.2392  0.4712 -0.5023
  518MOL0     C69821   4.691   4.910   9.303  0.4920  0.0353 -0.8534
  518MOL0     C69822   4.572   4.971   9.333  1.0172  0.7890 -0.0796
  518MOL0     C69823   4.445   4.918   9.279  1.3318 -0.5977  0.3179
  518MOL0     C69824   4.311   4.967   9.313 -0.2671 -0.3999  0.7317
  518MOL0     O69825   4.324   5.090   9.378  0.0415  0.0992 -0.2543
  518MOL0     C69826   4.216   5.172   9.422 -0.5772 -0.2555  0.3330
  518MOL0     C69827   4.078   5.168   9.397 -0.7999  0.7190 -1.0224
  518MOL0     C69828   4.005   5.259   9.465  0.5866 -0.2098 -0.0534
  518MOL0     C69829   4.051   5.358   9.544 -0.0499  0.3004 -0.6760
  518MOL0     O69830   3.973   5.446   9.614  0.1480  0.2488  0.0260
  518MOL0     C69831   3.863   5.510   9.542 -0.3800  0.0947 -1.2583
  518MOL0     C69832   3.774   5.586   9.644  0.5049 -0.1760 -0.1766
  518MOL0     C69833   3.780   5.746   9.640 -0.3017  0.2009  0.4205
  518MOL0     C69834   3.701   5.820   9.748  0.4583 -0.6640 -0.6129
  518MOL0     C69835   3.681   5.970   9.730 -0.4245 -0.2533 -0.0497
  518MOL0     C69836   3.606   6.020   9.606 -0.0491 -0.1683 -1.3306
  518MOL0     C69837   3.564   6.168   9.641 -0.2005 -0.0890  0.3927
  518MOL0     C69838   3.475   6.224   9.528 -0.0843 -0.8449 -0.4407
  518MOL0    Cl69839   3.318   6.134   9.538 -0.2465  0.0168  0.1218
  518MOL0     C69840   4.182   5.363   9.565  0.2052 -0.5685 -0.9433
  518MOL0     C69841   4.270   5.272   9.511  0.1060  0.7600  0.8337
  518MOL0     O69842   4.206   4.908   9.285 -1.4024 -0.0435 -0.0929
  518MOL0     C69843   4.458   4.793   9.209  0.9039 -0.3059 -0.0822
  518MOL0     C69844   4.587   4.734   9.180 -0.0561  0.2179 -0.4044
  518MOL0     N69845   5.351   4.560   9.456  0.2171  0.5181  0.1025
  518MOL0     N69846   5.446   4.477   9.501 -0.4736  0.0015  0.3259
  518MOL0     C69847   5.514   4.268  10.796 -0.6408 -0.2152  0.3552
  518MOL0     C69848   5.513   4.208  10.913 -0.3038 -0.2844 -0.4259
  518MOL0     C69849   5.666   3.928  11.275 -0.0258  0.0535 -1.1943
  518MOL0     C69850   5.537   3.873  11.267 -0.3137 -0.3439  0.4029
  518MOL0     C69851   5.499   3.767  11.349 -0.0948  0.3817 -1.0117
  518MOL0     C69852   5.585   3.712  11.441  0.4133 -0.1546 -0.3033
  518MOL0     O69853   5.529   3.609  11.518  0.4822 -0.3346  0.5540
  518MOL0     C69854   5.620   3.523  11.588 -0.5792 -0.4657 -0.9858
  518MOL0     C69855   5.544   3.437  11.682  0.4802  0.6252  0.3394
  518MOL0     C69856   5.442   3.340  11.604  0.0311  0.2296 -0.2258
  518MOL0     C69857   5.518   3.234  11.519 -0.4341  0.1866  0.6028
  518MOL0     C69858   5.640   3.179  11.581 -0.7983 -1.0806  0.6033
  518MOL0     C69859   5.738   3.130  11.638 -0.5148  1.5209  0.8713
  518MOL0     C69860   5.700   3.778  11.464 -0.5124  0.2689 -0.5297
  518MOL0     C69861   5.751   3.878  11.376  0.9819  0.3609 -0.7465
  518MOL0     C69862   5.895   3.916  11.403  0.1472  1.4068  0.5863
  518MOL0     H69863   5.848   4.133  10.932 -0.6019 -0.5525  1.2318
  518MOL0     H69864   5.847   4.236  10.722  0.7360  1.3963  1.2011
  518MOL0     H69865   5.449   4.301  10.510 -0.4513  0.5981  0.7506
  518MOL0     H69866   5.523   4.461  10.553 -0.2916  0.3092 -0.4884
  518MOL0     H69867   5.695   4.423  10.357  0.8984  0.7425 -5.4131
  518MOL0     H69868   5.536   4.467  10.302 -0.0768 -1.5147 -1.1120
  518MOL0     H69869   5.464   4.245  10.260  0.5018 -1.0377 -2.9555
  518MOL0     H69870   5.620   4.178  10.330  3.8798  2.1899  1.0036
  518MOL0     H69871   5.736   4.315  10.161  0.8979 -2.2909 -1.9273
  518MOL0     H69872   5.642   4.171  10.116  3.0136 -0.7291  4.7711
  518MOL0     H69873   5.467   4.288  10.019 -0.3772  1.4727  0.3651
  518MOL0     H69874   5.508   4.442  10.095  0.3946 -0.3723 -0.2438
  518MOL0     H69875   5.698   4.459   9.983  3.2385 -3.6691 -0.2162
  518MOL0     H69876   5.698   4.310   9.897 -0.7115 -0.0552  0.4457
  518MOL0     H69877   5.645   4.504   9.747  2.1784  3.3620  3.4310
  518MOL0     H69878   5.488   4.537   9.826  0.5644  3.7697 -2.9633
  518MOL0     H69879   5.535   4.272   9.686 -0.3834  0.3578  1.3312
  518MOL0     H69880   5.404   4.309   9.793 -0.6243  0.0541 -0.6499
  518MOL0     H69881   5.211   4.448   9.724 -1.8190 -0.7398 -0.0392
  518MOL0     H69882   5.060   4.637   9.608 -1.0991  0.8322 -0.9411
  518MOL0     H69883   5.189   4.743   9.554  0.5660  0.0091  0.3224
  518MOL0     H69884   5.173   4.678   9.340  1.0432 -0.2122  1.7728
  518MOL0     H69885   5.037   4.555   9.371 -0.8672  0.2965  0.3975
  518MOL0     H69886   4.988   4.834   9.450 -0.7906 -0.5178  1.2729
  518MOL0     H69887   4.880   4.683   9.421 -1.8677  1.5352 -3.9663
  518MOL0     H69888   4.998   4.694   9.189  0.1648  1.6304 -2.1547
  518MOL0     H69889   4.978   4.868   9.222 -0.3691 -0.4666 -0.3123
  518MOL0     H69890   4.781   4.953   9.345  1.4870 -2.0128 -0.7612
  518MOL0     H69891   4.571   5.049   9.409 -1.7977  0.5405  0.2538
  518MOL0     H69892   4.036   5.092   9.331  1.6624 -2.5060  0.8714
  518MOL0     H69893   3.897   5.246   9.465  0.4661  0.6733 -0.6223
  518MOL0     H69894   3.909   5.573   9.465 -1.1653  1.6096 -0.5276
  518MOL0     H69895   3.802   5.431   9.497  1.4454 -0.0253 -3.7362
  518MOL0     H69896   3.675   5.550   9.615  0.3422  1.1552 -1.3495
  518MOL0     H69897   3.802   5.559   9.746 -0.5550  0.8080  0.3899
  518MOL0     H69898   3.881   5.783   9.658 -1.1676  2.3366  1.1799
  518MOL0     H69899   3.760   5.768   9.535  3.0890  0.5621 -0.2781
  518MOL0     H69900   3.752   5.808   9.843  0.8342 -3.8825 -1.0992
  518MOL0     H69901   3.601   5.774   9.755  1.0592 -1.7183  4.6338
  518MOL0     H69902   3.779   6.018   9.733 -0.4343 -0.1811 -0.6343
  518MOL0     H69903   3.633   6.014   9.818  0.1034 -1.7743  1.0362
  518MOL0     H69904   3.663   6.013   9.513  1.5917 -3.9552 -0.2217
  518MOL0     H69905   3.513   5.966   9.584  0.3609 -0.4520 -2.3993
  518MOL0     H69906   3.653   6.233   9.641 -1.4141  1.6646 -0.8641
  518MOL0     H69907   3.514   6.178   9.737  0.0411 -0.4845  0.5605
  518MOL0     H69908   3.460   6.332   9.528  3.6073 -0.1839 -0.3541
  518MOL0     H69909   3.524   6.208   9.431  0.5020  0.5147 -0.3851
  518MOL0     H69910   4.208   5.435   9.643  2.2979  0.6696 -2.6545
  518MOL0     H69911   4.374   5.255   9.537  0.9042 -2.4977 -3.3525
  518MOL0     H69912   4.364   4.745   9.184  0.1660  0.8764  0.3403
  518MOL0     H69913   4.592   4.637   9.132 -1.7129 -1.3813  2.3645
  518MOL0     H69914   5.420   4.310  10.760 -0.3023  2.2107  2.0027
  518MOL0     H69915   5.419   4.207  10.968  0.2615 -3.0893  0.6499
  518MOL0     H69916   5.459   3.917  11.205 -0.4404 -0.3456  0.5596
  518MOL0     H69917   5.399   3.725  11.339 -1.2936  2.7447  0.2342
  518MOL0     H69918   5.686   3.581  11.653  0.4060 -0.9035 -1.5709
  518MOL0     H69919   5.680   3.459  11.522 -1.0191 -0.6113 -1.2512
  518MOL0     H69920   5.488   3.504  11.748  1.0956 -1.5479  3.2662
  518MOL0     H69921   5.611   3.379  11.745 -0.3293  0.2626  0.8816
  518MOL0     H69922   5.372   3.396  11.541  0.7787  0.3596 -0.9530
  518MOL0     H69923   5.367   3.280  11.657 -1.5314 -0.6564 -3.2145
  518MOL0     H69924   5.445   3.153  11.512 -3.0279  2.4163  0.3897
  518MOL0     H69925   5.543   3.284  11.425  0.5991  1.9048  1.7330
  518MOL0     H69926   5.823   3.084  11.684 -1.3922 -0.4910  0.5435
  518MOL0     H69927   5.755   3.741  11.550 -1.8549 -1.0256 -0.1923
  518MOL0     H69928   5.950   3.899  11.311  0.3727 -2.7003  1.2837
  518MOL0     H69929   5.908   4.023  11.419 -0.6025  1.7137 -0.7412
  518MOL0     H69930   5.936   3.857  11.486  0.7731  2.4095  1.0130
  519MOL0     O69931   3.620   1.975   4.280  0.0543 -0.5468 -0.4575
  519MOL0     C69932   3.678   1.875   4.238 -1.4630 -0.5316 -0.5375
  519MOL0     O69933   3.660   1.743   4.273  0.7476  0.8509 -0.2152
  519MOL0     C69934   3.603   1.714   4.395 -0.7654 -0.2041 -0.2271
  519MOL0     C69935   3.469   1.731   4.406 -0.0371  0.2145  0.4400
  519MOL0     C69936   3.402   1.698   4.529  0.1022  0.8334  0.0699
  519MOL0     C69937   3.474   1.649   4.641  0.3839 -2.1640 -0.4025
  519MOL0     O69938   3.402   1.612   4.758  0.4411 -0.6529 -0.9825
  519MOL0     C69939   3.483   1.521   4.842  0.1617  0.5044  0.8832
  519MOL0     C69940   3.394   1.465   4.958 -0.6208 -0.5542 -0.3555
  519MOL0     C69941   3.361   1.576   5.061 -0.8418  0.0299 -0.2771
  519MOL0     C69942   3.224   1.577   5.124 -0.0853 -0.4404 -0.3676
  519MOL0     C69943   3.186   1.700   5.192 -0.4909  0.6910  0.2967
  519MOL0     C69944   3.067   1.689   5.290 -0.0358  1.0161  0.8991
  519MOL0     C69945   2.927   1.652   5.234 -0.7639 -0.2253 -1.1343
  519MOL0     C69946   2.860   1.758   5.150  0.6926  1.1442 -0.3550
  519MOL0     N69947   2.712   1.775   5.174  0.5400 -0.3969  0.0599
  519MOL0     C69948   2.622   1.721   5.093 -0.3726 -0.0950 -0.7144
  519MOL0     C69949   2.506   1.745   5.156  0.0746  0.6933  0.6424
  519MOL0     C69950   2.369   1.704   5.106 -1.5862  0.2355 -0.0041
  519MOL0     C69951   2.308   1.584   5.181  0.1357  0.2601 -0.9454
  519MOL0     C69952   2.386   1.451   5.144  0.4463  0.2521  0.1294
  519MOL0     C69953   2.321   1.325   5.216  0.1354 -0.6360 -0.4786
  519MOL0     O69954   2.328   1.336   5.352  0.3669 -0.3294 -0.6677
  519MOL0     C69955   2.236   1.259   5.428  0.0969  0.3580 -0.1357
  519MOL0     C69956   2.221   1.293   5.564 -0.1814 -1.3808 -0.3225
  519MOL0     C69957   2.141   1.222   5.652 -0.2421 -0.8698  0.0631
  519MOL0     C69958   2.076   1.107   5.602  0.6904 -1.0600 -0.3067
  519MOL0     C69959   1.985   1.034   5.704  0.4878 -0.3321  0.4199
  519MOL0     O69960   2.033   1.047   5.824 -0.3837  0.5207  0.5728
  519MOL0     C69961   1.962   0.983   5.917  0.0578  0.0557  0.6096
  519MOL0     C69962   2.039   0.927   6.012 -0.1569  0.1563  0.1426
  519MOL0     C69963   1.990   0.869   6.133 -0.3026 -0.6588 -0.3293
  519MOL0     C69964   1.849   0.865   6.133  0.8895  0.5369 -0.5282
  519MOL0     O69965   1.799   0.790   6.240 -1.1626  0.6056 -0.5711
  519MOL0     C69966   1.719   0.685   6.181  0.0261  0.4440  1.1948
  519MOL0     C69967   1.695   0.587   6.284  0.5947 -0.3056 -0.5708
  519MOL0     C69968   1.607   0.469   6.274  0.6555  0.2911 -0.7034
  519MOL0     C69969   1.458   0.514   6.291  0.7223  0.8966  0.0723
  519MOL0     C69970   1.397   0.494   6.436  0.3555 -0.0139  0.3295
  519MOL0     C69971   1.243   0.500   6.415  0.3770  0.4666 -0.8702
  519MOL0     C69972   1.175   0.516   6.550  0.3999  0.4383  0.2106
  519MOL0     C69973   1.028   0.507   6.551  0.4184 -0.4779  0.2061
  519MOL0    Cl69974   0.949   0.593   6.421 -0.3984  0.4786  0.0101
  519MOL0     C69975   1.760   0.919   6.041  0.0762  0.2218 -0.6706
  519MOL0     C69976   1.821   0.992   5.942 -0.2866 -0.0124  0.0473
  519MOL0     O69977   1.888   0.974   5.661  0.3629  0.9534  0.7523
  519MOL0     C69978   2.080   1.080   5.471 -0.0823 -0.5263  0.8168
  519MOL0     C69979   2.167   1.146   5.382 -0.7328 -0.5617 -1.0011
  519MOL0     N69980   2.528   1.814   5.272  0.3500  0.0611 -0.3839
  519MOL0     N69981   2.657   1.837   5.284 -0.1694 -0.0251  1.4452
  519MOL0     C69982   3.617   1.629   4.619  0.6463 -0.0726 -0.1437
  519MOL0     C69983   3.684   1.659   4.501 -0.0026 -0.8108 -0.5679
  519MOL0     C69984   3.757   1.875   4.109  0.3249  0.2671  0.2845
  519MOL0     C69985   3.704   1.943   4.005 -0.4370 -0.3695 -0.7677
  519MOL0     C69986   3.775   1.948   3.885  0.0837  0.7463 -0.6841
  519MOL0     C69987   3.899   1.892   3.860 -0.1337  0.0877 -0.0226
  519MOL0     O69988   3.964   1.901   3.735 -0.3814 -0.7857 -0.5482
  519MOL0     C69989   3.888   1.874   3.616 -0.8333  0.7181  0.4818
  519MOL0     C69990   3.931   1.740   3.570  0.2389  0.0837 -0.0253
  519MOL0     C69991   4.075   1.719   3.533 -0.4159 -0.9947  0.8469
  519MOL0     C69992   4.136   1.587   3.567 -0.3890 -0.3613  0.3632
  519MOL0     C69993   4.079   1.490   3.472  0.5865 -0.3849 -0.9279
  519MOL0     C69994   4.029   1.410   3.393  0.7576 -0.7089  0.0412
  519MOL0     C69995   3.957   1.836   3.970  0.6817  0.0990 -0.0892
  519MOL0     C69996   3.884   1.809   4.089 -0.0111  0.1365 -0.2128
  519MOL0     C69997   3.947   1.729   4.202  0.2971 -0.3853 -0.7597
  519MOL0     H69998   3.401   1.777   4.335  0.7542 -0.6384 -0.9296
  519MOL0     H69999   3.294   1.703   4.543 -0.0008 -0.5143 -0.1365
  519MOL0     H70000   3.514   1.442   4.773 -1.6620 -0.7242  1.4118
  519MOL0     H70001   3.567   1.580   4.880 -2.3406  2.7296  3.3866
  519MOL0     H70002   3.438   1.384   5.017 -2.1248 -1.0254  0.1866
  519MOL0     H70003   3.297   1.428   4.924 -0.8720 -0.3614  0.1320
  519MOL0     H70004   3.379   1.673   5.012  0.0834 -0.0111 -0.0315
  519MOL0     H70005   3.430   1.570   5.145 -1.4745 -1.3020  0.1759
  519MOL0     H70006   3.148   1.548   5.051 -3.0160  1.2295  1.7533
  519MOL0     H70007   3.228   1.492   5.192 -4.1032  0.9649  2.0193
  519MOL0     H70008   3.274   1.728   5.251 -1.0574  1.6877  0.6828
  519MOL0     H70009   3.158   1.773   5.116  3.4452 -1.1618 -3.3786
  519MOL0     H70010   3.091   1.609   5.361  2.3516  2.6296  2.0375
  519MOL0     H70011   3.062   1.780   5.349 -1.6110  0.3308  1.8627
  519MOL0     H70012   2.864   1.638   5.322  0.6321  1.7333  0.2775
  519MOL0     H70013   2.931   1.556   5.182  1.9907 -0.7866 -0.0624
  519MOL0     H70014   2.900   1.856   5.177 -0.5952  1.5476  0.1628
  519MOL0     H70015   2.874   1.739   5.043 -0.1549  0.8592 -0.4197
  519MOL0     H70016   2.652   1.662   5.007 -1.3673 -2.1551  0.2774
  519MOL0     H70017   2.302   1.790   5.112 -0.9278  0.8241 -0.7622
  519MOL0     H70018   2.388   1.680   5.001  1.8059  1.0860  0.2944
  519MOL0     H70019   2.318   1.609   5.287  1.2240  0.8979 -1.1824
  519MOL0     H70020   2.201   1.587   5.157 -0.3999 -1.5790  0.9569
  519MOL0     H70021   2.487   1.445   5.187 -0.1806  1.5075  1.9001
  519MOL0     H70022   2.397   1.431   5.037  2.4549  2.1073 -0.0795
  519MOL0     H70023   2.377   1.232   5.201 -2.2721 -2.0698 -0.9664
  519MOL0     H70024   2.224   1.297   5.175 -0.1978 -2.9965  1.6803
  519MOL0     H70025   2.283   1.377   5.594 -0.8404  0.3423 -3.3712
  519MOL0     H70026   2.133   1.257   5.754  2.7351  1.5217 -0.3640
  519MOL0     H70027   2.147   0.932   5.998  0.4489 -3.8556  1.8965
  519MOL0     H70028   2.061   0.826   6.203 -1.6007 -3.1278 -0.4150
  519MOL0     H70029   1.616   0.719   6.168 -0.3816 -1.5260 -1.4588
  519MOL0     H70030   1.760   0.659   6.083 -1.9558  1.2038  0.0921
  519MOL0     H70031   1.785   0.545   6.332  1.2599  1.8743  0.1897
  519MOL0     H70032   1.655   0.642   6.370 -2.3810  1.8336 -3.1129
  519MOL0     H70033   1.622   0.425   6.175  1.4026  0.8272 -0.8382
  519MOL0     H70034   1.635   0.401   6.355  1.3782  1.2532 -0.1241
  519MOL0     H70035   1.411   0.440   6.226  1.7482  1.7598 -1.7421
  519MOL0     H70036   1.435   0.605   6.235  0.6648  2.5697  2.6754
  519MOL0     H70037   1.427   0.585   6.488 -0.0493  1.5187 -1.9776
  519MOL0     H70038   1.432   0.401   6.481  2.0295  1.2880  1.8745
  519MOL0     H70039   1.201   0.578   6.351  2.1481  1.4777 -0.8710
  519MOL0     H70040   1.209   0.410   6.363  1.0582  0.0873 -0.6726
  519MOL0     H70041   1.195   0.611   6.600  0.6093  1.4730 -1.7190
  519MOL0     H70042   1.211   0.437   6.616  4.1283  1.7691 -0.0207
  519MOL0     H70043   0.992   0.404   6.548  0.4183 -0.7710  4.4725
  519MOL0     H70044   0.984   0.554   6.639 -5.4399  0.7627 -2.8874
  519MOL0     H70045   1.654   0.917   6.062  0.4018 -2.4432  1.2719
  519MOL0     H70046   1.772   1.056   5.869  0.7553  0.6244 -0.1224
  519MOL0     H70047   2.011   1.006   5.430 -2.2986  0.9143  1.7151
  519MOL0     H70048   2.154   1.123   5.276  0.5488  0.5948 -1.4399
  519MOL0     H70049   3.683   1.588   4.696  2.4147  0.1171 -1.4928
  519MOL0     H70050   3.793   1.658   4.501  0.0601  1.3497  0.4207
  519MOL0     H70051   3.612   1.998   4.020  1.3339  2.1074  2.1997
  519MOL0     H70052   3.728   2.007   3.808 -2.2086 -0.2130 -0.0954
  519MOL0     H70053   3.909   1.953   3.544  2.9709 -0.2608  0.2674
  519MOL0     H70054   3.782   1.859   3.639 -0.1498 -1.4578  2.7177
  519MOL0     H70055   3.871   1.709   3.483  2.2390  1.2245 -1.9240
  519MOL0     H70056   3.918   1.671   3.654 -0.7377  2.6711  2.0837
  519MOL0     H70057   4.145   1.794   3.571  0.3647  0.5000 -3.1122
  519MOL0     H70058   4.068   1.736   3.425 -1.9842  1.2215  1.2301
  519MOL0     H70059   4.245   1.590   3.558 -0.5844  1.2753 -2.9405
  519MOL0     H70060   4.120   1.559   3.671  2.8126  2.1285  1.6984
  519MOL0     H70061   3.969   1.349   3.329  0.5416 -1.2228  0.7162
  519MOL0     H70062   4.049   1.783   3.949  0.5436 -0.7208  1.2325
  519MOL0     H70063   4.026   1.669   4.156 -0.2927  0.6764 -3.3828
  519MOL0     H70064   3.990   1.797   4.276 -0.7830 -0.3963 -0.1003
  519MOL0     H70065   3.870   1.666   4.248 -1.2816  1.2170 -1.0785
  520MOL0     O70066   9.749   6.442   4.056  0.1695  0.0142 -0.9468
  520MOL0     C70067   9.655   6.361   4.050 -0.3838 -0.9234 -0.5732
  520MOL0     O70068   9.553   6.361   4.140 -0.2727  0.1176 -0.5367
  520MOL0     C70069   9.558   6.458   4.245 -0.1162  0.1275  0.6161
  520MOL0     C70070   9.514   6.586   4.213  0.7679 -0.3201 -0.1400
  520MOL0     C70071   9.495   6.676   4.323  0.2573  0.1863 -0.1664
  520MOL0     C70072   9.521   6.641   4.453  0.0165 -0.5954 -0.2437
  520MOL0     O70073   9.489   6.740   4.543 -0.5748 -0.4529 -0.7514
  520MOL0     C70074   9.561   6.870   4.560 -0.2397  0.2847  0.6647
  520MOL0     C70075   9.484   6.951   4.659  0.1205  0.2259  0.0002
  520MOL0     C70076   9.366   7.026   4.603  0.2435 -0.4555  0.4231
  520MOL0     C70077   9.291   6.981   4.479  0.2044  0.9982  0.2990
  520MOL0     C70078   9.210   7.104   4.425 -0.0481  0.4443 -0.1866
  520MOL0     C70079   9.094   7.081   4.330 -0.3773  0.4208  0.4704
  520MOL0     C70080   9.140   7.027   4.191 -0.6176 -0.7220  0.0875
  520MOL0     C70081   9.137   6.878   4.171  0.7272 -0.7375  0.4312
  520MOL0     N70082   9.163   6.813   4.043 -0.5540 -1.2754 -0.2963
  520MOL0     C70083   9.272   6.816   3.969  0.2393  0.3062 -0.1219
  520MOL0     C70084   9.233   6.742   3.857  0.1613 -0.7783  0.2881
  520MOL0     C70085   9.331   6.730   3.743  0.0545  1.0280 -0.0343
  520MOL0     C70086   9.413   6.598   3.754  0.6884  0.2156 -0.5880
  520MOL0     C70087   9.330   6.473   3.737  0.4702  0.6615 -0.0945
  520MOL0     C70088   9.349   6.449   3.590  0.5077 -0.0569  0.0893
  520MOL0     O70089   9.275   6.332   3.561 -0.4743  1.4226  0.3826
  520MOL0     C70090   9.263   6.302   3.430  0.0520 -0.0171  0.6227
  520MOL0     C70091   9.358   6.225   3.358 -0.2789 -0.6884 -0.0842
  520MOL0     C70092   9.331   6.179   3.230 -0.2597  0.5738  0.2595
  520MOL0     C70093   9.219   6.195   3.162  1.4724 -2.1062 -0.0278
  520MOL0     C70094   9.188   6.145   3.028  1.0609  1.0538 -0.0817
  520MOL0     O70095   9.292   6.098   2.949 -0.4116  0.6113 -0.7092
  520MOL0     C70096   9.288   6.046   2.822 -0.4289 -0.3781  0.2118
  520MOL0     C70097   9.381   5.951   2.794  0.6357  0.8846  1.1289
  520MOL0     C70098   9.394   5.891   2.668  0.2517  0.6950  0.3640
  520MOL0     C70099   9.299   5.904   2.575 -0.0033 -0.4093  0.0807
  520MOL0     O70100   9.332   5.846   2.457 -0.1357 -0.2679 -0.7965
  520MOL0     C70101   9.231   5.837   2.354 -0.4040 -0.0888  0.1470
  520MOL0     C70102   9.274   5.780   2.216 -0.8101  0.5044  0.4049
  520MOL0     C70103   9.150   5.742   2.135  0.6678 -0.0089 -0.1952
  520MOL0     C70104   9.171   5.690   1.987  0.8772 -0.8564 -0.4106
  520MOL0     C70105   9.047   5.703   1.902 -0.5332 -0.6333 -0.9705
  520MOL0     C70106   8.931   5.621   1.948  0.3656 -0.6125  0.0408
  520MOL0     C70107   8.819   5.625   1.845 -0.0289  0.2159  0.1463
  520MOL0     C70108   8.697   5.561   1.910  0.4218  0.0795  0.6682
  520MOL0    Cl70109   8.729   5.385   1.916 -0.3430  0.0065 -0.1825
  520MOL0     C70110   9.187   5.992   2.604 -0.1728  0.8500  0.0782
  520MOL0     C70111   9.192   6.064   2.722  0.4797 -0.1191 -0.5715
  520MOL0     O70112   9.073   6.151   2.985 -0.2037 -0.2285 -0.3587
  520MOL0     C70113   9.116   6.271   3.238  0.3208  0.1486 -0.3283
  520MOL0     C70114   9.140   6.322   3.365 -0.9916 -0.4754 -0.0624
  520MOL0     N70115   9.107   6.692   3.874 -0.1653  0.2230 -0.3733
  520MOL0     N70116   9.062   6.746   3.977  1.0171  0.0804 -0.5311
  520MOL0     C70117   9.546   6.505   4.481 -0.4174 -0.0324 -0.1336
  520MOL0     C70118   9.565   6.408   4.374 -0.3308  0.3207 -0.3717
  520MOL0     C70119   9.639   6.272   3.937  0.1451  0.0710  0.2020
  520MOL0     C70120   9.517   6.195   3.934 -0.9679 -0.5103  0.2332
  520MOL0     C70121   9.498   6.122   3.820  0.9378  0.2336  0.4865
  520MOL0     C70122   9.586   6.115   3.716  0.0878  0.0188  0.2705
  520MOL0     O70123   9.573   6.030   3.601 -0.0112 -0.0568 -0.1078
  520MOL0     C70124   9.488   5.913   3.615  0.4473 -0.3587  0.2304
  520MOL0     C70125   9.527   5.793   3.536  0.1018 -1.3886 -0.0082
  520MOL0     C70126   9.421   5.686   3.522  0.0753  0.4723 -0.7952
  520MOL0     C70127   9.417   5.599   3.655  0.0185  1.0099 -0.1123
  520MOL0     C70128   9.549   5.575   3.710 -0.8715 -0.2576  0.2989
  520MOL0     C70129   9.657   5.586   3.768  0.2338  0.9215 -0.2013
  520MOL0     C70130   9.695   6.205   3.710 -0.0630  0.0502 -0.0404
  520MOL0     C70131   9.725   6.282   3.821 -0.1503 -0.0425 -0.0739
  520MOL0     C70132   9.831   6.393   3.790 -0.5658 -0.2442 -0.1404
  520MOL0     H70133   9.498   6.611   4.109 -2.4672 -2.2237 -0.2446
  520MOL0     H70134   9.461   6.775   4.292 -0.4672  0.5089  1.5618
  520MOL0     H70135   9.664   6.855   4.590 -0.1292  1.1464  0.7371
  520MOL0     H70136   9.574   6.920   4.463  0.5709 -0.8818  0.1485
  520MOL0     H70137   9.551   7.008   4.725 -1.2951  0.9193  0.8984
  520MOL0     H70138   9.448   6.882   4.736  2.8296  0.4594  1.6250
  520MOL0     H70139   9.396   7.132   4.599 -0.1465 -0.3235  0.9072
  520MOL0     H70140   9.287   7.026   4.679 -0.0111  0.2418  0.1730
  520MOL0     H70141   9.368   6.944   4.411  0.4925 -0.2102  1.2618
  520MOL0     H70142   9.240   6.893   4.518  5.2959 -1.1402  3.1204
  520MOL0     H70143   9.173   7.146   4.518  1.8680 -1.8228  1.7305
  520MOL0     H70144   9.281   7.176   4.383 -2.0094  1.2463 -2.3232
  520MOL0     H70145   9.021   7.014   4.375 -3.1546  3.4093  0.8384
  520MOL0     H70146   9.038   7.174   4.318 -4.1852 -1.4510  2.0450
  520MOL0     H70147   9.239   7.064   4.161  1.8210 -1.9360  5.4627
  520MOL0     H70148   9.065   7.058   4.118 -0.6579 -1.4182 -0.1695
  520MOL0     H70149   9.213   6.843   4.241  1.0660  0.5480  0.7378
  520MOL0     H70150   9.038   6.847   4.205  0.4557 -2.6253 -1.8521
  520MOL0     H70151   9.365   6.863   4.000 -0.5780  0.4913  2.2532
  520MOL0     H70152   9.264   6.731   3.656 -1.6268  1.1109  1.2003
  520MOL0     H70153   9.399   6.816   3.743  1.3626  0.1128 -2.8161
  520MOL0     H70154   9.496   6.613   3.685  0.9956  0.4798 -0.1700
  520MOL0     H70155   9.461   6.601   3.852  0.3707 -1.7177 -0.3301
  520MOL0     H70156   9.222   6.475   3.749  0.7182  2.1281  2.6193
  520MOL0     H70157   9.366   6.396   3.806  0.7455 -1.4733 -2.4377
  520MOL0     H70158   9.455   6.428   3.571  0.3747 -1.0618  0.3964
  520MOL0     H70159   9.312   6.530   3.527 -1.5236 -1.6167 -0.8367
  520MOL0     H70160   9.459   6.212   3.397  0.4695 -0.1681 -1.7612
  520MOL0     H70161   9.415   6.134   3.178 -2.0066 -2.0595 -0.4777
  520MOL0     H70162   9.468   5.948   2.860  1.4758  0.6950  0.0289
  520MOL0     H70163   9.480   5.830   2.641 -0.6215 -0.3060 -0.2609
  520MOL0     H70164   9.153   5.768   2.389 -2.4617  1.6037 -0.8504
  520MOL0     H70165   9.206   5.940   2.327  0.5407 -0.1274 -0.9611
  520MOL0     H70166   9.347   5.844   2.166  0.7723 -0.3132  1.5364
  520MOL0     H70167   9.339   5.693   2.237 -2.6208 -0.8637  0.5747
  520MOL0     H70168   9.095   5.669   2.194  1.0148 -0.4398 -0.3961
  520MOL0     H70169   9.082   5.827   2.144  2.4839  1.4396  0.5591
  520MOL0     H70170   9.193   5.583   1.984 -1.7404 -1.4396 -2.8017
  520MOL0     H70171   9.255   5.735   1.933  0.6866 -0.8551 -0.7108
  520MOL0     H70172   9.079   5.677   1.801  1.1759  0.9238 -0.8679
  520MOL0     H70173   9.025   5.810   1.897 -0.1702 -0.6091 -3.3323
  520MOL0     H70174   8.972   5.521   1.963  0.5430 -0.8200 -1.6113
  520MOL0     H70175   8.894   5.658   2.044  0.6163 -0.0657 -0.0699
  520MOL0     H70176   8.854   5.576   1.753  1.4734 -2.0241  1.8145
  520MOL0     H70177   8.796   5.731   1.830 -1.7868  0.0821  1.5545
  520MOL0     H70178   8.677   5.609   2.006 -0.5359 -2.1353  1.6653
  520MOL0     H70179   8.607   5.574   1.849  1.0059  0.2528 -0.1757
  520MOL0     H70180   9.118   6.017   2.524 -0.7447  1.8245  0.8550
  520MOL0     H70181   9.113   6.137   2.734 -1.0400 -2.0822  2.7487
  520MOL0     H70182   9.017   6.291   3.197 -0.2878 -0.0890  0.9624
  520MOL0     H70183   9.061   6.375   3.417 -1.0622 -0.2663 -0.3761
  520MOL0     H70184   9.537   6.469   4.583  2.3158 -0.2129  0.1336
  520MOL0     H70185   9.563   6.302   4.397  2.0711 -0.1014 -1.7755
  520MOL0     H70186   9.442   6.208   4.011  0.7257  3.3336  1.5310
  520MOL0     H70187   9.402   6.070   3.824  0.0721  1.7555  0.4422
  520MOL0     H70188   9.386   5.940   3.585  1.7553  2.8067 -1.9204
  520MOL0     H70189   9.500   5.877   3.718  0.6045 -0.0097  0.3354
  520MOL0     H70190   9.623   5.744   3.552  0.9407  0.0047 -0.5926
  520MOL0     H70191   9.544   5.828   3.433  1.1083  1.5109  1.0379
  520MOL0     H70192   9.442   5.613   3.443 -2.9055  0.9977 -2.2238
  520MOL0     H70193   9.317   5.716   3.503 -0.2533 -2.3173 -4.6736
  520MOL0     H70194   9.357   5.662   3.721  0.4604  3.3445 -1.7883
  520MOL0     H70195   9.369   5.503   3.638  0.3331  1.1784 -2.2333
  520MOL0     H70196   9.751   5.597   3.817 -0.6099  1.9617  1.2634
  520MOL0     H70197   9.763   6.203   3.625  1.3092 -0.7347  1.0277
  520MOL0     H70198   9.781   6.490   3.799  1.8182  0.9544  1.6994
  520MOL0     H70199   9.912   6.373   3.862 -1.1413  0.6435  0.7931
  520MOL0     H70200   9.865   6.386   3.687  2.8534  0.7571  0.7592
  521MOL0     O70201   7.887   8.438   2.690  0.5735 -0.4669  0.0578
  521MOL0     C70202   7.899   8.507   2.591 -0.4251 -0.0759 -0.4760
  521MOL0     O70203   7.805   8.543   2.504 -0.3326  0.9069  0.4582
  521MOL0     C70204   7.668   8.514   2.517 -0.0605 -0.5206  0.3318
  521MOL0     C70205   7.596   8.515   2.395 -0.2807  0.6435 -0.0251
  521MOL0     C70206   7.458   8.491   2.399 -1.0611 -0.0987 -0.3465
  521MOL0     C70207   7.390   8.457   2.515 -0.3507 -0.2721  0.1871
  521MOL0     O70208   7.268   8.416   2.519  0.4670  0.2127 -0.4200
  521MOL0     C70209   7.178   8.530   2.553  0.1295  0.0844 -1.2090
  521MOL0     C70210   7.035   8.469   2.574  1.0269  0.7440 -0.1644
  521MOL0     C70211   6.986   8.419   2.431  0.1807 -0.2128  1.7975
  521MOL0     C70212   6.938   8.543   2.344  0.0521  0.0329  0.9336
  521MOL0     C70213   6.886   8.514   2.209 -0.1408 -0.3389  1.1161
  521MOL0     C70214   6.986   8.462   2.103  0.5120  0.5130 -0.3430
  521MOL0     C70215   6.935   8.449   1.956  0.1303  0.6549  0.3384
  521MOL0     C70216   6.945   8.591   1.899 -0.7323  0.2466  0.5121
  521MOL0     N70217   6.928   8.597   1.751 -0.4030  0.3069 -0.1591
  521MOL0     C70218   6.923   8.706   1.680 -1.3132 -0.0123  0.0936
  521MOL0     C70219   6.888   8.659   1.556  0.5992  0.9275  0.7734
  521MOL0     C70220   6.869   8.750   1.438 -0.2043 -0.4131  0.0013
  521MOL0     C70221   6.735   8.738   1.376  0.1629 -0.1705 -0.7322
  521MOL0     C70222   6.716   8.863   1.293  1.2340 -0.0717  0.5488
  521MOL0     C70223   6.591   8.858   1.200  1.3680  0.3413  0.2456
  521MOL0     O70224   6.560   8.994   1.160 -0.5757  0.0369 -0.0952
  521MOL0     C70225   6.466   9.005   1.064  0.0990  1.4127  0.5217
  521MOL0     C70226   6.382   9.105   1.093  0.1660 -0.8450 -0.0576
  521MOL0     C70227   6.282   9.149   1.005 -0.1518  0.3057  1.0565
  521MOL0     C70228   6.262   9.084   0.888 -0.5421 -0.4863  0.5937
  521MOL0     C70229   6.150   9.126   0.790 -0.4863  0.1964 -0.3203
  521MOL0     O70230   6.112   9.266   0.795 -0.2194  0.4932  1.0948
  521MOL0     C70231   6.018   9.323   0.704  0.3465 -0.0747  0.4716
  521MOL0     C70232   5.920   9.406   0.749  0.2494  0.3683 -0.2890
  521MOL0     C70233   5.846   9.484   0.664 -0.3337 -0.0297 -0.0168
  521MOL0     C70234   5.845   9.458   0.525  0.8093 -1.4944  0.1338
  521MOL0     O70235   5.754   9.519   0.439 -0.2989  0.5069 -0.7047
  521MOL0     C70236   5.809   9.589   0.322 -0.3285  0.9110  0.0353
  521MOL0     C70237   5.770   9.518   0.188  0.7302 -0.1620  0.9303
  521MOL0     C70238   5.813   9.598   0.059  0.6905  0.1327  0.6152
  521MOL0     C70239   5.721   9.714   0.022 -0.4818  1.1634  0.8005
  521MOL0     C70240   5.683   9.752  -0.127 -0.5534 -0.9596  1.0943
  521MOL0     C70241   5.601   9.644  -0.200 -0.2172  0.8881 -0.7218
  521MOL0     C70242   5.469   9.611  -0.123 -0.5406 -0.5897 -0.9693
  521MOL0     C70243   5.363   9.537  -0.221  0.4369  0.5565  0.1671
  521MOL0    Cl70244   5.314   9.627  -0.367 -0.0555  0.0370  0.1733
  521MOL0     C70245   5.930   9.362   0.480  0.3302  0.3966  0.7895
  521MOL0     C70246   6.014   9.297   0.568  0.0018  1.1632  0.4891
  521MOL0     O70247   6.110   9.043   0.706 -0.4414 -0.3936 -0.3337
  521MOL0     C70248   6.350   8.979   0.852 -0.2664  0.6990 -0.4018
  521MOL0     C70249   6.455   8.939   0.940 -0.3894 -0.3057 -1.1086
  521MOL0     N70250   6.873   8.524   1.550  0.2320  0.3013 -0.2999
  521MOL0     N70251   6.889   8.491   1.674 -0.4435  0.2735  1.4602
  521MOL0     C70252   7.454   8.471   2.635  0.1461 -0.3405  0.1596
  521MOL0     C70253   7.591   8.502   2.638  1.2703 -0.3957  0.0638
  521MOL0     C70254   8.026   8.587   2.569  0.3328  1.0411  0.0237
  521MOL0     C70255   8.020   8.698   2.486  0.1278 -0.8517 -0.1937
  521MOL0     C70256   8.128   8.786   2.476 -0.1374  0.3864  0.1784
  521MOL0     C70257   8.245   8.789   2.556  0.0343  0.6951  0.4580
  521MOL0     O70258   8.334   8.893   2.562  0.4937 -0.1348  1.0925
  521MOL0     C70259   8.457   8.875   2.629 -0.4072  0.3958  0.3205
  521MOL0     C70260   8.525   9.008   2.611  0.8038 -0.9083 -0.4929
  521MOL0     C70261   8.655   9.017   2.688  0.7813  0.0020 -0.2586
  521MOL0     C70262   8.708   9.158   2.719  0.4492  0.0151 -0.7262
  521MOL0     C70263   8.636   9.211   2.843  0.0432 -0.3131  0.9380
  521MOL0     C70264   8.586   9.249   2.947 -0.6231  0.5122  0.4857
  521MOL0     C70265   8.250   8.670   2.638  0.0854  0.0754  0.4822
  521MOL0     C70266   8.139   8.571   2.643  0.0633  0.0266  0.2024
  521MOL0     C70267   8.166   8.448   2.731 -0.2676 -0.0058 -0.4746
  521MOL0     H70268   7.642   8.549   2.303 -0.8809 -2.0077 -1.4245
  521MOL0     H70269   7.403   8.482   2.306  1.1408 -0.9400 -1.6559
  521MOL0     H70270   7.206   8.564   2.653  0.8404 -0.0433 -1.3519
  521MOL0     H70271   7.174   8.607   2.476 -1.6597  0.5173 -0.7212
  521MOL0     H70272   6.963   8.542   2.613  0.0944 -0.5808  0.6447
  521MOL0     H70273   7.027   8.385   2.642 -1.1437  1.8137  1.0329
  521MOL0     H70274   6.908   8.342   2.427 -0.8821  0.8901 -0.0735
  521MOL0     H70275   7.070   8.375   2.376 -1.6396  1.0692 -2.4285
  521MOL0     H70276   6.853   8.587   2.398 -1.9271 -3.3955  0.9594
  521MOL0     H70277   7.020   8.614   2.354 -0.6532  0.8843  0.8577
  521MOL0     H70278   6.801   8.445   2.214  1.9089 -3.1582 -0.1768
  521MOL0     H70279   6.862   8.611   2.165  1.8737  0.3732  1.4548
  521MOL0     H70280   7.080   8.518   2.104  0.4579  0.6067  0.6765
  521MOL0     H70281   6.993   8.357   2.133  0.9066  0.6151 -0.0733
  521MOL0     H70282   6.828   8.427   1.949  0.2157 -0.0080  0.9735
  521MOL0     H70283   7.004   8.383   1.903  0.9222  2.3522 -0.8049
  521MOL0     H70284   6.877   8.657   1.953 -0.3269  0.0703  1.2535
  521MOL0     H70285   7.041   8.636   1.926  0.1943 -1.8197  0.8211
  521MOL0     H70286   6.940   8.808   1.712  1.6173  0.6637 -3.0560
  521MOL0     H70287   6.887   8.848   1.483  0.9605 -1.3614  1.7388
  521MOL0     H70288   6.950   8.734   1.367 -1.7009  1.8562 -2.4245
  521MOL0     H70289   6.727   8.650   1.311 -2.8931  0.6953 -1.7038
  521MOL0     H70290   6.657   8.729   1.453  0.6697 -0.8218 -0.2858
  521MOL0     H70291   6.799   8.874   1.222 -0.3943 -0.3738 -1.5052
  521MOL0     H70292   6.701   8.953   1.352  0.3358  0.3658 -0.3207
  521MOL0     H70293   6.507   8.828   1.264 -0.3163  0.0589 -1.9757
  521MOL0     H70294   6.602   8.789   1.116  0.7455  2.1305 -1.3630
  521MOL0     H70295   6.412   9.159   1.182  1.1503  2.4298 -2.1790
  521MOL0     H70296   6.231   9.244   1.019  1.5978  1.2914  0.9831
  521MOL0     H70297   5.896   9.437   0.850 -2.9037 -0.1245 -0.7741
  521MOL0     H70298   5.781   9.555   0.713  0.8132  0.7639  0.4064
  521MOL0     H70299   5.766   9.688   0.341  1.3819  1.4230  1.4817
  521MOL0     H70300   5.918   9.599   0.326 -0.2087  0.4897 -1.4823
  521MOL0     H70301   5.827   9.425   0.196  0.3038 -0.3983  1.3299
  521MOL0     H70302   5.662   9.496   0.193  0.7359  0.1004  2.8671
  521MOL0     H70303   5.914   9.641   0.065  2.0357 -2.8189  0.9623
  521MOL0     H70304   5.824   9.521  -0.017  2.5126  1.9221 -1.0678
  521MOL0     H70305   5.766   9.805   0.064  0.3402  0.7320  0.8770
  521MOL0     H70306   5.625   9.703   0.073 -0.5907  2.3093  0.8880
  521MOL0     H70307   5.775   9.777  -0.181 -0.5582 -0.6283  1.2417
  521MOL0     H70308   5.634   9.849  -0.117 -0.2438 -0.9740  3.0434
  521MOL0     H70309   5.584   9.667  -0.305  2.8578  1.1745 -1.2510
  521MOL0     H70310   5.652   9.547  -0.206 -1.0841  0.5089 -2.7738
  521MOL0     H70311   5.422   9.708  -0.106 -0.3963 -0.3527 -1.8996
  521MOL0     H70312   5.495   9.559  -0.030 -0.9036  1.6186  0.4248
  521MOL0     H70313   5.410   9.442  -0.247 -1.2608 -1.0671  2.5729
  521MOL0     H70314   5.276   9.517  -0.158  1.4706 -0.1150  1.4187
  521MOL0     H70315   5.931   9.330   0.376  2.0373 -1.0910  1.2019
  521MOL0     H70316   6.083   9.218   0.537  0.6262  0.5962  3.0915
  521MOL0     H70317   6.350   8.939   0.751  2.5604 -0.2093 -0.1261
  521MOL0     H70318   6.520   8.857   0.911  1.3827  0.1323  1.3204
  521MOL0     H70319   7.407   8.459   2.732  0.7757  2.1297  0.8583
  521MOL0     H70320   7.634   8.521   2.736  3.8030  0.7691 -1.1641
  521MOL0     H70321   7.928   8.729   2.438  0.5872  0.9527  0.0331
  521MOL0     H70322   8.129   8.872   2.410  0.8219  0.9221  0.8623
  521MOL0     H70323   8.519   8.793   2.593 -1.8405 -0.6828  0.2675
  521MOL0     H70324   8.437   8.859   2.736  2.7833  0.1024  0.9777
  521MOL0     H70325   8.459   9.090   2.643  2.6146  0.1927  0.6602
  521MOL0     H70326   8.544   9.018   2.504 -1.1189 -0.7185 -0.8467
  521MOL0     H70327   8.738   8.974   2.631 -0.3137 -0.2279 -1.7570
  521MOL0     H70328   8.646   8.952   2.775 -4.8803 -1.4962 -1.6082
  521MOL0     H70329   8.808   9.142   2.759  0.8763  0.6279 -1.5159
  521MOL0     H70330   8.714   9.232   2.639 -2.5045 -0.3604 -1.4280
  521MOL0     H70331   8.554   9.285   3.042  2.5189 -0.7449  2.1720
  521MOL0     H70332   8.335   8.655   2.705 -0.5914 -2.6209  0.8713
  521MOL0     H70333   8.134   8.360   2.674 -1.2689  1.4174 -2.2354
  521MOL0     H70334   8.269   8.447   2.767 -1.1144  2.4563  2.3695
  521MOL0     H70335   8.097   8.461   2.815  2.5932  0.1843  2.0046
  522MOL0     O70336   4.556   3.518   6.097 -0.5721  0.3023  0.8645
  522MOL0     C70337   4.565   3.417   6.024 -0.0378  0.3131  0.8167
  522MOL0     O70338   4.466   3.378   5.930  0.2188 -0.1779 -0.0513
  522MOL0     C70339   4.341   3.427   5.938  0.1488  0.2314  0.5676
  522MOL0     C70340   4.306   3.522   5.846 -0.0572 -0.4345  0.5704
  522MOL0     C70341   4.172   3.564   5.843 -0.3176  0.2039  0.4004
  522MOL0     C70342   4.089   3.546   5.947 -0.3437  1.2990 -0.0969
  522MOL0     O70343   3.954   3.590   5.934  0.6899 -0.4429 -0.0623
  522MOL0     C70344   3.878   3.603   6.058 -0.3826  0.6773 -0.7038
  522MOL0     C70345   3.777   3.716   6.052 -0.4083 -0.1862 -0.8118
  522MOL0     C70346   3.687   3.717   5.934 -0.6029 -0.3223  1.2945
  522MOL0     C70347   3.574   3.823   5.946  0.1593  0.4433 -0.0041
  522MOL0     C70348   3.513   3.878   5.815  0.0174  0.6159  0.0031
  522MOL0     C70349   3.401   3.989   5.826 -0.7458 -0.0014 -0.3367
  522MOL0     C70350   3.279   3.962   5.909  0.2966 -1.0010 -0.3336
  522MOL0     C70351   3.178   3.866   5.861  0.5175 -0.2283 -0.4502
  522MOL0     N70352   3.058   3.870   5.949 -1.0479  0.1313  0.4408
  522MOL0     C70353   2.928   3.881   5.906  0.4616 -0.0970  0.5683
  522MOL0     C70354   2.861   3.901   6.022  1.2241 -0.8005  0.3981
  522MOL0     C70355   2.726   3.948   6.052  0.5645  0.3386 -0.3815
  522MOL0     C70356   2.625   3.840   6.066 -0.1136  0.1660  0.1995
  522MOL0     C70357   2.628   3.777   6.201 -0.1237  1.2786 -0.7723
  522MOL0     C70358   2.524   3.656   6.224  0.9084  0.5403 -0.7676
  522MOL0     O70359   2.497   3.565   6.118  0.0795 -0.3571  0.8599
  522MOL0     C70360   2.602   3.500   6.060 -1.3295  0.3686  0.2955
  522MOL0     C70361   2.714   3.466   6.140  0.2183 -0.4367 -0.2462
  522MOL0     C70362   2.826   3.395   6.088  0.1292 -0.1689  1.0834
  522MOL0     C70363   2.839   3.361   5.948  0.4233 -0.1620 -0.6225
  522MOL0     C70364   2.963   3.291   5.900  0.7840  0.1360  0.3268
  522MOL0     O70365   3.063   3.298   5.991  0.0835 -0.4857 -0.5156
  522MOL0     C70366   3.153   3.197   5.983  0.2874  0.4236  0.2658
  522MOL0     C70367   3.284   3.218   5.938 -1.8868 -0.2800 -0.5414
  522MOL0     C70368   3.374   3.111   5.930 -0.4999 -0.6450  0.4046
  522MOL0     C70369   3.327   2.993   5.966  0.2045  0.6940 -0.8796
  522MOL0     O70370   3.418   2.894   5.975 -0.0930 -0.3481  0.5971
  522MOL0     C70371   3.479   2.858   5.849  0.9703  0.0239  0.1180
  522MOL0     C70372   3.560   2.734   5.888 -0.1570 -0.4440 -0.4226
  522MOL0     C70373   3.639   2.690   5.768 -0.2418 -0.0376  0.4917
  522MOL0     C70374   3.738   2.582   5.814  0.3027 -0.1775 -0.3422
  522MOL0     C70375   3.841   2.539   5.707  0.4857 -0.1592 -0.1458
  522MOL0     C70376   3.761   2.478   5.587 -0.9411 -0.0112  0.1061
  522MOL0     C70377   3.865   2.393   5.502 -0.1237  0.2584  0.4914
  522MOL0     C70378   3.811   2.320   5.377  0.1018 -0.0674  0.6096
  522MOL0    Cl70379   3.940   2.273   5.271  0.1248 -0.3533 -0.2272
  522MOL0     C70380   3.194   2.962   6.002 -0.5303 -0.3490  0.0282
  522MOL0     C70381   3.104   3.069   6.010 -0.8067 -0.2304  0.9206
  522MOL0     O70382   2.958   3.233   5.789  0.2740 -0.0606  0.0370
  522MOL0     C70383   2.725   3.405   5.867  0.1186  1.1627  0.5886
  522MOL0     C70384   2.617   3.467   5.923  0.2905  0.6463 -0.4570
  522MOL0     N70385   2.952   3.887   6.125  0.8480 -0.2290  0.7648
  522MOL0     N70386   3.069   3.863   6.084 -0.2242  0.5489  1.1577
  522MOL0     C70387   4.125   3.444   6.036  0.2054  0.2222 -0.3714
  522MOL0     C70388   4.252   3.379   6.035  0.2743  1.0431  0.5655
  522MOL0     C70389   4.692   3.333   6.026  0.2800  1.2051 -0.2750
  522MOL0     C70390   4.676   3.203   5.977 -0.6308 -0.1693  0.1018
  522MOL0     C70391   4.772   3.110   5.990 -0.7449 -0.1192  0.1241
  522MOL0     C70392   4.896   3.136   6.049  0.1676 -0.1201  0.1199
  522MOL0     O70393   5.008   3.062   6.051  0.2542  0.5495 -0.0116
  522MOL0     C70394   5.008   2.912   6.049 -0.0399 -0.4316 -0.6000
  522MOL0     C70395   4.984   2.858   6.193  0.6008 -0.1824  0.9271
  522MOL0     C70396   5.090   2.892   6.294 -0.0222  0.1246 -0.5561
  522MOL0     C70397   5.136   3.037   6.296  0.2947  0.2144 -0.9198
  522MOL0     C70398   5.218   3.072   6.417  0.3273  0.1866  1.0041
  522MOL0     C70399   5.277   3.099   6.517 -0.7390  0.1096 -0.4459
  522MOL0     C70400   4.913   3.264   6.090 -0.9762 -0.4335 -1.0944
  522MOL0     C70401   4.812   3.364   6.086  1.2655  0.6968  0.1624
  522MOL0     C70402   4.860   3.503   6.118 -0.0387 -0.1692 -0.2646
  522MOL0     H70403   4.375   3.566   5.775 -0.1438  0.4317  1.0124
  522MOL0     H70404   4.139   3.622   5.757 -1.9411  0.3282  1.0781
  522MOL0     H70405   3.818   3.513   6.073 -1.5793  1.5195 -0.3509
  522MOL0     H70406   3.933   3.615   6.152 -0.5752  0.6878 -0.5939
  522MOL0     H70407   3.848   3.799   6.043 -0.8262  0.0179 -2.6007
  522MOL0     H70408   3.724   3.734   6.146 -1.0076  1.3239 -1.4126
  522MOL0     H70409   3.658   3.612   5.921  3.0409 -1.1492 -2.3596
  522MOL0     H70410   3.749   3.735   5.846 -0.4717 -3.0260  0.7560
  522MOL0     H70411   3.495   3.781   6.008  1.5633 -1.4862  0.5976
  522MOL0     H70412   3.616   3.902   6.009  1.5332 -0.9916  0.9689
  522MOL0     H70413   3.595   3.919   5.757  1.6383  0.3214  1.9902
  522MOL0     H70414   3.476   3.786   5.768 -0.3068 -1.1993  3.4921
  522MOL0     H70415   3.448   4.075   5.874 -0.6646 -1.1686  1.7822
  522MOL0     H70416   3.368   3.998   5.722  0.1685 -1.6951 -0.8069
  522MOL0     H70417   3.237   4.058   5.939 -2.4906 -2.3199  0.3299
  522MOL0     H70418   3.313   3.911   6.000 -0.3219 -0.3106  0.2944
  522MOL0     H70419   3.152   3.900   5.760  3.5521  5.5452  0.3266
  522MOL0     H70420   3.220   3.765   5.855 -0.1317 -0.4960 -0.5786
  522MOL0     H70421   2.897   3.877   5.802  0.2728 -0.8808  0.6450
  522MOL0     H70422   2.731   4.006   6.145  0.9195  2.1568 -1.4838
  522MOL0     H70423   2.700   4.025   5.979  0.7533 -1.1034 -2.0618
  522MOL0     H70424   2.528   3.891   6.059 -0.7469 -0.5255  3.0517
  522MOL0     H70425   2.639   3.771   5.982  1.3372  1.5994 -0.8024
  522MOL0     H70426   2.608   3.858   6.272  2.8096  0.4790  1.1618
  522MOL0     H70427   2.723   3.727   6.224 -1.9187 -2.2517 -0.3844
  522MOL0     H70428   2.426   3.702   6.237  0.1335 -0.8852 -1.3079
  522MOL0     H70429   2.530   3.590   6.311 -1.3699 -1.0568 -1.6987
  522MOL0     H70430   2.728   3.496   6.243  0.7286 -0.9307 -0.1720
  522MOL0     H70431   2.902   3.378   6.164 -0.3589  1.8369  2.0686
  522MOL0     H70432   3.323   3.319   5.932  0.6938 -0.9626  2.1389
  522MOL0     H70433   3.474   3.138   5.897 -1.3938 -0.7446 -2.6897
  522MOL0     H70434   3.402   2.836   5.775 -1.9269 -1.7562  3.3507
  522MOL0     H70435   3.542   2.937   5.807 -2.1421  1.7485 -1.6532
  522MOL0     H70436   3.635   2.749   5.967 -1.5069 -1.9670  1.2436
  522MOL0     H70437   3.491   2.653   5.913  2.6848 -2.6982  0.7346
  522MOL0     H70438   3.579   2.655   5.684  1.6424  1.5236 -1.6352
  522MOL0     H70439   3.694   2.779   5.735 -1.4030  1.8827  3.2790
  522MOL0     H70440   3.679   2.497   5.850 -0.6240 -0.2906 -2.0046
  522MOL0     H70441   3.794   2.636   5.890  0.8205  3.9677 -3.3299
  522MOL0     H70442   3.908   2.473   5.763  0.8947  0.2878 -0.0912
  522MOL0     H70443   3.902   2.621   5.667 -1.8266  0.6748 -2.1762
  522MOL0     H70444   3.686   2.419   5.640 -0.3529  0.8211  1.9681
  522MOL0     H70445   3.705   2.541   5.518  0.6901  0.8463 -0.4871
  522MOL0     H70446   3.908   2.320   5.571  0.7094 -0.5340 -0.8199
  522MOL0     H70447   3.948   2.453   5.464  2.3155 -3.0336  0.1258
  522MOL0     H70448   3.755   2.235   5.417 -1.7166  1.4406  1.4515
  522MOL0     H70449   3.750   2.388   5.316  2.0464 -0.0762 -1.4942
  522MOL0     H70450   3.175   2.861   6.036 -1.1822  1.0198  4.2226
  522MOL0     H70451   3.003   3.046   6.040 -1.1810  0.6471  0.3650
  522MOL0     H70452   2.716   3.381   5.761 -3.4851  0.7168  0.8881
  522MOL0     H70453   2.530   3.480   5.860 -0.7273  1.4073  1.0281
  522MOL0     H70454   4.059   3.417   6.118  1.0595 -2.7927 -0.5603
  522MOL0     H70455   4.289   3.308   6.109  2.6666  0.5822 -0.9452
  522MOL0     H70456   4.583   3.177   5.927 -0.1858  3.0544 -2.8483
  522MOL0     H70457   4.746   3.013   5.949 -0.4143 -0.5537  0.9232
  522MOL0     H70458   5.107   2.874   6.020  0.0567 -0.2318 -0.5326
  522MOL0     H70459   4.934   2.883   5.974 -1.5385 -0.3926  0.8046
  522MOL0     H70460   4.986   2.750   6.178  0.8159 -0.1183  0.4795
  522MOL0     H70461   4.884   2.890   6.224  0.3937  0.2300 -0.1205
  522MOL0     H70462   5.170   2.821   6.276 -0.1294 -0.3299  0.6793
  522MOL0     H70463   5.038   2.874   6.388  0.0082 -0.5051 -0.6582
  522MOL0     H70464   5.189   3.050   6.201 -1.4933 -1.8026 -2.2782
  522MOL0     H70465   5.050   3.104   6.296  0.8675  1.0712  1.3643
  522MOL0     H70466   5.343   3.125   6.597  1.3301 -3.1638 -0.8760
  522MOL0     H70467   5.006   3.295   6.136 -1.4518 -4.2639  3.0514
  522MOL0     H70468   4.913   3.541   6.031  1.1208 -0.4770  0.2806
  522MOL0     H70469   4.781   3.569   6.156 -0.4766 -1.9889  2.2391
  522MOL0     H70470   4.929   3.498   6.204  1.2873  2.0327 -1.1245
  523MOL0     O70471   1.508   1.794   8.106  0.3755 -0.5670 -0.0781
  523MOL0     C70472   1.544   1.785   7.991 -0.6544  0.5692  0.0491
  523MOL0     O70473   1.671   1.808   7.953  0.0411 -0.0106  0.1755
  523MOL0     C70474   1.765   1.846   8.055 -1.1494 -0.5481  0.0335
  523MOL0     C70475   1.860   1.951   8.005  1.6472  1.0269  0.0774
  523MOL0     C70476   1.956   2.012   8.082 -1.5000  0.6453  1.1382
  523MOL0     C70477   1.971   1.973   8.214  0.3332  0.9811 -0.1507
  523MOL0     O70478   2.065   2.009   8.301  0.5208  0.5101 -0.0023
  523MOL0     C70479   2.196   2.033   8.252 -0.5518  0.3324  0.1870
  523MOL0     C70480   2.281   2.031   8.375  0.6765  0.2514 -0.7223
  523MOL0     C70481   2.435   2.051   8.352  0.0161 -0.3970  1.1215
  523MOL0     C70482   2.523   2.016   8.472  0.0749  0.1132 -0.1037
  523MOL0     C70483   2.673   2.044   8.425  0.2274  0.1589 -0.4786
  523MOL0     C70484   2.778   1.984   8.521  0.3499 -0.8184 -0.8777
  523MOL0     C70485   2.759   2.020   8.672 -0.2295 -0.6418 -0.0005
  523MOL0     C70486   2.727   2.166   8.714 -0.1588  0.1668  0.1207
  523MOL0     N70487   2.820   2.271   8.655  0.9678 -0.3007 -0.5450
  523MOL0     C70488   2.951   2.277   8.690  0.4431  1.1273  0.4211
  523MOL0     C70489   2.995   2.389   8.626 -0.7710 -0.3613 -0.3899
  523MOL0     C70490   3.132   2.460   8.645  0.5801  0.1611  0.7371
  523MOL0     C70491   3.136   2.600   8.705 -0.0789  0.1016 -0.8325
  523MOL0     C70492   3.040   2.700   8.646  0.6502  0.8844 -0.3214
  523MOL0     C70493   3.070   2.844   8.690 -0.4355  1.0347  1.0002
  523MOL0     O70494   3.032   2.852   8.821  0.5687  0.6627 -0.1857
  523MOL0     C70495   3.114   2.903   8.916 -1.3781  0.4178 -0.2087
  523MOL0     C70496   3.057   2.965   9.029  0.2167 -1.1555  0.8154
  523MOL0     C70497   3.135   3.016   9.134 -1.2258 -0.2683  0.0654
  523MOL0     C70498   3.279   2.996   9.131  0.9389 -0.7765 -0.9266
  523MOL0     C70499   3.371   3.070   9.231  0.2744 -0.2215  0.7839
  523MOL0     O70500   3.320   3.163   9.307  0.5248 -0.1711  0.0232
  523MOL0     C70501   3.401   3.247   9.375 -0.0002  0.6439 -0.7546
  523MOL0     C70502   3.509   3.314   9.330  0.0013  0.1601  0.4787
  523MOL0     C70503   3.581   3.403   9.417  0.4288  0.0799 -0.4844
  523MOL0     C70504   3.527   3.443   9.544  0.2723  0.9056  0.6224
  523MOL0     O70505   3.572   3.546   9.624  0.6445  0.8166 -0.0865
  523MOL0     C70506   3.678   3.626   9.573 -0.1349 -0.3791 -0.3902
  523MOL0     C70507   3.681   3.761   9.651  0.1198 -0.0476  0.0178
  523MOL0     C70508   3.829   3.810   9.626 -0.5152 -0.1435  0.4406
  523MOL0     C70509   3.829   3.902   9.496  0.3996  0.0584  0.5114
  523MOL0     C70510   3.959   3.988   9.485 -0.2347 -0.7747 -0.4850
  523MOL0     C70511   4.057   3.903   9.406  0.3423  0.1239 -0.4776
  523MOL0     C70512   4.171   3.992   9.348  0.2605 -0.6168 -0.1847
  523MOL0     C70513   4.269   3.915   9.264  0.8641 -0.6959 -0.6325
  523MOL0    Cl70514   4.404   4.013   9.180 -0.0116  0.0772 -0.3016
  523MOL0     C70515   3.413   3.373   9.581 -0.8374 -0.3687  0.1060
  523MOL0     C70516   3.351   3.285   9.492 -0.1419 -0.8632 -0.7717
  523MOL0     O70517   3.488   3.041   9.233  0.0428 -1.0415  0.3290
  523MOL0     C70518   3.332   2.921   9.024 -0.4921 -0.0978  0.3952
  523MOL0     C70519   3.252   2.875   8.916 -0.6689 -0.4606 -1.0758
  523MOL0     N70520   2.897   2.432   8.543  1.1844  0.2130  0.3696
  523MOL0     N70521   2.784   2.375   8.582  0.0397 -0.9320 -0.2454
  523MOL0     C70522   1.881   1.871   8.264  0.6100 -0.0319  0.3145
  523MOL0     C70523   1.782   1.807   8.185 -0.5127  0.4508 -0.6336
  523MOL0     C70524   1.442   1.744   7.897 -1.0166  0.2611 -0.3051
  523MOL0     C70525   1.318   1.802   7.922 -0.6981 -0.7982  0.6689
  523MOL0     C70526   1.209   1.790   7.836 -0.6251  0.1282 -0.4826
  523MOL0     C70527   1.216   1.708   7.725 -0.2872  0.4401 -0.6635
  523MOL0     O70528   1.103   1.701   7.648  0.1461  0.0716 -0.3664
  523MOL0     C70529   1.112   1.769   7.523  0.3674  0.2800  0.2926
  523MOL0     C70530   0.984   1.742   7.448  0.1892  0.2059 -0.6208
  523MOL0     C70531   0.987   1.795   7.305  0.0350 -0.4284 -0.1782
  523MOL0     C70532   0.992   1.947   7.285 -0.2294 -0.2482  0.7636
  523MOL0     C70533   0.874   1.997   7.354  0.0502 -0.6222  0.3606
  523MOL0     C70534   0.774   2.038   7.401 -0.0871 -1.2113 -0.4287
  523MOL0     C70535   1.337   1.639   7.708  0.1116 -0.3384  0.6530
  523MOL0     C70536   1.450   1.655   7.788  0.0253 -0.1649  0.1457
  523MOL0     C70537   1.560   1.552   7.763 -0.2412 -1.0022  0.1474
  523MOL0     H70538   1.844   1.975   7.901  1.2885  0.1995 -0.0637
  523MOL0     H70539   2.023   2.085   8.037  0.6770 -2.4611 -1.1305
  523MOL0     H70540   2.229   1.950   8.189 -0.9983  1.6583 -1.8662
  523MOL0     H70541   2.211   2.117   8.184  2.0072 -0.3180 -0.1416
  523MOL0     H70542   2.263   1.943   8.438  1.3681  2.3422  2.6426
  523MOL0     H70543   2.229   2.100   8.442 -1.7475 -1.5097 -0.6246
  523MOL0     H70544   2.463   2.144   8.301  1.2403 -1.2165  0.2376
  523MOL0     H70545   2.469   1.979   8.277  1.7170  2.4868 -1.0757
  523MOL0     H70546   2.502   2.080   8.558 -2.4108  0.6678 -1.0274
  523MOL0     H70547   2.514   1.912   8.503  0.1787 -0.1377 -0.8828
  523MOL0     H70548   2.696   2.003   8.326 -1.7583  3.4482 -2.5058
  523MOL0     H70549   2.689   2.152   8.418  2.4606 -0.1381 -0.7359
  523MOL0     H70550   2.770   1.875   8.526 -0.9994 -0.7153  3.5680
  523MOL0     H70551   2.876   2.013   8.483 -0.8553  4.1702 -0.9789
  523MOL0     H70552   2.857   1.999   8.717  2.3353 -1.6509 -5.2917
  523MOL0     H70553   2.683   1.953   8.713 -1.3077  1.5799  1.8672
  523MOL0     H70554   2.633   2.203   8.672  0.8158  0.8082 -1.6019
  523MOL0     H70555   2.716   2.169   8.823  0.7856 -0.1258  0.2374
  523MOL0     H70556   3.003   2.226   8.771  1.2414  0.6741 -0.3523
  523MOL0     H70557   3.189   2.399   8.715  1.0847  0.8699  0.9524
  523MOL0     H70558   3.186   2.470   8.551 -0.6742  0.5520  0.0402
  523MOL0     H70559   3.107   2.580   8.808 -1.8069 -1.0607 -1.5057
  523MOL0     H70560   3.236   2.639   8.684 -0.9538  1.3606 -3.0532
  523MOL0     H70561   2.937   2.671   8.673  1.3581 -0.4451  1.1115
  523MOL0     H70562   3.047   2.685   8.538 -1.8304 -2.2961 -0.1844
  523MOL0     H70563   3.011   2.907   8.623 -1.0580 -0.0761  0.4766
  523MOL0     H70564   3.171   2.881   8.675 -0.6705  1.2873 -0.0583
  523MOL0     H70565   2.949   2.965   9.038  0.1992  0.5596  0.8712
  523MOL0     H70566   3.075   3.068   9.208  1.4472 -0.3967  2.4604
  523MOL0     H70567   3.553   3.285   9.235 -2.2648 -1.1096 -0.2712
  523MOL0     H70568   3.675   3.446   9.384 -0.1566  3.2673  1.5172
  523MOL0     H70569   3.776   3.578   9.585  2.0100  3.5749 -0.3362
  523MOL0     H70570   3.663   3.647   9.467 -1.2145  1.9207  0.1603
  523MOL0     H70571   3.598   3.827   9.621 -0.4855 -1.5526 -1.7771
  523MOL0     H70572   3.676   3.734   9.757 -1.7213 -0.0740 -0.0381
  523MOL0     H70573   3.861   3.877   9.707  2.5544 -0.8276 -0.0872
  523MOL0     H70574   3.905   3.732   9.628 -1.5840 -1.2191  0.0703
  523MOL0     H70575   3.744   3.970   9.496 -1.0924 -1.5351 -3.2390
  523MOL0     H70576   3.795   3.842   9.411 -1.1048 -1.9831  2.4520
  523MOL0     H70577   4.008   4.023   9.576  0.4833 -0.8396 -0.8367
  523MOL0     H70578   3.934   4.079   9.431  3.0545  0.2152 -0.5431
  523MOL0     H70579   4.098   3.821   9.465  0.9857 -0.6835 -1.9931
  523MOL0     H70580   4.009   3.854   9.320  1.4013  0.1276 -1.0921
  523MOL0     H70581   4.227   4.053   9.419 -1.5462  1.1308 -0.1646
  523MOL0     H70582   4.128   4.073   9.288 -2.3273  0.6909  3.0704
  523MOL0     H70583   4.298   3.833   9.330 -1.8049 -2.9096 -2.0056
  523MOL0     H70584   4.201   3.884   9.184  1.2352  2.4678 -2.3325
  523MOL0     H70585   3.364   3.385   9.678 -2.6895  0.1217 -0.8400
  523MOL0     H70586   3.274   3.221   9.534 -1.4223 -0.8582 -2.9871
  523MOL0     H70587   3.441   2.925   9.024 -0.3270  2.9306 -4.3340
  523MOL0     H70588   3.304   2.820   8.838 -2.8892  0.5923 -3.4829
  523MOL0     H70589   1.917   1.827   8.357 -1.5328 -0.2890  1.0666
  523MOL0     H70590   1.723   1.730   8.233 -0.2163  0.9632  0.5915
  523MOL0     H70591   1.308   1.878   7.999  0.7176  1.6731 -1.4413
  523MOL0     H70592   1.122   1.850   7.860 -0.9128  0.3117 -1.8965
  523MOL0     H70593   1.198   1.725   7.472  1.3575  2.6593 -0.2363
  523MOL0     H70594   1.149   1.872   7.535  0.6543  0.1557  0.4821
  523MOL0     H70595   0.902   1.789   7.503  0.3699  1.5539 -1.4531
  523MOL0     H70596   0.967   1.634   7.447  0.5324  0.1424 -0.1289
  523MOL0     H70597   0.898   1.751   7.259  0.0024 -1.1317  0.5386
  523MOL0     H70598   1.070   1.753   7.247  0.8491  0.2473  0.4703
  523MOL0     H70599   1.085   1.981   7.331  2.2133 -5.7418  0.7223
  523MOL0     H70600   0.990   1.968   7.177  2.9550  0.4878  0.7456
  523MOL0     H70601   0.682   2.066   7.447 -0.4265 -4.3439  1.0665
  523MOL0     H70602   1.333   1.565   7.628  3.4814  1.5565 -1.5192
  523MOL0     H70603   1.617   1.575   7.672  0.2103  0.9512  0.8907
  523MOL0     H70604   1.620   1.552   7.854 -1.3939  0.6845  0.9742
  523MOL0     H70605   1.508   1.456   7.755  1.3979 -1.9106 -0.0237
  524MOL0     O70606   1.517   4.338   4.709 -1.0206  0.4812  1.1125
  524MOL0     C70607   1.526   4.213   4.727 -0.5244  0.2968  0.5717
  524MOL0     O70608   1.632   4.133   4.699 -0.1842 -1.1492  0.4439
  524MOL0     C70609   1.754   4.192   4.666 -0.2015 -0.4480 -0.8039
  524MOL0     C70610   1.823   4.153   4.554  0.3415  0.2465 -0.3003
  524MOL0     C70611   1.954   4.199   4.538 -0.5210 -0.9037  1.6157
  524MOL0     C70612   2.034   4.249   4.642  0.4714 -0.1776  0.4268
  524MOL0     O70613   2.161   4.280   4.612 -0.2448  0.0558  0.2200
  524MOL0     C70614   2.241   4.357   4.707 -0.2400  0.7951 -0.8477
  524MOL0     C70615   2.383   4.357   4.667  0.7805 -0.1874 -1.1114
  524MOL0     C70616   2.477   4.418   4.776 -0.3402 -0.8787  0.0677
  524MOL0     C70617   2.567   4.315   4.852 -1.0245 -0.2361 -0.0816
  524MOL0     C70618   2.499   4.233   4.954 -0.2122 -0.0929 -0.9663
  524MOL0     C70619   2.603   4.176   5.052 -0.1173 -0.6751 -0.5022
  524MOL0     C70620   2.690   4.064   4.990  0.4133 -0.2861 -0.0885
  524MOL0     C70621   2.806   4.040   5.088 -0.0157  0.4193 -0.3259
  524MOL0     N70622   2.903   3.938   5.049  0.0932 -0.5998 -0.0354
  524MOL0     C70623   3.034   3.970   5.018  0.3395  1.0969  0.8625
  524MOL0     C70624   3.072   3.842   4.976  0.9603 -0.7644 -0.3510
  524MOL0     C70625   3.206   3.813   4.926 -0.1008  0.0210 -0.1188
  524MOL0     C70626   3.306   3.929   4.899  0.0832  0.0986 -0.0178
  524MOL0     C70627   3.406   3.914   4.788  0.5016  0.1280  0.3766
  524MOL0     C70628   3.340   3.886   4.658  0.0091  0.6456 -0.0184
  524MOL0     O70629   3.312   3.745   4.645 -0.2267  0.7621 -0.5509
  524MOL0     C70630   3.402   3.664   4.594  0.0071  0.3207  0.3451
  524MOL0     C70631   3.493   3.696   4.493 -0.5472  0.3453 -0.1107
  524MOL0     C70632   3.598   3.611   4.473  0.3598 -0.0662 -0.3319
  524MOL0     C70633   3.611   3.487   4.547  0.0286  0.3962 -0.2378
  524MOL0     C70634   3.736   3.410   4.555  0.4668 -0.1272 -0.3292
  524MOL0     O70635   3.823   3.446   4.450  0.5370  0.4145 -1.1893
  524MOL0     C70636   3.942   3.375   4.446  0.4324 -0.3861  0.2204
  524MOL0     C70637   4.065   3.458   4.431  0.7009 -0.0252 -0.9431
  524MOL0     C70638   4.185   3.390   4.421 -0.1564 -0.2975 -1.2158
  524MOL0     C70639   4.198   3.247   4.432  0.7713  0.4100 -1.4666
  524MOL0     O70640   4.309   3.173   4.434  0.2478 -0.4506 -1.2125
  524MOL0     C70641   4.425   3.226   4.375 -0.3171 -0.3828  0.0538
  524MOL0     C70642   4.433   3.190   4.223  0.5211  0.2234 -0.0745
  524MOL0     C70643   4.565   3.269   4.173  0.5530 -0.4798 -0.2816
  524MOL0     C70644   4.695   3.213   4.215 -0.7759  0.3238  0.0235
  524MOL0     C70645   4.815   3.300   4.168  0.2786 -0.4101 -0.2074
  524MOL0     C70646   4.950   3.235   4.187  1.3004  0.8208 -0.1909
  524MOL0     C70647   5.074   3.316   4.137  0.4712  0.3740  0.8441
  524MOL0     C70648   5.213   3.292   4.207 -0.0689 -0.4533  1.0565
  524MOL0    Cl70649   5.258   3.119   4.197 -0.2462 -0.0010  0.0333
  524MOL0     C70650   4.073   3.177   4.456 -0.6392 -0.9882 -0.5316
  524MOL0     C70651   3.953   3.238   4.453  0.0465  0.3308 -0.2364
  524MOL0     O70652   3.755   3.324   4.637 -0.4701  0.0964 -0.9781
  524MOL0     C70653   3.512   3.455   4.635  0.9098 -0.3726  0.2052
  524MOL0     C70654   3.413   3.548   4.661 -0.2260  1.7563  0.3165
  524MOL0     N70655   2.972   3.751   5.005 -0.2226  0.0791  0.4839
  524MOL0     N70656   2.867   3.811   5.035 -0.4786  0.2032 -0.0274
  524MOL0     C70657   1.966   4.268   4.769  0.0122  0.6083 -0.3446
  524MOL0     C70658   1.828   4.235   4.782 -0.7672 -0.5556 -0.1728
  524MOL0     C70659   1.400   4.136   4.770 -0.7322  0.0899 -0.1997
  524MOL0     C70660   1.393   3.998   4.754 -0.5097  0.0465  0.4439
  524MOL0     C70661   1.280   3.932   4.786 -0.3045  0.1110 -0.2901
  524MOL0     C70662   1.164   3.989   4.828 -0.2467 -0.3494  0.0109
  524MOL0     O70663   1.048   3.911   4.854  0.4536 -0.4897  0.2698
  524MOL0     C70664   1.025   3.885   4.998  0.0729 -0.0643 -0.0386
  524MOL0     C70665   0.884   3.957   5.045 -0.3044 -0.1370  0.6032
  524MOL0     C70666   0.761   3.956   4.954 -0.4375 -0.2501  1.1448
  524MOL0     C70667   0.643   4.026   5.013 -0.3085 -0.2875 -0.4771
  524MOL0     C70668   0.681   4.160   5.061  0.4481 -0.7310 -0.1220
  524MOL0     C70669   0.721   4.269   5.072  0.5169 -0.0756 -0.5571
  524MOL0     C70670   1.163   4.132   4.852 -0.2821 -0.5749  0.7690
  524MOL0     C70671   1.280   4.203   4.830 -0.0863  0.2692 -0.2301
  524MOL0     C70672   1.283   4.349   4.864  0.2206 -0.1640 -0.9224
  524MOL0     H70673   1.781   4.087   4.479  1.9262 -2.3854  0.9823
  524MOL0     H70674   2.002   4.171   4.445  0.5467  0.8698  1.5783
  524MOL0     H70675   2.214   4.463   4.716  1.4187  1.3146 -1.4851
  524MOL0     H70676   2.223   4.315   4.806 -3.2715  0.8433 -1.2880
  524MOL0     H70677   2.382   4.416   4.575  2.3978  3.2382  0.8591
  524MOL0     H70678   2.415   4.255   4.644  0.9008  0.0702 -2.1486
  524MOL0     H70679   2.423   4.473   4.854  1.2783  0.0369  0.5851
  524MOL0     H70680   2.533   4.502   4.735 -1.3817  0.5615  1.4476
  524MOL0     H70681   2.620   4.252   4.780 -1.0711 -0.5848  0.1871
  524MOL0     H70682   2.647   4.375   4.897 -0.7375  1.3656 -2.5216
  524MOL0     H70683   2.433   4.296   5.014  2.5908  1.0144  1.2474
  524MOL0     H70684   2.440   4.155   4.906  1.2790 -1.6712 -0.3525
  524MOL0     H70685   2.659   4.258   5.099 -2.1767 -0.0124  0.9296
  524MOL0     H70686   2.545   4.119   5.126 -0.1507 -1.8784 -1.4267
  524MOL0     H70687   2.714   4.075   4.884 -0.8526 -1.6822 -0.5583
  524MOL0     H70688   2.626   3.975   4.990 -1.0039  0.6935  0.6029
  524MOL0     H70689   2.866   4.131   5.103  0.5453 -0.0298  0.2256
  524MOL0     H70690   2.765   4.010   5.184 -1.3291 -1.9109 -1.5280
  524MOL0     H70691   3.093   4.060   5.004  0.7933  0.5632 -0.9585
  524MOL0     H70692   3.242   3.734   4.993 -4.0446 -2.6945 -0.8174
  524MOL0     H70693   3.175   3.756   4.838 -0.8904 -1.7591  1.2188
  524MOL0     H70694   3.257   4.025   4.883  2.2207  1.1893 -0.4638
  524MOL0     H70695   3.371   3.945   4.986 -1.1261 -0.2866  0.9850
  524MOL0     H70696   3.482   3.839   4.814  0.0392 -0.7726 -0.7738
  524MOL0     H70697   3.459   4.007   4.767 -0.0412 -0.3461 -4.1042
  524MOL0     H70698   3.387   3.919   4.565 -2.1984  0.2610 -1.3427
  524MOL0     H70699   3.247   3.942   4.646  0.4232  1.4504  0.4293
  524MOL0     H70700   3.489   3.787   4.434 -1.5516  1.1030  1.0815
  524MOL0     H70701   3.680   3.633   4.405 -0.0074 -1.1788 -1.1757
  524MOL0     H70702   4.066   3.565   4.415 -0.2707  0.1925  0.3158
  524MOL0     H70703   4.272   3.453   4.406 -0.8692  1.7435  2.1440
  524MOL0     H70704   4.438   3.330   4.404 -0.6237 -0.5479  0.8140
  524MOL0     H70705   4.511   3.171   4.414 -0.6367  0.1772  1.6117
  524MOL0     H70706   4.444   3.082   4.228 -1.4284 -0.4754 -4.9267
  524MOL0     H70707   4.340   3.214   4.171 -0.7349 -0.6498  1.7051
  524MOL0     H70708   4.566   3.271   4.064 -0.0237 -1.8020 -0.3355
  524MOL0     H70709   4.551   3.374   4.200 -1.2226 -0.8762  0.5303
  524MOL0     H70710   4.705   3.106   4.194 -0.7054 -0.2871  2.7398
  524MOL0     H70711   4.696   3.215   4.324  0.2490  0.1448  0.0262
  524MOL0     H70712   4.813   3.397   4.220 -4.2928  0.3296 -1.3162
  524MOL0     H70713   4.800   3.314   4.060  0.4601  0.5267 -0.1247
  524MOL0     H70714   4.958   3.209   4.293 -2.1220 -2.0337 -0.4129
  524MOL0     H70715   4.949   3.140   4.133 -1.2529  0.5910  0.1079
  524MOL0     H70716   5.053   3.423   4.137  0.7039  0.5009 -2.1279
  524MOL0     H70717   5.083   3.290   4.031 -3.0338  0.2099  0.4684
  524MOL0     H70718   5.272   3.360   4.144  3.4646  0.2605  4.6689
  524MOL0     H70719   5.211   3.329   4.310 -4.0093  2.5212  0.1198
  524MOL0     H70720   4.080   3.072   4.483  4.4434 -0.0905  3.0453
  524MOL0     H70721   3.864   3.179   4.467  0.1104  0.4646  0.7897
  524MOL0     H70722   3.512   3.365   4.696 -3.8281 -0.7736 -0.0216
  524MOL0     H70723   3.344   3.520   4.740 -1.1069 -1.6269 -1.4699
  524MOL0     H70724   2.015   4.298   4.861  1.3205 -0.5344 -0.6288
  524MOL0     H70725   1.786   4.255   4.880  1.8233 -1.3508  1.1973
  524MOL0     H70726   1.480   3.940   4.725  0.0450  0.2526  1.6252
  524MOL0     H70727   1.292   3.825   4.774  1.1568  0.0382  1.3267
  524MOL0     H70728   1.114   3.902   5.058  1.8567 -2.6241 -1.7352
  524MOL0     H70729   1.014   3.776   5.004 -2.2472  0.0082 -1.6476
  524MOL0     H70730   0.908   4.061   5.071 -2.9599  0.2930  1.6903
  524MOL0     H70731   0.844   3.913   5.137 -0.0055 -2.3084 -0.2492
  524MOL0     H70732   0.727   3.852   4.954 -1.5549  0.0801 -0.5432
  524MOL0     H70733   0.783   3.993   4.854  1.4676  0.4479  1.7617
  524MOL0     H70734   0.557   4.029   4.946 -0.0852 -1.0071 -0.8113
  524MOL0     H70735   0.611   3.970   5.101 -0.1705  5.9517  4.2273
  524MOL0     H70736   0.765   4.366   5.084 -1.4231  0.6359  1.7848
  524MOL0     H70737   1.072   4.177   4.892  0.0931 -1.8138  3.2568
  524MOL0     H70738   1.310   4.415   4.782 -0.5450 -0.4196 -1.3894
  524MOL0     H70739   1.184   4.378   4.901 -0.9630 -3.2014 -1.4409
  524MOL0     H70740   1.339   4.377   4.954 -1.1277  1.5166 -0.5602
  525MOL0     O70741   9.411   1.485  10.697  0.4438 -0.2707 -1.3670
  525MOL0     C70742   9.452   1.577  10.770  0.1856 -0.5285  0.4538
  525MOL0     O70743   9.589   1.582  10.797  0.2640 -0.5656 -0.2839
  525MOL0     C70744   9.673   1.554  10.692 -0.1167 -0.2871 -0.1127
  525MOL0     C70745   9.674   1.620  10.570 -0.2949 -0.0958 -0.0323
  525MOL0     C70746   9.755   1.585  10.467 -0.7804 -0.3987 -0.2625
  525MOL0     C70747   9.845   1.484  10.487  1.1006 -0.2407 -0.8450
  525MOL0     O70748   9.936   1.439  10.392 -0.2327  0.8367 -0.0807
  525MOL0     C70749   9.889   1.472  10.260 -0.0523  0.5898 -0.1316
  525MOL0     C70750   9.992   1.412  10.169  0.4771 -0.3870  0.6140
  525MOL0     C70751   9.950   1.417  10.021  0.1282 -0.3911 -0.5955
  525MOL0     C70752  10.059   1.379   9.922  1.1470  0.0775 -0.2794
  525MOL0     C70753  10.013   1.360   9.775 -0.1259 -0.0218 -0.4266
  525MOL0     C70754   9.973   1.498   9.723  0.8753  0.9819 -0.4146
  525MOL0     C70755  10.090   1.579   9.675 -0.6882 -0.0749  0.8188
  525MOL0     C70756  10.081   1.736   9.695 -0.6937 -1.6630 -0.0018
  525MOL0     N70757  10.212   1.795   9.715  0.0905  0.8587 -0.6998
  525MOL0     C70758  10.291   1.786   9.834 -0.7222  1.2753 -0.2112
  525MOL0     C70759  10.379   1.894   9.830 -0.0175  0.0684 -1.0532
  525MOL0     C70760  10.468   1.925   9.955  1.3086  0.2137  0.2616
  525MOL0     C70761  10.411   2.055  10.012 -0.6556  0.5680 -0.1109
  525MOL0     C70762  10.263   2.089  10.012  0.0133  0.2555  0.9583
  525MOL0     C70763  10.194   2.000  10.110 -0.0720  0.0508 -0.4249
  525MOL0     O70764  10.053   2.005  10.091  0.1490 -0.0031  0.1701
  525MOL0     C70765   9.985   2.126  10.104 -0.9634  0.5789  0.2417
  525MOL0     C70766  10.021   2.238  10.179  0.5605 -0.3957  0.3679
  525MOL0     C70767   9.936   2.348  10.197 -0.1254 -0.8237  0.2413
  525MOL0     C70768   9.796   2.347  10.150 -0.1832 -0.0353 -0.3940
  525MOL0     C70769   9.693   2.445  10.192 -0.3964 -0.0560  0.4445
  525MOL0     O70770   9.564   2.432  10.160 -0.5826 -0.7698  0.5592
  525MOL0     C70771   9.461   2.522  10.171  0.2505 -0.0433 -0.5548
  525MOL0     C70772   9.345   2.486  10.238  0.3682  0.5081  0.2063
  525MOL0     C70773   9.246   2.579  10.242  0.1701  0.1238  0.0121
  525MOL0     C70774   9.244   2.713  10.189 -0.1432  0.0605 -0.1874
  525MOL0     O70775   9.139   2.790  10.206 -0.4745  0.0967  0.0118
  525MOL0     C70776   9.032   2.761  10.112  0.7081 -0.2502 -0.0806
  525MOL0     C70777   8.952   2.889  10.114  0.4706 -0.7169  0.4332
  525MOL0     C70778   9.021   2.989  10.025 -0.0318  0.2824  0.3376
  525MOL0     C70779   8.957   3.122  10.039  0.0381  0.1053 -0.0480
  525MOL0     C70780   9.015   3.252   9.981 -1.1945  0.2807 -0.2746
  525MOL0     C70781   8.924   3.359  10.028 -0.3139 -1.3603 -0.6353
  525MOL0     C70782   8.940   3.482   9.929 -1.2060 -0.2211 -0.3046
  525MOL0     C70783   9.076   3.545   9.947  0.0257 -1.2317 -0.2641
  525MOL0    Cl70784   9.079   3.624  10.107  0.3764 -0.0764 -0.1135
  525MOL0     C70785   9.358   2.753  10.120  0.1061 -0.4966 -0.3417
  525MOL0     C70786   9.472   2.657  10.113  0.6575  0.6501  0.7585
  525MOL0     O70787   9.739   2.539  10.255  0.1639  0.3915  0.8528
  525MOL0     C70788   9.762   2.241  10.065 -0.1555 -0.5514 -0.4385
  525MOL0     C70789   9.852   2.127  10.054  0.3338  0.1575  0.3578
  525MOL0     N70790  10.348   1.960   9.719 -0.2605  0.3668  0.4510
  525MOL0     N70791  10.260   1.896   9.646 -0.5954 -0.2029  0.1096
  525MOL0     C70792   9.853   1.421  10.608  0.5492 -0.0484  0.6054
  525MOL0     C70793   9.766   1.451  10.719  0.2306 -0.2855  0.5635
  525MOL0     C70794   9.347   1.671  10.841  0.8451  0.1879  0.4912
  525MOL0     C70795   9.212   1.647  10.827  0.3415  0.6388 -0.7659
  525MOL0     C70796   9.109   1.726  10.875 -0.4652  0.0683  0.0373
  525MOL0     C70797   9.148   1.831  10.965 -0.1212  0.3151 -0.0624
  525MOL0     O70798   9.049   1.898  11.032 -0.6065  0.3045 -0.0089
  525MOL0     C70799   9.063   2.031  11.069  0.1925  0.8642  0.7613
  525MOL0     C70800   9.092   2.120  10.950  0.1102  0.4308  1.0444
  525MOL0     C70801   9.109   2.267  10.982 -0.2880  0.2213 -0.1913
  525MOL0     C70802   9.116   2.351  10.855 -0.4098  1.0552  0.0090
  525MOL0     C70803   9.208   2.466  10.865  0.5340 -0.5732 -0.8879
  525MOL0     C70804   9.277   2.559  10.881  0.4995  0.3762 -0.1488
  525MOL0     C70805   9.283   1.853  11.000 -0.2029  0.2516  0.6601
  525MOL0     C70806   9.382   1.771  10.929  1.0239  0.1086  0.3967
  525MOL0     C70807   9.518   1.811  10.942 -0.8640 -0.5998 -0.2398
  525MOL0     H70808   9.606   1.701  10.542 -0.8850 -1.1534 -1.8309
  525MOL0     H70809   9.750   1.644  10.376 -0.4370 -0.6749 -0.4597
  525MOL0     H70810   9.794   1.424  10.238  1.0633 -1.7439 -0.1572
  525MOL0     H70811   9.884   1.580  10.242  0.5050  0.6104 -0.1800
  525MOL0     H70812   9.989   1.307  10.200 -0.6831 -0.8006 -0.7907
  525MOL0     H70813  10.088   1.461  10.187 -1.1490  2.2377  3.2053
  525MOL0     H70814   9.914   1.515   9.987  1.3571 -0.0643 -0.9972
  525MOL0     H70815   9.864   1.350  10.007  0.8846 -0.8096 -4.5456
  525MOL0     H70816  10.133   1.460   9.929  0.4118  0.7304  0.0671
  525MOL0     H70817  10.109   1.285   9.946 -0.2984 -0.6305  0.0252
  525MOL0     H70818  10.090   1.314   9.712 -1.2732 -3.9030  0.6989
  525MOL0     H70819   9.933   1.285   9.769 -0.8125  0.5115  1.4473
  525MOL0     H70820   9.910   1.473   9.637 -0.0307 -1.5168  0.8668
  525MOL0     H70821   9.913   1.560   9.790 -1.6926  1.3475 -2.8690
  525MOL0     H70822  10.074   1.567   9.568 -1.6487 -0.4310  0.9932
  525MOL0     H70823  10.186   1.541   9.713  0.7837 -0.5447 -2.9288
  525MOL0     H70824  10.028   1.784   9.612  0.4124 -1.9024 -0.8614
  525MOL0     H70825  10.025   1.768   9.783 -1.1884 -0.2041 -0.8098
  525MOL0     H70826  10.269   1.715   9.913 -1.7127  0.1495 -1.4539
  525MOL0     H70827  10.457   1.843  10.026  0.8006  0.4440  0.4538
  525MOL0     H70828  10.573   1.935   9.928  0.3422  2.8686 -3.2913
  525MOL0     H70829  10.435   2.059  10.119  2.0953 -1.2589 -0.5502
  525MOL0     H70830  10.463   2.139   9.965 -0.2182  1.0556  1.2124
  525MOL0     H70831  10.223   2.076   9.911 -0.4589 -2.2891  1.4086
  525MOL0     H70832  10.257   2.194  10.042 -0.5761  0.0884  1.4470
  525MOL0     H70833  10.223   2.012  10.215  1.7250 -1.8688 -0.6176
  525MOL0     H70834  10.211   1.897  10.075 -1.3623 -1.1411  2.1726
  525MOL0     H70835  10.111   2.234  10.239  2.1267  2.4872 -1.6020
  525MOL0     H70836   9.970   2.432  10.257 -0.0223  0.3554 -1.3930
  525MOL0     H70837   9.331   2.392  10.290 -0.3827  1.0166  0.9478
  525MOL0     H70838   9.157   2.534  10.285  0.6399  0.7672  1.7661
  525MOL0     H70839   9.058   2.756  10.006  3.1935  0.2277  0.4547
  525MOL0     H70840   8.965   2.678  10.137 -1.9290  1.4764 -0.9297
  525MOL0     H70841   8.846   2.878  10.088  0.2882  0.5027  0.6064
  525MOL0     H70842   8.960   2.925  10.217  0.0528  0.9782 -0.0956
  525MOL0     H70843   9.129   2.992  10.044  0.8606  1.1917 -3.8370
  525MOL0     H70844   9.020   2.945   9.924  0.1652 -0.7090  0.7526
  525MOL0     H70845   8.957   3.141  10.147 -0.8526  1.5967 -0.2884
  525MOL0     H70846   8.850   3.109  10.017  0.1380 -0.4947 -0.2054
  525MOL0     H70847   9.018   3.255   9.872  0.4682 -1.3107 -0.3229
  525MOL0     H70848   9.115   3.268  10.022 -2.0780  1.7415  1.3969
  525MOL0     H70849   8.819   3.331  10.020  0.3913 -3.8627 -2.1696
  525MOL0     H70850   8.955   3.380  10.131  0.8331 -1.8332 -0.8702
  525MOL0     H70851   8.862   3.555   9.952 -0.8729  0.2913 -0.7763
  525MOL0     H70852   8.925   3.453   9.825  1.6458 -2.0672 -0.3014
  525MOL0     H70853   9.160   3.476   9.964  0.4868 -0.3291  1.3326
  525MOL0     H70854   9.095   3.611   9.862 -0.3906 -0.1123  0.4854
  525MOL0     H70855   9.383   2.846  10.070 -0.6429  0.3724  0.8338
  525MOL0     H70856   9.560   2.691  10.059 -0.1055  1.2790 -0.1110
  525MOL0     H70857   9.656   2.241  10.041 -0.4010 -2.6682  0.4191
  525MOL0     H70858   9.826   2.035  10.003  1.5118  1.4967 -2.9517
  525MOL0     H70859   9.927   1.341  10.605  0.3348 -0.2788  1.1604
  525MOL0     H70860   9.776   1.412  10.820 -0.2339 -1.0285  0.3302
  525MOL0     H70861   9.182   1.566  10.761 -0.4795 -1.7931  2.3801
  525MOL0     H70862   9.002   1.708  10.873 -0.5863  0.7773 -0.3057
  525MOL0     H70863   9.138   2.046  11.147  1.3974  0.4589 -0.2843
  525MOL0     H70864   8.971   2.067  11.115 -0.0984  1.0026  0.0962
  525MOL0     H70865   9.009   2.106  10.880 -0.6570 -2.5365  2.3651
  525MOL0     H70866   9.180   2.088  10.893 -1.6644 -1.0467 -1.0171
  525MOL0     H70867   9.202   2.281  11.037  0.5424 -1.5032 -1.0828
  525MOL0     H70868   9.033   2.310  11.048 -0.4545  0.9580 -0.8463
  525MOL0     H70869   9.149   2.297  10.766  0.0603  1.7894 -0.2728
  525MOL0     H70870   9.015   2.385  10.831 -1.6305 -1.6419  0.9777
  525MOL0     H70871   9.334   2.649  10.891 -1.0631  1.3891 -0.0284
  525MOL0     H70872   9.326   1.915  11.079  0.7643 -0.8843  1.0523
  525MOL0     H70873   9.567   1.812  10.844 -1.5859  4.9060 -0.8716
  525MOL0     H70874   9.526   1.914  10.977  0.1710 -0.9239  0.5517
  525MOL0     H70875   9.565   1.740  11.010 -0.1097 -2.4341 -2.5386
  526MOL0     O70876   8.973   2.573   0.423  0.3013  0.0357  0.6340
  526MOL0     C70877   8.996   2.625   0.531  0.4591  0.4479 -0.1225
  526MOL0     O70878   8.900   2.644   0.625  0.3078 -0.2637  0.5188
  526MOL0     C70879   8.778   2.587   0.619 -0.0197 -0.6005 -0.1768
  526MOL0     C70880   8.724   2.497   0.531 -1.4644  0.0568  0.3957
  526MOL0     C70881   8.605   2.436   0.562  1.1763 -0.3320 -0.6094
  526MOL0     C70882   8.538   2.463   0.681 -0.1557 -0.4059 -0.2814
  526MOL0     O70883   8.415   2.412   0.690  0.6614 -0.1710  0.8851
  526MOL0     C70884   8.385   2.365   0.826 -0.5856  0.8091 -0.7891
  526MOL0     C70885   8.255   2.296   0.820  0.3523 -0.0199  0.2287
  526MOL0     C70886   8.131   2.389   0.805 -0.2292  0.3202  0.9526
  526MOL0     C70887   7.996   2.317   0.831 -0.6245  0.1822  1.2102
  526MOL0     C70888   7.883   2.423   0.830  0.2244  0.3047  1.4818
  526MOL0     C70889   7.777   2.386   0.717 -0.2387  0.2895  0.1099
  526MOL0     C70890   7.679   2.502   0.711 -0.5499  0.2454  0.4753
  526MOL0     C70891   7.617   2.535   0.858 -0.0644 -0.2213 -0.2568
  526MOL0     N70892   7.474   2.572   0.856  0.7031  0.9777  0.4693
  526MOL0     C70893   7.423   2.697   0.829  0.3007 -0.8157  0.2599
  526MOL0     C70894   7.284   2.673   0.846  0.7295 -1.4064  0.0880
  526MOL0     C70895   7.170   2.768   0.817  0.0973 -0.9354 -0.7497
  526MOL0     C70896   7.199   2.903   0.750  0.0252 -0.3870  0.4428
  526MOL0     C70897   7.097   2.935   0.643 -0.9523  0.0743 -0.0696
  526MOL0     C70898   7.157   3.062   0.574 -0.1385  0.0499 -0.0085
  526MOL0     O70899   7.072   3.108   0.473  0.4304  0.5994 -0.0359
  526MOL0     C70900   6.991   3.198   0.530 -0.5085  0.0337 -0.0768
  526MOL0     C70901   7.033   3.332   0.529  0.4385 -0.3608  1.2332
  526MOL0     C70902   6.949   3.426   0.576  0.3633 -0.1545 -1.6725
  526MOL0     C70903   6.817   3.397   0.638 -0.5673  0.2653 -0.0132
  526MOL0     C70904   6.731   3.503   0.690  0.5758 -0.3827  0.5972
  526MOL0     O70905   6.756   3.637   0.656 -0.6413  0.1221 -0.4087
  526MOL0     C70906   6.702   3.743   0.724  0.9905  1.7286 -0.1730
  526MOL0     C70907   6.697   3.859   0.656  0.2060 -0.6963 -0.7668
  526MOL0     C70908   6.648   3.974   0.711 -0.9993 -0.1097  1.1107
  526MOL0     C70909   6.601   3.977   0.844  0.6646 -0.2920 -0.2822
  526MOL0     O70910   6.548   4.093   0.887  0.0554 -1.2551 -0.8982
  526MOL0     C70911   6.640   4.189   0.939 -1.0590 -0.3368  0.7890
  526MOL0     C70912   6.661   4.183   1.090 -0.8904  0.2382  0.3581
  526MOL0     C70913   6.517   4.193   1.161  0.3333  1.1375 -0.5934
  526MOL0     C70914   6.409   4.287   1.112 -0.2730 -0.1477  0.1010
  526MOL0     C70915   6.288   4.315   1.208 -0.0737  0.0602 -0.5814
  526MOL0     C70916   6.180   4.396   1.133  0.4969 -0.0163  0.0943
  526MOL0     C70917   6.051   4.393   1.216  0.7502 -0.0333 -0.9281
  526MOL0     C70918   5.985   4.260   1.210 -0.3414 -0.2723 -0.0874
  526MOL0    Cl70919   5.901   4.248   1.059  0.4004  0.1551  0.4784
  526MOL0     C70920   6.603   3.856   0.916 -1.1434  0.3807  0.3926
  526MOL0     C70921   6.653   3.735   0.854  0.3627  0.1562 -0.1563
  526MOL0     O70922   6.632   3.466   0.760 -0.5321  0.4661  0.5877
  526MOL0     C70923   6.772   3.266   0.632 -0.4621 -0.4938  0.8206
  526MOL0     C70924   6.861   3.167   0.579  0.7160 -0.7356  0.9975
  526MOL0     N70925   7.254   2.536   0.863 -0.8631 -0.5047 -0.0513
  526MOL0     N70926   7.366   2.484   0.861  0.0601  0.3644  0.6275
  526MOL0     C70927   8.590   2.561   0.776  0.4196 -0.6276  0.1999
  526MOL0     C70928   8.709   2.624   0.733  0.6353  0.8856 -0.9529
  526MOL0     C70929   9.121   2.701   0.544 -0.1112 -0.2550  0.4899
  526MOL0     C70930   9.105   2.820   0.608  0.5209  0.2446  0.6316
  526MOL0     C70931   9.213   2.908   0.612 -0.9278  0.1351  0.4908
  526MOL0     C70932   9.340   2.872   0.576 -0.4469  0.7297 -0.5595
  526MOL0     O70933   9.449   2.962   0.581  0.8293 -0.3076 -0.2271
  526MOL0     C70934   9.586   2.911   0.559 -0.5066 -0.1503 -0.1855
  526MOL0     C70935   9.697   3.007   0.602  0.1299  0.2791 -0.1480
  526MOL0     C70936   9.830   2.958   0.545 -0.7581 -0.5191  0.2547
  526MOL0     C70937   9.952   3.014   0.626 -0.5096  0.4799  0.0387
  526MOL0     C70938  10.084   2.981   0.577  0.3902  0.2331 -0.2559
  526MOL0     C70939  10.190   2.950   0.523 -0.1478  0.4367 -1.0868
  526MOL0     C70940   9.347   2.745   0.511  0.0836  0.7641 -0.6648
  526MOL0     C70941   9.244   2.657   0.493  0.0031  0.0031  0.2507
  526MOL0     C70942   9.266   2.508   0.447 -0.2993 -0.4540  0.3499
  526MOL0     H70943   8.773   2.450   0.446 -2.5303  0.2216 -0.3313
  526MOL0     H70944   8.553   2.383   0.483 -0.9599  1.6477 -0.6446
  526MOL0     H70945   8.455   2.292   0.868  0.2517  1.5931 -0.7979
  526MOL0     H70946   8.379   2.451   0.894 -0.3129  0.6869 -0.6107
  526MOL0     H70947   8.249   2.233   0.909 -1.2647  3.9513  3.3028
  526MOL0     H70948   8.251   2.236   0.729 -1.9304  0.4936 -0.0719
  526MOL0     H70949   8.130   2.431   0.704  0.2695  3.2037  2.0605
  526MOL0     H70950   8.131   2.471   0.877  0.5292  0.1707  1.1349
  526MOL0     H70951   7.981   2.231   0.763 -0.1472 -0.9833  2.5359
  526MOL0     H70952   7.999   2.275   0.932 -2.3397  1.0101  1.6368
  526MOL0     H70953   7.848   2.433   0.933  5.5028 -2.5879  3.9408
  526MOL0     H70954   7.929   2.520   0.808  2.9414 -0.1054  4.6394
  526MOL0     H70955   7.839   2.381   0.627  1.9176  3.4468  1.2313
  526MOL0     H70956   7.729   2.289   0.730  0.1793 -0.2745 -2.2193
  526MOL0     H70957   7.602   2.471   0.640 -0.4232 -0.3603  0.5972
  526MOL0     H70958   7.739   2.585   0.671 -0.8279  0.6857  0.9609
  526MOL0     H70959   7.619   2.443   0.917 -2.9599  1.3589  2.6218
  526MOL0     H70960   7.684   2.605   0.909  1.0237 -2.2489  1.2050
  526MOL0     H70961   7.472   2.788   0.796 -1.4296  0.2541  0.5505
  526MOL0     H70962   7.099   2.717   0.750  1.4321 -1.7748 -1.5666
  526MOL0     H70963   7.132   2.781   0.919  0.9404 -1.3228 -0.3841
  526MOL0     H70964   7.194   2.977   0.830  1.2709 -1.0898  1.2063
  526MOL0     H70965   7.298   2.896   0.705 -1.3081  0.6249 -2.9498
  526MOL0     H70966   7.005   2.971   0.690 -2.4563 -0.9725 -2.0822
  526MOL0     H70967   7.074   2.849   0.580 -4.2938 -0.3781  1.5716
  526MOL0     H70968   7.254   3.036   0.532  0.3248 -2.0747  2.1612
  526MOL0     H70969   7.190   3.146   0.636  0.9473 -1.2757  1.2659
  526MOL0     H70970   7.133   3.363   0.500  0.0675  0.2133  0.5143
  526MOL0     H70971   6.992   3.524   0.559  2.5265 -1.3912 -3.7820
  526MOL0     H70972   6.742   3.866   0.557  0.9429 -0.0507 -0.4020
  526MOL0     H70973   6.642   4.070   0.661 -0.1342  0.5188  2.1624
  526MOL0     H70974   6.739   4.158   0.904 -1.8236 -1.0540 -0.8652
  526MOL0     H70975   6.620   4.293   0.909 -2.1536 -0.8630 -0.4116
  526MOL0     H70976   6.700   4.088   1.128  1.4481  1.1882  0.4930
  526MOL0     H70977   6.736   4.256   1.124 -0.8252  0.1240  0.4584
  526MOL0     H70978   6.462   4.100   1.144  0.5841  1.1716 -1.6555
  526MOL0     H70979   6.538   4.206   1.267  1.2571 -3.8225  0.0492
  526MOL0     H70980   6.377   4.254   1.012  2.6432 -1.8679 -0.4032
  526MOL0     H70981   6.449   4.385   1.086  1.0887 -0.2110  1.8247
  526MOL0     H70982   6.334   4.382   1.281  0.7156  1.4223 -2.2647
  526MOL0     H70983   6.251   4.220   1.249  0.6179  1.1423  2.8616
  526MOL0     H70984   6.221   4.496   1.115  0.0181  0.1208 -0.2588
  526MOL0     H70985   6.154   4.354   1.035 -0.1818 -1.0632  0.7044
  526MOL0     H70986   5.984   4.475   1.187  3.8572  2.6421 -1.1488
  526MOL0     H70987   6.082   4.416   1.318 -0.0484  1.1339 -0.9266
  526MOL0     H70988   6.065   4.186   1.204 -1.2030 -1.4343  1.7530
  526MOL0     H70989   5.920   4.241   1.296  0.8340  0.7759  1.0791
  526MOL0     H70990   6.573   3.854   1.020  1.3507 -1.1225  1.1796
  526MOL0     H70991   6.649   3.653   0.925 -0.2600 -1.7577 -2.2865
  526MOL0     H70992   6.669   3.244   0.661 -0.2477  1.7984  3.8242
  526MOL0     H70993   6.814   3.072   0.558 -1.8983  0.1757  2.3040
  526MOL0     H70994   8.524   2.595   0.855  0.8932  1.1359 -0.1207
  526MOL0     H70995   8.737   2.704   0.801 -0.3220 -1.0899  1.9581
  526MOL0     H70996   9.018   2.856   0.663  1.5623  0.6031  2.0915
  526MOL0     H70997   9.200   3.004   0.659 -3.9567 -0.4346  1.0284
  526MOL0     H70998   9.609   2.890   0.454 -1.1259 -3.1667  0.1986
  526MOL0     H70999   9.598   2.813   0.606 -1.9737 -1.4999 -2.4470
  526MOL0     H71000   9.700   3.025   0.710  0.4731 -0.2755 -0.0673
  526MOL0     H71001   9.679   3.100   0.546  3.7785 -0.8629 -3.6900
  526MOL0     H71002   9.823   2.998   0.443 -0.7890  3.0723  1.5387
  526MOL0     H71003   9.830   2.848   0.551  0.2441 -0.5977 -0.8024
  526MOL0     H71004   9.958   3.123   0.640 -0.6750  0.4784  0.1299
  526MOL0     H71005   9.931   2.969   0.723  1.5226 -0.2971  0.1655
  526MOL0     H71006  10.285   2.920   0.483  1.4688  3.1291  0.4658
  526MOL0     H71007   9.445   2.705   0.487  0.3384  1.0651 -0.1669
  526MOL0     H71008   9.339   2.510   0.365 -1.3073  0.4609 -0.5637
  526MOL0     H71009   9.305   2.439   0.523  0.9908  0.2137  0.3275
  526MOL0     H71010   9.175   2.463   0.407  0.7958 -0.7417 -1.9930
  527MOL0     O71011   4.438   1.323  10.429 -0.4861 -0.1907 -0.3971
  527MOL0     C71012   4.393   1.281  10.322 -0.8820  0.6085  0.6658
  527MOL0     O71013   4.454   1.295  10.205 -0.7537 -0.8151 -0.5261
  527MOL0     C71014   4.565   1.372  10.198 -0.3634 -0.5947  0.7114
  527MOL0     C71015   4.690   1.314  10.243  0.3464  0.3541 -1.0593
  527MOL0     C71016   4.811   1.387  10.247  0.2253 -0.3946 -0.0826
  527MOL0     C71017   4.810   1.522  10.205  0.3642 -0.4303 -0.2081
  527MOL0     O71018   4.927   1.582  10.209  0.6529 -0.9001 -0.2663
  527MOL0     C71019   4.927   1.723  10.182 -0.6618  0.3992 -0.0139
  527MOL0     C71020   4.879   1.801  10.302  0.4353 -0.5374  0.1514
  527MOL0     C71021   4.880   1.951  10.271 -0.7320 -1.0338 -0.8677
  527MOL0     C71022   4.975   2.028  10.358 -0.0133 -0.7604  0.2731
  527MOL0     C71023   4.984   2.175  10.300  0.5305 -0.9321 -0.0448
  527MOL0     C71024   5.039   2.269  10.401  0.3614 -0.5907 -0.4486
  527MOL0     C71025   5.050   2.405  10.357  0.5895 -0.0769 -0.7595
  527MOL0     C71026   5.124   2.492  10.458  0.0279  0.3948  1.2224
  527MOL0     N71027   5.092   2.497  10.602 -0.0183  0.0478  0.0638
  527MOL0     C71028   5.000   2.581  10.667  0.4791 -0.5109 -0.8199
  527MOL0     C71029   5.038   2.580  10.797 -0.0946  1.0462  0.4987
  527MOL0     C71030   4.981   2.647  10.915  0.2136 -0.0876 -0.1836
  527MOL0     C71031   4.870   2.561  10.980 -0.0338 -0.7327  0.8008
  527MOL0     C71032   4.921   2.438  11.049  0.9665 -0.7772  0.2591
  527MOL0     C71033   5.032   2.469  11.155 -0.4453  0.1322  0.0533
  527MOL0     O71034   4.998   2.554  11.269  0.6700 -0.2930 -0.4935
  527MOL0     C71035   5.051   2.511  11.393 -0.5890  0.7311 -0.1000
  527MOL0     C71036   4.969   2.544  11.502 -0.1875  0.3415  0.5900
  527MOL0     C71037   5.007   2.516  11.626  0.6002 -0.6057 -0.9982
  527MOL0     C71038   5.118   2.444  11.661 -0.1458  0.1818  1.7148
  527MOL0     C71039   5.150   2.399  11.795  0.3659 -0.3868  0.7845
  527MOL0     O71040   5.257   2.321  11.810 -0.0045 -0.5753 -0.2781
  527MOL0     C71041   5.277   2.269  11.932  0.5555  0.2932 -0.0507
  527MOL0     C71042   5.345   2.348  12.029  0.0407  0.3844  1.4154
  527MOL0     C71043   5.358   2.304  12.161  0.4723  0.3575  0.3616
  527MOL0     C71044   5.307   2.178  12.196 -1.2027 -0.1700  0.3055
  527MOL0     O71045   5.325   2.147  12.324  0.0134  0.1256  0.0404
  527MOL0     C71046   5.213   2.142  12.420 -1.0640  0.7405  0.4682
  527MOL0     C71047   5.197   2.278  12.463 -0.5185 -0.3357 -0.1266
  527MOL0     C71048   5.090   2.295  12.577 -0.2313 -1.5046 -0.3457
  527MOL0     C71049   5.075   2.439  12.623 -0.7105 -0.0127  0.3426
  527MOL0     C71050   5.195   2.483  12.706 -0.2435 -0.8152 -0.4857
  527MOL0     C71051   5.193   2.623  12.780  0.4428  0.1986  0.7986
  527MOL0     C71052   5.070   2.619  12.877  0.1333  1.1201 -1.1701
  527MOL0     C71053   5.132   2.694  12.997  0.1092 -0.0540  0.1094
  527MOL0    Cl71054   5.016   2.705  13.135 -0.0547  0.1681  0.4022
  527MOL0     C71055   5.249   2.095  12.102 -0.4431 -0.4384 -0.8109
  527MOL0     C71056   5.242   2.143  11.973  0.1854  0.3655 -0.3785
  527MOL0     O71057   5.071   2.430  11.878 -0.7355 -0.6307  0.3462
  527MOL0     C71058   5.200   2.398  11.548  0.1254  0.5782 -0.3500
  527MOL0     C71059   5.166   2.435  11.412  0.2669  0.5046  0.2587
  527MOL0     N71060   5.147   2.493  10.800  0.2650  0.1407  0.5766
  527MOL0     N71061   5.184   2.445  10.689 -0.5682 -0.0056 -0.0450
  527MOL0     C71062   4.690   1.577  10.150 -0.5348  0.5708  1.0327
  527MOL0     C71063   4.572   1.500  10.145 -0.6855 -0.2396  0.7034
  527MOL0     C71064   4.250   1.226  10.307  0.1560 -0.2922 -0.2467
  527MOL0     C71065   4.164   1.265  10.203 -0.2521  0.5935  0.2305
  527MOL0     C71066   4.029   1.226  10.204  0.6756 -0.6698 -1.0582
  527MOL0     C71067   3.973   1.135  10.297 -0.2196  0.5118  1.5914
  527MOL0     O71068   3.837   1.089  10.294  0.9297  0.0079 -0.5935
  527MOL0     C71069   3.787   1.021  10.404  0.3425  1.3536 -0.3886
  527MOL0     C71070   3.627   0.987  10.385 -0.3240 -0.5125 -0.1528
  527MOL0     C71071   3.538   1.107  10.434 -0.6996 -0.0749 -0.0545
  527MOL0     C71072   3.399   1.118  10.355  0.1997  0.8904  0.5522
  527MOL0     C71073   3.314   1.214  10.434 -0.2282 -0.2744 -0.0765
  527MOL0     C71074   3.234   1.284  10.492 -0.3268 -0.4044 -0.6595
  527MOL0     C71075   4.067   1.086  10.382 -0.1221 -0.1389  0.9565
  527MOL0     C71076   4.200   1.125  10.395 -0.3429  0.0932  0.2109
  527MOL0     C71077   4.282   1.089  10.508  0.6345  0.2982  0.0178
  527MOL0     H71078   4.678   1.218  10.293 -0.2357  1.3590  0.8147
  527MOL0     H71079   4.900   1.349  10.296  0.7882  2.3546  1.2383
  527MOL0     H71080   5.030   1.758  10.170 -0.9981  2.9930  3.1815
  527MOL0     H71081   4.867   1.750  10.095  1.4409  1.2173 -1.2743
  527MOL0     H71082   4.949   1.772  10.381 -1.9891 -0.3957  2.5279
  527MOL0     H71083   4.777   1.773  10.332 -1.7710  1.4770 -4.4421
  527MOL0     H71084   4.779   1.991  10.288 -0.9756 -2.2022  0.6530
  527MOL0     H71085   4.913   1.970  10.169  0.3325  3.1662  0.0656
  527MOL0     H71086   4.922   2.031  10.454 -3.9458 -6.3810 -1.2011
  527MOL0     H71087   5.068   1.971  10.350  0.8771  0.9616 -4.5329
  527MOL0     H71088   5.046   2.178  10.210 -0.3575 -2.1948 -0.7269
  527MOL0     H71089   4.884   2.213  10.277 -0.5738 -2.9925  1.1060
  527MOL0     H71090   4.982   2.282  10.493 -0.3513  0.5640 -1.0193
  527MOL0     H71091   5.138   2.232  10.429 -1.4244 -3.2743  3.1640
  527MOL0     H71092   4.946   2.440  10.359  0.1656 -1.3059 -0.1482
  527MOL0     H71093   5.102   2.407  10.261 -0.8961  2.3953 -1.5971
  527MOL0     H71094   5.231   2.472  10.455 -0.0161 -0.1811  2.5479
  527MOL0     H71095   5.109   2.593  10.418  2.3766  0.3480  0.1101
  527MOL0     H71096   4.916   2.638  10.631  1.4009  1.5029  0.0676
  527MOL0     H71097   5.054   2.687  10.985 -1.2196  0.5648  0.9919
  527MOL0     H71098   4.928   2.735  10.878 -1.1672 -0.6709  0.3410
  527MOL0     H71099   4.825   2.617  11.063 -1.1959 -2.7084  1.5749
  527MOL0     H71100   4.791   2.543  10.906  2.1763  0.7435 -2.0923
  527MOL0     H71101   4.970   2.373  10.977  0.1497 -2.6845  1.3380
  527MOL0     H71102   4.837   2.386  11.098 -0.1787  1.2517  0.5511
  527MOL0     H71103   5.116   2.520  11.107  1.3165  0.9993  3.6979
  527MOL0     H71104   5.056   2.366  11.184  1.9687  0.3002 -1.1146
  527MOL0     H71105   4.868   2.583  11.493  0.1706  2.7210  4.7696
  527MOL0     H71106   4.931   2.548  11.696 -1.4922 -1.5153 -2.7560
  527MOL0     H71107   5.399   2.436  11.994  0.8314 -1.0174 -1.1183
  527MOL0     H71108   5.407   2.370  12.232 -0.6033 -0.3192  1.7811
  527MOL0     H71109   5.123   2.100  12.374 -1.1937  0.1272  1.2605
  527MOL0     H71110   5.236   2.071  12.500  1.7010 -2.3232 -2.7033
  527MOL0     H71111   5.301   2.305  12.484 -0.6397 -0.6254  0.9153
  527MOL0     H71112   5.149   2.326  12.377 -1.4123  0.5227  0.8157
  527MOL0     H71113   5.001   2.254  12.529  0.2887 -1.7283 -1.1473
  527MOL0     H71114   5.117   2.232  12.663  1.0039 -2.8558 -1.6458
  527MOL0     H71115   4.984   2.438  12.683  0.2490  0.2991  1.8607
  527MOL0     H71116   5.067   2.509  12.539 -1.1098 -0.7480 -0.2472
  527MOL0     H71117   5.283   2.502  12.644  0.3784  1.1532  0.9199
  527MOL0     H71118   5.218   2.407  12.781 -0.3863 -0.3089  0.0803
  527MOL0     H71119   5.295   2.633  12.819  0.6996  0.0839  0.1744
  527MOL0     H71120   5.171   2.702  12.708  0.1486  0.0211  0.6915
  527MOL0     H71121   5.037   2.521  12.913 -5.7682  2.7817 -0.9939
  527MOL0     H71122   4.981   2.671  12.840 -1.1282  1.6345  2.2575
  527MOL0     H71123   5.218   2.637  13.032 -1.8339 -2.1066  1.7944
  527MOL0     H71124   5.149   2.796  12.959 -2.8250  0.4431 -0.1128
  527MOL0     H71125   5.212   1.998  12.133  1.9494 -0.5772  2.1263
  527MOL0     H71126   5.191   2.072  11.908  0.3587  1.1487 -1.3957
  527MOL0     H71127   5.280   2.331  11.580 -2.6100 -2.0702  1.5339
  527MOL0     H71128   5.228   2.410  11.326 -0.8957 -2.2101  0.1248
  527MOL0     H71129   4.683   1.678  10.110 -1.8249  0.4402  0.8863
  527MOL0     H71130   4.481   1.542  10.103 -0.2163 -0.8666 -1.0392
  527MOL0     H71131   4.210   1.319  10.120  1.5094  0.2667  0.9590
  527MOL0     H71132   3.954   1.270  10.138 -1.3373  0.7029  1.9394
  527MOL0     H71133   3.805   1.072  10.499 -1.9452  0.7660  0.4176
  527MOL0     H71134   3.843   0.928  10.422 -1.5054  0.2005 -0.3690
  527MOL0     H71135   3.614   0.898  10.448  4.0317 -0.5141  1.0480
  527MOL0     H71136   3.610   0.959  10.280 -0.0417 -0.0448 -0.3265
  527MOL0     H71137   3.590   1.201  10.411 -1.7525  1.3907  2.9406
  527MOL0     H71138   3.527   1.114  10.543  2.7685  1.8082  0.3268
  527MOL0     H71139   3.397   1.140  10.248 -1.1990 -1.1173  0.1033
  527MOL0     H71140   3.362   1.016  10.372 -0.8938  1.2805  0.5859
  527MOL0     H71141   3.161   1.336  10.551  0.9379 -0.3801  0.9408
  527MOL0     H71142   4.038   1.020  10.463 -2.1485  2.9331  2.9663
  527MOL0     H71143   4.390   1.092  10.487  0.5722 -2.8400 -1.4552
  527MOL0     H71144   4.254   1.142  10.599  0.4931 -2.1267  1.4983
  527MOL0     H71145   4.277   0.983  10.534 -0.3154 -0.3786 -2.5752
  528MOL0     O71146   0.371   0.664   4.022  0.4845  0.4456 -0.5800
  528MOL0     C71147   0.393   0.763   4.093  0.5663  0.3044  0.0875
  528MOL0     O71148   0.296   0.817   4.172  0.8031 -0.3629  0.2639
  528MOL0     C71149   0.161   0.779   4.169 -0.4415 -0.0269 -0.2104
  528MOL0     C71150   0.080   0.796   4.282  0.3547  0.5967 -0.2929
  528MOL0     C71151  -0.063   0.767   4.279  0.1953 -0.2496 -0.3893
  528MOL0     C71152  -0.129   0.710   4.167 -0.4606  0.6511 -0.0513
  528MOL0     O71153  -0.266   0.696   4.165  0.1886  0.6454  0.0990
  528MOL0     C71154  -0.301   0.627   4.048  0.9775 -0.2162  0.5800
  528MOL0     C71155  -0.451   0.603   4.024 -0.2915 -0.6148  0.2385
  528MOL0     C71156  -0.519   0.484   4.103 -0.5111 -1.2957 -0.3313
  528MOL0     C71157  -0.665   0.471   4.066  1.4160 -0.3685  0.0412
  528MOL0     C71158  -0.747   0.387   4.166 -0.7072  0.5306  1.5475
  528MOL0     C71159  -0.884   0.342   4.101  0.3488  0.7661  0.1035
  528MOL0     C71160  -0.971   0.286   4.217 -0.2705  0.0317  0.3397
  528MOL0     C71161  -1.047   0.392   4.291  0.0220 -0.1051  0.3299
  528MOL0     N71162  -1.158   0.448   4.219 -0.1218 -0.1016 -0.3709
  528MOL0     C71163  -1.275   0.381   4.168 -0.4541  0.4627  0.3942
  528MOL0     C71164  -1.350   0.483   4.112 -0.6280  0.4259 -0.7971
  528MOL0     C71165  -1.496   0.476   4.070  0.3259  0.4155  0.3684
  528MOL0     C71166  -1.528   0.543   3.937  0.7897  0.7128 -0.6435
  528MOL0     C71167  -1.462   0.458   3.830 -0.2353 -0.4830 -0.3553
  528MOL0     C71168  -1.537   0.468   3.691 -0.3846 -0.0970 -0.4417
  528MOL0     O71169  -1.558   0.603   3.657 -0.0890 -0.1615  0.1735
  528MOL0     C71170  -1.621   0.633   3.540 -0.7865 -0.1829 -0.3864
  528MOL0     C71171  -1.663   0.765   3.524 -0.2507 -0.0766  0.0927
  528MOL0     C71172  -1.708   0.809   3.402  0.4881 -0.3021  0.6281
  528MOL0     C71173  -1.711   0.709   3.295  0.5753 -0.7138 -0.1332
  528MOL0     C71174  -1.751   0.745   3.156  0.8345 -0.7267 -0.5610
  528MOL0     O71175  -1.829   0.660   3.078 -0.7126  0.0294 -0.0903
  528MOL0     C71176  -1.844   0.679   2.944  1.1904  1.2261  1.0088
  528MOL0     C71177  -1.903   0.784   2.895  1.0038 -0.1296  1.3802
  528MOL0     C71178  -1.928   0.796   2.752 -0.3604 -0.9596 -0.1512
  528MOL0     C71179  -1.883   0.699   2.665  0.0381 -0.1430  0.1560
  528MOL0     O71180  -1.896   0.734   2.531 -0.0594  0.3779 -0.1335
  528MOL0     C71181  -1.974   0.636   2.465 -0.0881  0.1934  0.2738
  528MOL0     C71182  -1.878   0.570   2.361  0.0588 -0.3942 -0.9861
  528MOL0     C71183  -1.951   0.461   2.287  0.5358  1.3263 -0.0857
  528MOL0     C71184  -2.025   0.500   2.164  0.2900 -0.3539  0.6415
  528MOL0     C71185  -2.095   0.382   2.101 -0.2873 -0.3039 -0.1753
  528MOL0     C71186  -2.123   0.394   1.958 -0.1167 -0.4184 -0.1573
  528MOL0     C71187  -2.259   0.478   1.923  0.0681  0.2102 -0.0429
  528MOL0     C71188  -2.386   0.406   1.963  0.6119 -0.6131  0.6985
  528MOL0    Cl71189  -2.527   0.490   1.897 -0.3873 -0.3043  0.1668
  528MOL0     C71190  -1.822   0.583   2.714  0.0931  0.4321 -0.4885
  528MOL0     C71191  -1.812   0.573   2.855 -0.4763 -0.0005 -0.3304
  528MOL0     O71192  -1.705   0.853   3.115 -0.1812  0.3254  0.6275
  528MOL0     C71193  -1.689   0.573   3.324  0.1235 -0.5423 -0.0573
  528MOL0     C71194  -1.633   0.536   3.442  0.5318 -1.1940  0.5105
  528MOL0     N71195  -1.298   0.604   4.159  0.0727 -0.2343  0.2835
  528MOL0     N71196  -1.173   0.585   4.207  1.1313  0.4696 -0.0701
  528MOL0     C71197  -0.033   0.691   4.056  0.7863  0.1434  0.0584
  528MOL0     C71198   0.099   0.726   4.060 -0.1471 -0.7068 -0.0820
  528MOL0     C71199   0.525   0.839   4.112 -0.1789  1.1283  0.2034
  528MOL0     C71200   0.543   0.928   4.218  0.2327 -0.6728  0.5485
  528MOL0     C71201   0.661   1.005   4.220 -0.1873  0.4316  0.1909
  528MOL0     C71202   0.755   1.006   4.118  0.0935 -0.4463 -0.8863
  528MOL0     O71203   0.856   1.093   4.097 -0.7798 -0.5399  0.0713
  528MOL0     C71204   0.852   1.213   4.173 -0.1992  0.6573 -0.0814
  528MOL0     C71205   0.965   1.301   4.117  0.6994  0.0311  0.3894
  528MOL0     C71206   1.111   1.249   4.146  0.5018  0.8765  0.2974
  528MOL0     C71207   1.198   1.348   4.069 -0.5248  0.2674  0.4968
  528MOL0     C71208   1.206   1.495   4.120 -0.8251  0.9159  0.3266
  528MOL0     C71209   1.226   1.605   4.164  0.1191 -0.6662 -0.3588
  528MOL0     C71210   0.744   0.914   4.023  1.0558  0.9725  0.2303
  528MOL0     C71211   0.630   0.825   4.017 -0.4306 -0.1997  0.0826
  528MOL0     C71212   0.639   0.713   3.908 -0.0629  0.4893  1.0701
  528MOL0     H71213   0.126   0.859   4.357 -0.1393  2.1440 -1.2534
  528MOL0     H71214  -0.132   0.802   4.356  1.0998 -1.2620  0.9411
  528MOL0     H71215  -0.269   0.687   3.962  2.0097 -1.3145  0.1779
  528MOL0     H71216  -0.252   0.530   4.050  3.0629  0.7828  1.0766
  528MOL0     H71217  -0.465   0.585   3.917  2.8140 -1.4556 -0.1038
  528MOL0     H71218  -0.499   0.701   4.033 -4.7055 -2.1514 -3.0378
  528MOL0     H71219  -0.510   0.518   4.207  2.4281  1.5694 -1.3384
  528MOL0     H71220  -0.466   0.391   4.079 -1.5548 -1.6002 -1.5541
  528MOL0     H71221  -0.712   0.569   4.081 -2.2765 -2.2336  2.3142
  528MOL0     H71222  -0.669   0.424   3.968 -0.1111 -2.3962  0.9802
  528MOL0     H71223  -0.697   0.298   4.206  0.0301  0.5911  0.7815
  528MOL0     H71224  -0.764   0.458   4.248 -0.1607  2.1280  0.3241
  528MOL0     H71225  -0.937   0.421   4.047  0.3917 -1.2022 -3.0739
  528MOL0     H71226  -0.855   0.262   4.032  1.7968  0.1066  1.4130
  528MOL0     H71227  -0.910   0.233   4.290 -1.2132 -1.7660 -0.1243
  528MOL0     H71228  -1.036   0.209   4.175  3.1425 -3.9901  1.6969
  528MOL0     H71229  -1.100   0.345   4.375 -1.5661  2.1409  0.6960
  528MOL0     H71230  -0.977   0.465   4.333  0.1177  0.6452 -1.0846
  528MOL0     H71231  -1.304   0.277   4.174  1.2834 -0.0362  0.5791
  528MOL0     H71232  -1.536   0.374   4.068  2.3689 -0.6191  3.5029
  528MOL0     H71233  -1.558   0.530   4.142 -1.0250 -1.0966  0.4091
  528MOL0     H71234  -1.637   0.542   3.930  0.1737 -2.8815  4.0443
  528MOL0     H71235  -1.496   0.647   3.943 -0.1415  1.0221 -0.8560
  528MOL0     H71236  -1.459   0.351   3.856  4.0639 -0.8652 -1.5840
  528MOL0     H71237  -1.356   0.483   3.817  0.1996 -0.1296  2.8605
  528MOL0     H71238  -1.628   0.411   3.708 -1.6802  1.6093 -1.2600
  528MOL0     H71239  -1.481   0.413   3.615  0.6517 -2.5012  1.9231
  528MOL0     H71240  -1.657   0.837   3.606 -1.7764  3.4136 -2.5865
  528MOL0     H71241  -1.744   0.910   3.385 -1.1824 -1.3642 -3.3988
  528MOL0     H71242  -1.925   0.867   2.961 -0.4466  0.0986  0.6738
  528MOL0     H71243  -1.968   0.888   2.710  3.9004  0.6738 -1.0558
  528MOL0     H71244  -2.015   0.560   2.532 -0.3018 -1.5761 -1.7679
  528MOL0     H71245  -2.043   0.690   2.399  1.0242  2.6550  0.9853
  528MOL0     H71246  -1.844   0.648   2.293  2.4322 -1.8334 -1.5439
  528MOL0     H71247  -1.791   0.530   2.413  0.1790  0.9968 -0.0615
  528MOL0     H71248  -1.875   0.388   2.257  1.6965  2.1383  0.7789
  528MOL0     H71249  -2.020   0.414   2.357  0.5844  0.7558 -0.4117
  528MOL0     H71250  -1.940   0.531   2.103  0.0921 -2.7584 -0.9884
  528MOL0     H71251  -2.087   0.589   2.181  1.2135  0.5154 -0.3348
  528MOL0     H71252  -2.186   0.357   2.157 -0.5748 -1.7487 -1.2512
  528MOL0     H71253  -2.025   0.298   2.096 -1.1319 -0.9363 -1.6538
  528MOL0     H71254  -2.041   0.446   1.906  0.6973 -1.7653 -0.2754
  528MOL0     H71255  -2.131   0.289   1.930 -1.2983 -0.3898  0.0300
  528MOL0     H71256  -2.264   0.504   1.817  3.2634  1.9363  0.0931
  528MOL0     H71257  -2.247   0.571   1.979  1.1008 -0.3446  0.7015
  528MOL0     H71258  -2.377   0.305   1.920  3.8506  0.8416 -2.5655
  528MOL0     H71259  -2.402   0.412   2.071 -1.9912  1.9924  0.2982
  528MOL0     H71260  -1.780   0.507   2.649  1.3291  1.4065 -0.8573
  528MOL0     H71261  -1.777   0.483   2.904  1.3353  1.6053  1.5089
  528MOL0     H71262  -1.710   0.507   3.240  3.5267  0.3700 -1.7826
  528MOL0     H71263  -1.610   0.432   3.462  1.9111 -0.7275  1.4497
  528MOL0     H71264  -0.072   0.670   3.957  1.3742 -1.9094  0.2326
  528MOL0     H71265   0.150   0.728   3.965  1.1403  2.1347  0.5619
  528MOL0     H71266   0.460   0.923   4.288 -0.3115 -4.5188 -0.1160
  528MOL0     H71267   0.658   1.088   4.289  0.2462 -0.0533  0.8030
  528MOL0     H71268   0.877   1.183   4.275 -0.7895  1.5315  0.3393
  528MOL0     H71269   0.762   1.276   4.170  1.9488  3.9698 -0.0232
  528MOL0     H71270   0.951   1.399   4.165 -0.9603  0.8318 -1.5689
  528MOL0     H71271   0.945   1.315   4.010 -0.1103  1.0487  0.6554
  528MOL0     H71272   1.103   1.149   4.103  0.9271  1.0862 -0.2888
  528MOL0     H71273   1.138   1.248   4.252  0.7117  1.1448  0.2484
  528MOL0     H71274   1.303   1.318   4.056  0.0774  2.7821 -1.0435
  528MOL0     H71275   1.165   1.349   3.965  3.1291 -0.3802 -0.8447
  528MOL0     H71276   1.234   1.700   4.213 -0.6179 -0.5649 -0.4297
  528MOL0     H71277   0.818   0.903   3.944  0.0550 -2.4023 -0.3824
  528MOL0     H71278   0.551   0.713   3.843  0.8314 -1.5498 -0.2669
  528MOL0     H71279   0.722   0.724   3.837 -3.4726  2.7176 -3.1056
  528MOL0     H71280   0.652   0.611   3.945 -1.1822 -0.2012 -0.3200
  529MOL0     O71281   4.684   5.294   2.382  1.1892 -0.2354  0.6084
  529MOL0     C71282   4.704   5.203   2.302 -0.6348  0.4644  0.0113
  529MOL0     O71283   4.635   5.185   2.183  0.3964  0.5447  0.6476
  529MOL0     C71284   4.498   5.216   2.175 -0.4695  0.7719 -0.1439
  529MOL0     C71285   4.449   5.256   2.053  0.1477 -0.6433 -1.6142
  529MOL0     C71286   4.317   5.296   2.043  0.9412  0.1049 -0.3133
  529MOL0     C71287   4.223   5.263   2.142  0.1098  0.3072 -0.1066
  529MOL0     O71288   4.087   5.290   2.124  0.4502  0.8521 -0.2927
  529MOL0     C71289   4.026   5.347   2.000  0.0419 -0.2290  0.1960
  529MOL0     C71290   4.028   5.499   1.995 -0.5008  0.1151 -0.1686
  529MOL0     C71291   3.935   5.553   2.092 -0.0918 -0.1875 -0.1005
  529MOL0     C71292   3.944   5.708   2.077  1.0989  0.7580  0.3078
  529MOL0     C71293   3.891   5.792   2.188 -0.9261 -0.4025  0.3467
  529MOL0     C71294   3.748   5.746   2.253  0.1229  0.3585 -0.1966
  529MOL0     C71295   3.701   5.851   2.343 -0.1394  0.0996  0.0733
  529MOL0     C71296   3.569   5.821   2.410  0.3861  0.6388  0.8458
  529MOL0     N71297   3.540   5.910   2.510 -1.1992 -0.3814 -0.2246
  529MOL0     C71298   3.519   6.047   2.498 -0.6954 -0.0984 -0.0935
  529MOL0     C71299   3.494   6.079   2.624  0.6462 -0.3766  0.3498
  529MOL0     C71300   3.466   6.219   2.670 -0.2082  0.6319  0.6242
  529MOL0     C71301   3.558   6.278   2.772  0.2148  0.8289  0.6287
  529MOL0     C71302   3.667   6.376   2.710  0.3081 -0.3189 -0.2583
  529MOL0     C71303   3.753   6.309   2.602  0.6822 -0.0353  0.1318
  529MOL0     O71304   3.811   6.192   2.657  0.0689 -0.8250  0.6325
  529MOL0     C71305   3.907   6.129   2.581 -0.2211  0.2408  0.2423
  529MOL0     C71306   3.985   6.031   2.649  0.5317  0.0433  0.3810
  529MOL0     C71307   4.094   5.958   2.575  0.3010  1.0010  0.2407
  529MOL0     C71308   4.125   5.989   2.444 -0.3819  0.9942  0.1415
  529MOL0     C71309   4.226   5.922   2.364  0.8640  0.3064 -0.4377
  529MOL0     O71310   4.281   5.806   2.415 -0.3341  0.3589 -0.7665
  529MOL0     C71311   4.382   5.751   2.337 -0.0865 -0.8079  0.1228
  529MOL0     C71312   4.365   5.661   2.236  0.1439  0.6234 -0.5721
  529MOL0     C71313   4.469   5.627   2.150 -0.1566  0.1635  0.8106
  529MOL0     C71314   4.594   5.663   2.180 -0.7898 -0.8273  0.2467
  529MOL0     O71315   4.687   5.644   2.082 -0.1211 -0.6600 -0.7362
  529MOL0     C71316   4.785   5.550   2.131  0.4782 -0.0608  0.5443
  529MOL0     C71317   4.907   5.630   2.164 -1.0280  0.2855 -0.5390
  529MOL0     C71318   5.003   5.542   2.244 -1.0836  1.1246  0.2561
  529MOL0     C71319   5.035   5.412   2.176 -0.4165  0.2649 -0.0737
  529MOL0     C71320   5.145   5.335   2.240 -0.3628  0.0285  0.3315
  529MOL0     C71321   5.169   5.202   2.159  0.2705  0.5556  0.2310
  529MOL0     C71322   5.242   5.108   2.242 -0.2636 -0.2462 -0.4656
  529MOL0     C71323   5.383   5.174   2.278 -0.3800  0.3774  0.0638
  529MOL0    Cl71324   5.485   5.058   2.372 -0.2346 -0.3465  0.2448
  529MOL0     C71325   4.622   5.747   2.294  0.1361 -0.8420  0.8076
  529MOL0     C71326   4.515   5.792   2.362  0.5993  0.1016 -0.5121
  529MOL0     O71327   4.257   5.977   2.260  0.4861 -0.3328  0.2094
  529MOL0     C71328   4.035   6.086   2.383  0.9076  0.1705 -0.9952
  529MOL0     C71329   3.929   6.157   2.444  0.1591  0.6082 -0.0167
  529MOL0     N71330   3.515   5.963   2.707 -0.1720  0.0615 -0.6310
  529MOL0     N71331   3.554   5.870   2.637  0.3200  0.3814  0.1335
  529MOL0     C71332   4.278   5.220   2.269  0.6819 -0.8224  0.7788
  529MOL0     C71333   4.414   5.213   2.290  0.0149 -0.0343  0.4522
  529MOL0     C71334   4.805   5.097   2.350  0.6171 -1.0570  0.6782
  529MOL0     C71335   4.886   5.120   2.469  0.1619  1.0090  0.1299
  529MOL0     C71336   4.981   5.023   2.509 -0.2317 -0.1232 -0.2143
  529MOL0     C71337   4.992   4.903   2.459  0.4420  0.0431  0.2193
  529MOL0     O71338   5.060   4.814   2.533 -0.9053  0.3470  0.7905
  529MOL0     C71339   5.001   4.698   2.585 -0.7705 -0.9651  0.0049
  529MOL0     C71340   5.132   4.615   2.619  1.0925 -0.2295  0.5045
  529MOL0     C71341   5.098   4.465   2.630  0.8459  0.3209  0.4697
  529MOL0     C71342   5.214   4.377   2.574 -0.7422 -0.3889 -1.2541
  529MOL0     C71343   5.165   4.242   2.612  0.4824  1.0326  0.4826
  529MOL0     C71344   5.111   4.131   2.631  0.2263  0.0214 -0.2328
  529MOL0     C71345   4.905   4.871   2.353  0.2236  0.4960  0.6416
  529MOL0     C71346   4.823   4.963   2.289 -0.2568 -0.2296 -0.6439
  529MOL0     C71347   4.752   4.916   2.165  0.6246 -0.0963 -0.4720
  529MOL0     H71348   4.505   5.281   1.964 -0.1224 -3.5724 -2.7197
  529MOL0     H71349   4.289   5.346   1.951 -0.8102  0.7795  0.5331
  529MOL0     H71350   4.078   5.299   1.916 -1.3144 -3.1600  0.9007
  529MOL0     H71351   3.919   5.323   1.989  0.8295 -3.9566 -0.6405
  529MOL0     H71352   4.015   5.544   1.896 -0.7117 -1.2264 -0.7690
  529MOL0     H71353   4.128   5.532   2.025 -0.8584  2.0717 -0.9206
  529MOL0     H71354   3.963   5.529   2.195 -1.1282  0.5042  0.3558
  529MOL0     H71355   3.833   5.518   2.073  0.0821 -1.2959  0.8289
  529MOL0     H71356   4.051   5.733   2.072  0.7305  2.2071 -1.1783
  529MOL0     H71357   3.895   5.738   1.984 -0.0193 -1.6389  0.0477
  529MOL0     H71358   3.968   5.801   2.265  1.2656  2.8053 -1.9673
  529MOL0     H71359   3.886   5.892   2.144 -1.1286 -0.4672  0.2185
  529MOL0     H71360   3.670   5.729   2.178 -1.4164 -1.4167  1.6911
  529MOL0     H71361   3.764   5.657   2.315 -1.5252 -0.1914 -0.5152
  529MOL0     H71362   3.704   5.949   2.296  2.2202  0.8547  1.6277
  529MOL0     H71363   3.782   5.860   2.415  1.8768  2.1479 -2.2795
  529MOL0     H71364   3.491   5.822   2.333 -0.5146 -0.7466  1.6865
  529MOL0     H71365   3.563   5.718   2.447 -1.2928 -0.9091 -3.1474
  529MOL0     H71366   3.504   6.116   2.416 -0.8106  1.3435  1.0956
  529MOL0     H71367   3.466   6.293   2.590  2.7171  0.1043  0.0306
  529MOL0     H71368   3.361   6.221   2.700 -0.0572 -2.0261  1.6097
  529MOL0     H71369   3.513   6.358   2.832 -0.2583  2.2115 -1.4513
  529MOL0     H71370   3.599   6.202   2.839 -0.1111  1.6238  1.7515
  529MOL0     H71371   3.730   6.418   2.789 -0.3918 -0.4068  0.3492
  529MOL0     H71372   3.614   6.457   2.659  2.0197 -0.4748 -2.4670
  529MOL0     H71373   3.826   6.380   2.564 -0.3893 -0.3395 -2.7455
  529MOL0     H71374   3.697   6.288   2.511  0.4842 -0.9368  0.4484
  529MOL0     H71375   3.961   6.000   2.750  0.4339  1.7926  0.9151
  529MOL0     H71376   4.148   5.882   2.631 -0.6929  1.2556  1.6100
  529MOL0     H71377   4.259   5.638   2.227  0.3122 -0.0609 -0.8539
  529MOL0     H71378   4.463   5.571   2.057  0.8460  0.1014  0.7669
  529MOL0     H71379   4.745   5.496   2.217  0.8117 -1.5516 -0.2112
  529MOL0     H71380   4.807   5.481   2.049  2.0268  2.5089 -1.3510
  529MOL0     H71381   4.951   5.678   2.076  0.5540 -1.5129 -0.7782
  529MOL0     H71382   4.900   5.709   2.240 -1.0082 -0.3727  0.1651
  529MOL0     H71383   5.102   5.582   2.268  1.6192 -2.3009 -3.7753
  529MOL0     H71384   4.955   5.520   2.340 -0.6995 -1.7411 -0.1044
  529MOL0     H71385   5.057   5.429   2.070  0.9572  0.2296  0.1808
  529MOL0     H71386   4.941   5.357   2.184 -2.0043  2.7436 -0.7343
  529MOL0     H71387   5.113   5.305   2.340  2.0656 -1.1381  0.8203
  529MOL0     H71388   5.232   5.401   2.251 -1.4297  1.4447  0.6357
  529MOL0     H71389   5.068   5.166   2.139 -0.6633  3.0300  0.0586
  529MOL0     H71390   5.214   5.229   2.063 -2.6114 -0.2892 -1.4770
  529MOL0     H71391   5.266   5.018   2.185 -0.9615  1.3495 -3.5203
  529MOL0     H71392   5.189   5.076   2.332 -1.2400 -3.3591 -2.0118
  529MOL0     H71393   5.445   5.207   2.194  1.2254 -1.9903  0.2164
  529MOL0     H71394   5.368   5.255   2.349  0.3730  0.4239  0.1795
  529MOL0     H71395   4.721   5.790   2.308 -0.6060  1.1914  0.0086
  529MOL0     H71396   4.529   5.869   2.437  1.2098  0.0314 -0.5515
  529MOL0     H71397   4.062   6.111   2.281 -0.9085  1.6299 -1.1678
  529MOL0     H71398   3.871   6.231   2.390 -1.8684 -0.2426  0.8739
  529MOL0     H71399   4.203   5.193   2.342 -0.3172 -1.1479 -0.3348
  529MOL0     H71400   4.446   5.187   2.391  1.4806 -0.1132 -0.0039
  529MOL0     H71401   4.890   5.212   2.527  1.5780  0.1419  1.5116
  529MOL0     H71402   5.046   5.046   2.593 -1.0613  0.9118  0.1807
  529MOL0     H71403   4.942   4.648   2.508 -0.4058  0.0616 -0.9523
  529MOL0     H71404   4.944   4.719   2.676  0.0003 -1.4944  0.6298
  529MOL0     H71405   5.172   4.658   2.711  3.2190  0.9981 -0.8955
  529MOL0     H71406   5.198   4.638   2.535 -0.7622  2.8946 -0.2651
  529MOL0     H71407   5.013   4.450   2.563  1.7312 -0.0392 -0.6100
  529MOL0     H71408   5.080   4.433   2.733  3.5358  1.0579  1.2394
  529MOL0     H71409   5.231   4.392   2.467  0.7343  0.3600 -0.9447
  529MOL0     H71410   5.309   4.394   2.625 -0.6189 -0.1402 -1.5617
  529MOL0     H71411   5.074   4.031   2.641 -2.1629  0.7876 -0.6133
  529MOL0     H71412   4.904   4.767   2.321  0.2790  0.6360  0.1871
  529MOL0     H71413   4.659   4.866   2.193  0.1785  1.2559  0.5140
  529MOL0     H71414   4.732   4.999   2.096 -1.4670  2.4170  2.8751
  529MOL0     H71415   4.805   4.841   2.105 -0.6460 -0.3230 -1.3465
  530MOL0     O71416   0.615   0.182   2.896  0.3133  0.4806  0.2872
  530MOL0     C71417   0.541   0.088   2.860 -0.4042 -0.2001 -0.1115
  530MOL0     O71418   0.457   0.096   2.756 -0.5164 -0.0350 -0.5967
  530MOL0     C71419   0.453   0.207   2.683  0.4149  0.1822  0.9106
  530MOL0     C71420   0.348   0.295   2.701  0.3740  1.0260  0.4635
  530MOL0     C71421   0.344   0.413   2.625  0.1127  0.2572 -0.1328
  530MOL0     C71422   0.445   0.432   2.529  0.2802 -0.9589  0.7596
  530MOL0     O71423   0.444   0.539   2.439  0.2307  0.3087 -0.4438
  530MOL0     C71424   0.366   0.654   2.481 -0.9822 -1.0529 -1.2562
  530MOL0     C71425   0.372   0.742   2.357  0.3595  0.0336  0.5005
  530MOL0     C71426   0.297   0.881   2.358 -0.4471 -0.1166  0.1138
  530MOL0     C71427   0.144   0.878   2.389  0.2060  0.2157 -0.3155
  530MOL0     C71428   0.070   1.011   2.381  1.1096 -0.0992  0.2891
  530MOL0     C71429   0.103   1.116   2.273 -0.4147 -0.1483 -0.5437
  530MOL0     C71430   0.099   1.269   2.313 -0.1530  0.6768  0.2315
  530MOL0     C71431  -0.034   1.321   2.366 -0.6237 -0.3886  0.4601
  530MOL0     N71432  -0.017   1.477   2.395  0.8226 -0.3151  0.8190
  530MOL0     C71433   0.077   1.533   2.470  0.3993 -0.2910  0.6829
  530MOL0     C71434   0.054   1.667   2.457  0.6927 -0.3764  0.5238
  530MOL0     C71435   0.127   1.780   2.520  0.1063  0.4348  0.4838
  530MOL0     C71436   0.177   1.776   2.674  0.6568 -0.0347 -0.0682
  530MOL0     C71437   0.061   1.729   2.769  0.0541 -0.3326  0.8338
  530MOL0     C71438   0.075   1.754   2.915  1.1130  0.3290  0.1302
  530MOL0     O71439  -0.038   1.715   2.992  0.2704 -0.4141  0.2083
  530MOL0     C71440  -0.150   1.801   3.001  0.0419  0.2281  0.0577
  530MOL0     C71441  -0.263   1.758   3.074  0.7565  0.5379  0.9874
  530MOL0     C71442  -0.379   1.836   3.093 -0.0343  0.2831  0.2594
  530MOL0     C71443  -0.390   1.959   3.022 -0.0690  0.2915 -0.6002
  530MOL0     C71444  -0.504   2.043   3.030  0.3981  0.4478 -0.2175
  530MOL0     O71445  -0.609   1.988   3.109  0.3112 -0.2203 -0.4109
  530MOL0     C71446  -0.723   2.061   3.132  1.1526  0.4660 -0.4028
  530MOL0     C71447  -0.830   1.997   3.075 -0.9455  0.4295 -0.6223
  530MOL0     C71448  -0.959   2.052   3.071  0.7132 -0.3198  0.2097
  530MOL0     C71449  -0.986   2.166   3.156  0.0566  0.4500  0.5006
  530MOL0     O71450  -1.115   2.190   3.201  0.8165 -0.2015 -0.0063
  530MOL0     C71451  -1.154   2.326   3.239 -0.0089 -0.8744  0.1556
  530MOL0     C71452  -1.294   2.362   3.205  0.1884 -0.4794 -0.2027
  530MOL0     C71453  -1.337   2.505   3.249 -0.6071  0.7791 -0.1075
  530MOL0     C71454  -1.485   2.523   3.208 -1.0131 -0.7254  0.9410
  530MOL0     C71455  -1.515   2.672   3.252 -0.7608  0.6606 -0.2345
  530MOL0     C71456  -1.660   2.699   3.222  0.7635 -0.7446  0.1764
  530MOL0     C71457  -1.717   2.786   3.338 -0.5108  0.6996 -0.7081
  530MOL0     C71458  -1.823   2.884   3.282 -0.3535  0.4477  0.0818
  530MOL0    Cl71459  -1.918   2.958   3.412 -0.2540 -0.0938 -0.4313
  530MOL0     C71460  -0.885   2.231   3.209  0.5028  0.0785 -0.1672
  530MOL0     C71461  -0.746   2.187   3.196  0.2301 -0.4629 -0.2457
  530MOL0     O71462  -0.510   2.158   2.986  0.0897  0.5828 -0.5321
  530MOL0     C71463  -0.278   2.008   2.953  0.7343  0.5736 -1.3759
  530MOL0     C71464  -0.166   1.934   2.945 -0.3043  0.4070 -0.7544
  530MOL0     N71465  -0.063   1.679   2.372 -0.8775 -0.3454  0.3626
  530MOL0     N71466  -0.104   1.563   2.341 -0.3842  0.1171  0.8179
  530MOL0     C71467   0.536   0.326   2.496 -0.1249  0.1075  0.8989
  530MOL0     C71468   0.548   0.217   2.579  0.5383 -0.3452  0.1242
  530MOL0     C71469   0.521  -0.038   2.940 -0.1770  0.5643  0.1809
  530MOL0     C71470   0.404  -0.109   2.919  0.8604 -0.0310 -0.7659
  530MOL0     C71471   0.364  -0.208   3.013 -0.9169 -0.4289 -0.2573
  530MOL0     C71472   0.454  -0.265   3.108  0.0321 -0.4208  0.4739
  530MOL0     O71473   0.407  -0.366   3.188 -0.5376  0.6698 -0.3296
  530MOL0     C71474   0.503  -0.448   3.248  0.2712  0.0380 -0.5317
  530MOL0     C71475   0.603  -0.512   3.154 -0.0698  0.1472  0.2854
  530MOL0     C71476   0.688  -0.613   3.232 -0.1481  0.2486  0.4110
  530MOL0     C71477   0.764  -0.703   3.118  0.2273  0.2265  0.0515
  530MOL0     C71478   0.856  -0.802   3.175  0.3940 -0.2948 -0.0472
  530MOL0     C71479   0.935  -0.860   3.234 -1.0496  0.5118  0.0956
  530MOL0     C71480   0.582  -0.202   3.119 -0.0776  0.1439 -0.9489
  530MOL0     C71481   0.614  -0.096   3.037  0.5097 -0.3623  0.6061
  530MOL0     C71482   0.741  -0.023   3.061  0.3286  0.6452 -0.2915
  530MOL0     H71483   0.284   0.267   2.784  1.0026 -0.8232  0.3725
  530MOL0     H71484   0.253   0.472   2.627  0.0221  0.5385 -4.1280
  530MOL0     H71485   0.266   0.616   2.504 -0.3525 -0.1511  4.4883
  530MOL0     H71486   0.410   0.688   2.575 -1.2223 -6.9174  1.3944
  530MOL0     H71487   0.318   0.681   2.284  1.0867  1.3448 -1.2305
  530MOL0     H71488   0.474   0.755   2.317  0.5005 -5.5949 -1.9006
  530MOL0     H71489   0.307   0.920   2.257 -3.1690 -0.1281 -0.2194
  530MOL0     H71490   0.347   0.948   2.429  0.8282 -1.5148  0.5996
  530MOL0     H71491   0.116   0.804   2.314  2.2328  0.9282 -1.8503
  530MOL0     H71492   0.137   0.839   2.491  2.2996  3.4166  1.2238
  530MOL0     H71493  -0.036   0.983   2.378  1.2168 -0.4483 -0.6273
  530MOL0     H71494   0.079   1.067   2.474 -2.0371  1.3279 -0.1201
  530MOL0     H71495   0.199   1.100   2.224 -0.0170  0.5411 -0.0011
  530MOL0     H71496   0.031   1.117   2.190  0.7287 -1.2667 -1.5894
  530MOL0     H71497   0.136   1.331   2.231 -1.4266  0.4031 -0.5651
  530MOL0     H71498   0.169   1.277   2.397  1.2104 -3.2012 -0.3575
  530MOL0     H71499  -0.110   1.294   2.292  1.1398 -2.6860 -0.6572
  530MOL0     H71500  -0.066   1.268   2.456  0.4210 -0.5231  0.7707
  530MOL0     H71501   0.149   1.478   2.529  0.8984 -2.4658 -1.7573
  530MOL0     H71502   0.215   1.788   2.455 -0.6083  0.7126 -0.4537
  530MOL0     H71503   0.070   1.868   2.490  0.3335 -0.2958 -2.4123
  530MOL0     H71504   0.260   1.704   2.677  0.9230  0.2734  3.1761
  530MOL0     H71505   0.217   1.876   2.693 -0.0381  0.5158 -1.3845
  530MOL0     H71506   0.055   1.620   2.755 -0.3324 -0.5072  2.2802
  530MOL0     H71507  -0.027   1.770   2.719  1.2007 -1.6168 -2.5586
  530MOL0     H71508   0.088   1.860   2.938 -0.3301  0.1021  2.1668
  530MOL0     H71509   0.172   1.713   2.947  0.5176 -0.4797  0.9267
  530MOL0     H71510  -0.259   1.658   3.117 -2.0660  0.4042  1.1204
  530MOL0     H71511  -0.457   1.799   3.158  1.5512 -3.1640  0.3969
  530MOL0     H71512  -0.810   1.909   3.014 -1.3795 -0.6413  0.7193
  530MOL0     H71513  -1.035   1.992   3.023 -1.2923  4.6828 -3.8000
  530MOL0     H71514  -1.131   2.349   3.343  0.8209  0.3189 -0.2700
  530MOL0     H71515  -1.107   2.392   3.166 -0.0788 -1.3189 -0.2999
  530MOL0     H71516  -1.311   2.338   3.100  1.3709 -0.7064 -0.3501
  530MOL0     H71517  -1.351   2.286   3.260  1.5005 -3.3626 -2.5389
  530MOL0     H71518  -1.322   2.504   3.357  0.3567 -0.0298 -0.2354
  530MOL0     H71519  -1.281   2.587   3.202  0.5271 -0.9671 -1.9321
  530MOL0     H71520  -1.559   2.454   3.248 -1.6115 -0.4573  0.3018
  530MOL0     H71521  -1.490   2.521   3.099 -3.3722  2.1546  0.8691
  530MOL0     H71522  -1.443   2.742   3.208  0.5757 -0.7307 -0.3436
  530MOL0     H71523  -1.488   2.676   3.358 -2.5278 -0.5532  0.3053
  530MOL0     H71524  -1.685   2.748   3.127 -0.2661  1.1092  1.3468
  530MOL0     H71525  -1.723   2.610   3.225  0.4184 -0.6039 -1.6654
  530MOL0     H71526  -1.640   2.850   3.382  0.6513 -0.3764 -1.1250
  530MOL0     H71527  -1.759   2.722   3.416  2.3779 -0.6211 -0.0971
  530MOL0     H71528  -1.773   2.953   3.214  0.1316 -1.6004 -1.7628
  530MOL0     H71529  -1.901   2.838   3.220 -1.0948  1.3037  0.3678
  530MOL0     H71530  -0.903   2.315   3.276  1.2556  2.0489 -2.3152
  530MOL0     H71531  -0.670   2.234   3.257 -0.6169  1.2287 -0.4275
  530MOL0     H71532  -0.295   2.107   2.913 -6.1489 -0.5605 -2.5588
  530MOL0     H71533  -0.087   1.978   2.885  2.0037  1.3392  2.6636
  530MOL0     H71534   0.606   0.335   2.413  1.8514  2.0655  2.6490
  530MOL0     H71535   0.608   0.129   2.561  0.1960 -1.5120  3.8282
  530MOL0     H71536   0.323  -0.087   2.850 -0.5729 -0.4203  0.7154
  530MOL0     H71537   0.262  -0.245   3.005 -1.7183  1.9878 -2.2234
  530MOL0     H71538   0.445  -0.531   3.290 -0.1772 -0.3894 -1.9328
  530MOL0     H71539   0.544  -0.389   3.330 -1.1148  0.3122 -0.0024
  530MOL0     H71540   0.675  -0.438   3.117 -0.0069  0.4621  1.0200
  530MOL0     H71541   0.550  -0.553   3.067 -0.4470  0.3073  0.4343
  530MOL0     H71542   0.621  -0.684   3.281 -1.4303 -3.4595 -5.5760
  530MOL0     H71543   0.758  -0.559   3.296 -1.2028  2.4342 -0.1590
  530MOL0     H71544   0.686  -0.746   3.054 -0.2217  0.4616  0.4297
  530MOL0     H71545   0.822  -0.639   3.051  1.4368 -0.5673  0.3068
  530MOL0     H71546   1.015  -0.918   3.275 -1.5624 -1.3520 -1.4222
  530MOL0     H71547   0.652  -0.225   3.198 -0.2046 -0.2635 -0.9554
  530MOL0     H71548   0.730   0.053   3.138  1.1882  0.6567 -0.1705
  530MOL0     H71549   0.823  -0.085   3.099  1.2158  0.6150 -2.1301
  530MOL0     H71550   0.792   0.021   2.975  0.0210  0.0800 -0.7727
  531MOL0     O71551   5.249   5.855   9.682 -0.0988 -0.2099  0.5812
  531MOL0     C71552   5.131   5.860   9.673  0.1051  0.9480  0.0614
  531MOL0     O71553   5.047   5.897   9.776  0.4231  0.1611 -0.5392
  531MOL0     C71554   5.081   5.879   9.912  0.3817 -0.6398 -0.2902
  531MOL0     C71555   5.195   5.812   9.980 -0.9005  0.4417  0.1322
  531MOL0     C71556   5.221   5.821  10.119  0.1865  0.6939 -0.4341
  531MOL0     C71557   5.129   5.876  10.199  0.8256  0.0144  0.1149
  531MOL0     O71558   5.127   5.884  10.334  0.0735 -0.6161 -0.7491
  531MOL0     C71559   5.243   5.849  10.406 -0.9543 -0.6642 -0.8971
  531MOL0     C71560   5.226   5.858  10.562 -0.7443  0.8949 -0.7150
  531MOL0     C71561   5.199   6.006  10.590  1.0857  0.4875 -0.7741
  531MOL0     C71562   5.236   6.063  10.734  0.7976  1.2048  1.0181
  531MOL0     C71563   5.190   6.211  10.753  0.0934  0.1749  0.1398
  531MOL0     C71564   5.195   6.253  10.904 -0.3219  1.0259 -0.1857
  531MOL0     C71565   5.201   6.410  10.919  0.0869 -0.4736 -0.2270
  531MOL0     C71566   5.345   6.440  10.955 -0.1676 -0.6793  0.9278
  531MOL0     N71567   5.359   6.420  11.104 -0.3831  0.7401  0.5494
  531MOL0     C71568   5.287   6.493  11.202  0.2774 -0.3077  0.4352
  531MOL0     C71569   5.339   6.463  11.318 -0.1795  0.9403  0.2379
  531MOL0     C71570   5.300   6.515  11.450 -0.3774 -0.9467  0.4353
  531MOL0     C71571   5.393   6.639  11.481  0.6645 -0.4740  0.1204
  531MOL0     C71572   5.349   6.701  11.619 -0.9696 -0.3981 -0.3401
  531MOL0     C71573   5.432   6.818  11.679 -0.2998 -0.6252 -0.6951
  531MOL0     O71574   5.343   6.935  11.679 -0.4827 -0.1122  0.4635
  531MOL0     C71575   5.237   6.952  11.758 -0.0302  0.3297 -0.8142
  531MOL0     C71576   5.164   7.071  11.746  0.5136 -0.5299 -0.8303
  531MOL0     C71577   5.061   7.097  11.839 -0.3215 -0.8617  1.0362
  531MOL0     C71578   5.015   7.006  11.929  0.8949 -1.2951 -0.6260
  531MOL0     C71579   4.928   7.051  12.042 -0.2945  0.0403  0.2302
  531MOL0     O71580   4.871   6.949  12.107  1.5300  0.1612  0.6979
  531MOL0     C71581   4.758   6.977  12.181 -1.0254  0.7273  0.3938
  531MOL0     C71582   4.786   7.007  12.316  0.7616 -0.0311 -0.2563
  531MOL0     C71583   4.677   7.005  12.401 -1.0201  0.0753 -0.2272
  531MOL0     C71584   4.540   6.977  12.360 -0.2668  0.5940 -0.2729
  531MOL0     O71585   4.438   6.977  12.451  0.1953 -0.0216  0.1081
  531MOL0     C71586   4.307   7.005  12.407  0.2849 -0.0229  0.1419
  531MOL0     C71587   4.203   6.969  12.515  0.1879  0.0347  0.6632
  531MOL0     C71588   4.058   7.008  12.486  0.5293 -0.0291  0.5353
  531MOL0     C71589   3.976   6.970  12.604 -0.5198 -0.3336 -0.6761
  531MOL0     C71590   3.826   7.006  12.582 -0.4148 -0.6244 -0.0731
  531MOL0     C71591   3.777   7.152  12.601 -0.4766 -0.7225  0.1949
  531MOL0     C71592   3.830   7.260  12.507  0.7915 -0.0567  0.4613
  531MOL0     C71593   3.797   7.221  12.356  0.2529 -0.0136 -0.0009
  531MOL0    Cl71594   3.622   7.184  12.335 -0.7922 -0.0577  0.2010
  531MOL0     C71595   4.526   6.937  12.227  0.1102  1.3232 -1.5200
  531MOL0     C71596   4.629   6.951  12.135 -0.4870  0.9033 -0.7816
  531MOL0     O71597   4.935   7.169  12.078  0.3421  1.1294  0.2024
  531MOL0     C71598   5.079   6.883  11.928  0.5561  0.1572 -0.3139
  531MOL0     C71599   5.188   6.852  11.852 -0.4508 -0.0778  0.1401
  531MOL0     N71600   5.441   6.372  11.297  0.3836  0.3925 -0.8374
  531MOL0     N71601   5.452   6.345  11.173  0.8707  0.7593 -0.2967
  531MOL0     C71602   5.012   5.935  10.139 -0.1400 -0.4887 -0.2642
  531MOL0     C71603   4.998   5.944  10.003  0.0061  0.8868 -0.5823
  531MOL0     C71604   5.068   5.828   9.536  0.4363  0.9453  0.3301
  531MOL0     C71605   4.997   5.932   9.470 -0.5116  1.0242 -0.4659
  531MOL0     C71606   4.959   5.919   9.334 -0.0179 -0.1062  0.4959
  531MOL0     C71607   5.004   5.812   9.256  1.5519 -0.2291  0.7498
  531MOL0     O71608   4.984   5.824   9.124  0.4801  0.1542  0.5904
  531MOL0     C71609   5.006   5.708   9.037 -0.0259 -1.4087 -0.6805
  531MOL0     C71610   4.888   5.712   8.933  0.2690 -0.1539  0.2000
  531MOL0     C71611   4.903   5.832   8.843  0.6701  0.7433  0.2442
  531MOL0     C71612   4.767   5.877   8.783 -0.0983  0.1293 -0.6545
  531MOL0     C71613   4.667   5.782   8.742 -0.3806 -0.1704  0.2230
  531MOL0     C71614   4.568   5.714   8.719  0.6540  0.4528 -0.6591
  531MOL0     C71615   5.069   5.705   9.325 -0.4584 -0.0656  0.7733
  531MOL0     C71616   5.100   5.708   9.458 -1.1659 -0.6781 -0.3904
  531MOL0     C71617   5.197   5.604   9.505 -0.0990 -0.5529 -0.8667
  531MOL0     H71618   5.272   5.777   9.912 -2.2763 -1.8535 -0.3356
  531MOL0     H71619   5.304   5.761  10.156  0.2437  0.3093 -1.1765
  531MOL0     H71620   5.268   5.744  10.392 -0.3386 -0.6771  0.1813
  531MOL0     H71621   5.332   5.905  10.375  0.5631 -2.0164  0.8000
  531MOL0     H71622   5.305   5.803  10.614  0.2897 -0.6477 -3.6705
  531MOL0     H71623   5.136   5.802  10.591 -1.2939  2.5080  0.8119
  531MOL0     H71624   5.092   6.023  10.579  0.4908 -0.9546  1.9305
  531MOL0     H71625   5.244   6.078  10.521 -0.6980  0.6318 -1.8426
  531MOL0     H71626   5.207   5.997  10.817  3.3318 -0.6861  0.5297
  531MOL0     H71627   5.345   6.068  10.736  0.9455 -1.0172  2.1006
  531MOL0     H71628   5.250   6.287  10.703 -0.3108  0.1811 -0.3422
  531MOL0     H71629   5.093   6.214  10.703  1.0488 -1.7128 -1.9991
  531MOL0     H71630   5.112   6.211  10.960 -1.2775  0.8830 -1.6578
  531MOL0     H71631   5.287   6.202  10.933  0.1233  2.3809  0.8877
  531MOL0     H71632   5.130   6.437  10.997  1.4613 -0.5187  1.0875
  531MOL0     H71633   5.168   6.457  10.826 -1.6889 -1.2082 -0.0065
  531MOL0     H71634   5.408   6.371  10.898 -0.5141  0.5692 -1.0745
  531MOL0     H71635   5.356   6.547  10.935 -1.2702 -0.8421 -0.7792
  531MOL0     H71636   5.209   6.569  11.202  2.4581  2.2045  3.6638
  531MOL0     H71637   5.200   6.551  11.427 -0.4302 -0.2686  1.6484
  531MOL0     H71638   5.307   6.450  11.538  2.3341 -0.2854  0.8175
  531MOL0     H71639   5.496   6.603  11.483  0.1677 -1.9805  1.9664
  531MOL0     H71640   5.371   6.705  11.397 -2.6910  0.1991  1.3597
  531MOL0     H71641   5.369   6.619  11.688 -0.2541  0.2084  0.1910
  531MOL0     H71642   5.248   6.742  11.614 -0.4649  0.9450  0.1442
  531MOL0     H71643   5.524   6.835  11.622  1.1672  2.0065  2.1379
  531MOL0     H71644   5.467   6.790  11.779 -0.9473 -2.0886 -0.8549
  531MOL0     H71645   5.203   7.151  11.686 -0.3644  0.2417 -0.3954
  531MOL0     H71646   5.012   7.192  11.823  2.4259  0.4574 -0.2582
  531MOL0     H71647   4.889   7.033  12.337  1.0837  0.9403 -2.6320
  531MOL0     H71648   4.703   7.016  12.505  1.8495 -0.8936 -0.7539
  531MOL0     H71649   4.310   7.112  12.384 -1.2618 -0.2261 -1.1527
  531MOL0     H71650   4.293   6.945  12.316 -2.8634  1.4799 -0.4845
  531MOL0     H71651   4.210   6.868  12.557 -0.5037 -1.3092 -2.1973
  531MOL0     H71652   4.241   7.042  12.587 -0.5612 -0.8894  2.0607
  531MOL0     H71653   4.067   7.116  12.469  3.7582  0.2173  2.8596
  531MOL0     H71654   4.012   6.953  12.403 -0.0625 -2.4484  2.3373
  531MOL0     H71655   4.005   7.012  12.700 -1.4324  2.0333 -1.3782
  531MOL0     H71656   3.983   6.861  12.615  1.3028 -0.3475 -1.6446
  531MOL0     H71657   3.768   6.953  12.657 -1.6209 -0.9630 -1.2126
  531MOL0     H71658   3.780   6.968  12.490 -0.4295  0.3032 -0.4633
  531MOL0     H71659   3.667   7.148  12.605 -0.6609  0.4447 -2.0270
  531MOL0     H71660   3.818   7.186  12.696  2.3117 -2.4260 -0.2742
  531MOL0     H71661   3.938   7.266  12.521  0.6129 -0.2582  2.2058
  531MOL0     H71662   3.782   7.356  12.528  1.8170  0.6026 -0.1235
  531MOL0     H71663   3.828   7.298  12.284 -2.4390  0.0271 -1.2090
  531MOL0     H71664   3.850   7.127  12.337  0.3594  0.4033 -1.9867
  531MOL0     H71665   4.432   6.911  12.179 -1.6826  0.3700  2.1962
  531MOL0     H71666   4.613   6.925  12.031 -0.7069 -0.9523 -0.3242
  531MOL0     H71667   5.046   6.799  11.988  2.8557 -1.0076 -0.5866
  531MOL0     H71668   5.241   6.759  11.871  0.7050  0.6671  0.6460
  531MOL0     H71669   4.934   5.994  10.187 -0.2370  0.8146 -1.9336
  531MOL0     H71670   4.917   5.995   9.952  0.7614 -2.0156 -5.2149
  531MOL0     H71671   4.990   6.026   9.524 -1.5075  0.2676  0.7788
  531MOL0     H71672   4.914   6.003   9.281 -1.3907 -1.6863 -0.9623
  531MOL0     H71673   4.978   5.617   9.092 -3.0960  1.1835  2.5377
  531MOL0     H71674   5.107   5.704   8.995 -0.1682  0.9349 -1.3762
  531MOL0     H71675   4.793   5.723   8.987  0.3731 -2.5717  1.0257
  531MOL0     H71676   4.882   5.615   8.881 -3.3058  0.0849 -0.1352
  531MOL0     H71677   4.976   5.811   8.764  0.0859  1.2793 -0.4536
  531MOL0     H71678   4.937   5.922   8.896 -0.5868  0.8822  0.8461
  531MOL0     H71679   4.725   5.937   8.864  1.1691  0.6558 -0.3662
  531MOL0     H71680   4.785   5.940   8.696  2.1695 -2.1717 -1.9909
  531MOL0     H71681   4.489   5.651   8.684  0.4165  0.7271 -0.6245
  531MOL0     H71682   5.095   5.610   9.280 -3.3051 -2.3991  3.6022
  531MOL0     H71683   5.250   5.552   9.425 -0.1215  0.7326 -1.7505
  531MOL0     H71684   5.266   5.624   9.587 -0.7199 -0.4207 -0.3659
  531MOL0     H71685   5.127   5.526   9.537 -0.1126 -1.2769 -2.5474
  532MOL0     O71686   5.770   1.185   6.678 -0.0434 -0.1231  0.1353
  532MOL0     C71687   5.688   1.098   6.640  0.3969 -0.9324 -1.1392
  532MOL0     O71688   5.686   0.978   6.696  0.6224  0.5704 -0.2095
  532MOL0     C71689   5.755   0.972   6.808  0.8709 -1.0009 -0.4278
  532MOL0     C71690   5.872   0.905   6.791 -0.4293 -0.0044  0.7402
  532MOL0     C71691   5.954   0.895   6.900  1.2734  0.4571  0.2851
  532MOL0     C71692   5.932   0.947   7.023  0.0681  0.3663 -0.4562
  532MOL0     O71693   6.027   0.937   7.128  0.1555 -0.4805  0.6433
  532MOL0     C71694   6.114   1.051   7.141  0.2113 -0.3723 -0.7496
  532MOL0     C71695   6.260   1.007   7.137  0.2601  0.3045  0.3024
  532MOL0     C71696   6.354   1.120   7.186  0.3996  0.3006 -0.3173
  532MOL0     C71697   6.497   1.094   7.149 -0.5908  0.5272 -0.4893
  532MOL0     C71698   6.597   1.182   7.221  0.3761 -0.7829 -0.0419
  532MOL0     C71699   6.738   1.147   7.218  0.3162  0.1799  1.0331
  532MOL0     C71700   6.760   1.014   7.284 -0.7860  0.6781  0.2644
  532MOL0     C71701   6.912   1.010   7.309 -0.4007  0.0560  0.2141
  532MOL0     N71702   6.994   1.016   7.176  0.4024  0.5749  0.2953
  532MOL0     C71703   7.010   0.911   7.080  0.3287  0.6739 -0.1855
  532MOL0     C71704   7.078   0.961   6.974 -1.0395  0.0014 -0.8097
  532MOL0     C71705   7.122   0.888   6.850 -0.1423  0.2463  0.5230
  532MOL0     C71706   7.027   0.919   6.736 -0.7539 -0.1426  0.1592
  532MOL0     C71707   7.086   0.869   6.599  0.7919 -0.6430 -0.7799
  532MOL0     C71708   6.995   0.901   6.472  0.4645  0.5403  0.3404
  532MOL0     O71709   7.052   0.826   6.359  0.4318  0.6458  0.3505
  532MOL0     C71710   6.985   0.832   6.239 -0.3991 -0.7638  0.1085
  532MOL0     C71711   6.857   0.897   6.220  0.1769  0.5424  0.1268
  532MOL0     C71712   6.793   0.900   6.088  0.4208  0.7188  0.2791
  532MOL0     C71713   6.856   0.841   5.983 -0.4455 -0.2318 -0.4267
  532MOL0     C71714   6.793   0.846   5.850  0.2224 -0.0497  0.6521
  532MOL0     O71715   6.867   0.810   5.734 -0.2650  0.4851  1.0904
  532MOL0     C71716   6.800   0.816   5.612 -0.3426 -0.3348 -0.4697
  532MOL0     C71717   6.766   0.706   5.548  0.5555 -0.3102 -0.0781
  532MOL0     C71718   6.716   0.705   5.415 -0.3694 -0.1053  0.3768
  532MOL0     C71719   6.675   0.825   5.357  0.4480 -0.2394 -0.4640
  532MOL0     O71720   6.600   0.822   5.241 -0.2760  0.1834  0.5815
  532MOL0     C71721   6.615   0.926   5.152  0.0557 -1.0550  0.1553
  532MOL0     C71722   6.641   0.870   5.005 -0.2787  0.3168 -0.7177
  532MOL0     C71723   6.738   0.742   4.994  0.5126 -0.0416 -0.4964
  532MOL0     C71724   6.771   0.707   4.844 -0.5093 -0.3096 -0.0527
  532MOL0     C71725   6.836   0.563   4.824  0.2746  0.0814  0.0893
  532MOL0     C71726   6.852   0.513   4.683 -0.0531 -0.6891 -0.6980
  532MOL0     C71727   6.996   0.536   4.617 -0.7560 -0.2150  0.9761
  532MOL0     C71728   6.992   0.597   4.475 -0.0683  0.1378  0.8614
  532MOL0    Cl71729   6.916   0.761   4.475  0.4367 -0.6293  0.2994
  532MOL0     C71730   6.695   0.942   5.432  0.2272  0.0131 -0.2813
  532MOL0     C71731   6.760   0.935   5.559  0.2514  0.1237  0.0591
  532MOL0     O71732   6.678   0.884   5.851 -0.8658 -0.1573 -0.4233
  532MOL0     C71733   6.984   0.780   5.999 -0.3976 -0.6577  0.6158
  532MOL0     C71734   7.040   0.768   6.126 -0.2590 -0.1944 -0.8610
  532MOL0     N71735   7.095   1.093   7.008 -0.0178  0.2104  1.0352
  532MOL0     N71736   7.067   1.124   7.121 -0.0502  0.8503 -0.2226
  532MOL0     C71737   5.807   1.003   7.041 -0.5790 -0.4061 -0.3475
  532MOL0     C71738   5.721   1.024   6.936 -0.7063 -0.7557 -0.7072
  532MOL0     C71739   5.593   1.136   6.537  0.8457  0.6724 -0.6716
  532MOL0     C71740   5.588   1.269   6.499 -0.1358 -0.7707  1.5369
  532MOL0     C71741   5.486   1.320   6.416  0.0711 -0.2157 -0.1700
  532MOL0     C71742   5.392   1.238   6.354 -0.5515  0.4398  0.3673
  532MOL0     O71743   5.296   1.292   6.282 -0.0986  0.2847 -0.2996
  532MOL0     C71744   5.312   1.411   6.201  0.2935  0.1963 -0.3614
  532MOL0     C71745   5.252   1.377   6.066  0.5652  0.0937 -0.6249
  532MOL0     C71746   5.290   1.245   6.000  0.4641 -0.8451 -1.0385
  532MOL0     C71747   5.441   1.224   5.978 -0.2850 -0.5409 -0.2452
  532MOL0     C71748   5.494   1.302   5.873 -0.1316  0.2883 -0.6688
  532MOL0     C71749   5.556   1.378   5.808 -0.2294 -0.0811  0.3760
  532MOL0     C71750   5.394   1.104   6.395  0.3510 -0.0241  0.2079
  532MOL0     C71751   5.489   1.049   6.481  0.3121  0.6012 -0.3185
  532MOL0     C71752   5.470   0.906   6.513 -0.2873  0.8006  0.0099
  532MOL0     H71753   5.887   0.856   6.695 -0.5707  1.7780 -0.2625
  532MOL0     H71754   6.047   0.840   6.887  0.3908 -0.9747 -0.2732
  532MOL0     H71755   6.084   1.124   7.065  0.4126  3.0356  2.1738
  532MOL0     H71756   6.092   1.093   7.240  0.6478 -0.2075 -0.7232
  532MOL0     H71757   6.278   0.996   7.030 -1.2013  0.3519  0.0263
  532MOL0     H71758   6.272   0.917   7.197 -1.1424 -1.7461 -2.3238
  532MOL0     H71759   6.336   1.124   7.294  0.8408 -2.6347 -0.0534
  532MOL0     H71760   6.323   1.212   7.137  1.8920 -0.4891 -2.9099
  532MOL0     H71761   6.527   0.993   7.178  3.6824  2.1443  1.6953
  532MOL0     H71762   6.516   1.098   7.042 -0.9652  0.3583 -0.5624
  532MOL0     H71763   6.582   1.284   7.186 -3.4497 -1.2195 -0.1058
  532MOL0     H71764   6.564   1.197   7.324 -3.5933  0.3602 -1.2877
  532MOL0     H71765   6.777   1.146   7.115 -2.4936  0.7322 -0.1214
  532MOL0     H71766   6.801   1.224   7.264 -1.4935  2.4837 -0.1415
  532MOL0     H71767   6.725   0.933   7.219 -1.1847  3.0163 -2.6468
  532MOL0     H71768   6.712   0.992   7.379  0.2808 -0.9691  0.4598
  532MOL0     H71769   6.947   1.089   7.377  2.0517 -0.2777 -0.5374
  532MOL0     H71770   6.925   0.916   7.362  1.2142 -0.1730 -0.5122
  532MOL0     H71771   6.978   0.810   7.101 -1.8627  1.4081  0.3347
  532MOL0     H71772   7.227   0.913   6.832 -0.2703  0.7606  0.4823
  532MOL0     H71773   7.121   0.780   6.866  1.4269  0.3453  1.4853
  532MOL0     H71774   6.932   0.868   6.754 -1.6009 -0.2355 -3.6295
  532MOL0     H71775   7.012   1.027   6.728  0.3229 -0.0651 -1.2734
  532MOL0     H71776   7.111   0.763   6.610 -1.3066 -1.3614 -2.3423
  532MOL0     H71777   7.178   0.923   6.578  0.9580 -0.6578 -0.1029
  532MOL0     H71778   7.007   1.008   6.456  2.6768  0.6630  2.4638
  532MOL0     H71779   6.891   0.870   6.491  0.4655  0.4250  0.1689
  532MOL0     H71780   6.788   0.942   6.291 -1.5775 -0.4896 -0.8548
  532MOL0     H71781   6.701   0.957   6.079 -0.6581 -1.2683 -2.8974
  532MOL0     H71782   6.797   0.610   5.588 -1.7929 -0.0510  2.7680
  532MOL0     H71783   6.680   0.621   5.357 -2.2562  0.0096  1.3186
  532MOL0     H71784   6.528   0.991   5.149  1.6452  1.2986 -3.9935
  532MOL0     H71785   6.697   0.994   5.177  2.4308 -2.9289 -1.9378
  532MOL0     H71786   6.542   0.854   4.960 -1.0786  0.9728  0.7395
  532MOL0     H71787   6.679   0.954   4.948 -2.3732  1.7499 -0.1385
  532MOL0     H71788   6.830   0.783   5.035 -0.0810  3.1592 -1.9966
  532MOL0     H71789   6.692   0.658   5.046  1.5765 -0.1493  0.3015
  532MOL0     H71790   6.839   0.787   4.816 -0.3957 -0.7185 -0.9817
  532MOL0     H71791   6.679   0.709   4.785 -1.3725 -3.9724  0.8801
  532MOL0     H71792   6.761   0.499   4.872  0.8983  1.1429  2.6631
  532MOL0     H71793   6.929   0.540   4.878 -1.5528 -0.8660  3.0713
  532MOL0     H71794   6.826   0.407   4.677 -0.1262 -0.5810 -3.8053
  532MOL0     H71795   6.776   0.563   4.622  0.7003  3.4086  1.3515
  532MOL0     H71796   7.053   0.445   4.597  3.2453  2.5020 -1.5057
  532MOL0     H71797   7.047   0.610   4.679 -1.2522 -1.3294  2.7710
  532MOL0     H71798   7.087   0.605   4.420 -2.5736  1.6296 -3.7627
  532MOL0     H71799   6.925   0.530   4.421 -2.2521  0.4363  3.0226
  532MOL0     H71800   6.669   1.043   5.399 -0.4993  1.5937  4.4263
  532MOL0     H71801   6.758   1.032   5.609 -3.6733  0.8731 -1.1668
  532MOL0     H71802   7.043   0.747   5.914 -1.4769 -0.0192 -0.4117
  532MOL0     H71803   7.141   0.731   6.140  0.3262  1.2122 -1.2772
  532MOL0     H71804   5.791   1.054   7.136 -0.0423 -1.2523  0.2088
  532MOL0     H71805   5.635   1.089   6.944 -1.4157 -1.7714  0.3889
  532MOL0     H71806   5.656   1.342   6.541 -0.6803 -1.0646  3.0285
  532MOL0     H71807   5.478   1.427   6.400  1.2389 -0.4571 -3.0256
  532MOL0     H71808   5.418   1.440   6.197  0.8134 -1.6210 -0.7765
  532MOL0     H71809   5.263   1.503   6.234  0.0797  0.8218 -2.2756
  532MOL0     H71810   5.271   1.459   5.996 -2.0972  0.1862 -1.3772
  532MOL0     H71811   5.143   1.382   6.077  0.7899 -0.8019  3.6548
  532MOL0     H71812   5.237   1.235   5.905 -2.5458 -0.2470  0.4429
  532MOL0     H71813   5.271   1.167   6.074 -0.7449 -0.9548 -1.4453
  532MOL0     H71814   5.501   1.247   6.066 -4.4385 -0.7017  2.9189
  532MOL0     H71815   5.462   1.117   5.968  0.7286 -0.4547  0.8534
  532MOL0     H71816   5.611   1.460   5.764 -0.4061  1.4463  2.8312
  532MOL0     H71817   5.324   1.036   6.349  1.3651 -2.1861  1.6932
  532MOL0     H71818   5.399   0.852   6.451 -1.2936  2.7465 -0.5992
  532MOL0     H71819   5.561   0.845   6.506  0.4116  1.3641  2.9724
  532MOL0     H71820   5.434   0.901   6.616 -2.4944 -4.1595 -0.6870
  533MOL0     O71821   6.301   1.466   0.292  0.1994 -0.2492  0.4884
  533MOL0     C71822   6.226   1.496   0.387  0.3690 -1.4771  0.1185
  533MOL0     O71823   6.124   1.429   0.432  0.4308 -0.4755 -0.4992
  533MOL0     C71824   6.090   1.305   0.393 -0.2560 -0.0348 -1.1684
  533MOL0     C71825   6.184   1.210   0.339 -0.3611  0.1101 -0.1902
  533MOL0     C71826   6.139   1.087   0.287  0.2495 -1.1422  0.7674
  533MOL0     C71827   5.998   1.060   0.288 -0.4327  0.1129 -0.0659
  533MOL0     O71828   5.952   0.937   0.240 -0.0010  0.1271 -0.1436
  533MOL0     C71829   5.827   0.927   0.177 -0.1440 -0.0772  0.5571
  533MOL0     C71830   5.836   0.823   0.072  0.5010  0.1688  0.7724
  533MOL0     C71831   5.973   0.799   0.015  0.5906 -0.4132  0.0783
  533MOL0     C71832   6.027   0.926  -0.056 -0.1382  0.5162  0.5571
  533MOL0     C71833   6.115   0.890  -0.177 -0.3371 -0.1088 -0.6668
  533MOL0     C71834   6.261   0.865  -0.125  0.3511 -0.1295  0.6767
  533MOL0     C71835   6.338   0.775  -0.227 -0.2687  0.3218 -0.7475
  533MOL0     C71836   6.282   0.629  -0.219  0.4312 -0.4259  0.4245
  533MOL0     N71837   6.375   0.532  -0.287  1.0005 -0.0632 -1.3392
  533MOL0     C71838   6.472   0.455  -0.229  0.4197 -0.6397 -0.2212
  533MOL0     C71839   6.508   0.358  -0.315  0.3308 -0.4331 -0.5520
  533MOL0     C71840   6.604   0.238  -0.295  0.1824  1.0141 -0.7686
  533MOL0     C71841   6.546   0.128  -0.217  0.2685  0.2676  0.1971
  533MOL0     C71842   6.435   0.066  -0.306 -0.6442  0.8850  0.4443
  533MOL0     C71843   6.358  -0.045  -0.232 -0.3664  0.9099 -0.1249
  533MOL0     O71844   6.223  -0.066  -0.291  0.6989 -0.8211  0.3086
  533MOL0     C71845   6.123  -0.126  -0.208 -0.5055  0.4593 -0.1618
  533MOL0     C71846   6.157  -0.218  -0.115  0.1907  0.8125  0.2972
  533MOL0     C71847   6.054  -0.280  -0.049  0.1137  0.3898 -1.0242
  533MOL0     C71848   5.925  -0.241  -0.069 -0.0246  0.9099  0.3070
  533MOL0     C71849   5.809  -0.289   0.005 -0.2403  0.2341 -0.2853
  533MOL0     O71850   5.851  -0.365   0.111 -0.2575 -0.1572 -0.1452
  533MOL0     C71851   5.752  -0.428   0.186 -0.4797  1.0401 -0.4350
  533MOL0     C71852   5.727  -0.414   0.331  0.5110 -0.2745  0.1348
  533MOL0     C71853   5.636  -0.487   0.398 -0.8239  0.0115  0.3360
  533MOL0     C71854   5.556  -0.574   0.320  1.3467 -0.5930 -1.1051
  533MOL0     O71855   5.454  -0.655   0.379  0.2442 -0.4731  0.0171
  533MOL0     C71856   5.467  -0.686   0.522  0.3498  0.0875  0.7107
  533MOL0     C71857   5.382  -0.600   0.619 -0.5164  0.0304  0.6070
  533MOL0     C71858   5.446  -0.599   0.757  0.4418 -0.0384  0.1453
  533MOL0     C71859   5.396  -0.477   0.851 -1.2091  0.0620  0.0481
  533MOL0     C71860   5.430  -0.504   0.998  0.6680  0.3178  1.0557
  533MOL0     C71861   5.407  -0.378   1.086  0.2164  0.4561  0.6004
  533MOL0     C71862   5.261  -0.328   1.109  0.8653 -1.5554 -0.2705
  533MOL0     C71863   5.262  -0.196   1.197 -0.6854  0.4941 -0.5197
  533MOL0    Cl71864   5.321  -0.221   1.366  0.4820  0.3202  0.1316
  533MOL0     C71865   5.579  -0.595   0.185  0.1216 -0.1935  0.3411
  533MOL0     C71866   5.677  -0.520   0.123 -0.6341 -0.0038 -0.0569
  533MOL0     O71867   5.695  -0.269  -0.030 -0.8053  0.0236  0.5117
  533MOL0     C71868   5.890  -0.143  -0.167 -1.3894 -0.2149 -1.1900
  533MOL0     C71869   5.997  -0.081  -0.230  0.1026 -0.3535 -0.3460
  533MOL0     N71870   6.433   0.384  -0.429 -1.4735  0.5399  0.4760
  533MOL0     N71871   6.346   0.489  -0.414  0.2786 -0.6433  0.4095
  533MOL0     C71872   5.914   1.148   0.352  0.3028  0.6000  0.4754
  533MOL0     C71873   5.955   1.266   0.415 -0.7265 -0.3206  0.9163
  533MOL0     C71874   6.282   1.603   0.469  0.3289 -0.1977 -0.0008
  533MOL0     C71875   6.332   1.564   0.598  0.2836  0.6135  1.4911
  533MOL0     C71876   6.377   1.659   0.692 -0.2538  0.9412 -0.1275
  533MOL0     C71877   6.367   1.791   0.657 -0.0817 -0.0294  0.5370
  533MOL0     O71878   6.408   1.901   0.731 -0.1155  0.5410 -0.0807
  533MOL0     C71879   6.482   1.876   0.848  0.9814  0.1367 -0.5778
  533MOL0     C71880   6.405   1.829   0.977 -0.2833 -0.2573  1.2657
  533MOL0     C71881   6.469   1.873   1.111  0.0865 -0.3856  0.8217
  533MOL0     C71882   6.582   1.781   1.160 -0.3350  0.1858  0.5942
  533MOL0     C71883   6.711   1.786   1.081  0.8721 -0.2093  0.5220
  533MOL0     C71884   6.825   1.790   1.028  0.6673  0.0159  0.3208
  533MOL0     C71885   6.332   1.828   0.528 -0.3099 -0.1463 -0.7389
  533MOL0     C71886   6.297   1.738   0.431 -0.1818 -0.4528 -0.6374
  533MOL0     C71887   6.266   1.791   0.291  0.1167  0.9002 -0.4791
  533MOL0     H71888   6.290   1.231   0.328 -0.8881  2.0180 -2.2679
  533MOL0     H71889   6.215   1.031   0.232 -0.8193  0.2684 -2.3596
  533MOL0     H71890   5.742   0.908   0.243 -0.1275 -0.4467  0.4755
  533MOL0     H71891   5.811   1.024   0.130 -0.4272  0.0287  0.8723
  533MOL0     H71892   5.769   0.848  -0.011  3.4508  2.2407 -1.1959
  533MOL0     H71893   5.798   0.728   0.111  2.9520 -1.9492 -1.5886
  533MOL0     H71894   5.970   0.715  -0.054 -0.8136  0.9904 -1.6672
  533MOL0     H71895   6.049   0.771   0.088  1.2326  3.0662  0.9011
  533MOL0     H71896   5.941   0.982  -0.093 -0.5145 -0.7565 -0.5740
  533MOL0     H71897   6.081   0.992   0.013 -1.0599  1.7598  0.1215
  533MOL0     H71898   6.065   0.802  -0.220 -2.8216  1.8334 -2.0254
  533MOL0     H71899   6.105   0.978  -0.241  0.2050 -0.2886 -1.0086
  533MOL0     H71900   6.309   0.963  -0.116 -0.4349  0.4478 -1.0845
  533MOL0     H71901   6.263   0.824  -0.023 -5.5421  2.0014  2.0569
  533MOL0     H71902   6.442   0.772  -0.194  0.0640  0.8196 -1.7152
  533MOL0     H71903   6.340   0.811  -0.330 -1.1811 -0.3277 -1.0010
  533MOL0     H71904   6.278   0.601  -0.113 -0.5091 -1.0056  0.2554
  533MOL0     H71905   6.176   0.623  -0.248  1.0456 -1.0607 -1.9084
  533MOL0     H71906   6.501   0.458  -0.125  1.3620 -0.5748 -0.4757
  533MOL0     H71907   6.647   0.190  -0.384 -0.6438  0.7888 -1.0551
  533MOL0     H71908   6.688   0.276  -0.236 -0.4201  1.0001  0.1090
  533MOL0     H71909   6.617   0.048  -0.196  1.1550  1.4282  1.8025
  533MOL0     H71910   6.488   0.158  -0.129 -1.9484 -0.0397 -1.0596
  533MOL0     H71911   6.459   0.038  -0.409 -1.3736 -1.7497  0.9262
  533MOL0     H71912   6.356   0.141  -0.313 -1.1169  0.2472 -1.7711
  533MOL0     H71913   6.360  -0.030  -0.124  2.2391  0.3652 -0.0334
  533MOL0     H71914   6.419  -0.135  -0.244 -1.8030 -0.2181  0.5995
  533MOL0     H71915   6.260  -0.241  -0.090  0.9127 -1.9729 -4.2234
  533MOL0     H71916   6.079  -0.351   0.029 -3.9550  1.6462  1.7020
  533MOL0     H71917   5.786  -0.340   0.384 -0.7986 -1.4435  3.4957
  533MOL0     H71918   5.631  -0.478   0.506  1.9831 -0.9726  0.6270
  533MOL0     H71919   5.441  -0.792   0.529  3.2979 -0.6275  3.0178
  533MOL0     H71920   5.571  -0.684   0.555 -0.0583  0.6444  2.0729
  533MOL0     H71921   5.372  -0.499   0.579  1.9709  1.0266  2.2213
  533MOL0     H71922   5.287  -0.655   0.617  1.4393 -3.7037  0.1098
  533MOL0     H71923   5.426  -0.697   0.802  1.2574 -0.2835 -0.0083
  533MOL0     H71924   5.554  -0.584   0.752  0.2405  1.9149  0.8739
  533MOL0     H71925   5.287  -0.474   0.847 -1.2704 -1.5159 -3.9136
  533MOL0     H71926   5.446  -0.384   0.823  1.1995 -0.3584  2.4352
  533MOL0     H71927   5.538  -0.524   1.008  0.8158  0.6459  0.1862
  533MOL0     H71928   5.374  -0.582   1.049 -0.2369 -0.3226 -0.8245
  533MOL0     H71929   5.439  -0.407   1.186 -0.9960  1.3943  1.3026
  533MOL0     H71930   5.469  -0.301   1.040 -0.3055 -2.0858 -5.1960
  533MOL0     H71931   5.208  -0.402   1.170 -0.0262 -0.3195  0.4876
  533MOL0     H71932   5.202  -0.311   1.019 -1.2282 -1.3466  1.0781
  533MOL0     H71933   5.331  -0.134   1.139  1.5772 -1.2233  0.1938
  533MOL0     H71934   5.162  -0.152   1.201 -0.1975  1.7498 -1.4429
  533MOL0     H71935   5.522  -0.674   0.138  0.2795 -0.6757  0.9495
  533MOL0     H71936   5.709  -0.543   0.021  3.4688 -1.7347  1.3998
  533MOL0     H71937   5.786  -0.125  -0.189 -1.4613  1.2528  0.1405
  533MOL0     H71938   5.977  -0.003  -0.303 -1.2289  3.8056  3.9706
  533MOL0     H71939   5.813   1.114   0.375  1.0258 -1.5709  0.6851
  533MOL0     H71940   5.887   1.336   0.464 -0.4674  0.7710 -0.2164
  533MOL0     H71941   6.339   1.457   0.614 -0.0553  0.6444  1.8357
  533MOL0     H71942   6.408   1.624   0.790  0.3206  0.6964 -0.3951
  533MOL0     H71943   6.520   1.977   0.867 -2.4940  1.7028 -1.1919
  533MOL0     H71944   6.573   1.821   0.821  2.1123  1.8447 -0.4283
  533MOL0     H71945   6.408   1.719   0.974  0.4076 -0.2308 -2.0332
  533MOL0     H71946   6.300   1.857   0.967 -0.4220 -1.0821  0.2632
  533MOL0     H71947   6.401   1.862   1.196 -1.7273 -2.3199 -0.7637
  533MOL0     H71948   6.500   1.976   1.094  1.4737 -0.7283  1.1537
  533MOL0     H71949   6.621   1.834   1.247  1.1369  6.4622 -3.1837
  533MOL0     H71950   6.543   1.683   1.189  2.8797 -1.7009 -0.9710
  533MOL0     H71951   6.916   1.778   0.972 -0.5697 -1.7727 -1.4392
  533MOL0     H71952   6.335   1.933   0.503 -0.5866  1.1690  3.8322
  533MOL0     H71953   6.290   1.896   0.271  2.3428  0.8181  1.3445
  533MOL0     H71954   6.327   1.726   0.228 -0.5136  0.1120 -0.2942
  533MOL0     H71955   6.159   1.777   0.270  0.0757 -0.8342  0.6926
  534MOL0     O71956   4.827   1.277   7.755  0.0374  0.0198  0.0365
  534MOL0     C71957   4.737   1.350   7.706 -0.4765 -0.0822  0.1811
  534MOL0     O71958   4.705   1.484   7.745  0.1165  0.4876 -0.6093
  534MOL0     C71959   4.758   1.517   7.869 -0.7209 -0.0400  0.4963
  534MOL0     C71960   4.870   1.595   7.893 -0.3291  0.4852  0.1946
  534MOL0     C71961   4.932   1.611   8.012 -0.3144 -0.2414 -0.5048
  534MOL0     C71962   4.866   1.567   8.130 -0.6250  0.7010 -0.2243
  534MOL0     O71963   4.921   1.566   8.257 -0.3361 -0.1993  0.1440
  534MOL0     C71964   5.039   1.646   8.281  0.9511 -0.7412  0.4765
  534MOL0     C71965   5.077   1.667   8.425  0.1811 -0.0803 -0.0840
  534MOL0     C71966   5.099   1.537   8.493 -1.7144  1.0599 -1.1836
  534MOL0     C71967   5.210   1.542   8.586  0.3843  0.5727  0.0849
  534MOL0     C71968   5.340   1.534   8.505 -0.2637  0.1572  0.3143
  534MOL0     C71969   5.395   1.392   8.491  0.1676 -0.2332 -0.3896
  534MOL0     C71970   5.529   1.404   8.403 -1.7277  0.2781  0.1782
  534MOL0     C71971   5.657   1.444   8.485 -0.0107 -0.0828 -0.2382
  534MOL0     N71972   5.779   1.467   8.407 -0.4577 -0.3270 -0.2337
  534MOL0     C71973   5.800   1.563   8.306 -0.3376  0.3438  0.2538
  534MOL0     C71974   5.932   1.553   8.272 -0.0158 -0.0852 -0.7618
  534MOL0     C71975   6.013   1.639   8.178 -0.1771  0.8357 -0.4828
  534MOL0     C71976   6.104   1.732   8.258 -0.7150  0.0558  0.0062
  534MOL0     C71977   6.030   1.844   8.328 -0.2533  0.8254  0.1136
  534MOL0     C71978   6.109   1.908   8.444 -0.1575  0.4457 -0.4327
  534MOL0     O71979   6.225   1.963   8.391 -0.4463 -0.3865 -0.5336
  534MOL0     C71980   6.294   2.042   8.476 -0.1253  0.6319 -0.2027
  534MOL0     C71981   6.406   2.104   8.425  0.3822 -0.6746 -0.3736
  534MOL0     C71982   6.490   2.192   8.499  0.0805 -0.4348  0.1167
  534MOL0     C71983   6.453   2.228   8.630  0.4041  0.7177  0.4969
  534MOL0     C71984   6.534   2.330   8.710  0.0951  0.6201 -0.0406
  534MOL0     O71985   6.475   2.366   8.829  0.7027 -0.2815 -0.0175
  534MOL0     C71986   6.531   2.453   8.910  0.3712  0.4744  0.3761
  534MOL0     C71987   6.450   2.543   8.972  0.4373 -1.1969 -0.1775
  534MOL0     C71988   6.501   2.610   9.084 -0.4686  0.2420  0.0830
  534MOL0     C71989   6.632   2.603   9.122  0.3854 -0.1787 -0.7875
  534MOL0     O71990   6.673   2.683   9.225 -0.8579 -0.4466  0.1101
  534MOL0     C71991   6.805   2.746   9.202  0.4496 -0.6286 -0.4485
  534MOL0     C71992   6.800   2.844   9.071  0.8666  0.2659  0.3889
  534MOL0     C71993   6.904   2.959   9.071 -0.4209  0.4803  0.9063
  534MOL0     C71994   7.047   2.895   9.051  0.4422 -0.0665 -0.2004
  534MOL0     C71995   7.167   2.986   9.014 -0.3901 -0.0150 -0.1333
  534MOL0     C71996   7.211   3.084   9.130  0.5319 -0.2857  0.4082
  534MOL0     C71997   7.346   3.145   9.091  0.4097 -0.0520  0.7549
  534MOL0     C71998   7.464   3.117   9.190  0.3505  0.1940  0.5013
  534MOL0    Cl71999   7.447   3.169   9.360 -0.5656  0.2294  0.0035
  534MOL0     C72000   6.711   2.516   9.058  0.1868  0.1437 -0.2499
  534MOL0     C72001   6.662   2.443   8.947  0.5629  0.7123  0.0820
  534MOL0     O72002   6.642   2.370   8.665 -0.2547 -0.2754  0.3527
  534MOL0     C72003   6.341   2.161   8.684 -0.0986 -0.8382  0.0692
  534MOL0     C72004   6.273   2.066   8.609  0.4357  0.5266 -0.1775
  534MOL0     N72005   5.985   1.462   8.362 -0.8218  0.5163  0.2438
  534MOL0     N72006   5.901   1.409   8.436  0.0641 -0.0290 -0.0652
  534MOL0     C72007   4.738   1.505   8.116  0.2125  0.7520 -0.3541
  534MOL0     C72008   4.684   1.478   7.990 -1.3876  0.6320  0.6484
  534MOL0     C72009   4.668   1.297   7.586 -0.0352 -0.9859 -0.2860
  534MOL0     C72010   4.593   1.391   7.515  0.4939 -2.0640 -0.1774
  534MOL0     C72011   4.499   1.361   7.417 -1.2954  0.2262 -0.3303
  534MOL0     C72012   4.482   1.224   7.377 -0.3399  0.3644 -0.1325
  534MOL0     O72013   4.388   1.204   7.281 -0.1740  0.6430  0.1123
  534MOL0     C72014   4.341   1.070   7.256  1.0175  0.9633 -0.4029
  534MOL0     C72015   4.237   1.028   7.358 -0.6654  0.0245 -0.4815
  534MOL0     C72016   4.189   0.883   7.329 -0.2125  0.0225 -0.1435
  534MOL0     C72017   4.297   0.772   7.376  0.6305  0.0595  0.6727
  534MOL0     C72018   4.219   0.653   7.370 -0.0273 -0.0997  0.2529
  534MOL0     C72019   4.160   0.549   7.362 -0.6092 -0.4975 -0.5341
  534MOL0     C72020   4.583   1.137   7.428  0.5013 -0.0343 -0.2621
  534MOL0     C72021   4.671   1.166   7.535  0.0234 -0.5124  0.9477
  534MOL0     C72022   4.778   1.063   7.570  0.3152 -0.2767 -0.0769
  534MOL0     H72023   4.928   1.623   7.806  1.2377  1.7028  1.5807
  534MOL0     H72024   5.026   1.664   7.997 -0.1654 -0.9452 -2.2314
  534MOL0     H72025   5.121   1.616   8.216 -0.4101  2.8916 -3.4029
  534MOL0     H72026   5.033   1.750   8.246 -0.5755 -1.4548 -1.5982
  534MOL0     H72027   4.996   1.714   8.482  0.6536 -1.3642  1.7317
  534MOL0     H72028   5.164   1.733   8.437  0.8287 -1.3684  3.5809
  534MOL0     H72029   5.110   1.448   8.431 -0.7105 -1.3486  2.1508
  534MOL0     H72030   5.005   1.515   8.545 -1.6379  1.0512 -1.0511
  534MOL0     H72031   5.188   1.629   8.649 -1.1760  1.9061 -2.2019
  534MOL0     H72032   5.205   1.450   8.645 -0.1501  0.4811 -0.1026
  534MOL0     H72033   5.324   1.579   8.406 -3.1839 -3.3230 -1.0086
  534MOL0     H72034   5.421   1.585   8.558  1.0535 -2.1347  0.6283
  534MOL0     H72035   5.414   1.339   8.585  1.6180 -0.1687 -0.6152
  534MOL0     H72036   5.330   1.337   8.423 -1.6448  0.4707  0.7046
  534MOL0     H72037   5.508   1.474   8.322 -1.0337  1.2545  0.8030
  534MOL0     H72038   5.547   1.305   8.360  1.9991  1.6073 -1.7899
  534MOL0     H72039   5.629   1.540   8.529 -2.3143 -0.8273  0.0449
  534MOL0     H72040   5.677   1.371   8.563 -2.0307 -1.1758 -0.6782
  534MOL0     H72041   5.731   1.637   8.266 -0.9026 -0.0773  0.4442
  534MOL0     H72042   6.080   1.582   8.114  1.0036  0.7720  0.7600
  534MOL0     H72043   5.937   1.693   8.122 -0.3298  2.4123  1.1544
  534MOL0     H72044   6.159   1.673   8.331  0.3946  1.7621  0.6039
  534MOL0     H72045   6.180   1.764   8.185  0.0099 -1.2094  0.1677
  534MOL0     H72046   5.933   1.813   8.367  0.7732 -1.1772  1.2351
  534MOL0     H72047   6.015   1.917   8.248 -0.8682 -0.0172 -0.5522
  534MOL0     H72048   6.133   1.836   8.523  2.7962  1.4381 -0.3122
  534MOL0     H72049   6.042   1.982   8.488  1.4906  0.9274  1.4054
  534MOL0     H72050   6.419   2.085   8.319 -0.6979  0.4228 -0.7269
  534MOL0     H72051   6.577   2.235   8.450  1.5634 -3.0248  0.2999
  534MOL0     H72052   6.343   2.540   8.954  0.4779 -2.5865 -0.3248
  534MOL0     H72053   6.445   2.682   9.143  3.0311  3.1399  0.2582
  534MOL0     H72054   6.818   2.803   9.295 -1.3952 -0.0495 -0.5128
  534MOL0     H72055   6.882   2.669   9.186  1.9504  0.6801  0.1640
  534MOL0     H72056   6.827   2.778   8.988 -1.4502 -0.6135  0.2692
  534MOL0     H72057   6.699   2.883   9.062  0.0429 -2.0446 -1.2553
  534MOL0     H72058   6.886   3.027   8.988 -0.7263  1.6762  1.9394
  534MOL0     H72059   6.905   3.022   9.160 -0.2926  2.3169 -0.3540
  534MOL0     H72060   7.029   2.825   8.968 -1.3836 -0.1685  0.2216
  534MOL0     H72061   7.084   2.829   9.130 -3.5268  0.5496  2.4726
  534MOL0     H72062   7.121   3.043   8.933 -2.1168 -0.9946  0.0994
  534MOL0     H72063   7.249   2.925   8.977 -0.3832  0.2927 -0.6393
  534MOL0     H72064   7.139   3.166   9.144  1.3231  0.8027 -1.4350
  534MOL0     H72065   7.209   3.036   9.228 -1.6329 -0.8076  0.1587
  534MOL0     H72066   7.326   3.253   9.092  1.8036  0.3922 -2.7717
  534MOL0     H72067   7.383   3.128   8.989 -0.4799  0.0500  0.3997
  534MOL0     H72068   7.480   3.008   9.195 -0.9092  0.0591  3.0037
  534MOL0     H72069   7.553   3.162   9.145 -0.7816  0.4283 -1.6533
  534MOL0     H72070   6.816   2.514   9.085  0.3564  2.1530 -0.6121
  534MOL0     H72071   6.718   2.367   8.893 -1.7554 -1.1564  0.0775
  534MOL0     H72072   6.321   2.169   8.791 -1.6109  2.5313 -0.3439
  534MOL0     H72073   6.195   2.007   8.656 -0.4464 -0.9013 -3.1893
  534MOL0     H72074   4.697   1.476   8.212  4.2354  1.0600  1.6380
  534MOL0     H72075   4.585   1.433   7.990 -2.4054  2.7131  1.7743
  534MOL0     H72076   4.602   1.497   7.540  1.6070 -1.6821 -1.9797
  534MOL0     H72077   4.433   1.438   7.380  1.5752  1.3222 -3.6519
  534MOL0     H72078   4.415   0.990   7.267  0.2603  0.6140  3.5968
  534MOL0     H72079   4.289   1.064   7.161 -1.2254 -2.2998  0.8782
  534MOL0     H72080   4.158   1.103   7.348 -1.6523 -1.1178 -1.4348
  534MOL0     H72081   4.280   1.034   7.458  2.2160  0.8341 -1.6529
  534MOL0     H72082   4.185   0.881   7.220 -4.7011 -1.2897 -0.1463
  534MOL0     H72083   4.086   0.872   7.363 -1.6767  0.5763 -4.0074
  534MOL0     H72084   4.373   0.739   7.305  2.0379  3.5888  0.3694
  534MOL0     H72085   4.343   0.796   7.473 -0.6444  0.0535  1.2998
  534MOL0     H72086   4.109   0.455   7.358  0.0637 -0.9738  1.1558
  534MOL0     H72087   4.595   1.034   7.395  1.1309 -0.9466  2.5145
  534MOL0     H72088   4.800   0.992   7.491  1.0083  1.3092 -1.3557
  534MOL0     H72089   4.869   1.120   7.589  1.0071 -1.0276 -1.0669
  534MOL0     H72090   4.745   1.005   7.657 -2.1494 -1.7181 -1.8702
  535MOL0     O72091   4.840  10.619   2.456 -0.2612  0.5122  0.1720
  535MOL0     C72092   4.943  10.613   2.507 -0.4579  1.3980  0.6269
  535MOL0     O72093   5.015  10.500   2.503 -0.1747  0.3397  0.0111
  535MOL0     C72094   4.957  10.378   2.487  0.5153  0.4142  0.0078
  535MOL0     C72095   4.836  10.331   2.538  0.7476 -0.5052  0.4364
  535MOL0     C72096   4.786  10.202   2.509 -0.7407 -0.1918 -0.4373
  535MOL0     C72097   4.870  10.111   2.447  0.7191  0.3505 -1.0515
  535MOL0     O72098   4.840   9.979   2.430 -0.0615 -0.2720 -0.0824
  535MOL0     C72099   4.789   9.959   2.298  0.2448  0.2307  0.4732
  535MOL0     C72100   4.745   9.811   2.291  0.2798  0.4032  0.5036
  535MOL0     C72101   4.673   9.772   2.161 -0.5928  0.0128  0.0324
  535MOL0     C72102   4.683   9.619   2.156 -0.9200 -0.8924  1.1842
  535MOL0     C72103   4.622   9.566   2.020 -0.1797  0.3358 -0.0236
  535MOL0     C72104   4.646   9.417   1.996  0.8692  1.5663  0.8494
  535MOL0     C72105   4.572   9.324   2.100  0.1996 -0.4767  0.6461
  535MOL0     C72106   4.516   9.200   2.036 -0.7902  0.7262 -0.3294
  535MOL0     N72107   4.619   9.118   1.965 -0.5777 -0.7432 -0.1288
  535MOL0     C72108   4.732   9.066   2.025  0.9678 -1.0058 -1.1057
  535MOL0     C72109   4.767   8.965   1.944  0.2389 -0.5497  0.2826
  535MOL0     C72110   4.864   8.853   1.985  0.5256  0.6978  0.2759
  535MOL0     C72111   4.948   8.807   1.855 -0.1025  0.2054  0.0495
  535MOL0     C72112   5.041   8.686   1.886 -0.3334 -1.0309 -0.9182
  535MOL0     C72113   5.134   8.655   1.775  0.1119 -0.1680 -1.0818
  535MOL0     O72114   5.160   8.517   1.787  0.4718  0.7295 -0.6250
  535MOL0     C72115   5.266   8.456   1.733 -0.1721 -0.2066 -0.6173
  535MOL0     C72116   5.292   8.479   1.600  0.6453  0.5896 -0.2900
  535MOL0     C72117   5.378   8.401   1.535  0.6307 -0.0157 -0.3988
  535MOL0     C72118   5.452   8.303   1.609  0.2585 -0.7912  0.7516
  535MOL0     C72119   5.563   8.236   1.548  0.0767  0.0164  0.5257
  535MOL0     O72120   5.674   8.195   1.629 -0.1106 -0.2441  0.4730
  535MOL0     C72121   5.790   8.151   1.564 -0.8713  1.1698 -0.0408
  535MOL0     C72122   5.818   8.013   1.547 -0.0364 -0.1280  0.3043
  535MOL0     C72123   5.950   7.982   1.491  0.7807  0.1077 -0.0379
  535MOL0     C72124   6.037   8.085   1.460 -1.5183 -0.2900  0.2178
  535MOL0     O72125   6.145   8.047   1.385  0.3198 -0.1852 -0.4696
  535MOL0     C72126   6.199   8.138   1.292  1.0179  0.0206  0.0713
  535MOL0     C72127   6.284   8.067   1.186  0.0664 -0.3451  0.0960
  535MOL0     C72128   6.355   8.164   1.084  0.4083 -0.3740  0.1547
  535MOL0     C72129   6.433   8.087   0.975  0.3311  0.0985 -0.7677
  535MOL0     C72130   6.510   8.183   0.881 -0.3625  0.3569  0.0386
  535MOL0     C72131   6.586   8.088   0.793 -0.2360 -0.1620  0.4178
  535MOL0     C72132   6.664   8.160   0.686 -0.6333  0.1553 -0.7778
  535MOL0     C72133   6.589   8.253   0.586 -0.9233 -0.4090  0.0989
  535MOL0    Cl72134   6.443   8.181   0.525  0.6602  0.0138  0.1477
  535MOL0     C72135   6.001   8.224   1.472  0.0555 -0.1036  0.0867
  535MOL0     C72136   5.871   8.253   1.522  1.0197 -1.4207  0.8085
  535MOL0     O72137   5.560   8.230   1.423 -0.0927 -0.1610  0.8846
  535MOL0     C72138   5.432   8.283   1.744  0.3808  0.5046 -0.0388
  535MOL0     C72139   5.335   8.363   1.807  0.1900  0.2315 -0.3283
  535MOL0     N72140   4.690   8.965   1.823  1.1879  0.4632  0.9806
  535MOL0     N72141   4.613   9.068   1.840 -0.9014  1.6346  0.2105
  535MOL0     C72142   4.995  10.141   2.401  0.8988  0.3547  0.2884
  535MOL0     C72143   5.042  10.275   2.429 -0.0032 -0.2122  0.0961
  535MOL0     C72144   5.002  10.746   2.544 -1.3023 -0.6389  1.1243
  535MOL0     C72145   5.141  10.760   2.529 -0.0274 -0.2705  0.6035
  535MOL0     C72146   5.210  10.876   2.552  0.3012  0.2473  0.0665
  535MOL0     C72147   5.144  10.987   2.605 -0.2075 -0.1394  0.4410
  535MOL0     O72148   5.223  11.088   2.633 -0.0558  0.7767 -0.9926
  535MOL0     C72149   5.161  11.201   2.701  1.3863  0.0761 -0.1187
  535MOL0     C72150   5.273  11.297   2.739 -0.1123 -1.1065  0.0812
  535MOL0     C72151   5.387  11.244   2.829  0.9655 -0.3372  0.4314
  535MOL0     C72152   5.499  11.353   2.845  0.8415  1.0455  0.0367
  535MOL0     C72153   5.452  11.483   2.896  0.0559  0.5918  0.0265
  535MOL0     C72154   5.425  11.594   2.934 -0.0773  0.0523  0.0990
  535MOL0     C72155   5.002  10.981   2.615  0.1830 -0.2911 -0.2762
  535MOL0     C72156   4.934  10.859   2.588  0.7518 -0.0457  0.0766
  535MOL0     C72157   4.788  10.868   2.613  0.8105 -0.3715  1.3565
  535MOL0     H72158   4.771  10.397   2.595  1.5410  1.6430 -1.0039
  535MOL0     H72159   4.684  10.172   2.535 -0.4802 -1.0397 -0.3499
  535MOL0     H72160   4.701  10.021   2.282 -0.2228 -0.6150 -0.3864
  535MOL0     H72161   4.866   9.988   2.225  2.2545 -2.9575  1.1169
  535MOL0     H72162   4.685   9.787   2.380 -1.2699  1.9001 -0.0962
  535MOL0     H72163   4.839   9.756   2.292  0.3833  0.5171 -1.1159
  535MOL0     H72164   4.733   9.814   2.080 -0.6773  1.5021  0.7148
  535MOL0     H72165   4.570   9.809   2.156 -0.0833  1.8221  1.6592
  535MOL0     H72166   4.787   9.588   2.170 -0.6245 -0.7834 -0.6246
  535MOL0     H72167   4.634   9.572   2.242 -0.1248 -2.4492  0.8377
  535MOL0     H72168   4.519   9.599   2.031  0.6954  2.9948  1.2943
  535MOL0     H72169   4.678   9.612   1.938 -1.3124 -1.1582 -1.6841
  535MOL0     H72170   4.624   9.391   1.893  0.2693 -0.0819  1.3649
  535MOL0     H72171   4.755   9.404   2.002  0.8517  1.7089  1.5885
  535MOL0     H72172   4.489   9.386   2.138 -0.2226 -1.3325  1.1625
  535MOL0     H72173   4.621   9.291   2.192 -1.2621  0.4577  1.8161
  535MOL0     H72174   4.477   9.141   2.119  1.0587  1.6007  1.2390
  535MOL0     H72175   4.433   9.235   1.974 -3.2565  0.1419  2.4177
  535MOL0     H72176   4.776   9.089   2.121 -0.8249  2.2324 -0.9216
  535MOL0     H72177   4.925   8.886   2.069 -1.8809 -0.2096  2.5000
  535MOL0     H72178   4.806   8.769   2.025 -0.5768  1.7178  0.9207
  535MOL0     H72179   4.885   8.783   1.770  0.7481 -3.1826  0.2472
  535MOL0     H72180   5.017   8.884   1.818  1.4811 -1.7585 -1.2560
  535MOL0     H72181   4.971   8.602   1.897 -0.6184 -0.5208  2.6428
  535MOL0     H72182   5.084   8.685   1.987 -1.8397 -1.7582 -0.2501
  535MOL0     H72183   5.230   8.708   1.784 -0.8615  1.3455  1.6846
  535MOL0     H72184   5.095   8.675   1.675  3.6590  0.1650 -2.5500
  535MOL0     H72185   5.239   8.551   1.538 -0.8343 -0.6794 -0.5388
  535MOL0     H72186   5.395   8.402   1.428  1.4998 -3.3029 -0.3950
  535MOL0     H72187   5.744   7.941   1.581 -0.7225  0.0367 -0.8037
  535MOL0     H72188   5.964   7.875   1.479 -1.6669 -0.5232  1.9441
  535MOL0     H72189   6.118   8.188   1.238 -0.9448  0.0606  2.8464
  535MOL0     H72190   6.248   8.224   1.338  0.6565 -0.7987  2.1071
  535MOL0     H72191   6.348   8.004   1.248 -2.1551 -2.7304  0.1148
  535MOL0     H72192   6.221   8.001   1.125  1.8216  1.1063 -3.6323
  535MOL0     H72193   6.282   8.221   1.026  0.7499 -0.0325  0.0573
  535MOL0     H72194   6.418   8.229   1.145 -3.2183  2.2954  1.4792
  535MOL0     H72195   6.366   8.025   0.914  0.9215  0.0132 -1.3437
  535MOL0     H72196   6.497   8.017   1.029  0.9838  0.6609 -0.7943
  535MOL0     H72197   6.579   8.246   0.938 -0.8620  1.4364 -0.5220
  535MOL0     H72198   6.441   8.242   0.820  0.1233  0.7022 -0.1826
  535MOL0     H72199   6.664   8.037   0.850  2.0552 -0.9439 -3.0897
  535MOL0     H72200   6.522   8.015   0.742  0.6275 -0.6558  0.0115
  535MOL0     H72201   6.710   8.084   0.621 -3.8166 -0.6803 -2.2470
  535MOL0     H72202   6.742   8.220   0.733 -0.6598  0.0750 -0.6308
  535MOL0     H72203   6.553   8.342   0.639  0.1730 -0.2557  0.6230
  535MOL0     H72204   6.652   8.284   0.502  0.4764 -1.6157  0.6604
  535MOL0     H72205   6.063   8.310   1.446  0.7685 -0.9385 -1.0437
  535MOL0     H72206   5.824   8.351   1.521  3.6808 -0.0521 -0.1985
  535MOL0     H72207   5.490   8.211   1.801 -2.9778 -1.9239  0.5960
  535MOL0     H72208   5.301   8.352   1.910 -1.6601 -0.5377 -0.9819
  535MOL0     H72209   5.063  10.068   2.357 -1.9173 -2.6613  0.5951
  535MOL0     H72210   5.148  10.294   2.419 -0.2423  1.8841  1.1251
  535MOL0     H72211   5.192  10.669   2.498 -1.3186 -0.9905  0.5023
  535MOL0     H72212   5.314  10.859   2.525  0.2937 -0.3065  0.3587
  535MOL0     H72213   5.119  11.169   2.796  2.0833  1.8697  0.8328
  535MOL0     H72214   5.086  11.245   2.634  3.1235 -0.5523 -2.6110
  535MOL0     H72215   5.231  11.388   2.783  1.5552 -2.0012  3.9131
  535MOL0     H72216   5.320  11.334   2.646  1.3106 -0.2317  1.1001
  535MOL0     H72217   5.434  11.161   2.775  2.7613  0.7178  0.2684
  535MOL0     H72218   5.343  11.220   2.926 -2.2577 -0.5487 -0.9541
  535MOL0     H72219   5.581  11.326   2.913  1.2465  2.6575  0.2474
  535MOL0     H72220   5.536  11.364   2.743  1.2404 -0.9285 -0.0675
  535MOL0     H72221   5.420  11.691   2.978  2.2400 -0.4013  1.5570
  535MOL0     H72222   4.955  11.075   2.640  1.0100  0.6998 -2.2339
  535MOL0     H72223   4.760  10.970   2.588  3.4023 -0.2636 -1.6892
  535MOL0     H72224   4.735  10.797   2.548  2.0467 -0.4525  0.3864
  535MOL0     H72225   4.762  10.857   2.719 -1.2076 -0.0823  0.9294
  536MOL0     O72226   2.557   9.723   6.134  0.8022 -1.1500 -0.4140
  536MOL0     C72227   2.521   9.698   6.024  0.3728  0.4094 -0.4690
  536MOL0     O72228   2.424   9.760   5.959 -0.3765  0.4612 -1.0711
  536MOL0     C72229   2.365   9.860   6.030 -0.3773 -0.9759  0.0199
  536MOL0     C72230   2.227   9.846   6.065  0.4027  0.7052  0.0493
  536MOL0     C72231   2.165   9.948   6.138  0.5835 -0.7629  0.3906
  536MOL0     C72232   2.236  10.065   6.173 -0.0652 -0.5322 -0.0155
  536MOL0     O72233   2.184  10.169   6.246 -0.4710  0.5073  0.2536
  536MOL0     C72234   2.045  10.160   6.271  1.2790  1.3818  0.3643
  536MOL0     C72235   1.988  10.280   6.343 -0.3686 -0.1164  0.3480
  536MOL0     C72236   1.974  10.390   6.228 -0.2608 -0.6406 -0.3418
  536MOL0     C72237   1.986  10.536   6.293 -0.4873  1.1054  0.5486
  536MOL0     C72238   2.002  10.637   6.188  0.8120 -0.0950 -0.4756
  536MOL0     C72239   1.889  10.642   6.085  0.5718  0.8969 -0.2909
  536MOL0     C72240   1.930  10.713   5.959 -0.2148  0.6440 -0.8701
  536MOL0     C72241   1.811  10.754   5.869  0.6032  0.4728  0.3078
  536MOL0     N72242   1.819  10.739   5.724 -0.0427 -0.6894  0.1154
  536MOL0     C72243   1.932  10.766   5.651  0.0383  0.4111  0.2048
  536MOL0     C72244   1.893  10.761   5.514 -0.1247 -0.5373 -0.2648
  536MOL0     C72245   1.970  10.808   5.396  0.3826  0.0854  0.1389
  536MOL0     C72246   2.095  10.710   5.380 -0.1071  0.1914  0.4680
  536MOL0     C72247   2.212  10.738   5.471 -0.1798 -0.4174 -0.8789
  536MOL0     C72248   2.333  10.659   5.422 -0.5849  0.5808  0.1427
  536MOL0     O72249   2.322  10.518   5.458 -0.1725  0.5199  0.1982
  536MOL0     C72250   2.379  10.422   5.381 -0.7295  0.6644 -0.4617
  536MOL0     C72251   2.318  10.304   5.371  0.3062  0.5040 -0.5050
  536MOL0     C72252   2.374  10.196   5.309  0.5765  0.2710  0.1382
  536MOL0     C72253   2.496  10.203   5.255 -0.2724  1.0919  0.1620
  536MOL0     C72254   2.563  10.088   5.194  0.4180  0.1214 -0.4474
  536MOL0     O72255   2.521   9.971   5.258 -0.3393 -0.0848 -0.4161
  536MOL0     C72256   2.563   9.847   5.227  0.9628  0.6221 -0.0681
  536MOL0     C72257   2.507   9.743   5.310  0.3930 -0.5226  0.4171
  536MOL0     C72258   2.527   9.601   5.287  0.4123  0.0560 -0.3680
  536MOL0     C72259   2.612   9.569   5.182  0.0453  0.2321 -0.8637
  536MOL0     O72260   2.650   9.435   5.180 -0.7877 -0.9043 -0.2326
  536MOL0     C72261   2.753   9.390   5.083 -0.7158 -0.3941  0.1689
  536MOL0     C72262   2.782   9.241   5.088 -0.9102  0.3874 -0.0562
  536MOL0     C72263   2.892   9.208   5.185 -0.7333  0.7739  0.1429
  536MOL0     C72264   2.896   9.059   5.217 -0.9416 -0.2830 -0.5630
  536MOL0     C72265   3.034   9.017   5.271 -0.0960  0.7748 -0.0142
  536MOL0     C72266   3.021   8.959   5.408 -0.0901  0.2269  0.1939
  536MOL0     C72267   3.014   9.068   5.507  0.2462 -0.9676  0.4299
  536MOL0     C72268   2.916   9.049   5.623 -0.2278 -0.5310  0.2392
  536MOL0    Cl72269   2.746   9.026   5.561  0.1390 -0.2013 -0.1268
  536MOL0     C72270   2.661   9.673   5.093 -0.2709  0.3866  0.4364
  536MOL0     C72271   2.650   9.805   5.122 -0.1275  0.0733  0.3599
  536MOL0     O72272   2.647  10.091   5.105 -0.3844 -0.7545  0.8708
  536MOL0     C72273   2.563  10.325   5.267 -0.6033  0.1344  0.0786
  536MOL0     C72274   2.504  10.435   5.328  0.4886 -0.0075 -0.2469
  536MOL0     N72275   1.760  10.721   5.516  0.1550 -0.0007  1.0705
  536MOL0     N72276   1.720  10.715   5.638  0.7133 -0.1903 -0.0554
  536MOL0     C72277   2.367  10.089   6.118  0.6285  0.1162  0.0132
  536MOL0     C72278   2.423   9.986   6.045  0.1154 -0.4538  1.1542
  536MOL0     C72279   2.577   9.579   5.957 -1.4028  0.4828 -0.7628
  536MOL0     C72280   2.522   9.555   5.834  0.1849  0.6129 -0.4821
  536MOL0     C72281   2.551   9.436   5.769 -0.7469 -0.0764 -0.1066
  536MOL0     C72282   2.644   9.341   5.823 -0.4850 -0.1731  0.5408
  536MOL0     O72283   2.667   9.214   5.774  0.4915 -1.0934  0.0220
  536MOL0     C72284   2.572   9.116   5.811  0.3835  0.2359 -0.3237
  536MOL0     C72285   2.598   9.065   5.951 -0.3976  0.0659  0.0439
  536MOL0     C72286   2.500   8.957   5.993  0.3227  0.9122 -0.1324
  536MOL0     C72287   2.492   8.925   6.147  0.2602  0.6641  0.6589
  536MOL0     C72288   2.597   8.830   6.194 -0.1216  0.8901  0.0435
  536MOL0     C72289   2.684   8.762   6.251  0.1358  0.0377  0.2600
  536MOL0     C72290   2.714   9.381   5.933 -0.6942 -0.4817  0.7027
  536MOL0     C72291   2.673   9.491   6.009  0.8660  0.3113 -0.5593
  536MOL0     C72292   2.751   9.512   6.130  0.1451 -0.2244 -0.0308
  536MOL0     H72293   2.176   9.752   6.045 -0.8463  1.0056  1.7099
  536MOL0     H72294   2.060   9.936   6.162 -0.0081 -1.0953 -2.0743
  536MOL0     H72295   1.981  10.151   6.182  1.0346 -1.0891  0.7282
  536MOL0     H72296   2.033  10.072   6.335 -0.4413  1.0414 -0.3763
  536MOL0     H72297   2.054  10.327   6.416  1.2007  0.2013 -1.1943
  536MOL0     H72298   1.886  10.263   6.378 -1.1951  1.9225 -0.8649
  536MOL0     H72299   1.880  10.373   6.174  0.1887  0.6827 -1.5866
  536MOL0     H72300   2.047  10.386   6.147 -0.8440  1.6449 -1.0235
  536MOL0     H72301   1.902  10.563   6.357 -0.1411  2.0974  0.6036
  536MOL0     H72302   2.069  10.538   6.364 -1.3110  0.1726  1.5720
  536MOL0     H72303   1.997  10.728   6.248 -0.7665 -0.7768  0.4705
  536MOL0     H72304   2.101  10.629   6.141  1.3403 -0.0816  0.5983
  536MOL0     H72305   1.851  10.545   6.049  1.0649  0.7376 -0.3833
  536MOL0     H72306   1.800  10.696   6.119 -0.3764 -0.2502 -0.8713
  536MOL0     H72307   2.003  10.648   5.910  0.6232 -0.4947  1.7311
  536MOL0     H72308   1.979  10.808   5.982 -2.3600  1.3365  1.1819
  536MOL0     H72309   1.725  10.695   5.903 -2.3645  2.6689 -2.7228
  536MOL0     H72310   1.783  10.857   5.893 -1.8441 -0.4434  1.7407
  536MOL0     H72311   2.024  10.813   5.686 -0.1600  0.0801  1.1913
  536MOL0     H72312   1.897  10.786   5.318 -1.1171 -4.1471  2.3877
  536MOL0     H72313   1.995  10.914   5.406 -1.0268  0.2136  3.8453
  536MOL0     H72314   2.063  10.606   5.390  0.9497 -0.4070 -1.7133
  536MOL0     H72315   2.131  10.722   5.277  1.9193 -1.5710  0.9043
  536MOL0     H72316   2.194  10.727   5.578 -0.7176  2.8733 -0.5266
  536MOL0     H72317   2.244  10.842   5.465  2.2066 -0.8281  2.0207
  536MOL0     H72318   2.425  10.693   5.468  0.6116 -1.5893 -0.4769
  536MOL0     H72319   2.337  10.665   5.312  1.0726 -3.4070 -0.2011
  536MOL0     H72320   2.217  10.289   5.410 -0.3754 -4.0624 -3.1716
  536MOL0     H72321   2.316  10.104   5.301  1.9056 -0.5618 -0.2936
  536MOL0     H72322   2.440   9.775   5.390  0.5781  0.2413  0.2751
  536MOL0     H72323   2.483   9.520   5.344 -1.2852 -0.3306 -2.1139
  536MOL0     H72324   2.725   9.395   4.977  1.6468 -0.4332 -0.5281
  536MOL0     H72325   2.850   9.435   5.106 -0.2142 -2.6029  2.7805
  536MOL0     H72326   2.691   9.186   5.110 -0.9236 -0.0284 -1.0868
  536MOL0     H72327   2.824   9.211   4.992  0.1898  1.8003 -0.0570
  536MOL0     H72328   2.995   9.229   5.153  0.9685 -1.2731  3.6814
  536MOL0     H72329   2.872   9.265   5.276  1.3905  2.5937 -0.4389
  536MOL0     H72330   2.878   9.018   5.117 -4.5465  4.3817 -2.2506
  536MOL0     H72331   2.816   9.034   5.287 -0.1935 -0.0488  0.3927
  536MOL0     H72332   3.113   9.092   5.277  2.4967 -1.8928  1.6582
  536MOL0     H72333   3.073   8.947   5.197  1.1684  0.6716  0.7242
  536MOL0     H72334   2.951   8.879   5.430  0.6544 -0.9296 -1.4533
  536MOL0     H72335   3.113   8.902   5.427  0.0417  0.1492 -0.6378
  536MOL0     H72336   2.986   9.164   5.465  1.5278 -0.7097  0.1232
  536MOL0     H72337   3.112   9.070   5.557 -0.5734  1.0738  2.1164
  536MOL0     H72338   2.935   8.951   5.668 -0.0303 -0.8119 -0.4526
  536MOL0     H72339   2.919   9.129   5.698  1.5406 -0.6871  0.3754
  536MOL0     H72340   2.738   9.654   5.019 -0.5581 -0.0605  0.2523
  536MOL0     H72341   2.697   9.878   5.056  0.0860  3.7206  4.1605
  536MOL0     H72342   2.668  10.331   5.241 -0.6457 -0.2865 -0.1875
  536MOL0     H72343   2.571  10.520   5.338  5.5244 -2.4598 -6.2361
  536MOL0     H72344   2.415  10.184   6.134  1.3003 -0.2022 -0.0993
  536MOL0     H72345   2.529  10.000   6.025 -0.7512  0.9707 -3.7885
  536MOL0     H72346   2.448   9.614   5.780  0.3473  0.8728 -0.4237
  536MOL0     H72347   2.506   9.416   5.672 -1.7780 -1.8295  0.6870
  536MOL0     H72348   2.584   9.031   5.745  1.4454  0.1662 -0.0608
  536MOL0     H72349   2.468   9.151   5.803  0.9134  2.9955  2.6172
  536MOL0     H72350   2.588   9.151   6.018 -2.6545 -0.4667  0.4749
  536MOL0     H72351   2.701   9.027   5.958  0.8513  2.6830 -2.1896
  536MOL0     H72352   2.509   8.861   5.942  0.2181 -0.0524  1.5746
  536MOL0     H72353   2.401   8.986   5.956  0.9029  2.8381 -0.2571
  536MOL0     H72354   2.493   9.007   6.219  4.2775  0.1379  1.4287
  536MOL0     H72355   2.389   8.895   6.166  0.2029  0.7157  0.4368
  536MOL0     H72356   2.755   8.700   6.301 -2.5654 -3.0665  0.5692
  536MOL0     H72357   2.793   9.321   5.976  2.2047  0.9493 -2.2531
  536MOL0     H72358   2.852   9.469   6.134 -0.7485 -2.5018 -0.2106
  536MOL0     H72359   2.757   9.619   6.147 -0.7724 -0.3918  1.5147
  536MOL0     H72360   2.708   9.465   6.219  1.9233  0.2070  1.1085
  537MOL0     O72361   4.402   4.730   0.718 -0.3503 -0.4116 -0.4591
  537MOL0     C72362   4.413   4.668   0.614 -0.0811  1.2353  1.2731
  537MOL0     O72363   4.377   4.540   0.592  0.6212  0.3026 -0.6622
  537MOL0     C72364   4.304   4.483   0.693 -0.5952  0.4314 -0.5738
  537MOL0     C72365   4.329   4.358   0.753  0.1778  0.6091  0.5547
  537MOL0     C72366   4.246   4.306   0.848 -0.5475 -0.4933 -0.7845
  537MOL0     C72367   4.135   4.373   0.893 -0.5509  1.1546  0.4091
  537MOL0     O72368   4.054   4.304   0.984  0.8495  0.8383 -0.0718
  537MOL0     C72369   3.985   4.382   1.080  0.4590  0.1318 -0.2655
  537MOL0     C72370   3.841   4.317   1.091  1.0077 -0.0537 -0.2485
  537MOL0     C72371   3.767   4.392   1.204  0.8359 -0.2722  0.3113
  537MOL0     C72372   3.653   4.294   1.266  0.2780 -1.0860 -1.0673
  537MOL0     C72373   3.575   4.364   1.380  0.5984  0.5403 -0.9441
  537MOL0     C72374   3.485   4.270   1.454 -0.1641  1.2067 -0.3244
  537MOL0     C72375   3.560   4.158   1.536  0.7603  0.0515 -0.0060
  537MOL0     C72376   3.473   4.104   1.652  0.5960 -0.2403 -0.9510
  537MOL0     N72377   3.557   4.047   1.769 -0.0614 -0.4822  0.3032
  537MOL0     C72378   3.533   3.923   1.821  0.1084 -0.1791 -0.2134
  537MOL0     C72379   3.640   3.896   1.903 -0.2666 -0.3605 -0.0024
  537MOL0     C72380   3.677   3.779   1.995 -0.8661  0.2935  0.5882
  537MOL0     C72381   3.751   3.832   2.114  0.5240 -0.7319 -0.8003
  537MOL0     C72382   3.685   3.966   2.182 -0.9795 -0.1742  0.3680
  537MOL0     C72383   3.538   3.946   2.235 -0.2707  0.4521 -0.1876
  537MOL0     O72384   3.504   4.044   2.333 -0.3817 -0.8155  0.4683
  537MOL0     C72385   3.603   4.065   2.434  0.0899 -0.2809 -0.8491
  537MOL0     C72386   3.633   4.194   2.481  0.4004  0.5343 -1.1098
  537MOL0     C72387   3.719   4.216   2.587  0.0277  0.1637  1.0408
  537MOL0     C72388   3.787   4.109   2.640 -0.4841 -0.2275 -0.0542
  537MOL0     C72389   3.879   4.120   2.758 -0.1265 -1.0546 -1.1797
  537MOL0     O72390   3.892   4.244   2.818  1.5687  0.0848  0.4710
  537MOL0     C72391   3.977   4.271   2.926  0.0171  0.3085  0.6341
  537MOL0     C72392   3.924   4.346   3.034  0.4888 -0.6391  0.5297
  537MOL0     C72393   4.000   4.370   3.142 -0.7346 -0.1106  0.0304
  537MOL0     C72394   4.134   4.333   3.136  0.5402  0.1187 -0.1959
  537MOL0     O72395   4.229   4.353   3.231  0.1948  0.2644  1.3381
  537MOL0     C72396   4.190   4.409   3.354 -0.1641 -0.1047 -0.9658
  537MOL0     C72397   4.323   4.430   3.441  0.2355  0.7416  0.2222
  537MOL0     C72398   4.304   4.516   3.561  0.5900 -0.1085 -0.6919
  537MOL0     C72399   4.247   4.439   3.675 -0.5346 -1.3960 -0.5765
  537MOL0     C72400   4.286   4.513   3.809  0.2258  0.2508 -0.3871
  537MOL0     C72401   4.192   4.626   3.847  1.3658 -0.4297 -0.2611
  537MOL0     C72402   4.267   4.715   3.945 -0.1153 -0.0292  0.0844
  537MOL0     C72403   4.296   4.654   4.083 -1.1457  0.3097 -0.6971
  537MOL0    Cl72404   4.160   4.623   4.183 -0.2962  0.0861  0.1864
  537MOL0     C72405   4.188   4.277   3.022  0.6249  0.0923 -0.4268
  537MOL0     C72406   4.110   4.239   2.916 -0.2263  0.1504 -0.3763
  537MOL0     O72407   3.943   4.022   2.788  0.7218 -0.1637 -0.0825
  537MOL0     C72408   3.767   3.976   2.588  0.0660 -0.5006 -0.7901
  537MOL0     C72409   3.668   3.954   2.493 -1.0224  0.7360  0.6061
  537MOL0     N72410   3.730   3.999   1.883  0.3396  0.0413  0.0737
  537MOL0     N72411   3.683   4.080   1.801  0.0864 -1.4139  0.6686
  537MOL0     C72412   4.101   4.492   0.838  0.0281 -0.3370 -0.2977
  537MOL0     C72413   4.185   4.547   0.740  0.0377 -0.3215  0.8719
  537MOL0     C72414   4.462   4.735   0.495  0.0427  0.0890 -0.1074
  537MOL0     C72415   4.454   4.876   0.499 -0.5791  0.2105  0.4305
  537MOL0     C72416   4.503   4.948   0.390 -0.2058  0.3883 -0.1765
  537MOL0     C72417   4.564   4.888   0.274  0.9537 -0.5364  0.1624
  537MOL0     O72418   4.597   4.973   0.169  0.4565  0.4326  0.3059
  537MOL0     C72419   4.644   4.917   0.056  0.2630  0.8504 -0.5118
  537MOL0     C72420   4.709   5.013  -0.034 -0.6050  0.3005  0.9140
  537MOL0     C72421   4.712   4.946  -0.179  0.7420 -1.4332 -0.1005
  537MOL0     C72422   4.778   5.058  -0.270 -0.2619  0.1099  0.0328
  537MOL0     C72423   4.893   4.996  -0.344 -0.3046  0.5413  0.0216
  537MOL0     C72424   4.988   4.976  -0.412  0.3823  0.0767 -0.2419
  537MOL0     C72425   4.549   4.750   0.263  0.0080  1.4022 -0.1892
  537MOL0     C72426   4.509   4.678   0.375  0.8286  0.5852  0.0658
  537MOL0     C72427   4.522   4.526   0.354  0.3293 -1.1187 -0.0719
  537MOL0     H72428   4.413   4.292   0.734 -0.5135 -0.3924  0.8892
  537MOL0     H72429   4.262   4.202   0.875 -0.9867 -1.4536 -3.8251
  537MOL0     H72430   4.044   4.397   1.171 -0.1144  1.4443 -0.0932
  537MOL0     H72431   3.959   4.484   1.050  0.3467 -0.2615 -1.5727
  537MOL0     H72432   3.849   4.213   1.124  0.4478  0.9961  3.7466
  537MOL0     H72433   3.774   4.329   1.006 -0.9342 -0.3913  1.1394
  537MOL0     H72434   3.719   4.478   1.157  1.0421 -0.7492 -0.7955
  537MOL0     H72435   3.828   4.427   1.287 -1.9590  4.4774  0.7296
  537MOL0     H72436   3.586   4.259   1.188 -1.3017 -1.9029  0.5773
  537MOL0     H72437   3.704   4.205   1.303  1.5760  0.5441  1.4494
  537MOL0     H72438   3.638   4.426   1.445 -1.7986  0.6424  1.4767
  537MOL0     H72439   3.512   4.441   1.335 -0.5897  0.1342 -0.0177
  537MOL0     H72440   3.416   4.330   1.513 -0.3432  1.4924 -0.8195
  537MOL0     H72441   3.422   4.227   1.376  1.8238  2.0788 -2.5540
  537MOL0     H72442   3.655   4.195   1.575 -0.2887 -0.9119  3.9292
  537MOL0     H72443   3.583   4.073   1.471 -1.7927 -0.2680 -0.5869
  537MOL0     H72444   3.409   4.186   1.689 -0.5768 -1.1095 -1.0177
  537MOL0     H72445   3.418   4.017   1.617  2.5672 -2.1563  0.4780
  537MOL0     H72446   3.443   3.864   1.805 -0.0420 -0.5534  1.7728
  537MOL0     H72447   3.598   3.710   2.025 -1.5102  1.2660  1.1946
  537MOL0     H72448   3.747   3.721   1.935 -2.8301 -3.2209  1.4734
  537MOL0     H72449   3.750   3.758   2.194 -0.9313  0.1039  0.0045
  537MOL0     H72450   3.854   3.866   2.098  0.4558  0.3154  0.7093
  537MOL0     H72451   3.691   4.055   2.118  2.3694  0.1743  0.9650
  537MOL0     H72452   3.759   3.985   2.261  0.6596 -1.7734 -0.6976
  537MOL0     H72453   3.532   3.847   2.281  1.2160 -0.3510 -1.6105
  537MOL0     H72454   3.463   3.951   2.156  0.6889 -1.2066 -1.2591
  537MOL0     H72455   3.570   4.275   2.447 -0.2238  1.5289  2.0574
  537MOL0     H72456   3.734   4.316   2.625  2.9252 -0.1660  0.9938
  537MOL0     H72457   3.822   4.377   3.015  0.9314 -0.5590 -2.0786
  537MOL0     H72458   3.967   4.437   3.220 -1.3216  0.7529 -0.9319
  537MOL0     H72459   4.147   4.509   3.352  0.8296  0.4036  0.7861
  537MOL0     H72460   4.122   4.343   3.409  1.6668  0.7714  2.6658
  537MOL0     H72461   4.362   4.333   3.474 -0.6471  1.1784  2.8589
  537MOL0     H72462   4.401   4.474   3.379 -0.0218 -0.7650 -1.2343
  537MOL0     H72463   4.404   4.546   3.592 -1.2804  4.6726  1.7509
  537MOL0     H72464   4.257   4.611   3.535  0.9797 -0.1841 -1.6886
  537MOL0     H72465   4.294   4.340   3.670 -0.7929 -1.4657 -2.3855
  537MOL0     H72466   4.139   4.432   3.662 -1.4356  3.0985  2.2024
  537MOL0     H72467   4.389   4.551   3.806  0.0415  0.6799 -1.6915
  537MOL0     H72468   4.293   4.433   3.884  0.8271  2.0610  1.6194
  537MOL0     H72469   4.172   4.685   3.757  3.3119  0.3351 -0.2406
  537MOL0     H72470   4.098   4.580   3.880  2.2981 -2.2987 -0.1409
  537MOL0     H72471   4.204   4.803   3.961  1.7257  1.4221 -0.2387
  537MOL0     H72472   4.359   4.749   3.896 -0.1046  0.2392  0.2898
  537MOL0     H72473   4.345   4.557   4.070  4.2732  2.3567  1.5711
  537MOL0     H72474   4.367   4.723   4.130 -0.5529  1.0127 -2.5443
  537MOL0     H72475   4.295   4.260   3.026  1.0027  2.3694  0.7855
  537MOL0     H72476   4.151   4.193   2.827 -0.3536 -1.1968  0.2404
  537MOL0     H72477   3.809   3.887   2.634 -0.1403 -0.6739 -0.9309
  537MOL0     H72478   3.660   3.858   2.443 -0.5274  1.0032 -0.0106
  537MOL0     H72479   4.011   4.549   0.861  0.6044  0.2062  0.6772
  537MOL0     H72480   4.154   4.640   0.693  0.0521 -0.6383  0.2162
  537MOL0     H72481   4.430   4.929   0.590  0.4618  3.3409 -0.9824
  537MOL0     H72482   4.495   5.056   0.401 -1.8503  0.2439  0.3291
  537MOL0     H72483   4.555   4.874   0.009  0.5158  0.3468 -0.5298
  537MOL0     H72484   4.715   4.837   0.077 -0.4391  0.2536 -0.3623
  537MOL0     H72485   4.814   5.018  -0.006  0.1050  0.1887 -1.5320
  537MOL0     H72486   4.663   5.112  -0.030  4.0752  2.9094 -1.2224
  537MOL0     H72487   4.611   4.923  -0.213  0.0561 -0.3029  1.1241
  537MOL0     H72488   4.774   4.855  -0.177  2.6281 -0.2003  0.8438
  537MOL0     H72489   4.705   5.097  -0.341 -1.6976  2.3490  2.5214
  537MOL0     H72490   4.824   5.137  -0.210 -1.4508 -2.0965  4.3529
  537MOL0     H72491   5.069   4.961  -0.481  2.3861  0.3618  1.9212
  537MOL0     H72492   4.580   4.698   0.173 -1.4775  0.6634 -0.3002
  537MOL0     H72493   4.567   4.478   0.441  0.3825 -3.2159 -1.1835
  537MOL0     H72494   4.419   4.488   0.350 -0.2476  0.3764 -0.0337
  537MOL0     H72495   4.579   4.497   0.265  0.3955 -0.6752 -0.1761
  538MOL0     O72496  11.151   8.363   2.384  0.2071  0.1239 -0.2795
  538MOL0     C72497  11.109   8.275   2.309  0.3073 -0.0101  0.7312
  538MOL0     O72498  11.169   8.227   2.204  0.6117 -0.3622  0.3562
  538MOL0     C72499  11.304   8.249   2.187 -0.1617  0.0240  0.3572
  538MOL0     C72500  11.347   8.374   2.121  0.3380  0.0612 -0.7087
  538MOL0     C72501  11.488   8.386   2.096 -0.3973  0.3575 -1.0315
  538MOL0     C72502  11.571   8.275   2.113  0.1048 -0.4630  0.6946
  538MOL0     O72503  11.704   8.296   2.078 -0.5698 -0.1654  0.1431
  538MOL0     C72504  11.785   8.203   2.006 -0.0515 -0.6199  0.4164
  538MOL0     C72505  11.745   8.210   1.855 -0.3808 -0.4551 -0.4588
  538MOL0     C72506  11.876   8.192   1.778  0.2925  0.2072 -0.2736
  538MOL0     C72507  11.857   8.184   1.627  0.0647  0.0610  0.4605
  538MOL0     C72508  11.981   8.116   1.556 -0.9639 -0.9954  0.4398
  538MOL0     C72509  12.092   8.213   1.561  0.0080 -1.0136 -0.1495
  538MOL0     C72510  12.214   8.186   1.475  0.3766  0.9985  0.4828
  538MOL0     C72511  12.271   8.055   1.509  0.1712  1.1176  0.2377
  538MOL0     N72512  12.400   8.032   1.444  0.5901  0.4232 -0.3766
  538MOL0     C72513  12.516   8.072   1.508  0.6291 -1.0349  0.0257
  538MOL0     C72514  12.607   8.060   1.401 -0.0317  0.3715  0.8386
  538MOL0     C72515  12.744   8.112   1.411 -0.3501 -1.0700 -0.3368
  538MOL0     C72516  12.852   8.009   1.453  0.0500 -0.1801  0.5106
  538MOL0     C72517  12.991   8.066   1.505  0.0897  0.1016  0.3766
  538MOL0     C72518  13.107   7.968   1.515 -0.1519 -0.3501  0.9466
  538MOL0     O72519  13.098   7.920   1.650  0.0428  0.4698  0.6681
  538MOL0     C72520  13.159   7.806   1.665 -0.5651 -0.0811  0.0902
  538MOL0     C72521  13.072   7.703   1.690 -0.1097  0.4485 -0.1421
  538MOL0     C72522  13.116   7.569   1.695 -0.3624  0.0333  0.8635
  538MOL0     C72523  13.250   7.543   1.682 -0.4121  0.1511 -0.1491
  538MOL0     C72524  13.313   7.412   1.690  0.1247 -0.7544 -0.6597
  538MOL0     O72525  13.434   7.390   1.630 -0.0996  0.9935  0.2525
  538MOL0     C72526  13.478   7.255   1.619  0.5046  0.4350 -0.8155
  538MOL0     C72527  13.605   7.227   1.651  0.4940  0.3784  0.3306
  538MOL0     C72528  13.663   7.107   1.610  0.5645  0.5740  0.0523
  538MOL0     C72529  13.581   7.005   1.554  0.1127  0.5536 -0.2061
  538MOL0     O72530  13.650   6.890   1.524  0.4771  0.1354 -0.1394
  538MOL0     C72531  13.593   6.769   1.570  0.7124 -0.3121 -0.5160
  538MOL0     C72532  13.683   6.650   1.518  1.1712 -0.5632 -0.5768
  538MOL0     C72533  13.627   6.520   1.568 -0.1361  0.2828 -0.5053
  538MOL0     C72534  13.714   6.404   1.541 -0.8466 -0.2259  1.3293
  538MOL0     C72535  13.659   6.279   1.620 -0.7747 -0.8874  0.2377
  538MOL0     C72536  13.542   6.226   1.543 -0.2615  0.1714 -0.6500
  538MOL0     C72537  13.497   6.087   1.601 -0.2524 -0.5817 -0.0817
  538MOL0     C72538  13.409   6.022   1.497 -0.4431  0.4495  0.3663
  538MOL0    Cl72539  13.279   6.150   1.436  0.4108  0.0620 -0.1767
  538MOL0     C72540  13.447   7.027   1.541  0.7032 -0.5490  0.6187
  538MOL0     C72541  13.397   7.145   1.571  0.1914 -0.5774 -0.8474
  538MOL0     O72542  13.253   7.332   1.761 -0.2499 -0.9062 -0.1346
  538MOL0     C72543  13.333   7.653   1.664 -0.3674 -0.7675  0.5826
  538MOL0     C72544  13.290   7.785   1.660  0.0216  0.2693 -0.8767
  538MOL0     N72545  12.545   8.011   1.286 -0.2851  0.1123  0.5512
  538MOL0     N72546  12.419   7.998   1.316 -0.1948 -0.4183 -0.0654
  538MOL0     C72547  11.531   8.155   2.173 -0.4873 -1.5914 -0.0522
  538MOL0     C72548  11.396   8.141   2.212  0.6104 -0.6571 -0.3233
  538MOL0     C72549  10.973   8.231   2.325 -0.8692  0.4386 -0.6219
  538MOL0     C72550  10.938   8.093   2.280 -0.1298 -0.5628 -0.0337
  538MOL0     C72551  10.813   8.052   2.282  0.5710  0.4963 -0.6800
  538MOL0     C72552  10.712   8.130   2.344 -1.0868  0.1097  1.2129
  538MOL0     O72553  10.578   8.102   2.340  0.0103  0.6615 -0.5200
  538MOL0     C72554  10.553   7.966   2.397  0.5039  0.0292 -1.0607
  538MOL0     C72555  10.522   7.969   2.551  0.1145 -0.1796 -1.3667
  538MOL0     C72556  10.377   8.012   2.579  0.9391  0.4451  0.1549
  538MOL0     C72557  10.356   8.045   2.725  0.2071  0.4042 -0.6283
  538MOL0     C72558  10.438   8.160   2.763 -0.4025  1.1263  1.1271
  538MOL0     C72559  10.508   8.261   2.776  0.6527  0.1721 -0.4481
  538MOL0     C72560  10.747   8.254   2.379 -0.5997  0.1510 -0.3372
  538MOL0     C72561  10.876   8.313   2.382 -0.8885  1.5644 -0.4815
  538MOL0     C72562  10.891   8.452   2.434  0.6025  0.0162  0.1728
  538MOL0     H72563  11.267   8.446   2.109 -1.5139 -1.9502 -1.1524
  538MOL0     H72564  11.533   8.481   2.071  2.2450 -0.9674 -1.7370
  538MOL0     H72565  11.890   8.232   2.015  0.7385 -1.2153 -4.3422
  538MOL0     H72566  11.767   8.103   2.046 -2.5331  0.4383  2.1908
  538MOL0     H72567  11.703   8.309   1.834 -0.4127 -0.1782  0.8278
  538MOL0     H72568  11.667   8.133   1.846  0.7204 -1.4972 -1.3630
  538MOL0     H72569  11.918   8.098   1.815  2.6911  2.1041  2.2393
  538MOL0     H72570  11.947   8.272   1.800  0.5594 -0.6137  2.2348
  538MOL0     H72571  11.768   8.127   1.599  0.8223  0.3502 -3.0011
  538MOL0     H72572  11.830   8.282   1.584 -1.5129 -0.3969  0.3493
  538MOL0     H72573  12.018   8.026   1.606  0.6813 -0.9889 -0.6871
  538MOL0     H72574  11.969   8.090   1.451 -0.6992  1.2468 -0.1956
  538MOL0     H72575  12.062   8.315   1.534  2.0312 -0.0670  0.8760
  538MOL0     H72576  12.143   8.219   1.658  2.8912 -1.1418 -1.5377
  538MOL0     H72577  12.290   8.264   1.483  0.6927  1.1719 -2.6705
  538MOL0     H72578  12.173   8.181   1.373  1.7667 -3.5558 -0.0591
  538MOL0     H72579  12.295   8.045   1.616  3.3787  1.7794 -0.3206
  538MOL0     H72580  12.204   7.976   1.474  4.7807 -2.2329 -1.9864
  538MOL0     H72581  12.531   8.102   1.611 -0.3868 -2.7047  0.6988
  538MOL0     H72582  12.777   8.160   1.319  1.4106 -1.5489 -0.0056
  538MOL0     H72583  12.741   8.196   1.481 -1.8617 -1.8767  0.6356
  538MOL0     H72584  12.818   7.949   1.537 -1.9066  0.6595  0.3701
  538MOL0     H72585  12.886   7.946   1.370  1.1017  0.8368  0.1468
  538MOL0     H72586  12.981   8.104   1.607  0.0312  2.4078 -0.4294
  538MOL0     H72587  13.016   8.155   1.447  2.0419 -0.7812 -0.2282
  538MOL0     H72588  13.197   8.015   1.474 -0.5687  1.8599  2.4006
  538MOL0     H72589  13.098   7.878   1.453  0.2285 -0.8773  1.6524
  538MOL0     H72590  12.965   7.718   1.693 -0.5271 -1.3661 -2.6100
  538MOL0     H72591  13.045   7.489   1.712  0.6829 -0.6740  2.0588
  538MOL0     H72592  13.659   7.312   1.690 -0.3013  2.1128 -2.0787
  538MOL0     H72593  13.766   7.083   1.636  0.4638  0.8244  0.6923
  538MOL0     H72594  13.593   6.778   1.679  2.3301  2.9951 -0.6568
  538MOL0     H72595  13.491   6.769   1.532  0.2534 -0.2398  0.6793
  538MOL0     H72596  13.701   6.653   1.410  1.1501 -0.8096 -0.5884
  538MOL0     H72597  13.781   6.664   1.565  1.9865 -1.9976 -1.7528
  538MOL0     H72598  13.599   6.528   1.673  4.1791 -2.0252  1.0879
  538MOL0     H72599  13.547   6.495   1.498  1.1806  1.7145 -2.6410
  538MOL0     H72600  13.819   6.423   1.568 -0.4810 -2.6030  1.8221
  538MOL0     H72601  13.715   6.387   1.433  0.3778  2.4931  0.8419
  538MOL0     H72602  13.626   6.318   1.716 -2.7673  0.4290 -0.9039
  538MOL0     H72603  13.740   6.205   1.623 -0.3210 -0.3772  1.1467
  538MOL0     H72604  13.462   6.299   1.559 -1.5588 -1.3746  0.1114
  538MOL0     H72605  13.579   6.211   1.441 -0.4363  0.8012 -0.8133
  538MOL0     H72606  13.439   6.093   1.693 -0.9853  0.3299 -0.5784
  538MOL0     H72607  13.573   6.017   1.637 -0.6177 -1.5316 -1.1039
  538MOL0     H72608  13.456   5.979   1.408 -2.4201  0.0299 -0.5411
  538MOL0     H72609  13.349   5.943   1.544 -0.4411  0.4798  0.4193
  538MOL0     H72610  13.385   6.949   1.499  0.8323 -0.2325 -0.1938
  538MOL0     H72611  13.292   7.166   1.552  0.3797 -1.0248 -2.5562
  538MOL0     H72612  13.441   7.647   1.673  0.0609  0.7859 -2.2460
  538MOL0     H72613  13.362   7.866   1.653 -2.7518  3.6387  3.8810
  538MOL0     H72614  11.595   8.069   2.190  1.7225 -0.0365 -0.2164
  538MOL0     H72615  11.367   8.047   2.256  3.1116 -1.6237 -0.5693
  538MOL0     H72616  11.001   8.011   2.247 -3.0947 -2.3490 -1.6429
  538MOL0     H72617  10.794   7.952   2.245  1.5642 -1.7993  4.2196
  538MOL0     H72618  10.635   7.900   2.371 -0.0051 -1.3439  0.6235
  538MOL0     H72619  10.463   7.926   2.351  0.8316 -1.3568 -0.5527
  538MOL0     H72620  10.595   8.039   2.593 -0.5387 -0.9965  1.2808
  538MOL0     H72621  10.539   7.870   2.592 -0.3937  0.3979  0.3019
  538MOL0     H72622  10.303   7.933   2.561  0.5894  0.8188 -0.0453
  538MOL0     H72623  10.366   8.099   2.515  1.4014  1.3822  1.3141
  538MOL0     H72624  10.248   8.048   2.743  0.1253  1.2045 -1.2177
  538MOL0     H72625  10.391   7.965   2.791  2.6135  1.9894  0.1339
  538MOL0     H72626  10.579   8.340   2.785  3.5029 -1.9684 -2.4198
  538MOL0     H72627  10.672   8.316   2.427 -1.3063 -0.0526 -1.1501
  538MOL0     H72628  10.818   8.470   2.513  0.8875 -1.1642  0.7244
  538MOL0     H72629  10.986   8.476   2.482 -0.7093 -0.5445  3.2676
  538MOL0     H72630  10.869   8.522   2.353  0.2940 -0.7930 -0.4663
  539MOL0     O72631   1.677   8.617   2.936  0.4188  0.2627 -0.0087
  539MOL0     C72632   1.686   8.715   2.870 -0.1192 -0.6828  0.1532
  539MOL0     O72633   1.785   8.813   2.871 -0.0316  0.2180 -0.6710
  539MOL0     C72634   1.883   8.798   2.970 -0.7145  0.0597  0.7126
  539MOL0     C72635   1.988   8.710   2.966 -0.3667 -0.4016  0.0780
  539MOL0     C72636   2.095   8.718   3.058  0.1199  0.2433 -0.6137
  539MOL0     C72637   2.084   8.802   3.169 -0.3756 -0.1156 -0.4876
  539MOL0     O72638   2.177   8.823   3.266  0.1078 -0.1382 -0.1811
  539MOL0     C72639   2.265   8.717   3.300  0.1801 -0.2215  0.6836
  539MOL0     C72640   2.347   8.775   3.414 -0.4703 -0.0193  0.4241
  539MOL0     C72641   2.437   8.663   3.464 -0.5548 -0.0424 -0.7236
  539MOL0     C72642   2.588   8.686   3.425  1.0656 -0.7060  0.6619
  539MOL0     C72643   2.676   8.579   3.478 -0.1681  0.8477 -0.4919
  539MOL0     C72644   2.820   8.587   3.422  0.8990 -0.2740  0.5027
  539MOL0     C72645   2.908   8.467   3.459 -0.3638 -0.6410  0.4681
  539MOL0     C72646   2.948   8.468   3.612  0.2340 -0.2079 -0.1524
  539MOL0     N72647   2.932   8.328   3.658 -0.3404  0.7675  0.5385
  539MOL0     C72648   2.841   8.234   3.626  0.7188  0.3372  0.3768
  539MOL0     C72649   2.874   8.119   3.706 -0.7257  0.8410 -0.6382
  539MOL0     C72650   2.774   8.012   3.732  0.3615 -0.3468 -0.3922
  539MOL0     C72651   2.645   8.060   3.810  0.5276  0.6824  0.6259
  539MOL0     C72652   2.676   8.143   3.936 -0.0265 -0.2526  0.2765
  539MOL0     C72653   2.763   8.068   4.031 -0.6445  0.6299 -0.5516
  539MOL0     O72654   2.706   7.937   4.074 -0.5076 -0.4863 -0.3162
  539MOL0     C72655   2.749   7.881   4.195  0.3379 -0.2388  0.2852
  539MOL0     C72656   2.662   7.782   4.241  1.1126  0.2668  0.5119
  539MOL0     C72657   2.693   7.712   4.366  0.8061 -0.0227  0.0635
  539MOL0     C72658   2.801   7.760   4.450  0.0054  0.1267  0.4894
  539MOL0     C72659   2.833   7.675   4.567 -1.3256 -0.8171  0.4490
  539MOL0     O72660   2.743   7.589   4.612  0.9702  0.8233 -0.5758
  539MOL0     C72661   2.757   7.526   4.719  0.8021 -0.4033 -0.5485
  539MOL0     C72662   2.751   7.387   4.729  0.5705 -1.0736  0.9084
  539MOL0     C72663   2.779   7.329   4.853 -0.2812  0.4712 -0.4936
  539MOL0     C72664   2.811   7.401   4.970 -0.3784 -1.5063  0.3967
  539MOL0     O72665   2.826   7.330   5.094  0.0914 -0.3516  0.3839
  539MOL0     C72666   2.871   7.201   5.101  0.2077 -0.0253 -0.3635
  539MOL0     C72667   2.849   7.171   5.249 -0.4661 -1.0768  0.4791
  539MOL0     C72668   2.889   7.024   5.264  0.2839 -0.4853  0.0227
  539MOL0     C72669   2.839   6.976   5.397 -0.8981 -0.3750 -0.6159
  539MOL0     C72670   2.953   6.881   5.459  0.6605 -0.0634  1.1738
  539MOL0     C72671   2.934   6.853   5.601  0.2530 -0.3076 -0.0006
  539MOL0     C72672   3.003   6.726   5.647 -0.1348  0.6106 -0.4025
  539MOL0     C72673   3.155   6.724   5.646  0.5294 -0.4384  0.1404
  539MOL0    Cl72674   3.247   6.859   5.738  0.2444 -0.2885 -0.4618
  539MOL0     C72675   2.813   7.547   4.956  0.0232 -0.4753 -1.1709
  539MOL0     C72676   2.776   7.606   4.834  0.4844  0.5400  0.3298
  539MOL0     O72677   2.945   7.696   4.621  0.1882  0.3265 -0.1530
  539MOL0     C72678   2.874   7.869   4.404  0.5533  0.0567  1.1064
  539MOL0     C72679   2.854   7.929   4.273  0.0606  0.7466 -0.7636
  539MOL0     N72680   2.996   8.156   3.767 -0.6282  0.3419 -0.1652
  539MOL0     N72681   3.028   8.276   3.736  0.3029 -0.1481  0.9757
  539MOL0     C72682   1.972   8.885   3.179 -1.0010  0.4978 -0.2232
  539MOL0     C72683   1.887   8.891   3.070 -0.1693  0.7452  0.0416
  539MOL0     C72684   1.596   8.741   2.755  0.2046 -0.4752  0.8369
  539MOL0     C72685   1.639   8.813   2.639  0.9349 -0.3166 -0.8647
  539MOL0     C72686   1.549   8.855   2.541 -0.3813 -0.3131 -0.0992
  539MOL0     C72687   1.419   8.814   2.536  0.3244  1.5357 -0.3658
  539MOL0     O72688   1.331   8.835   2.432 -0.6532  0.4349 -0.4470
  539MOL0     C72689   1.273   8.960   2.434  0.3718  0.0826 -0.4252
  539MOL0     C72690   1.138   8.959   2.499  0.1736 -0.0482  0.0433
  539MOL0     C72691   1.071   9.088   2.443  0.2908  0.5204 -0.7328
  539MOL0     C72692   0.931   9.117   2.501 -0.1863  0.6055 -0.5913
  539MOL0     C72693   0.830   9.022   2.452  1.2568 -0.3484  0.0875
  539MOL0     C72694   0.746   8.948   2.402  0.1822  0.2321 -0.0900
  539MOL0     C72695   1.370   8.734   2.651  0.4681 -0.6378  0.6990
  539MOL0     C72696   1.459   8.705   2.757 -0.6512 -0.4992 -0.7134
  539MOL0     C72697   1.391   8.638   2.885 -0.3569  0.2664 -0.1129
  539MOL0     H72698   1.987   8.650   2.876 -2.8345 -0.7207  0.2475
  539MOL0     H72699   2.182   8.662   3.027  0.2642  0.9364 -1.4769
  539MOL0     H72700   2.208   8.627   3.325  2.8521 -2.5238 -0.8202
  539MOL0     H72701   2.337   8.694   3.221  0.6173 -1.1796  1.3428
  539MOL0     H72702   2.273   8.799   3.490 -1.8977 -1.3874 -0.4893
  539MOL0     H72703   2.404   8.862   3.381  2.8779 -1.9244  0.6656
  539MOL0     H72704   2.405   8.566   3.426 -1.6001  0.3275 -0.8222
  539MOL0     H72705   2.428   8.659   3.573 -2.0153  0.9253 -0.7805
  539MOL0     H72706   2.592   8.695   3.316  2.1568  0.3824  0.7694
  539MOL0     H72707   2.626   8.784   3.456  1.6673  0.0675 -2.1816
  539MOL0     H72708   2.684   8.577   3.588 -1.3581 -0.5276 -0.3944
  539MOL0     H72709   2.628   8.484   3.454  0.2358  0.3876  0.4671
  539MOL0     H72710   2.816   8.594   3.313  0.7692  1.2547  0.5795
  539MOL0     H72711   2.872   8.679   3.451 -1.4497  1.7106 -1.2440
  539MOL0     H72712   2.997   8.468   3.396  0.8401  1.7841  2.0818
  539MOL0     H72713   2.858   8.374   3.430  0.7844 -1.7377  1.8874
  539MOL0     H72714   3.053   8.497   3.624  0.9839 -2.9948  0.6432
  539MOL0     H72715   2.888   8.547   3.659 -0.1598 -0.2829 -0.5220
  539MOL0     H72716   2.752   8.237   3.564  2.1100 -0.1638 -1.7641
  539MOL0     H72717   2.737   7.966   3.639 -1.5330  1.7432 -0.7549
  539MOL0     H72718   2.816   7.926   3.785  0.3975 -1.1798 -1.7109
  539MOL0     H72719   2.577   8.120   3.749  0.5638 -1.3882 -1.5941
  539MOL0     H72720   2.582   7.979   3.849 -3.5417  3.6404  0.7753
  539MOL0     H72721   2.596   8.185   3.998 -0.1191  2.3304 -1.4401
  539MOL0     H72722   2.725   8.236   3.907 -2.2089  0.5442 -1.1192
  539MOL0     H72723   2.765   8.131   4.121 -1.8711  2.0449 -1.4771
  539MOL0     H72724   2.866   8.049   3.999 -1.4449 -1.3653 -2.1158
  539MOL0     H72725   2.580   7.753   4.176  0.0728  5.8300 -1.1422
  539MOL0     H72726   2.626   7.640   4.412  0.8872 -0.4951 -0.5437
  539MOL0     H72727   2.716   7.342   4.637 -1.8641  0.6705  0.9021
  539MOL0     H72728   2.780   7.220   4.854 -3.9573  0.2980 -1.3861
  539MOL0     H72729   2.795   7.142   5.048 -0.2510 -1.1173  1.4091
  539MOL0     H72730   2.978   7.190   5.077  0.4994  0.0216  0.8760
  539MOL0     H72731   2.905   7.233   5.318 -2.7020  0.6182  0.8796
  539MOL0     H72732   2.744   7.181   5.276 -0.6813 -2.2957  0.1799
  539MOL0     H72733   2.843   6.954   5.194  0.5856  2.0046 -2.9212
  539MOL0     H72734   2.998   7.019   5.254  0.1823 -0.8052 -1.0943
  539MOL0     H72735   2.748   6.920   5.380 -0.8135 -0.0306 -2.3262
  539MOL0     H72736   2.833   7.056   5.473  2.9081 -0.9644  0.5580
  539MOL0     H72737   3.052   6.918   5.430  0.4791 -2.8503 -4.2258
  539MOL0     H72738   2.955   6.791   5.396  0.1910 -0.2454  1.4148
  539MOL0     H72739   2.967   6.926   5.676  2.0013 -1.6772  0.6460
  539MOL0     H72740   2.826   6.836   5.602  0.4459 -1.6149  1.2423
  539MOL0     H72741   2.968   6.636   5.596  0.9560 -0.2895  0.3884
  539MOL0     H72742   2.968   6.716   5.750  1.4531  1.7782  0.2859
  539MOL0     H72743   3.191   6.628   5.685  2.1559  0.6058  1.3430
  539MOL0     H72744   3.191   6.720   5.543  0.8882 -1.4014  0.2967
  539MOL0     H72745   2.839   7.605   5.044  2.3306  0.2663 -2.2431
  539MOL0     H72746   2.778   7.714   4.825  0.7240  0.7046  1.9390
  539MOL0     H72747   2.965   7.897   4.456  2.0982  1.5306 -2.0896
  539MOL0     H72748   2.932   7.997   4.240  1.2057  0.7875  1.7658
  539MOL0     H72749   1.974   8.955   3.262 -0.7293  0.9039 -0.5651
  539MOL0     H72750   1.810   8.968   3.069 -1.6537 -0.6932 -0.8744
  539MOL0     H72751   1.739   8.853   2.633  1.2141  0.4829  4.3908
  539MOL0     H72752   1.584   8.928   2.468 -2.8509  2.2854  1.0840
  539MOL0     H72753   1.260   9.000   2.334  2.3054  1.7688 -0.0469
  539MOL0     H72754   1.341   9.030   2.482  0.9565 -0.2441 -0.7638
  539MOL0     H72755   1.157   8.957   2.607 -0.0444  1.1542  0.1174
  539MOL0     H72756   1.075   8.879   2.458 -0.4188 -1.2146  3.0091
  539MOL0     H72757   1.053   9.092   2.335  1.5162  1.5364 -0.9105
  539MOL0     H72758   1.132   9.178   2.452 -0.0755  0.5833  2.0487
  539MOL0     H72759   0.928   9.121   2.610 -0.1741  2.6272 -0.6288
  539MOL0     H72760   0.897   9.218   2.477 -1.9035  0.4205  0.9165
  539MOL0     H72761   0.681   8.873   2.363 -0.6991 -1.2968  3.7965
  539MOL0     H72762   1.267   8.701   2.648  0.7385 -1.4731 -1.8364
  539MOL0     H72763   1.284   8.659   2.881 -0.5732 -0.0445  2.3319
  539MOL0     H72764   1.402   8.529   2.893  0.7751  0.2384 -1.6488
  539MOL0     H72765   1.434   8.695   2.968  0.0273  0.6845 -0.5941
  540MOL0     O72766   1.875   9.219   1.891  0.4464 -0.1991  0.5482
  540MOL0     C72767   1.869   9.139   1.805  0.0563  0.5768  0.1516
  540MOL0     O72768   1.946   9.029   1.800 -1.2001  0.1314  0.4729
  540MOL0     C72769   2.027   9.017   1.912 -0.6998 -0.1344  0.0602
  540MOL0     C72770   2.163   9.073   1.913  0.2617 -0.5149 -0.3181
  540MOL0     C72771   2.237   9.064   2.026  0.8400 -0.9872  1.1166
  540MOL0     C72772   2.188   8.992   2.147 -0.2854  0.2507 -0.0632
  540MOL0     O72773   2.262   8.977   2.262  0.1152 -0.2761 -0.4205
  540MOL0     C72774   2.349   9.082   2.310  0.8223 -1.2553  0.8678
  540MOL0     C72775   2.393   9.081   2.450 -0.2708  0.5499 -0.0161
  540MOL0     C72776   2.488   8.960   2.482 -0.3653  0.0752  0.6912
  540MOL0     C72777   2.605   8.993   2.559  0.0007  0.5426  0.2552
  540MOL0     C72778   2.568   9.081   2.678 -0.3271 -0.2264  0.2676
  540MOL0     C72779   2.686   9.096   2.775  0.8548  0.4730 -0.2070
  540MOL0     C72780   2.642   9.212   2.876  0.5308  0.7468 -0.4648
  540MOL0     C72781   2.741   9.315   2.925  1.0943 -0.4632  0.2874
  540MOL0     N72782   2.848   9.241   2.998 -0.6920 -0.8153  0.4574
  540MOL0     C72783   2.948   9.180   2.928 -0.5987 -0.2911 -0.7418
  540MOL0     C72784   3.045   9.158   3.029  0.0119  1.0837  0.5925
  540MOL0     C72785   3.179   9.103   2.997  0.2945 -0.2835 -0.1093
  540MOL0     C72786   3.287   9.181   3.070 -0.2346 -0.5227  0.5661
  540MOL0     C72787   3.298   9.331   3.058  1.0693 -0.3149 -0.2018
  540MOL0     C72788   3.283   9.392   2.912  0.9880  0.4616  0.1955
  540MOL0     O72789   3.369   9.503   2.892 -1.0541  0.1206 -0.4968
  540MOL0     C72790   3.343   9.623   2.949 -0.9675  0.0914  0.3844
  540MOL0     C72791   3.425   9.730   2.898 -0.1931  0.3400 -0.3017
  540MOL0     C72792   3.413   9.857   2.944  0.1181  1.1906 -0.6471
  540MOL0     C72793   3.318   9.882   3.045  0.4376  0.3322 -0.7171
  540MOL0     C72794   3.291  10.023   3.085 -0.4688  0.3817 -0.0837
  540MOL0     O72795   3.370  10.118   3.033 -0.3929  0.5470  0.0095
  540MOL0     C72796   3.393  10.250   3.078 -0.5480 -0.4064 -0.1918
  540MOL0     C72797   3.485  10.324   3.000 -0.4912  0.1475  0.1060
  540MOL0     C72798   3.519  10.456   3.026  1.1958  0.0209  0.0037
  540MOL0     C72799   3.464  10.514   3.143 -0.2654  0.0379 -0.8048
  540MOL0     O72800   3.477  10.648   3.175 -0.9090  0.2332  0.8983
  540MOL0     C72801   3.394  10.707   3.281  0.0856  0.2464  0.0469
  540MOL0     C72802   3.427  10.849   3.309 -0.5358 -0.2059 -0.4198
  540MOL0     C72803   3.398  10.947   3.184 -0.4134  0.3943  0.9371
  540MOL0     C72804   3.412  11.092   3.217  0.5563  0.3332  0.7852
  540MOL0     C72805   3.291  11.148   3.294  1.0809 -0.0630 -0.7420
  540MOL0     C72806   3.302  11.307   3.329 -0.3963 -0.4932  0.4250
  540MOL0     C72807   3.185  11.373   3.388 -1.0905 -0.1724 -0.8010
  540MOL0     C72808   3.161  11.314   3.535  0.0997 -0.0009 -0.8458
  540MOL0    Cl72809   3.046  11.182   3.519  0.1036  0.1958 -0.0845
  540MOL0     C72810   3.358  10.442   3.204  0.8606 -0.1871  0.6296
  540MOL0     C72811   3.329  10.312   3.185  0.3108  0.1879  0.2967
  540MOL0     O72812   3.194  10.040   3.158 -0.3865 -0.5614 -0.2792
  540MOL0     C72813   3.231   9.777   3.101  0.2234  0.1499 -0.7218
  540MOL0     C72814   3.242   9.650   3.044  0.1277  0.3647 -0.6361
  540MOL0     N72815   3.006   9.214   3.151  0.1173  0.3189  0.1475
  540MOL0     N72816   2.889   9.265   3.129 -0.9775  0.3749 -1.0722
  540MOL0     C72817   2.071   8.928   2.136  0.5269  0.0987  0.6543
  540MOL0     C72818   1.995   8.943   2.023 -0.0870 -0.5497  0.0808
  540MOL0     C72819   1.782   9.158   1.688 -0.0943  0.3003  0.3310
  540MOL0     C72820   1.743   9.286   1.646  0.1570  0.3530  0.5522
  540MOL0     C72821   1.641   9.316   1.552 -0.4924  0.2098  0.2899
  540MOL0     C72822   1.586   9.208   1.484 -0.7787 -0.2063  1.4183
  540MOL0     O72823   1.493   9.214   1.378 -0.3111  0.3639  0.6067
  540MOL0     C72824   1.446   9.347   1.337  1.0984  0.1341 -0.3838
  540MOL0     C72825   1.388   9.356   1.194 -0.7143  0.0569 -0.5295
  540MOL0     C72826   1.497   9.339   1.082 -0.1021  0.8851  0.5970
  540MOL0     C72827   1.583   9.470   1.057 -0.7910 -0.6293 -0.4790
  540MOL0     C72828   1.683   9.440   0.952 -0.6427  0.2260  0.7940
  540MOL0     C72829   1.785   9.417   0.883  0.3036 -0.5656  0.2281
  540MOL0     C72830   1.621   9.077   1.517  0.1383  0.2279  0.7612
  540MOL0     C72831   1.720   9.047   1.612 -0.1199 -0.5237 -0.5199
  540MOL0     C72832   1.729   8.908   1.654  0.5716 -0.1653  0.4308
  540MOL0     H72833   2.191   9.128   1.823 -2.9012  1.6613 -0.1630
  540MOL0     H72834   2.337   9.104   2.028  1.1632 -1.6492 -0.6355
  540MOL0     H72835   2.434   9.097   2.244 -1.0007 -1.2855 -1.6629
  540MOL0     H72836   2.298   9.178   2.299 -0.3399 -1.9244  0.1463
  540MOL0     H72837   2.317   9.064   2.527 -1.0983  0.2717 -0.8780
  540MOL0     H72838   2.436   9.179   2.469 -3.5363  2.1916 -0.4957
  540MOL0     H72839   2.521   8.909   2.391  0.1192 -0.5005  1.1729
  540MOL0     H72840   2.439   8.887   2.548  0.7334  1.0101  2.6240
  540MOL0     H72841   2.647   8.896   2.588  0.7705  1.3637  2.0787
  540MOL0     H72842   2.671   9.054   2.495 -0.8201  4.6355  2.8973
  540MOL0     H72843   2.547   9.181   2.639  1.8692 -0.3860 -1.4824
  540MOL0     H72844   2.481   9.031   2.722 -1.0884 -0.4407 -1.4256
  540MOL0     H72845   2.718   9.007   2.830 -0.5204 -1.2439 -2.0601
  540MOL0     H72846   2.766   9.126   2.707  1.6327 -2.6956 -0.8514
  540MOL0     H72847   2.590   9.166   2.961  0.3083  4.3672  1.5179
  540MOL0     H72848   2.561   9.272   2.832 -0.2214  0.3271  0.3245
  540MOL0     H72849   2.776   9.375   2.841  1.5959 -0.1698  0.6975
  540MOL0     H72850   2.690   9.383   2.994  0.0471 -0.2530 -0.6716
  540MOL0     H72851   2.958   9.156   2.823  0.6412  3.0965 -1.5269
  540MOL0     H72852   3.186   9.000   3.033  2.7771 -0.4055 -0.7803
  540MOL0     H72853   3.194   9.097   2.889  2.2701  0.4824  0.0813
  540MOL0     H72854   3.293   9.162   3.178 -0.1793  1.1486  0.8844
  540MOL0     H72855   3.383   9.154   3.026  0.5006  0.1931  1.6569
  540MOL0     H72856   3.397   9.357   3.097  0.3402 -0.8416  2.1489
  540MOL0     H72857   3.220   9.380   3.118  1.5742  1.3826 -0.8595
  540MOL0     H72858   3.180   9.414   2.884  2.0241  0.1616 -4.7417
  540MOL0     H72859   3.311   9.323   2.831  0.0626 -1.2301  1.2572
  540MOL0     H72860   3.498   9.705   2.822  0.4877 -1.3036  0.8375
  540MOL0     H72861   3.468   9.938   2.897  0.9000  0.3513 -1.2150
  540MOL0     H72862   3.530  10.292   2.906  0.5144 -0.9617  0.9291
  540MOL0     H72863   3.579  10.517   2.960  1.3337  1.1070  1.0894
  540MOL0     H72864   3.292  10.697   3.243  0.1982 -5.3058  0.4160
  540MOL0     H72865   3.399  10.652   3.375 -2.5932 -0.3660 -0.1020
  540MOL0     H72866   3.371  10.886   3.395 -3.0628 -2.1669 -1.0780
  540MOL0     H72867   3.531  10.851   3.343 -0.4221 -0.5438 -0.7310
  540MOL0     H72868   3.482  10.935   3.115 -0.0914  1.3597  1.1432
  540MOL0     H72869   3.306  10.935   3.124 -1.3108 -0.6835  2.4663
  540MOL0     H72870   3.428  11.159   3.132  1.8657  0.0686  0.7989
  540MOL0     H72871   3.506  11.101   3.270  0.9854 -1.2906  0.3771
  540MOL0     H72872   3.292  11.105   3.395  1.5146  1.1571 -0.2075
  540MOL0     H72873   3.200  11.125   3.238  0.6154 -1.8644  0.6226
  540MOL0     H72874   3.390  11.330   3.390  1.1799  0.1542 -1.9827
  540MOL0     H72875   3.310  11.364   3.236  3.3758 -0.0369  0.8876
  540MOL0     H72876   3.099  11.382   3.321 -0.8234  3.0246 -0.8546
  540MOL0     H72877   3.208  11.478   3.410  3.3179 -1.3656  1.3954
  540MOL0     H72878   3.254  11.291   3.588  1.0747  1.9531 -1.6012
  540MOL0     H72879   3.120  11.387   3.605  0.6232 -0.5058  0.0125
  540MOL0     H72880   3.292  10.496   3.272  0.1825  3.9589 -2.8347
  540MOL0     H72881   3.260  10.255   3.247  3.3727 -4.7028 -0.2183
  540MOL0     H72882   3.146   9.790   3.168 -0.3145 -2.3313 -0.8111
  540MOL0     H72883   3.180   9.565   3.072  2.6502 -1.8356 -1.2707
  540MOL0     H72884   2.045   8.860   2.217  1.8460 -0.3348  0.7419
  540MOL0     H72885   1.897   8.899   2.007 -0.1964  0.2210 -1.7189
  540MOL0     H72886   1.787   9.372   1.695  0.4519  0.6795 -0.2698
  540MOL0     H72887   1.599   9.414   1.533  0.6611  0.6237 -0.1770
  540MOL0     H72888   1.518   9.429   1.332 -0.0046  1.0630 -1.8939
  540MOL0     H72889   1.366   9.365   1.409  0.8526  3.2186 -1.2670
  540MOL0     H72890   1.331   9.448   1.176 -0.9850  0.0433  0.2240
  540MOL0     H72891   1.323   9.269   1.178  0.2572 -0.9389  0.7620
  540MOL0     H72892   1.448   9.319   0.986 -1.5196 -1.5426  1.7465
  540MOL0     H72893   1.567   9.257   1.101 -1.6596 -0.4256  0.8925
  540MOL0     H72894   1.533   9.559   1.019 -0.4161  0.2350  0.9697
  540MOL0     H72895   1.645   9.490   1.145 -1.8910  0.9326 -0.0172
  540MOL0     H72896   1.874   9.401   0.826 -1.2291 -0.1001 -2.4940
  540MOL0     H72897   1.563   8.997   1.472  0.4594 -0.1934  1.0826
  540MOL0     H72898   1.713   8.908   1.762 -0.3190  2.1409  0.3514
  540MOL0     H72899   1.650   8.849   1.607 -0.8171  0.6295  1.6625
  540MOL0     H72900   1.828   8.865   1.638  1.6282  2.3023 -0.1508
  541MOL0     O72901   6.599   4.757   6.930 -0.4694  0.6006  0.3394
  541MOL0     C72902   6.611   4.879   6.914  0.1603  0.8508 -0.6341
  541MOL0     O72903   6.717   4.935   6.855  0.4132 -0.5693  0.3411
  541MOL0     C72904   6.816   4.856   6.798 -0.1010  0.2987 -0.4522
  541MOL0     C72905   6.883   4.752   6.862  0.0011  0.2303 -0.4153
  541MOL0     C72906   6.984   4.680   6.802 -0.3797  0.3930  0.1605
  541MOL0     C72907   7.040   4.735   6.680  0.5040 -0.4738  0.3048
  541MOL0     O72908   7.147   4.686   6.607  0.6298  0.0527 -0.0600
  541MOL0     C72909   7.238   4.612   6.668  0.1349  0.1132  0.1546
  541MOL0     C72910   7.369   4.616   6.580 -0.3273  0.5581  0.2610
  541MOL0     C72911   7.355   4.578   6.433 -0.3895 -0.4715 -0.8575
  541MOL0     C72912   7.496   4.578   6.360 -0.6991  0.0804 -0.3471
  541MOL0     C72913   7.470   4.526   6.214 -0.0474 -0.7836 -0.3110
  541MOL0     C72914   7.399   4.634   6.119  0.8761 -0.4840 -0.6582
  541MOL0     C72915   7.321   4.584   5.995  0.3483 -0.8499  0.9302
  541MOL0     C72916   7.405   4.542   5.871  0.5924 -0.5474  0.8526
  541MOL0     N72917   7.482   4.418   5.900  0.7884 -0.4365 -0.2012
  541MOL0     C72918   7.434   4.305   5.954  0.1495  0.4319  0.3775
  541MOL0     C72919   7.548   4.224   5.975  0.6344  0.2605  0.3293
  541MOL0     C72920   7.519   4.080   6.009  0.2427 -0.5846 -0.4896
  541MOL0     C72921   7.554   4.064   6.160 -0.0094 -0.4407 -0.5897
  541MOL0     C72922   7.561   3.921   6.202 -1.2487  0.5098  0.3484
  541MOL0     C72923   7.688   3.839   6.168 -0.1604  0.2968 -0.7549
  541MOL0     O72924   7.706   3.726   6.246  0.7761  0.3390 -0.2414
  541MOL0     C72925   7.759   3.740   6.372 -1.1573 -0.9487  0.5168
  541MOL0     C72926   7.859   3.832   6.415  0.9174 -0.4239  0.8625
  541MOL0     C72927   7.903   3.850   6.547  0.3727  0.0350 -0.4495
  541MOL0     C72928   7.859   3.763   6.643 -0.0657  0.5625  0.1640
  541MOL0     C72929   7.891   3.782   6.785 -0.6196  0.7301  1.0225
  541MOL0     O72930   7.946   3.898   6.817 -0.4067  0.3152 -0.8560
  541MOL0     C72931   8.027   3.900   6.931 -0.2194 -1.8246  0.1276
  541MOL0     C72932   8.110   3.795   6.963 -0.3327 -0.5387  0.3809
  541MOL0     C72933   8.214   3.813   7.059 -0.9362 -0.3402  0.5115
  541MOL0     C72934   8.210   3.932   7.129  0.2919 -0.2027  0.1639
  541MOL0     O72935   8.296   3.942   7.229  0.4155  0.3168 -0.1304
  541MOL0     C72936   8.238   3.990   7.352  0.4903  0.5891 -0.0058
  541MOL0     C72937   8.334   3.963   7.468 -0.0025  0.3787  0.4063
  541MOL0     C72938   8.291   4.035   7.594 -0.1966  0.3603  0.9486
  541MOL0     C72939   8.402   4.014   7.710 -0.9666 -0.3655  0.5128
  541MOL0     C72940   8.364   4.105   7.826 -0.0950 -0.7499  0.0600
  541MOL0     C72941   8.479   4.107   7.932 -0.2197  0.2826 -0.1727
  541MOL0     C72942   8.591   4.219   7.901  0.2489  0.1596  1.2426
  541MOL0     C72943   8.707   4.199   7.997 -0.2776  0.0795 -0.6719
  541MOL0    Cl72944   8.838   4.325   7.990  0.2213  0.0788 -0.0769
  541MOL0     C72945   8.117   4.036   7.090 -1.0552  0.5572  0.5095
  541MOL0     C72946   8.032   4.023   6.981 -0.3546  0.7654 -1.2777
  541MOL0     O72947   7.878   3.689   6.870  0.2673 -0.1590  0.2313
  541MOL0     C72948   7.760   3.669   6.606 -0.0756  0.4581  0.4689
  541MOL0     C72949   7.716   3.656   6.474  0.2315  0.8902  0.5431
  541MOL0     N72950   7.655   4.295   5.936 -0.2340  1.0120  0.4759
  541MOL0     N72951   7.619   4.413   5.892 -0.6354  0.8943  0.7771
  541MOL0     C72952   6.989   4.856   6.632  0.3873 -0.8737 -0.1126
  541MOL0     C72953   6.875   4.909   6.689 -0.2773  0.5885 -0.1201
  541MOL0     C72954   6.509   4.979   6.962  0.3837  0.3779 -0.0200
  541MOL0     C72955   6.535   5.109   6.992  0.0144  0.6488  0.6247
  541MOL0     C72956   6.430   5.199   7.033  0.2183  0.3718  0.5747
  541MOL0     C72957   6.300   5.157   7.042  1.0841  0.4608  0.4607
  541MOL0     O72958   6.199   5.231   7.095  0.0298  0.4286 -0.0425
  541MOL0     C72959   6.240   5.355   7.145 -0.4473  0.0820  0.0732
  541MOL0     C72960   6.108   5.413   7.198  0.2683  0.1602 -0.2824
  541MOL0     C72961   6.124   5.553   7.255  0.1535 -0.1778  0.1966
  541MOL0     C72962   5.997   5.591   7.337  0.0159 -0.4343 -1.0255
  541MOL0     C72963   5.894   5.654   7.250  0.9642 -0.6657  0.5096
  541MOL0     C72964   5.815   5.695   7.158 -0.3897 -0.2835 -0.5066
  541MOL0     C72965   6.267   5.028   6.998 -0.4181  0.4917  0.2200
  541MOL0     C72966   6.374   4.940   6.956  0.4103  0.3989  0.1316
  541MOL0     C72967   6.320   4.798   6.925  0.6358 -0.3505  0.5885
  541MOL0     H72968   6.853   4.717   6.960 -3.6067  1.4546 -0.9505
  541MOL0     H72969   7.019   4.584   6.839 -0.4996 -0.3207 -1.4647
  541MOL0     H72970   7.261   4.658   6.765 -2.1141  2.1519 -0.1767
  541MOL0     H72971   7.199   4.510   6.673 -0.9001  0.3527 -1.8567
  541MOL0     H72972   7.446   4.545   6.613  0.2667  1.2113  0.3063
  541MOL0     H72973   7.412   4.716   6.591 -1.2911  0.8687  1.3802
  541MOL0     H72974   7.297   4.654   6.379 -0.4636  0.0128 -0.1081
  541MOL0     H72975   7.308   4.482   6.414  0.9624 -1.0608 -1.3597
  541MOL0     H72976   7.545   4.676   6.370 -1.1565  0.1833  1.3831
  541MOL0     H72977   7.558   4.501   6.405  2.4016  0.0344 -4.2048
  541MOL0     H72978   7.566   4.495   6.172 -1.0892 -0.7619 -2.9290
  541MOL0     H72979   7.410   4.435   6.220  0.2545 -1.0460 -1.1626
  541MOL0     H72980   7.318   4.674   6.181  0.9024 -1.7908  0.2776
  541MOL0     H72981   7.464   4.712   6.079 -0.7442  0.3166 -1.8458
  541MOL0     H72982   7.261   4.670   5.962  0.8618 -1.2411 -1.1469
  541MOL0     H72983   7.259   4.504   6.036  1.5259 -1.8149  0.8554
  541MOL0     H72984   7.350   4.542   5.777  2.2095  0.0329 -0.1311
  541MOL0     H72985   7.472   4.628   5.862 -0.6968  0.2563 -2.0289
  541MOL0     H72986   7.332   4.274   5.973 -1.0504  2.1872 -2.5663
  541MOL0     H72987   7.414   4.052   6.001  0.0548 -0.7274  1.8249
  541MOL0     H72988   7.582   4.025   5.938 -0.7088 -1.9588 -0.3178
  541MOL0     H72989   7.645   4.123   6.171 -0.2282 -0.0349 -0.9363
  541MOL0     H72990   7.484   4.123   6.221  1.3578 -0.4640  1.0853
  541MOL0     H72991   7.472   3.864   6.176 -0.6571 -0.5407  0.5939
  541MOL0     H72992   7.557   3.926   6.311 -1.5886 -0.4045  0.3847
  541MOL0     H72993   7.776   3.903   6.159  0.1647  0.1858  1.2517
  541MOL0     H72994   7.655   3.794   6.073 -2.4281 -2.1742  1.0612
  541MOL0     H72995   7.898   3.897   6.337 -1.5067 -1.0429 -0.9791
  541MOL0     H72996   7.977   3.927   6.564 -1.7898  2.4468 -1.4593
  541MOL0     H72997   8.099   3.703   6.907 -0.0431  1.0272 -2.3834
  541MOL0     H72998   8.292   3.740   7.077  1.2767  1.2818 -1.7391
  541MOL0     H72999   8.219   4.097   7.343 -1.1824  0.3118 -0.0717
  541MOL0     H73000   8.141   3.943   7.369  0.5735  1.0235  1.8254
  541MOL0     H73001   8.346   3.856   7.481 -0.5469  0.1155 -1.0333
  541MOL0     H73002   8.434   3.999   7.439  0.4282 -0.8192  0.3753
  541MOL0     H73003   8.273   4.139   7.564 -0.1349 -0.2761 -1.4529
  541MOL0     H73004   8.198   3.984   7.621 -0.5634 -0.9485 -2.3581
  541MOL0     H73005   8.500   4.051   7.680 -2.7797  2.8863 -2.0950
  541MOL0     H73006   8.404   3.910   7.743 -2.5440 -0.5525  0.1340
  541MOL0     H73007   8.271   4.066   7.869 -0.9128 -0.6987 -1.5804
  541MOL0     H73008   8.351   4.206   7.786 -0.6206 -1.3180 -1.2534
  541MOL0     H73009   8.449   4.133   8.034  0.9022 -1.1771  0.5632
  541MOL0     H73010   8.521   4.007   7.949 -0.9545  0.0957  0.6105
  541MOL0     H73011   8.555   4.322   7.911  1.4565  0.4444  3.2828
  541MOL0     H73012   8.629   4.205   7.799  0.4978  2.4829  0.9705
  541MOL0     H73013   8.669   4.200   8.100 -0.5760 -0.1397 -0.7780
  541MOL0     H73014   8.746   4.099   7.978  0.0821  0.1489 -0.3049
  541MOL0     H73015   8.124   4.130   7.144 -1.9470 -0.0978  1.8310
  541MOL0     H73016   7.966   4.108   6.961 -1.3672  0.9387  2.0621
  541MOL0     H73017   7.725   3.591   6.673  0.8375 -2.4822 -2.2361
  541MOL0     H73018   7.642   3.578   6.462 -1.6453  2.6916 -0.2151
  541MOL0     H73019   7.026   4.913   6.547  1.8657  1.9253  2.2317
  541MOL0     H73020   6.838   5.008   6.666  1.4321  1.5353  1.0179
  541MOL0     H73021   6.641   5.132   6.997  0.8539 -2.5153 -0.2497
  541MOL0     H73022   6.471   5.296   7.058 -0.0217  1.2071 -2.0121
  541MOL0     H73023   6.272   5.424   7.066  2.2618  0.3526  1.2862
  541MOL0     H73024   6.316   5.355   7.224  0.0308  2.8529 -0.2543
  541MOL0     H73025   6.067   5.340   7.269 -0.7243  0.1562 -0.8273
  541MOL0     H73026   6.027   5.400   7.125  0.6797 -3.7871 -0.2440
  541MOL0     H73027   6.133   5.619   7.169  3.4150  3.2363  2.8043
  541MOL0     H73028   6.217   5.568   7.311  1.2145 -1.2348 -1.2109
  541MOL0     H73029   5.956   5.501   7.383  0.2326  0.5699  1.2730
  541MOL0     H73030   6.004   5.672   7.411 -2.3577  0.2721 -1.4865
  541MOL0     H73031   5.753   5.731   7.078 -1.9321 -0.1377  0.7104
  541MOL0     H73032   6.168   4.984   7.005  0.0262 -0.7108 -0.6174
  541MOL0     H73033   6.351   4.774   6.823  1.4490  4.6055 -0.5878
  541MOL0     H73034   6.352   4.730   7.005  1.0290  0.2258  0.9384
  541MOL0     H73035   6.212   4.794   6.912  0.7506  0.1501 -0.6051
  542MOL0     O73036   1.536   4.498  10.126  0.1355  0.9573  0.8137
  542MOL0     C73037   1.513   4.549  10.236  0.6968  0.4881  0.3083
  542MOL0     O73038   1.562   4.668  10.285 -0.0410 -0.1564  0.5891
  542MOL0     C73039   1.597   4.759  10.186 -0.2112  0.2836 -0.3722
  542MOL0     C73040   1.531   4.875  10.212 -0.0388 -0.3140  0.3240
  542MOL0     C73041   1.555   4.985  10.124  0.2249 -0.0207  0.1169
  542MOL0     C73042   1.653   4.980  10.022  1.3242 -0.4590 -0.3800
  542MOL0     O73043   1.681   5.090   9.940 -0.1002 -0.5297 -0.5015
  542MOL0     C73044   1.578   5.173   9.893  0.2598 -0.4603 -0.5893
  542MOL0     C73045   1.483   5.104   9.803  0.6926  0.1354  1.7870
  542MOL0     C73046   1.545   5.053   9.667 -1.1931  0.3007 -0.2547
  542MOL0     C73047   1.433   5.001   9.566  0.9076 -0.4477 -0.0380
  542MOL0     C73048   1.512   4.920   9.459  1.0639 -0.8480 -0.5814
  542MOL0     C73049   1.424   4.876   9.344 -0.8247  0.2711 -0.6250
  542MOL0     C73050   1.284   4.817   9.371  0.6894  0.6636  0.3727
  542MOL0     C73051   1.209   4.802   9.234 -0.8474  0.8023 -0.9183
  542MOL0     N73052   1.251   4.681   9.162 -0.4417 -0.4036 -0.2051
  542MOL0     C73053   1.245   4.550   9.221  0.5549 -0.6872  0.5065
  542MOL0     C73054   1.313   4.476   9.134  0.0154  0.5524 -0.4161
  542MOL0     C73055   1.364   4.334   9.153 -0.5979  0.8577 -0.7034
  542MOL0     C73056   1.475   4.299   9.059  0.5082  0.3843  0.0978
  542MOL0     C73057   1.521   4.148   9.063  0.5043 -0.5859  0.5447
  542MOL0     C73058   1.668   4.126   9.078 -0.7195  0.3156 -0.2165
  542MOL0     O73059   1.742   4.190   9.184  0.7579 -0.1029  0.0746
  542MOL0     C73060   1.880   4.198   9.183 -0.1859  0.5637 -1.4262
  542MOL0     C73061   1.945   4.238   9.298  0.1050  0.4554 -1.1014
  542MOL0     C73062   2.084   4.235   9.307  0.3013 -0.3461  0.5483
  542MOL0     C73063   2.166   4.190   9.200 -0.1446 -0.1323  0.6147
  542MOL0     C73064   2.310   4.161   9.209 -0.4052 -0.6503  0.8003
  542MOL0     O73065   2.379   4.139   9.094  0.5388 -0.3358  0.1121
  542MOL0     C73066   2.506   4.091   9.092 -0.2789  0.3773 -0.4648
  542MOL0     C73067   2.599   4.167   9.022  0.0167 -0.1570  1.7049
  542MOL0     C73068   2.735   4.135   9.016 -0.0615  0.7552  0.7980
  542MOL0     C73069   2.774   4.003   9.058  0.2005 -0.1249  0.7513
  542MOL0     O73070   2.897   3.966   9.011  0.0533  0.1433  0.4741
  542MOL0     C73071   2.973   3.878   9.107  0.0840  0.8696  0.1050
  542MOL0     C73072   3.103   3.823   9.036  0.0081  0.1040  0.1502
  542MOL0     C73073   3.202   3.939   9.020  0.9492  1.4556  0.0544
  542MOL0     C73074   3.323   3.916   8.924  0.0869  0.1120  0.6815
  542MOL0     C73075   3.283   3.910   8.783 -0.1853 -0.1450 -0.8652
  542MOL0     C73076   3.219   4.040   8.730  0.6306 -0.1183  0.5799
  542MOL0     C73077   3.218   4.072   8.582  0.6247  0.0338  0.1328
  542MOL0     C73078   3.130   3.977   8.500 -0.6993 -0.3369 -0.1950
  542MOL0    Cl73079   3.112   4.029   8.333 -0.2002 -0.1936 -0.3653
  542MOL0     C73080   2.681   3.922   9.118 -0.1852  0.2001 -0.6777
  542MOL0     C73081   2.551   3.962   9.144  0.4810  0.2114 -0.5140
  542MOL0     O73082   2.363   4.175   9.317 -0.6356  0.1674  0.2275
  542MOL0     C73083   2.102   4.165   9.084  0.2352 -0.0562  0.1134
  542MOL0     C73084   1.966   4.175   9.070  0.1578  0.2412 -0.4757
  542MOL0     N73085   1.336   4.554   9.018 -0.2287 -1.0110  0.3225
  542MOL0     N73086   1.296   4.677   9.037 -1.0173 -0.2260  0.0937
  542MOL0     C73087   1.714   4.860   9.995  0.3015  0.4203 -0.2861
  542MOL0     C73088   1.681   4.748  10.073  0.1130 -0.1335 -0.7783
  542MOL0     C73089   1.429   4.465  10.319  0.0254 -0.5155  0.1404
  542MOL0     C73090   1.329   4.373  10.262 -1.2820  0.3710  0.0958
  542MOL0     C73091   1.243   4.295  10.342 -1.2558  0.7375  0.1455
  542MOL0     C73092   1.237   4.313  10.477  0.5752 -0.0006 -1.1422
  542MOL0     O73093   1.141   4.253  10.558  0.0963 -0.8468  0.0039
  542MOL0     C73094   1.005   4.232  10.501  0.5507 -0.7657  0.5582
  542MOL0     C73095   0.890   4.227  10.606 -0.1026  0.1534  0.8656
  542MOL0     C73096   0.920   4.123  10.716 -0.5125  1.0162 -0.4848
  542MOL0     C73097   0.799   4.112  10.808  0.4205 -0.9054  0.0097
  542MOL0     C73098   0.807   4.001  10.908  0.3332  0.0808  0.9108
  542MOL0     C73099   0.811   3.907  10.982  0.1939  0.6304  1.2424
  542MOL0     C73100   1.342   4.401  10.537  0.3362 -0.0201 -0.8861
  542MOL0     C73101   1.437   4.468  10.462  0.2110  0.6583 -0.9309
  542MOL0     C73102   1.554   4.535  10.528 -0.1294  0.7169 -0.0062
  542MOL0     H73103   1.474   4.893  10.302  1.0400  0.4683  0.8778
  542MOL0     H73104   1.493   5.069  10.152 -1.6348 -1.3088  0.0448
  542MOL0     H73105   1.517   5.211   9.976  0.6104 -1.4068  0.1324
  542MOL0     H73106   1.629   5.255   9.843 -1.9849  2.0569  0.9604
  542MOL0     H73107   1.407   5.178   9.775  1.4938 -0.0166 -1.1690
  542MOL0     H73108   1.432   5.019   9.850 -0.9584  0.7516  1.1888
  542MOL0     H73109   1.623   4.983   9.697 -2.9506 -1.6473  0.0113
  542MOL0     H73110   1.600   5.133   9.617  1.1122  0.5809  2.4842
  542MOL0     H73111   1.351   4.941   9.604  1.2101 -1.4301 -0.8922
  542MOL0     H73112   1.384   5.087   9.519  1.4791 -1.1766 -2.1059
  542MOL0     H73113   1.598   4.982   9.430 -0.0316 -0.1758 -2.5569
  542MOL0     H73114   1.549   4.829   9.508 -0.8434 -1.2428  0.2102
  542MOL0     H73115   1.424   4.970   9.289 -0.0132  0.4136 -0.3943
  542MOL0     H73116   1.490   4.815   9.282  2.5103  2.2047  0.7923
  542MOL0     H73117   1.233   4.879   9.445  1.3347 -0.0810  1.4691
  542MOL0     H73118   1.295   4.722   9.424 -1.5719  0.0817 -0.0878
  542MOL0     H73119   1.107   4.780   9.266 -0.9448 -0.3097 -1.9288
  542MOL0     H73120   1.220   4.895   9.177  0.2624  0.7489 -0.8103
  542MOL0     H73121   1.191   4.509   9.306  0.8540 -1.7055  0.2160
  542MOL0     H73122   1.408   4.325   9.253 -3.1444  2.8661  0.7447
  542MOL0     H73123   1.283   4.261   9.146 -0.8408  1.0421  0.0514
  542MOL0     H73124   1.447   4.319   8.955  1.0654 -0.7259 -0.2839
  542MOL0     H73125   1.558   4.365   9.088  0.2669  0.7315  0.0105
  542MOL0     H73126   1.484   4.089   8.978 -0.1931 -0.4307  0.7411
  542MOL0     H73127   1.479   4.102   9.152  1.9309 -0.8103  1.1282
  542MOL0     H73128   1.707   4.146   8.978  0.3299  3.3538  0.6908
  542MOL0     H73129   1.688   4.020   9.097 -0.5325  0.6709  1.8736
  542MOL0     H73130   1.883   4.271   9.381 -0.2836 -3.0973  0.1564
  542MOL0     H73131   2.108   4.281   9.403 -0.8915  2.2239 -0.2998
  542MOL0     H73132   2.578   4.257   8.966  5.2734  0.1360 -0.3716
  542MOL0     H73133   2.819   4.192   8.980  0.9575 -1.2769 -0.2133
  542MOL0     H73134   2.999   3.911   9.208 -0.4314 -1.2793  0.9865
  542MOL0     H73135   2.915   3.787   9.123  2.1425 -0.2512  1.5328
  542MOL0     H73136   3.146   3.738   9.091  0.8829  0.5306  0.1386
  542MOL0     H73137   3.075   3.785   8.938  0.3528 -0.2592  0.1881
  542MOL0     H73138   3.143   4.027   8.995  1.4038  1.7919  0.1589
  542MOL0     H73139   3.234   3.949   9.124 -1.0328 -0.1546  0.8972
  542MOL0     H73140   3.370   3.818   8.938 -1.4072 -1.2673 -2.7292
  542MOL0     H73141   3.395   3.996   8.943 -1.3069  1.7490 -0.5355
  542MOL0     H73142   3.210   3.831   8.765  0.0513 -1.0579  1.6895
  542MOL0     H73143   3.374   3.880   8.731  0.9819  2.4162 -0.4453
  542MOL0     H73144   3.117   4.037   8.770  0.9843  0.8325  1.6185
  542MOL0     H73145   3.276   4.128   8.760 -2.6132  1.8923  1.4465
  542MOL0     H73146   3.321   4.060   8.549  1.6569  0.0292  3.0461
  542MOL0     H73147   3.182   4.173   8.558  1.2890  0.6092  1.4008
  542MOL0     H73148   3.186   3.883   8.494  0.9504  0.5112  1.4441
  542MOL0     H73149   3.035   3.956   8.551  1.1654 -0.8985  3.2935
  542MOL0     H73150   2.708   3.820   9.143 -0.9017 -0.3521 -2.0430
  542MOL0     H73151   2.485   3.906   9.209  1.0630 -0.8278 -0.8037
  542MOL0     H73152   2.152   4.125   8.997 -1.5699 -4.6387  0.8841
  542MOL0     H73153   1.929   4.142   8.974  0.8500  1.3998 -1.1636
  542MOL0     H73154   1.787   4.858   9.915  2.7525  5.5109  1.4040
  542MOL0     H73155   1.714   4.648  10.046 -0.2265  0.0136 -1.7782
  542MOL0     H73156   1.304   4.368  10.156 -0.2857  1.5887 -0.2240
  542MOL0     H73157   1.166   4.232  10.300  0.0628 -1.4130  0.7885
  542MOL0     H73158   1.006   4.146  10.433 -1.2231 -0.6248  0.3042
  542MOL0     H73159   0.966   4.316  10.443  1.6845 -1.5969 -1.5246
  542MOL0     H73160   0.794   4.209  10.558 -0.4142 -1.5768  2.0679
  542MOL0     H73161   0.891   4.327  10.652  1.8781 -1.0726  3.7876
  542MOL0     H73162   1.011   4.144  10.773 -0.3818  0.9527 -0.6677
  542MOL0     H73163   0.927   4.026  10.666  3.6029  0.7999  0.2104
  542MOL0     H73164   0.793   4.212  10.852 -0.1805 -0.5357 -0.8899
  542MOL0     H73165   0.716   4.105  10.738  1.4712  0.6581 -1.4988
  542MOL0     H73166   0.813   3.828  11.055  1.8514 -0.9689 -0.4495
  542MOL0     H73167   1.357   4.408  10.644 -0.8443  4.1556 -0.8450
  542MOL0     H73168   1.650   4.515  10.481  0.4415  0.5628  1.1707
  542MOL0     H73169   1.534   4.643  10.531 -2.0411  0.3808  0.7882
  542MOL0     H73170   1.564   4.500  10.631 -0.1462  1.6070  0.3111
  543MOL0     O73171   1.380   7.099   6.324 -0.5003  0.1389  0.0573
  543MOL0     C73172   1.333   7.114   6.437  0.1118  0.1343 -0.6693
  543MOL0     O73173   1.368   7.206   6.525 -0.0750 -0.3254 -0.4180
  543MOL0     C73174   1.482   7.278   6.505  0.3147  0.2108  0.0233
  543MOL0     C73175   1.463   7.406   6.547  0.0404  0.4443 -0.4020
  543MOL0     C73176   1.567   7.501   6.522  0.6853 -0.1104 -0.5361
  543MOL0     C73177   1.684   7.461   6.462  0.0138 -0.6697  0.1170
  543MOL0     O73178   1.785   7.554   6.457  0.0815 -0.4383 -0.2670
  543MOL0     C73179   1.791   7.608   6.321  0.4368  0.2400 -0.1039
  543MOL0     C73180   1.923   7.595   6.276 -0.3010  0.2852  0.2792
  543MOL0     C73181   1.944   7.683   6.159  0.0187 -0.9609 -0.2111
  543MOL0     C73182   2.029   7.815   6.200 -0.5374 -0.3260  0.2436
  543MOL0     C73183   1.939   7.932   6.246  0.3186  0.9218 -0.3455
  543MOL0     C73184   1.997   8.076   6.261 -1.0707  1.2734 -0.7679
  543MOL0     C73185   2.112   8.096   6.372  0.4398  0.3867 -0.4555
  543MOL0     C73186   2.146   8.248   6.372 -0.6196 -0.1480 -1.0652
  543MOL0     N73187   2.237   8.274   6.486  0.1033 -0.6085 -0.9190
  543MOL0     C73188   2.198   8.238   6.612 -0.1115 -0.2944 -0.5720
  543MOL0     C73189   2.302   8.260   6.688  0.9244 -1.1041  0.6749
  543MOL0     C73190   2.320   8.225   6.836 -0.4318 -0.3671 -0.4469
  543MOL0     C73191   2.374   8.097   6.867  0.8067 -0.4014  0.3277
  543MOL0     C73192   2.296   8.041   6.985 -0.2401  1.2255  0.8624
  543MOL0     C73193   2.353   7.893   7.017  0.3795  0.0201  0.4664
  543MOL0     O73194   2.254   7.802   7.067  0.6608 -0.6801 -1.0261
  543MOL0     C73195   2.283   7.688   7.132  0.5335 -0.3967  0.4471
  543MOL0     C73196   2.175   7.622   7.198  0.2307  0.1100 -0.2571
  543MOL0     C73197   2.198   7.511   7.284 -0.2031 -0.3899  0.2753
  543MOL0     C73198   2.327   7.456   7.299 -0.8046 -0.0570 -0.3596
  543MOL0     C73199   2.363   7.355   7.403  0.3107  1.0825  0.3350
  543MOL0     O73200   2.261   7.310   7.489  0.1772 -0.1166 -0.3881
  543MOL0     C73201   2.300   7.272   7.615  0.4751 -0.2439 -0.1434
  543MOL0     C73202   2.210   7.300   7.726 -0.0221  0.2100  0.5663
  543MOL0     C73203   2.254   7.282   7.857  0.1240 -0.3866 -1.0998
  543MOL0     C73204   2.384   7.228   7.882  1.7683 -0.9832 -0.9480
  543MOL0     O73205   2.402   7.219   8.023 -0.4860 -0.0801 -0.6665
  543MOL0     C73206   2.526   7.169   8.072 -0.0883  0.9032  0.2577
  543MOL0     C73207   2.522   7.187   8.221  0.9635  0.5932 -0.1706
  543MOL0     C73208   2.449   7.071   8.293 -0.3157  0.3742 -0.5657
  543MOL0     C73209   2.295   7.054   8.273 -0.5217  0.1714  0.7201
  543MOL0     C73210   2.210   7.170   8.319 -0.2860  0.7642  0.4685
  543MOL0     C73211   2.193   7.178   8.475  0.0109  0.3376  0.2633
  543MOL0     C73212   2.075   7.267   8.512  0.8998  0.7113 -0.2201
  543MOL0     C73213   1.995   7.194   8.628  0.1566 -0.1868 -0.2570
  543MOL0    Cl73214   1.835   7.276   8.663  0.2206 -0.0642 -0.2642
  543MOL0     C73215   2.460   7.181   7.775 -0.8419  0.4755 -0.6203
  543MOL0     C73216   2.412   7.197   7.646 -0.3119 -0.0981 -0.2910
  543MOL0     O73217   2.482   7.329   7.427  0.0357 -0.4772  0.6987
  543MOL0     C73218   2.428   7.520   7.225 -0.6152 -0.2496 -0.1873
  543MOL0     C73219   2.406   7.638   7.152  1.1838 -1.0221  0.2430
  543MOL0     N73220   2.400   8.306   6.600 -0.0714  0.2159  0.1577
  543MOL0     N73221   2.356   8.335   6.481  0.1878  0.1999 -0.1705
  543MOL0     C73222   1.716   7.328   6.437  1.4799  0.0920  0.6052
  543MOL0     C73223   1.607   7.240   6.442 -0.1864  0.1837 -0.7977
  543MOL0     C73224   1.215   7.025   6.475  0.1085 -0.5494 -0.6199
  543MOL0     C73225   1.166   7.030   6.612 -0.5434  0.6164  0.4353
  543MOL0     C73226   1.094   6.924   6.663 -0.2825 -0.0785 -0.4056
  543MOL0     C73227   1.040   6.824   6.586 -1.3159  0.8959 -0.8557
  543MOL0     O73228   0.964   6.712   6.627  0.5910 -0.4257  0.2915
  543MOL0     C73229   0.915   6.694   6.759 -0.3724  0.0883 -1.5138
  543MOL0     C73230   0.892   6.545   6.772 -0.6033  0.1893  0.2745
  543MOL0     C73231   0.775   6.484   6.707 -1.5871  0.6708  0.7465
  543MOL0     C73232   0.768   6.506   6.556 -0.0953  0.3576 -0.5791
  543MOL0     C73233   0.647   6.452   6.495  0.5096  0.7815  0.9924
  543MOL0     C73234   0.550   6.427   6.433  0.1520  0.5987  0.3810
  543MOL0     C73235   1.060   6.830   6.446 -0.3818  0.7946 -0.7005
  543MOL0     C73236   1.147   6.925   6.396 -1.0578 -0.3303  0.4115
  543MOL0     C73237   1.175   6.921   6.249 -0.3288 -1.1264 -0.3049
  543MOL0     H73238   1.365   7.424   6.590  1.4368  2.2023  2.3232
  543MOL0     H73239   1.539   7.605   6.540 -2.9228 -0.2129 -4.0246
  543MOL0     H73240   1.725   7.566   6.244  0.5082  1.9267 -1.1337
  543MOL0     H73241   1.757   7.712   6.313 -0.9632 -0.3036 -2.0810
  543MOL0     H73242   1.955   7.493   6.252  0.4688  0.3175  1.0994
  543MOL0     H73243   1.993   7.630   6.353  0.3983  0.9130 -0.6225
  543MOL0     H73244   1.861   7.717   6.096 -1.0129 -1.6460  0.7430
  543MOL0     H73245   2.005   7.625   6.090  2.5735  0.0932  1.0457
  543MOL0     H73246   2.109   7.789   6.270  1.0977 -2.4917 -2.2227
  543MOL0     H73247   2.083   7.846   6.110  1.6131 -1.6061  1.0273
  543MOL0     H73248   1.859   7.933   6.172  0.1669  1.3053 -0.1785
  543MOL0     H73249   1.896   7.902   6.342  2.0303 -3.2587 -0.6853
  543MOL0     H73250   2.046   8.099   6.167  1.9037  0.6149  0.5010
  543MOL0     H73251   1.913   8.146   6.273 -0.4964  2.2610 -2.3387
  543MOL0     H73252   2.196   8.033   6.340 -0.1660 -2.6188  3.1638
  543MOL0     H73253   2.070   8.056   6.465  0.1773  2.1603  0.2172
  543MOL0     H73254   2.192   8.272   6.276  1.8083 -0.4722 -0.0801
  543MOL0     H73255   2.057   8.304   6.402 -0.4532 -2.1163  4.3699
  543MOL0     H73256   2.104   8.200   6.649  1.1453 -0.8926  2.2839
  543MOL0     H73257   2.389   8.304   6.866 -2.8329  1.5451  0.4119
  543MOL0     H73258   2.226   8.236   6.891  0.0707 -0.3951  0.4299
  543MOL0     H73259   2.352   8.033   6.781  0.0910 -0.4774  0.5642
  543MOL0     H73260   2.483   8.105   6.872  0.7891 -0.4390  0.8973
  543MOL0     H73261   2.190   8.015   6.977  0.4798 -3.0665  2.4530
  543MOL0     H73262   2.295   8.110   7.070  1.1900 -0.1751  2.0681
  543MOL0     H73263   2.442   7.885   7.080 -0.6488  2.2859  2.3585
  543MOL0     H73264   2.379   7.850   6.920  0.3846  0.7173  0.1463
  543MOL0     H73265   2.080   7.674   7.189  0.3931  0.0726 -3.3474
  543MOL0     H73266   2.113   7.470   7.338 -0.6969 -2.3504 -1.8309
  543MOL0     H73267   2.122   7.348   7.685  1.6873 -0.6856 -4.8822
  543MOL0     H73268   2.198   7.311   7.946  1.9256 -2.5756  0.8805
  543MOL0     H73269   2.527   7.063   8.043 -1.2035  0.3403  2.1165
  543MOL0     H73270   2.618   7.212   8.032 -1.4296  2.4035 -1.3430
  543MOL0     H73271   2.626   7.171   8.249  1.6630  3.1046 -1.1400
  543MOL0     H73272   2.480   7.277   8.265 -1.1494 -0.0538 -0.7380
  543MOL0     H73273   2.490   6.979   8.250  0.1562  0.6413 -0.6921
  543MOL0     H73274   2.472   7.079   8.400 -2.8426  1.6659 -0.0294
  543MOL0     H73275   2.253   6.970   8.329 -1.4349 -0.1832 -0.4679
  543MOL0     H73276   2.273   7.025   8.170 -1.6162  2.2218  0.3210
  543MOL0     H73277   2.114   7.157   8.269  1.2763 -5.1168 -1.7964
  543MOL0     H73278   2.247   7.263   8.275  4.6562 -0.4770  1.3826
  543MOL0     H73279   2.184   7.077   8.516 -0.0426 -0.0187 -0.6135
  543MOL0     H73280   2.280   7.231   8.514  0.7962  0.5971 -1.7264
  543MOL0     H73281   2.007   7.274   8.427  2.6281  1.3291 -1.6069
  543MOL0     H73282   2.112   7.363   8.551  0.3811  1.0905 -0.6611
  543MOL0     H73283   1.977   7.088   8.610 -0.6737  0.3555 -3.2017
  543MOL0     H73284   2.053   7.206   8.720  0.9422  3.1850 -1.0470
  543MOL0     H73285   2.551   7.124   7.787 -0.7957  0.9340  1.6500
  543MOL0     H73286   2.462   7.157   7.558  0.9302  3.4446 -1.3359
  543MOL0     H73287   2.534   7.500   7.241  0.8768  6.2925  0.9847
  543MOL0     H73288   2.493   7.688   7.111  0.3183 -0.5862 -1.1333
  543MOL0     H73289   1.821   7.308   6.416  2.3995  0.1734  4.3749
  543MOL0     H73290   1.631   7.138   6.413  2.3226  0.0026  1.5291
  543MOL0     H73291   1.180   7.116   6.677 -2.3288  0.4395  1.1145
  543MOL0     H73292   1.077   6.915   6.770 -0.0194  0.4661 -0.3166
  543MOL0     H73293   0.819   6.744   6.773  0.9009  1.9267  1.8755
  543MOL0     H73294   0.976   6.738   6.838  0.4907  1.8538 -3.0711
  543MOL0     H73295   0.874   6.527   6.878 -1.7334 -2.5850 -0.2994
  543MOL0     H73296   0.988   6.494   6.754  0.6406  0.5521  4.7245
  543MOL0     H73297   0.683   6.521   6.752 -1.5302  0.5698  0.9439
  543MOL0     H73298   0.780   6.376   6.722 -1.2406  0.1615 -2.3584
  543MOL0     H73299   0.766   6.614   6.539  2.6952  0.1980 -2.4473
  543MOL0     H73300   0.852   6.466   6.499 -2.5857 -1.4412 -3.3679
  543MOL0     H73301   0.459   6.415   6.377  0.7574  0.3444 -0.5689
  543MOL0     H73302   1.034   6.748   6.378 -0.6573 -1.3919  1.8697
  543MOL0     H73303   1.120   6.842   6.198  1.1401 -2.8356  0.6203
  543MOL0     H73304   1.155   7.017   6.201 -0.0634 -1.9123 -2.0456
  543MOL0     H73305   1.282   6.900   6.234  1.2681  5.4504 -1.0635
  544MOL0     O73306  10.028   3.348   2.226  0.1306  0.4071  0.3997
  544MOL0     C73307  10.122   3.367   2.148  0.2614 -0.9286 -1.0508
  544MOL0     O73308  10.172   3.495   2.119  0.4965  0.4912 -0.4882
  544MOL0     C73309  10.169   3.589   2.225  0.9080  0.4247  0.5141
  544MOL0     C73310  10.192   3.542   2.353 -0.9044  0.0673 -0.2365
  544MOL0     C73311  10.213   3.637   2.454  0.3183  0.4642 -0.3975
  544MOL0     C73312  10.187   3.772   2.430  0.1103  0.3446  1.1689
  544MOL0     O73313  10.207   3.880   2.512 -0.9261  0.3268  0.2046
  544MOL0     C73314  10.268   3.840   2.639 -0.4122 -0.4739  0.2608
  544MOL0     C73315  10.280   3.965   2.740  0.1379  0.3785  0.7708
  544MOL0     C73316  10.366   4.085   2.684 -0.3451 -1.4420  0.5626
  544MOL0     C73317  10.313   4.229   2.721 -0.7792  0.3441 -0.6003
  544MOL0     C73318  10.430   4.291   2.801 -0.3893  0.1382  0.1971
  544MOL0     C73319  10.402   4.438   2.834 -0.7161 -0.5589 -0.6791
  544MOL0     C73320  10.424   4.524   2.714 -0.2232 -0.0667 -0.2083
  544MOL0     C73321  10.580   4.548   2.682  1.0367  0.0702  0.5153
  544MOL0     N73322  10.621   4.668   2.745  0.5794 -0.5737 -0.3063
  544MOL0     C73323  10.729   4.737   2.697  0.3324  0.6098  0.2909
  544MOL0     C73324  10.747   4.840   2.782  0.6422  0.2572  0.9008
  544MOL0     C73325  10.833   4.959   2.762 -0.3795  0.1922 -0.2017
  544MOL0     C73326  10.983   4.927   2.779  0.9596 -0.4605  0.6432
  544MOL0     C73327  11.011   4.847   2.915  0.0132  0.2600  0.5990
  544MOL0     C73328  11.157   4.868   2.942 -0.6854 -0.4334 -0.5578
  544MOL0     O73329  11.191   4.764   3.038  0.0358 -0.7080  0.1233
  544MOL0     C73330  11.226   4.636   3.006  0.1494 -0.3838  0.4541
  544MOL0     C73331  11.205   4.547   3.107 -0.3583  0.0855 -0.5268
  544MOL0     C73332  11.225   4.415   3.080 -0.4821  0.1141  0.4029
  544MOL0     C73333  11.284   4.370   2.957  0.1482  0.3638  0.3724
  544MOL0     C73334  11.306   4.216   2.949  0.3504 -0.2124 -0.9525
  544MOL0     O73335  11.355   4.168   3.057  0.0123  0.0984  0.4590
  544MOL0     C73336  11.358   4.030   3.083  0.4225  0.7091 -0.9904
  544MOL0     C73337  11.286   3.934   3.004  0.3976  1.1094  0.2950
  544MOL0     C73338  11.297   3.797   3.028 -0.2156 -0.3880 -0.3785
  544MOL0     C73339  11.387   3.762   3.128 -1.0197 -0.5418 -0.8140
  544MOL0     O73340  11.409   3.630   3.174  0.2637  0.1510  0.0788
  544MOL0     C73341  11.317   3.534   3.120 -0.4538  0.2489 -0.5687
  544MOL0     C73342  11.350   3.401   3.177  0.1496  1.3399  0.2585
  544MOL0     C73343  11.495   3.352   3.148  1.1471 -0.8494  0.4167
  544MOL0     C73344  11.495   3.299   3.006  0.0638 -0.8362 -0.8675
  544MOL0     C73345  11.638   3.253   2.965  0.0047 -0.2216  0.8665
  544MOL0     C73346  11.700   3.141   3.047  0.4960 -0.2767  0.5099
  544MOL0     C73347  11.834   3.113   3.032 -0.9030  0.0689 -0.5667
  544MOL0     C73348  11.888   3.001   3.121  0.2831  0.8380  0.4071
  544MOL0    Cl73349  11.779   2.855   3.115  0.0449 -0.0691  0.3185
  544MOL0     C73350  11.458   3.856   3.208 -0.0992  0.2184  0.6478
  544MOL0     C73351  11.445   3.991   3.181 -0.4792  0.0130 -0.4369
  544MOL0     O73352  11.298   4.161   2.847 -0.3358  0.7090 -0.3267
  544MOL0     C73353  11.318   4.461   2.863  0.1337 -1.1554 -0.4199
  544MOL0     C73354  11.282   4.602   2.881  0.0080 -1.3471  0.0161
  544MOL0     N73355  10.631   4.856   2.862 -0.0100  0.7791  0.2318
  544MOL0     N73356  10.558   4.741   2.846  0.2655 -0.0918 -0.0515
  544MOL0     C73357  10.149   3.813   2.309 -0.7528  0.0357 -0.2758
  544MOL0     C73358  10.145   3.724   2.204  0.2303 -0.1592 -0.5285
  544MOL0     C73359  10.167   3.245   2.082 -0.6114  0.3446 -0.3746
  544MOL0     C73360  10.093   3.126   2.103 -0.9488  0.2335 -0.3137
  544MOL0     C73361  10.116   3.010   2.034  0.2990  0.0692  0.3395
  544MOL0     C73362  10.242   3.011   1.957  0.4147 -0.1205  0.6720
  544MOL0     O73363  10.269   2.893   1.895  0.8831 -0.3341  0.0580
  544MOL0     C73364  10.404   2.857   1.896  0.6288  0.0665 -0.5279
  544MOL0     C73365  10.429   2.819   2.043  0.0071  0.0167 -1.1517
  544MOL0     C73366  10.554   2.740   2.061 -0.2979 -0.0482  0.1273
  544MOL0     C73367  10.592   2.686   2.213  0.4765  0.4664 -0.1465
  544MOL0     C73368  10.559   2.799   2.300 -1.2041  0.6644  0.3530
  544MOL0     C73369  10.538   2.897   2.370  1.1985  0.3526  0.1776
  544MOL0     C73370  10.323   3.126   1.941 -0.6869  0.0245  0.1514
  544MOL0     C73371  10.285   3.243   2.005  0.8456 -0.2305 -0.8187
  544MOL0     C73372  10.395   3.355   2.004 -0.4099  0.0577 -0.1904
  544MOL0     H73373  10.213   3.441   2.385  0.1033 -0.4475 -2.3553
  544MOL0     H73374  10.247   3.610   2.554  1.1485  3.3834  0.2218
  544MOL0     H73375  10.217   3.764   2.698  1.4086 -2.6826 -0.8417
  544MOL0     H73376  10.371   3.803   2.628  0.6587  1.7817  1.8537
  544MOL0     H73377  10.330   3.923   2.828 -0.7324 -0.5092  0.8574
  544MOL0     H73378  10.182   4.008   2.765 -0.7844 -0.7255 -0.7572
  544MOL0     H73379  10.380   4.076   2.576 -2.2665  0.6544  0.0527
  544MOL0     H73380  10.471   4.081   2.715 -0.3800 -1.4034  0.6855
  544MOL0     H73381  10.302   4.287   2.628  0.5438 -1.9607 -2.3015
  544MOL0     H73382  10.212   4.233   2.762 -1.4139  1.7093 -2.1573
  544MOL0     H73383  10.453   4.240   2.895  2.3685  1.9526  0.6229
  544MOL0     H73384  10.520   4.285   2.740  0.4657 -1.7568  1.5679
  544MOL0     H73385  10.303   4.459   2.874  0.9980  0.7058  3.4678
  544MOL0     H73386  10.470   4.475   2.912 -0.3792  1.3084 -1.7830
  544MOL0     H73387  10.368   4.618   2.726  0.2883  0.3620 -1.0978
  544MOL0     H73388  10.381   4.485   2.621 -0.2789 -1.7532  0.4910
  544MOL0     H73389  10.664   4.481   2.705  2.9421  2.6918  1.8485
  544MOL0     H73390  10.585   4.562   2.574 -1.7955 -1.5114  0.0793
  544MOL0     H73391  10.800   4.707   2.620  0.7946  3.2329 -0.4241
  544MOL0     H73392  10.821   4.995   2.659  1.0312 -0.0430 -0.4694
  544MOL0     H73393  10.804   5.037   2.833  4.0108  0.9649  1.0763
  544MOL0     H73394  11.007   4.863   2.694 -0.4056 -1.3656  0.8905
  544MOL0     H73395  11.025   5.027   2.770  0.0499 -0.2695 -3.0460
  544MOL0     H73396  10.999   4.739   2.904  3.9521 -0.3201  0.6466
  544MOL0     H73397  10.951   4.884   2.999 -0.5498 -0.0826  0.3601
  544MOL0     H73398  11.183   4.965   2.984  3.7516 -1.3331 -0.7611
  544MOL0     H73399  11.218   4.847   2.853 -0.0958 -2.7017  0.3137
  544MOL0     H73400  11.169   4.581   3.203  1.4021 -0.7665  0.4667
  544MOL0     H73401  11.186   4.353   3.161 -1.9591  1.3717  0.7003
  544MOL0     H73402  11.207   3.955   2.933  1.0129  0.6716 -0.5418
  544MOL0     H73403  11.260   3.716   2.965  0.7735 -0.2980 -1.1019
  544MOL0     H73404  11.213   3.561   3.140 -0.5256 -0.5047  0.1257
  544MOL0     H73405  11.324   3.522   3.012  1.3241 -1.2368 -0.3267
  544MOL0     H73406  11.324   3.408   3.283 -1.9905  1.4611 -0.2293
  544MOL0     H73407  11.277   3.331   3.136  1.4625 -0.3294  0.6650
  544MOL0     H73408  11.561   3.439   3.143 -2.4329  2.0683 -0.5302
  544MOL0     H73409  11.519   3.274   3.221  0.7360  0.7610  2.3774
  544MOL0     H73410  11.465   3.379   2.937  0.7610  0.7480  0.5689
  544MOL0     H73411  11.431   3.212   2.991 -0.1240 -0.7393 -0.6316
  544MOL0     H73412  11.696   3.345   2.955 -2.0626  0.9868 -1.1336
  544MOL0     H73413  11.635   3.202   2.868  1.4192 -0.9686  1.1978
  544MOL0     H73414  11.700   3.191   3.144  5.0279 -0.3651  0.7500
  544MOL0     H73415  11.638   3.051   3.051 -1.0930  0.7928  4.0570
  544MOL0     H73416  11.900   3.200   3.045 -2.2299  1.2812 -1.6288
  544MOL0     H73417  11.854   3.069   2.934  1.7283 -2.0763  0.7994
  544MOL0     H73418  11.985   2.973   3.080  3.0347  0.2793  6.2485
  544MOL0     H73419  11.907   3.029   3.225  1.7199  0.4833  0.2598
  544MOL0     H73420  11.520   3.824   3.291 -2.6849  2.1149  3.5447
  544MOL0     H73421  11.496   4.077   3.222  1.2169  1.8021 -5.4895
  544MOL0     H73422  11.363   4.421   2.772 -0.0926  0.1207 -1.1186
  544MOL0     H73423  11.322   4.666   2.804  0.3545 -0.2959  1.0341
  544MOL0     H73424  10.120   3.916   2.289 -0.5216  0.5968  2.0651
  544MOL0     H73425  10.097   3.759   2.113 -3.9573 -1.2352  1.0281
  544MOL0     H73426  10.006   3.119   2.168  0.9303 -0.8715  2.2840
  544MOL0     H73427  10.054   2.922   2.044  1.9647 -1.3468 -1.1581
  544MOL0     H73428  10.473   2.933   1.859 -0.5737  1.3770 -0.1719
  544MOL0     H73429  10.409   2.769   1.830  1.4051 -0.2585 -0.0449
  544MOL0     H73430  10.351   2.745   2.060  0.1809 -0.4032 -2.1020
  544MOL0     H73431  10.433   2.913   2.099  1.4834 -0.3487 -0.5880
  544MOL0     H73432  10.638   2.803   2.032 -2.6970  2.9655 -0.7264
  544MOL0     H73433  10.541   2.659   1.989 -0.4695 -2.0321  2.2481
  544MOL0     H73434  10.536   2.592   2.214  1.0175  0.0177 -3.0909
  544MOL0     H73435  10.695   2.663   2.241  0.3143  1.3512  1.2999
  544MOL0     H73436  10.514   2.980   2.433 -1.1529 -0.7587  0.8776
  544MOL0     H73437  10.425   3.125   1.904  0.6283  0.3505  3.4192
  544MOL0     H73438  10.487   3.313   1.962 -1.5562  1.5099 -4.6481
  544MOL0     H73439  10.372   3.439   1.938 -2.6324  1.3072  1.9984
  544MOL0     H73440  10.405   3.395   2.106  1.1876 -0.0467 -0.2753
  545MOL0     O73441   1.942  11.417   3.400  0.6624  0.2317 -0.2595
  545MOL0     C73442   1.912  11.307   3.357 -1.1274  0.2590  0.0672
  545MOL0     O73443   1.875  11.198   3.428 -0.1939  0.1186  0.1117
  545MOL0     C73444   1.827  11.201   3.554  0.4986  0.0311  0.5947
  545MOL0     C73445   1.811  11.315   3.641 -0.6615 -0.1886 -0.2085
  545MOL0     C73446   1.750  11.308   3.765 -0.2562 -0.9646  1.0759
  545MOL0     C73447   1.708  11.192   3.818  0.1058  0.4762  0.4204
  545MOL0     O73448   1.649  11.213   3.941 -0.5423  0.9429 -0.7886
  545MOL0     C73449   1.572  11.110   3.998  0.3768  0.4702  0.8195
  545MOL0     C73450   1.646  11.045   4.105 -0.8801  1.1518 -0.1098
  545MOL0     C73451   1.563  10.927   4.170  0.2181 -0.2074 -0.8949
  545MOL0     C73452   1.626  10.883   4.302  0.3450 -0.3471  0.3979
  545MOL0     C73453   1.563  10.765   4.373 -0.4238 -0.1380 -0.4939
  545MOL0     C73454   1.623  10.735   4.508 -1.5715 -1.4825  0.1573
  545MOL0     C73455   1.773  10.718   4.501 -0.6387  0.2234 -0.4554
  545MOL0     C73456   1.845  10.678   4.630  0.7891 -0.8941  0.1914
  545MOL0     N73457   1.827  10.540   4.675 -0.0410 -0.0038  0.0345
  545MOL0     C73458   1.710  10.494   4.728  0.9061  0.9591  0.1434
  545MOL0     C73459   1.742  10.362   4.761 -0.0430 -0.3224 -0.2878
  545MOL0     C73460   1.660  10.272   4.847 -0.4970 -0.8046  0.0930
  545MOL0     C73461   1.665  10.126   4.811 -0.2424  0.5626 -0.4566
  545MOL0     C73462   1.557  10.037   4.876 -0.5810  0.1843  0.5344
  545MOL0     C73463   1.595   9.882   4.893  0.6400  0.1766  0.2668
  545MOL0     O73464   1.518   9.817   4.992  0.4695  0.1694  0.3885
  545MOL0     C73465   1.553   9.690   5.023  0.3375 -0.1077  0.9166
  545MOL0     C73466   1.446   9.600   5.024 -0.2488  0.1805  0.2819
  545MOL0     C73467   1.470   9.458   5.040 -0.3337 -0.4127  0.1209
  545MOL0     C73468   1.603   9.413   5.057  0.6252  0.5688 -0.3943
  545MOL0     C73469   1.637   9.268   5.064 -0.0710  0.2519 -0.9465
  545MOL0     O73470   1.771   9.247   5.053 -0.5311  0.4358  0.2951
  545MOL0     C73471   1.840   9.129   5.076  0.2409 -0.1715  0.0300
  545MOL0     C73472   1.783   9.022   5.145  0.6168  0.0275  0.3327
  545MOL0     C73473   1.850   8.908   5.165 -0.3401  0.6494 -1.0755
  545MOL0     C73474   1.982   8.888   5.137 -1.1035 -0.3313 -0.1900
  545MOL0     O73475   2.051   8.776   5.167  0.3016  0.4401  0.6060
  545MOL0     C73476   1.978   8.662   5.222 -0.0840  0.4485 -0.1487
  545MOL0     C73477   2.078   8.546   5.240  0.3531 -0.4410  0.6130
  545MOL0     C73478   2.125   8.472   5.116 -0.8450  0.0225 -1.3313
  545MOL0     C73479   2.206   8.362   5.154  0.2882  0.2167  0.1061
  545MOL0     C73480   2.246   8.281   5.036  0.2518 -0.5862 -0.0349
  545MOL0     C73481   2.143   8.191   4.986 -0.4076 -0.2288 -0.5460
  545MOL0     C73482   2.200   8.110   4.871  0.6883 -0.2676 -0.1278
  545MOL0     C73483   2.083   8.035   4.807 -0.4782  0.2635 -0.9640
  545MOL0    Cl73484   1.979   8.146   4.699  0.0178 -0.0198 -0.0472
  545MOL0     C73485   2.045   8.999   5.072 -0.5841 -1.0050  0.3204
  545MOL0     C73486   1.973   9.111   5.037  1.1189  0.0703 -0.1807
  545MOL0     O73487   1.552   9.182   5.066  0.2793  0.2389 -0.8055
  545MOL0     C73488   1.702   9.508   5.079 -0.8218 -0.5209  0.9371
  545MOL0     C73489   1.690   9.649   5.058 -0.0553  0.5848 -0.3982
  545MOL0     N73490   1.865  10.334   4.721 -0.0763 -0.6872 -0.7605
  545MOL0     N73491   1.916  10.438   4.657  0.8981 -0.1567 -0.2611
  545MOL0     C73492   1.728  11.073   3.750  1.1266  0.6952 -0.1415
  545MOL0     C73493   1.773  11.080   3.615  0.1375  0.3138  1.1624
  545MOL0     C73494   1.903  11.298   3.212  1.2027  0.1267 -0.6759
  545MOL0     C73495   2.027  11.263   3.142  1.0754 -0.6779 -0.3579
  545MOL0     C73496   2.028  11.252   3.005  0.0633  0.0265  0.0122
  545MOL0     C73497   1.902  11.251   2.930 -0.8727  1.3860  0.6405
  545MOL0     O73498   1.904  11.227   2.797 -0.0846 -0.9577  0.2210
  545MOL0     C73499   1.798  11.168   2.732 -0.4989  0.3813  0.0057
  545MOL0     C73500   1.839  11.160   2.585 -0.8151 -0.0908 -0.4986
  545MOL0     C73501   1.722  11.105   2.503 -0.2510  0.2468  0.6030
  545MOL0     C73502   1.759  11.079   2.360  0.4807  0.6729  0.1383
  545MOL0     C73503   1.635  11.061   2.286 -0.1686  0.6246  0.2318
  545MOL0     C73504   1.529  11.052   2.217 -0.3385 -0.8588 -0.9414
  545MOL0     C73505   1.786  11.277   3.002  0.0620  0.9828 -0.1190
  545MOL0     C73506   1.779  11.304   3.136 -0.6322 -0.5026 -0.7210
  545MOL0     C73507   1.654  11.349   3.210 -0.6249  0.4668  0.2510
  545MOL0     H73508   1.843  11.413   3.607  1.2200 -0.5119  0.5422
  545MOL0     H73509   1.724  11.397   3.822 -2.9212 -1.4909  0.8326
  545MOL0     H73510   1.488  11.164   4.042 -0.8044  0.5762 -1.4444
  545MOL0     H73511   1.533  11.048   3.917 -1.8590  1.0922  1.3608
  545MOL0     H73512   1.687  11.112   4.181  1.1074 -0.1323  0.0298
  545MOL0     H73513   1.733  11.000   4.057 -1.7771  1.1351 -1.8144
  545MOL0     H73514   1.550  10.844   4.100 -1.7860  0.7633 -1.7616
  545MOL0     H73515   1.465  10.971   4.194  2.5383  4.4746  1.3998
  545MOL0     H73516   1.733  10.876   4.285  0.1527 -1.9759 -0.3105
  545MOL0     H73517   1.615  10.963   4.376 -1.1552  0.8446 -1.0295
  545MOL0     H73518   1.454  10.764   4.368 -0.4431  1.4834 -0.7665
  545MOL0     H73519   1.589  10.672   4.321 -1.4610 -0.1475 -1.0212
  545MOL0     H73520   1.601  10.819   4.574 -2.6264 -1.2437 -0.4868
  545MOL0     H73521   1.575  10.645   4.546  2.1313 -3.8594 -0.2212
  545MOL0     H73522   1.804  10.819   4.470 -1.0332  0.1507 -1.1017
  545MOL0     H73523   1.810  10.646   4.428  1.8244  1.4282 -0.5244
  545MOL0     H73524   1.950  10.702   4.611  0.7398 -1.0409 -0.2737
  545MOL0     H73525   1.813  10.745   4.710  0.7131  1.6720 -1.8773
  545MOL0     H73526   1.615  10.542   4.750 -0.0344 -0.8539  0.2645
  545MOL0     H73527   1.669  10.293   4.954 -1.9085  3.4747 -0.4317
  545MOL0     H73528   1.557  10.306   4.827 -0.1049 -0.9362 -2.5827
  545MOL0     H73529   1.652  10.101   4.705 -4.6732  0.7631 -0.1459
  545MOL0     H73530   1.765  10.091   4.837 -0.3752  0.4177 -0.1384
  545MOL0     H73531   1.462  10.048   4.823 -1.3334 -2.9138  1.0885
  545MOL0     H73532   1.531  10.071   4.977  2.8083  1.7613  0.9985
  545MOL0     H73533   1.703   9.881   4.912  1.1618 -0.9664 -2.2831
  545MOL0     H73534   1.586   9.838   4.793 -0.1396 -2.8334  1.5804
  545MOL0     H73535   1.348   9.647   5.022  0.6241  2.3751  2.9613
  545MOL0     H73536   1.385   9.391   5.044 -3.0584  2.8474  1.1530
  545MOL0     H73537   1.684   9.021   5.190  0.6189 -0.4662  0.3330
  545MOL0     H73538   1.800   8.824   5.212  0.4667  1.3878  1.2427
  545MOL0     H73539   1.935   8.693   5.317 -3.0126 -1.9294 -0.5376
  545MOL0     H73540   1.902   8.625   5.153 -1.0411 -1.5848  1.8672
  545MOL0     H73541   2.171   8.568   5.294  0.7152 -1.3113  0.3651
  545MOL0     H73542   2.027   8.481   5.311  0.5601 -0.3519  0.8466
  545MOL0     H73543   2.040   8.434   5.057 -0.0782  0.2673 -2.6472
  545MOL0     H73544   2.183   8.544   5.058 -0.0745  0.9769  0.5464
  545MOL0     H73545   2.157   8.304   5.232  0.3512  0.1865  0.1236
  545MOL0     H73546   2.298   8.384   5.210 -0.6070 -0.8164  2.0906
  545MOL0     H73547   2.320   8.214   5.082  1.1052  1.0596  1.0697
  545MOL0     H73548   2.291   8.346   4.961 -0.0886 -1.0206 -0.6223
  545MOL0     H73549   2.115   8.123   5.067  1.7195 -0.5025  0.0223
  545MOL0     H73550   2.057   8.255   4.965 -0.3670 -0.5879 -1.9086
  545MOL0     H73551   2.275   8.033   4.891  4.2647  2.8613 -0.3384
  545MOL0     H73552   2.251   8.173   4.797  0.3756 -2.0272 -1.9177
  545MOL0     H73553   2.136   7.953   4.759 -0.0033  0.4952 -0.8432
  545MOL0     H73554   2.018   8.003   4.889 -2.7087 -0.2817 -2.8332
  545MOL0     H73555   2.143   8.979   5.030 -0.5818 -2.4966  0.9810
  545MOL0     H73556   2.026   9.188   4.982 -0.0228  2.5962  2.0579
  545MOL0     H73557   1.806   9.482   5.098 -0.0210  2.2693  0.7675
  545MOL0     H73558   1.768   9.724   5.066  0.7779  0.0066 -2.4294
  545MOL0     H73559   1.686  10.983   3.795  0.3199  0.4153 -1.4091
  545MOL0     H73560   1.783  10.990   3.555 -0.8688  0.4297  0.8167
  545MOL0     H73561   2.122  11.262   3.195  1.3652 -0.5627 -0.8666
  545MOL0     H73562   2.124  11.232   2.958  0.3566 -0.9128  0.9678
  545MOL0     H73563   1.703  11.219   2.753  0.2067  1.7763 -0.0368
  545MOL0     H73564   1.797  11.065   2.768 -1.4490  0.2665 -0.3248
  545MOL0     H73565   1.920  11.086   2.583 -2.7357 -2.4873  2.4182
  545MOL0     H73566   1.869  11.253   2.535  0.4259 -0.6072 -0.7730
  545MOL0     H73567   1.638  11.176   2.509 -1.3344 -0.7478 -1.6561
  545MOL0     H73568   1.685  11.015   2.552  2.4250 -0.8224  0.7892
  545MOL0     H73569   1.812  11.169   2.325 -0.7093  2.0040  1.6475
  545MOL0     H73570   1.796  10.976   2.360 -2.0965 -0.3088  0.5237
  545MOL0     H73571   1.432  11.054   2.172 -2.0134  0.6414  2.3307
  545MOL0     H73572   1.689  11.271   2.954  1.2472 -0.2018 -2.5382
  545MOL0     H73573   1.676  11.431   3.279  0.9520  2.6923 -2.6604
  545MOL0     H73574   1.579  11.383   3.138 -2.8129  0.3149  2.3709
  545MOL0     H73575   1.613  11.255   3.247 -0.3166 -0.3255 -1.3300
  546MOL0     O73576   3.171  11.438   0.968 -0.5178  0.3270  0.4377
  546MOL0     C73577   3.181  11.425   0.843 -0.1769 -0.5355 -0.7137
  546MOL0     O73578   3.290  11.460   0.763  0.2786 -0.2958  0.2984
  546MOL0     C73579   3.396  11.525   0.826 -0.2554  0.0817  0.0209
  546MOL0     C73580   3.462  11.615   0.746  0.3759  0.1892  0.2120
  546MOL0     C73581   3.572  11.689   0.778  0.4343  0.1377  0.2821
  546MOL0     C73582   3.626  11.685   0.904  1.2719  0.7537 -0.6144
  546MOL0     O73583   3.722  11.765   0.964  0.1673 -0.7591 -0.4180
  546MOL0     C73584   3.827  11.834   0.884 -0.4742 -0.4080 -0.5732
  546MOL0     C73585   3.954  11.851   0.971  0.9689 -0.4023 -0.4856
  546MOL0     C73586   3.921  11.921   1.105 -1.0379  0.0660  1.0712
  546MOL0     C73587   4.048  11.904   1.192  0.0657 -0.3341 -0.9137
  546MOL0     C73588   4.022  11.996   1.311  0.0071  0.8604 -1.0046
  546MOL0     C73589   4.138  11.985   1.404  0.1068  0.8760  0.3848
  546MOL0     C73590   4.132  12.070   1.526 -0.7477  0.2355  0.2531
  546MOL0     C73591   4.268  12.078   1.613  0.3980  0.5236  1.1624
  546MOL0     N73592   4.234  12.109   1.752  0.9520 -1.0170  0.3596
  546MOL0     C73593   4.212  12.239   1.808  0.1827  0.0944 -0.7760
  546MOL0     C73594   4.208  12.232   1.940 -0.6030 -0.3906 -0.1150
  546MOL0     C73595   4.211  12.345   2.047 -0.6097  0.8131 -0.2476
  546MOL0     C73596   4.102  12.438   2.009  0.4837  0.2212 -0.0108
  546MOL0     C73597   4.047  12.521   2.127  0.0757  0.0876 -0.0229
  546MOL0     C73598   3.967  12.656   2.114  0.7918 -0.5611  0.3545
  546MOL0     O73599   3.865  12.662   2.013  0.0006  0.2005 -0.4321
  546MOL0     C73600   3.745  12.601   2.044  0.0002 -0.5575  0.4392
  546MOL0     C73601   3.646  12.623   1.953 -0.8227 -0.4772 -0.8610
  546MOL0     C73602   3.521  12.571   1.980  0.0463 -0.5108  0.8986
  546MOL0     C73603   3.483  12.500   2.093 -0.0628  0.1480 -0.4003
  546MOL0     C73604   3.347  12.465   2.131 -0.8226 -0.0815 -1.1912
  546MOL0     O73605   3.276  12.390   2.032 -1.1651  0.1487 -0.1546
  546MOL0     C73606   3.166  12.326   2.063  0.1876 -0.2258 -0.0265
  546MOL0     C73607   3.060  12.344   1.976  0.2330 -0.1589  0.2624
  546MOL0     C73608   2.942  12.281   2.008 -0.0989  0.2935 -0.8214
  546MOL0     C73609   2.931  12.187   2.116  1.1197 -0.3501  0.1616
  546MOL0     O73610   2.809  12.116   2.140 -0.1849  0.2728 -0.7314
  546MOL0     C73611   2.707  12.104   2.041  0.3338 -0.6089  0.8542
  546MOL0     C73612   2.588  11.998   2.077 -0.3701 -0.5037 -0.7020
  546MOL0     C73613   2.453  12.074   2.105 -0.2866  0.2260  0.1863
  546MOL0     C73614   2.342  11.988   2.155 -0.9338  0.6846 -0.1988
  546MOL0     C73615   2.199  12.047   2.152  0.3073  0.4939  0.3150
  546MOL0     C73616   2.180  12.190   2.211  0.9399  0.2859  0.4171
  546MOL0     C73617   2.221  12.225   2.357 -0.4064  0.7465  1.4721
  546MOL0     C73618   2.173  12.130   2.462 -0.1243 -0.3704 -0.2349
  546MOL0    Cl73619   1.986  12.118   2.435 -0.2119 -0.2345  0.3804
  546MOL0     C73620   3.041  12.162   2.199 -0.0092 -0.0257 -0.4483
  546MOL0     C73621   3.155  12.235   2.173 -0.5159 -1.0662  0.5369
  546MOL0     O73622   3.301  12.495   2.250 -0.0448  0.7995  1.0350
  546MOL0     C73623   3.588  12.478   2.187  0.1999  0.0615 -0.4328
  546MOL0     C73624   3.715  12.533   2.165  0.4501  0.0169 -0.3456
  546MOL0     N73625   4.208  12.092   1.964  0.1207 -0.1594  0.1646
  546MOL0     N73626   4.224  12.023   1.858 -0.7701 -0.7250  0.4282
  546MOL0     C73627   3.558  11.594   0.998  0.5648 -1.7415  0.2260
  546MOL0     C73628   3.450  11.507   0.953 -0.7762 -0.5949 -0.6553
  546MOL0     C73629   3.080  11.342   0.773  0.5165 -0.9418 -0.1138
  546MOL0     C73630   3.118  11.283   0.651 -0.6738 -1.5253  0.3940
  546MOL0     C73631   3.033  11.201   0.580 -1.3424  0.0050  0.0523
  546MOL0     C73632   2.900  11.180   0.625 -0.7130  0.7409 -0.9367
  546MOL0     O73633   2.812  11.098   0.576  0.1040  0.9897  0.3688
  546MOL0     C73634   2.824  11.058   0.441 -0.5692  0.7929  0.5361
  546MOL0     C73635   2.930  10.947   0.407 -0.1794  1.4528  0.1972
  546MOL0     C73636   2.889  10.856   0.289 -1.0745 -0.5386 -0.4306
  546MOL0     C73637   3.018  10.799   0.217  0.0618 -0.8045 -0.2531
  546MOL0     C73638   2.987  10.723   0.099  0.8863 -0.8400 -0.7633
  546MOL0     C73639   2.976  10.661  -0.001 -0.1845  0.0116 -0.2110
  546MOL0     C73640   2.865  11.245   0.746 -0.4201  0.4855  0.6063
  546MOL0     C73641   2.956  11.335   0.811  0.6217 -0.1799 -0.0865
  546MOL0     C73642   2.904  11.404   0.926 -0.5375 -0.3993 -0.5385
  546MOL0     H73643   3.414  11.635   0.651 -1.8045  2.4769  1.6701
  546MOL0     H73644   3.609  11.761   0.706  1.0624  0.3889  0.8357
  546MOL0     H73645   3.861  11.775   0.798  1.6120 -2.2698  1.3902
  546MOL0     H73646   3.796  11.937   0.864  0.9466  0.3742  0.9862
  546MOL0     H73647   4.038  11.893   0.915  1.8577 -0.3704  0.8329
  546MOL0     H73648   3.981  11.749   1.000  1.2118  0.1287  1.2431
  546MOL0     H73649   3.841  11.872   1.162 -1.8877  0.9406  0.6591
  546MOL0     H73650   3.894  12.026   1.086  0.0402  0.4600  1.6756
  546MOL0     H73651   4.078  11.802   1.216  2.2730  0.5718  0.4560
  546MOL0     H73652   4.130  11.952   1.138  0.1687  0.8710  0.2545
  546MOL0     H73653   4.020  12.100   1.276  0.0248  0.2987 -2.7512
  546MOL0     H73654   3.926  11.964   1.353  1.6478 -2.4352  0.5918
  546MOL0     H73655   4.151  11.879   1.428 -2.2903  0.5052  0.2816
  546MOL0     H73656   4.234  12.009   1.356 -0.5836  0.0978 -1.4957
  546MOL0     H73657   4.058  12.020   1.590 -0.6333  3.3457  3.0839
  546MOL0     H73658   4.098  12.174   1.527 -0.4325  0.4967 -3.6081
  546MOL0     H73659   4.315  11.979   1.608  3.0628  1.7245 -3.0326
  546MOL0     H73660   4.344  12.146   1.574  0.7438 -1.2370 -1.5044
  546MOL0     H73661   4.216  12.339   1.765  1.2325  0.6207  0.4666
  546MOL0     H73662   4.187  12.289   2.137  0.5814  1.0772  0.2556
  546MOL0     H73663   4.308  12.396   2.048  0.7208 -1.5790 -0.1893
  546MOL0     H73664   4.142  12.512   1.939  1.3799  0.0503  0.3061
  546MOL0     H73665   4.022  12.384   1.957  2.8512 -0.3845 -3.3032
  546MOL0     H73666   4.117  12.539   2.209 -2.1296  1.5072  1.6856
  546MOL0     H73667   3.980  12.450   2.177 -3.1398  2.8286 -0.0302
  546MOL0     H73668   4.045  12.720   2.071  2.3710 -3.8172 -2.0655
  546MOL0     H73669   3.932  12.702   2.206  0.6882 -1.0357  0.5563
  546MOL0     H73670   3.664  12.671   1.857  2.7504 -2.1723 -1.2081
  546MOL0     H73671   3.447  12.594   1.904  1.6074  1.4192 -0.1502
  546MOL0     H73672   3.067  12.410   1.891  2.9454 -1.0379 -0.2796
  546MOL0     H73673   2.851  12.300   1.952  1.2056  0.5398 -2.9811
  546MOL0     H73674   2.666  12.198   2.002  2.3955 -0.0780 -0.1773
  546MOL0     H73675   2.756  12.056   1.956  0.1568  0.8654 -0.1185
  546MOL0     H73676   2.577  11.917   2.005  1.1853 -0.5749 -0.8975
  546MOL0     H73677   2.619  11.949   2.170  0.7477  0.5215 -0.5152
  546MOL0     H73678   2.472  12.151   2.180  1.7900 -1.8076  1.8877
  546MOL0     H73679   2.423  12.121   2.010 -1.3171 -1.9551 -0.6280
  546MOL0     H73680   2.363  11.972   2.261  1.6178  1.8380 -0.4496
  546MOL0     H73681   2.333  11.899   2.093  1.5855  0.6434 -0.6089
  546MOL0     H73682   2.138  11.974   2.204 -2.2666  1.0072 -1.7866
  546MOL0     H73683   2.163  12.066   2.050 -1.5316  0.8318  1.0086
  546MOL0     H73684   2.250  12.246   2.148 -0.0538 -3.1124 -4.2184
  546MOL0     H73685   2.080  12.226   2.188  0.7019 -0.3129  0.4955
  546MOL0     H73686   2.175  12.319   2.390 -0.5770  0.7636  1.1874
  546MOL0     H73687   2.330  12.242   2.354 -0.3619  0.3988 -0.6913
  546MOL0     H73688   2.223  12.034   2.457  3.3015  1.2651  0.1228
  546MOL0     H73689   2.197  12.154   2.566  3.9354 -2.1021 -0.6085
  546MOL0     H73690   3.026  12.097   2.285 -3.2027 -0.8456 -1.5220
  546MOL0     H73691   3.241  12.207   2.234  1.5341 -0.4997 -1.9508
  546MOL0     H73692   3.562  12.435   2.283  0.3033  1.3465  0.2015
  546MOL0     H73693   3.781  12.515   2.249  4.9259 -1.1558 -3.7193
  546MOL0     H73694   3.588  11.583   1.101 -1.2363  0.0924  1.0178
  546MOL0     H73695   3.399  11.445   1.026 -0.1583 -1.5522 -1.0079
  546MOL0     H73696   3.221  11.292   0.618 -0.9578 -0.7383 -0.3136
  546MOL0     H73697   3.068  11.166   0.484  2.0113  1.1325  0.7120
  546MOL0     H73698   2.825  11.144   0.374  1.0992 -2.4720 -4.2146
  546MOL0     H73699   2.732  11.017   0.399 -0.8874  1.4207  0.6142
  546MOL0     H73700   2.938  10.886   0.497  0.5764 -0.9355 -1.3851
  546MOL0     H73701   3.028  10.990   0.386  1.3076 -1.1464  1.3186
  546MOL0     H73702   2.827  10.913   0.218 -1.3582  0.4971  0.6138
  546MOL0     H73703   2.821  10.779   0.325  1.2352 -3.2970 -1.6084
  546MOL0     H73704   3.088  10.880   0.195  1.1820 -1.5986  0.3307
  546MOL0     H73705   3.061  10.717   0.274  2.0013  0.6342  0.4409
  546MOL0     H73706   2.942  10.599  -0.081 -0.1402  1.8193 -1.7045
  546MOL0     H73707   2.765  11.226   0.782  0.0386 -4.3491 -0.0270
  546MOL0     H73708   2.921  11.351   1.020  0.4301  0.8889  0.0410
  546MOL0     H73709   2.956  11.498   0.947  5.0145 -3.7129  3.0543
  546MOL0     H73710   2.796  11.418   0.916  0.0443  3.8089 -3.1995
  547MOL0     O73711   9.336   6.826   7.653 -0.6125  0.5764  0.4374
  547MOL0     C73712   9.379   6.811   7.770  0.0242  0.8284 -0.4515
  547MOL0     O73713   9.374   6.906   7.870 -0.6614  0.0795 -0.2148
  547MOL0     C73714   9.321   7.027   7.845  0.1186 -0.5560 -0.6491
  547MOL0     C73715   9.370   7.139   7.922  0.3981  1.1553 -0.1300
  547MOL0     C73716   9.325   7.268   7.901  0.2927  0.0056  0.5726
  547MOL0     C73717   9.206   7.293   7.822  0.6135  0.9235  0.5854
  547MOL0     O73718   9.144   7.417   7.799  0.5999 -0.4937  0.0045
  547MOL0     C73719   9.215   7.536   7.842  1.0405  0.1754 -0.2255
  547MOL0     C73720   9.139   7.660   7.793 -0.7312 -0.2859 -0.1322
  547MOL0     C73721   9.153   7.791   7.879  0.0328  0.6567  0.2582
  547MOL0     C73722   9.083   7.896   7.804 -0.6793  0.3059 -0.0812
  547MOL0     C73723   9.025   7.995   7.910 -0.5367 -0.4175 -0.4469
  547MOL0     C73724   9.015   8.130   7.847  0.0562  0.2517  0.3944
  547MOL0     C73725   8.935   8.245   7.924 -0.4643 -0.3706  0.6074
  547MOL0     C73726   9.004   8.282   8.048 -0.1319  0.6918 -0.7051
  547MOL0     N73727   8.956   8.424   8.070  0.0286  0.1965 -0.3559
  547MOL0     C73728   8.834   8.463   8.112  0.0996  0.4979  0.3623
  547MOL0     C73729   8.840   8.592   8.133 -0.9889  0.1645  0.6667
  547MOL0     C73730   8.735   8.673   8.189 -0.2551  0.4942 -1.0077
  547MOL0     C73731   8.786   8.743   8.309  0.7379 -0.0815 -0.4205
  547MOL0     C73732   8.698   8.861   8.375  0.0454  0.1046  0.8247
  547MOL0     C73733   8.720   8.878   8.520  0.1194 -0.2717 -0.3896
  547MOL0     O73734   8.857   8.871   8.558 -0.2499  0.4816 -0.6242
  547MOL0     C73735   8.930   8.981   8.527  0.2435  0.2643 -0.0199
  547MOL0     C73736   8.880   9.111   8.494  0.3736  1.0694  0.8141
  547MOL0     C73737   8.969   9.218   8.460  0.3208  0.0508 -0.3497
  547MOL0     C73738   9.106   9.213   8.472  0.5607  0.0105 -0.2604
  547MOL0     C73739   9.195   9.333   8.460 -0.0398  0.2730  0.6065
  547MOL0     O73740   9.144   9.443   8.403  0.1420 -0.5260  0.6228
  547MOL0     C73741   9.232   9.538   8.353  0.7453  0.1794 -0.1722
  547MOL0     C73742   9.185   9.678   8.361  0.7389  0.1083 -0.9288
  547MOL0     C73743   9.257   9.777   8.310  0.3801  1.2092  0.5334
  547MOL0     C73744   9.381   9.748   8.241  0.2649 -0.9857 -0.5015
  547MOL0     O73745   9.453   9.840   8.166  0.2900 -0.6781  0.7034
  547MOL0     C73746   9.460   9.974   8.222  0.0494  0.7368 -0.0432
  547MOL0     C73747   9.569  10.058   8.150 -0.2831  0.1762  0.2436
  547MOL0     C73748   9.564  10.207   8.181 -0.2292 -0.1720  0.1365
  547MOL0     C73749   9.547  10.249   8.327 -0.3810  0.9801  1.2310
  547MOL0     C73750   9.488  10.391   8.332 -1.4625  0.1144  1.2129
  547MOL0     C73751   9.561  10.493   8.249  0.6096 -0.4425 -0.2816
  547MOL0     C73752   9.512  10.640   8.278 -0.5056  0.3004  0.1769
  547MOL0     C73753   9.535  10.696   8.415  0.7443 -0.2508  0.0068
  547MOL0    Cl73754   9.700  10.723   8.450 -0.4582  0.6180 -0.2724
  547MOL0     C73755   9.420   9.621   8.228 -0.0109 -0.2018 -0.7727
  547MOL0     C73756   9.353   9.513   8.289 -0.2848 -0.3192 -0.2429
  547MOL0     O73757   9.309   9.310   8.491 -0.5022 -0.4617 -0.4210
  547MOL0     C73758   9.158   9.092   8.525  1.0223 -0.4132  0.3956
  547MOL0     C73759   9.075   8.980   8.546 -0.1682  0.8576 -0.4361
  547MOL0     N73760   8.960   8.637   8.082 -1.0898  0.1619  0.1941
  547MOL0     N73761   9.041   8.534   8.053  0.0212  0.0137 -0.1357
  547MOL0     C73762   9.147   7.187   7.769  0.6463  1.0430  0.5381
  547MOL0     C73763   9.201   7.059   7.772 -0.3500  0.5981  1.0055
  547MOL0     C73764   9.429   6.686   7.825 -0.7439 -0.1328 -0.2563
  547MOL0     C73765   9.549   6.687   7.892  0.1996  0.0038 -0.1963
  547MOL0     C73766   9.596   6.563   7.952  0.6153  0.3718  0.0276
  547MOL0     C73767   9.530   6.446   7.931 -0.9319  1.0600  0.5064
  547MOL0     O73768   9.580   6.322   7.972  0.3347 -0.4027 -0.8125
  547MOL0     C73769   9.584   6.314   8.118 -0.2987  0.6962  1.0989
  547MOL0     C73770   9.699   6.225   8.166 -0.2084 -0.6924 -0.1747
  547MOL0     C73771   9.652   6.084   8.133  0.0787  0.0244 -0.7484
  547MOL0     C73772   9.546   6.024   8.236  0.4856  0.9960 -0.1178
  547MOL0     C73773   9.506   5.879   8.196  0.4073 -0.7014  0.3482
  547MOL0     C73774   9.455   5.770   8.184 -0.2988 -1.6726 -0.4888
  547MOL0     C73775   9.410   6.444   7.864  0.5981 -0.2056 -0.7434
  547MOL0     C73776   9.356   6.562   7.820 -0.1248 -0.7086  0.3694
  547MOL0     C73777   9.232   6.550   7.748 -1.0455  0.3279  1.0477
  547MOL0     H73778   9.452   7.112   7.988 -0.7632  0.0016  0.8941
  547MOL0     H73779   9.396   7.346   7.929 -0.4768  0.7125  0.5928
  547MOL0     H73780   9.225   7.523   7.950  2.5475 -0.4681 -0.4189
  547MOL0     H73781   9.316   7.544   7.802  0.7927 -0.7730 -1.0997
  547MOL0     H73782   9.035   7.631   7.779 -0.0570 -2.5576 -0.8963
  547MOL0     H73783   9.183   7.681   7.695 -1.4397 -0.0225 -0.3996
  547MOL0     H73784   9.258   7.821   7.889  0.2494 -0.5724  2.4084
  547MOL0     H73785   9.136   7.777   7.986  2.9247 -5.2190  0.3605
  547MOL0     H73786   9.153   7.951   7.740  2.2429  1.3208  3.5826
  547MOL0     H73787   8.992   7.860   7.756 -0.2474 -0.6213 -0.2381
  547MOL0     H73788   8.922   7.967   7.935 -0.1476 -2.6581 -1.1502
  547MOL0     H73789   9.097   8.004   7.993 -0.1287 -0.6639 -0.7704
  547MOL0     H73790   9.117   8.168   7.839 -0.8173  3.0074  1.1706
  547MOL0     H73791   8.960   8.128   7.753  0.9132 -0.2619 -0.0994
  547MOL0     H73792   8.832   8.217   7.946 -0.0055 -0.9434  2.1131
  547MOL0     H73793   8.922   8.328   7.853 -0.6660 -1.3624 -0.5540
  547MOL0     H73794   8.968   8.219   8.131 -2.2825  1.3102 -1.1329
  547MOL0     H73795   9.114   8.279   8.041  0.0772  1.0851  1.5594
  547MOL0     H73796   8.745   8.404   8.131 -1.8447  3.2293  0.2905
  547MOL0     H73797   8.716   8.752   8.116 -2.1795 -1.1199 -2.3563
  547MOL0     H73798   8.651   8.608   8.216  0.8755 -1.0234 -1.0193
  547MOL0     H73799   8.800   8.669   8.388  1.9689 -0.4766 -0.9833
  547MOL0     H73800   8.890   8.775   8.294  2.1959 -1.6615  4.6258
  547MOL0     H73801   8.593   8.842   8.354 -0.2600  2.0927  0.3102
  547MOL0     H73802   8.730   8.954   8.326 -2.1459 -1.0121 -3.1747
  547MOL0     H73803   8.671   8.801   8.581  2.7955 -0.5048  1.7048
  547MOL0     H73804   8.674   8.970   8.557  0.0325 -0.2187 -0.6308
  547MOL0     H73805   8.773   9.130   8.501  0.6400  2.2953  1.8673
  547MOL0     H73806   8.928   9.310   8.419 -0.1663 -0.2182 -0.4790
  547MOL0     H73807   9.087   9.682   8.408  1.3977 -0.4556  0.5598
  547MOL0     H73808   9.216   9.877   8.310  0.5868  1.3532 -1.6615
  547MOL0     H73809   9.365  10.029   8.221 -0.5183 -0.0399  2.5460
  547MOL0     H73810   9.481   9.961   8.329 -1.0431 -2.3700 -0.0935
  547MOL0     H73811   9.670  10.018   8.166  0.2367  0.6915 -1.5115
  547MOL0     H73812   9.554  10.052   8.042  0.7121  1.3171  0.0271
  547MOL0     H73813   9.660  10.246   8.147  2.0036 -1.4924  4.1916
  547MOL0     H73814   9.502  10.250   8.102  4.0426  3.2108 -1.7723
  547MOL0     H73815   9.647  10.249   8.370 -0.2216  2.1847  0.9009
  547MOL0     H73816   9.475  10.187   8.382 -2.6145  0.6131 -1.8278
  547MOL0     H73817   9.465  10.437   8.429 -2.1388 -0.5477  1.3786
  547MOL0     H73818   9.385  10.386   8.298  0.0161 -0.0104 -4.0268
  547MOL0     H73819   9.670  10.486   8.261  0.8145  2.9898  0.8122
  547MOL0     H73820   9.552  10.477   8.141  0.8619  0.5986 -0.4693
  547MOL0     H73821   9.405  10.638   8.254 -0.7042 -4.1281  0.6276
  547MOL0     H73822   9.569  10.712   8.218  0.9324  0.2491  1.4115
  547MOL0     H73823   9.498  10.799   8.413 -0.7230 -0.7335 -2.0552
  547MOL0     H73824   9.482  10.636   8.490 -2.2215 -0.1339 -1.8171
  547MOL0     H73825   9.508   9.598   8.168  1.6488  1.6567  0.8236
  547MOL0     H73826   9.404   9.418   8.277  1.0556  0.5301 -1.5344
  547MOL0     H73827   9.259   9.085   8.562  1.4482  1.7878 -0.1960
  547MOL0     H73828   9.099   8.882   8.585 -2.4507 -0.5903 -2.3654
  547MOL0     H73829   9.058   7.197   7.708  2.6920  0.3867 -2.8354
  547MOL0     H73830   9.152   6.978   7.718 -0.7131  2.5997 -1.9003
  547MOL0     H73831   9.607   6.777   7.907 -1.6081  1.2091 -0.0932
  547MOL0     H73832   9.698   6.564   7.989  1.4658  0.6043 -2.1780
  547MOL0     H73833   9.489   6.264   8.136  0.2240 -0.8652 -0.1917
  547MOL0     H73834   9.592   6.409   8.172  1.4519  0.1349  1.9177
  547MOL0     H73835   9.695   6.234   8.275 -0.3748 -1.1555 -0.1402
  547MOL0     H73836   9.796   6.265   8.137  0.4712 -0.1903  2.4948
  547MOL0     H73837   9.737   6.015   8.140  0.1014 -0.0016 -1.2224
  547MOL0     H73838   9.623   6.086   8.027 -2.2804 -0.3692 -0.1711
  547MOL0     H73839   9.579   6.026   8.340  4.2094  0.2558 -1.1406
  547MOL0     H73840   9.461   6.094   8.235  1.2779  1.9852 -0.1576
  547MOL0     H73841   9.443   5.668   8.213  0.5325 -1.2343  1.6233
  547MOL0     H73842   9.351   6.353   7.870 -0.1404  0.1087 -2.6177
  547MOL0     H73843   9.185   6.452   7.767  1.3016 -1.6022 -2.1077
  547MOL0     H73844   9.154   6.622   7.774 -1.0643  1.8743 -2.6950
  547MOL0     H73845   9.247   6.570   7.641 -1.1318  0.1954  1.0092
  548MOL0     O73846   2.599   9.091  11.293  0.2284  0.3796  0.1324
  548MOL0     C73847   2.525   9.048  11.380  0.0610  0.9417 -0.9195
  548MOL0     O73848   2.511   8.914  11.415 -0.3313  0.6122 -0.8031
  548MOL0     C73849   2.544   8.812  11.328  0.2304  0.5724 -0.1934
  548MOL0     C73850   2.548   8.682  11.383 -0.3111 -0.4368  0.7209
  548MOL0     C73851   2.574   8.572  11.298 -0.2243 -1.0305  0.3342
  548MOL0     C73852   2.606   8.589  11.165  0.1994  0.2019 -0.1283
  548MOL0     O73853   2.620   8.475  11.094 -1.5033  0.5441  0.3434
  548MOL0     C73854   2.729   8.485  10.993  0.3920 -0.2207  0.1532
  548MOL0     C73855   2.653   8.451  10.857  0.4379 -0.0716  0.2759
  548MOL0     C73856   2.744   8.452  10.736 -0.1784 -0.4633  0.7218
  548MOL0     C73857   2.709   8.362  10.618 -0.5957  0.6975 -0.5493
  548MOL0     C73858   2.831   8.267  10.599 -0.0703 -0.1160  0.5337
  548MOL0     C73859   2.834   8.147  10.702  0.3982 -0.1580 -0.1971
  548MOL0     C73860   2.923   8.034  10.657 -0.2197  0.6036  0.1379
  548MOL0     C73861   3.080   8.058  10.694 -0.4276  0.0892  0.7795
  548MOL0     N73862   3.114   8.069  10.832  0.1677  0.2816  0.3124
  548MOL0     C73863   3.051   7.986  10.927 -0.2072 -0.0246  0.5697
  548MOL0     C73864   3.085   8.040  11.045  0.0742 -0.4779  0.6838
  548MOL0     C73865   3.036   7.990  11.174  0.6753 -0.1035 -0.1416
  548MOL0     C73866   2.897   8.055  11.218  0.0600 -0.5716  1.0826
  548MOL0     C73867   2.914   8.168  11.305 -0.7653 -0.7977 -0.1476
  548MOL0     C73868   2.945   8.128  11.452  0.8142  0.2278  0.8177
  548MOL0     O73869   2.948   8.236  11.541  0.3107  0.1455 -0.3941
  548MOL0     C73870   2.829   8.297  11.573 -0.5126 -0.2372 -0.3440
  548MOL0     C73871   2.839   8.429  11.626 -0.1875  0.4275  0.3289
  548MOL0     C73872   2.736   8.493  11.663  0.5064  0.0693  0.1809
  548MOL0     C73873   2.606   8.431  11.653  0.7321  0.1477  0.1763
  548MOL0     C73874   2.487   8.504  11.693 -0.3494 -0.1084 -0.0240
  548MOL0     O73875   2.510   8.588  11.794  0.2673  0.2313 -0.4954
  548MOL0     C73876   2.421   8.689  11.831 -0.4578  0.6464 -0.4952
  548MOL0     C73877   2.329   8.748  11.746 -0.4090 -0.1585  0.2142
  548MOL0     C73878   2.241   8.830  11.809 -0.2636 -0.2192  0.0208
  548MOL0     C73879   2.256   8.878  11.943  0.0275 -0.8870  0.5412
  548MOL0     O73880   2.188   8.974  12.010 -0.5780 -0.4605  0.7619
  548MOL0     C73881   2.195   9.107  11.960  0.4473  0.1898  0.5554
  548MOL0     C73882   2.064   9.185  11.944 -0.0827  0.8283 -0.1675
  548MOL0     C73883   1.964   9.110  11.841 -1.1604 -0.7333 -0.3395
  548MOL0     C73884   1.844   9.204  11.814 -0.0786  0.2610 -0.7768
  548MOL0     C73885   1.766   9.235  11.935 -0.4119  0.4336 -0.4501
  548MOL0     C73886   1.635   9.312  11.912  0.1058 -0.3208  0.1867
  548MOL0     C73887   1.582   9.383  12.035  0.3136 -0.0203  0.6264
  548MOL0     C73888   1.554   9.291  12.162 -0.5647  0.3527 -0.2318
  548MOL0    Cl73889   1.430   9.173  12.124 -0.7153  0.0760 -0.3234
  548MOL0     C73890   2.357   8.819  12.024  0.8498 -0.8182  0.6395
  548MOL0     C73891   2.431   8.721  11.963  0.5725  0.2252  0.2900
  548MOL0     O73892   2.381   8.475  11.640 -0.5701  0.0671  0.5271
  548MOL0     C73893   2.595   8.295  11.599 -0.3663  0.9128  0.0803
  548MOL0     C73894   2.706   8.229  11.556 -1.3360  0.3603 -0.5522
  548MOL0     N73895   3.161   8.154  11.018 -0.7531 -0.2670  0.0674
  548MOL0     N73896   3.171   8.178  10.887 -1.0039 -0.4557 -0.3887
  548MOL0     C73897   2.603   8.718  11.112 -0.5191 -0.3379  0.3145
  548MOL0     C73898   2.574   8.828  11.190 -0.2006 -0.4114 -0.4102
  548MOL0     C73899   2.429   9.134  11.453 -0.2483 -0.2728  1.2862
  548MOL0     C73900   2.482   9.262  11.484 -0.0418  0.1462 -0.1105
  548MOL0     C73901   2.399   9.361  11.537 -0.6802  1.0699 -0.5595
  548MOL0     C73902   2.270   9.327  11.579  0.8919  0.1710 -0.2899
  548MOL0     O73903   2.179   9.405  11.645  0.1154 -0.9228  0.3712
  548MOL0     C73904   2.223   9.542  11.675 -0.1560 -0.9522 -0.2546
  548MOL0     C73905   2.111   9.636  11.716 -0.4284 -0.2669  0.0786
  548MOL0     C73906   2.020   9.590  11.830 -0.8229  0.2001  0.8227
  548MOL0     C73907   1.925   9.699  11.873 -0.6287 -0.0375 -0.0021
  548MOL0     C73908   1.878   9.683  12.013 -0.3009 -0.1371  0.6712
  548MOL0     C73909   1.850   9.666  12.133  0.1068 -0.8604  0.1322
  548MOL0     C73910   2.220   9.202  11.539 -0.9221 -0.3392 -0.3743
  548MOL0     C73911   2.296   9.104  11.481  0.3304 -1.0242 -0.0529
  548MOL0     C73912   2.214   8.976  11.445 -0.0949  0.6133  0.2076
  548MOL0     H73913   2.548   8.669  11.491  3.7456  0.5250  1.0026
  548MOL0     H73914   2.566   8.470  11.333 -1.0409 -1.8492 -2.0189
  548MOL0     H73915   2.769   8.587  10.994 -0.1527  0.0979 -2.2773
  548MOL0     H73916   2.819   8.424  11.002  2.9638  2.9752 -1.6904
  548MOL0     H73917   2.574   8.523  10.835  1.6055  2.1693  2.9100
  548MOL0     H73918   2.622   8.346  10.849 -0.3968  0.3241 -4.6499
  548MOL0     H73919   2.844   8.433  10.775 -0.2139  0.6709  1.4104
  548MOL0     H73920   2.746   8.551  10.688  1.2262 -0.0861  1.5164
  548MOL0     H73921   2.618   8.302  10.630  0.2922 -1.1671 -2.6048
  548MOL0     H73922   2.691   8.416  10.525 -0.0223  0.1104 -1.0051
  548MOL0     H73923   2.845   8.224  10.499 -2.4091 -0.5410  0.3158
  548MOL0     H73924   2.918   8.323  10.633 -0.5362  0.2240  1.2038
  548MOL0     H73925   2.862   8.188  10.799  0.1060 -1.1170  0.3019
  548MOL0     H73926   2.743   8.086  10.693  1.6739 -1.8529 -2.5922
  548MOL0     H73927   2.912   8.023  10.548  0.4789 -2.0212  0.2733
  548MOL0     H73928   2.893   7.940  10.704 -0.3435  0.8337  0.5208
  548MOL0     H73929   3.139   7.973  10.657 -0.6195  0.0176  0.6400
  548MOL0     H73930   3.123   8.144  10.643  1.7547 -1.3552  0.0388
  548MOL0     H73931   2.971   7.913  10.920 -0.3452  0.2742 -1.4677
  548MOL0     H73932   3.026   7.881  11.169 -1.7676 -0.0207  1.4415
  548MOL0     H73933   3.114   8.008  11.249  1.4535  0.3209 -1.0306
  548MOL0     H73934   2.841   8.077  11.127 -0.0614 -2.7418  0.5572
  548MOL0     H73935   2.838   7.977  11.269  1.0580 -3.9830 -2.4996
  548MOL0     H73936   2.838   8.246  11.292  1.1659  1.0733 -0.7503
  548MOL0     H73937   3.005   8.219  11.273 -1.7242  2.6275  1.9703
  548MOL0     H73938   3.047   8.087  11.452  1.2000  1.1524  0.4164
  548MOL0     H73939   2.880   8.054  11.499  2.0419 -1.3881  0.0908
  548MOL0     H73940   2.933   8.477  11.653  0.8978  0.1298 -2.6409
  548MOL0     H73941   2.748   8.589  11.712 -0.5373  0.0027  0.5963
  548MOL0     H73942   2.306   8.722  11.643 -3.5384  3.0885 -0.1171
  548MOL0     H73943   2.171   8.866  11.734 -2.3936 -1.2917  1.3899
  548MOL0     H73944   2.241   9.172  12.035 -2.3873  2.0041  0.8972
  548MOL0     H73945   2.250   9.109  11.866  1.0253 -0.8065  0.8503
  548MOL0     H73946   2.015   9.193  12.041 -1.4113  3.6800 -0.9375
  548MOL0     H73947   2.080   9.288  11.911 -0.3462  1.1744  0.7572
  548MOL0     H73948   2.010   9.098  11.743 -0.5803  0.7909 -0.2852
  548MOL0     H73949   1.948   9.009  11.880 -0.0541 -0.5457  0.6681
  548MOL0     H73950   1.777   9.160  11.739 -3.9443  3.8716  0.1866
  548MOL0     H73951   1.882   9.301  11.783  0.1147  0.3550 -0.2513
  548MOL0     H73952   1.822   9.294  12.009 -2.4408 -1.5349  2.9323
  548MOL0     H73953   1.743   9.148  11.998 -0.1306  0.5429 -0.1933
  548MOL0     H73954   1.649   9.391  11.838 -2.4218  1.9873  1.9612
  548MOL0     H73955   1.552   9.259  11.865 -0.1653  0.9538 -0.8265
  548MOL0     H73956   1.488   9.436  12.020 -0.1099 -1.2114 -1.2523
  548MOL0     H73957   1.643   9.461  12.082  0.3531 -1.7407  3.7014
  548MOL0     H73958   1.641   9.227  12.177 -1.1492 -0.6304 -0.9041
  548MOL0     H73959   1.542   9.346  12.256 -0.9449 -0.2799  0.0943
  548MOL0     H73960   2.363   8.843  12.130  2.0118  2.5738 -0.0574
  548MOL0     H73961   2.506   8.668  12.020  1.2786  1.2511  0.3213
  548MOL0     H73962   2.506   8.237  11.575 -1.0321  1.9071  0.1198
  548MOL0     H73963   2.686   8.131  11.512 -0.3276 -0.0440 -0.1409
  548MOL0     H73964   2.607   8.739  11.006 -1.4601  1.5403  0.6018
  548MOL0     H73965   2.557   8.927  11.150 -2.3591  0.4465  2.3135
  548MOL0     H73966   2.583   9.295  11.462  1.5199 -2.5299  2.3428
  548MOL0     H73967   2.420   9.466  11.555  1.3061  1.1580 -2.8303
  548MOL0     H73968   2.261   9.594  11.585  0.8507 -0.2762  0.5288
  548MOL0     H73969   2.309   9.540  11.743  2.2076  0.4983 -2.9165
  548MOL0     H73970   2.046   9.657  11.630  0.4545  0.5825 -0.3949
  548MOL0     H73971   2.150   9.736  11.740 -0.7104 -0.6015  2.1942
  548MOL0     H73972   2.082   9.560  11.916  2.6947  3.7772 -0.1505
  548MOL0     H73973   1.960   9.513  11.781 -0.9624  3.0459 -4.1189
  548MOL0     H73974   1.973   9.798  11.873 -0.9787  0.1369  0.0609
  548MOL0     H73975   1.838   9.693  11.806 -0.5461  2.6089 -0.4604
  548MOL0     H73976   1.824   9.667  12.237  1.9407 -1.4852  0.6435
  548MOL0     H73977   2.120   9.183  11.577 -0.1439  1.4600  2.9130
  548MOL0     H73978   2.209   8.901  11.525 -1.0256  0.2340 -0.1848
  548MOL0     H73979   2.111   9.007  11.426 -0.2392  2.0391  2.8827
  548MOL0     H73980   2.243   8.920  11.356  2.2085 -1.1223  1.9071
  549MOL0     O73981   2.978   9.811   7.524 -0.4287 -0.2232  0.2584
  549MOL0     C73982   3.100   9.809   7.561 -0.1782  0.8395  0.2167
  549MOL0     O73983   3.174   9.704   7.619  0.1609  0.0840 -0.2347
  549MOL0     C73984   3.111   9.584   7.655 -0.8975 -0.6258 -0.6709
  549MOL0     C73985   3.198   9.478   7.688  0.8909 -0.6092  0.2622
  549MOL0     C73986   3.147   9.351   7.705 -0.3605  0.0355 -0.3205
  549MOL0     C73987   3.014   9.320   7.702 -0.7882 -0.3103  0.1132
  549MOL0     O73988   2.981   9.186   7.725 -0.1137 -0.2553  0.2482
  549MOL0     C73989   2.847   9.152   7.732 -0.3240 -0.4125  0.0587
  549MOL0     C73990   2.791   9.147   7.588  0.1922  0.3035  0.1302
  549MOL0     C73991   2.845   9.035   7.501 -0.9219  0.0427  0.4285
  549MOL0     C73992   2.817   9.062   7.351 -0.2965  0.6725 -0.8413
  549MOL0     C73993   2.900   8.947   7.285  0.3038  0.5828  0.4675
  549MOL0     C73994   2.869   8.930   7.136  0.0476  0.1919 -0.2752
  549MOL0     C73995   2.987   8.868   7.064 -0.6171 -0.1002  0.2050
  549MOL0     C73996   3.032   8.717   7.096 -0.0406 -0.0291  0.4932
  549MOL0     N73997   3.126   8.654   7.009  0.9364  1.0954 -0.1317
  549MOL0     C73998   3.250   8.688   6.982  0.5702 -0.4111 -0.0791
  549MOL0     C73999   3.285   8.617   6.876  0.3630  0.2170 -0.3849
  549MOL0     C74000   3.404   8.648   6.780 -0.5232 -0.3584  0.8802
  549MOL0     C74001   3.364   8.757   6.678 -0.9182 -0.3974  0.2144
  549MOL0     C74002   3.412   8.901   6.729  0.5905  0.1257  0.7496
  549MOL0     C74003   3.334   9.028   6.663  0.8929 -0.1196  0.0999
  549MOL0     O74004   3.231   9.079   6.753 -1.2304 -0.1933  0.2484
  549MOL0     C74005   3.099   9.054   6.733  0.0008  0.4441 -0.5824
  549MOL0     C74006   3.053   8.963   6.629  0.3158 -0.3445 -0.0470
  549MOL0     C74007   2.912   8.945   6.615 -0.5582  1.4846  0.1611
  549MOL0     C74008   2.821   9.017   6.681  0.9011 -0.1688  0.2470
  549MOL0     C74009   2.679   9.008   6.655  0.2463  0.1179  0.1261
  549MOL0     O74010   2.636   8.928   6.565 -0.3011  0.8091 -0.2503
  549MOL0     C74011   2.508   8.895   6.544  0.1127  0.3510 -1.0938
  549MOL0     C74012   2.401   8.992   6.536 -0.2412 -0.7385  0.3686
  549MOL0     C74013   2.268   8.948   6.513  0.8280 -0.3217  0.1035
  549MOL0     C74014   2.238   8.821   6.469  0.3256  0.6645  0.4723
  549MOL0     O74015   2.112   8.769   6.436 -0.2562  0.1712 -0.1468
  549MOL0     C74016   2.024   8.860   6.367  0.0604 -0.0169 -0.1878
  549MOL0     C74017   1.918   8.788   6.289  0.6557  0.2548  0.9997
  549MOL0     C74018   1.802   8.873   6.239  0.1228  0.6187  0.1190
  549MOL0     C74019   1.848   8.957   6.104 -0.0127 -0.0398 -0.1948
  549MOL0     C74020   1.751   9.072   6.080  0.7127 -1.0984 -0.0614
  549MOL0     C74021   1.777   9.151   5.956  0.3107  0.8496 -0.3480
  549MOL0     C74022   1.708   9.281   5.952  0.5760 -0.0365  0.1929
  549MOL0     C74023   1.571   9.284   6.016 -0.2344  0.6307  1.2036
  549MOL0    Cl74024   1.507   9.454   6.017  0.2579 -0.1207 -0.3682
  549MOL0     C74025   2.341   8.732   6.461  0.5131  1.1315  0.4344
  549MOL0     C74026   2.470   8.767   6.504 -0.0317 -0.2942  1.2336
  549MOL0     O74027   2.608   9.068   6.734  0.0027  0.0710 -0.2495
  549MOL0     C74028   2.869   9.110   6.782 -0.4571 -0.2896 -0.0426
  549MOL0     C74029   3.005   9.126   6.811  0.9471 -0.2198  1.5789
  549MOL0     N74030   3.185   8.525   6.854  0.8726  0.9021  0.4795
  549MOL0     N74031   3.097   8.545   6.937  0.4169 -0.3163  0.3011
  549MOL0     C74032   2.921   9.425   7.695 -0.3799  0.1860  0.1890
  549MOL0     C74033   2.969   9.559   7.674 -0.3741  0.1295  0.1429
  549MOL0     C74034   3.189   9.907   7.495 -0.4607  0.3119  1.0069
  549MOL0     C74035   3.299   9.855   7.420  0.0504  0.3199 -0.2356
  549MOL0     C74036   3.398   9.938   7.366  0.7434  0.0781  1.0140
  549MOL0     C74037   3.378  10.074   7.362  0.1796 -0.8265 -0.1373
  549MOL0     O74038   3.486  10.157   7.322  0.4366 -0.2338 -0.0284
  549MOL0     C74039   3.457  10.288   7.267  0.0050 -0.1948  0.6490
  549MOL0     C74040   3.457  10.276   7.111 -1.1042 -0.1446  0.6727
  549MOL0     C74041   3.449  10.414   7.053  0.3237 -0.1190 -0.4929
  549MOL0     C74042   3.487  10.406   6.908 -0.0823  0.4440  0.1893
  549MOL0     C74043   3.463  10.529   6.843  0.4550 -0.3194 -0.0510
  549MOL0     C74044   3.460  10.626   6.773  0.0590  1.1889  0.2480
  549MOL0     C74045   3.270  10.128   7.436  0.0190 -0.2157 -0.1690
  549MOL0     C74046   3.173  10.045   7.501 -0.8192  0.1748  0.8505
  549MOL0     C74047   3.073  10.104   7.596  0.7263  0.0994  0.6922
  549MOL0     H74048   3.303   9.504   7.685 -0.1212  4.5029 -1.5671
  549MOL0     H74049   3.211   9.264   7.717 -0.9795 -0.2561  0.9579
  549MOL0     H74050   2.835   9.051   7.771  0.4936 -0.6830 -0.3560
  549MOL0     H74051   2.789   9.218   7.798  0.5334 -1.3421  1.8185
  549MOL0     H74052   2.799   9.241   7.531  0.8425 -0.2246 -0.6807
  549MOL0     H74053   2.683   9.131   7.596  0.5595 -2.3008  0.4867
  549MOL0     H74054   2.800   8.941   7.534 -2.1697  0.9125  1.3253
  549MOL0     H74055   2.952   9.039   7.520 -1.1799 -1.0324  2.4412
  549MOL0     H74056   2.709   9.062   7.328 -0.1772 -0.5151 -1.4922
  549MOL0     H74057   2.854   9.157   7.312 -1.2989  1.4888  0.1651
  549MOL0     H74058   3.004   8.981   7.290 -0.5542  3.3279  2.4425
  549MOL0     H74059   2.894   8.853   7.341 -2.0537 -1.9237 -3.5584
  549MOL0     H74060   2.776   8.874   7.131 -1.3620  1.9574  2.9481
  549MOL0     H74061   2.847   9.030   7.098  1.3849  2.8937  5.1191
  549MOL0     H74062   3.075   8.932   7.069 -0.5004 -0.2203 -0.2450
  549MOL0     H74063   2.965   8.879   6.957 -0.3937  0.4364  0.2107
  549MOL0     H74064   3.070   8.719   7.199 -2.2389  0.3150  1.3503
  549MOL0     H74065   2.949   8.646   7.091  2.0282 -2.5622  0.2146
  549MOL0     H74066   3.297   8.784   7.004 -2.0722  1.1453 -0.8017
  549MOL0     H74067   3.491   8.673   6.841 -0.9172 -2.0790  2.2367
  549MOL0     H74068   3.430   8.555   6.727  1.4845 -0.4780  1.9968
  549MOL0     H74069   3.408   8.739   6.579 -1.2574  0.6338 -0.1302
  549MOL0     H74070   3.255   8.760   6.668 -0.7832  2.5258 -1.6673
  549MOL0     H74071   3.518   8.904   6.702  0.5789  0.8122  0.7608
  549MOL0     H74072   3.388   8.907   6.835 -0.3893  0.8751  0.5108
  549MOL0     H74073   3.308   9.005   6.559  4.8848 -0.3706 -1.0252
  549MOL0     H74074   3.398   9.117   6.654 -0.5695  1.3014  2.6305
  549MOL0     H74075   3.119   8.919   6.554  0.1964  3.4666 -2.6661
  549MOL0     H74076   2.888   8.877   6.534  3.8679 -1.1671  0.7374
  549MOL0     H74077   2.409   9.094   6.572 -0.9077  0.0480 -1.5884
  549MOL0     H74078   2.183   9.013   6.529  0.4796 -0.6277 -0.4845
  549MOL0     H74079   1.981   8.934   6.435 -3.4486 -1.1250 -1.0292
  549MOL0     H74080   2.086   8.912   6.294  1.8310 -0.7366  0.7311
  549MOL0     H74081   1.967   8.739   6.204  2.6308  2.5669  0.6815
  549MOL0     H74082   1.878   8.712   6.357  0.7432 -1.8096 -1.1376
  549MOL0     H74083   1.733   8.794   6.210  1.7717 -0.0397 -2.3811
  549MOL0     H74084   1.758   8.938   6.314 -0.7702 -1.4501  1.4597
  549MOL0     H74085   1.842   8.894   6.015  0.8118 -0.0394 -0.2580
  549MOL0     H74086   1.944   9.010   6.108 -0.6151  1.6557 -3.7810
  549MOL0     H74087   1.755   9.145   6.162 -1.6073  1.2910 -1.9032
  549MOL0     H74088   1.650   9.031   6.072  0.5494 -0.5686 -0.7914
  549MOL0     H74089   1.883   9.175   5.951  0.2137  1.1138 -1.3225
  549MOL0     H74090   1.749   9.098   5.865  3.8505 -0.4428 -0.8288
  549MOL0     H74091   1.701   9.320   5.850  0.7240  0.6638  0.4468
  549MOL0     H74092   1.775   9.350   6.004  1.0858  0.6725 -1.3536
  549MOL0     H74093   1.501   9.225   5.957  1.2623 -0.4486  0.4523
  549MOL0     H74094   1.568   9.250   6.120  0.4838 -2.7391  0.2455
  549MOL0     H74095   2.317   8.627   6.458  1.9703  0.6751  2.3645
  549MOL0     H74096   2.539   8.683   6.495 -1.0365 -0.9590 -0.6545
  549MOL0     H74097   2.798   9.170   6.838 -0.3858  2.0506 -2.2920
  549MOL0     H74098   3.027   9.214   6.869 -0.9853  3.6680 -2.8862
  549MOL0     H74099   2.816   9.417   7.720 -0.5213  0.2126 -0.4000
  549MOL0     H74100   2.890   9.633   7.660  0.3065  0.4703 -2.2742
  549MOL0     H74101   3.307   9.746   7.420  0.5243  0.3351  0.8411
  549MOL0     H74102   3.481   9.892   7.314  1.3237 -0.4355  2.3416
  549MOL0     H74103   3.528  10.358   7.313 -1.0969  0.7652  0.9349
  549MOL0     H74104   3.356  10.320   7.293 -0.0427  1.2868 -1.1415
  549MOL0     H74105   3.380  10.215   7.062 -1.4064  1.0352 -0.3837
  549MOL0     H74106   3.549  10.228   7.077 -2.5375 -1.6416 -1.3903
  549MOL0     H74107   3.523  10.485   7.093  0.1410  0.1483 -0.6284
  549MOL0     H74108   3.350  10.461   7.047  1.5052  2.4609 -1.5034
  549MOL0     H74109   3.594  10.382   6.896  1.0566  0.0606  6.8414
  549MOL0     H74110   3.434  10.326   6.856  1.5917 -0.9017  0.4435
  549MOL0     H74111   3.468  10.722   6.727  0.4098  0.6055 -0.9568
  549MOL0     H74112   3.260  10.235   7.453 -0.4328 -0.1431 -0.8637
  549MOL0     H74113   3.121  10.126   7.691 -3.0581  0.6726  2.6698
  549MOL0     H74114   3.035  10.194   7.548 -0.9704 -2.4596 -3.3640
  549MOL0     H74115   2.989  10.043   7.632  1.4933 -1.8302 -0.6137
  550MOL0     O74116   3.461   4.245   3.535  0.3675  0.1960 -0.0416
  550MOL0     C74117   3.348   4.262   3.567 -0.1239 -0.2939  0.1793
  550MOL0     O74118   3.245   4.175   3.552  0.0680  0.5323 -0.1827
  550MOL0     C74119   3.261   4.065   3.476  0.1153 -0.2297 -0.1722
  550MOL0     C74120   3.152   4.029   3.401  0.1007 -0.0940 -0.4216
  550MOL0     C74121   3.147   3.913   3.330 -0.0162  0.4366  0.8584
  550MOL0     C74122   3.257   3.818   3.324  0.5671  0.5337  0.4556
  550MOL0     O74123   3.243   3.700   3.251 -0.8383 -0.0834  0.0136
  550MOL0     C74124   3.260   3.724   3.112  0.4944  0.3723 -0.1249
  550MOL0     C74125   3.409   3.713   3.096  0.2481  0.5370  0.0128
  550MOL0     C74126   3.470   3.718   2.954  0.3253 -0.3246 -0.0817
  550MOL0     C74127   3.528   3.580   2.914 -0.7648  0.7811 -0.9028
  550MOL0     C74128   3.586   3.581   2.772 -0.7207  0.1259 -0.5071
  550MOL0     C74129   3.622   3.440   2.721 -0.5692  0.3881 -0.0639
  550MOL0     C74130   3.665   3.448   2.579 -0.4325  0.0959  0.1082
  550MOL0     C74131   3.535   3.486   2.499  0.1528  0.3822  0.6045
  550MOL0     N74132   3.579   3.467   2.356  0.1862 -0.9978  0.3268
  550MOL0     C74133   3.627   3.357   2.288  0.1296  1.0993  0.2919
  550MOL0     C74134   3.680   3.398   2.169  0.4033  0.8603  0.0561
  550MOL0     C74135   3.762   3.299   2.083 -0.5116 -0.9612  0.5356
  550MOL0     C74136   3.670   3.244   1.955 -0.1876  0.3346 -1.1574
  550MOL0     C74137   3.526   3.197   2.011 -0.4785 -0.4945  0.5651
  550MOL0     C74138   3.420   3.202   1.892 -0.5963 -0.2806 -0.1771
  550MOL0     O74139   3.274   3.218   1.927  0.0303 -0.5597 -0.4883
  550MOL0     C74140   3.206   3.101   1.950 -0.9224 -0.2574 -0.8564
  550MOL0     C74141   3.075   3.116   1.936 -0.3276 -0.4482  0.9261
  550MOL0     C74142   2.988   3.003   1.952  0.3032 -0.5457  0.1855
  550MOL0     C74143   3.042   2.880   1.990  0.5479 -0.3028 -0.3509
  550MOL0     C74144   2.945   2.770   2.009  0.0305 -0.1193  0.0156
  550MOL0     O74145   2.822   2.813   2.053 -0.0177  0.2413  0.9194
  550MOL0     C74146   2.741   2.721   2.112 -0.5999 -0.2573  0.3608
  550MOL0     C74147   2.601   2.730   2.083 -0.0814  0.4297  0.9462
  550MOL0     C74148   2.506   2.655   2.150 -0.6346 -0.2915 -0.1735
  550MOL0     C74149   2.547   2.553   2.245  0.5315  0.0772  0.5406
  550MOL0     O74150   2.461   2.477   2.320  0.0283 -0.6588 -0.6805
  550MOL0     C74151   2.323   2.535   2.354 -0.2861 -0.0428 -0.9640
  550MOL0     C74152   2.258   2.429   2.431 -0.5330  0.2156  0.3535
  550MOL0     C74153   2.253   2.293   2.360 -0.0176 -0.8119  0.4303
  550MOL0     C74154   2.150   2.202   2.425  0.4761  0.2543  0.3682
  550MOL0     C74155   2.154   2.056   2.368 -0.2785 -0.0647  0.1144
  550MOL0     C74156   2.031   1.973   2.417  0.0535  0.2287  1.7289
  550MOL0     C74157   2.063   1.820   2.403  0.1360 -0.0008 -0.2235
  550MOL0     C74158   1.937   1.735   2.369  0.1861 -1.4666  0.5794
  550MOL0    Cl74159   1.778   1.769   2.456  0.2288 -0.1466 -0.0578
  550MOL0     C74160   2.686   2.531   2.266  0.2685  0.6385  0.1656
  550MOL0     C74161   2.782   2.619   2.210 -0.2907 -1.0282 -0.6259
  550MOL0     O74162   2.985   2.656   1.996  0.9482 -0.0469  0.2917
  550MOL0     C74163   3.183   2.872   2.008  0.5665  1.1193  0.1593
  550MOL0     C74164   3.260   2.979   1.995  1.1597  0.3427  0.2226
  550MOL0     N74165   3.642   3.523   2.145 -0.7647 -0.7153 -0.3139
  550MOL0     N74166   3.581   3.568   2.260 -0.1847  0.4085  0.4948
  550MOL0     C74167   3.371   3.849   3.403  0.0772  0.1276 -0.8497
  550MOL0     C74168   3.376   3.974   3.472  0.5223  0.1115  0.1219
  550MOL0     C74169   3.321   4.390   3.638 -0.6301 -0.4146  0.0530
  550MOL0     C74170   3.412   4.503   3.616 -0.6391  0.1581 -0.0979
  550MOL0     C74171   3.391   4.615   3.682  0.8233  0.4857  0.0517
  550MOL0     C74172   3.291   4.633   3.780 -0.1696 -0.5547 -0.7618
  550MOL0     O74173   3.278   4.758   3.849 -0.6914  0.3039  0.7171
  550MOL0     C74174   3.401   4.820   3.889 -0.1479 -0.9032  0.3160
  550MOL0     C74175   3.460   4.757   4.010  0.0649 -0.6569 -0.4228
  550MOL0     C74176   3.376   4.786   4.147 -1.2736  0.4656 -0.0540
  550MOL0     C74177   3.457   4.747   4.273 -0.6687 -0.6575  0.1266
  550MOL0     C74178   3.371   4.770   4.389 -0.4542  0.1533 -0.1194
  550MOL0     C74179   3.280   4.785   4.463 -1.3984 -0.6408  0.3400
  550MOL0     C74180   3.210   4.531   3.802  0.1705  0.0014  0.1911
  550MOL0     C74181   3.222   4.401   3.738  1.1241 -0.6722 -0.4360
  550MOL0     C74182   3.138   4.290   3.790 -0.9074 -0.8012 -0.7407
  550MOL0     H74183   3.061   4.085   3.417  0.8276  1.3155 -1.0836
  550MOL0     H74184   3.059   3.877   3.276  0.4452  0.5761 -0.0074
  550MOL0     H74185   3.218   3.644   3.051  1.4951  0.3069 -0.7509
  550MOL0     H74186   3.223   3.820   3.075  0.9353  0.7046  0.2745
  550MOL0     H74187   3.447   3.624   3.147 -0.2114 -0.5827 -1.5428
  550MOL0     H74188   3.445   3.799   3.153  0.0072  0.5534  0.1386
  550MOL0     H74189   3.549   3.792   2.968 -1.5187  1.6794  0.3523
  550MOL0     H74190   3.407   3.759   2.874  3.3967  2.5576 -1.2507
  550MOL0     H74191   3.604   3.555   2.988 -0.9719  0.8940 -0.6476
  550MOL0     H74192   3.460   3.495   2.917  1.4067 -1.0729 -1.4991
  550MOL0     H74193   3.518   3.647   2.718 -0.8514  3.1826  2.9840
  550MOL0     H74194   3.680   3.636   2.774  0.8455 -2.3860 -0.6521
  550MOL0     H74195   3.711   3.391   2.761  1.1596 -0.3876 -4.3301
  550MOL0     H74196   3.535   3.375   2.737 -0.9169  1.3551  2.2994
  550MOL0     H74197   3.715   3.359   2.539  2.8100  2.4585 -1.5492
  550MOL0     H74198   3.733   3.533   2.566 -0.4154  0.0410 -0.1672
  550MOL0     H74199   3.447   3.428   2.528  0.6654  0.8392  3.4041
  550MOL0     H74200   3.515   3.594   2.502 -2.6243  0.0035 -0.8086
  550MOL0     H74201   3.631   3.254   2.322 -4.8618  0.2033 -1.0124
  550MOL0     H74202   3.846   3.359   2.046  1.1419 -0.6560  4.3221
  550MOL0     H74203   3.800   3.219   2.146 -0.0336 -1.1334  0.0359
  550MOL0     H74204   3.671   3.317   1.873 -2.7884  0.3721 -1.2567
  550MOL0     H74205   3.720   3.154   1.920 -0.2454  0.5578 -1.8272
  550MOL0     H74206   3.477   3.261   2.084 -2.2214 -0.9174 -0.1896
  550MOL0     H74207   3.533   3.092   2.039  1.2644 -0.2008  1.3301
  550MOL0     H74208   3.438   3.125   1.817 -1.2644  0.9653 -1.6922
  550MOL0     H74209   3.453   3.295   1.844  4.5581 -1.6862  0.0501
  550MOL0     H74210   3.035   3.212   1.902  1.3067 -0.4430 -1.1622
  550MOL0     H74211   2.882   3.024   1.941  1.0814  3.0785 -2.4744
  550MOL0     H74212   2.564   2.801   2.010 -0.1937  0.9467  1.4965
  550MOL0     H74213   2.401   2.670   2.129 -0.0793  1.5154 -2.0020
  550MOL0     H74214   2.321   2.622   2.420  0.5399 -1.6814  1.3443
  550MOL0     H74215   2.272   2.554   2.259 -1.1194  1.7448 -0.2178
  550MOL0     H74216   2.313   2.423   2.525  0.0753  1.4650  0.0989
  550MOL0     H74217   2.156   2.455   2.461 -0.8332 -0.3795 -0.1246
  550MOL0     H74218   2.216   2.315   2.260 -1.1965  1.0264  1.2232
  550MOL0     H74219   2.344   2.234   2.374  0.8891  0.5853  0.6843
  550MOL0     H74220   2.055   2.253   2.406  2.0304  2.7503 -1.2592
  550MOL0     H74221   2.174   2.193   2.531  2.3861 -0.4302 -0.0829
  550MOL0     H74222   2.252   2.016   2.396  0.0549 -0.8947 -2.0399
  550MOL0     H74223   2.165   2.062   2.260  0.6672  1.4395  0.2581
  550MOL0     H74224   2.011   2.002   2.520  1.3583  0.6230  1.8983
  550MOL0     H74225   1.941   2.002   2.362 -0.3134 -0.5093  1.9215
  550MOL0     H74226   2.116   1.785   2.492  0.9023 -2.6311 -1.6079
  550MOL0     H74227   2.136   1.806   2.322 -0.2282  0.3490 -0.6173
  550MOL0     H74228   1.924   1.750   2.261  3.6047  1.4609  0.3689
  550MOL0     H74229   1.966   1.631   2.386 -1.5042 -2.0212  0.2159
  550MOL0     H74230   2.723   2.443   2.318 -3.1085 -0.8217  0.3456
  550MOL0     H74231   2.889   2.616   2.228 -0.7208 -0.4165  2.5498
  550MOL0     H74232   3.227   2.775   2.026  0.2281  0.0275 -3.8937
  550MOL0     H74233   3.367   2.965   1.990  1.0983  0.1297 -0.8796
  550MOL0     H74234   3.449   3.774   3.416 -1.2126 -1.0961  0.1397
  550MOL0     H74235   3.452   4.009   3.541  1.0020  3.3135 -1.8435
  550MOL0     H74236   3.487   4.489   3.539  0.2517 -2.4125  1.0942
  550MOL0     H74237   3.457   4.694   3.648  0.1784  0.4906 -1.2980
  550MOL0     H74238   3.363   4.921   3.909 -2.3071 -1.6175  0.1014
  550MOL0     H74239   3.469   4.835   3.804 -2.9070  2.9646 -1.5716
  550MOL0     H74240   3.562   4.784   4.036 -0.2925  0.4066 -0.0599
  550MOL0     H74241   3.469   4.649   3.992 -1.1512 -0.4912 -2.3441
  550MOL0     H74242   3.280   4.734   4.145  0.2870 -2.7670  2.1602
  550MOL0     H74243   3.359   4.895   4.145  2.0697  1.1165  0.8867
  550MOL0     H74244   3.493   4.644   4.260 -1.2740 -0.7299 -1.1162
  550MOL0     H74245   3.545   4.810   4.288 -1.4939  0.0827  2.1994
  550MOL0     H74246   3.199   4.804   4.531  1.3736  3.1325  3.0029
  550MOL0     H74247   3.141   4.544   3.884  1.5168  0.3706  1.3107
  550MOL0     H74248   3.199   4.204   3.818  3.5456  1.6597 -1.9713
  550MOL0     H74249   3.083   4.323   3.880 -2.8307  1.4238 -2.5835
  550MOL0     H74250   3.069   4.251   3.714  0.0016 -0.7195 -1.6279
  551MOL0     O74251   8.366   1.025   4.685 -0.2676 -0.3460 -0.1989
  551MOL0     C74252   8.277   0.934   4.707 -0.0840  0.1034 -0.6249
  551MOL0     O74253   8.240   0.830   4.619 -0.1706  0.5053 -0.2384
  551MOL0     C74254   8.266   0.848   4.488  1.0445  1.0959  0.0840
  551MOL0     C74255   8.398   0.809   4.450 -0.9192  0.7020  0.1460
  551MOL0     C74256   8.433   0.796   4.319  1.3687 -0.2552  0.4456
  551MOL0     C74257   8.337   0.826   4.219  0.0815  0.7651  0.0848
  551MOL0     O74258   8.385   0.808   4.090  0.3668  0.2250 -0.0077
  551MOL0     C74259   8.294   0.743   4.004 -0.0166 -0.7565 -0.1086
  551MOL0     C74260   8.375   0.628   3.948  1.0640  0.1145 -0.5853
  551MOL0     C74261   8.447   0.528   4.038  0.0588 -0.0259 -0.2624
  551MOL0     C74262   8.346   0.474   4.139 -0.1049  0.4077 -0.7295
  551MOL0     C74263   8.400   0.365   4.233  0.3271  0.0762  0.6667
  551MOL0     C74264   8.410   0.422   4.377 -0.2512 -0.2692  0.8028
  551MOL0     C74265   8.499   0.337   4.481  0.9329 -0.2946 -0.7235
  551MOL0     C74266   8.494   0.399   4.623 -0.0945  0.3224  0.1958
  551MOL0     N74267   8.350   0.392   4.682 -0.0032 -0.1188 -0.9049
  551MOL0     C74268   8.266   0.290   4.695  0.7198 -0.3848  0.8190
  551MOL0     C74269   8.162   0.340   4.764  0.1779  0.3965  0.1036
  551MOL0     C74270   8.051   0.248   4.807 -0.3787  0.9237  0.1490
  551MOL0     C74271   8.055   0.197   4.957 -0.1014  0.2139 -0.2042
  551MOL0     C74272   8.052   0.312   5.060 -0.1519  1.0102  0.8556
  551MOL0     C74273   7.930   0.413   5.052  1.0228 -0.7799 -1.0367
  551MOL0     O74274   7.800   0.350   5.022  1.3047 -0.2755  0.1622
  551MOL0     C74275   7.706   0.318   5.119 -0.0332 -0.7955 -1.0779
  551MOL0     C74276   7.567   0.329   5.099  0.0901  0.1989  0.7886
  551MOL0     C74277   7.478   0.271   5.193  1.0403 -0.9123 -0.7238
  551MOL0     C74278   7.525   0.227   5.317 -0.9934 -0.6260  0.0717
  551MOL0     C74279   7.430   0.164   5.420 -0.0635  1.1289  0.3135
  551MOL0     O74280   7.481   0.129   5.535 -0.3325 -0.6310  0.0164
  551MOL0     C74281   7.402   0.079   5.638  0.0963 -0.2437 -0.0903
  551MOL0     C74282   7.442   0.126   5.760  0.3865  0.2939 -0.2441
  551MOL0     C74283   7.376   0.077   5.868 -0.3842 -0.6663 -0.9731
  551MOL0     C74284   7.282  -0.023   5.868 -0.2514 -0.1583  0.1673
  551MOL0     O74285   7.222  -0.053   5.987  1.1222  0.3039  0.8239
  551MOL0     C74286   7.113  -0.137   5.988 -0.2044  0.6588 -0.1144
  551MOL0     C74287   7.057  -0.142   6.132  0.9166  0.5988 -1.0350
  551MOL0     C74288   7.169  -0.196   6.232  0.0194  0.7768  0.2351
  551MOL0     C74289   7.113  -0.227   6.374  0.5330 -0.3480  0.7277
  551MOL0     C74290   7.207  -0.310   6.472 -0.3363  0.1047  0.4176
  551MOL0     C74291   7.157  -0.330   6.609  0.5644 -0.8055 -0.5188
  551MOL0     C74292   7.016  -0.393   6.629 -0.6978  0.3362 -0.7029
  551MOL0     C74293   6.994  -0.468   6.754  0.2701 -0.9011 -0.7818
  551MOL0    Cl74294   7.033  -0.634   6.714  0.3231 -0.2513  0.0644
  551MOL0     C74295   7.258  -0.080   5.742 -0.4591  0.1699  0.0289
  551MOL0     C74296   7.313  -0.029   5.622 -0.6309  0.5134 -0.0576
  551MOL0     O74297   7.311   0.149   5.380  0.0549 -0.2623 -0.5398
  551MOL0     C74298   7.664   0.236   5.343 -0.6727 -0.6700  0.7141
  551MOL0     C74299   7.753   0.281   5.247 -0.1622 -0.5084  0.2808
  551MOL0     N74300   8.184   0.480   4.787  0.2206  1.4661 -0.5623
  551MOL0     N74301   8.300   0.505   4.749 -0.2461  0.0158  0.4239
  551MOL0     C74302   8.207   0.890   4.253  0.2005  0.7103  0.1489
  551MOL0     C74303   8.181   0.903   4.387  0.0061 -0.4180  0.1887
  551MOL0     C74304   8.228   0.932   4.839  0.3166 -0.2186 -1.4282
  551MOL0     C74305   8.203   0.808   4.910  1.5949 -0.6473  0.3888
  551MOL0     C74306   8.139   0.812   5.035  0.5998  0.0250 -0.7518
  551MOL0     C74307   8.110   0.931   5.103  0.4988 -0.4688  0.5063
  551MOL0     O74308   8.049   0.922   5.227 -0.1368  0.2855  0.3919
  551MOL0     C74309   7.992   1.034   5.305 -0.0106  0.3713  0.4779
  551MOL0     C74310   8.026   1.020   5.454 -0.1496 -0.5499  0.1212
  551MOL0     C74311   8.177   1.011   5.493  0.0165  0.4046  0.2233
  551MOL0     C74312   8.180   0.960   5.637 -0.1203 -0.7640 -0.2793
  551MOL0     C74313   8.290   0.864   5.656  0.0664 -0.8900  0.0397
  551MOL0     C74314   8.395   0.793   5.673  1.2370 -0.6441 -0.0645
  551MOL0     C74315   8.138   1.045   5.034 -0.8484 -0.0227  0.2155
  551MOL0     C74316   8.196   1.053   4.907 -0.5592 -0.2603 -0.3927
  551MOL0     C74317   8.196   1.196   4.853  0.4404  0.2036 -0.1277
  551MOL0     H74318   8.459   0.756   4.522  0.1367 -0.8760 -1.8218
  551MOL0     H74319   8.521   0.743   4.285  2.0922  0.3342  1.3571
  551MOL0     H74320   8.201   0.711   4.052 -0.8561  0.4208 -0.8841
  551MOL0     H74321   8.254   0.808   3.926 -0.9363 -0.1540  0.8387
  551MOL0     H74322   8.450   0.668   3.879 -1.1072  1.9668 -1.9842
  551MOL0     H74323   8.307   0.573   3.883  1.7677  0.1192 -1.3335
  551MOL0     H74324   8.525   0.585   4.088 -0.0179  1.5612 -1.8342
  551MOL0     H74325   8.495   0.450   3.977  1.4279  1.4478 -1.1342
  551MOL0     H74326   8.317   0.555   4.207 -3.2162 -1.4762  0.4384
  551MOL0     H74327   8.262   0.438   4.079 -0.4464  1.3176 -0.8056
  551MOL0     H74328   8.339   0.274   4.233  0.5740 -0.0917  0.6010
  551MOL0     H74329   8.500   0.339   4.195 -0.1770  0.9952 -1.4386
  551MOL0     H74330   8.461   0.518   4.372 -0.1214 -0.3103  1.2587
  551MOL0     H74331   8.310   0.446   4.416 -1.0420 -0.4298 -1.0480
  551MOL0     H74332   8.600   0.343   4.441  0.6555  3.1182 -1.1772
  551MOL0     H74333   8.458   0.236   4.474 -2.1690  0.9654 -3.5141
  551MOL0     H74334   8.561   0.347   4.691 -0.7473  1.3100  1.6514
  551MOL0     H74335   8.541   0.498   4.617  1.1781  0.1229  4.2120
  551MOL0     H74336   8.284   0.187   4.668  3.3248 -0.2531  1.7488
  551MOL0     H74337   7.950   0.280   4.779 -1.4264 -2.3050 -0.2830
  551MOL0     H74338   8.064   0.166   4.735 -0.4829  1.4745 -0.4999
  551MOL0     H74339   7.968   0.132   4.968  1.0105 -1.1430  1.1071
  551MOL0     H74340   8.142   0.132   4.970 -1.5910 -2.3608 -2.0947
  551MOL0     H74341   8.142   0.373   5.051 -0.1718  0.7794 -1.4209
  551MOL0     H74342   8.052   0.261   5.157 -0.1952  0.0044  0.3324
  551MOL0     H74343   7.958   0.492   4.982  0.5305 -0.7160 -1.1601
  551MOL0     H74344   7.926   0.464   5.148  1.8946 -0.7081 -1.0257
  551MOL0     H74345   7.531   0.356   5.001  3.5362 -3.9087 -1.9501
  551MOL0     H74346   7.377   0.270   5.152  0.8806  1.4990 -0.5183
  551MOL0     H74347   7.519   0.197   5.789 -0.0416  2.1379 -3.1651
  551MOL0     H74348   7.409   0.119   5.963  2.2884 -2.2820 -1.0769
  551MOL0     H74349   7.039  -0.101   5.916  0.5093  1.5019 -0.4375
  551MOL0     H74350   7.145  -0.236   5.954  1.1204  0.8052  0.6363
  551MOL0     H74351   7.011  -0.047   6.160 -1.5806 -0.2418 -2.0618
  551MOL0     H74352   6.980  -0.219   6.139  1.4124  0.2187  0.9813
  551MOL0     H74353   7.231  -0.271   6.182  0.4649  1.1075  0.2820
  551MOL0     H74354   7.234  -0.108   6.243 -0.3966  1.3210 -1.3966
  551MOL0     H74355   7.030  -0.297   6.361  0.8488 -0.2930 -2.4020
  551MOL0     H74356   7.073  -0.136   6.420 -0.7614  0.0924 -1.1641
  551MOL0     H74357   7.302  -0.258   6.487  0.9719 -2.2675  1.0025
  551MOL0     H74358   7.238  -0.404   6.425  1.9470  0.9269  0.1500
  551MOL0     H74359   7.235  -0.398   6.647  0.9155 -1.6595 -2.5778
  551MOL0     H74360   7.158  -0.234   6.660 -1.1088 -0.9377 -0.1950
  551MOL0     H74361   6.996  -0.462   6.547  1.6494  1.5078 -2.3799
  551MOL0     H74362   6.955  -0.302   6.620 -0.4742  0.7513  1.4675
  551MOL0     H74363   7.039  -0.447   6.851  0.7444  0.4523 -1.2694
  551MOL0     H74364   6.888  -0.459   6.776  0.0523  1.0304 -2.3452
  551MOL0     H74365   7.189  -0.163   5.731  0.0340 -0.2971  0.4258
  551MOL0     H74366   7.296  -0.078   5.526 -1.3964  0.9064 -0.1265
  551MOL0     H74367   7.715   0.205   5.433  0.9710 -3.0773 -0.9278
  551MOL0     H74368   7.859   0.284   5.270 -0.8500  5.0104  4.8964
  551MOL0     H74369   8.145   0.937   4.177  0.8792  2.8463  0.8232
  551MOL0     H74370   8.081   0.940   4.409 -1.7802 -2.7552 -3.0636
  551MOL0     H74371   8.216   0.710   4.865 -2.2247 -0.4124 -1.6621
  551MOL0     H74372   8.113   0.719   5.085 -3.9213  1.5544  0.2413
  551MOL0     H74373   7.886   1.036   5.277  0.4602  1.4092 -1.4101
  551MOL0     H74374   8.036   1.123   5.260  3.0373 -2.8723 -3.9449
  551MOL0     H74375   7.964   0.941   5.498 -1.4257  0.0565 -0.5430
  551MOL0     H74376   7.987   1.115   5.492 -0.2525  0.5146 -2.4764
  551MOL0     H74377   8.228   1.108   5.494 -0.5166  0.8587  4.9407
  551MOL0     H74378   8.223   0.950   5.414 -0.3641 -1.6786  1.5398
  551MOL0     H74379   8.192   1.053   5.694  3.3273  0.1612 -2.2158
  551MOL0     H74380   8.082   0.916   5.656 -0.3887 -0.8243 -1.6561
  551MOL0     H74381   8.485   0.738   5.693  3.5536  0.5711 -5.4305
  551MOL0     H74382   8.117   1.141   5.081  0.2774  0.4218 -0.1596
  551MOL0     H74383   8.098   1.242   4.868  0.5393 -0.1319  1.7880
  551MOL0     H74384   8.271   1.255   4.905 -0.7308  1.8587 -0.2292
  551MOL0     H74385   8.231   1.201   4.749 -1.2411 -0.5403 -0.7805
  552MOL0     O74386   4.105   8.894   6.420  1.4230 -0.2896 -0.5170
  552MOL0     C74387   4.216   8.932   6.392 -0.0556  1.1253  1.1589
  552MOL0     O74388   4.327   8.880   6.448  0.4048  0.4582 -0.0917
  552MOL0     C74389   4.305   8.786   6.548 -1.0892 -0.4548  0.1131
  552MOL0     C74390   4.340   8.653   6.527  0.1947  0.2982  1.2428
  552MOL0     C74391   4.306   8.553   6.623  0.2716  0.9953  0.0895
  552MOL0     C74392   4.237   8.586   6.742 -0.0566  0.4564  0.0517
  552MOL0     O74393   4.203   8.501   6.842  0.2531  0.3468 -0.5711
  552MOL0     C74394   4.178   8.359   6.816  0.0578  0.5010  0.6444
  552MOL0     C74395   4.074   8.316   6.916  0.2126  0.3023 -0.8868
  552MOL0     C74396   4.121   8.344   7.063 -0.3866 -0.1067 -0.0130
  552MOL0     C74397   4.023   8.294   7.168 -0.5441 -0.4651  0.1511
  552MOL0     C74398   4.064   8.333   7.313  0.4699 -0.3731 -0.7844
  552MOL0     C74399   3.951   8.306   7.417 -0.4130 -0.7816  0.4237
  552MOL0     C74400   3.944   8.157   7.450  0.4480  1.2729 -1.2438
  552MOL0     C74401   3.805   8.094   7.407 -0.7761  0.9389  0.7723
  552MOL0     N74402   3.781   7.976   7.503 -0.1811 -0.1174 -0.1868
  552MOL0     C74403   3.859   7.869   7.515 -0.5338 -0.1862  0.3896
  552MOL0     C74404   3.808   7.803   7.611 -0.1053  0.2164 -0.3859
  552MOL0     C74405   3.859   7.677   7.666  1.3035  0.1861  0.1524
  552MOL0     C74406   3.969   7.609   7.571  0.6896 -1.0727 -0.0186
  552MOL0     C74407   3.978   7.464   7.619  0.8972 -0.7045  0.3132
  552MOL0     C74408   4.083   7.390   7.533  0.3231 -1.6052 -0.5084
  552MOL0     O74409   4.214   7.447   7.561  0.3858 -0.3083  0.5569
  552MOL0     C74410   4.318   7.407   7.476  0.1102  0.3858 -0.1991
  552MOL0     C74411   4.313   7.452   7.347  0.2797 -0.8664  0.0264
  552MOL0     C74412   4.406   7.410   7.255  0.2359 -0.7454  0.4947
  552MOL0     C74413   4.519   7.333   7.286  0.3037 -0.8615  0.2605
  552MOL0     C74414   4.632   7.333   7.194  0.9115 -0.9592  0.4465
  552MOL0     O74415   4.623   7.416   7.092  0.3796  0.1566 -0.7107
  552MOL0     C74416   4.722   7.430   7.004 -0.0476 -0.0452  0.2326
  552MOL0     C74417   4.804   7.544   6.996 -0.5011 -0.0766  0.2864
  552MOL0     C74418   4.897   7.566   6.880  0.1262 -0.1939 -0.8456
  552MOL0     C74419   4.895   7.473   6.777  0.1260  1.0629  0.4378
  552MOL0     O74420   4.968   7.475   6.660  0.9786  0.1136  0.4773
  552MOL0     C74421   5.015   7.605   6.614 -0.6402  0.1761 -0.7198
  552MOL0     C74422   5.027   7.621   6.473  0.0146 -0.2983  0.1929
  552MOL0     C74423   5.090   7.497   6.406  0.2089  0.0473 -0.3830
  552MOL0     C74424   5.126   7.521   6.264 -0.9660  0.7685  0.5514
  552MOL0     C74425   5.218   7.407   6.219 -0.1770 -0.4258  0.3036
  552MOL0     C74426   5.257   7.436   6.074  0.2862 -0.2654 -0.0476
  552MOL0     C74427   5.329   7.321   6.007  0.9206  0.0123 -0.9728
  552MOL0     C74428   5.326   7.333   5.853 -0.0323  1.7459 -0.2253
  552MOL0    Cl74429   5.375   7.494   5.781 -0.3431 -0.0844 -0.0357
  552MOL0     C74430   4.809   7.364   6.794 -0.2909  0.0769  0.9869
  552MOL0     C74431   4.733   7.335   6.906  0.3664 -0.3103  1.1163
  552MOL0     O74432   4.738   7.275   7.232 -0.3958 -0.3958  0.2258
  552MOL0     C74433   4.525   7.281   7.422 -0.8562 -0.0659  0.0090
  552MOL0     C74434   4.418   7.316   7.513  0.0979  0.5056 -0.5012
  552MOL0     N74435   3.696   7.859   7.666 -0.0354 -0.0403  0.4799
  552MOL0     N74436   3.677   7.966   7.593  0.7030 -0.4949  0.0630
  552MOL0     C74437   4.217   8.720   6.762  0.4305 -0.2317 -0.7045
  552MOL0     C74438   4.261   8.816   6.670  0.2368  0.7748 -0.3847
  552MOL0     C74439   4.243   9.059   6.325  0.9322 -0.9531  0.3928
  552MOL0     C74440   4.346   9.141   6.368 -0.0097  0.6197  0.2924
  552MOL0     C74441   4.376   9.254   6.308  0.1140 -0.2657  0.4192
  552MOL0     C74442   4.308   9.308   6.197 -0.9813 -0.8933 -0.5679
  552MOL0     O74443   4.348   9.421   6.137 -0.0808 -0.0384  0.2218
  552MOL0     C74444   4.284   9.531   6.196 -0.2762  0.5457  0.4516
  552MOL0     C74445   4.359   9.662   6.153  0.6118 -0.2083 -0.3624
  552MOL0     C74446   4.256   9.775   6.158 -0.2395 -0.6252  0.0554
  552MOL0     C74447   4.319   9.898   6.093  0.1012 -0.1327  0.4272
  552MOL0     C74448   4.340   9.890   5.949 -0.0856  0.2555  0.5692
  552MOL0     C74449   4.327   9.881   5.827 -0.0597 -0.1759  0.3967
  552MOL0     C74450   4.206   9.235   6.152  0.3471  0.1390  0.1734
  552MOL0     C74451   4.176   9.105   6.206  0.1779  0.5873  0.2833
  552MOL0     C74452   4.088   9.016   6.130 -0.9222 -0.6987 -0.1868
  552MOL0     H74453   4.388   8.624   6.434 -2.6498 -0.7564 -0.0114
  552MOL0     H74454   4.338   8.449   6.617  2.3056  1.5277  0.9393
  552MOL0     H74455   4.147   8.349   6.711  0.2197  2.6303  0.3360
  552MOL0     H74456   4.274   8.307   6.823 -0.0098  0.5443  2.2844
  552MOL0     H74457   4.031   8.216   6.906 -3.7910  1.2101  3.6499
  552MOL0     H74458   3.993   8.389   6.909  1.0837  1.2111 -2.0208
  552MOL0     H74459   4.136   8.452   7.077  2.0893 -0.6197  2.0977
  552MOL0     H74460   4.218   8.293   7.072 -1.2740 -1.5716  2.0112
  552MOL0     H74461   3.923   8.334   7.148 -1.1424 -2.8198 -2.1275
  552MOL0     H74462   4.017   8.186   7.184  1.7240 -0.4457  1.5907
  552MOL0     H74463   4.160   8.283   7.331  2.6014  3.6686  0.2103
  552MOL0     H74464   4.078   8.441   7.316 -0.0647 -0.2701 -1.5834
  552MOL0     H74465   3.980   8.367   7.504 -3.8838  2.5119 -0.4061
  552MOL0     H74466   3.850   8.343   7.394 -0.5075 -0.9241  0.6033
  552MOL0     H74467   3.938   8.143   7.559 -0.0731  1.6400 -1.2168
  552MOL0     H74468   4.011   8.085   7.403 -1.0460 -1.1493  0.1123
  552MOL0     H74469   3.720   8.162   7.401 -1.9120 -0.5904 -2.8622
  552MOL0     H74470   3.824   8.056   7.307 -0.0266  3.1945  0.0146
  552MOL0     H74471   3.952   7.846   7.463 -0.7683 -0.7367  0.2079
  552MOL0     H74472   3.909   7.711   7.757 -1.0992 -3.0466  2.8843
  552MOL0     H74473   3.777   7.607   7.680  1.1878 -0.7552 -3.8516
  552MOL0     H74474   3.934   7.613   7.467  2.1751 -2.6490 -0.6185
  552MOL0     H74475   4.064   7.663   7.567  0.9989 -1.6224 -0.2477
  552MOL0     H74476   3.882   7.416   7.597  2.7623 -4.3543 -0.8061
  552MOL0     H74477   4.003   7.454   7.725 -0.9189 -2.5748  0.6281
  552MOL0     H74478   4.055   7.413   7.430 -2.1601  1.7614  0.7335
  552MOL0     H74479   4.084   7.283   7.557  1.7778 -0.7824  4.3396
  552MOL0     H74480   4.242   7.526   7.313 -0.5643 -0.8910  1.6305
  552MOL0     H74481   4.381   7.445   7.155 -0.6766 -1.7067  0.3591
  552MOL0     H74482   4.820   7.607   7.083  6.3001 -2.8832  1.7409
  552MOL0     H74483   4.981   7.635   6.886  1.7622 -2.0920 -0.7395
  552MOL0     H74484   4.963   7.692   6.655  0.0009 -0.0254  0.5669
  552MOL0     H74485   5.112   7.620   6.662 -0.6458  1.3711 -1.0275
  552MOL0     H74486   4.930   7.643   6.428  1.2976 -1.1095 -3.3086
  552MOL0     H74487   5.081   7.714   6.454 -2.9984  1.6137  0.2873
  552MOL0     H74488   5.183   7.470   6.458  0.1789 -0.2740 -0.4955
  552MOL0     H74489   5.018   7.416   6.418 -2.4081  2.4554  1.6891
  552MOL0     H74490   5.168   7.621   6.254 -0.7717  0.8640  2.0451
  552MOL0     H74491   5.037   7.518   6.202  1.1459  1.8440 -2.7617
  552MOL0     H74492   5.153   7.320   6.210 -2.5433  1.3354 -0.5704
  552MOL0     H74493   5.300   7.388   6.289 -3.1255 -4.0839  3.1621
  552MOL0     H74494   5.161   7.450   6.024  0.2933 -2.0020 -0.6067
  552MOL0     H74495   5.309   7.533   6.079 -1.6016  0.7337  2.4970
  552MOL0     H74496   5.277   7.227   6.028  0.5070  0.7310  1.4859
  552MOL0     H74497   5.433   7.325   6.039  0.3794 -1.6127  1.2398
  552MOL0     H74498   5.395   7.261   5.808 -0.2312  0.9230  0.7423
  552MOL0     H74499   5.227   7.300   5.823 -0.4956  1.7479  1.2027
  552MOL0     H74500   4.805   7.287   6.718 -2.1180 -1.9146  2.9403
  552MOL0     H74501   4.671   7.246   6.899 -0.2524  0.1447  0.6592
  552MOL0     H74502   4.601   7.206   7.438 -0.2310  0.9815  2.2943
  552MOL0     H74503   4.408   7.271   7.611 -0.4158 -0.8848 -1.1640
  552MOL0     H74504   4.175   8.761   6.854  0.1337  4.7588 -2.7332
  552MOL0     H74505   4.243   8.922   6.679 -2.4069  0.3980 -0.6358
  552MOL0     H74506   4.401   9.117   6.458 -0.2792 -1.2439  0.0007
  552MOL0     H74507   4.466   9.305   6.343  3.4818 -5.0742 -0.2448
  552MOL0     H74508   4.305   9.538   6.303  0.5604 -0.0537  0.3353
  552MOL0     H74509   4.176   9.521   6.182  0.0469  0.0794 -2.3931
  552MOL0     H74510   4.398   9.640   6.053  0.0631 -2.4703 -0.1401
  552MOL0     H74511   4.442   9.682   6.220  0.8324 -0.1615 -0.6490
  552MOL0     H74512   4.220   9.808   6.255  1.9179 -1.7786  1.3190
  552MOL0     H74513   4.168   9.745   6.100 -0.7645  3.5688 -1.6883
  552MOL0     H74514   4.245   9.978   6.103 -0.0799 -0.2478  0.0268
  552MOL0     H74515   4.411   9.921   6.147  1.1760 -1.7105 -0.6378
  552MOL0     H74516   4.304   9.872   5.723  4.1197 -1.0648 -0.6165
  552MOL0     H74517   4.163   9.271   6.059  0.9571  2.4444  0.7206
  552MOL0     H74518   4.016   8.970   6.199  3.1007 -1.0834  4.3637
  552MOL0     H74519   4.023   9.058   6.053 -0.3282 -3.4572 -2.3505
  552MOL0     H74520   4.144   8.937   6.078 -0.1848  0.7150 -1.6241
  553MOL0     O74521   9.857   2.343   3.590  0.3660 -0.0416  0.3555
  553MOL0     C74522   9.939   2.296   3.514 -0.3894 -0.6082  0.1933
  553MOL0     O74523  10.069   2.279   3.544  0.7404 -0.3831 -0.0842
  553MOL0     C74524  10.122   2.349   3.652  1.1670  0.3778 -1.3109
  553MOL0     C74525  10.140   2.489   3.639 -0.4043  0.7314 -0.0896
  553MOL0     C74526  10.218   2.548   3.737 -0.1257 -0.1186  0.3634
  553MOL0     C74527  10.268   2.481   3.845 -0.2235  0.2668  0.5648
  553MOL0     O74528  10.355   2.553   3.919  0.1530 -0.6749 -0.8385
  553MOL0     C74529  10.359   2.533   4.057  0.9838  0.7021 -0.3656
  553MOL0     C74530  10.431   2.635   4.147  0.2486 -0.1573  0.0326
  553MOL0     C74531  10.513   2.566   4.266 -0.0019 -1.2068 -0.5555
  553MOL0     C74532  10.414   2.513   4.376  0.3114  0.6906 -0.9497
  553MOL0     C74533  10.496   2.407   4.462  0.1611 -0.9602 -0.2185
  553MOL0     C74534  10.423   2.366   4.585 -0.3173  0.4622 -0.7482
  553MOL0     C74535  10.488   2.253   4.659 -0.0926 -0.2327  0.2496
  553MOL0     C74536  10.400   2.209   4.767  1.1723  0.2617 -0.9115
  553MOL0     N74537  10.491   2.152   4.869 -0.0419 -0.0563 -0.4506
  553MOL0     C74538  10.522   2.016   4.867 -0.3872 -0.1947  0.1157
  553MOL0     C74539  10.624   1.986   4.952  0.2114  0.3161  0.1678
  553MOL0     C74540  10.682   1.850   4.968 -0.1035 -0.1402 -0.5150
  553MOL0     C74541  10.737   1.782   4.847  0.6648  0.6632 -0.2548
  553MOL0     C74542  10.868   1.839   4.791  0.2879 -0.3790  0.0235
  553MOL0     C74543  10.872   1.979   4.736 -0.6110 -1.4052 -0.0631
  553MOL0     O74544  10.773   2.012   4.630 -0.5940 -0.1264  0.3072
  553MOL0     C74545  10.795   2.113   4.540 -0.4209  0.1195 -0.0080
  553MOL0     C74546  10.826   2.248   4.582 -0.0963  0.7867 -0.2095
  553MOL0     C74547  10.850   2.342   4.487 -0.4517 -1.1162 -0.4922
  553MOL0     C74548  10.817   2.324   4.353 -0.5101 -0.1232 -0.0206
  553MOL0     C74549  10.839   2.428   4.260 -0.5385 -1.2543 -0.4457
  553MOL0     O74550  10.929   2.524   4.292  0.0128 -0.3698 -0.1484
  553MOL0     C74551  10.955   2.621   4.200  0.4544 -0.0931 -0.6030
  553MOL0     C74552  10.874   2.690   4.107 -0.0947  0.7030 -0.0392
  553MOL0     C74553  10.922   2.805   4.042 -0.2729  0.8721 -1.0210
  553MOL0     C74554  11.057   2.845   4.066  0.8274 -0.5185  0.0992
  553MOL0     O74555  11.081   2.964   4.009 -1.1005 -0.2129 -0.1682
  553MOL0     C74556  11.224   3.009   3.998 -0.0049 -0.2115 -0.8804
  553MOL0     C74557  11.228   3.150   3.930 -0.2757  0.1896  0.5247
  553MOL0     C74558  11.118   3.252   3.983  0.8042 -0.4370  0.0166
  553MOL0     C74559  11.163   3.399   3.962 -0.2361 -1.0580 -0.2594
  553MOL0     C74560  11.062   3.489   4.011 -0.3388  0.3284 -0.0841
  553MOL0     C74561  11.096   3.644   4.004  0.6473  0.6900 -0.3905
  553MOL0     C74562  10.965   3.718   4.027 -0.5664  0.1602 -1.0398
  553MOL0     C74563  10.866   3.724   3.909  0.3165 -0.6617 -0.1430
  553MOL0    Cl74564  10.906   3.842   3.787 -0.4281 -0.4826  0.0587
  553MOL0     C74565  11.141   2.782   4.164  0.8435  0.5090  0.5044
  553MOL0     C74566  11.088   2.670   4.231  0.1877  0.0823 -0.0924
  553MOL0     O74567  10.787   2.409   4.145  0.1123 -0.2104 -0.6466
  553MOL0     C74568  10.776   2.193   4.313 -0.8761  1.0311 -0.8043
  553MOL0     C74569  10.761   2.092   4.404 -0.3527  0.4026  0.0241
  553MOL0     N74570  10.671   2.105   4.996 -0.3743 -0.0218  0.8368
  553MOL0     N74571  10.595   2.209   4.949 -0.4474 -0.7091 -0.3423
  553MOL0     C74572  10.234   2.350   3.864 -0.8012 -0.2552 -0.0603
  553MOL0     C74573  10.167   2.282   3.762 -0.1789  0.9280  0.2371
  553MOL0     C74574   9.888   2.236   3.394 -0.0608  1.5970  0.5726
  553MOL0     C74575   9.958   2.123   3.350 -0.9215  1.4363 -0.4020
  553MOL0     C74576   9.926   2.045   3.246  0.3184 -0.0500  0.2744
  553MOL0     C74577   9.815   2.082   3.173  0.5480 -0.1186  0.0645
  553MOL0     O74578   9.775   1.998   3.066  0.3300 -0.5007  0.3492
  553MOL0     C74579   9.822   2.051   2.940  0.4274  0.1853  0.1865
  553MOL0     C74580   9.797   1.954   2.823 -0.2476 -0.1597  0.2858
  553MOL0     C74581   9.656   1.911   2.798  0.5869 -0.3980  0.7598
  553MOL0     C74582   9.571   2.016   2.714 -0.0323 -0.1244 -0.0169
  553MOL0     C74583   9.531   2.142   2.779  0.1881  0.5703 -0.9715
  553MOL0     C74584   9.517   2.248   2.834 -0.0584 -0.0052  0.1720
  553MOL0     C74585   9.739   2.196   3.212  0.4806 -1.2764  0.5506
  553MOL0     C74586   9.770   2.277   3.324  0.4017  1.0431 -0.1985
  553MOL0     C74587   9.677   2.391   3.350  1.1250 -0.5760 -0.3849
  553MOL0     H74588  10.097   2.536   3.551 -3.1400 -0.1787  0.6484
  553MOL0     H74589  10.255   2.649   3.722 -1.6621  1.0050  3.3374
  553MOL0     H74590  10.251   2.531   4.078  0.3263  1.0664 -3.2798
  553MOL0     H74591  10.404   2.434   4.071 -0.5539  0.0602  0.3773
  553MOL0     H74592  10.363   2.716   4.172  0.3980 -0.5092  1.6477
  553MOL0     H74593  10.507   2.680   4.083 -1.0890 -1.2763 -2.5231
  553MOL0     H74594  10.570   2.648   4.310 -1.3847 -0.9646  0.9070
  553MOL0     H74595  10.576   2.485   4.227 -1.1781 -2.7731  0.6291
  553MOL0     H74596  10.366   2.591   4.436 -3.7440 -1.6811 -0.7548
  553MOL0     H74597  10.336   2.462   4.318 -0.7421 -2.0835  2.5680
  553MOL0     H74598  10.498   2.313   4.406  1.0704 -0.4716 -1.0206
  553MOL0     H74599  10.593   2.454   4.480  0.3007 -1.1755 -0.3998
  553MOL0     H74600  10.432   2.447   4.657  1.3094 -1.3802  1.2449
  553MOL0     H74601  10.320   2.337   4.561 -0.3917  1.7551 -2.1834
  553MOL0     H74602  10.589   2.287   4.685 -0.2496  0.9143 -0.6077
  553MOL0     H74603  10.511   2.174   4.587  2.6307 -0.0906  0.8642
  553MOL0     H74604  10.336   2.287   4.809  0.4144 -1.6486  1.7083
  553MOL0     H74605  10.334   2.135   4.720  0.7050 -1.1698  1.8053
  553MOL0     H74606  10.466   1.943   4.810 -1.1238 -0.0052  0.5961
  553MOL0     H74607  10.764   1.848   5.041 -0.9598 -5.4907  0.7632
  553MOL0     H74608  10.609   1.788   5.020 -4.5384  1.6443 -3.9783
  553MOL0     H74609  10.762   1.681   4.878 -1.4074  0.0147 -0.5373
  553MOL0     H74610  10.660   1.775   4.770  1.6520 -0.9809 -1.1524
  553MOL0     H74611  10.907   1.775   4.712  0.3235  1.1774 -1.2766
  553MOL0     H74612  10.931   1.840   4.880  1.8472  3.8664 -0.8602
  553MOL0     H74613  10.971   1.993   4.692 -0.5723  0.6443  0.5630
  553MOL0     H74614  10.866   2.038   4.827 -2.3467 -1.4348 -0.1379
  553MOL0     H74615  10.845   2.259   4.689  0.2701 -1.6560  0.0378
  553MOL0     H74616  10.885   2.444   4.499 -0.5091 -0.8834 -2.0962
  553MOL0     H74617  10.773   2.648   4.110  1.2123 -2.7710 -0.0823
  553MOL0     H74618  10.863   2.862   3.971  0.6258  1.9690 -0.9079
  553MOL0     H74619  11.274   3.027   4.093  0.3278 -1.2134 -0.8625
  553MOL0     H74620  11.265   2.934   3.929  0.5120  0.4656 -1.3281
  553MOL0     H74621  11.331   3.186   3.941  0.4017 -0.9820 -1.3606
  553MOL0     H74622  11.207   3.151   3.822  1.1233  1.6641  0.2258
  553MOL0     H74623  11.020   3.236   3.939  0.7415 -0.2430  0.0836
  553MOL0     H74624  11.106   3.226   4.089 -1.5214 -1.9925 -0.5587
  553MOL0     H74625  11.176   3.427   3.857 -4.2304  1.0017 -0.3912
  553MOL0     H74626  11.256   3.420   4.015 -0.9719  0.0511  0.6255
  553MOL0     H74627  11.057   3.469   4.118  1.5153  0.5297  0.0633
  553MOL0     H74628  10.965   3.463   3.968 -0.1486 -2.6572  1.0586
  553MOL0     H74629  11.160   3.675   4.087 -0.6642 -0.1434  0.9962
  553MOL0     H74630  11.132   3.679   3.907  0.9496  2.3081  0.2711
  553MOL0     H74631  10.984   3.817   4.068  0.2725 -0.6173  0.5472
  553MOL0     H74632  10.915   3.654   4.100  1.6523 -0.7140 -0.2066
  553MOL0     H74633  10.865   3.627   3.858  0.1736 -0.2384 -0.9704
  553MOL0     H74634  10.762   3.740   3.938  0.3017 -0.6143 -0.2209
  553MOL0     H74635  11.245   2.809   4.172  0.6107  2.6506 -2.1371
  553MOL0     H74636  11.140   2.622   4.313 -0.4765 -1.0863 -0.3240
  553MOL0     H74637  10.773   2.167   4.207 -0.7285  0.2781 -0.6293
  553MOL0     H74638  10.729   2.003   4.351 -0.3217  1.2084 -1.3965
  553MOL0     H74639  10.273   2.292   3.947  0.0599 -3.4310 -2.4561
  553MOL0     H74640  10.153   2.175   3.774  0.0597  0.3086 -3.7409
  553MOL0     H74641  10.055   2.093   3.389 -1.5868  0.5702  0.6355
  553MOL0     H74642   9.982   1.961   3.208  0.7182  1.2246 -2.1701
  553MOL0     H74643   9.931   2.056   2.944  0.3957  0.9685  0.2051
  553MOL0     H74644   9.786   2.151   2.918  2.8195  1.2419  0.7640
  553MOL0     H74645   9.854   1.864   2.847  1.4258  0.6157 -0.6061
  553MOL0     H74646   9.825   1.997   2.727 -0.1694  1.2404  0.8962
  553MOL0     H74647   9.596   1.894   2.888 -2.4437  1.1706 -0.7855
  553MOL0     H74648   9.661   1.814   2.746  2.1870  0.7654 -1.4440
  553MOL0     H74649   9.634   2.043   2.629  1.0450 -3.6503 -0.4878
  553MOL0     H74650   9.475   1.974   2.682 -1.9544  1.5839  2.9488
  553MOL0     H74651   9.484   2.339   2.881  1.9807  0.5936  0.5595
  553MOL0     H74652   9.643   2.214   3.164  0.8761  1.4882  0.6234
  553MOL0     H74653   9.730   2.477   3.391  1.3420  2.1413 -5.5789
  553MOL0     H74654   9.611   2.422   3.269 -0.1759  1.8345  1.4891
  553MOL0     H74655   9.607   2.357   3.427  1.5182  1.9157  1.1469
  554MOL0     O74656  11.070   0.406   6.742  0.4512 -0.1843 -0.5459
  554MOL0     C74657  11.145   0.455   6.820 -0.0192 -0.7036 -0.4280
  554MOL0     O74658  11.251   0.383   6.881 -0.7612  0.3190  0.0990
  554MOL0     C74659  11.255   0.248   6.848  0.0128 -0.0052  0.8352
  554MOL0     C74660  11.335   0.215   6.732 -0.4356  0.2831  0.2819
  554MOL0     C74661  11.371   0.087   6.695  0.0071 -0.8919 -0.1977
  554MOL0     C74662  11.319  -0.019   6.771 -0.0676  0.0561  1.2397
  554MOL0     O74663  11.342  -0.150   6.740 -0.4304 -1.5709  0.2547
  554MOL0     C74664  11.444  -0.189   6.641  0.3919 -0.3031  1.6120
  554MOL0     C74665  11.387  -0.181   6.501  0.9732  0.0358  0.1413
  554MOL0     C74666  11.244  -0.235   6.492  0.7235 -0.8257  0.5186
  554MOL0     C74667  11.179  -0.278   6.363  0.1887 -0.1861  0.8383
  554MOL0     C74668  11.213  -0.428   6.317 -0.0023 -0.3585  0.3959
  554MOL0     C74669  11.159  -0.454   6.180 -0.3974 -0.5189 -0.0802
  554MOL0     C74670  11.011  -0.438   6.149 -0.0194  0.1558 -0.4494
  554MOL0     C74671  10.937  -0.558   6.214 -0.8303 -0.3980  0.0568
  554MOL0     N74672  10.790  -0.551   6.191  0.1858 -0.4051 -0.2247
  554MOL0     C74673  10.704  -0.451   6.226  0.3659  0.0227 -0.3943
  554MOL0     C74674  10.592  -0.476   6.154 -0.7596 -0.1063  0.6857
  554MOL0     C74675  10.480  -0.382   6.138 -0.1783 -0.1321 -0.4201
  554MOL0     C74676  10.352  -0.454   6.176 -0.7715 -0.3964 -1.0094
  554MOL0     C74677  10.250  -0.366   6.239 -0.2694 -0.0007  0.0069
  554MOL0     C74678  10.288  -0.339   6.381 -0.4596 -0.4849  0.2186
  554MOL0     O74679  10.227  -0.215   6.408  0.5508 -0.8256  0.1206
  554MOL0     C74680  10.132  -0.190   6.506 -0.3151 -0.1637  0.3345
  554MOL0     C74681  10.149  -0.082   6.592 -0.8766  1.2342  0.9517
  554MOL0     C74682  10.058  -0.061   6.691  0.1438  0.0916  0.4724
  554MOL0     C74683   9.959  -0.150   6.722  0.0290  0.5276  0.0257
  554MOL0     C74684   9.852  -0.135   6.822  0.0745 -0.1980 -0.2918
  554MOL0     O74685   9.847  -0.012   6.883 -0.8267  0.3893 -0.4025
  554MOL0     C74686   9.743  -0.007   6.973  0.3636 -0.5238  0.7721
  554MOL0     C74687   9.604  -0.019   6.940  0.0931 -0.1370  0.7154
  554MOL0     C74688   9.508  -0.009   7.039 -0.2310 -0.2770  0.1868
  554MOL0     C74689   9.544   0.028   7.169  0.5125 -0.1678 -0.0483
  554MOL0     O74690   9.444   0.038   7.260 -0.2410 -0.6842  0.7605
  554MOL0     C74691   9.475   0.110   7.378  0.4137 -0.3392  0.4220
  554MOL0     C74692   9.358   0.112   7.473  0.8599  0.1165  0.1944
  554MOL0     C74693   9.236   0.193   7.403  0.2528 -0.0890 -0.6269
  554MOL0     C74694   9.112   0.218   7.485  0.8964  0.7818  0.7626
  554MOL0     C74695   9.014   0.093   7.500 -0.1632  0.4549 -0.2356
  554MOL0     C74696   8.892   0.149   7.579 -0.5593  0.8849  0.0368
  554MOL0     C74697   8.799   0.032   7.615 -0.5019  0.0178  0.2707
  554MOL0     C74698   8.654   0.088   7.640 -0.3841  0.1471  0.0989
  554MOL0    Cl74699   8.669   0.243   7.724  0.4594  0.0072  0.0005
  554MOL0     C74700   9.679   0.052   7.198 -0.1755 -0.7189  0.3380
  554MOL0     C74701   9.779   0.022   7.099  0.3909 -0.8837  0.0927
  554MOL0     O74702   9.770  -0.224   6.839  0.1727  0.4122  0.5066
  554MOL0     C74703   9.939  -0.262   6.634  0.8958  0.2307 -0.1613
  554MOL0     C74704  10.032  -0.285   6.536  0.4889  0.0917  0.3688
  554MOL0     N74705  10.601  -0.600   6.087 -0.2918  0.4226  0.4821
  554MOL0     N74706  10.726  -0.645   6.108  0.0633  0.1517  0.2567
  554MOL0     C74707  11.228   0.012   6.874  0.0676 -0.4182  0.2068
  554MOL0     C74708  11.200   0.143   6.919  0.8197  0.3350 -0.2128
  554MOL0     C74709  11.127   0.602   6.846  0.4864  0.7350 -0.0508
  554MOL0     C74710  11.192   0.646   6.958  0.8119 -0.8879 -0.8100
  554MOL0     C74711  11.186   0.786   6.994  0.5244  0.5219  0.0668
  554MOL0     C74712  11.127   0.885   6.919 -0.9672  2.0469  0.3978
  554MOL0     O74713  11.120   1.015   6.962  0.4077  0.3518 -0.4989
  554MOL0     C74714  11.050   1.123   6.886 -0.5105 -0.1113 -0.9124
  554MOL0     C74715  11.156   1.238   6.852 -0.1282  0.9846  0.4914
  554MOL0     C74716  11.128   1.338   6.741  0.9611  0.8329 -0.7158
  554MOL0     C74717  11.022   1.450   6.769  0.3795  0.4270 -0.2748
  554MOL0     C74718  11.016   1.562   6.662 -0.0107  0.6274 -0.6807
  554MOL0     C74719  11.026   1.653   6.586 -0.7491 -0.4640 -0.5551
  554MOL0     C74720  11.062   0.835   6.808  0.4711  0.5150 -0.1875
  554MOL0     C74721  11.055   0.695   6.763 -1.5891  1.0366 -0.1231
  554MOL0     C74722  10.982   0.660   6.636 -0.0115 -1.4530  0.2799
  554MOL0     H74723  11.368   0.298   6.670  1.2314 -1.9640 -2.0752
  554MOL0     H74724  11.421   0.072   6.600 -1.9926  2.3259 -1.9269
  554MOL0     H74725  11.541  -0.142   6.660  1.1364 -0.8432 -0.5666
  554MOL0     H74726  11.460  -0.295   6.659 -2.1428 -0.9901  0.3646
  554MOL0     H74727  11.446  -0.239   6.429  0.9927  1.3569 -0.9431
  554MOL0     H74728  11.396  -0.076   6.471  1.1636 -0.2550 -0.8741
  554MOL0     H74729  11.174  -0.157   6.521 -0.3452  0.2906 -4.1887
  554MOL0     H74730  11.250  -0.321   6.559 -1.8598 -0.6945  1.0346
  554MOL0     H74731  11.071  -0.262   6.365 -0.5981 -3.5598 -2.5674
  554MOL0     H74732  11.204  -0.209   6.281 -1.1904 -0.8263 -0.1654
  554MOL0     H74733  11.320  -0.445   6.327  0.5817  3.1846  1.5343
  554MOL0     H74734  11.159  -0.494   6.387 -4.2465  1.5555 -0.7311
  554MOL0     H74735  11.212  -0.397   6.103 -3.7170 -1.3763 -3.3040
  554MOL0     H74736  11.180  -0.560   6.160 -4.2771 -1.8102  1.5535
  554MOL0     H74737  10.994  -0.455   6.042 -0.5069  1.6789 -0.6444
  554MOL0     H74738  10.965  -0.345   6.183 -0.2173  0.1282 -0.6386
  554MOL0     H74739  10.967  -0.655   6.174  1.8038 -0.3797  1.7563
  554MOL0     H74740  10.960  -0.557   6.321 -1.3014  0.0714  0.1585
  554MOL0     H74741  10.715  -0.361   6.286 -1.1008 -0.5876  0.8494
  554MOL0     H74742  10.498  -0.291   6.195 -0.6646 -0.5952  0.5107
  554MOL0     H74743  10.462  -0.360   6.033  1.7641 -1.7956 -1.1755
  554MOL0     H74744  10.311  -0.496   6.084 -2.4182  3.6788 -2.3657
  554MOL0     H74745  10.381  -0.534   6.245 -1.9835  0.0288  0.0315
  554MOL0     H74746  10.159  -0.427   6.239  1.8511 -3.4320  1.6999
  554MOL0     H74747  10.243  -0.270   6.187 -1.4261  1.5258  2.8000
  554MOL0     H74748  10.394  -0.329   6.407 -0.5912  1.4093  0.1286
  554MOL0     H74749  10.255  -0.421   6.446  0.3995  0.1144  1.4450
  554MOL0     H74750  10.236  -0.018   6.579  1.4354 -1.7879  0.5796
  554MOL0     H74751  10.054   0.033   6.746 -3.7318 -0.1481  0.8288
  554MOL0     H74752   9.577  -0.047   6.839  2.1162 -1.0455  0.3760
  554MOL0     H74753   9.405  -0.018   7.007  0.2018  3.7917 -3.0686
  554MOL0     H74754   9.549   0.057   7.439  2.4737  0.1203 -1.5246
  554MOL0     H74755   9.510   0.209   7.345  1.1355 -0.9210 -0.6292
  554MOL0     H74756   9.316   0.017   7.506  0.9955 -0.1642 -0.4288
  554MOL0     H74757   9.390   0.172   7.558  1.7605  1.1710 -0.8432
  554MOL0     H74758   9.288   0.289   7.395 -0.1810  0.2200  0.2333
  554MOL0     H74759   9.213   0.172   7.298 -1.2917  1.0476 -0.5538
  554MOL0     H74760   9.042   0.295   7.451 -1.6425 -1.7851 -0.2278
  554MOL0     H74761   9.139   0.240   7.589 -0.8954 -1.5280  1.8291
  554MOL0     H74762   9.067   0.020   7.562 -0.9481 -1.6311 -1.8833
  554MOL0     H74763   8.976   0.048   7.408  1.1160 -2.3937  0.5104
  554MOL0     H74764   8.918   0.205   7.669 -2.1006 -0.3968  1.3498
  554MOL0     H74765   8.832   0.210   7.512 -1.0476 -1.9177 -2.2675
  554MOL0     H74766   8.837  -0.025   7.701  1.1662 -0.2432 -0.5869
  554MOL0     H74767   8.795  -0.045   7.538  0.3919  0.1570  0.0770
  554MOL0     H74768   8.610   0.118   7.544 -1.3168  1.6690  0.9473
  554MOL0     H74769   8.586   0.016   7.687 -0.8762 -0.4596 -1.5041
  554MOL0     H74770   9.707   0.084   7.298 -0.2499 -1.9776  0.7803
  554MOL0     H74771   9.883   0.045   7.116  0.2551  0.4903 -0.7282
  554MOL0     H74772   9.866  -0.339   6.658  0.4723  1.2322  2.0353
  554MOL0     H74773  10.017  -0.371   6.472 -2.6947 -0.8355  2.1310
  554MOL0     H74774  11.180  -0.071   6.925  2.4122 -1.4238  0.9317
  554MOL0     H74775  11.149   0.163   7.013 -0.0572  0.7381 -0.7598
  554MOL0     H74776  11.250   0.592   7.032  2.5887  2.7492  0.6972
  554MOL0     H74777  11.238   0.814   7.085  1.1052  2.3994 -0.7849
  554MOL0     H74778  10.977   1.172   6.951 -1.3794  1.5572 -3.0178
  554MOL0     H74779  10.996   1.083   6.799  1.2264 -1.1413 -1.5754
  554MOL0     H74780  11.249   1.183   6.836 -0.8767  0.0872 -1.0523
  554MOL0     H74781  11.161   1.288   6.949 -1.9119  2.1944  0.0124
  554MOL0     H74782  11.097   1.288   6.648 -0.3747 -1.9306  1.0755
  554MOL0     H74783  11.222   1.390   6.721  1.7849 -1.0827 -2.1782
  554MOL0     H74784  10.923   1.404   6.773  1.1088 -1.1454  1.2979
  554MOL0     H74785  11.041   1.494   6.868 -2.5395  0.0718  0.5374
  554MOL0     H74786  11.041   1.726   6.509  0.0698  0.8243  0.7572
  554MOL0     H74787  11.016   0.903   6.737 -0.8580  0.8367  0.9377
  554MOL0     H74788  10.885   0.611   6.646 -1.7693  2.1253  2.8943
  554MOL0     H74789  10.952   0.755   6.592  2.2234 -0.2923  1.0792
  554MOL0     H74790  11.042   0.608   6.560  0.7276  1.7570 -1.5215
  555MOL0     O74791  11.190  10.918   5.910 -0.1565  0.5115 -0.6491
  555MOL0     C74792  11.236  10.858   5.819 -0.0386  0.2537  0.9977
  555MOL0     O74793  11.217  10.720   5.792 -0.1607  0.3218 -1.1251
  555MOL0     C74794  11.099  10.663   5.831 -1.1330  0.0048 -0.2117
  555MOL0     C74795  11.099  10.525   5.814  0.1680 -0.6737 -0.7364
  555MOL0     C74796  10.991  10.452   5.841 -0.2590  0.6756  0.6772
  555MOL0     C74797  10.868  10.500   5.882 -0.5175 -0.3083 -0.1536
  555MOL0     O74798  10.757  10.424   5.910 -0.2991 -0.6153  0.0787
  555MOL0     C74799  10.635  10.452   5.829  0.2125 -0.0855 -0.2138
  555MOL0     C74800  10.523  10.527   5.907  0.9031 -0.9741  0.0179
  555MOL0     C74801  10.421  10.451   6.000  0.0213 -0.3998 -0.3300
  555MOL0     C74802  10.345  10.563   6.073 -0.1069 -0.3786  0.4262
  555MOL0     C74803  10.199  10.573   6.026  0.1146  0.1292  0.4724
  555MOL0     C74804  10.115  10.680   6.091  1.0629 -0.1053 -0.9358
  555MOL0     C74805  10.139  10.705   6.245 -0.5263 -0.2593 -0.1101
  555MOL0     C74806  10.068  10.828   6.286  0.0299 -0.7032 -0.3969
  555MOL0     N74807  10.079  10.849   6.435 -0.5299 -0.2140 -0.1850
  555MOL0     C74808   9.981  10.838   6.528 -0.1997  0.0806  1.8787
  555MOL0     C74809  10.040  10.875   6.644  0.3111  0.2147  0.6678
  555MOL0     C74810   9.979  10.869   6.783  0.4973 -1.1610  0.8035
  555MOL0     C74811   9.937  11.002   6.829 -0.0040  0.0181 -0.7631
  555MOL0     C74812   9.934  11.002   6.989  0.2949  0.1994  0.1895
  555MOL0     C74813   9.812  10.923   7.035 -0.8997 -0.3593  0.0624
  555MOL0     O74814   9.823  10.893   7.182  0.5427 -0.1246 -0.3296
  555MOL0     C74815   9.882  10.775   7.223  0.6544 -0.6781 -0.1550
  555MOL0     C74816   9.930  10.677   7.141  0.2188  0.4894  0.3763
  555MOL0     C74817   9.991  10.566   7.194 -0.9990 -0.4420  0.2074
  555MOL0     C74818  10.016  10.543   7.334  0.9109 -1.6545  0.7489
  555MOL0     C74819  10.078  10.420   7.389  0.7150  1.0195 -0.4418
  555MOL0     O74820  10.123  10.420   7.514  0.2870  0.7250  0.7556
  555MOL0     C74821  10.172  10.309   7.579 -0.5166  0.1037 -0.0510
  555MOL0     C74822  10.250  10.337   7.690 -0.3739 -0.0012 -0.0478
  555MOL0     C74823  10.309  10.234   7.772 -0.7428  0.2922  0.3500
  555MOL0     C74824  10.285  10.107   7.738 -0.5468  0.1383 -0.4084
  555MOL0     O74825  10.349   9.999   7.799 -0.0075 -0.1261  0.2047
  555MOL0     C74826  10.391  10.001   7.931  0.2420 -0.5273  0.3652
  555MOL0     C74827  10.404   9.857   7.971 -0.3246 -0.1349 -0.7534
  555MOL0     C74828  10.383   9.826   8.119 -0.2989  0.3742 -0.6615
  555MOL0     C74829  10.425   9.684   8.149 -0.3266  0.7732  0.3489
  555MOL0     C74830  10.448   9.650   8.301  0.6143 -0.4970  0.1026
  555MOL0     C74831  10.335   9.678   8.394  0.2893  0.5886 -0.3928
  555MOL0     C74832  10.348   9.582   8.510  0.7071  0.6270  0.1387
  555MOL0     C74833  10.213   9.554   8.571 -0.2265  0.6004 -0.2515
  555MOL0    Cl74834  10.098   9.460   8.464  0.0487 -0.0908  0.0474
  555MOL0     C74835  10.204  10.074   7.634  0.1820 -0.3554 -0.7853
  555MOL0     C74836  10.144  10.175   7.549  0.8410 -0.4263  0.4431
  555MOL0     O74837  10.094  10.329   7.304 -0.3642 -0.0714  0.2305
  555MOL0     C74838   9.972  10.649   7.417 -0.4911 -0.0524 -0.7439
  555MOL0     C74839   9.904  10.761   7.361 -0.8605 -0.3656 -0.0587
  555MOL0     N74840  10.165  10.912   6.625 -0.5292  0.2714  0.4396
  555MOL0     N74841  10.191  10.881   6.500 -0.6278  0.1265 -0.1641
  555MOL0     C74842  10.863  10.636   5.909 -0.2753 -0.7394 -0.5746
  555MOL0     C74843  10.980  10.717   5.888 -0.2191  0.0066 -0.2724
  555MOL0     C74844  11.333  10.922   5.720  0.2701  0.7016 -0.3579
  555MOL0     C74845  11.392  10.844   5.611  0.1955  0.2340  0.6263
  555MOL0     C74846  11.480  10.902   5.522  0.3743 -0.5814 -0.4820
  555MOL0     C74847  11.524  11.038   5.539 -0.2301 -0.1733  0.3991
  555MOL0     O74848  11.607  11.078   5.441 -0.5311 -0.9004 -0.0449
  555MOL0     C74849  11.737  11.113   5.486 -0.1776  0.8551 -0.8857
  555MOL0     C74850  11.841  11.052   5.386  0.2269 -0.4783  0.1613
  555MOL0     C74851  11.981  11.106   5.407 -0.5538  0.2740  0.7107
  555MOL0     C74852  12.005  11.239   5.344 -0.7878 -0.7603 -0.0993
  555MOL0     C74853  12.128  11.301   5.405 -0.0531 -0.0694  0.0994
  555MOL0     C74854  12.223  11.369   5.439  0.3872 -0.1541  0.5136
  555MOL0     C74855  11.468  11.116   5.636 -0.1581  0.3802 -0.6135
  555MOL0     C74856  11.381  11.053   5.731 -0.0806 -0.9806 -0.6708
  555MOL0     C74857  11.361  11.136   5.855  0.3013 -0.1842  0.1488
  555MOL0     H74858  11.185  10.477   5.768  1.9656 -0.9395  2.5934
  555MOL0     H74859  10.988  10.353   5.796  2.3914  0.7854  0.1028
  555MOL0     H74860  10.662  10.515   5.744 -1.4886 -0.8583 -1.3705
  555MOL0     H74861  10.594  10.354   5.805 -0.2491 -0.9920  3.5909
  555MOL0     H74862  10.467  10.579   5.829 -0.3821 -0.4067  1.2668
  555MOL0     H74863  10.565  10.608   5.967 -0.7187  0.9787 -1.3518
  555MOL0     H74864  10.470  10.401   6.084 -1.8207  1.4012  1.9206
  555MOL0     H74865  10.358  10.387   5.937  1.7114 -2.5217 -0.0261
  555MOL0     H74866  10.340  10.535   6.179 -2.0958  3.5256  1.5591
  555MOL0     H74867  10.383  10.666   6.067  1.1584 -0.7007  2.0178
  555MOL0     H74868  10.204  10.602   5.920  3.0273 -1.9945 -0.0738
  555MOL0     H74869  10.163  10.471   6.036  0.4063 -0.0468 -0.2367
  555MOL0     H74870  10.146  10.775   6.047  1.7854  0.3989  0.5668
  555MOL0     H74871  10.010  10.653   6.076  1.2700  0.5541 -4.1176
  555MOL0     H74872  10.247  10.713   6.263  0.2115  1.1379 -4.0674
  555MOL0     H74873  10.089  10.621   6.295 -1.9952  0.6509  0.0099
  555MOL0     H74874  10.101  10.921   6.239  0.6655 -1.1007 -0.7510
  555MOL0     H74875   9.966  10.803   6.256 -0.4557  0.4950  0.1702
  555MOL0     H74876   9.877  10.818   6.505  0.1088  0.1772  0.2665
  555MOL0     H74877   9.895  10.799   6.791  0.2332 -0.9795 -0.2282
  555MOL0     H74878  10.046  10.820   6.854  0.4427 -0.5356  1.2951
  555MOL0     H74879  10.015  11.069   6.791 -0.2887 -0.3513 -2.0192
  555MOL0     H74880   9.839  11.036   6.796  0.0869 -1.1679 -2.3742
  555MOL0     H74881   9.915  11.103   7.027  0.5886  0.5394 -0.5518
  555MOL0     H74882  10.024  10.952   7.027 -0.5441 -1.7351 -0.2721
  555MOL0     H74883   9.796  10.833   6.975  0.7839 -0.5552 -0.1482
  555MOL0     H74884   9.719  10.977   7.017  0.2406  1.3652 -0.9107
  555MOL0     H74885   9.919  10.685   7.033  2.1886  4.7875  0.2856
  555MOL0     H74886  10.029  10.483   7.135  0.7038  0.4192  0.0337
  555MOL0     H74887  10.272  10.442   7.702 -1.0234 -0.0846  2.3179
  555MOL0     H74888  10.370  10.263   7.857 -0.2481 -0.2748  0.1947
  555MOL0     H74889  10.487  10.051   7.938 -0.7850  1.6067 -0.0592
  555MOL0     H74890  10.314  10.052   7.990 -0.3919 -0.6032 -0.3798
  555MOL0     H74891  10.332   9.795   7.918 -0.0466 -2.9133  1.8440
  555MOL0     H74892  10.506   9.822   7.952  0.1863  0.1019  1.2967
  555MOL0     H74893  10.445   9.892   8.181 -1.3747  4.1958 -3.3044
  555MOL0     H74894  10.281   9.835   8.157  0.5011 -1.1925  2.1534
  555MOL0     H74895  10.509   9.650   8.087 -1.1045 -4.5861  1.7416
  555MOL0     H74896  10.342   9.614   8.138 -1.0669  0.8775  4.0123
  555MOL0     H74897  10.531   9.713   8.336  0.5892  0.9162 -2.2114
  555MOL0     H74898  10.492   9.550   8.301 -1.6320 -1.5504 -0.2440
  555MOL0     H74899  10.346   9.781   8.429  0.1249  0.6755 -0.5950
  555MOL0     H74900  10.241   9.668   8.338  0.5207 -1.2226 -0.5311
  555MOL0     H74901  10.408   9.625   8.591  0.0755 -0.0884  1.0183
  555MOL0     H74902  10.387   9.481   8.494 -0.9106 -0.0059 -0.0044
  555MOL0     H74903  10.221   9.499   8.665 -1.0764  0.0613 -0.4781
  555MOL0     H74904  10.168   9.648   8.602  0.8711  1.6754 -1.7866
  555MOL0     H74905  10.183   9.968   7.626 -1.1040 -0.4097  1.9544
  555MOL0     H74906  10.083  10.153   7.463  2.4359  1.3103 -1.2216
  555MOL0     H74907  10.000  10.633   7.521 -2.9011  2.6279  0.4454
  555MOL0     H74908   9.865  10.843   7.420 -0.7571 -1.4360  1.5252
  555MOL0     H74909  10.783  10.697   5.950  0.9927  1.2428 -0.9017
  555MOL0     H74910  10.975  10.822   5.914 -2.2822 -0.2968  0.7255
  555MOL0     H74911  11.374  10.741   5.581  0.5170 -0.5228  2.8535
  555MOL0     H74912  11.522  10.842   5.442  2.8521 -2.3066  1.8952
  555MOL0     H74913  11.757  11.079   5.588  0.1419 -2.4415 -1.9108
  555MOL0     H74914  11.735  11.222   5.491 -1.2251  0.7978  1.2534
  555MOL0     H74915  11.813  11.060   5.280  1.0854  0.6808  0.0003
  555MOL0     H74916  11.836  10.946   5.413 -0.3469 -0.1584  1.3330
  555MOL0     H74917  12.052  11.034   5.365  0.5854  0.9678  1.3776
  555MOL0     H74918  11.989  11.120   5.515  0.2865 -0.3879  0.7430
  555MOL0     H74919  12.031  11.230   5.238 -2.4313  0.0838 -0.6102
  555MOL0     H74920  11.926  11.314   5.351 -0.0556  0.0809 -0.6405
  555MOL0     H74921  12.317  11.415   5.464  2.0122 -2.3844 -1.0956
  555MOL0     H74922  11.489  11.219   5.664  1.1184 -0.2146  0.8198
  555MOL0     H74923  11.259  11.176   5.863  1.5970  4.8340 -3.1503
  555MOL0     H74924  11.388  11.073   5.940  1.0193  1.5972  1.3084
  555MOL0     H74925  11.428  11.222   5.869  0.8180 -1.0198  3.6243
  556MOL0     O74926   4.962   7.087   6.152  0.4702  0.4051  0.0850
  556MOL0     C74927   4.839   7.089   6.160  1.2790 -0.3033 -1.2830
  556MOL0     O74928   4.768   7.046   6.270 -0.2371  0.5019  0.5661
  556MOL0     C74929   4.829   7.031   6.389 -1.6830 -0.2128  0.0233
  556MOL0     C74930   4.915   7.128   6.445 -0.1931  0.6635  0.0623
  556MOL0     C74931   4.975   7.110   6.570  0.0179 -0.2023 -0.4300
  556MOL0     C74932   4.952   6.992   6.648  0.1632 -0.0123  1.1009
  556MOL0     O74933   5.006   6.966   6.765 -0.3205 -0.5977 -1.0463
  556MOL0     C74934   5.097   7.058   6.831  0.4263 -0.2205  0.1766
  556MOL0     C74935   5.124   7.018   6.976  0.0341  0.6295 -0.2593
  556MOL0     C74936   5.008   7.042   7.074 -0.2498 -0.6214  0.0185
  556MOL0     C74937   5.036   6.976   7.205 -0.4939 -0.3610 -0.6564
  556MOL0     C74938   4.933   7.032   7.317 -1.2273  0.8264  0.6750
  556MOL0     C74939   4.953   6.936   7.437 -0.2326 -0.4638 -0.1465
  556MOL0     C74940   4.870   6.996   7.554 -0.2064 -0.5423 -0.2961
  556MOL0     C74941   4.917   7.126   7.613  0.7535  0.8235  0.2539
  556MOL0     N74942   4.857   7.164   7.743 -0.9326  0.3028  0.1459
  556MOL0     C74943   4.764   7.263   7.758 -0.1776 -1.0279 -0.6296
  556MOL0     C74944   4.743   7.275   7.890  0.2818 -0.3620  0.2637
  556MOL0     C74945   4.638   7.358   7.956  0.6198 -0.0610  0.3627
  556MOL0     C74946   4.633   7.502   7.926 -0.0363 -0.4856 -0.0261
  556MOL0     C74947   4.736   7.607   7.978  0.6317  0.9596  0.2015
  556MOL0     C74948   4.873   7.574   7.918 -0.0482 -0.4838 -0.3984
  556MOL0     O74949   4.850   7.604   7.774 -0.5672  0.5986  0.0779
  556MOL0     C74950   4.956   7.578   7.686 -0.5401  0.0716 -0.4300
  556MOL0     C74951   4.919   7.572   7.554 -0.5655  0.7315  0.7059
  556MOL0     C74952   5.021   7.546   7.449  1.1973 -0.9335 -1.0785
  556MOL0     C74953   5.154   7.515   7.491  1.0569 -1.0328  0.3672
  556MOL0     C74954   5.257   7.499   7.387  0.2177  0.6244  0.2411
  556MOL0     O74955   5.210   7.467   7.250 -0.5974 -0.4628 -0.1816
  556MOL0     C74956   5.287   7.449   7.143  0.8553  0.1211 -0.2494
  556MOL0     C74957   5.221   7.425   7.024  0.1741 -0.2241  0.0171
  556MOL0     C74958   5.286   7.416   6.899  1.4457 -0.3418 -0.7441
  556MOL0     C74959   5.419   7.407   6.896 -0.1408 -0.3878 -0.0711
  556MOL0     O74960   5.503   7.382   6.790 -0.2044 -0.6297  0.1608
  556MOL0     C74961   5.473   7.447   6.664 -0.9520 -0.2989  0.1381
  556MOL0     C74962   5.603   7.439   6.589  0.1518 -0.1579 -0.5056
  556MOL0     C74963   5.586   7.451   6.433  0.4341 -0.0468 -0.2241
  556MOL0     C74964   5.707   7.504   6.352  0.9994  0.1944  0.0653
  556MOL0     C74965   5.674   7.493   6.202  0.8773  0.2929  0.3159
  556MOL0     C74966   5.790   7.534   6.114  0.5447 -0.0708  0.1558
  556MOL0     C74967   5.760   7.499   5.970  0.1134  0.5049 -1.0673
  556MOL0     C74968   5.895   7.531   5.899  0.4700  0.0607  0.3842
  556MOL0    Cl74969   5.869   7.487   5.729  0.2844 -0.0058 -0.4152
  556MOL0     C74970   5.488   7.441   7.016  0.0275 -0.1208 -0.7318
  556MOL0     C74971   5.422   7.457   7.133  0.2314 -1.3966 -0.8061
  556MOL0     O74972   5.367   7.529   7.424  0.7197  0.6608 -0.4122
  556MOL0     C74973   5.184   7.512   7.634 -0.3329 -0.0936 -0.0921
  556MOL0     C74974   5.085   7.542   7.729  0.0739  0.6266 -0.1004
  556MOL0     N74975   4.828   7.195   7.948  0.7940  0.1178  0.4237
  556MOL0     N74976   4.888   7.122   7.862 -0.4718  0.1064  0.3480
  556MOL0     C74977   4.876   6.901   6.589  0.1476 -0.6328 -0.1711
  556MOL0     C74978   4.810   6.915   6.467  0.3023 -0.0118  0.8440
  556MOL0     C74979   4.763   7.142   6.047  0.9751  0.7954 -0.3824
  556MOL0     C74980   4.625   7.116   6.048 -0.0834 -0.2469 -0.1859
  556MOL0     C74981   4.541   7.150   5.952  0.6157 -0.3803  0.3370
  556MOL0     C74982   4.589   7.232   5.843 -0.7090  1.2453  0.1260
  556MOL0     O74983   4.487   7.279   5.752 -0.0961  0.7937  0.5692
  556MOL0     C74984   4.544   7.359   5.658  0.0590 -0.3111  0.7552
  556MOL0     C74985   4.446   7.399   5.554 -0.3783  0.3023  0.4129
  556MOL0     C74986   4.475   7.538   5.485  0.4800  0.6574  0.4211
  556MOL0     C74987   4.432   7.640   5.588 -1.1514 -0.6975  0.3132
  556MOL0     C74988   4.290   7.664   5.579 -1.5967  0.4894 -0.2607
  556MOL0     C74989   4.174   7.674   5.548  0.6225 -0.2290  0.2979
  556MOL0     C74990   4.735   7.254   5.836  0.2140  0.6445 -0.8879
  556MOL0     C74991   4.818   7.208   5.937 -0.2254  0.0390  0.3299
  556MOL0     C74992   4.954   7.274   5.930 -0.0665  0.0343  1.2149
  556MOL0     H74993   4.919   7.221   6.390 -2.9969  0.6244 -0.3477
  556MOL0     H74994   5.051   7.176   6.609  1.6123 -1.1860 -1.7344
  556MOL0     H74995   5.183   7.075   6.766 -0.5980  2.6817 -0.5741
  556MOL0     H74996   5.054   7.159   6.834  2.4879  0.7529 -1.0203
  556MOL0     H74997   5.201   7.079   7.024  0.8653 -0.3746 -0.2674
  556MOL0     H74998   5.152   6.912   6.982  1.0375  0.9293  0.6495
  556MOL0     H74999   4.920   7.001   7.024  0.0350  0.4232 -1.4135
  556MOL0     H75000   4.982   7.147   7.092 -3.6519 -1.2179 -0.6158
  556MOL0     H75001   5.019   6.869   7.188  2.0891 -0.7079 -1.3985
  556MOL0     H75002   5.136   6.991   7.246  0.3431 -0.9111 -2.4246
  556MOL0     H75003   4.955   7.136   7.344 -2.5543  0.7747  2.0758
  556MOL0     H75004   4.834   7.031   7.271 -1.7066  2.1242  1.6161
  556MOL0     H75005   4.911   6.837   7.419 -1.0015 -0.3251  0.7833
  556MOL0     H75006   5.059   6.935   7.461 -0.0245  0.4999 -0.9456
  556MOL0     H75007   4.881   6.918   7.631 -0.8873 -1.7188 -1.3489
  556MOL0     H75008   4.763   6.999   7.533 -0.1312  1.7068 -0.5313
  556MOL0     H75009   5.025   7.129   7.628  0.7456 -0.6268  0.7151
  556MOL0     H75010   4.899   7.202   7.536  0.8755  2.4492  1.7605
  556MOL0     H75011   4.697   7.289   7.677 -2.5187 -0.8408  1.2395
  556MOL0     H75012   4.550   7.297   7.931  1.0734 -0.6630  0.2035
  556MOL0     H75013   4.653   7.348   8.064  1.8132  2.8957  0.5768
  556MOL0     H75014   4.622   7.527   7.820 -0.7205  3.3604  0.8076
  556MOL0     H75015   4.540   7.547   7.963  1.4902  3.6953 -0.6602
  556MOL0     H75016   4.739   7.597   8.087  0.9662 -0.3038  0.0901
  556MOL0     H75017   4.705   7.709   7.954 -0.2014  0.8753  0.8640
  556MOL0     H75018   4.901   7.470   7.940  2.3207  0.0898 -0.4574
  556MOL0     H75019   4.941   7.645   7.966 -1.0656  0.3673 -0.1732
  556MOL0     H75020   4.814   7.591   7.534 -0.4861  3.8316  2.5560
  556MOL0     H75021   4.997   7.543   7.344  0.1116 -1.4522 -0.8248
  556MOL0     H75022   5.112   7.431   7.019  0.0194 -1.5137  1.2459
  556MOL0     H75023   5.239   7.398   6.802 -0.2224  1.8922 -0.4156
  556MOL0     H75024   5.406   7.396   6.594 -0.1048 -1.4267  0.1273
  556MOL0     H75025   5.447   7.553   6.670 -0.8721 -0.3834  2.9753
  556MOL0     H75026   5.665   7.525   6.615 -3.0215  1.8518  1.1198
  556MOL0     H75027   5.667   7.352   6.605  1.0366  0.7341  1.0067
  556MOL0     H75028   5.569   7.350   6.396 -1.1615  0.1665 -0.1260
  556MOL0     H75029   5.492   7.505   6.424 -2.5583 -4.4827  1.0853
  556MOL0     H75030   5.791   7.436   6.373 -1.8742 -3.8660 -0.5065
  556MOL0     H75031   5.723   7.609   6.382  0.1107  0.4034 -0.1707
  556MOL0     H75032   5.597   7.568   6.182  0.0393 -0.7349 -0.4260
  556MOL0     H75033   5.629   7.395   6.183 -0.9666  0.4455  3.2332
  556MOL0     H75034   5.814   7.640   6.126  4.6142 -0.6907 -0.7665
  556MOL0     H75035   5.886   7.489   6.144  0.3385  1.3534  3.2905
  556MOL0     H75036   5.676   7.554   5.927 -0.7667 -1.4714 -2.0003
  556MOL0     H75037   5.731   7.395   5.953 -1.8186  0.5545  1.4336
  556MOL0     H75038   5.916   7.638   5.911 -2.7601  0.6952  1.4131
  556MOL0     H75039   5.983   7.474   5.933 -1.0874 -3.1087 -0.5362
  556MOL0     H75040   5.596   7.447   7.026  0.0695 -0.6846 -0.7773
  556MOL0     H75041   5.481   7.477   7.222 -1.5192  2.6819 -0.3275
  556MOL0     H75042   5.284   7.489   7.669 -0.8010  0.3071  1.5835
  556MOL0     H75043   5.108   7.539   7.835 -1.7443 -2.7369  0.3150
  556MOL0     H75044   4.857   6.809   6.643 -0.8053 -0.9371 -0.9966
  556MOL0     H75045   4.758   6.837   6.412  2.6597 -0.7339 -0.5350
  556MOL0     H75046   4.574   7.065   6.129  3.5110 -1.4687  1.4938
  556MOL0     H75047   4.434   7.133   5.961  0.2610  1.6624  0.6339
  556MOL0     H75048   4.625   7.308   5.604  0.0178 -0.7382  1.0961
  556MOL0     H75049   4.587   7.445   5.711 -1.1368  1.3273 -0.7969
  556MOL0     H75050   4.353   7.401   5.612 -0.0585 -1.9330  1.1145
  556MOL0     H75051   4.431   7.330   5.471 -2.0885  2.5426 -1.2460
  556MOL0     H75052   4.415   7.555   5.395  0.6857  1.7540  0.4806
  556MOL0     H75053   4.578   7.538   5.448  0.2867 -0.7949 -0.1861
  556MOL0     H75054   4.466   7.606   5.686 -3.7278 -3.0861  0.5271
  556MOL0     H75055   4.477   7.739   5.572 -1.1369 -1.1230 -3.2698
  556MOL0     H75056   4.071   7.673   5.516  0.1013 -3.9252  1.6008
  556MOL0     H75057   4.774   7.326   5.765  0.4950 -1.3958 -2.9146
  556MOL0     H75058   5.025   7.199   5.967  0.7122  0.1836  0.0602
  556MOL0     H75059   4.991   7.297   5.830  2.6452 -0.1184  2.1169
  556MOL0     H75060   4.955   7.364   5.992  1.8897  0.7615  0.1861
  557MOL0     O75061   1.572   2.403   4.271 -0.0527 -0.1210  0.0108
  557MOL0     C75062   1.673   2.358   4.224 -0.2241 -0.4009 -0.7079
  557MOL0     O75063   1.688   2.228   4.162 -0.5140 -0.0008 -0.5558
  557MOL0     C75064   1.584   2.154   4.125  0.2536  0.0944  0.0977
  557MOL0     C75065   1.610   2.087   4.002  0.3373 -0.3282 -0.4540
  557MOL0     C75066   1.513   2.003   3.941  0.3219 -0.5356  0.1113
  557MOL0     C75067   1.388   1.979   4.004 -0.0368 -0.1151  1.0231
  557MOL0     O75068   1.302   1.895   3.934  0.2226  0.4876 -0.3947
  557MOL0     C75069   1.165   1.918   3.925 -0.2599 -0.2411  0.2122
  557MOL0     C75070   1.153   2.038   3.823 -0.6740 -0.2625 -0.9629
  557MOL0     C75071   1.160   1.992   3.676  0.5161  0.2636  0.6814
  557MOL0     C75072   1.304   1.987   3.620 -0.1653 -0.2051 -0.7258
  557MOL0     C75073   1.309   1.963   3.461  0.8977  0.2695 -0.8632
  557MOL0     C75074   1.447   1.929   3.410 -0.1932  0.3009 -0.7025
  557MOL0     C75075   1.450   1.919   3.258  0.0202 -0.0912  0.7828
  557MOL0     C75076   1.426   2.060   3.193  0.1386  0.2109  0.0795
  557MOL0     N75077   1.544   2.143   3.210 -0.3790 -0.4451  0.3509
  557MOL0     C75078   1.654   2.155   3.123 -0.4609 -0.4643  0.4153
  557MOL0     C75079   1.738   2.242   3.186 -0.0557  0.6640  0.0720
  557MOL0     C75080   1.876   2.291   3.142  0.9609  0.0596 -0.2366
  557MOL0     C75081   1.859   2.389   3.022 -0.1857 -0.1203 -0.0009
  557MOL0     C75082   1.990   2.456   2.992 -0.2465 -1.2009  0.3267
  557MOL0     C75083   1.971   2.565   2.881 -0.2620  0.3903  0.8067
  557MOL0     O75084   2.072   2.657   2.900  0.4984  0.0619  1.0552
  557MOL0     C75085   2.115   2.729   2.791  0.6733  0.6311 -0.4658
  557MOL0     C75086   2.026   2.805   2.710 -0.1679  1.0646  0.6276
  557MOL0     C75087   2.059   2.860   2.598 -0.6544 -0.3988  0.5621
  557MOL0     C75088   2.197   2.858   2.554  0.6292  0.1788  0.3683
  557MOL0     C75089   2.228   2.907   2.428  0.6540 -0.3620  0.7062
  557MOL0     O75090   2.365   2.939   2.411 -0.4216 -0.1677  0.2077
  557MOL0     C75091   2.402   3.018   2.305  1.1137 -1.1071 -0.4968
  557MOL0     C75092   2.345   3.139   2.259  0.8637 -0.0553 -0.4990
  557MOL0     C75093   2.386   3.221   2.153 -0.0386 -0.7672  0.4676
  557MOL0     C75094   2.513   3.191   2.105 -0.1268  0.2587  0.5796
  557MOL0     O75095   2.579   3.269   2.021 -0.1044 -0.7838  0.5414
  557MOL0     C75096   2.494   3.348   1.933 -0.1957 -0.0580 -0.7757
  557MOL0     C75097   2.572   3.414   1.827 -0.5479 -0.0357  0.0782
  557MOL0     C75098   2.664   3.529   1.883 -0.4893 -0.3822  0.1577
  557MOL0     C75099   2.784   3.556   1.788 -0.4081  0.3655 -0.1830
  557MOL0     C75100   2.887   3.667   1.848 -0.0245  0.1623  0.7993
  557MOL0     C75101   3.016   3.676   1.763  0.2523 -0.2646 -0.3480
  557MOL0     C75102   3.081   3.813   1.785 -0.3566 -0.3617 -0.1319
  557MOL0     C75103   3.013   3.929   1.713 -0.0935  0.4182  0.5705
  557MOL0    Cl75104   3.107   4.075   1.718 -0.0484  0.0637  0.1541
  557MOL0     C75105   2.590   3.076   2.151  0.8994 -0.0270 -1.0717
  557MOL0     C75106   2.533   2.991   2.243 -0.1677 -0.0961  0.4558
  557MOL0     O75107   2.139   2.927   2.344 -0.9285 -0.2661 -0.4259
  557MOL0     C75108   2.292   2.795   2.635  0.6572  0.0000  0.0518
  557MOL0     C75109   2.249   2.721   2.751  0.4762 -0.5885 -0.2508
  557MOL0     N75110   1.686   2.265   3.313  0.3643  0.5256  0.1438
  557MOL0     N75111   1.571   2.207   3.322  0.5344 -0.2324 -0.2765
  557MOL0     C75112   1.367   2.039   4.130 -0.1083 -0.4397 -0.3913
  557MOL0     C75113   1.467   2.119   4.196 -0.2148 -0.5293  1.1058
  557MOL0     C75114   1.795   2.453   4.221 -0.2513 -0.5092 -0.2404
  557MOL0     C75115   1.779   2.595   4.214  0.4345 -0.5926  0.2815
  557MOL0     C75116   1.890   2.682   4.205  0.0549  0.4360  0.2416
  557MOL0     C75117   2.019   2.636   4.207 -0.2334  0.3994  0.8227
  557MOL0     O75118   2.128   2.714   4.199  0.0537 -0.5116 -0.0357
  557MOL0     C75119   2.121   2.851   4.148 -0.1643 -0.2465 -0.8610
  557MOL0     C75120   2.263   2.872   4.098 -0.0888  0.7116  1.0935
  557MOL0     C75121   2.371   2.901   4.208  1.0491 -0.4538 -0.3054
  557MOL0     C75122   2.505   2.937   4.153 -1.1542  0.0663 -0.6501
  557MOL0     C75123   2.563   3.056   4.225  0.0639  0.3740 -0.9770
  557MOL0     C75124   2.595   3.141   4.309  0.4558  0.1241  0.6751
  557MOL0     C75125   2.036   2.499   4.228  0.8915  0.0833 -0.9385
  557MOL0     C75126   1.927   2.408   4.232 -0.1819 -0.3015 -1.3940
  557MOL0     C75127   1.967   2.263   4.240  0.1001 -0.5850 -0.3035
  557MOL0     H75128   1.705   2.098   3.950  0.3311  0.0407 -0.3872
  557MOL0     H75129   1.535   1.962   3.843 -2.0017  2.7441 -1.9953
  557MOL0     H75130   1.119   1.825   3.889 -1.2313 -0.0047  0.7902
  557MOL0     H75131   1.129   1.922   4.028  1.7082 -1.3069  1.0039
  557MOL0     H75132   1.231   2.113   3.839 -1.2424 -0.1767  1.9044
  557MOL0     H75133   1.056   2.082   3.848 -1.5634 -1.4605 -2.1391
  557MOL0     H75134   1.113   2.065   3.610 -0.5748 -0.5523  0.5117
  557MOL0     H75135   1.121   1.891   3.657 -0.2088  1.0504 -2.5834
  557MOL0     H75136   1.362   2.079   3.631 -1.0543  0.3482 -0.5241
  557MOL0     H75137   1.359   1.908   3.673  0.3766  0.5497 -0.1417
  557MOL0     H75138   1.242   1.878   3.445  0.2795 -0.0820  2.7406
  557MOL0     H75139   1.268   2.050   3.409  1.2709 -0.2998 -2.1480
  557MOL0     H75140   1.526   1.996   3.446  1.5856 -1.0765 -1.8540
  557MOL0     H75141   1.463   1.835   3.463 -1.6039  0.8311  0.7246
  557MOL0     H75142   1.372   1.846   3.236 -1.5754  1.9198 -0.6028
  557MOL0     H75143   1.549   1.879   3.233 -0.7158 -1.1170 -0.5680
  557MOL0     H75144   1.414   2.056   3.085 -0.5610 -1.1794  0.1897
  557MOL0     H75145   1.340   2.117   3.231 -1.7998 -0.9453 -2.2458
  557MOL0     H75146   1.652   2.118   3.021 -2.2303 -0.4588  0.4207
  557MOL0     H75147   1.930   2.323   3.231 -1.4229  1.8997  0.6833
  557MOL0     H75148   1.926   2.201   3.108 -1.3962 -1.1037 -0.8412
  557MOL0     H75149   1.822   2.339   2.932 -0.7451 -0.9568  0.6807
  557MOL0     H75150   1.783   2.462   3.052 -1.6749 -1.4720 -0.3078
  557MOL0     H75151   2.064   2.381   2.962  0.6462 -0.5338  0.7859
  557MOL0     H75152   2.024   2.508   3.082  2.4643 -1.6429 -0.3263
  557MOL0     H75153   1.876   2.619   2.886 -0.2817  0.2694  2.7236
  557MOL0     H75154   1.968   2.517   2.783  1.6911  2.1771 -0.2210
  557MOL0     H75155   1.921   2.802   2.738 -0.4167 -0.0757 -0.3212
  557MOL0     H75156   1.989   2.914   2.535  1.3268 -0.7570 -2.1258
  557MOL0     H75157   2.269   3.182   2.323 -1.6515 -1.6222 -2.2147
  557MOL0     H75158   2.315   3.292   2.112 -0.9971 -3.0881 -2.1557
  557MOL0     H75159   2.416   3.290   1.882 -1.1134 -0.2719  0.8046
  557MOL0     H75160   2.434   3.425   1.983 -1.4959  0.3463 -2.8526
  557MOL0     H75161   2.637   3.345   1.772  0.4811 -0.4611  1.7651
  557MOL0     H75162   2.503   3.454   1.752 -1.3002 -0.7039  0.3869
  557MOL0     H75163   2.594   3.612   1.889 -0.1442 -0.1670  1.6787
  557MOL0     H75164   2.710   3.518   1.982 -0.4408  1.2711  0.3369
  557MOL0     H75165   2.761   3.587   1.686  0.4613  0.8368 -0.2462
  557MOL0     H75166   2.839   3.461   1.787  1.9917  1.5607  2.5469
  557MOL0     H75167   2.912   3.648   1.952  3.6821 -0.8145 -0.1064
  557MOL0     H75168   2.832   3.761   1.837 -4.0894 -1.8876  1.5479
  557MOL0     H75169   3.088   3.599   1.790  1.1285 -0.5423 -3.1144
  557MOL0     H75170   2.997   3.658   1.656  0.6506  1.2918 -0.7090
  557MOL0     H75171   3.184   3.797   1.751 -1.0078 -1.7353 -1.6034
  557MOL0     H75172   3.082   3.829   1.893  1.1154 -0.6597 -0.0714
  557MOL0     H75173   3.001   3.892   1.611  3.4421  2.6223 -0.8484
  557MOL0     H75174   2.927   3.938   1.779 -0.1297 -2.1577  1.0026
  557MOL0     H75175   2.691   3.066   2.113  0.8346 -3.7954 -0.6321
  557MOL0     H75176   2.588   2.904   2.277  2.0512  0.2016 -2.0722
  557MOL0     H75177   2.395   2.801   2.602  0.5002 -0.5646 -0.5547
  557MOL0     H75178   2.320   2.669   2.814  0.2754 -1.4043 -0.6876
  557MOL0     H75179   1.276   2.040   4.190 -1.1749 -3.1922 -1.8226
  557MOL0     H75180   1.430   2.160   4.289 -2.9401 -2.2115  0.8815
  557MOL0     H75181   1.677   2.633   4.213  0.6883  0.2369 -2.8768
  557MOL0     H75182   1.856   2.784   4.196 -2.4171 -0.3393 -0.0193
  557MOL0     H75183   2.095   2.910   4.236  1.2237 -0.2772 -0.4037
  557MOL0     H75184   2.052   2.868   4.065 -4.6516  1.9884  2.8509
  557MOL0     H75185   2.260   2.955   4.028 -1.7337  0.6293  1.0175
  557MOL0     H75186   2.299   2.780   4.050  1.4175  1.5342  0.5798
  557MOL0     H75187   2.385   2.809   4.266  1.2963  0.1921  0.6769
  557MOL0     H75188   2.331   2.963   4.289 -0.6198 -1.9969  0.1398
  557MOL0     H75189   2.567   2.850   4.174 -2.0891  0.1156  3.0193
  557MOL0     H75190   2.508   2.951   4.045  3.2204 -2.2025 -1.0469
  557MOL0     H75191   2.630   3.218   4.375 -0.3214  1.7485 -0.7405
  557MOL0     H75192   2.131   2.448   4.236  0.4609 -0.4899  1.7775
  557MOL0     H75193   2.054   2.264   4.307 -0.2340  0.1939  0.1289
  557MOL0     H75194   1.900   2.187   4.282  0.1298 -1.5483 -1.8930
  557MOL0     H75195   2.002   2.222   4.145  1.9714 -3.3797  1.4214
  558MOL0     O75196  11.392   1.419  11.015  0.3299 -0.1351  0.6003
  558MOL0     C75197  11.284   1.422  11.074  0.3166  0.1098 -0.6652
  558MOL0     O75198  11.203   1.535  11.072 -0.3252 -1.0836  0.7122
  558MOL0     C75199  11.192   1.616  10.963 -0.4270  0.1533 -0.4415
  558MOL0     C75200  11.190   1.564  10.834 -0.0509  0.0763 -0.0164
  558MOL0     C75201  11.172   1.648  10.724 -0.1515 -0.6327  0.2269
  558MOL0     C75202  11.178   1.789  10.737  0.3482 -0.4148  0.1618
  558MOL0     O75203  11.174   1.866  10.627  0.2196 -0.1442 -0.0885
  558MOL0     C75204  11.143   2.008  10.647  0.2588 -1.2851  0.1397
  558MOL0     C75205  11.111   2.083  10.511  0.8885  0.3594 -1.7999
  558MOL0     C75206  11.201   2.067  10.390 -0.2073 -0.6006  1.0507
  558MOL0     C75207  11.342   2.127  10.424  0.1107 -0.2508 -0.2110
  558MOL0     C75208  11.411   2.171  10.294 -0.3927  0.2697 -0.1735
  558MOL0     C75209  11.478   2.311  10.298  0.0194 -0.2336  0.4249
  558MOL0     C75210  11.393   2.430  10.332  0.4795 -0.2671 -0.2958
  558MOL0     C75211  11.263   2.434  10.250 -0.8985  0.8255 -0.3457
  558MOL0     N75212  11.174   2.547  10.290 -0.2580 -0.8039 -0.1167
  558MOL0     C75213  11.210   2.677  10.312 -0.0247  0.6314  0.2329
  558MOL0     C75214  11.105   2.744  10.347 -0.0074 -0.1717  1.0004
  558MOL0     C75215  11.105   2.899  10.362 -0.8541  0.7103 -0.3612
  558MOL0     C75216  11.098   2.917  10.518  1.2687 -0.5541 -0.1254
  558MOL0     C75217  11.094   3.059  10.577  0.6668  0.3909 -0.0976
  558MOL0     C75218  11.123   3.049  10.729  0.2250  0.4832  0.1519
  558MOL0     O75219  11.019   2.972  10.788 -0.0506  0.2985  0.1393
  558MOL0     C75220  10.991   2.990  10.923 -0.1772  0.4354 -0.2273
  558MOL0     C75221  10.901   2.892  10.963  1.3167  0.6328  0.4495
  558MOL0     C75222  10.865   2.887  11.095  0.0771  0.7935 -0.5422
  558MOL0     C75223  10.920   2.978  11.185  0.5400  0.1632  0.0815
  558MOL0     C75224  10.898   2.956  11.326 -0.2788 -0.5304 -0.2699
  558MOL0     O75225  10.831   2.847  11.371 -0.1050 -0.4088 -0.7418
  558MOL0     C75226  10.780   2.846  11.495 -0.3637  0.2915  0.8883
  558MOL0     C75227  10.861   2.851  11.605 -0.2538 -0.4979 -0.5931
  558MOL0     C75228  10.800   2.860  11.737 -0.0154 -0.2083  0.8805
  558MOL0     C75229  10.664   2.853  11.765  0.3383 -0.1794  0.3577
  558MOL0     O75230  10.600   2.869  11.883  0.7852  0.0388  0.1612
  558MOL0     C75231  10.664   2.932  11.996  1.7359 -0.3389 -0.5205
  558MOL0     C75232  10.695   3.077  11.966  0.4948  0.0167  0.4373
  558MOL0     C75233  10.564   3.153  11.953 -0.2549  0.3366  0.0556
  558MOL0     C75234  10.512   3.221  12.079 -0.4750  0.1679 -0.1914
  558MOL0     C75235  10.375   3.266  12.044 -0.1449  1.0883  0.3321
  558MOL0     C75236  10.314   3.344  12.155 -0.1290  0.1634  0.6756
  558MOL0     C75237  10.173   3.375  12.097 -0.5719  0.4043 -0.0150
  558MOL0     C75238  10.076   3.418  12.202 -1.2856 -0.4707  0.3222
  558MOL0    Cl75239  10.127   3.563  12.311  0.6447  0.1827 -0.6867
  558MOL0     C75240  10.582   2.826  11.651  0.1712  0.0873 -0.1713
  558MOL0     C75241  10.645   2.823  11.520 -1.0917 -0.6142  0.0692
  558MOL0     O75242  10.948   3.038  11.397 -0.3805 -0.6916  0.6756
  558MOL0     C75243  11.019   3.071  11.140 -0.4556 -0.0914  0.0785
  558MOL0     C75244  11.053   3.075  11.007 -0.0212 -0.6767  0.2210
  558MOL0     N75245  10.997   2.656  10.330  1.0670 -0.9678 -0.1771
  558MOL0     N75246  11.049   2.541  10.300  0.4073 -0.0768  0.1791
  558MOL0     C75247  11.186   1.844  10.868 -0.1611  1.0275 -0.7421
  558MOL0     C75248  11.189   1.755  10.982  0.0582 -0.4941  0.8125
  558MOL0     C75249  11.255   1.315  11.170  0.8354 -0.5547  0.2963
  558MOL0     C75250  11.358   1.239  11.225  0.3081  0.1464 -0.2217
  558MOL0     C75251  11.336   1.164  11.345 -0.4549 -0.2177  0.3678
  558MOL0     C75252  11.214   1.149  11.396 -0.3277 -0.2088 -0.1197
  558MOL0     O75253  11.201   1.068  11.506  0.1844  0.3443 -0.5257
  558MOL0     C75254  11.083   0.985  11.536 -0.1445 -0.3644  0.7034
  558MOL0     C75255  11.052   1.016  11.680  0.2163 -0.3473  0.1098
  558MOL0     C75256  10.915   0.979  11.713 -0.4026 -0.0364 -0.6038
  558MOL0     C75257  10.880   0.838  11.671 -0.4068  0.4947 -0.2052
  558MOL0     C75258  10.955   0.743  11.756 -0.7764 -0.6305  0.5198
  558MOL0     C75259  11.024   0.668  11.819  0.8293 -0.6367 -0.1763
  558MOL0     C75260  11.112   1.224  11.341 -0.1302  0.6675 -0.3079
  558MOL0     C75261  11.129   1.300  11.232 -0.0756 -0.1155 -0.7065
  558MOL0     C75262  11.009   1.380  11.189 -0.0632  0.3655 -0.8714
  558MOL0     H75263  11.179   1.460  10.805  0.1946  0.4925 -1.7145
  558MOL0     H75264  11.172   1.613  10.621  2.2420 -0.9817  0.2822
  558MOL0     H75265  11.066   2.035  10.721 -0.6655 -0.2519 -1.1496
  558MOL0     H75266  11.238   2.056  10.671  1.4744 -2.0003 -2.7966
  558MOL0     H75267  11.081   2.187  10.529 -3.3540 -1.0785  0.9424
  558MOL0     H75268  11.020   2.031  10.481  1.9087 -1.3759 -1.9622
  558MOL0     H75269  11.159   2.126  10.308  1.6944  1.2044  1.2891
  558MOL0     H75270  11.215   1.963  10.360 -0.5179  0.3961 -3.2534
  558MOL0     H75271  11.331   2.215  10.488  2.4251 -0.4899  0.6161
  558MOL0     H75272  11.405   2.063  10.486 -1.1510  0.8818  2.4122
  558MOL0     H75273  11.481   2.099  10.252  0.6235  3.5594 -4.8757
  558MOL0     H75274  11.341   2.184  10.212 -0.1398 -2.5235 -0.9381
  558MOL0     H75275  11.568   2.298  10.359  3.0741  2.0961 -3.1524
  558MOL0     H75276  11.533   2.338  10.207 -1.5312  0.7706 -0.2691
  558MOL0     H75277  11.464   2.512  10.315  1.5869 -1.5321 -2.1645
  558MOL0     H75278  11.377   2.439  10.439  3.1323  0.9352  0.0814
  558MOL0     H75279  11.303   2.446  10.149  1.0506 -0.7878  0.1715
  558MOL0     H75280  11.210   2.339  10.243 -0.9344  0.4342  3.3067
  558MOL0     H75281  11.314   2.706  10.298  1.0154 -2.3264  0.9470
  558MOL0     H75282  11.203   2.938  10.331  0.4120 -0.8367  1.4502
  558MOL0     H75283  11.024   2.952  10.310 -2.8291 -0.6584  1.1982
  558MOL0     H75284  11.004   2.868  10.543  1.1510 -2.0901 -3.1815
  558MOL0     H75285  11.185   2.868  10.563 -0.2729  0.4626  4.5696
  558MOL0     H75286  10.991   3.090  10.559  0.3395  0.6402  1.9034
  558MOL0     H75287  11.170   3.127  10.537  0.1818  0.8926 -0.1716
  558MOL0     H75288  11.127   3.150  10.771 -0.0890  0.5976 -0.0889
  558MOL0     H75289  11.217   2.997  10.749 -0.6114 -1.0188  0.3264
  558MOL0     H75290  10.855   2.831  10.886  0.0502 -1.1828  2.5175
  558MOL0     H75291  10.797   2.811  11.131 -0.9155  1.8885 -0.0487
  558MOL0     H75292  10.967   2.851  11.582 -0.3508  0.4095 -1.0782
  558MOL0     H75293  10.875   2.875  11.814 -0.8845 -2.0149  2.1430
  558MOL0     H75294  10.608   2.925  12.090  0.6733  2.7635 -0.7834
  558MOL0     H75295  10.758   2.879  12.012  2.7176  1.2434 -0.8368
  558MOL0     H75296  10.762   3.130  12.035 -0.7478 -0.9821  2.5072
  558MOL0     H75297  10.757   3.084  11.876 -2.3043  1.4462 -1.5358
  558MOL0     H75298  10.570   3.233  11.878 -1.0160  0.8908  0.5646
  558MOL0     H75299  10.482   3.094  11.911 -1.1658  0.2666  1.8288
  558MOL0     H75300  10.579   3.301  12.113  0.6003 -1.3004  1.2756
  558MOL0     H75301  10.513   3.143  12.155  2.2499 -0.0331 -0.3258
  558MOL0     H75302  10.322   3.173  12.023  3.0404 -1.7507  3.4612
  558MOL0     H75303  10.369   3.329  11.955  0.5133  0.2664 -0.3003
  558MOL0     H75304  10.297   3.296  12.252 -0.6786  2.3725  1.7379
  558MOL0     H75305  10.356   3.442  12.179 -1.2290  1.3598 -1.8748
  558MOL0     H75306  10.138   3.287  12.043  0.8550  0.9370 -1.9037
  558MOL0     H75307  10.175   3.453  12.021  2.0440 -0.1437 -0.5999
  558MOL0     H75308   9.990   3.457  12.148 -0.8842 -0.3768 -0.2654
  558MOL0     H75309  10.035   3.337  12.263 -0.6443 -0.9046  0.1952
  558MOL0     H75310  10.482   2.788  11.667  0.2326 -1.0127 -2.1043
  558MOL0     H75311  10.584   2.805  11.433 -0.4945  4.2714 -1.6723
  558MOL0     H75312  11.073   3.130  11.214  0.4255 -1.8239  0.8966
  558MOL0     H75313  11.136   3.141  10.985 -0.2370  0.1521  1.7331
  558MOL0     H75314  11.198   1.949  10.890  0.0100  0.9727 -0.5658
  558MOL0     H75315  11.205   1.807  11.076  4.0196  0.5368 -0.2531
  558MOL0     H75316  11.462   1.242  11.195  0.6321 -1.0411  0.6971
  558MOL0     H75317  11.414   1.124  11.409 -3.2566 -2.1823  2.8221
  558MOL0     H75318  11.110   0.881  11.520 -1.8755 -0.3431 -3.3498
  558MOL0     H75319  10.994   0.994  11.473  0.3893 -0.2535 -0.0455
  558MOL0     H75320  11.040   1.121  11.708 -0.5595 -0.6689  1.0308
  558MOL0     H75321  11.121   0.972  11.753 -1.3843 -0.3537  1.6850
  558MOL0     H75322  10.845   1.043  11.659 -0.5408 -3.5063 -5.1496
  558MOL0     H75323  10.903   0.994  11.821  2.6665  4.2556 -0.6522
  558MOL0     H75324  10.775   0.812  11.688 -0.5676  1.6613  0.7576
  558MOL0     H75325  10.908   0.829  11.566 -0.2713  1.2298 -0.2362
  558MOL0     H75326  11.064   0.608  11.899  1.5304  1.3589  1.0465
  558MOL0     H75327  11.015   1.210  11.388 -0.1367  0.7808 -0.2897
  558MOL0     H75328  10.921   1.325  11.222  0.4515  1.0413  1.9010
  558MOL0     H75329  11.020   1.475  11.244  2.4831 -1.3894  1.9848
  558MOL0     H75330  11.007   1.412  11.085  1.5770 -0.9973 -1.3549
  559MOL0     O75331   0.665   5.188   3.892  0.4213 -0.1669 -1.0035
  559MOL0     C75332   0.545   5.235   3.882  0.0575 -0.2820 -0.0338
  559MOL0     O75333   0.434   5.173   3.939  0.2981  0.9184  0.3831
  559MOL0     C75334   0.435   5.040   3.979 -0.2419 -0.6954  0.6133
  559MOL0     C75335   0.524   4.946   3.924  0.0397  0.0761 -0.1931
  559MOL0     C75336   0.527   4.824   3.987 -0.4499 -0.7718 -0.0032
  559MOL0     C75337   0.424   4.779   4.075 -0.6202 -0.5161 -0.0848
  559MOL0     O75338   0.430   4.651   4.121  0.6022  1.1501 -0.4783
  559MOL0     C75339   0.303   4.578   4.117  0.2591  0.3046 -0.7698
  559MOL0     C75340   0.329   4.450   4.191  0.2961  0.2299 -1.0419
  559MOL0     C75341   0.279   4.449   4.336 -0.1569  0.4672  0.4798
  559MOL0     C75342   0.373   4.540   4.425 -1.0504  1.0279 -0.2011
  559MOL0     C75343   0.330   4.526   4.573 -0.0739  1.5015  1.0062
  559MOL0     C75344   0.382   4.643   4.645 -0.7643  0.5042 -1.2521
  559MOL0     C75345   0.398   4.613   4.797 -0.3332 -0.1913 -1.1478
  559MOL0     C75346   0.545   4.580   4.833 -0.1986 -0.5196  1.3523
  559MOL0     N75347   0.567   4.569   4.980  0.2057 -0.1299 -0.7627
  559MOL0     C75348   0.489   4.501   5.064 -0.2285  0.6052 -0.7846
  559MOL0     C75349   0.523   4.530   5.196 -0.2128 -0.3278 -0.2252
  559MOL0     C75350   0.431   4.488   5.309 -0.4358  0.9398  0.6130
  559MOL0     C75351   0.477   4.541   5.446 -0.6860 -0.6494 -0.5030
  559MOL0     C75352   0.556   4.428   5.522  1.0130 -0.4502  1.0789
  559MOL0     C75353   0.693   4.410   5.465 -0.5579 -0.2678 -0.0964
  559MOL0     O75354   0.760   4.307   5.533 -0.3694  0.1738  0.2578
  559MOL0     C75355   0.727   4.175   5.525  0.1683 -0.4726 -0.4470
  559MOL0     C75356   0.637   4.116   5.438  0.4335  0.7323  0.6469
  559MOL0     C75357   0.621   3.980   5.439 -0.4268 -0.0863  0.5549
  559MOL0     C75358   0.687   3.899   5.534 -0.0649  0.1248  0.3058
  559MOL0     C75359   0.667   3.752   5.523 -0.4246 -0.1797 -0.2576
  559MOL0     O75360   0.639   3.697   5.403  0.9000 -1.3149  0.0015
  559MOL0     C75361   0.606   3.562   5.399 -0.0025 -0.2563 -0.5722
  559MOL0     C75362   0.478   3.526   5.420  0.0540  0.2521 -0.3922
  559MOL0     C75363   0.439   3.394   5.404 -0.2069  0.1169  0.6081
  559MOL0     C75364   0.528   3.288   5.374  1.1130 -0.4657 -0.9079
  559MOL0     O75365   0.476   3.164   5.366  0.3051  0.0850 -0.3008
  559MOL0     C75366   0.552   3.047   5.328  0.7400  0.5441  0.3171
  559MOL0     C75367   0.588   3.041   5.173  0.6813  0.0706  0.3646
  559MOL0     C75368   0.463   3.042   5.080 -0.2805  0.4625  0.4610
  559MOL0     C75369   0.481   2.967   4.939 -0.4096 -0.5123  0.1329
  559MOL0     C75370   0.360   2.990   4.854 -0.4830 -0.5101  0.0692
  559MOL0     C75371   0.358   2.917   4.723 -0.0383 -0.3062 -0.0727
  559MOL0     C75372   0.279   2.999   4.620  0.1308  0.7067 -0.3968
  559MOL0     C75373   0.366   3.096   4.541  0.4736  0.5766 -0.1977
  559MOL0    Cl75374   0.482   3.000   4.432 -0.1665 -0.1412 -0.4787
  559MOL0     C75375   0.666   3.323   5.355  0.5395  0.1173  0.5244
  559MOL0     C75376   0.700   3.465   5.359  0.6144  0.2619 -0.1897
  559MOL0     O75377   0.682   3.690   5.630 -0.0021 -0.0985  0.6595
  559MOL0     C75378   0.767   3.955   5.631  0.0203  0.8815 -0.3345
  559MOL0     C75379   0.791   4.096   5.627 -1.4136 -0.0510  0.4635
  559MOL0     N75380   0.618   4.639   5.184 -0.2947 -0.0821  0.4903
  559MOL0     N75381   0.649   4.651   5.057  0.6487  0.4461  0.2110
  559MOL0     C75382   0.320   4.872   4.117 -0.2472  0.5632 -0.3005
  559MOL0     C75383   0.331   5.004   4.073 -0.5946 -1.0661 -0.3700
  559MOL0     C75384   0.518   5.365   3.815  0.7751 -0.1378  1.0169
  559MOL0     C75385   0.623   5.464   3.798 -0.2261 -0.4438 -0.5511
  559MOL0     C75386   0.576   5.588   3.744 -0.4380  0.0669  0.0519
  559MOL0     C75387   0.447   5.627   3.714  0.9012  0.1035  1.4393
  559MOL0     O75388   0.404   5.741   3.660 -0.6397 -0.2972  0.1355
  559MOL0     C75389   0.494   5.856   3.663  1.5015 -0.0242 -0.7612
  559MOL0     C75390   0.418   5.983   3.624  0.2176  0.3225  0.8592
  559MOL0     C75391   0.325   5.945   3.511  0.0877 -0.2578  0.1172
  559MOL0     C75392   0.253   6.058   3.437 -0.2391 -0.2362 -1.2630
  559MOL0     C75393   0.161   5.995   3.341 -1.2770 -0.0544 -0.3069
  559MOL0     C75394   0.094   5.939   3.263  0.5843  0.8291 -0.6907
  559MOL0     C75395   0.350   5.527   3.727 -1.0645  0.4496  0.3873
  559MOL0     C75396   0.383   5.401   3.768  1.0433 -0.0022  0.0646
  559MOL0     C75397   0.281   5.293   3.727  0.9589 -0.1277 -0.6726
  559MOL0     H75398   0.597   4.957   3.844 -0.9962  0.7936 -1.0675
  559MOL0     H75399   0.610   4.759   3.962 -1.5039 -1.4923 -1.8115
  559MOL0     H75400   0.220   4.629   4.166  1.2050 -0.0937  1.3387
  559MOL0     H75401   0.269   4.557   4.015 -1.8527 -1.4325  0.2091
  559MOL0     H75402   0.436   4.428   4.181 -0.0862 -1.3002 -2.0274
  559MOL0     H75403   0.280   4.368   4.138  1.3188  0.0893 -1.8072
  559MOL0     H75404   0.285   4.349   4.380  0.2920 -0.5142 -1.6626
  559MOL0     H75405   0.179   4.492   4.339 -0.0986  0.9644 -2.1366
  559MOL0     H75406   0.478   4.509   4.425 -1.8437 -2.1442  2.5728
  559MOL0     H75407   0.362   4.645   4.396  0.2182  1.1895 -0.1309
  559MOL0     H75408   0.221   4.516   4.570  0.0933 -0.9644 -1.7629
  559MOL0     H75409   0.362   4.433   4.622 -0.3987  1.8824  1.9642
  559MOL0     H75410   0.481   4.678   4.614 -1.4162  1.3344 -2.4515
  559MOL0     H75411   0.319   4.732   4.634  0.9717  1.9960  0.2681
  559MOL0     H75412   0.331   4.529   4.819 -2.0003  1.1280 -0.9589
  559MOL0     H75413   0.369   4.701   4.855 -1.4640 -1.8484  0.9836
  559MOL0     H75414   0.570   4.488   4.780  0.5371 -0.4422  1.5534
  559MOL0     H75415   0.619   4.657   4.810 -2.8633  2.9049  3.1999
  559MOL0     H75416   0.417   4.424   5.038 -1.9618  0.8421  2.6951
  559MOL0     H75417   0.335   4.538   5.296  0.8365  3.4927  0.4005
  559MOL0     H75418   0.427   4.379   5.318  1.6953  0.8270  0.7130
  559MOL0     H75419   0.534   4.632   5.426  1.9814 -2.0998  0.0472
  559MOL0     H75420   0.394   4.576   5.507 -1.5021  0.3420 -2.1132
  559MOL0     H75421   0.498   4.336   5.514  0.4379  0.1055 -2.8193
  559MOL0     H75422   0.574   4.447   5.629  1.0173 -2.6599  1.5225
  559MOL0     H75423   0.757   4.498   5.465 -1.8637  0.7845  2.5347
  559MOL0     H75424   0.685   4.387   5.358 -0.5284 -3.2979  0.4513
  559MOL0     H75425   0.600   4.172   5.352 -1.4304 -1.9675 -0.4556
  559MOL0     H75426   0.561   3.939   5.358 -2.5268 -1.1415  2.5168
  559MOL0     H75427   0.397   3.594   5.443 -1.0908 -1.2547  0.2442
  559MOL0     H75428   0.338   3.362   5.427 -0.6127 -0.1827 -1.4709
  559MOL0     H75429   0.641   3.014   5.384  0.7971 -1.5527 -0.9250
  559MOL0     H75430   0.482   2.965   5.345  0.9346 -0.3318 -2.6090
  559MOL0     H75431   0.642   3.134   5.155  0.5742  0.0581 -0.0232
  559MOL0     H75432   0.653   2.959   5.140  0.5525  0.2458 -0.3239
  559MOL0     H75433   0.377   2.996   5.129  0.9673 -0.4386  1.8904
  559MOL0     H75434   0.438   3.141   5.041 -3.5083  0.5855  2.4965
  559MOL0     H75435   0.495   2.860   4.959  0.3838 -0.3356  0.5221
  559MOL0     H75436   0.568   3.008   4.888  1.1362 -1.4024  1.9333
  559MOL0     H75437   0.343   3.097   4.844 -1.0725 -0.3901  1.9200
  559MOL0     H75438   0.278   2.957   4.918  0.6910 -0.8894  1.4394
  559MOL0     H75439   0.461   2.902   4.690 -0.1003  0.5362 -0.6720
  559MOL0     H75440   0.313   2.818   4.738 -2.0289  0.7983  1.9567
  559MOL0     H75441   0.202   3.055   4.673  0.8668 -1.2054  3.0106
  559MOL0     H75442   0.222   2.935   4.552 -1.6766  0.8089  0.9590
  559MOL0     H75443   0.295   3.161   4.490  2.3198  1.0095 -2.3463
  559MOL0     H75444   0.429   3.152   4.611  2.6982 -0.8399 -0.9477
  559MOL0     H75445   0.733   3.243   5.324 -1.9866 -2.3623  1.1040
  559MOL0     H75446   0.796   3.499   5.321 -1.1025  3.1676 -2.2788
  559MOL0     H75447   0.814   3.908   5.716  1.3927  0.4737 -1.2792
  559MOL0     H75448   0.847   4.137   5.711 -0.7025  0.3984 -0.2185
  559MOL0     H75449   0.240   4.851   4.186 -1.9556  1.8756 -1.7720
  559MOL0     H75450   0.267   5.081   4.114  0.5718  0.5275 -1.4180
  559MOL0     H75451   0.725   5.455   3.836 -1.3850  1.4940  3.5593
  559MOL0     H75452   0.644   5.668   3.718  1.3471 -0.9891  1.1991
  559MOL0     H75453   0.576   5.834   3.595  2.3606 -0.4783  0.3875
  559MOL0     H75454   0.535   5.865   3.764  0.3866 -1.0636 -0.1745
  559MOL0     H75455   0.474   6.073   3.596  0.5527  0.7794  2.8068
  559MOL0     H75456   0.355   6.011   3.710  3.4138  1.6891  2.9686
  559MOL0     H75457   0.249   5.879   3.554  0.8956 -1.1927  0.1576
  559MOL0     H75458   0.359   5.871   3.438 -3.9519 -3.2045  0.8613
  559MOL0     H75459   0.189   6.112   3.507  1.1560 -0.4439  0.2326
  559MOL0     H75460   0.327   6.122   3.388  1.1575  0.0531  1.0827
  559MOL0     H75461   0.029   5.897   3.189  1.0431 -0.2311 -0.5160
  559MOL0     H75462   0.252   5.542   3.682 -2.7421 -4.2094  1.9257
  559MOL0     H75463   0.246   5.224   3.805 -0.8343  2.9553  1.4863
  559MOL0     H75464   0.195   5.347   3.685  0.0860  1.3746  2.6513
  559MOL0     H75465   0.322   5.233   3.646 -0.6858 -0.1107 -1.5530
  560MOL0     O75466  10.218   8.281   6.450 -0.1951 -0.7793  1.0604
  560MOL0     C75467  10.253   8.198   6.369  0.1033 -0.2897 -0.5371
  560MOL0     O75468  10.366   8.125   6.376 -0.1958 -0.4464 -0.4557
  560MOL0     C75469  10.423   8.127   6.504 -0.5325 -0.2554 -0.1194
  560MOL0     C75470  10.397   8.025   6.600 -0.0192  0.1945  1.0794
  560MOL0     C75471  10.449   8.029   6.723 -0.0921  0.3536 -0.3077
  560MOL0     C75472  10.534   8.125   6.768  0.1231  0.7422 -0.2412
  560MOL0     O75473  10.591   8.127   6.892  0.5968  0.1306  0.6748
  560MOL0     C75474  10.494   8.098   6.994 -0.7447 -0.5214 -0.5428
  560MOL0     C75475  10.537   8.145   7.130 -0.1118  0.6257 -0.1102
  560MOL0     C75476  10.462   8.066   7.247  0.7706 -1.2051 -0.3715
  560MOL0     C75477  10.442   8.154   7.375  0.5383  0.3898 -0.2339
  560MOL0     C75478  10.350   8.077   7.475 -0.3759 -0.2471  0.9052
  560MOL0     C75479  10.305   8.153   7.596 -0.4543 -0.0187  0.2757
  560MOL0     C75480  10.259   8.303   7.577  0.3399 -0.4555  1.3985
  560MOL0     C75481  10.126   8.324   7.512  0.0550  0.6316  0.4954
  560MOL0     N75482  10.137   8.326   7.369 -0.8675 -0.3046 -0.6571
  560MOL0     C75483  10.173   8.441   7.288  1.2005  0.8732  0.1453
  560MOL0     C75484  10.182   8.392   7.166 -0.5732 -0.1811  0.3776
  560MOL0     C75485  10.208   8.472   7.050 -0.4962 -0.6568  0.1915
  560MOL0     C75486  10.170   8.391   6.921  0.1060  0.9641 -0.6728
  560MOL0     C75487  10.193   8.476   6.796  0.1990  0.1005  0.1579
  560MOL0     C75488  10.086   8.459   6.692  1.5156 -0.6996 -0.3917
  560MOL0     O75489   9.964   8.536   6.703  0.0637 -0.1156 -0.2041
  560MOL0     C75490   9.834   8.484   6.717 -0.2366  0.1633  0.7540
  560MOL0     C75491   9.792   8.344   6.697 -0.5132  0.0547  0.5622
  560MOL0     C75492   9.660   8.305   6.701  0.0868  0.7142  0.6738
  560MOL0     C75493   9.558   8.406   6.698 -0.5072 -0.4693 -0.9113
  560MOL0     C75494   9.419   8.367   6.689 -0.3793  0.1464 -0.4592
  560MOL0     O75495   9.318   8.471   6.690 -0.8181  1.0213  0.1611
  560MOL0     C75496   9.189   8.434   6.693  0.8381  0.2845 -0.4472
  560MOL0     C75497   9.130   8.358   6.790  0.5908 -0.3776  0.7195
  560MOL0     C75498   8.997   8.320   6.775 -0.7067 -0.5554  0.5681
  560MOL0     C75499   8.927   8.359   6.655 -1.1177  0.1250  0.0444
  560MOL0     O75500   8.792   8.325   6.617 -0.1440  0.0337 -0.1440
  560MOL0     C75501   8.729   8.239   6.714 -0.6903 -0.3880 -0.0002
  560MOL0     C75502   8.588   8.225   6.670 -0.1793 -0.0448 -0.3090
  560MOL0     C75503   8.579   8.148   6.537 -0.1850  0.0025  1.0182
  560MOL0     C75504   8.574   8.225   6.408 -0.2766  0.6826  0.2709
  560MOL0     C75505   8.431   8.285   6.383 -0.1544  0.1174 -0.1505
  560MOL0     C75506   8.437   8.368   6.262  0.4364 -0.3646 -0.6692
  560MOL0     C75507   8.307   8.382   6.191 -0.4555  0.2041  1.0518
  560MOL0     C75508   8.315   8.473   6.064  0.3987  0.0766 -0.2646
  560MOL0    Cl75509   8.176   8.450   5.952 -0.0231  0.0011  0.0913
  560MOL0     C75510   8.988   8.434   6.556 -0.0129 -0.3822 -0.7175
  560MOL0     C75511   9.123   8.468   6.578  0.3383 -0.1702  0.1566
  560MOL0     O75512   9.386   8.244   6.680 -0.2405 -0.4513 -0.0045
  560MOL0     C75513   9.592   8.549   6.713 -0.9138 -0.6300 -0.0911
  560MOL0     C75514   9.737   8.581   6.716  0.5146 -0.3236 -0.7370
  560MOL0     N75515  10.142   8.256   7.166  0.7202 -0.5383 -0.4123
  560MOL0     N75516  10.118   8.218   7.291 -0.0011  0.7078 -0.2688
  560MOL0     C75517  10.569   8.227   6.682  0.3735  1.0225 -0.1564
  560MOL0     C75518  10.503   8.230   6.554  0.2580  0.3672 -0.8977
  560MOL0     C75519  10.156   8.175   6.259  0.0293 -0.0407  0.3012
  560MOL0     C75520  10.192   8.223   6.129 -1.0381 -0.8076  0.0159
  560MOL0     C75521  10.113   8.202   6.020 -1.3511  0.3558 -0.1971
  560MOL0     C75522   9.992   8.130   6.041 -0.5302 -0.3857  0.3446
  560MOL0     O75523   9.912   8.107   5.921  0.2906 -0.3242 -0.5052
  560MOL0     C75524   9.910   8.215   5.837  0.0847 -0.1440 -0.8391
  560MOL0     C75525   9.789   8.201   5.744  0.7505 -0.0080  0.1178
  560MOL0     C75526   9.791   8.087   5.642  0.3000  0.1083  0.3240
  560MOL0     C75527   9.867   8.119   5.524 -0.8779 -0.3561 -0.0228
  560MOL0     C75528   9.789   8.191   5.413  0.4164  1.0007  0.1724
  560MOL0     C75529   9.732   8.245   5.315  0.3169  0.4076 -0.1976
  560MOL0     C75530   9.958   8.080   6.165 -0.3464 -1.0564 -0.7565
  560MOL0     C75531  10.036   8.106   6.270 -0.5715  0.8037  0.6620
  560MOL0     C75532  10.000   8.030   6.396 -0.1310  0.5343  0.7268
  560MOL0     H75533  10.323   7.947   6.581  1.9913 -1.3208 -1.1489
  560MOL0     H75534  10.435   7.947   6.793  0.0216  0.6230  0.0286
  560MOL0     H75535  10.404   8.156   6.973 -2.9700 -1.1358  5.4738
  560MOL0     H75536  10.473   7.991   6.999 -0.9172 -0.4515  0.5249
  560MOL0     H75537  10.513   8.250   7.143 -2.3588 -0.1295  2.7584
  560MOL0     H75538  10.646   8.138   7.139 -0.2445 -2.0760  0.5504
  560MOL0     H75539  10.481   7.962   7.274 -3.4553 -1.4392  2.6876
  560MOL0     H75540  10.364   8.055   7.199 -0.5063  2.9682  0.8316
  560MOL0     H75541  10.542   8.154   7.419  0.9504 -1.7500 -1.0163
  560MOL0     H75542  10.405   8.254   7.352  0.4469  0.5541  0.5754
  560MOL0     H75543  10.260   8.051   7.419 -1.5907  0.4897  2.4188
  560MOL0     H75544  10.402   7.984   7.497  0.7566  0.3525  0.8268
  560MOL0     H75545  10.226   8.088   7.635 -1.1342  0.8798  0.4281
  560MOL0     H75546  10.389   8.157   7.666  1.5890  3.3720 -2.0738
  560MOL0     H75547  10.339   8.366   7.537  1.2499 -1.8304  1.0029
  560MOL0     H75548  10.249   8.344   7.678 -2.9493  0.8809  0.6650
  560MOL0     H75549  10.067   8.233   7.528  1.7409 -1.2278 -2.8843
  560MOL0     H75550  10.069   8.412   7.545 -1.0765  0.2692 -0.4568
  560MOL0     H75551  10.181   8.543   7.324 -0.2939  0.6619  1.1987
  560MOL0     H75552  10.157   8.569   7.058 -2.2785 -1.6928  2.9648
  560MOL0     H75553  10.316   8.485   7.060 -0.8286  4.2865  0.0420
  560MOL0     H75554  10.212   8.291   6.904  1.9066  1.0829  2.2825
  560MOL0     H75555  10.063   8.370   6.932  0.3525  0.5290  1.1629
  560MOL0     H75556  10.295   8.452   6.766 -0.8571 -1.7653 -2.2067
  560MOL0     H75557  10.190   8.575   6.844 -0.3373 -0.5215  1.4815
  560MOL0     H75558  10.060   8.352   6.698 -0.5558 -0.1601  1.4789
  560MOL0     H75559  10.135   8.470   6.595 -0.1741  2.3291 -1.0051
  560MOL0     H75560   9.863   8.262   6.685 -1.0714 -0.4301  0.4896
  560MOL0     H75561   9.643   8.198   6.690 -0.7058  1.0868 -2.8124
  560MOL0     H75562   9.189   8.336   6.879 -2.6573  1.7098  3.6887
  560MOL0     H75563   8.949   8.268   6.856  0.0506 -1.4718  0.4542
  560MOL0     H75564   8.779   8.142   6.721  1.5969  0.5514 -2.0161
  560MOL0     H75565   8.733   8.290   6.810  4.9574 -0.7285  0.2964
  560MOL0     H75566   8.537   8.165   6.746  0.0716  0.0234 -0.0886
  560MOL0     H75567   8.532   8.318   6.680  0.3704  0.0150  3.6381
  560MOL0     H75568   8.664   8.080   6.536  1.0912  1.5098 -0.8992
  560MOL0     H75569   8.484   8.093   6.537  0.7491 -1.7034 -0.0551
  560MOL0     H75570   8.593   8.156   6.325  1.9023  2.3753 -0.7302
  560MOL0     H75571   8.639   8.311   6.395 -1.4989  1.2651 -3.2457
  560MOL0     H75572   8.397   8.357   6.459 -0.8290 -2.8552  2.5614
  560MOL0     H75573   8.351   8.211   6.374 -0.7878  0.3123  2.7780
  560MOL0     H75574   8.492   8.462   6.271  2.8813 -1.8326  0.6577
  560MOL0     H75575   8.493   8.306   6.191 -0.2261 -0.1070 -1.4347
  560MOL0     H75576   8.224   8.429   6.245 -1.2959  0.0516 -0.0642
  560MOL0     H75577   8.274   8.281   6.163  1.3088  0.0537 -0.6727
  560MOL0     H75578   8.310   8.572   6.109  2.3927 -0.1389  0.5557
  560MOL0     H75579   8.412   8.456   6.015 -0.2945  1.7226 -2.3643
  560MOL0     H75580   8.936   8.468   6.468  1.4431  0.0948 -1.4279
  560MOL0     H75581   9.168   8.520   6.495  1.1589 -0.7052  0.2596
  560MOL0     H75582   9.521   8.631   6.712  0.1309  0.4056  2.2544
  560MOL0     H75583   9.784   8.679   6.715  0.8273 -0.4652 -1.7916
  560MOL0     H75584  10.641   8.307   6.698  0.4305  1.9150 -3.9548
  560MOL0     H75585  10.524   8.304   6.477  3.3948 -1.1435 -1.6783
  560MOL0     H75586  10.286   8.275   6.116 -1.5266 -0.3417 -1.8535
  560MOL0     H75587  10.146   8.226   5.920 -2.7526 -1.8863 -1.2723
  560MOL0     H75588   9.994   8.213   5.767  2.1208 -2.9787  1.4834
  560MOL0     H75589   9.900   8.306   5.898  2.3541  0.3237 -1.0741
  560MOL0     H75590   9.794   8.292   5.683 -1.0209 -1.3840 -2.2419
  560MOL0     H75591   9.709   8.188   5.818  1.1642  0.7268  0.7177
  560MOL0     H75592   9.685   8.074   5.619  0.0512  1.3031  0.7140
  560MOL0     H75593   9.837   7.997   5.684  3.1444  1.2102 -0.1684
  560MOL0     H75594   9.954   8.181   5.547 -1.5790  0.8608 -0.5436
  560MOL0     H75595   9.898   8.025   5.477 -1.6784 -0.4101 -0.4685
  560MOL0     H75596   9.690   8.301   5.234  0.8899  0.2040 -0.6436
  560MOL0     H75597   9.866   8.023   6.177 -0.5785 -0.4777  0.3049
  560MOL0     H75598  10.056   7.936   6.400  0.7515  1.0438  0.5114
  560MOL0     H75599  10.014   8.095   6.482  2.4326  1.6697 -0.4380
  560MOL0     H75600   9.893   8.009   6.400 -0.0091 -0.6405 -0.9155
  561MOL0     O75601   8.324   7.216   6.356 -0.1174 -0.1855 -0.7164
  561MOL0     C75602   8.227   7.172   6.291 -0.7800 -0.3241 -0.6989
  561MOL0     O75603   8.198   7.038   6.272 -0.0232 -0.7782 -0.5577
  561MOL0     C75604   8.261   6.956   6.357 -0.9224  0.6235  0.5083
  561MOL0     C75605   8.365   6.880   6.316  0.1133  0.2193 -0.9852
  561MOL0     C75606   8.419   6.778   6.405 -0.1475 -0.0030 -0.5370
  561MOL0     C75607   8.370   6.768   6.541  0.4719 -0.2941 -0.5518
  561MOL0     O75608   8.439   6.680   6.620 -0.4667 -1.4705  0.3717
  561MOL0     C75609   8.450   6.708   6.764 -0.5518 -1.3871 -0.0024
  561MOL0     C75610   8.342   6.649   6.857  0.2006  0.0772 -0.5976
  561MOL0     C75611   8.320   6.741   6.985  0.5379  1.0801  0.7198
  561MOL0     C75612   8.221   6.675   7.090 -0.8696  0.0785  1.5645
  561MOL0     C75613   8.081   6.696   7.056  0.3648  1.3166 -0.6607
  561MOL0     C75614   7.984   6.630   7.173  0.3120  0.8784 -0.4206
  561MOL0     C75615   7.835   6.642   7.137 -0.7418  0.8450 -0.2431
  561MOL0     C75616   7.773   6.776   7.099  0.0321 -1.4845  0.2324
  561MOL0     N75617   7.662   6.752   7.001 -0.3891 -0.9662 -0.1845
  561MOL0     C75618   7.610   6.855   6.919 -0.7355 -0.0852 -1.0755
  561MOL0     C75619   7.512   6.788   6.850 -0.2668 -0.3711  0.0260
  561MOL0     C75620   7.448   6.844   6.729  0.5365 -0.5552  0.8101
  561MOL0     C75621   7.296   6.793   6.717  0.4012 -0.2808 -0.6322
  561MOL0     C75622   7.210   6.840   6.595 -0.5032 -0.0802 -0.4024
  561MOL0     C75623   7.301   6.851   6.467  0.4431  0.4903  0.4345
  561MOL0     O75624   7.364   6.721   6.440 -0.3158  1.6255  1.3330
  561MOL0     C75625   7.340   6.645   6.331 -0.2494 -0.1129  0.0381
  561MOL0     C75626   7.430   6.548   6.288 -0.2961  0.5466  0.1517
  561MOL0     C75627   7.396   6.469   6.177 -0.5456 -0.5826 -0.8849
  561MOL0     C75628   7.275   6.478   6.114 -0.2641 -0.1297  0.3805
  561MOL0     C75629   7.252   6.413   5.982 -0.4636 -0.4810  0.8762
  561MOL0     O75630   7.363   6.348   5.935  1.1574  0.0984  0.3187
  561MOL0     C75631   7.384   6.310   5.802 -0.2752  0.5332 -0.9027
  561MOL0     C75632   7.286   6.260   5.705 -0.1458 -0.8526 -1.2481
  561MOL0     C75633   7.336   6.233   5.579  0.5230  0.6686  0.0676
  561MOL0     C75634   7.476   6.214   5.551 -0.8956  0.0823  0.3793
  561MOL0     O75635   7.523   6.169   5.426  0.5357 -0.4716 -0.0120
  561MOL0     C75636   7.442   6.157   5.313  0.3128  0.7995  0.1652
  561MOL0     C75637   7.519   6.155   5.176 -0.1682 -0.3607 -0.2287
  561MOL0     C75638   7.622   6.043   5.165 -0.0988 -0.7240  0.6144
  561MOL0     C75639   7.689   6.046   5.026  0.0209  0.1561  0.4990
  561MOL0     C75640   7.801   5.945   5.033  0.1558 -0.5134  0.5623
  561MOL0     C75641   7.766   5.803   5.066 -0.2367 -0.7621  0.7899
  561MOL0     C75642   7.889   5.704   5.038 -0.2390  0.1134  0.2426
  561MOL0     C75643   8.009   5.730   5.126  0.5787  0.6444  0.1578
  561MOL0    Cl75644   8.116   5.584   5.153  0.0072 -0.2227  0.2368
  561MOL0     C75645   7.565   6.244   5.650  0.3545 -0.0965  0.9017
  561MOL0     C75646   7.519   6.305   5.765  0.4424  0.2953 -0.4853
  561MOL0     O75647   7.147   6.438   5.921  0.0118  0.0144 -0.2043
  561MOL0     C75648   7.181   6.562   6.164 -0.8681 -0.1331  1.0759
  561MOL0     C75649   7.217   6.652   6.267 -0.3750  0.2087 -0.3688
  561MOL0     N75650   7.504   6.658   6.890 -0.6387  0.6266 -0.9723
  561MOL0     N75651   7.590   6.645   6.985  0.7521  0.8038 -0.2331
  561MOL0     C75652   8.267   6.858   6.576  1.0581  0.3228 -0.0287
  561MOL0     C75653   8.218   6.949   6.483 -0.1345  0.1872 -1.0019
  561MOL0     C75654   8.143   7.275   6.225  0.1868  0.0124 -0.2695
  561MOL0     C75655   8.004   7.253   6.204  0.1601  0.4153  0.3883
  561MOL0     C75656   7.920   7.333   6.125 -0.0786 -0.0278 -0.2057
  561MOL0     C75657   7.965   7.449   6.079  0.7150 -0.0650 -0.5343
  561MOL0     O75658   7.880   7.545   6.031  0.2470 -0.0152  0.3147
  561MOL0     C75659   7.807   7.515   5.906  0.0520  0.2767  0.4687
  561MOL0     C75660   7.712   7.629   5.884  0.7132 -0.9291  1.1214
  561MOL0     C75661   7.792   7.759   5.883 -0.3922 -0.5450 -0.1261
  561MOL0     C75662   7.732   7.871   5.794  0.6103  0.4474 -0.2462
  561MOL0     C75663   7.642   7.958   5.880  0.8020 -0.6035 -0.1995
  561MOL0     C75664   7.573   8.018   5.959 -0.3064  0.1542 -0.0118
  561MOL0     C75665   8.098   7.486   6.110  0.7704  0.4065  0.0506
  561MOL0     C75666   8.188   7.398   6.176  0.3644 -0.4549 -0.2995
  561MOL0     C75667   8.328   7.455   6.201 -0.0863  0.3541 -0.0843
  561MOL0     H75668   8.390   6.880   6.210  0.3301  1.5977 -0.9522
  561MOL0     H75669   8.495   6.709   6.371  2.2169  0.6496  2.9078
  561MOL0     H75670   8.539   6.668   6.814  0.8704 -0.4281 -1.6422
  561MOL0     H75671   8.458   6.816   6.777  0.7156 -1.5387  0.5997
  561MOL0     H75672   8.359   6.544   6.881  0.7115  0.4760  0.8839
  561MOL0     H75673   8.252   6.636   6.795  1.0534 -1.3970 -1.5774
  561MOL0     H75674   8.291   6.844   6.961  1.1601  1.0043 -0.4444
  561MOL0     H75675   8.414   6.728   7.040 -0.4858 -0.3186  2.2326
  561MOL0     H75676   8.242   6.569   7.110  2.4100  0.4442  0.6226
  561MOL0     H75677   8.223   6.732   7.183 -1.0671 -3.1411  3.7140
  561MOL0     H75678   8.064   6.804   7.046  3.9890  1.9507 -1.7234
  561MOL0     H75679   8.058   6.637   6.967  0.8328 -2.1270  1.3283
  561MOL0     H75680   8.017   6.526   7.180 -2.1309 -0.0233 -1.1055
  561MOL0     H75681   8.003   6.676   7.271  0.8990 -1.9948  0.9379
  561MOL0     H75682   7.781   6.594   7.219 -0.0889 -1.6050 -1.1562
  561MOL0     H75683   7.834   6.571   7.054  0.2450  0.2439  0.2465
  561MOL0     H75684   7.751   6.834   7.189  0.0310  0.9958 -1.3024
  561MOL0     H75685   7.838   6.847   7.046  2.6191 -1.3082  3.2910
  561MOL0     H75686   7.654   6.953   6.908 -0.0087 -0.2378  0.2274
  561MOL0     H75687   7.459   6.953   6.726  0.0055 -0.5156 -0.0685
  561MOL0     H75688   7.497   6.789   6.648 -1.3969 -0.6322 -0.3675
  561MOL0     H75689   7.275   6.686   6.732 -1.6674  0.0977 -0.5250
  561MOL0     H75690   7.248   6.843   6.801  1.7915  1.1657 -0.6658
  561MOL0     H75691   7.170   6.938   6.619  0.0063 -0.2353  1.1756
  561MOL0     H75692   7.126   6.770   6.588  0.0049 -1.1394  2.6070
  561MOL0     H75693   7.377   6.928   6.482  1.0315  0.1091 -0.4771
  561MOL0     H75694   7.244   6.891   6.382  0.5608 -0.5118 -0.1389
  561MOL0     H75695   7.530   6.528   6.327  0.5632 -1.1060 -2.6387
  561MOL0     H75696   7.471   6.397   6.146 -1.8689 -2.8244  0.8233
  561MOL0     H75697   7.180   6.278   5.717  0.1500  0.7836 -0.7308
  561MOL0     H75698   7.265   6.215   5.499 -1.2125  2.1896  1.1785
  561MOL0     H75699   7.361   6.084   5.324  0.9564 -0.2790 -1.7276
  561MOL0     H75700   7.385   6.249   5.324  0.1153  1.0064 -2.0816
  561MOL0     H75701   7.450   6.130   5.094  0.6756 -4.2202  0.0191
  561MOL0     H75702   7.561   6.254   5.158  2.3165 -1.5272 -1.3432
  561MOL0     H75703   7.695   6.075   5.239 -1.4259  0.8421  1.2855
  561MOL0     H75704   7.569   5.947   5.175  1.2670 -1.6258 -0.4136
  561MOL0     H75705   7.722   6.150   5.017  1.0447 -0.0304  1.8926
  561MOL0     H75706   7.616   6.023   4.947 -0.0446  0.1458  0.5614
  561MOL0     H75707   7.874   5.993   5.100  0.7442  0.6652 -0.8642
  561MOL0     H75708   7.852   5.939   4.937 -0.5749  3.5577 -0.2918
  561MOL0     H75709   7.735   5.784   5.169  3.3246 -1.8053  1.8244
  561MOL0     H75710   7.689   5.771   4.995 -0.5989  0.5589  0.5749
  561MOL0     H75711   7.920   5.711   4.933 -0.7788  1.4683  0.1474
  561MOL0     H75712   7.859   5.600   5.050  0.0535 -0.0181 -0.1581
  561MOL0     H75713   8.074   5.805   5.080 -0.9386  0.7051 -2.0265
  561MOL0     H75714   7.973   5.772   5.220  0.2625 -1.1823  0.8940
  561MOL0     H75715   7.668   6.220   5.625 -0.5922 -1.8189 -1.7875
  561MOL0     H75716   7.597   6.328   5.836  0.1319 -0.4064  0.0885
  561MOL0     H75717   7.085   6.549   6.114  0.8205 -1.0517 -2.2480
  561MOL0     H75718   7.139   6.718   6.304 -0.9552 -1.5253  1.7002
  561MOL0     H75719   8.224   6.875   6.674 -3.1370  0.4837 -1.6908
  561MOL0     H75720   8.153   7.031   6.511 -1.0013 -1.0319  0.6757
  561MOL0     H75721   7.965   7.158   6.240  0.7889  0.6525  1.7370
  561MOL0     H75722   7.816   7.307   6.113  0.1731 -1.9624  1.2490
  561MOL0     H75723   7.754   7.420   5.920 -0.8910  0.8584  0.9943
  561MOL0     H75724   7.877   7.507   5.823  1.1232 -0.2991  1.4046
  561MOL0     H75725   7.645   7.626   5.970 -0.6833 -0.9247  0.0598
  561MOL0     H75726   7.649   7.609   5.797 -0.2267 -1.7486  1.9698
  561MOL0     H75727   7.889   7.739   5.836  0.1496 -0.3440  0.8745
  561MOL0     H75728   7.813   7.781   5.988 -1.2163 -0.5623  0.0477
  561MOL0     H75729   7.815   7.930   5.754 -0.4380  2.6068  0.5911
  561MOL0     H75730   7.681   7.838   5.702  0.9873  0.8938 -0.6203
  561MOL0     H75731   7.504   8.070   6.022  0.2602 -0.5200  1.2033
  561MOL0     H75732   8.131   7.583   6.075  1.2561  0.3979  0.4691
  561MOL0     H75733   8.335   7.464   6.310 -2.3743  0.7944  0.0920
  561MOL0     H75734   8.402   7.386   6.160 -0.6366 -1.1250  1.3147
  561MOL0     H75735   8.325   7.557   6.162 -3.4522  0.5948  0.4394
  562MOL0     O75736   2.036   1.533   5.805 -0.1509 -0.5169 -0.2170
  562MOL0     C75737   1.975   1.637   5.791 -0.5873  0.0661 -0.7873
  562MOL0     O75738   2.027   1.741   5.723  0.1466  0.3074 -0.2649
  562MOL0     C75739   2.161   1.739   5.688  0.1319 -0.2160  0.8013
  562MOL0     C75740   2.216   1.653   5.588 -0.1463  0.6371 -0.6517
  562MOL0     C75741   2.361   1.643   5.569 -0.6312 -0.0039 -0.4497
  562MOL0     C75742   2.447   1.734   5.639  0.3378  1.0913  0.1076
  562MOL0     O75743   2.577   1.734   5.629 -0.0328 -0.1183 -0.2973
  562MOL0     C75744   2.645   1.617   5.587 -0.1891 -0.3537 -0.6893
  562MOL0     C75745   2.794   1.641   5.619  0.0825 -0.4127  0.4084
  562MOL0     C75746   2.857   1.780   5.596  0.3863  0.2512  0.4283
  562MOL0     C75747   2.867   1.866   5.717  0.0645  0.4153 -0.3252
  562MOL0     C75748   2.913   2.011   5.684 -0.3184 -0.6546 -0.8164
  562MOL0     C75749   2.815   2.087   5.613 -0.3452  0.6356 -0.7901
  562MOL0     C75750   2.846   2.241   5.612 -0.0024  0.3817  0.6483
  562MOL0     C75751   2.778   2.318   5.501  0.4590  0.1926  0.0838
  562MOL0     N75752   2.633   2.296   5.495 -0.1049  0.4944 -0.9198
  562MOL0     C75753   2.574   2.176   5.463  0.4874 -0.0301 -0.0065
  562MOL0     C75754   2.443   2.180   5.518 -0.0949 -0.1681  1.0809
  562MOL0     C75755   2.335   2.072   5.499  1.4987 -0.7838 -0.0041
  562MOL0     C75756   2.240   2.103   5.376 -0.2698 -0.3234  0.1427
  562MOL0     C75757   2.170   1.976   5.315  0.8614  0.0184 -0.3185
  562MOL0     C75758   2.049   1.947   5.401 -0.6835  0.0801  0.2358
  562MOL0     O75759   1.923   2.003   5.361  0.5307  0.1440  0.2605
  562MOL0     C75760   1.841   2.066   5.451 -0.7297  0.2430 -0.3321
  562MOL0     C75761   1.726   2.135   5.409 -0.4441  0.4515 -0.5065
  562MOL0     C75762   1.630   2.182   5.491  0.2952  0.3962 -0.3639
  562MOL0     C75763   1.642   2.171   5.629 -0.0011  0.9600  0.6434
  562MOL0     C75764   1.531   2.226   5.721 -0.1358 -1.3499  0.1468
  562MOL0     O75765   1.519   2.191   5.856  0.6583 -0.3888  0.9304
  562MOL0     C75766   1.408   2.248   5.910  0.9387 -1.1148 -0.4140
  562MOL0     C75767   1.405   2.386   5.933  1.2765 -0.3928 -0.4996
  562MOL0     C75768   1.285   2.448   5.976 -0.1378  0.3765  0.2732
  562MOL0     C75769   1.171   2.372   6.020 -0.4801  0.3266  0.4710
  562MOL0     O75770   1.052   2.419   6.059 -0.2242  0.0990 -0.0363
  562MOL0     C75771   1.027   2.555   6.044 -0.0318  0.3881  0.2581
  562MOL0     C75772   0.880   2.588   6.062  0.2916 -0.2892 -0.8472
  562MOL0     C75773   0.853   2.733   6.026  0.1503  0.3777  0.5362
  562MOL0     C75774   0.699   2.772   6.033 -0.1010 -0.1636 -0.3329
  562MOL0     C75775   0.690   2.923   6.002  0.3174  0.7801  0.4889
  562MOL0     C75776   0.713   2.964   5.853  0.7418  0.5978  0.3567
  562MOL0     C75777   0.687   3.110   5.831  1.3379  0.5652  0.0196
  562MOL0     C75778   0.650   3.137   5.679  0.5136  0.3411 -0.3915
  562MOL0    Cl75779   0.778   3.045   5.590 -0.0491 -1.1780  0.5788
  562MOL0     C75780   1.181   2.228   6.008  0.3889 -0.1604  0.2394
  562MOL0     C75781   1.300   2.166   5.954  0.0774  0.1251 -0.2249
  562MOL0     O75782   1.449   2.293   5.650 -0.9903  0.1943 -1.0820
  562MOL0     C75783   1.754   2.108   5.673 -0.7254 -0.3611 -0.1313
  562MOL0     C75784   1.853   2.055   5.590  1.1518 -0.1459  0.7948
  562MOL0     N75785   2.438   2.294   5.593  0.2316  0.0494 -0.0225
  562MOL0     N75786   2.541   2.363   5.576  0.7368 -0.0046 -0.0096
  562MOL0     C75787   2.392   1.829   5.722 -0.0337 -0.6809 -0.0747
  562MOL0     C75788   2.250   1.824   5.742 -0.9422  0.1652 -0.1910
  562MOL0     C75789   1.858   1.662   5.883  0.1917 -0.4671 -1.1277
  562MOL0     C75790   1.821   1.789   5.909 -0.1873 -0.2478  0.1842
  562MOL0     C75791   1.720   1.827   6.003  1.1227  0.6669 -0.3042
  562MOL0     C75792   1.650   1.725   6.079  0.2546  0.8949  0.1152
  562MOL0     O75793   1.548   1.751   6.171 -0.4364 -0.2332  0.0532
  562MOL0     C75794   1.515   1.894   6.197 -0.3310  0.6533 -0.5287
  562MOL0     C75795   1.412   1.904   6.306 -1.3184 -0.4013  0.0878
  562MOL0     C75796   1.341   2.036   6.303  0.4365 -0.4518  0.5438
  562MOL0     C75797   1.255   2.050   6.431  0.2983 -0.8898 -0.8271
  562MOL0     C75798   1.191   2.184   6.442 -0.5356 -0.0895 -0.1573
  562MOL0     C75799   1.143   2.295   6.454 -0.0006  0.7875 -0.6535
  562MOL0     C75800   1.682   1.589   6.048  0.2260 -0.3781  0.6645
  562MOL0     C75801   1.785   1.555   5.952  0.8680  0.4334  0.0369
  562MOL0     C75802   1.793   1.412   5.910  0.7425 -0.6828 -0.0740
  562MOL0     H75803   2.156   1.583   5.531  0.8862 -2.3219  1.5860
  562MOL0     H75804   2.426   1.577   5.513  1.5134  1.5906  0.0180
  562MOL0     H75805   2.604   1.526   5.630  0.4569 -0.6529 -0.6940
  562MOL0     H75806   2.646   1.614   5.477  3.7488 -0.6571 -0.7716
  562MOL0     H75807   2.853   1.564   5.570  0.6450  0.4804 -0.3534
  562MOL0     H75808   2.812   1.618   5.724 -1.9585 -0.0988  0.8848
  562MOL0     H75809   2.793   1.835   5.527 -0.3256 -1.3707 -0.2406
  562MOL0     H75810   2.959   1.783   5.557  0.3056 -1.7760 -0.0130
  562MOL0     H75811   2.773   1.867   5.774 -1.0830 -1.3620 -2.0709
  562MOL0     H75812   2.938   1.827   5.791 -1.6535 -1.1078  0.5931
  562MOL0     H75813   2.936   2.066   5.776 -2.0694  2.3771 -2.0474
  562MOL0     H75814   3.014   2.008   5.642 -1.0539  0.2048 -2.7267
  562MOL0     H75815   2.803   2.047   5.512  0.5194 -0.3182 -0.5296
  562MOL0     H75816   2.718   2.083   5.665  1.2032 -0.9672  2.2656
  562MOL0     H75817   2.949   2.255   5.578  0.0411 -0.4967  0.4010
  562MOL0     H75818   2.842   2.282   5.713  1.1403 -0.9740  1.2676
  562MOL0     H75819   2.790   2.424   5.525 -3.9888  1.0543 -0.6820
  562MOL0     H75820   2.814   2.289   5.402  1.7104  2.7827 -0.2947
  562MOL0     H75821   2.614   2.104   5.393  1.5590 -1.4501  1.9801
  562MOL0     H75822   2.382   1.975   5.478  1.7964 -0.3237 -1.5554
  562MOL0     H75823   2.270   2.078   5.587  1.2553  1.3451 -0.2948
  562MOL0     H75824   2.173   2.188   5.389  1.6893  1.3890 -0.5180
  562MOL0     H75825   2.312   2.142   5.304  1.8455 -0.6960  1.9364
  562MOL0     H75826   2.242   1.893   5.318 -0.1615 -0.8477  1.1938
  562MOL0     H75827   2.145   2.005   5.212  4.0845  1.2087 -0.8942
  562MOL0     H75828   2.065   1.953   5.509  0.7126  0.8394  0.0123
  562MOL0     H75829   2.028   1.841   5.382  0.8272 -0.3724  0.9275
  562MOL0     H75830   1.723   2.143   5.301  1.7039  1.5523 -0.5310
  562MOL0     H75831   1.558   2.250   5.447 -0.2347  0.2632  0.2920
  562MOL0     H75832   1.480   2.458   5.900  0.7678 -0.3533 -1.6182
  562MOL0     H75833   1.271   2.556   5.972  0.1987  0.6360 -6.7839
  562MOL0     H75834   1.073   2.608   6.128 -1.1676 -0.1124  1.2308
  562MOL0     H75835   1.057   2.595   5.947 -0.6483 -1.2868 -0.6617
  562MOL0     H75836   0.821   2.518   6.002  0.9493 -3.4449  1.8771
  562MOL0     H75837   0.868   2.568   6.169 -1.9966 -0.2558 -1.0485
  562MOL0     H75838   0.911   2.799   6.091 -1.6115  1.4852  1.0406
  562MOL0     H75839   0.892   2.745   5.924  2.4894  1.3847  1.4894
  562MOL0     H75840   0.661   2.753   6.133 -1.7365  3.9988  0.0294
  562MOL0     H75841   0.639   2.711   5.964 -1.3632 -1.1750  1.5832
  562MOL0     H75842   0.768   2.974   6.058  1.3784 -2.6135  2.3769
  562MOL0     H75843   0.592   2.947   6.043  1.1483  2.2931  1.7046
  562MOL0     H75844   0.811   2.930   5.819  1.3763  1.2480  1.4728
  562MOL0     H75845   0.632   2.913   5.799  1.2341 -0.2304  0.3844
  562MOL0     H75846   0.775   3.169   5.857  1.6318  2.5604 -4.5636
  562MOL0     H75847   0.600   3.147   5.887 -1.7268 -1.4174 -3.0574
  562MOL0     H75848   0.547   3.105   5.662  1.6412 -2.5784 -2.6024
  562MOL0     H75849   0.663   3.240   5.645 -0.4802  0.5079 -0.3030
  562MOL0     H75850   1.091   2.172   6.031 -1.5677  1.8127 -2.0869
  562MOL0     H75851   1.297   2.058   5.951 -2.9427  0.0700  1.5476
  562MOL0     H75852   1.772   2.091   5.779  1.8672  1.8414 -0.0969
  562MOL0     H75853   1.941   2.011   5.635  2.1197  0.8660 -0.0691
  562MOL0     H75854   2.465   1.900   5.761  1.6353 -1.0068 -2.3652
  562MOL0     H75855   2.198   1.908   5.786  0.2025  0.5835  0.3870
  562MOL0     H75856   1.872   1.869   5.857  1.9094 -1.5391  0.1342
  562MOL0     H75857   1.690   1.930   6.024  0.0127 -0.2859  3.7278
  562MOL0     H75858   1.485   1.938   6.102  2.2871 -0.9644 -2.2126
  562MOL0     H75859   1.600   1.952   6.232 -0.7652 -0.1230  2.0484
  562MOL0     H75860   1.451   1.871   6.403 -1.8634  1.0579  0.8374
  562MOL0     H75861   1.346   1.823   6.275 -0.2041 -0.1317 -3.3734
  562MOL0     H75862   1.287   2.050   6.209  2.4701 -0.9182 -0.7612
  562MOL0     H75863   1.406   2.124   6.303 -0.0902 -0.0554  0.8784
  562MOL0     H75864   1.190   1.962   6.435 -0.0182 -0.6164  1.8386
  562MOL0     H75865   1.314   2.038   6.522  1.1028  1.9112 -0.8937
  562MOL0     H75866   1.087   2.382   6.480  0.3436  0.8747 -0.1865
  562MOL0     H75867   1.624   1.511   6.096  1.6349  0.5006  4.0880
  562MOL0     H75868   1.814   1.399   5.803 -0.1087 -1.9144 -0.1109
  562MOL0     H75869   1.871   1.365   5.970  1.3078  1.9704  1.4435
  562MOL0     H75870   1.701   1.355   5.927  0.3727 -0.5067 -1.3252
  563MOL0     O75871   9.870   4.341   7.940 -0.1092 -0.3975  0.0824
  563MOL0     C75872   9.893   4.446   7.998 -0.0675  0.0335  0.2710
  563MOL0     O75873   9.985   4.454   8.097  0.2098  0.4554 -0.6453
  563MOL0     C75874  10.084   4.356   8.121  0.6873  0.0606  0.3281
  563MOL0     C75875  10.079   4.302   8.248  0.1367  0.3737  0.1839
  563MOL0     C75876  10.177   4.212   8.292  1.8832  0.1271  0.1030
  563MOL0     C75877  10.266   4.157   8.206 -0.1966 -0.5085  0.0061
  563MOL0     O75878  10.354   4.071   8.249  0.3940 -0.0481 -0.7326
  563MOL0     C75879  10.468   4.040   8.166 -0.0130 -0.4426  0.7147
  563MOL0     C75880  10.562   3.941   8.243 -0.0144 -0.7909  0.5418
  563MOL0     C75881  10.489   3.817   8.286 -0.1613 -0.2513  0.5840
  563MOL0     C75882  10.569   3.684   8.269  0.0027 -0.8628 -0.5751
  563MOL0     C75883  10.489   3.555   8.290  0.5855 -0.3915 -0.4872
  563MOL0     C75884  10.370   3.529   8.194 -0.1955  0.8333 -0.0707
  563MOL0     C75885  10.425   3.544   8.048  0.3703  0.3083  0.4641
  563MOL0     C75886  10.343   3.479   7.935 -0.4825 -0.4157 -0.5574
  563MOL0     N75887  10.337   3.330   7.960 -0.5486  0.1927 -0.1152
  563MOL0     C75888  10.427   3.240   8.018 -0.8684 -2.2118 -0.4084
  563MOL0     C75889  10.385   3.120   7.994 -0.5565  0.5407  0.4663
  563MOL0     C75890  10.448   2.994   8.036  0.1027  0.2063 -0.1617
  563MOL0     C75891  10.526   2.918   7.932  0.9564  0.9609  0.7530
  563MOL0     C75892  10.650   2.982   7.874  1.1161 -0.7328 -0.2577
  563MOL0     C75893  10.650   2.972   7.714 -0.4360 -0.4758 -0.1229
  563MOL0     O75894  10.708   2.845   7.699  0.7537  0.2975  1.0696
  563MOL0     C75895  10.841   2.816   7.708 -0.0086  0.1328  0.0462
  563MOL0     C75896  10.940   2.912   7.702  0.9808 -0.2836 -0.7399
  563MOL0     C75897  11.080   2.871   7.692  1.3073  0.0328 -0.5647
  563MOL0     C75898  11.120   2.736   7.693 -0.5914 -0.1548  0.5326
  563MOL0     C75899  11.261   2.693   7.691  0.2676 -0.6842  0.1843
  563MOL0     O75900  11.283   2.561   7.690  0.5027  0.8901  0.1077
  563MOL0     C75901  11.413   2.507   7.659 -0.0822  0.0893 -0.5599
  563MOL0     C75902  11.503   2.478   7.761 -0.0484 -0.6001  0.8258
  563MOL0     C75903  11.632   2.424   7.724 -0.2838  0.2996  0.1000
  563MOL0     C75904  11.660   2.390   7.591 -0.8896  0.1524 -0.4935
  563MOL0     O75905  11.778   2.322   7.569 -0.2584  0.5390 -0.1787
  563MOL0     C75906  11.784   2.179   7.528  0.2705 -0.9632  0.2801
  563MOL0     C75907  11.717   2.092   7.651  0.6638 -0.8211  0.8364
  563MOL0     C75908  11.718   1.941   7.638 -0.3203 -0.5909 -0.7571
  563MOL0     C75909  11.804   1.866   7.742  0.4927  1.3165  0.6033
  563MOL0     C75910  11.956   1.872   7.702  0.4903 -0.0915 -0.2797
  563MOL0     C75911  12.048   1.785   7.788  0.0987 -0.7019  0.8230
  563MOL0     C75912  12.172   1.737   7.716 -0.2051  0.0759 -0.7282
  563MOL0     C75913  12.278   1.685   7.813  0.2970  0.1202  0.3027
  563MOL0    Cl75914  12.207   1.544   7.886 -0.4263  0.8723 -0.2555
  563MOL0     C75915  11.561   2.413   7.500 -0.6876 -0.8069  0.5604
  563MOL0     C75916  11.449   2.480   7.523  0.1734  0.1974 -0.1707
  563MOL0     O75917  11.351   2.776   7.674  0.6769  1.1848  0.2588
  563MOL0     C75918  11.016   2.637   7.712  0.1314  0.1687  0.2859
  563MOL0     C75919  10.881   2.675   7.716 -0.4389 -0.1143 -0.9242
  563MOL0     N75920  10.277   3.119   7.914  0.1024 -0.1113 -0.3331
  563MOL0     N75921  10.253   3.250   7.894 -0.7772 -0.1403 -0.3643
  563MOL0     C75922  10.268   4.214   8.074  0.7253  0.8809  0.1239
  563MOL0     C75923  10.177   4.316   8.032 -0.2458  0.5835  0.3040
  563MOL0     C75924   9.838   4.573   7.945 -0.3039 -0.6073 -0.0249
  563MOL0     C75925   9.915   4.687   7.928 -0.9476 -0.8458  0.6099
  563MOL0     C75926   9.849   4.806   7.897 -0.3350 -0.3786 -0.1478
  563MOL0     C75927   9.719   4.817   7.845  0.0759  0.5838  0.4396
  563MOL0     O75928   9.669   4.931   7.801  0.2444 -0.8948  0.2438
  563MOL0     C75929   9.532   4.963   7.763 -0.3386  0.5496 -0.1987
  563MOL0     C75930   9.508   4.913   7.627  0.9013  0.0882 -1.0852
  563MOL0     C75931   9.361   4.913   7.593 -0.4245 -1.2268  1.0997
  563MOL0     C75932   9.304   5.052   7.556  0.6002 -0.1398  0.2707
  563MOL0     C75933   9.275   5.123   7.680  0.3397  0.5039  1.4715
  563MOL0     C75934   9.232   5.172   7.780 -1.2294 -0.0421  0.1587
  563MOL0     C75935   9.642   4.696   7.855 -0.7558 -0.5530 -0.8247
  563MOL0     C75936   9.696   4.581   7.909 -0.1014  1.0199 -0.4100
  563MOL0     C75937   9.589   4.477   7.942 -0.4472 -0.0774  0.8567
  563MOL0     H75938   9.999   4.344   8.310 -2.6562 -3.3044 -0.5941
  563MOL0     H75939  10.167   4.172   8.392  0.8754  0.1844  0.0372
  563MOL0     H75940  10.430   4.005   8.070 -3.5379  0.2137  1.7535
  563MOL0     H75941  10.518   4.135   8.145 -1.4779  0.2550  0.3023
  563MOL0     H75942  10.597   3.985   8.337  0.1920  0.3698 -0.0720
  563MOL0     H75943  10.649   3.913   8.182  1.1492 -0.4940  1.9938
  563MOL0     H75944  10.398   3.808   8.226  1.4916  0.1389 -2.1751
  563MOL0     H75945  10.463   3.827   8.391  1.6851  0.1548  1.0474
  563MOL0     H75946  10.619   3.673   8.172  2.2455 -1.4734  0.5740
  563MOL0     H75947  10.649   3.694   8.343  0.9847  0.2947 -1.7444
  563MOL0     H75948  10.543   3.460   8.288  0.7360 -0.2968 -1.2361
  563MOL0     H75949  10.456   3.554   8.395  3.8356 -1.1554  0.6643
  563MOL0     H75950  10.345   3.423   8.204  0.7866  0.3770 -1.8889
  563MOL0     H75951  10.284   3.595   8.207  1.3125  2.6290  1.2932
  563MOL0     H75952  10.526   3.505   8.033 -0.6961 -2.8877  0.8359
  563MOL0     H75953  10.423   3.651   8.025  0.0135  0.6478  1.9599
  563MOL0     H75954  10.243   3.520   7.922 -2.1678 -3.9323  0.3385
  563MOL0     H75955  10.403   3.502   7.846  1.8346  2.3985  1.5125
  563MOL0     H75956  10.518   3.268   8.070 -1.9267  0.1005  0.3352
  563MOL0     H75957  10.496   3.002   8.134  1.6293 -2.8266 -0.5382
  563MOL0     H75958  10.364   2.925   8.042 -0.7192  0.6748 -3.9178
  563MOL0     H75959  10.556   2.818   7.964 -0.0796 -0.9841 -3.6609
  563MOL0     H75960  10.451   2.890   7.857  0.7467  0.2052  1.2420
  563MOL0     H75961  10.742   2.939   7.915  0.7775  0.7191  2.2309
  563MOL0     H75962  10.649   3.088   7.900  2.8365 -0.3934 -1.4189
  563MOL0     H75963  10.704   3.060   7.677 -0.0310  0.6026  2.7486
  563MOL0     H75964  10.547   2.985   7.682 -0.5272  1.1098  0.6769
  563MOL0     H75965  10.914   3.014   7.674  1.6312 -0.8370 -3.5857
  563MOL0     H75966  11.160   2.939   7.667  0.3944  2.8235  3.2360
  563MOL0     H75967  11.476   2.501   7.864 -1.1948  2.9364 -0.0983
  563MOL0     H75968  11.702   2.402   7.804  0.2038 -2.0133 -0.8991
  563MOL0     H75969  11.725   2.163   7.437  2.4521 -1.3627 -1.1232
  563MOL0     H75970  11.890   2.156   7.517 -0.2840 -3.8854  0.3695
  563MOL0     H75971  11.758   2.117   7.750  1.6955  0.8465  0.0209
  563MOL0     H75972  11.612   2.124   7.653  0.4343 -1.5472  0.7073
  563MOL0     H75973  11.617   1.899   7.645 -0.9488  1.0347  0.2905
  563MOL0     H75974  11.774   1.912   7.548  1.0902  0.2708 -0.1870
  563MOL0     H75975  11.783   1.759   7.731  2.7244  1.0603 -2.3297
  563MOL0     H75976  11.782   1.892   7.846 -1.4852  3.7107 -0.2864
  563MOL0     H75977  11.996   1.973   7.692  1.1709 -0.3461 -0.1978
  563MOL0     H75978  11.958   1.827   7.602 -1.3649 -3.8881  1.2123
  563MOL0     H75979  12.062   1.842   7.880 -4.2305 -0.5998  1.6323
  563MOL0     H75980  11.995   1.693   7.813 -0.3781 -1.1732 -1.6605
  563MOL0     H75981  12.221   1.819   7.662 -2.6339  1.8161 -0.4603
  563MOL0     H75982  12.154   1.655   7.647 -1.8695 -0.4577  0.2879
  563MOL0     H75983  12.368   1.660   7.757  0.1157  3.7599 -1.9155
  563MOL0     H75984  12.293   1.756   7.895 -3.7059  0.4651  0.9541
  563MOL0     H75985  11.578   2.366   7.403 -2.4366  0.9189 -0.6638
  563MOL0     H75986  11.369   2.499   7.452 -0.2082 -0.3869  0.0980
  563MOL0     H75987  11.047   2.533   7.706 -0.6627 -0.0504 -5.6056
  563MOL0     H75988  10.807   2.597   7.725  0.5209 -1.1566 -1.8294
  563MOL0     H75989  10.337   4.190   7.993  1.2091  2.5628  0.0018
  563MOL0     H75990  10.173   4.351   7.929  3.2677 -0.5678 -0.3677
  563MOL0     H75991  10.020   4.678   7.955 -0.6745 -3.1428 -0.9443
  563MOL0     H75992   9.907   4.897   7.888 -1.2644  0.1093 -1.3656
  563MOL0     H75993   9.538   5.071   7.777  1.1282  0.1114  3.8151
  563MOL0     H75994   9.456   4.929   7.834 -0.2753  2.2158  0.7252
  563MOL0     H75995   9.535   4.806   7.631  1.8517  0.3515  0.0936
  563MOL0     H75996   9.571   4.960   7.552  0.6923 -0.1666 -1.4248
  563MOL0     H75997   9.312   4.860   7.675 -0.6613 -0.3907  1.5025
  563MOL0     H75998   9.373   4.851   7.503  2.0824 -1.0270  1.2184
  563MOL0     H75999   9.362   5.113   7.485 -3.5263  2.6206 -1.1082
  563MOL0     H76000   9.206   5.035   7.510  0.8518  1.3883 -0.9370
  563MOL0     H76001   9.190   5.215   7.869 -0.4577 -1.8348  1.4671
  563MOL0     H76002   9.548   4.705   7.801 -2.2577 -0.8429  1.6046
  563MOL0     H76003   9.638   4.392   7.992  1.1574  1.0621  1.2961
  563MOL0     H76004   9.511   4.522   8.004  1.4666  3.0380  1.1846
  563MOL0     H76005   9.541   4.446   7.849  0.0681  1.0110  0.2183
  564MOL0     O76006   1.226   8.163   7.642 -0.1584 -0.5566 -0.5302
  564MOL0     C76007   1.223   8.038   7.638 -0.8868 -0.3802  0.6216
  564MOL0     O76008   1.126   7.973   7.692  0.6492  0.7626 -0.9089
  564MOL0     C76009   1.010   8.039   7.731  0.0090  0.1327  0.1601
  564MOL0     C76010   0.932   7.974   7.822 -0.2944 -0.1951 -0.3962
  564MOL0     C76011   0.802   8.004   7.863 -0.9529 -0.8736  0.6037
  564MOL0     C76012   0.755   8.128   7.803 -0.2133  0.7510 -0.2156
  564MOL0     O76013   0.632   8.162   7.849 -0.5092 -0.3377 -0.3288
  564MOL0     C76014   0.522   8.181   7.761  0.6403  0.2214 -0.7806
  564MOL0     C76015   0.453   8.311   7.799 -0.1771  0.2264  0.1920
  564MOL0     C76016   0.410   8.313   7.948  0.8899 -0.7951 -0.0854
  564MOL0     C76017   0.325   8.438   7.977  0.2039 -0.5702  0.5110
  564MOL0     C76018   0.333   8.497   8.121 -0.7184  0.2565 -0.7283
  564MOL0     C76019   0.259   8.419   8.225 -0.0024  0.3085 -0.3071
  564MOL0     C76020   0.106   8.421   8.211  0.6104  0.7148  0.0022
  564MOL0     C76021   0.032   8.407   8.348  0.1434  0.4402  0.4985
  564MOL0     N76022  -0.115   8.429   8.328 -0.4304  0.7844 -0.6713
  564MOL0     C76023  -0.199   8.326   8.308  0.9388 -0.1701 -0.4494
  564MOL0     C76024  -0.323   8.384   8.308  0.5630 -0.0688  1.0649
  564MOL0     C76025  -0.457   8.314   8.288  0.3556  0.2267 -0.6158
  564MOL0     C76026  -0.529   8.302   8.427  1.2817 -1.0522 -0.3209
  564MOL0     C76027  -0.657   8.232   8.386  0.2075 -0.9256 -1.3295
  564MOL0     C76028  -0.743   8.191   8.503  0.6827 -1.1807  0.6053
  564MOL0     O76029  -0.675   8.101   8.585 -0.1898  0.7544 -0.9461
  564MOL0     C76030  -0.752   8.017   8.674  0.6767 -1.1281  0.3270
  564MOL0     C76031  -0.711   7.887   8.708  1.0822  0.9699 -1.0672
  564MOL0     C76032  -0.779   7.807   8.801 -0.7237 -0.4239  0.4665
  564MOL0     C76033  -0.910   7.838   8.838 -0.7580  0.1942 -0.1980
  564MOL0     C76034  -0.983   7.744   8.924  0.2567 -0.1272 -1.2500
  564MOL0     O76035  -0.919   7.619   8.966  0.3488  0.7534  0.2738
  564MOL0     C76036  -1.003   7.517   9.010  0.5083  0.5241 -1.3980
  564MOL0     C76037  -1.132   7.482   8.971  0.4672 -0.3714 -0.3413
  564MOL0     C76038  -1.206   7.379   9.031  0.3313 -0.7205 -0.7244
  564MOL0     C76039  -1.147   7.315   9.137  0.5964 -0.2033 -0.6888
  564MOL0     O76040  -1.217   7.207   9.202 -0.8318 -0.4462 -0.2757
  564MOL0     C76041  -1.242   7.107   9.103  0.2778 -0.5036  0.9304
  564MOL0     C76042  -1.207   6.975   9.169  0.2380  0.2588 -0.4632
  564MOL0     C76043  -1.291   6.947   9.301  0.1432  0.5087  0.2425
  564MOL0     C76044  -1.391   6.831   9.294 -0.5046  0.0938  0.2155
  564MOL0     C76045  -1.538   6.892   9.283  0.0816  0.0530  0.1595
  564MOL0     C76046  -1.659   6.797   9.254 -1.0300 -0.4001 -0.0112
  564MOL0     C76047  -1.797   6.873   9.221 -0.2417  0.1610 -0.5089
  564MOL0     C76048  -1.877   6.874   9.350  0.6627  0.2059 -0.0734
  564MOL0    Cl76049  -1.914   6.709   9.424  0.1648 -0.0537 -0.4277
  564MOL0     C76050  -1.012   7.334   9.182  0.0067 -0.8530  0.5577
  564MOL0     C76051  -0.939   7.437   9.116  0.6896  0.5014 -0.7974
  564MOL0     O76052  -1.096   7.783   8.956 -0.5443  0.0150 -0.4910
  564MOL0     C76053  -0.955   7.972   8.805  0.5928 -0.3141  0.0086
  564MOL0     C76054  -0.873   8.062   8.731 -0.3943 -0.5135  0.3645
  564MOL0     N76055  -0.303   8.524   8.321  0.1875  0.5162 -1.5759
  564MOL0     N76056  -0.176   8.543   8.332  0.0173 -0.7848 -0.2725
  564MOL0     C76057   0.820   8.197   7.707 -0.8962  0.3824 -1.0842
  564MOL0     C76058   0.953   8.158   7.676 -0.1466  0.1483  0.4288
  564MOL0     C76059   1.329   7.958   7.566 -0.2993  0.8751  0.3495
  564MOL0     C76060   1.300   7.821   7.544  0.7616  0.1156 -1.1159
  564MOL0     C76061   1.398   7.745   7.477  0.3494 -0.5581 -1.2783
  564MOL0     C76062   1.515   7.791   7.418  0.2392 -0.4025 -0.5822
  564MOL0     O76063   1.604   7.702   7.364  0.5400  0.8411  0.0536
  564MOL0     C76064   1.740   7.718   7.400 -0.9200  0.6082 -0.1275
  564MOL0     C76065   1.841   7.619   7.321 -0.4481  0.5328  0.6430
  564MOL0     C76066   1.804   7.471   7.324  1.0324 -0.2715 -0.6352
  564MOL0     C76067   1.814   7.423   7.472  0.2542 -1.6484  0.5709
  564MOL0     C76068   1.829   7.272   7.469 -0.2156  0.2766 -0.5175
  564MOL0     C76069   1.861   7.152   7.479 -0.1250  0.1777  0.3904
  564MOL0     C76070   1.533   7.928   7.429 -0.5095  1.1440 -0.1502
  564MOL0     C76071   1.449   8.008   7.509  0.6396 -0.1476  0.6257
  564MOL0     C76072   1.487   8.156   7.535  0.7314 -0.1841  0.2349
  564MOL0     H76073   0.964   7.886   7.878 -0.9990  1.1465  2.2479
  564MOL0     H76074   0.746   7.952   7.940 -1.5299  1.5440  1.9173
  564MOL0     H76075   0.560   8.173   7.659  1.0399 -0.8717 -0.5677
  564MOL0     H76076   0.453   8.097   7.774  0.5417  0.4343  0.1231
  564MOL0     H76077   0.362   8.342   7.746 -0.8900  3.7390  3.0454
  564MOL0     H76078   0.525   8.392   7.783 -0.2674  0.3289  0.3019
  564MOL0     H76079   0.500   8.320   8.011  0.5329 -1.2479  0.4868
  564MOL0     H76080   0.358   8.219   7.964  1.5723 -1.4661 -1.6523
  564MOL0     H76081   0.352   8.520   7.910 -2.8408 -1.0029 -1.4510
  564MOL0     H76082   0.220   8.415   7.954  0.4341  0.6002 -2.1223
  564MOL0     H76083   0.440   8.509   8.144 -0.5460  1.0208 -1.8564
  564MOL0     H76084   0.297   8.600   8.114 -1.1504  0.0025 -3.2752
  564MOL0     H76085   0.294   8.316   8.210  0.4417  0.2303  1.0982
  564MOL0     H76086   0.292   8.447   8.326 -2.7560 -0.6868  0.9794
  564MOL0     H76087   0.084   8.341   8.140  1.6410 -0.2895  0.7641
  564MOL0     H76088   0.071   8.520   8.182  0.5743  0.1170 -2.1106
  564MOL0     H76089   0.059   8.319   8.407  1.7518  1.6103  1.5686
  564MOL0     H76090   0.064   8.485   8.418  1.4744  0.3222  0.0470
  564MOL0     H76091  -0.176   8.220   8.294  0.6324 -0.0187 -2.4585
  564MOL0     H76092  -0.518   8.365   8.213 -0.2123  1.0161  0.3506
  564MOL0     H76093  -0.429   8.217   8.246  0.3630 -0.6186  1.2616
  564MOL0     H76094  -0.472   8.254   8.507  3.7577  2.6627  0.3943
  564MOL0     H76095  -0.548   8.405   8.462  1.6371 -1.3672  0.8486
  564MOL0     H76096  -0.621   8.144   8.333  1.6154 -1.6886  0.7870
  564MOL0     H76097  -0.709   8.299   8.317 -0.4645  1.9971  1.7435
  564MOL0     H76098  -0.832   8.150   8.455  1.2285 -0.8824 -0.7028
  564MOL0     H76099  -0.772   8.283   8.555  0.7449  0.2408 -1.7349
  564MOL0     H76100  -0.629   7.835   8.660  0.8732 -0.2182 -0.1949
  564MOL0     H76101  -0.736   7.710   8.824  2.0227  0.4383 -0.6928
  564MOL0     H76102  -1.175   7.543   8.892 -1.2722 -0.4116  0.5392
  564MOL0     H76103  -1.310   7.359   9.007  0.0489 -2.4907  1.6339
  564MOL0     H76104  -1.345   7.110   9.066 -0.0547 -3.6677  1.3422
  564MOL0     H76105  -1.175   7.125   9.018  0.9474  1.7912  1.8636
  564MOL0     H76106  -1.237   6.902   9.093 -0.5265  0.6962 -0.5888
  564MOL0     H76107  -1.099   6.966   9.183 -0.0281  1.6123  3.8644
  564MOL0     H76108  -1.220   6.914   9.378  0.3239  1.2915  0.4160
  564MOL0     H76109  -1.332   7.044   9.331 -2.2177 -0.7684  1.4055
  564MOL0     H76110  -1.391   6.773   9.387  0.1405 -3.1081 -1.6127
  564MOL0     H76111  -1.365   6.762   9.212  0.3952 -0.9581  1.3397
  564MOL0     H76112  -1.530   6.967   9.204 -0.4770  1.7963  1.6727
  564MOL0     H76113  -1.559   6.955   9.370 -1.0273 -0.0597 -0.0056
  564MOL0     H76114  -1.648   6.727   9.170 -0.6900  0.7482 -0.9547
  564MOL0     H76115  -1.674   6.746   9.349 -1.8853  0.8334  0.5481
  564MOL0     H76116  -1.852   6.839   9.133  1.1329  2.3902 -2.3737
  564MOL0     H76117  -1.770   6.973   9.186  1.6170  0.7514  2.2544
  564MOL0     H76118  -1.834   6.933   9.431 -1.2945  1.8384 -0.1543
  564MOL0     H76119  -1.967   6.931   9.325  0.1541 -0.0733  1.0547
  564MOL0     H76120  -0.963   7.280   9.262 -0.7245 -2.9058 -0.3213
  564MOL0     H76121  -0.836   7.468   9.128  0.7058  0.2123 -0.1445
  564MOL0     H76122  -1.056   8.000   8.832  1.5419  1.1132  2.4485
  564MOL0     H76123  -0.892   8.168   8.727  4.1993  0.4802 -1.0643
  564MOL0     H76124   0.782   8.296   7.682 -2.1960 -0.5368 -3.0197
  564MOL0     H76125   1.008   8.224   7.611 -0.0946  0.1115  0.4355
  564MOL0     H76126   1.216   7.766   7.584  2.3646  0.0508  2.5969
  564MOL0     H76127   1.380   7.638   7.475  0.9329 -0.7047  0.3922
  564MOL0     H76128   1.735   7.703   7.508  0.5124 -1.2537 -0.2677
  564MOL0     H76129   1.772   7.820   7.378 -1.6366  1.1694  1.2783
  564MOL0     H76130   1.942   7.639   7.358 -0.8385  0.3409  1.8622
  564MOL0     H76131   1.840   7.641   7.214 -1.4697  0.3624  0.6085
  564MOL0     H76132   1.877   7.417   7.264 -0.7984 -0.7689 -2.4851
  564MOL0     H76133   1.707   7.449   7.279 -0.1518 -1.5593  2.3066
  564MOL0     H76134   1.905   7.455   7.523  0.1126 -1.0441  0.4541
  564MOL0     H76135   1.724   7.454   7.526 -1.2511 -1.3116 -1.9781
  564MOL0     H76136   1.895   7.051   7.476  3.4644  1.2673 -0.4754
  564MOL0     H76137   1.625   7.970   7.388  0.0944 -1.8777 -2.2650
  564MOL0     H76138   1.479   8.171   7.643 -0.4596  1.3833 -0.0313
  564MOL0     H76139   1.585   8.182   7.495 -1.5566  2.5104 -4.5279
  564MOL0     H76140   1.422   8.228   7.484  2.7246  2.1191  0.8118
  565MOL0     O76141   3.522   3.403   6.072  1.0918  0.8064 -0.1279
  565MOL0     C76142   3.527   3.407   6.192  0.7228  0.2874 -0.3268
  565MOL0     O76143   3.637   3.349   6.262 -0.2724  0.0669 -1.0425
  565MOL0     C76144   3.712   3.250   6.210 -0.6930 -1.1708  0.3324
  565MOL0     C76145   3.852   3.268   6.210  0.6823 -0.2394  0.6487
  565MOL0     C76146   3.922   3.161   6.150 -0.2253  0.3775 -0.6009
  565MOL0     C76147   3.853   3.044   6.087 -0.5008 -0.1488  0.3908
  565MOL0     O76148   3.911   2.937   6.032 -0.4507 -0.3539  0.1025
  565MOL0     C76149   4.051   2.936   6.016 -0.6077  0.4797 -0.6744
  565MOL0     C76150   4.097   2.793   5.991  0.3668 -0.2949 -0.3763
  565MOL0     C76151   4.252   2.762   5.983  0.6234  0.2452  0.2736
  565MOL0     C76152   4.292   2.614   5.973 -0.0972 -0.5610  0.9033
  565MOL0     C76153   4.246   2.543   5.840 -0.0980 -0.4211 -0.8371
  565MOL0     C76154   4.279   2.394   5.840 -0.5193  0.2594 -0.3229
  565MOL0     C76155   4.433   2.372   5.825  0.3069 -0.5283 -0.0167
  565MOL0     C76156   4.475   2.227   5.794 -0.0896 -0.0861  0.3149
  565MOL0     N76157   4.621   2.203   5.767 -0.1629  0.1098  0.3862
  565MOL0     C76158   4.700   2.176   5.875 -0.3147 -0.2641 -0.7429
  565MOL0     C76159   4.824   2.176   5.807  0.3970 -0.0366 -0.4020
  565MOL0     C76160   4.957   2.145   5.882 -0.2492  0.2959 -0.4643
  565MOL0     C76161   5.022   2.262   5.965  0.4045 -0.0477  2.1416
  565MOL0     C76162   4.945   2.283   6.093 -0.3505  0.5895  0.3264
  565MOL0     C76163   4.984   2.426   6.138 -0.0951  0.3574  0.1017
  565MOL0     O76164   4.903   2.463   6.261 -0.3927 -0.3722  0.5993
  565MOL0     C76165   4.781   2.524   6.243 -0.6298  0.2590  1.1799
  565MOL0     C76166   4.744   2.585   6.356  0.0411 -1.1574 -0.5942
  565MOL0     C76167   4.673   2.706   6.353 -0.2504 -0.5482 -0.1306
  565MOL0     C76168   4.625   2.749   6.226  0.6924 -1.4316 -0.4704
  565MOL0     C76169   4.539   2.875   6.225  0.8645 -0.1898  0.4637
  565MOL0     O76170   4.486   2.922   6.340  0.0439  0.1341  0.0800
  565MOL0     C76171   4.450   3.050   6.347 -0.4737  0.1046  0.8510
  565MOL0     C76172   4.338   3.074   6.433 -0.4782  0.2350 -0.1218
  565MOL0     C76173   4.306   3.207   6.461  0.4342  0.0840 -1.1635
  565MOL0     C76174   4.382   3.314   6.419  0.5462 -0.9550  0.5668
  565MOL0     O76175   4.346   3.439   6.463 -0.0225 -0.0029 -0.2515
  565MOL0     C76176   4.399   3.556   6.400 -0.0177 -0.0760 -0.1236
  565MOL0     C76177   4.297   3.666   6.424 -0.1580  0.0272 -0.3640
  565MOL0     C76178   4.352   3.803   6.401  0.3591 -0.0110  0.7958
  565MOL0     C76179   4.326   3.843   6.252  0.2311  0.4155  0.0767
  565MOL0     C76180   4.393   3.978   6.224  0.7285  0.4321  0.3272
  565MOL0     C76181   4.350   4.037   6.083  0.7177 -0.0766  0.3040
  565MOL0     C76182   4.394   3.940   5.970  0.0712 -1.1989  0.8090
  565MOL0     C76183   4.539   3.925   5.969 -0.1372  0.1265  0.3949
  565MOL0    Cl76184   4.567   3.852   5.802 -0.0896 -0.1528  0.2855
  565MOL0     C76185   4.487   3.293   6.325  0.0828  0.3405  0.0331
  565MOL0     C76186   4.520   3.155   6.287  0.6846  0.6000 -0.5765
  565MOL0     O76187   4.532   2.925   6.109  0.0012  0.2534 -0.3479
  565MOL0     C76188   4.644   2.680   6.110 -0.4630 -0.6465 -1.1022
  565MOL0     C76189   4.723   2.560   6.117  0.1895 -0.1524  0.4295
  565MOL0     N76190   4.810   2.222   5.674 -0.2731  0.1432  0.1411
  565MOL0     N76191   4.685   2.229   5.652  0.2695  0.8845  0.4062
  565MOL0     C76192   3.724   3.024   6.098 -0.7157 -0.1435 -0.7388
  565MOL0     C76193   3.655   3.127   6.161 -0.0048 -0.1589  0.3815
  565MOL0     C76194   3.452   3.510   6.266 -0.6188  0.5373 -0.7830
  565MOL0     C76195   3.496   3.532   6.403 -0.8537 -0.6700  0.9850
  565MOL0     C76196   3.459   3.643   6.476 -0.9682 -0.4730 -2.1430
  565MOL0     C76197   3.357   3.733   6.438  0.2068 -0.1008  0.6952
  565MOL0     O76198   3.314   3.849   6.493  0.0061  0.1186 -0.6197
  565MOL0     C76199   3.408   3.933   6.561 -0.1758 -0.0530  0.4014
  565MOL0     C76200   3.461   4.038   6.462  0.7031 -1.1698 -0.0407
  565MOL0     C76201   3.528   3.992   6.333  0.3787 -0.4534 -0.3387
  565MOL0     C76202   3.580   4.121   6.251  0.2263  0.1238  0.3623
  565MOL0     C76203   3.460   4.184   6.191  0.0650  0.1120 -0.9953
  565MOL0     C76204   3.371   4.248   6.139 -1.1875 -0.1596 -0.1958
  565MOL0     C76205   3.303   3.705   6.316 -0.1246  0.3883  1.0175
  565MOL0     C76206   3.343   3.592   6.234 -0.7131 -0.2826 -0.6473
  565MOL0     C76207   3.285   3.583   6.098  0.1624 -0.3661 -0.4847
  565MOL0     H76208   3.902   3.352   6.258 -0.3961  1.7957 -1.5842
  565MOL0     H76209   4.030   3.160   6.150 -0.1871  1.6454  0.5088
  565MOL0     H76210   4.092   2.997   5.935 -0.0145 -2.8153 -3.0411
  565MOL0     H76211   4.095   2.975   6.109 -2.3059 -0.0125  0.3818
  565MOL0     H76212   4.057   2.744   5.901 -0.5929 -2.3823  1.1058
  565MOL0     H76213   4.051   2.738   6.073  1.6081 -0.1828  0.4165
  565MOL0     H76214   4.287   2.803   6.078  1.4963  1.4302 -0.5149
  565MOL0     H76215   4.290   2.813   5.893 -0.1635  0.0511 -0.1773
  565MOL0     H76216   4.400   2.616   5.984 -0.0136  1.9416  0.1228
  565MOL0     H76217   4.252   2.552   6.054 -0.3293 -2.2166 -0.4136
  565MOL0     H76218   4.139   2.567   5.840  0.3437  1.7486 -0.8373
  565MOL0     H76219   4.294   2.584   5.751 -1.4747  2.7381 -0.2445
  565MOL0     H76220   4.240   2.361   5.936 -1.2942  1.5119 -0.1790
  565MOL0     H76221   4.229   2.341   5.759 -0.9587  0.0136  0.1049
  565MOL0     H76222   4.502   2.402   5.904  0.9571 -2.6553  0.3018
  565MOL0     H76223   4.466   2.428   5.737 -2.4530  1.3545  0.0046
  565MOL0     H76224   4.445   2.148   5.863  2.9651  1.2963  3.5500
  565MOL0     H76225   4.433   2.194   5.699 -0.3192 -6.0448  2.1119
  565MOL0     H76226   4.673   2.152   5.977  0.9007 -0.5447 -0.4669
  565MOL0     H76227   4.931   2.062   5.948 -3.1187  0.7124 -0.9649
  565MOL0     H76228   5.023   2.096   5.809 -0.0290  1.6876 -1.2248
  565MOL0     H76229   5.124   2.233   5.994  1.4792  1.4941  0.1871
  565MOL0     H76230   5.040   2.355   5.910  2.5866 -1.1549  0.8243
  565MOL0     H76231   4.975   2.207   6.166 -3.4035 -1.2366 -0.1528
  565MOL0     H76232   4.838   2.274   6.077 -0.1812 -0.6070 -0.2522
  565MOL0     H76233   4.964   2.507   6.067  0.4787 -1.0335 -1.7221
  565MOL0     H76234   5.091   2.424   6.158  0.0684  1.1696 -0.6138
  565MOL0     H76235   4.785   2.546   6.449  3.4101  1.7250 -0.6170
  565MOL0     H76236   4.649   2.769   6.438  0.7375  0.4576 -0.5796
  565MOL0     H76237   4.277   2.990   6.461  2.1632 -2.0479 -0.8052
  565MOL0     H76238   4.223   3.233   6.527  1.3216  2.3567 -0.8540
  565MOL0     H76239   4.499   3.586   6.433  1.0302  0.3145 -3.3247
  565MOL0     H76240   4.391   3.533   6.294  1.8263  0.6881 -0.4606
  565MOL0     H76241   4.206   3.652   6.364 -0.4045 -1.7198  0.3769
  565MOL0     H76242   4.264   3.663   6.528 -3.7903  1.5396 -1.2913
  565MOL0     H76243   4.296   3.874   6.462  2.6546  2.8657 -0.2344
  565MOL0     H76244   4.458   3.812   6.428  0.3823  2.7138  0.1098
  565MOL0     H76245   4.222   3.861   6.227 -0.3034 -0.2881  1.6678
  565MOL0     H76246   4.351   3.759   6.187  0.4698 -0.4556  1.2558
  565MOL0     H76247   4.502   3.972   6.228  0.7061 -5.4012  1.7832
  565MOL0     H76248   4.368   4.048   6.304 -0.8385  0.3615 -0.0562
  565MOL0     H76249   4.242   4.055   6.079  1.1609  2.7996 -2.2352
  565MOL0     H76250   4.389   4.138   6.070  0.9050  0.2001  2.6306
  565MOL0     H76251   4.369   3.998   5.881 -1.8683 -1.9449  0.8241
  565MOL0     H76252   4.334   3.850   5.957 -0.4909 -0.6626 -0.4791
  565MOL0     H76253   4.600   4.016   5.969 -0.0933  0.0963  0.3164
  565MOL0     H76254   4.574   3.855   6.046  0.8400 -0.3855 -0.4790
  565MOL0     H76255   4.558   3.370   6.299  0.5536 -0.0695  0.0889
  565MOL0     H76256   4.599   3.138   6.214  1.5459  0.0683  0.4445
  565MOL0     H76257   4.605   2.715   6.014 -1.6223  0.7108 -0.1747
  565MOL0     H76258   4.760   2.518   6.023  2.6817  2.1141  0.2884
  565MOL0     H76259   3.687   2.926   6.069  2.1344 -1.0403 -1.6338
  565MOL0     H76260   3.547   3.124   6.175 -0.2484 -0.0919 -1.2479
  565MOL0     H76261   3.565   3.466   6.454  0.8175  0.1347 -0.1335
  565MOL0     H76262   3.504   3.669   6.571 -2.1126  0.5315 -1.8500
  565MOL0     H76263   3.489   3.880   6.612 -0.1433 -0.0265  0.3780
  565MOL0     H76264   3.349   3.984   6.638  0.5523  1.2214  0.1427
  565MOL0     H76265   3.534   4.099   6.515  0.5543 -1.6756  0.7773
  565MOL0     H76266   3.379   4.107   6.442  1.7022  0.0255 -0.0984
  565MOL0     H76267   3.459   3.936   6.268  0.0403  0.8050 -1.1114
  565MOL0     H76268   3.617   3.931   6.349  1.8745  1.8450  0.5537
  565MOL0     H76269   3.654   4.184   6.300  0.1474  0.4773  0.0321
  565MOL0     H76270   3.637   4.093   6.162 -2.8183  0.4418 -1.8430
  565MOL0     H76271   3.316   4.320   6.082  1.1545  2.3708  0.5060
  565MOL0     H76272   3.229   3.771   6.272  1.5456  0.6033 -1.7105
  565MOL0     H76273   3.197   3.648   6.100  0.7212  0.5304  3.5338
  565MOL0     H76274   3.346   3.613   6.011  1.0080 -0.9033 -0.0916
  565MOL0     H76275   3.253   3.480   6.082 -0.7624 -0.0146 -0.9639
  566MOL0     O76276   1.596   5.091   2.972  0.8670  0.9658 -0.8571
  566MOL0     C76277   1.555   5.052   2.860  0.4628  0.0994 -0.5347
  566MOL0     O76278   1.460   5.122   2.783 -1.2187  0.2796 -0.4070
  566MOL0     C76279   1.406   5.228   2.836  0.8929 -0.9644 -0.5495
  566MOL0     C76280   1.461   5.356   2.833  0.2868 -0.1728  0.5912
  566MOL0     C76281   1.400   5.457   2.908 -0.4671 -0.2584 -0.2973
  566MOL0     C76282   1.284   5.437   2.979  0.7947  0.8705 -0.4364
  566MOL0     O76283   1.232   5.543   3.049 -0.1750  0.1781  0.9002
  566MOL0     C76284   1.089   5.537   3.067 -0.7793  0.2450 -0.2888
  566MOL0     C76285   1.044   5.673   3.109  0.6740 -0.9056 -0.2541
  566MOL0     C76286   1.085   5.781   3.006 -0.0534 -0.0579  0.6271
  566MOL0     C76287   1.000   5.910   3.017  0.6996  0.9282 -0.3209
  566MOL0     C76288   1.051   6.026   2.927 -0.5914 -1.2891 -0.9266
  566MOL0     C76289   1.103   6.015   2.774 -0.2438 -1.3498 -0.1667
  566MOL0     C76290   1.135   6.165   2.723 -1.1678 -0.1188  0.6391
  566MOL0     C76291   1.236   6.148   2.600 -0.5776 -0.1904  0.2184
  566MOL0     N76292   1.163   6.084   2.483  0.1764  0.5749 -0.1522
  566MOL0     C76293   1.054   6.141   2.420 -1.0011 -0.3324 -0.3899
  566MOL0     C76294   1.022   6.059   2.323  0.4121  0.6064  0.6615
  566MOL0     C76295   0.918   6.088   2.214 -0.2819 -0.4633 -1.4219
  566MOL0     C76296   0.958   6.052   2.079 -0.0028  0.6745  0.8814
  566MOL0     C76297   0.943   5.903   2.040 -0.4245 -0.2445 -0.2693
  566MOL0     C76298   0.801   5.864   2.005  0.0132 -0.5683 -0.6585
  566MOL0     O76299   0.735   5.840   2.125  0.5674  0.0526 -1.2896
  566MOL0     C76300   0.641   5.736   2.138 -0.0073 -1.5864  0.6693
  566MOL0     C76301   0.555   5.691   2.034 -0.5532 -0.0456  1.6056
  566MOL0     C76302   0.474   5.580   2.054 -0.7784 -0.0625  0.4902
  566MOL0     C76303   0.481   5.511   2.178  0.6108 -0.2125 -1.0410
  566MOL0     C76304   0.395   5.398   2.192 -0.7747 -0.4830 -0.2195
  566MOL0     O76305   0.280   5.401   2.110 -0.0626  0.2647  0.2937
  566MOL0     C76306   0.179   5.307   2.122 -0.3667 -0.4665 -0.2668
  566MOL0     C76307   0.100   5.292   2.008 -0.5191  0.1829 -0.6654
  566MOL0     C76308   0.014   5.184   1.994  0.5617 -0.2490  0.5756
  566MOL0     C76309  -0.012   5.096   2.098 -0.2560  0.4854  0.3964
  566MOL0     O76310  -0.102   4.998   2.064 -0.1046 -0.2655 -0.1481
  566MOL0     C76311  -0.130   4.892   2.167 -0.1270 -0.6647 -0.4800
  566MOL0     C76312  -0.250   4.802   2.113 -0.2145 -0.1838  0.4472
  566MOL0     C76313  -0.386   4.872   2.078 -0.0333 -0.5021  0.2212
  566MOL0     C76314  -0.388   5.025   2.047 -1.2839  0.4880 -0.3079
  566MOL0     C76315  -0.519   5.098   2.030 -0.4072 -0.5518 -0.3000
  566MOL0     C76316  -0.505   5.249   2.026 -0.8103 -0.1764 -0.0231
  566MOL0     C76317  -0.402   5.307   1.929 -0.2809 -1.0520 -0.0271
  566MOL0     C76318  -0.419   5.458   1.889  0.0827  1.2696 -0.5682
  566MOL0    Cl76319  -0.583   5.482   1.821 -0.1742 -0.0951 -0.3016
  566MOL0     C76320   0.073   5.105   2.207 -0.1356  0.0460 -1.1061
  566MOL0     C76321   0.172   5.203   2.219  0.1737  0.1130  0.3145
  566MOL0     O76322   0.427   5.309   2.262  0.4849  0.5679 -0.6744
  566MOL0     C76323   0.567   5.553   2.283 -0.1871  0.4312  0.5675
  566MOL0     C76324   0.647   5.664   2.258 -0.5900  0.0568  0.2459
  566MOL0     N76325   1.101   5.944   2.327  0.2867 -0.3831  0.1166
  566MOL0     N76326   1.183   5.955   2.429  0.3855 -0.2542 -1.0474
  566MOL0     C76327   1.221   5.307   2.965 -0.5817  0.0037 -0.3272
  566MOL0     C76328   1.280   5.208   2.882  0.3227 -0.1058 -1.0661
  566MOL0     C76329   1.598   4.908   2.823 -0.2028 -0.2128  0.9719
  566MOL0     C76330   1.542   4.861   2.695  0.9608 -0.2002 -0.1901
  566MOL0     C76331   1.585   4.739   2.642 -0.0498  0.2487  0.1854
  566MOL0     C76332   1.691   4.674   2.697  0.4071  0.8099 -0.0474
  566MOL0     O76333   1.745   4.572   2.626 -0.3189  0.2994  0.1434
  566MOL0     C76334   1.656   4.482   2.560 -0.8362  0.0434  0.3770
  566MOL0     C76335   1.719   4.347   2.534  0.4893 -0.4548 -0.7683
  566MOL0     C76336   1.838   4.341   2.427  0.9465 -0.7708 -0.0939
  566MOL0     C76337   1.789   4.315   2.285  0.5489  0.8467  0.4152
  566MOL0     C76338   1.745   4.435   2.212  0.0473 -0.1655 -0.3510
  566MOL0     C76339   1.709   4.531   2.146  0.5614  0.1642 -0.0412
  566MOL0     C76340   1.755   4.710   2.816 -0.4589  0.0517  0.2399
  566MOL0     C76341   1.696   4.825   2.884 -0.5688 -0.1294 -0.6191
  566MOL0     C76342   1.761   4.861   3.012 -0.6753 -0.1864 -0.6413
  566MOL0     H76343   1.547   5.367   2.768 -1.4605  0.3638 -1.7563
  566MOL0     H76344   1.442   5.555   2.927 -0.9047 -0.6744  3.7067
  566MOL0     H76345   1.042   5.494   2.978 -1.7698 -1.3118  0.9405
  566MOL0     H76346   1.064   5.470   3.150 -0.2785 -0.6871 -0.8762
  566MOL0     H76347   1.076   5.696   3.210 -1.1194 -0.4563  0.2535
  566MOL0     H76348   0.934   5.667   3.109  0.6302 -1.6384  2.7930
  566MOL0     H76349   1.096   5.743   2.904  2.2033 -0.0101  0.7908
  566MOL0     H76350   1.187   5.810   3.034  0.8578 -1.9811 -0.5457
  566MOL0     H76351   0.896   5.881   2.999  0.0609  0.4199  3.4876
  566MOL0     H76352   0.993   5.939   3.122  0.0132  4.4230 -1.2020
  566MOL0     H76353   0.969   6.099   2.937 -2.2344 -3.0851 -0.6168
  566MOL0     H76354   1.124   6.083   2.986 -0.9070 -0.7478 -1.0469
  566MOL0     H76355   1.186   5.945   2.786  0.8051  0.0552  1.2721
  566MOL0     H76356   1.018   5.978   2.716 -1.3885 -2.2705  1.9634
  566MOL0     H76357   1.183   6.222   2.802 -1.0602 -2.2072  2.1580
  566MOL0     H76358   1.044   6.214   2.685 -0.6279  2.1415  2.0930
  566MOL0     H76359   1.279   6.244   2.569 -1.7084  1.3144  2.9273
  566MOL0     H76360   1.313   6.073   2.620  1.4464  2.5028  3.7723
  566MOL0     H76361   1.004   6.236   2.438 -0.9308 -0.6846  1.9432
  566MOL0     H76362   0.831   6.026   2.236 -0.0351 -0.4468 -0.3289
  566MOL0     H76363   0.887   6.192   2.231 -0.0530 -0.2329 -2.3375
  566MOL0     H76364   0.897   6.110   2.009  1.0023  2.2515  1.2694
  566MOL0     H76365   1.062   6.080   2.061  1.0354 -2.7641  0.8881
  566MOL0     H76366   0.978   5.839   2.121 -2.1234  0.5081  1.1430
  566MOL0     H76367   1.018   5.891   1.961 -1.5717 -5.5982 -0.9181
  566MOL0     H76368   0.817   5.768   1.956  1.6834  0.1455 -1.5759
  566MOL0     H76369   0.751   5.944   1.951 -0.5356  0.6524  1.5544
  566MOL0     H76370   0.557   5.746   1.940 -2.0690 -3.5306 -0.6861
  566MOL0     H76371   0.403   5.562   1.975  0.1693  0.9775 -0.6475
  566MOL0     H76372   0.107   5.371   1.935 -1.6018 -1.7906 -3.0349
  566MOL0     H76373  -0.031   5.176   1.896  0.9746  1.1253  0.2605
  566MOL0     H76374  -0.039   4.833   2.183  2.4234  3.3221  1.3942
  566MOL0     H76375  -0.159   4.942   2.260  1.2597 -2.9586  1.2764
  566MOL0     H76376  -0.235   4.764   2.011  1.0435 -0.6675  0.7949
  566MOL0     H76377  -0.258   4.714   2.176  3.7945 -0.6952  0.4706
  566MOL0     H76378  -0.438   4.815   2.000  1.6591 -0.5166 -0.9513
  566MOL0     H76379  -0.443   4.866   2.171 -1.4332 -2.4142 -0.6899
  566MOL0     H76380  -0.335   5.039   1.953 -2.6004 -0.3958 -1.2263
  566MOL0     H76381  -0.340   5.070   2.134 -0.0617  2.3966 -1.8730
  566MOL0     H76382  -0.584   5.079   2.116 -4.5344  3.3301 -2.1086
  566MOL0     H76383  -0.564   5.053   1.940 -1.4745 -2.6562  1.1952
  566MOL0     H76384  -0.601   5.293   1.998 -0.4702  0.2322 -0.5645
  566MOL0     H76385  -0.474   5.300   2.118 -0.7281  0.0010 -0.1479
  566MOL0     H76386  -0.406   5.250   1.836  0.7507 -1.9295  0.4320
  566MOL0     H76387  -0.301   5.298   1.972  0.5884 -0.5581 -1.8558
  566MOL0     H76388  -0.402   5.520   1.978 -1.8674 -0.7356  1.3286
  566MOL0     H76389  -0.338   5.483   1.821  0.4907  2.1242  0.2010
  566MOL0     H76390   0.051   5.032   2.284  0.6131  0.0067 -0.9226
  566MOL0     H76391   0.223   5.182   2.312  0.5114  0.8800  0.3045
  566MOL0     H76392   0.562   5.502   2.379  1.8997  1.2304  1.1618
  566MOL0     H76393   0.707   5.699   2.341  0.2961  2.2448 -1.2391
  566MOL0     H76394   1.121   5.300   3.005  0.1421  0.6381  1.7936
  566MOL0     H76395   1.225   5.114   2.885 -0.1428  0.0814  3.9051
  566MOL0     H76396   1.457   4.922   2.665 -0.5685  0.0958  4.0521
  566MOL0     H76397   1.524   4.697   2.562  1.0994  3.6561 -2.7737
  566MOL0     H76398   1.615   4.521   2.466 -2.5410 -1.6201  0.3522
  566MOL0     H76399   1.564   4.462   2.616 -2.3665  1.3688 -1.5362
  566MOL0     H76400   1.633   4.283   2.515 -1.4104  1.8296 -0.3515
  566MOL0     H76401   1.756   4.313   2.631  0.3600  1.9538  0.2026
  566MOL0     H76402   1.908   4.261   2.456  1.5245  0.6569  2.8933
  566MOL0     H76403   1.891   4.436   2.432 -2.0060  1.0891 -1.6500
  566MOL0     H76404   1.872   4.275   2.226 -1.7827 -1.0558 -1.8574
  566MOL0     H76405   1.715   4.233   2.282 -0.2202  1.5006  1.1122
  566MOL0     H76406   1.693   4.619   2.087  3.3411 -0.7039 -2.3631
  566MOL0     H76407   1.841   4.657   2.857 -1.1392  0.2225  2.0066
  566MOL0     H76408   1.813   4.778   3.061 -1.8462 -1.5059 -1.5825
  566MOL0     H76409   1.832   4.944   3.001  0.9595 -1.4409  0.0274
  566MOL0     H76410   1.677   4.883   3.079  0.4795 -3.9387  2.4244
  567MOL0     O76411  11.383   2.090   4.075 -0.7393  0.5169  0.4655
  567MOL0     C76412  11.268   2.120   4.091 -0.3759  0.1181 -0.0854
  567MOL0     O76413  11.224   2.225   4.165 -0.8179 -0.2197 -0.6029
  567MOL0     C76414  11.305   2.309   4.241  0.0969  0.6610  0.4973
  567MOL0     C76415  11.245   2.374   4.352  0.7329  0.2491  0.2376
  567MOL0     C76416  11.323   2.462   4.429 -0.2279 -1.3518  0.1380
  567MOL0     C76417  11.462   2.461   4.422  0.3208  0.1307 -0.3703
  567MOL0     O76418  11.541   2.524   4.513  0.2583 -0.3200  0.8421
  567MOL0     C76419  11.539   2.475   4.641  0.3831  0.3822  1.0791
  567MOL0     C76420  11.595   2.582   4.730 -0.3353 -1.0003 -0.3352
  567MOL0     C76421  11.501   2.688   4.764  0.4106  0.8066 -0.3450
  567MOL0     C76422  11.474   2.795   4.657  0.0364  0.3175  0.9409
  567MOL0     C76423  11.476   2.925   4.738 -0.0513 -0.4268 -0.6529
  567MOL0     C76424  11.376   2.940   4.846 -0.2353  1.2805 -0.1236
  567MOL0     C76425  11.247   2.986   4.789  0.5451 -0.1953  0.5627
  567MOL0     C76426  11.143   3.003   4.890 -0.4528  0.3662  0.1265
  567MOL0     N76427  11.174   3.120   4.975  0.7449 -0.1306 -0.0602
  567MOL0     C76428  11.262   3.143   5.080  0.6094  0.2455 -0.2965
  567MOL0     C76429  11.226   3.265   5.134 -0.7631 -0.7871  0.8743
  567MOL0     C76430  11.294   3.337   5.250 -0.0684  0.9342  0.3639
  567MOL0     C76431  11.208   3.416   5.336  0.3214 -1.4527  0.6587
  567MOL0     C76432  11.274   3.520   5.436 -0.0882 -0.0272 -0.1737
  567MOL0     C76433  11.167   3.623   5.489  0.5033  0.7655 -0.3074
  567MOL0     O76434  11.093   3.556   5.589 -0.6613  0.2446  0.2422
  567MOL0     C76435  11.000   3.624   5.663 -0.4199  0.5786  1.1536
  567MOL0     C76436  10.911   3.547   5.745  0.2126 -0.5230 -0.1401
  567MOL0     C76437  10.796   3.611   5.811 -0.4121  0.3339 -0.6762
  567MOL0     C76438  10.780   3.753   5.795 -0.4144  0.1195 -0.9667
  567MOL0     C76439  10.663   3.821   5.846 -0.2157 -0.0487  0.4381
  567MOL0     O76440  10.551   3.745   5.893  0.5183 -0.2363 -1.1587
  567MOL0     C76441  10.435   3.817   5.912  0.4449  0.2746  0.6405
  567MOL0     C76442  10.416   3.904   6.018  0.8935 -0.2311 -0.0944
  567MOL0     C76443  10.288   3.971   6.039 -0.1794 -0.8605  0.4734
  567MOL0     C76444  10.191   3.964   5.936  0.3499 -0.8374  0.1702
  567MOL0     O76445  10.080   4.042   5.946 -1.2724  0.2417  0.3136
  567MOL0     C76446  10.058   4.120   5.825  0.1399 -0.0545  0.5295
  567MOL0     C76447   9.982   4.250   5.839 -0.1472  0.0568 -0.1471
  567MOL0     C76448  10.057   4.349   5.934  0.3023 -0.0801  0.4281
  567MOL0     C76449   9.976   4.449   6.012  0.5612 -0.4583  1.2055
  567MOL0     C76450   9.905   4.544   5.913  0.3992 -0.3264 -0.5360
  567MOL0     C76451   9.907   4.695   5.942 -0.1581 -0.4671 -1.3097
  567MOL0     C76452  10.039   4.749   5.999 -0.6876 -0.9205 -0.1302
  567MOL0     C76453  10.059   4.899   5.988  0.4327  0.0582 -1.2952
  567MOL0    Cl76454  10.037   4.963   5.820 -0.3109 -0.0317 -0.0971
  567MOL0     C76455  10.219   3.882   5.822 -0.1463 -0.4263  0.2214
  567MOL0     C76456  10.334   3.813   5.808 -1.1730  0.2089 -0.2971
  567MOL0     O76457  10.664   3.942   5.837 -0.3753 -0.6043 -0.2227
  567MOL0     C76458  10.876   3.820   5.713 -0.5615 -0.1853 -1.6796
  567MOL0     C76459  10.977   3.762   5.650  0.8698 -0.0656  0.4862
  567MOL0     N76460  11.127   3.320   5.056 -0.0666 -0.8181 -0.6596
  567MOL0     N76461  11.093   3.229   4.970 -0.9254  0.0031  0.6384
  567MOL0     C76462  11.524   2.405   4.310 -0.2055  0.4321 -0.5065
  567MOL0     C76463  11.442   2.331   4.214 -0.2427  0.3631 -1.0352
  567MOL0     C76464  11.163   2.029   4.040 -0.7967  0.5838  0.1192
  567MOL0     C76465  11.029   2.066   4.059 -0.2454  0.2003  0.7328
  567MOL0     C76466  10.918   1.985   4.012 -0.7513 -1.0044 -0.6843
  567MOL0     C76467  10.945   1.879   3.926 -0.5010 -0.5563  0.2703
  567MOL0     O76468  10.860   1.815   3.844  1.3189  0.1908 -0.5321
  567MOL0     C76469  10.760   1.724   3.911 -0.6335 -1.1952  0.8854
  567MOL0     C76470  10.712   1.620   3.806  0.8935  1.0203 -0.4014
  567MOL0     C76471  10.720   1.473   3.861  0.1472 -0.0556 -0.6539
  567MOL0     C76472  10.856   1.409   3.829 -0.6626  0.3946  0.1230
  567MOL0     C76473  10.963   1.480   3.900 -0.5575 -0.2873  0.5543
  567MOL0     C76474  11.054   1.520   3.965 -0.0908 -1.0314 -0.3955
  567MOL0     C76475  11.079   1.850   3.900 -0.3667  0.2357  0.4643
  567MOL0     C76476  11.189   1.919   3.955  0.3618  0.4416  0.4278
  567MOL0     C76477  11.328   1.865   3.917 -0.1939  0.8975  0.0981
  567MOL0     H76478  11.138   2.365   4.370  0.9179  0.3886  1.4644
  567MOL0     H76479  11.287   2.523   4.511  0.6006  2.7835 -2.2479
  567MOL0     H76480  11.439   2.444   4.669 -1.3020  2.6350 -1.7998
  567MOL0     H76481  11.608   2.390   4.645  0.9389  0.6239 -1.3050
  567MOL0     H76482  11.691   2.620   4.692  0.0102 -3.0271 -1.6533
  567MOL0     H76483  11.630   2.532   4.821 -0.0869  1.7371  1.1732
  567MOL0     H76484  11.545   2.728   4.856 -0.3668  0.8767  0.0088
  567MOL0     H76485  11.407   2.641   4.797  0.4391  1.3298  0.5119
  567MOL0     H76486  11.556   2.807   4.585 -0.2377 -1.1255  0.3670
  567MOL0     H76487  11.377   2.798   4.605  0.6097  0.0950 -0.1857
  567MOL0     H76488  11.573   2.933   4.787 -1.3825  0.5012  2.0350
  567MOL0     H76489  11.461   3.017   4.679  2.0935 -0.7464 -1.8111
  567MOL0     H76490  11.358   2.845   4.898  3.2026  1.3667  1.4877
  567MOL0     H76491  11.401   3.009   4.928 -2.8048 -0.0427  1.9425
  567MOL0     H76492  11.212   2.907   4.721  2.7122 -0.8545  0.1417
  567MOL0     H76493  11.254   3.077   4.729  0.8214 -0.2598  0.4986
  567MOL0     H76494  11.043   3.005   4.845 -2.2056  2.3194  3.7068
  567MOL0     H76495  11.143   2.915   4.955  0.5966 -0.3306 -0.7686
  567MOL0     H76496  11.343   3.079   5.113  2.2220  2.2697 -0.1104
  567MOL0     H76497  11.338   3.259   5.312  0.8360 -0.1421 -1.5378
  567MOL0     H76498  11.377   3.396   5.212  1.2482 -0.0829  1.5769
  567MOL0     H76499  11.179   3.486   5.257  3.2698  0.4067  1.0815
  567MOL0     H76500  11.132   3.352   5.381 -0.4114 -1.4751 -0.5695
  567MOL0     H76501  11.340   3.591   5.384 -0.3890  0.5185  0.1744
  567MOL0     H76502  11.331   3.474   5.516  1.9001 -0.3766 -1.7206
  567MOL0     H76503  11.105   3.659   5.406 -1.2684 -0.2954  0.5142
  567MOL0     H76504  11.217   3.713   5.528  0.9704 -0.4499  2.0904
  567MOL0     H76505  10.914   3.438   5.750 -1.4812 -0.5572  3.1774
  567MOL0     H76506  10.725   3.553   5.869  1.5352 -3.8994 -2.1041
  567MOL0     H76507  10.495   3.915   6.091  0.2184 -1.0569  0.7933
  567MOL0     H76508  10.265   4.032   6.126  2.1221  0.5228  0.1938
  567MOL0     H76509  10.155   4.140   5.780 -0.3958  0.4746 -0.4188
  567MOL0     H76510   9.985   4.077   5.755 -2.3558  2.2588  1.5242
  567MOL0     H76511   9.963   4.301   5.744  0.4260 -0.6242 -0.6353
  567MOL0     H76512   9.880   4.243   5.878 -0.3351 -1.4293 -0.8568
  567MOL0     H76513  10.100   4.289   6.015  2.1847  0.9380  0.2471
  567MOL0     H76514  10.130   4.403   5.873  0.4734 -0.1101  0.6046
  567MOL0     H76515  10.048   4.494   6.080  0.6350  1.2183  0.0844
  567MOL0     H76516   9.905   4.386   6.067  4.0585 -2.5154  3.7280
  567MOL0     H76517   9.802   4.512   5.895  0.5362 -2.6615  2.0590
  567MOL0     H76518   9.957   4.544   5.817  0.8059  2.5568 -0.4147
  567MOL0     H76519   9.887   4.746   5.848  0.7610 -1.5592 -2.1242
  567MOL0     H76520   9.822   4.717   6.008  0.9927 -0.6521  0.3201
  567MOL0     H76521  10.117   4.712   5.932  1.4906  1.9458  0.6329
  567MOL0     H76522  10.055   4.740   6.107  0.3898 -0.4532 -0.2416
  567MOL0     H76523   9.993   4.945   6.062 -2.4828 -3.1056 -1.7070
  567MOL0     H76524  10.158   4.919   6.031 -0.6510  3.3401  0.0222
  567MOL0     H76525  10.155   3.891   5.735 -1.1271  1.9016  1.0881
  567MOL0     H76526  10.353   3.751   5.721 -1.8671 -0.6613  0.1501
  567MOL0     H76527  10.869   3.925   5.688  1.0022  0.7227  1.2380
  567MOL0     H76528  11.051   3.822   5.598  0.3701  0.5738  0.5078
  567MOL0     H76529  11.624   2.441   4.286  0.4913 -2.9680 -3.6420
  567MOL0     H76530  11.488   2.303   4.120  0.7246  0.8391 -0.7184
  567MOL0     H76531  11.010   2.147   4.129  0.9978  0.7720  0.4272
  567MOL0     H76532  10.812   2.006   4.022  0.1281  3.0048  2.7896
  567MOL0     H76533  10.673   1.781   3.945 -1.9692 -0.5178 -3.1459
  567MOL0     H76534  10.806   1.682   4.001  1.5763 -1.8097 -0.4475
  567MOL0     H76535  10.758   1.633   3.708  1.6166 -1.1525 -0.3952
  567MOL0     H76536  10.605   1.637   3.787  1.1050  4.8204  0.8871
  567MOL0     H76537  10.643   1.403   3.830 -0.7168 -0.8868  2.9247
  567MOL0     H76538  10.715   1.474   3.970  2.0750 -1.9376 -0.4702
  567MOL0     H76539  10.849   1.303   3.854  0.3705  0.9375  3.2056
  567MOL0     H76540  10.873   1.409   3.721  4.0966 -1.2680  0.6296
  567MOL0     H76541  11.135   1.545   4.030 -0.3977  0.3790 -0.5113
  567MOL0     H76542  11.103   1.765   3.836  1.5375  3.6921 -3.9190
  567MOL0     H76543  11.376   1.933   3.845  0.3315 -0.8938 -1.3063
  567MOL0     H76544  11.390   1.856   4.006  2.7362  0.6371 -1.8464
  567MOL0     H76545  11.321   1.763   3.878 -2.8702 -0.0159  2.6151
  568MOL0     O76546   8.360   4.600   5.751  0.0860  0.7200  0.3856
  568MOL0     C76547   8.244   4.593   5.792 -0.2670  0.1152 -0.4119
  568MOL0     O76548   8.193   4.668   5.896 -0.1558 -0.3626 -0.0736
  568MOL0     C76549   8.267   4.771   5.947 -0.1329 -0.6609  0.8258
  568MOL0     C76550   8.317   4.776   6.081  1.2772  0.3527 -0.3382
  568MOL0     C76551   8.384   4.886   6.126 -1.2034  0.2718 -0.6790
  568MOL0     C76552   8.415   4.992   6.041 -1.1213 -0.1244  0.3079
  568MOL0     O76553   8.482   5.102   6.088 -0.1987  0.5268 -0.2084
  568MOL0     C76554   8.539   5.125   6.221  0.0688 -0.8172  0.3636
  568MOL0     C76555   8.636   5.237   6.188 -0.1265  0.9660  0.3383
  568MOL0     C76556   8.740   5.178   6.093  0.6981 -0.9444  0.5482
  568MOL0     C76557   8.759   5.281   5.981 -0.2249 -0.0928  0.1846
  568MOL0     C76558   8.815   5.221   5.841  0.1587  0.3133  0.2198
  568MOL0     C76559   8.814   5.327   5.728 -0.0920  0.5068  0.1245
  568MOL0     C76560   8.918   5.438   5.755 -0.3176 -0.2765  0.2243
  568MOL0     C76561   9.017   5.466   5.639 -0.2607  0.4994 -0.8224
  568MOL0     N76562   8.964   5.545   5.527  0.2662  0.4305  0.3796
  568MOL0     C76563   9.030   5.529   5.406 -0.5131  0.7148 -1.0084
  568MOL0     C76564   8.972   5.621   5.319 -0.6802  0.3393 -0.3661
  568MOL0     C76565   9.022   5.621   5.175  0.7480 -0.3002  1.5668
  568MOL0     C76566   8.988   5.769   5.120 -0.3346 -0.0787  0.4989
  568MOL0     C76567   9.056   5.876   5.207 -0.0328  0.4279 -0.4433
  568MOL0     C76568   9.044   6.027   5.151 -0.9224  0.3442 -0.6459
  568MOL0     O76569   8.896   6.052   5.133  0.4728 -0.1842  0.3390
  568MOL0     C76570   8.863   6.164   5.062  0.5620 -0.2052 -0.3735
  568MOL0     C76571   8.739   6.228   5.092 -1.1826  0.5430 -0.0045
  568MOL0     C76572   8.702   6.337   5.030 -0.1850 -0.2348  0.4073
  568MOL0     C76573   8.769   6.390   4.922 -0.3287 -0.3979 -1.1813
  568MOL0     C76574   8.710   6.506   4.851 -0.3442 -0.3564  0.9297
  568MOL0     O76575   8.798   6.567   4.764  1.0036  1.4557 -0.2203
  568MOL0     C76576   8.774   6.691   4.726  0.2287 -0.5151  0.7969
  568MOL0     C76577   8.699   6.786   4.802  0.0789  0.3310  0.4527
  568MOL0     C76578   8.684   6.924   4.766 -0.0976 -1.1396  0.5505
  568MOL0     C76579   8.728   6.963   4.639  0.1646 -1.0127 -0.7516
  568MOL0     O76580   8.726   7.103   4.605 -0.1453 -0.5918  1.0324
  568MOL0     C76581   8.640   7.203   4.657  0.1556 -0.0793  0.2464
  568MOL0     C76582   8.666   7.345   4.607  0.0875 -0.0658 -0.2999
  568MOL0     C76583   8.807   7.377   4.628  0.0841 -0.4544 -0.9477
  568MOL0     C76584   8.822   7.417   4.783  0.1900 -0.0987  0.1375
  568MOL0     C76585   8.970   7.436   4.836  0.8147  0.3341  0.3029
  568MOL0     C76586   9.048   7.300   4.856 -0.2016  0.4151  0.5034
  568MOL0     C76587   9.199   7.323   4.896  0.6845 -0.1915 -0.3884
  568MOL0     C76588   9.284   7.427   4.821  0.2089  0.4276 -0.5810
  568MOL0    Cl76589   9.251   7.410   4.651  0.0021 -0.3110 -0.3047
  568MOL0     C76590   8.796   6.874   4.557  0.2100 -0.0034  0.4556
  568MOL0     C76591   8.829   6.744   4.607  0.1660 -0.3466 -0.3205
  568MOL0     O76592   8.591   6.535   4.861 -0.9099  0.3871  0.8418
  568MOL0     C76593   8.887   6.326   4.885 -0.5096  0.0542  0.8011
  568MOL0     C76594   8.931   6.220   4.955 -1.0264 -0.0228  0.0590
  568MOL0     N76595   8.872   5.681   5.391 -0.0592 -0.5927 -0.1834
  568MOL0     N76596   8.866   5.632   5.512 -0.4408  0.4399  0.6823
  568MOL0     C76597   8.379   4.987   5.908  0.6196  0.0603 -0.6491
  568MOL0     C76598   8.307   4.877   5.857 -0.4837 -0.1634 -0.0429
  568MOL0     C76599   8.155   4.492   5.744  1.0777  0.5998 -0.4709
  568MOL0     C76600   8.210   4.371   5.703 -0.7477  0.3476  0.3020
  568MOL0     C76601   8.133   4.266   5.651 -0.0447  0.3443  0.1036
  568MOL0     C76602   7.999   4.274   5.656 -0.1766 -1.0240 -0.4483
  568MOL0     O76603   7.936   4.161   5.609  0.4498  0.2088  0.5267
  568MOL0     C76604   7.804   4.130   5.654  0.0303 -0.4221 -0.7172
  568MOL0     C76605   7.757   4.013   5.574  0.7448 -0.0787 -0.2115
  568MOL0     C76606   7.603   4.000   5.598 -0.5762 -0.4740 -0.0822
  568MOL0     C76607   7.524   3.900   5.507  0.6214  0.0380  0.1525
  568MOL0     C76608   7.507   3.934   5.366  0.7884  0.2364 -1.9301
  568MOL0     C76609   7.491   3.977   5.259 -0.5385  0.2797  0.2033
  568MOL0     C76610   7.944   4.393   5.690 -0.2267  0.4168 -0.3002
  568MOL0     C76611   8.011   4.501   5.741 -1.2139  0.0572 -0.6614
  568MOL0     C76612   7.930   4.624   5.788 -0.2199  0.3948 -0.1234
  568MOL0     H76613   8.302   4.688   6.143  0.9130 -0.2724 -1.2867
  568MOL0     H76614   8.407   4.868   6.231 -3.1418 -0.8820 -0.3855
  568MOL0     H76615   8.463   5.167   6.288  1.2196  2.4175 -0.2007
  568MOL0     H76616   8.583   5.039   6.271  0.9568  0.6743  2.2478
  568MOL0     H76617   8.682   5.273   6.280 -1.4550 -1.4761  2.0580
  568MOL0     H76618   8.583   5.317   6.136  1.1422  1.9057  0.4214
  568MOL0     H76619   8.718   5.083   6.045 -3.5762 -0.6856  1.6672
  568MOL0     H76620   8.834   5.164   6.149 -0.1090  0.7310  2.4713
  568MOL0     H76621   8.662   5.320   5.950 -0.4707 -0.7256  0.1502
  568MOL0     H76622   8.826   5.359   6.020  0.2759 -0.1897 -0.4605
  568MOL0     H76623   8.919   5.189   5.852  0.7691  2.1572  0.0910
  568MOL0     H76624   8.747   5.137   5.825  0.1258  0.1971  0.9538
  568MOL0     H76625   8.817   5.265   5.637 -4.9983 -2.1710  1.4176
  568MOL0     H76626   8.715   5.374   5.722  0.2579  1.2195 -0.1837
  568MOL0     H76627   8.976   5.415   5.845 -1.6928  0.4144  1.3214
  568MOL0     H76628   8.864   5.526   5.793  0.5615 -1.2263  4.2291
  568MOL0     H76629   9.099   5.523   5.682 -1.6522  2.2793 -0.4060
  568MOL0     H76630   9.063   5.376   5.596  4.1289  2.8465 -1.5920
  568MOL0     H76631   9.115   5.461   5.394 -1.4934 -1.6834  3.2946
  568MOL0     H76632   9.132   5.615   5.175  0.7669 -0.0199  1.9340
  568MOL0     H76633   8.973   5.544   5.115  0.5769  0.0379  1.2696
  568MOL0     H76634   9.045   5.778   5.027  0.3071  1.0156  0.9742
  568MOL0     H76635   8.881   5.783   5.100 -0.5161  0.8425  1.9341
  568MOL0     H76636   9.158   5.844   5.226  0.5658  1.5972 -1.5344
  568MOL0     H76637   9.000   5.883   5.301  1.6399  1.7453  0.5213
  568MOL0     H76638   9.097   6.039   5.057 -0.2720 -0.4787 -0.3919
  568MOL0     H76639   9.079   6.087   5.235 -1.1397 -0.9928  0.4420
  568MOL0     H76640   8.677   6.192   5.174  0.7270  0.5457  1.5411
  568MOL0     H76641   8.606   6.380   5.056 -0.9990  1.7912 -4.6316
  568MOL0     H76642   8.653   6.760   4.897  0.5737 -0.5015  0.4744
  568MOL0     H76643   8.633   7.000   4.824 -1.4362 -0.1565 -1.7716
  568MOL0     H76644   8.535   7.182   4.636 -0.1214 -1.8560  2.9360
  568MOL0     H76645   8.637   7.208   4.766  0.4032 -0.7905  0.2922
  568MOL0     H76646   8.646   7.354   4.499 -2.3168  0.9938  0.1640
  568MOL0     H76647   8.599   7.423   4.644  2.3590  1.6572  0.4627
  568MOL0     H76648   8.870   7.294   4.596  0.7058 -0.9393  1.3672
  568MOL0     H76649   8.827   7.465   4.565 -2.5514  0.3566 -0.7957
  568MOL0     H76650   8.782   7.338   4.847 -1.7201  2.1992  1.9260
  568MOL0     H76651   8.764   7.505   4.812  1.5035  1.2552 -1.1680
  568MOL0     H76652   8.968   7.468   4.940  1.0524  0.8428  0.1584
  568MOL0     H76653   9.021   7.513   4.776  0.0091  2.0975  1.7727
  568MOL0     H76654   9.009   7.224   4.925 -1.0941  0.3108 -0.0890
  568MOL0     H76655   9.050   7.254   4.757 -2.4626 -0.8661  0.9702
  568MOL0     H76656   9.238   7.222   4.887 -0.1754 -0.4819 -1.0753
  568MOL0     H76657   9.197   7.339   5.004  0.9220  1.4517 -0.6030
  568MOL0     H76658   9.279   7.532   4.852 -2.1401  1.1455 -2.9965
  568MOL0     H76659   9.383   7.404   4.860  0.1818  2.8207  1.1279
  568MOL0     H76660   8.829   6.924   4.466 -0.8545  3.9338  2.0133
  568MOL0     H76661   8.881   6.688   4.530 -0.3403 -0.9533 -0.2206
  568MOL0     H76662   8.942   6.371   4.803  2.5545 -4.5865 -0.0880
  568MOL0     H76663   9.029   6.185   4.924 -0.6621  1.4735 -0.6086
  568MOL0     H76664   8.403   5.073   5.847  0.2066 -1.5951 -3.2790
  568MOL0     H76665   8.283   4.877   5.752  0.6186 -0.6936 -0.3086
  568MOL0     H76666   8.313   4.340   5.703 -1.6847 -3.2227  1.4763
  568MOL0     H76667   8.190   4.174   5.642  0.9453  0.9920 -0.4898
  568MOL0     H76668   7.732   4.211   5.637 -0.5274 -0.9642 -0.9708
  568MOL0     H76669   7.803   4.103   5.760  0.8975 -1.9289 -1.0724
  568MOL0     H76670   7.800   3.917   5.603  1.5843  0.0523 -0.9690
  568MOL0     H76671   7.783   4.029   5.469 -0.0968 -2.3350 -0.8156
  568MOL0     H76672   7.550   4.096   5.594  0.8180  0.3409  0.6424
  568MOL0     H76673   7.589   3.957   5.697  3.1601  0.5713  1.0156
  568MOL0     H76674   7.575   3.804   5.505 -0.1374 -0.4280 -3.4503
  568MOL0     H76675   7.429   3.890   5.561 -0.1266 -1.0245 -1.3078
  568MOL0     H76676   7.471   3.990   5.154  2.1618 -1.6489 -0.6598
  568MOL0     H76677   7.836   4.407   5.684 -0.4695 -0.5568  1.3906
  568MOL0     H76678   7.973   4.716   5.748 -0.6964  0.6502 -0.0576
  568MOL0     H76679   7.823   4.618   5.766  0.4027 -0.4698 -3.6292
  568MOL0     H76680   7.949   4.628   5.895 -0.3524  1.4282 -0.1338
  569MOL0     O76681   9.613   7.362   2.008  0.0117 -1.0190 -0.6021
  569MOL0     C76682   9.634   7.245   2.023  2.0120  0.1287 -0.9198
  569MOL0     O76683   9.541   7.151   1.982  0.0123 -0.5785 -0.6483
  569MOL0     C76684   9.417   7.176   1.977 -0.0144 -0.1434 -0.6065
  569MOL0     C76685   9.341   7.077   1.911  0.4172 -0.1989 -0.0435
  569MOL0     C76686   9.204   7.081   1.898  0.7948  0.1479 -0.3326
  569MOL0     C76687   9.125   7.178   1.950  0.2731  0.0638  0.6887
  569MOL0     O76688   8.985   7.176   1.928  0.2231 -0.3875 -0.3392
  569MOL0     C76689   8.895   7.283   1.969  0.1537  0.5847  0.9037
  569MOL0     C76690   8.749   7.251   1.928  0.0859 -0.1335  1.2066
  569MOL0     C76691   8.663   7.373   1.973 -0.2518  0.4947 -0.8089
  569MOL0     C76692   8.511   7.379   1.921 -0.2708  0.5715 -0.2285
  569MOL0     C76693   8.488   7.468   1.806  0.7542 -0.7233 -0.2465
  569MOL0     C76694   8.349   7.440   1.748  0.2122  1.4007 -0.0955
  569MOL0     C76695   8.302   7.532   1.631 -0.1874 -0.5963  0.1207
  569MOL0     C76696   8.167   7.478   1.560 -0.1957 -0.6160 -0.2377
  569MOL0     N76697   8.152   7.538   1.428  0.1982  0.2352 -0.6432
  569MOL0     C76698   8.077   7.643   1.392  0.8067  0.1503  0.2269
  569MOL0     C76699   8.079   7.648   1.259 -0.1924 -0.5365  0.0657
  569MOL0     C76700   8.022   7.745   1.158  0.0416 -0.2353  0.1632
  569MOL0     C76701   7.870   7.760   1.183  0.7303 -0.4162  0.0183
  569MOL0     C76702   7.798   7.864   1.096 -0.2569  0.5212  0.2717
  569MOL0     C76703   7.741   7.801   0.976 -0.3330  0.1038  0.3856
  569MOL0     O76704   7.689   7.909   0.893 -0.3710  0.6366  0.9384
  569MOL0     C76705   7.636   7.877   0.770 -1.1410  0.3058 -0.7225
  569MOL0     C76706   7.575   7.980   0.699 -0.6635 -0.0383 -0.3247
  569MOL0     C76707   7.508   7.962   0.576  0.1384  0.3087 -0.1881
  569MOL0     C76708   7.506   7.827   0.528  0.6015 -0.0053  0.0504
  569MOL0     C76709   7.431   7.797   0.408 -0.1983 -0.7908  0.5580
  569MOL0     O76710   7.383   7.667   0.388 -0.1833 -0.9355 -0.0212
  569MOL0     C76711   7.301   7.644   0.289 -0.2448  0.9722  1.2168
  569MOL0     C76712   7.286   7.698   0.163  0.0523  0.8709 -0.0850
  569MOL0     C76713   7.178   7.664   0.082  0.4625 -0.1116 -0.2381
  569MOL0     C76714   7.114   7.539   0.104  0.6062  0.0247  0.1043
  569MOL0     O76715   7.030   7.480   0.013 -0.4024  0.5563 -0.7565
  569MOL0     C76716   7.039   7.524  -0.124 -0.1369 -0.5157 -0.4631
  569MOL0     C76717   6.999   7.416  -0.222 -0.5477  0.0462 -0.1201
  569MOL0     C76718   6.852   7.426  -0.271 -0.0395 -0.3726  1.0324
  569MOL0     C76719   6.750   7.408  -0.156 -0.2498  0.6769 -0.0807
  569MOL0     C76720   6.621   7.485  -0.193  0.1967 -0.0377  0.4837
  569MOL0     C76721   6.511   7.513  -0.085  0.9864 -0.6981 -0.5911
  569MOL0     C76722   6.479   7.379  -0.005  0.8293 -0.3058 -0.4001
  569MOL0     C76723   6.406   7.278  -0.087  0.2844  0.2358  0.9191
  569MOL0    Cl76724   6.402   7.131   0.008 -0.0651 -0.3516 -0.1915
  569MOL0     C76725   7.150   7.463   0.218 -0.4374 -0.1438 -0.8099
  569MOL0     C76726   7.227   7.525   0.317  0.7914  0.0991  0.2910
  569MOL0     O76727   7.413   7.899   0.335  0.4814  0.3178  0.2077
  569MOL0     C76728   7.581   7.722   0.586  0.1562  0.5732  0.3589
  569MOL0     C76729   7.648   7.747   0.708  0.0049 -0.8221  0.3264
  569MOL0     N76730   8.140   7.533   1.214 -0.7107  0.4214  0.2451
  569MOL0     N76731   8.200   7.480   1.312  0.9640 -0.1527 -0.2016
  569MOL0     C76732   9.200   7.279   2.017  0.6879  0.0496  0.6748
  569MOL0     C76733   9.338   7.281   2.034 -0.4110  0.5730  0.1211
  569MOL0     C76734   9.755   7.199   2.085 -0.4266  0.2696  0.4403
  569MOL0     C76735   9.876   7.267   2.053  0.3854  0.3317 -0.3028
  569MOL0     C76736   9.991   7.225   2.113  0.1295 -0.0130  0.1598
  569MOL0     C76737  10.001   7.126   2.207 -0.1474 -0.2514  0.4232
  569MOL0     O76738  10.121   7.099   2.262 -0.4850  0.4567 -0.1180
  569MOL0     C76739  10.152   6.957   2.276 -0.5470 -0.3292 -0.2999
  569MOL0     C76740  10.184   6.935   2.428  0.9166 -0.4055  0.5165
  569MOL0     C76741  10.253   6.809   2.451 -0.2565 -0.1337 -0.4104
  569MOL0     C76742  10.303   6.813   2.601  0.0132 -0.2341  0.4557
  569MOL0     C76743  10.191   6.817   2.701 -0.2444  0.0714  0.2659
  569MOL0     C76744  10.097   6.811   2.785 -0.2050  0.7971  1.5443
  569MOL0     C76745   9.882   7.060   2.228 -0.7133  0.0632 -0.4309
  569MOL0     C76746   9.757   7.087   2.168 -0.4412 -1.0244  0.4099
  569MOL0     C76747   9.627   7.028   2.238  0.2892  0.1924  0.2981
  569MOL0     H76748   9.382   6.983   1.876 -2.2128 -0.4406 -2.8364
  569MOL0     H76749   9.172   6.995   1.838  0.6745 -0.4656  0.5897
  569MOL0     H76750   8.883   7.288   2.078  1.5386  1.5580  1.0463
  569MOL0     H76751   8.945   7.372   1.928  2.6877 -1.3764 -0.6070
  569MOL0     H76752   8.711   7.154   1.964 -0.1138 -0.4250  0.2280
  569MOL0     H76753   8.745   7.237   1.820  1.7608 -3.4536  1.4575
  569MOL0     H76754   8.710   7.467   1.943 -0.8452  1.0349 -0.0827
  569MOL0     H76755   8.675   7.367   2.082  1.1352 -4.1373 -0.9989
  569MOL0     H76756   8.485   7.273   1.912  0.0637  0.2956  1.5815
  569MOL0     H76757   8.440   7.414   1.997 -1.0742  1.2476 -1.2648
  569MOL0     H76758   8.512   7.571   1.832 -1.1102 -1.1109  3.8264
  569MOL0     H76759   8.561   7.434   1.732  0.1250 -0.4032 -1.0212
  569MOL0     H76760   8.354   7.334   1.722  3.0640  1.8438 -1.7431
  569MOL0     H76761   8.285   7.468   1.832  0.2438 -1.2299  0.8973
  569MOL0     H76762   8.372   7.535   1.547  2.7385 -0.0203  2.3947
  569MOL0     H76763   8.284   7.636   1.660  0.4328 -0.3033 -0.5108
  569MOL0     H76764   8.178   7.371   1.541 -0.4081 -0.9379  1.3618
  569MOL0     H76765   8.083   7.508   1.624  0.2782  0.9239 -0.2877
  569MOL0     H76766   8.022   7.703   1.465  1.6852 -1.9268  2.7398
  569MOL0     H76767   8.065   7.845   1.164  3.2026 -1.3651 -1.6045
  569MOL0     H76768   8.038   7.708   1.057  1.6401  0.7715  0.0238
  569MOL0     H76769   7.818   7.665   1.168 -1.2780  0.6693 -0.1817
  569MOL0     H76770   7.853   7.798   1.284  0.8255 -2.0681  0.6950
  569MOL0     H76771   7.861   7.948   1.067 -1.1461  1.4672  0.9977
  569MOL0     H76772   7.714   7.898   1.157 -0.0119  3.4577 -0.8507
  569MOL0     H76773   7.675   7.719   1.006  0.1957 -0.3238  0.3892
  569MOL0     H76774   7.822   7.751   0.922 -2.7053 -2.0966 -1.4129
  569MOL0     H76775   7.572   8.083   0.736 -4.6851 -0.4255  0.9584
  569MOL0     H76776   7.480   8.048   0.518  6.2385  0.9811 -2.9521
  569MOL0     H76777   7.336   7.781   0.115 -0.4825 -0.4460 -3.2103
  569MOL0     H76778   7.159   7.733   0.001  0.9974 -1.9988 -2.0368
  569MOL0     H76779   6.987   7.619  -0.140  0.6278 -0.1440 -0.8093
  569MOL0     H76780   7.143   7.543  -0.153 -1.0335  1.3841 -2.8709
  569MOL0     H76781   7.068   7.427  -0.306 -0.9137  0.4436 -0.3763
  569MOL0     H76782   7.027   7.327  -0.164  0.9379  1.5161  1.5071
  569MOL0     H76783   6.846   7.527  -0.312 -0.8817 -1.4852 -1.8741
  569MOL0     H76784   6.821   7.362  -0.354  1.5900 -0.1976  0.2579
  569MOL0     H76785   6.794   7.453  -0.066 -0.2379 -0.5435  0.5491
  569MOL0     H76786   6.731   7.304  -0.129 -0.5800 -0.0764 -2.9051
  569MOL0     H76787   6.576   7.453  -0.288  0.5054  0.4057  0.1792
  569MOL0     H76788   6.658   7.585  -0.219 -0.4369 -0.0986 -0.7681
  569MOL0     H76789   6.543   7.583  -0.008  0.0099 -1.2803  0.3778
  569MOL0     H76790   6.424   7.561  -0.132  2.3455  2.5866  0.0242
  569MOL0     H76791   6.407   7.390   0.076 -1.7926 -2.2501 -2.2706
  569MOL0     H76792   6.567   7.335   0.042 -0.0783 -0.2795  1.3759
  569MOL0     H76793   6.307   7.314  -0.116 -0.3367 -2.0408  0.0155
  569MOL0     H76794   6.465   7.262  -0.178  1.8669  0.7109  1.8253
  569MOL0     H76795   7.116   7.363   0.242 -0.6758  0.0578 -0.2885
  569MOL0     H76796   7.244   7.471   0.409  0.4364 -2.9279 -1.3045
  569MOL0     H76797   7.590   7.621   0.547 -1.0698 -1.2915  4.4125
  569MOL0     H76798   7.696   7.663   0.759 -1.7133 -1.0417  1.6861
  569MOL0     H76799   9.147   7.367   2.052  1.1409  1.5955 -2.1664
  569MOL0     H76800   9.382   7.362   2.091  0.4573 -1.4661  2.5518
  569MOL0     H76801   9.880   7.353   1.987  1.1389 -1.0755 -2.1592
  569MOL0     H76802  10.076   7.292   2.103 -0.7169  0.7720 -3.1251
  569MOL0     H76803  10.229   6.922   2.207 -0.7447  1.4088 -1.4766
  569MOL0     H76804  10.065   6.894   2.256  0.4544 -2.4886  1.6722
  569MOL0     H76805  10.094   6.943   2.490 -0.4226  2.3022 -1.5573
  569MOL0     H76806  10.256   7.010   2.463  1.2058 -1.6432  2.8043
  569MOL0     H76807  10.338   6.793   2.384 -1.3505  0.4322 -1.9987
  569MOL0     H76808  10.191   6.722   2.429 -0.6795 -0.2186  0.9970
  569MOL0     H76809  10.360   6.721   2.618 -0.7108 -1.7515 -4.0173
  569MOL0     H76810  10.359   6.904   2.621 -0.2848 -0.1882  1.1177
  569MOL0     H76811  10.020   6.826   2.858 -2.7823  1.5947 -1.1351
  569MOL0     H76812   9.864   6.984   2.304 -0.8743 -0.9473 -1.4605
  569MOL0     H76813   9.660   6.942   2.295  0.8902  1.6926  2.3187
  569MOL0     H76814   9.583   7.095   2.313  0.8492 -1.6797  2.3825
  569MOL0     H76815   9.543   6.988   2.181 -1.2913  1.8131  1.3815
  570MOL0     O76816   2.045   3.074  11.047 -0.8422 -0.3048  0.1117
  570MOL0     C76817   1.977   3.151  11.113 -0.3304  0.2575 -0.1629
  570MOL0     O76818   2.020   3.258  11.177  0.0647 -0.2703  0.5243
  570MOL0     C76819   2.126   3.328  11.137 -0.1632  0.6486 -1.1047
  570MOL0     C76820   2.163   3.352  11.000 -1.1987  0.7739  0.4094
  570MOL0     C76821   2.274   3.434  10.977  0.6041 -0.5130  0.3633
  570MOL0     C76822   2.358   3.483  11.079 -0.5350  0.1773  0.1311
  570MOL0     O76823   2.473   3.557  11.064 -0.1238 -0.7879 -0.0939
  570MOL0     C76824   2.523   3.579  10.928 -0.3843  0.9256  0.2335
  570MOL0     C76825   2.665   3.662  10.923  0.5049 -0.4616  0.1917
  570MOL0     C76826   2.782   3.580  10.984 -0.5848 -0.2388 -0.1772
  570MOL0     C76827   2.911   3.662  10.975 -0.2249 -0.2347 -0.5815
  570MOL0     C76828   2.970   3.652  10.836 -0.7703 -0.0093  0.7266
  570MOL0     C76829   3.099   3.730  10.834  0.4250  0.8770 -0.3262
  570MOL0     C76830   3.168   3.705  10.701 -0.2775 -1.1795 -0.6276
  570MOL0     C76831   3.303   3.770  10.688  0.9253  1.0500 -0.0586
  570MOL0     N76832   3.383   3.725  10.574 -0.3256 -0.1935 -0.4833
  570MOL0     C76833   3.448   3.604  10.570  0.0169 -0.0816 -0.5152
  570MOL0     C76834   3.529   3.622  10.458 -0.4430  1.4492  0.1478
  570MOL0     C76835   3.622   3.521  10.405 -0.0348  0.2517  0.2114
  570MOL0     C76836   3.556   3.406  10.332  0.3196  0.7074  0.4360
  570MOL0     C76837   3.494   3.448  10.197 -0.7294 -0.6545  0.2653
  570MOL0     C76838   3.407   3.344  10.129  0.0180 -0.6591  0.6520
  570MOL0     O76839   3.302   3.296  10.217 -0.1121  0.0733 -0.0375
  570MOL0     C76840   3.184   3.361  10.226  0.1524 -0.1895 -0.3906
  570MOL0     C76841   3.156   3.458  10.319  0.2723 -0.1803 -0.6862
  570MOL0     C76842   3.028   3.510  10.333 -0.2235  0.3879 -0.2480
  570MOL0     C76843   2.922   3.473  10.258  0.1240 -0.2812  0.4771
  570MOL0     C76844   2.790   3.540  10.284 -0.1730 -0.0989  0.4150
  570MOL0     O76845   2.772   3.616  10.391 -0.5474 -0.3493  0.1978
  570MOL0     C76846   2.655   3.676  10.409  0.7294  0.2890  0.2989
  570MOL0     C76847   2.592   3.674  10.534 -0.7713  0.1208  1.3354
  570MOL0     C76848   2.469   3.738  10.559  0.4235 -0.8856  0.6130
  570MOL0     C76849   2.404   3.805  10.453  0.0573  0.8460 -0.0637
  570MOL0     O76850   2.274   3.848  10.489  0.3308  0.1986 -0.0387
  570MOL0     C76851   2.270   3.981  10.541 -0.7237 -0.4870 -0.0927
  570MOL0     C76852   2.134   4.009  10.613  0.4093 -0.0965  0.0973
  570MOL0     C76853   2.106   3.914  10.727  0.0400 -0.7676 -1.3794
  570MOL0     C76854   2.073   3.761  10.702  0.5031  0.0192  0.2446
  570MOL0     C76855   2.005   3.692  10.819 -0.3121  0.1418  0.9509
  570MOL0     C76856   1.919   3.571  10.795  0.5934 -0.1874  0.3974
  570MOL0     C76857   1.799   3.600  10.712 -0.9430  0.4121  0.0016
  570MOL0     C76858   1.679   3.518  10.755  0.2990  1.1218 -0.0430
  570MOL0    Cl76859   1.554   3.532  10.619  0.5890  0.0326 -0.0839
  570MOL0     C76860   2.452   3.806  10.320 -0.6139  0.5480 -0.6655
  570MOL0     C76861   2.582   3.745  10.307 -0.3593 -1.1151 -0.1767
  570MOL0     O76862   2.707   3.509  10.199  0.9069 -0.3820 -0.2680
  570MOL0     C76863   2.951   3.379  10.156  0.1040  1.1996 -0.1387
  570MOL0     C76864   3.077   3.324  10.139 -0.2885  0.2484 -0.3677
  570MOL0     N76865   3.515   3.750  10.411  0.7488 -0.3743 -0.2529
  570MOL0     N76866   3.411   3.811  10.473 -0.5890 -0.1116 -0.1887
  570MOL0     C76867   2.316   3.469  11.211 -0.2487 -0.0697  0.5214
  570MOL0     C76868   2.205   3.387  11.237  0.1238 -0.2926  1.3256
  570MOL0     C76869   1.843   3.122  11.134 -0.3752  0.2772 -1.1165
  570MOL0     C76870   1.804   2.989  11.148 -0.5729 -0.3492  0.9499
  570MOL0     C76871   1.677   2.947  11.167  0.8389  0.5685  0.1356
  570MOL0     C76872   1.584   3.055  11.147  0.0212 -0.8834 -0.1720
  570MOL0     O76873   1.441   3.044  11.162  0.4070 -0.4043  0.2437
  570MOL0     C76874   1.393   2.928  11.236 -0.3271  0.9701 -0.1998
  570MOL0     C76875   1.319   2.830  11.149 -0.2543 -1.2871  0.2480
  570MOL0     C76876   1.394   2.739  11.061 -1.3675  0.1961  0.1961
  570MOL0     C76877   1.438   2.605  11.128 -0.3051  0.8095 -0.3673
  570MOL0     C76878   1.548   2.596  11.217  0.5619  0.0421 -0.3151
  570MOL0     C76879   1.644   2.583  11.279 -0.4602  0.4259 -0.7262
  570MOL0     C76880   1.624   3.192  11.124  0.7279  0.5072 -0.1993
  570MOL0     C76881   1.746   3.229  11.123  0.2592 -1.2609 -0.0848
  570MOL0     C76882   1.778   3.373  11.088  0.0111 -0.2499 -0.0610
  570MOL0     H76883   2.102   3.324  10.915 -3.8057  2.8101  1.4707
  570MOL0     H76884   2.288   3.452  10.871 -2.4021  0.1603 -0.0211
  570MOL0     H76885   2.532   3.475  10.894  0.3881  1.3336 -0.8585
  570MOL0     H76886   2.451   3.637  10.870 -1.4885  1.4692  2.0452
  570MOL0     H76887   2.662   3.750  10.987 -2.4844 -2.0864  2.5387
  570MOL0     H76888   2.676   3.685  10.817  0.2796  0.2557  0.3190
  570MOL0     H76889   2.804   3.487  10.931 -0.4062 -1.4610  1.9124
  570MOL0     H76890   2.761   3.553  11.088  1.6896  0.4296  0.5133
  570MOL0     H76891   2.885   3.760  11.017 -4.5070 -2.5635  2.9979
  570MOL0     H76892   2.984   3.614  11.040 -2.6376 -0.5845  2.0555
  570MOL0     H76893   2.979   3.547  10.807 -1.6501  0.8136 -3.0844
  570MOL0     H76894   2.910   3.695  10.756  4.1880  0.0074 -3.5781
  570MOL0     H76895   3.067   3.832  10.858 -2.3339 -0.3737  1.8009
  570MOL0     H76896   3.157   3.690  10.917 -1.5848  1.2596  1.3466
  570MOL0     H76897   3.106   3.759  10.629 -2.5532  1.1427  2.7628
  570MOL0     H76898   3.177   3.597  10.688  0.4668 -1.1565 -0.3892
  570MOL0     H76899   3.297   3.879  10.686  1.4921  1.0804 -0.4487
  570MOL0     H76900   3.363   3.727  10.770  0.5843 -3.5525 -1.9347
  570MOL0     H76901   3.441   3.521  10.640 -1.2833 -0.4508 -1.0597
  570MOL0     H76902   3.695   3.569  10.339 -1.3891  2.1202 -0.0265
  570MOL0     H76903   3.690   3.485  10.483  0.3886  0.3598 -0.1069
  570MOL0     H76904   3.636   3.332  10.322 -0.9040 -1.1959  3.3483
  570MOL0     H76905   3.476   3.367  10.396  0.7644  0.3632  0.7875
  570MOL0     H76906   3.571   3.495  10.134 -1.3417  2.3218  1.5448
  570MOL0     H76907   3.420   3.525  10.222  0.1126  1.0925 -2.1985
  570MOL0     H76908   3.476   3.262  10.105 -1.4866 -0.9925 -3.1375
  570MOL0     H76909   3.369   3.373  10.031 -0.0451 -0.9383  0.5905
  570MOL0     H76910   3.224   3.490  10.397 -1.2932  1.2304  0.1906
  570MOL0     H76911   3.009   3.589  10.405 -1.5276 -0.5329  0.4658
  570MOL0     H76912   2.633   3.610  10.611 -1.3725 -1.5653  0.3052
  570MOL0     H76913   2.408   3.731  10.648 -1.0235  1.3066 -0.1397
  570MOL0     H76914   2.357   4.001  10.604  0.0511  0.2469 -1.3512
  570MOL0     H76915   2.274   4.056  10.461  0.2519 -0.0535  0.3423
  570MOL0     H76916   2.120   4.112  10.646  1.5111 -0.7104  2.8672
  570MOL0     H76917   2.061   3.996  10.534 -0.0622 -1.8505  0.7594
  570MOL0     H76918   2.178   3.917  10.809  0.1567  3.0687 -1.4409
  570MOL0     H76919   2.024   3.966  10.777  2.0114  0.1846  1.1084
  570MOL0     H76920   2.169   3.712  10.683  2.1840  2.9303  0.6184
  570MOL0     H76921   2.020   3.750  10.607  4.0232 -1.2911 -1.7664
  570MOL0     H76922   1.936   3.759  10.871 -1.5151 -0.1538 -0.2076
  570MOL0     H76923   2.073   3.670  10.902  0.1654  1.6364  0.9757
  570MOL0     H76924   1.977   3.500  10.734  2.5837  1.0139  0.7831
  570MOL0     H76925   1.887   3.526  10.889  1.2498 -1.2982  0.1142
  570MOL0     H76926   1.814   3.580  10.605  1.6530 -1.3878  0.5854
  570MOL0     H76927   1.781   3.705  10.737 -2.6675 -0.0044  0.6424
  570MOL0     H76928   1.701   3.413  10.777 -0.9328  0.9746  0.5549
  570MOL0     H76929   1.634   3.564  10.843 -0.2909  2.0621 -0.8172
  570MOL0     H76930   2.397   3.860  10.242  1.2286  1.1568 -1.6056
  570MOL0     H76931   2.625   3.742  10.207  0.3167 -1.3302  0.1137
  570MOL0     H76932   2.874   3.362  10.082  0.5344  0.3736 -0.4064
  570MOL0     H76933   3.079   3.253  10.057 -0.0501 -1.5705  1.1435
  570MOL0     H76934   2.376   3.505  11.294  2.6910  0.2381 -1.5921
  570MOL0     H76935   2.164   3.381  11.337 -1.4488  0.5926  0.7728
  570MOL0     H76936   1.875   2.908  11.158 -2.0321 -1.3554  5.2515
  570MOL0     H76937   1.658   2.840  11.174  3.1229  0.2026  1.7260
  570MOL0     H76938   1.326   2.971  11.311 -0.8275  0.1201 -0.1474
  570MOL0     H76939   1.474   2.883  11.294 -3.7075 -1.8039  2.8704
  570MOL0     H76940   1.255   2.883  11.078  0.1853 -0.9820  0.0752
  570MOL0     H76941   1.243   2.784  11.213 -0.1515 -0.4996  0.9474
  570MOL0     H76942   1.476   2.790  11.010  1.6488 -3.8194  0.4856
  570MOL0     H76943   1.321   2.715  10.983 -1.2925  2.4385 -0.6279
  570MOL0     H76944   1.345   2.575  11.176  0.4042 -1.2331 -0.1722
  570MOL0     H76945   1.452   2.527  11.052 -1.2579  0.8061 -0.5451
  570MOL0     H76946   1.735   2.570  11.334  0.7096  2.9846 -1.8916
  570MOL0     H76947   1.542   3.263  11.116  1.4981  1.7639  2.0388
  570MOL0     H76948   1.838   3.421  11.166 -0.2757 -0.6162  0.3874
  570MOL0     H76949   1.839   3.367  10.998  0.7455 -1.7529  0.4948
  570MOL0     H76950   1.687   3.429  11.066  1.3783  1.8099 -0.6803
  571MOL0     O76951   5.147  11.528   6.183 -0.7022  0.9481 -0.5029
  571MOL0     C76952   5.123  11.613   6.272  0.7039  0.6186 -0.4634
  571MOL0     O76953   5.049  11.590   6.386  0.0272 -0.4699 -0.0636
  571MOL0     C76954   5.006  11.458   6.407  0.2998 -0.9448  0.0475
  571MOL0     C76955   4.903  11.397   6.334 -1.0914  0.4206 -0.0477
  571MOL0     C76956   4.884  11.258   6.362 -0.0751 -0.0025 -0.2129
  571MOL0     C76957   4.948  11.188   6.472 -0.3752 -1.1629  0.1172
  571MOL0     O76958   4.935  11.056   6.495  0.1384  0.4513 -0.3513
  571MOL0     C76959   4.803  11.019   6.552 -0.6079  0.6451 -0.9807
  571MOL0     C76960   4.825  10.866   6.583 -0.3792 -0.3293  0.2641
  571MOL0     C76961   4.744  10.824   6.700  0.1103  0.7022 -0.4877
  571MOL0     C76962   4.821  10.786   6.831 -0.0973 -0.6730  0.3915
  571MOL0     C76963   4.906  10.899   6.880 -0.7680  0.9419 -0.5604
  571MOL0     C76964   4.974  10.857   7.021  0.6104  0.4159  0.5839
  571MOL0     C76965   5.083  10.756   6.999 -0.3388  0.1081 -0.3860
  571MOL0     C76966   5.129  10.688   7.135 -0.2693 -0.3605  0.6298
  571MOL0     N76967   5.193  10.777   7.234  0.1909  0.7758  0.1271
  571MOL0     C76968   5.304  10.856   7.221  0.1895 -0.2514 -0.3926
  571MOL0     C76969   5.303  10.936   7.334  0.0184  0.6278 -0.6604
  571MOL0     C76970   5.396  11.059   7.360  0.5824 -0.0105  0.2699
  571MOL0     C76971   5.535  10.999   7.348 -0.9617  0.0364  0.0942
  571MOL0     C76972   5.565  10.860   7.407  0.5689 -0.6350  0.3630
  571MOL0     C76973   5.716  10.835   7.407 -0.4520  0.5832  0.2589
  571MOL0     O76974   5.775  10.887   7.527  0.5853  0.6711  0.3380
  571MOL0     C76975   5.891  10.838   7.590  0.5110  0.2196 -0.3598
  571MOL0     C76976   5.985  10.754   7.537  0.4636  0.2253  0.5332
  571MOL0     C76977   6.094  10.711   7.604 -0.3217  0.6168 -0.5754
  571MOL0     C76978   6.111  10.749   7.734  0.1892 -0.0339 -0.5330
  571MOL0     C76979   6.225  10.696   7.814 -0.6188  0.5850 -0.2126
  571MOL0     O76980   6.304  10.599   7.751  0.4839 -0.3114 -0.7868
  571MOL0     C76981   6.420  10.571   7.817  0.3626  0.6766 -1.2592
  571MOL0     C76982   6.553  10.586   7.771  0.7576  0.1245 -0.3382
  571MOL0     C76983   6.664  10.556   7.844 -0.6918  0.5136 -0.1014
  571MOL0     C76984   6.658  10.505   7.978 -0.5856  0.0686 -0.0873
  571MOL0     O76985   6.758  10.458   8.051 -0.7440  1.0478  0.5716
  571MOL0     C76986   6.857  10.559   8.071 -0.3094 -0.7716 -0.5521
  571MOL0     C76987   6.827  10.677   8.168 -0.0616  0.2333  0.8080
  571MOL0     C76988   6.788  10.811   8.088  0.7331  0.2952  0.3198
  571MOL0     C76989   6.766  10.929   8.178 -0.6177 -0.3165  0.1562
  571MOL0     C76990   6.678  11.039   8.121 -0.7317 -0.5806 -0.0540
  571MOL0     C76991   6.704  11.165   8.210  0.1873  0.8051 -0.5216
  571MOL0     C76992   6.667  11.147   8.360  0.1544 -0.0922 -0.6422
  571MOL0     C76993   6.526  11.104   8.382 -0.2028 -0.1211 -0.3958
  571MOL0    Cl76994   6.501  11.076   8.556 -0.5678 -0.2933  0.7721
  571MOL0     C76995   6.524  10.482   8.028 -0.7168  0.4589  0.4500
  571MOL0     C76996   6.408  10.516   7.946 -0.1270  0.2302 -0.4480
  571MOL0     O76997   6.253  10.746   7.928 -0.1820  0.0901  0.7588
  571MOL0     C76998   6.023  10.844   7.789  0.7472  0.0702  0.5195
  571MOL0     C76999   5.906  10.884   7.715  0.1650  0.4310  0.5218
  571MOL0     N77000   5.199  10.888   7.415  0.1007 -0.7360  0.1875
  571MOL0     N77001   5.130  10.795   7.351 -0.5414  0.3255  1.1302
  571MOL0     C77002   5.038  11.262   6.544 -0.1394  0.3566  0.9876
  571MOL0     C77003   5.065  11.392   6.511  1.5541  0.1341  0.3696
  571MOL0     C77004   5.174  11.752   6.247  0.9801 -0.9040  1.1835
  571MOL0     C77005   5.195  11.795   6.115 -0.4138 -0.3092 -0.2039
  571MOL0     C77006   5.237  11.929   6.077  0.7132  0.5760 -0.6918
  571MOL0     C77007   5.246  12.017   6.183 -1.1480  0.2299 -0.0759
  571MOL0     O77008   5.271  12.146   6.151  0.2186 -0.3986 -0.1980
  571MOL0     C77009   5.211  12.249   6.228 -0.0632 -0.1502  0.0345
  571MOL0     C77010   5.106  12.319   6.152 -0.3586  0.5279  0.6905
  571MOL0     C77011   5.178  12.391   6.036 -0.0650  0.3023 -0.2787
  571MOL0     C77012   5.085  12.477   5.949  0.1615 -0.7588 -0.5041
  571MOL0     C77013   5.021  12.577   6.039 -0.6925 -0.2381 -0.0286
  571MOL0     C77014   4.967  12.669   6.109  1.0891 -1.0634 -0.2574
  571MOL0     C77015   5.257  11.968   6.318 -0.2774  0.0746 -0.4024
  571MOL0     C77016   5.214  11.842   6.351 -0.3294  0.6631  1.5487
  571MOL0     C77017   5.211  11.808   6.500  0.3044 -0.0117 -0.7507
  571MOL0     H77018   4.842  11.439   6.255 -0.4542 -1.6346 -1.7048
  571MOL0     H77019   4.808  11.208   6.303  0.9842 -0.9126 -0.8273
  571MOL0     H77020   4.790  11.075   6.645  2.9628  1.9947 -1.1439
  571MOL0     H77021   4.719  11.036   6.484 -1.2608  2.7512  0.2411
  571MOL0     H77022   4.933  10.857   6.601 -0.8431  0.0681  4.0736
  571MOL0     H77023   4.810  10.800   6.497  1.7311  0.6560 -0.9342
  571MOL0     H77024   4.680  10.746   6.660  1.7954 -0.9510 -0.1282
  571MOL0     H77025   4.668  10.902   6.707 -2.2780 -1.2900 -2.2507
  571MOL0     H77026   4.755  10.765   6.915 -0.9741 -0.2699 -0.1850
  571MOL0     H77027   4.883  10.698   6.811  0.7785  0.5440 -3.0134
  571MOL0     H77028   4.980  10.947   6.816 -2.0744  1.2768 -1.8833
  571MOL0     H77029   4.834  10.977   6.905 -0.4245  1.3537 -0.8629
  571MOL0     H77030   5.018  10.948   7.063  0.4430  2.3455 -3.0548
  571MOL0     H77031   4.901  10.814   7.090 -0.1305 -2.0673 -1.6028
  571MOL0     H77032   5.175  10.798   6.957 -1.1806  0.3742 -2.0409
  571MOL0     H77033   5.048  10.679   6.930  0.4776 -0.8567  0.2545
  571MOL0     H77034   5.049  10.622   7.172 -3.9767  2.2370 -1.9372
  571MOL0     H77035   5.213  10.623   7.111  0.8152  0.9429  0.8104
  571MOL0     H77036   5.373  10.873   7.139  2.0370  0.9236  1.3110
  571MOL0     H77037   5.376  11.147   7.297  2.4292 -0.6674 -1.3449
  571MOL0     H77038   5.394  11.083   7.466 -2.6283  2.2444 -0.1393
  571MOL0     H77039   5.558  10.995   7.241  0.8232  0.2177  0.4322
  571MOL0     H77040   5.601  11.069   7.400  0.1671 -0.8191 -0.1358
  571MOL0     H77041   5.515  10.786   7.344 -1.8826  1.4339 -0.2894
  571MOL0     H77042   5.504  10.859   7.498  0.9163  2.5179  0.7677
  571MOL0     H77043   5.770  10.873   7.320 -1.4736 -1.2797 -1.2671
  571MOL0     H77044   5.730  10.727   7.397 -0.6335  0.4246  1.4949
  571MOL0     H77045   5.969  10.726   7.433  0.1111  4.9506 -0.9618
  571MOL0     H77046   6.173  10.653   7.558  2.0431  1.7291  1.8692
  571MOL0     H77047   6.570  10.628   7.673 -0.7954  1.2783 -0.1601
  571MOL0     H77048   6.758  10.574   7.793 -2.4277  1.4551 -3.1631
  571MOL0     H77049   6.942  10.502   8.109  3.4376  4.3213 -0.2555
  571MOL0     H77050   6.893  10.607   7.979  1.8979  2.7985  1.9683
  571MOL0     H77051   6.752  10.641   8.239 -0.9401 -2.8226 -1.5026
  571MOL0     H77052   6.913  10.708   8.229  2.3984  2.0628 -3.1475
  571MOL0     H77053   6.862  10.842   8.015 -2.1307  1.8187 -2.1740
  571MOL0     H77054   6.695  10.784   8.035 -0.8733 -0.8064  3.4376
  571MOL0     H77055   6.867  10.970   8.173  0.7298 -2.9803  2.6568
  571MOL0     H77056   6.756  10.910   8.285  1.3953 -0.1421  0.4092
  571MOL0     H77057   6.576  10.998   8.123  0.1701 -3.0032  2.1630
  571MOL0     H77058   6.716  11.058   8.021 -1.5238  2.6688  0.1570
  571MOL0     H77059   6.809  11.197   8.210 -0.1982  2.1754  0.6610
  571MOL0     H77060   6.648  11.256   8.186 -0.9214  0.7541  1.6436
  571MOL0     H77061   6.692  11.239   8.413 -1.0889 -0.1763  0.1301
  571MOL0     H77062   6.723  11.071   8.416  3.5203  3.9206  2.0763
  571MOL0     H77063   6.463  11.186   8.344  0.9869  0.4626 -1.1878
  571MOL0     H77064   6.499  11.006   8.340  0.7192  0.1472 -1.6936
  571MOL0     H77065   6.520  10.454   8.133 -0.4819 -0.7361  0.1541
  571MOL0     H77066   6.305  10.508   7.979  0.2528  3.4771  2.0192
  571MOL0     H77067   6.026  10.892   7.887 -0.6716  1.9175 -0.2846
  571MOL0     H77068   5.841  10.959   7.758  1.1639  1.9042 -0.4566
  571MOL0     H77069   5.101  11.211   6.617  1.1713  2.1341  1.1552
  571MOL0     H77070   5.130  11.459   6.568  0.4196  4.0330 -2.4709
  571MOL0     H77071   5.148  11.733   6.039 -1.6999  2.1750 -1.5538
  571MOL0     H77072   5.236  11.952   5.971  2.9060 -2.9434 -1.6490
  571MOL0     H77073   5.283  12.325   6.259 -0.5793  0.9865 -1.4914
  571MOL0     H77074   5.176  12.218   6.328 -2.3516 -1.5211 -1.0997
  571MOL0     H77075   5.046  12.392   6.207 -3.8320 -0.7944 -1.0839
  571MOL0     H77076   5.048  12.234   6.116  0.7030  0.4378 -0.8902
  571MOL0     H77077   5.233  12.320   5.974 -2.0153  0.0074 -1.7515
  571MOL0     H77078   5.260  12.454   6.071 -1.7370  1.2432  2.2260
  571MOL0     H77079   5.141  12.530   5.872 -0.7043  0.2317 -0.4712
  571MOL0     H77080   5.017  12.404   5.903 -0.5582  0.1805 -0.9612
  571MOL0     H77081   4.893  12.729   6.158 -3.0628 -2.3632 -4.2233
  571MOL0     H77082   5.295  12.034   6.395  1.6081 -3.3316  1.8159
  571MOL0     H77083   5.109  11.793   6.536  1.1367 -1.2736  1.2089
  571MOL0     H77084   5.254  11.709   6.517  1.5180  0.4077 -1.2154
  571MOL0     H77085   5.271  11.876   6.562 -1.5697  1.1092 -0.0989
  572MOL0     O77086   9.359   8.322   3.711 -0.5396 -0.1575 -0.7016
  572MOL0     C77087   9.310   8.371   3.808  0.4712 -0.9227 -0.4218
  572MOL0     O77088   9.183   8.355   3.854  0.3645 -0.3219  0.2548
  572MOL0     C77089   9.098   8.271   3.786  1.5024 -0.1161 -0.0958
  572MOL0     C77090   8.986   8.325   3.711 -1.2248  0.8128  0.2172
  572MOL0     C77091   8.899   8.231   3.657  0.3373 -0.0552 -0.2062
  572MOL0     C77092   8.903   8.091   3.667  0.4804 -0.3436 -0.1602
  572MOL0     O77093   8.813   8.014   3.602 -0.3625 -0.1319  0.2450
  572MOL0     C77094   8.799   7.874   3.633  0.0145 -1.4524 -0.2564
  572MOL0     C77095   8.705   7.798   3.540 -0.1631 -0.0203 -0.1772
  572MOL0     C77096   8.743   7.821   3.397 -0.1339 -0.0444  0.3604
  572MOL0     C77097   8.641   7.741   3.307 -0.3937  0.5466 -0.2037
  572MOL0     C77098   8.655   7.784   3.163  0.1988 -0.5219 -0.3375
  572MOL0     C77099   8.541   7.708   3.072 -0.0155 -0.4918  0.2387
  572MOL0     C77100   8.576   7.742   2.930 -0.1991  0.8227  1.6305
  572MOL0     C77101   8.454   7.732   2.842  0.0892  0.0373 -0.4963
  572MOL0     N77102   8.483   7.732   2.697 -0.0938 -0.1310  0.5987
  572MOL0     C77103   8.462   7.640   2.598 -0.2572  0.3193 -0.4416
  572MOL0     C77104   8.509   7.689   2.488 -0.8727 -1.1502 -0.1538
  572MOL0     C77105   8.533   7.614   2.366  0.1431 -0.2133 -0.4127
  572MOL0     C77106   8.650   7.660   2.293  0.5590  0.2692 -0.3069
  572MOL0     C77107   8.611   7.766   2.197 -0.3281 -0.5155 -1.5659
  572MOL0     C77108   8.738   7.816   2.120  0.0061 -0.0292  0.0015
  572MOL0     O77109   8.800   7.703   2.065 -0.1697  0.6340  0.4744
  572MOL0     C77110   8.863   7.737   1.947 -0.0395 -0.4431 -0.3026
  572MOL0     C77111   8.809   7.698   1.825 -1.1679  0.1586  1.3263
  572MOL0     C77112   8.867   7.733   1.700  0.3647 -0.3075 -0.5609
  572MOL0     C77113   8.979   7.817   1.703  0.5505  0.2588  0.0886
  572MOL0     C77114   9.040   7.875   1.580 -0.5944  0.3922 -0.0723
  572MOL0     O77115   9.165   7.940   1.600 -0.9446  0.1743 -0.8337
  572MOL0     C77116   9.229   8.019   1.508  1.0603  0.3773 -0.2203
  572MOL0     C77117   9.156   8.118   1.450  0.6827 -0.7635 -0.7307
  572MOL0     C77118   9.211   8.201   1.356 -0.1501 -0.0793  0.0914
  572MOL0     C77119   9.335   8.185   1.303 -0.4320  1.0198 -0.0513
  572MOL0     O77120   9.391   8.238   1.189  0.1335 -0.5989  0.5325
  572MOL0     C77121   9.308   8.299   1.096 -0.1347  0.5111 -0.5877
  572MOL0     C77122   9.383   8.297   0.961 -0.0232 -0.0321  1.0004
  572MOL0     C77123   9.518   8.378   0.957 -1.2713  0.2741  0.8346
  572MOL0     C77124   9.580   8.344   0.820  0.8609 -0.1523 -0.4230
  572MOL0     C77125   9.718   8.409   0.793 -0.5212 -0.2481  0.4049
  572MOL0     C77126   9.717   8.558   0.828  0.1344 -0.2264 -0.0575
  572MOL0     C77127   9.855   8.627   0.804  0.4757  0.0258  0.0609
  572MOL0     C77128   9.875   8.777   0.850 -0.7029 -0.8703 -0.2056
  572MOL0    Cl77129   9.859   8.778   1.026 -0.8882 -0.4722  0.1277
  572MOL0     C77130   9.412   8.080   1.371 -0.8397  0.0124  0.2711
  572MOL0     C77131   9.352   7.993   1.471 -0.5502 -0.2467 -1.1263
  572MOL0     O77132   8.971   7.877   1.473  0.4417  1.0391 -0.0067
  572MOL0     C77133   9.038   7.852   1.823  0.4465  0.2543  0.1297
  572MOL0     C77134   8.977   7.818   1.948  0.5639 -0.3165  0.9203
  572MOL0     N77135   8.537   7.825   2.508  0.4273  0.5969  0.2241
  572MOL0     N77136   8.516   7.850   2.634  0.6952 -0.6220  0.7649
  572MOL0     C77137   9.010   8.050   3.745 -1.0223 -0.0291 -0.5818
  572MOL0     C77138   9.104   8.135   3.809 -0.6569  0.0968 -0.8166
  572MOL0     C77139   9.395   8.475   3.891 -0.3103  0.6910  0.3537
  572MOL0     C77140   9.325   8.563   3.979 -0.1961  0.4506  0.7577
  572MOL0     C77141   9.391   8.656   4.051 -0.0780  0.6573  0.1254
  572MOL0     C77142   9.530   8.663   4.062  0.2014  0.3376 -0.6596
  572MOL0     O77143   9.595   8.738   4.158  0.3673  0.1852 -0.4902
  572MOL0     C77144   9.540   8.841   4.235 -0.2008 -1.3957 -0.4266
  572MOL0     C77145   9.602   8.846   4.369  0.4417 -0.3014  0.4852
  572MOL0     C77146   9.611   8.983   4.428 -0.0362  0.2582  0.1827
  572MOL0     C77147   9.638   8.975   4.576  0.1879  1.3963 -0.9961
  572MOL0     C77148   9.524   8.953   4.661 -0.4979  0.3536  1.0778
  572MOL0     C77149   9.427   8.904   4.722 -0.3623 -0.3200 -1.6210
  572MOL0     C77150   9.609   8.578   3.976  0.2572 -0.1812  0.2070
  572MOL0     C77151   9.546   8.484   3.887 -0.1723  0.9155  0.1538
  572MOL0     C77152   9.645   8.407   3.798 -0.4625 -0.3346 -0.1971
  572MOL0     H77153   8.977   8.430   3.685 -2.1402  0.5866 -0.4443
  572MOL0     H77154   8.820   8.262   3.589  0.5233 -0.1048 -0.4436
  572MOL0     H77155   8.902   7.839   3.631  1.8271  3.2353 -1.0185
  572MOL0     H77156   8.760   7.854   3.734 -0.7409 -2.7247 -0.7732
  572MOL0     H77157   8.606   7.839   3.563  0.5279  0.4839  2.1820
  572MOL0     H77158   8.703   7.694   3.576  2.1773  0.1945  0.7390
  572MOL0     H77159   8.843   7.782   3.378  0.5435  2.8328 -3.0054
  572MOL0     H77160   8.743   7.928   3.377 -1.4222 -0.2316 -0.8204
  572MOL0     H77161   8.665   7.635   3.310 -0.2907  0.3892 -3.3874
  572MOL0     H77162   8.538   7.756   3.341 -0.8433 -1.7350 -0.3791
  572MOL0     H77163   8.654   7.893   3.154 -1.1305 -0.5711 -1.0863
  572MOL0     H77164   8.745   7.750   3.111  0.8473  0.5276  0.0740
  572MOL0     H77165   8.547   7.600   3.087 -0.9558 -0.4593  0.9299
  572MOL0     H77166   8.447   7.755   3.101  1.0388  0.8607  1.6585
  572MOL0     H77167   8.659   7.681   2.892  2.4997  2.5207  4.3521
  572MOL0     H77168   8.602   7.848   2.921 -0.0645  0.5873 -3.0178
  572MOL0     H77169   8.399   7.644   2.879 -1.0681  1.0070  0.1742
  572MOL0     H77170   8.385   7.813   2.870  4.2711  4.8160 -2.5713
  572MOL0     H77171   8.428   7.537   2.602  2.0310 -0.5065 -0.6096
  572MOL0     H77172   8.530   7.511   2.404 -5.2649  0.3391  1.5406
  572MOL0     H77173   8.448   7.626   2.299 -0.1721  0.6321  0.1303
  572MOL0     H77174   8.729   7.692   2.361  0.0934  0.9908 -0.0899
  572MOL0     H77175   8.690   7.573   2.239  0.6717  1.1123 -1.6345
  572MOL0     H77176   8.552   7.842   2.250 -1.1558  0.0030 -3.1750
  572MOL0     H77177   8.528   7.754   2.127 -0.5497 -0.0309 -1.3959
  572MOL0     H77178   8.805   7.864   2.191 -1.6969  0.6327  1.2336
  572MOL0     H77179   8.712   7.893   2.047 -0.6226  1.3376  1.6132
  572MOL0     H77180   8.706   7.665   1.836 -1.4434 -0.3529 -1.9349
  572MOL0     H77181   8.816   7.699   1.611 -0.0510 -1.3809  0.0674
  572MOL0     H77182   9.052   8.117   1.481  1.8910 -0.9659  4.2095
  572MOL0     H77183   9.144   8.282   1.327  2.6393  2.5171  0.4433
  572MOL0     H77184   9.217   8.241   1.081  0.0677 -0.0696  0.3562
  572MOL0     H77185   9.288   8.401   1.131  0.0871  0.3486  0.0246
  572MOL0     H77186   9.409   8.192   0.946 -2.7218 -0.5779 -0.4073
  572MOL0     H77187   9.320   8.327   0.877 -0.9842  0.8911  2.0094
  572MOL0     H77188   9.522   8.484   0.986 -0.5773  1.1456 -2.1131
  572MOL0     H77189   9.584   8.345   1.037  2.9968  0.9057 -2.1252
  572MOL0     H77190   9.513   8.392   0.748 -0.0548 -0.7677 -0.0077
  572MOL0     H77191   9.595   8.235   0.823  0.9682 -0.2815 -3.3076
  572MOL0     H77192   9.764   8.387   0.697  2.0522 -0.7608  1.6525
  572MOL0     H77193   9.791   8.359   0.858  0.2680  0.4840  0.1100
  572MOL0     H77194   9.643   8.610   0.767  0.4433  0.8489  0.4536
  572MOL0     H77195   9.699   8.567   0.936  1.2941 -6.0355  0.9564
  572MOL0     H77196   9.879   8.628   0.698  0.9573  0.5346  0.1673
  572MOL0     H77197   9.924   8.564   0.861 -0.4809 -2.3752 -1.3190
  572MOL0     H77198   9.972   8.819   0.822 -0.1065 -3.4999 -2.4641
  572MOL0     H77199   9.799   8.845   0.811 -0.4447 -1.1323 -1.2061
  572MOL0     H77200   9.516   8.065   1.344 -0.4737  1.8446  0.4812
  572MOL0     H77201   9.393   7.904   1.517  0.7754  1.3889  1.0612
  572MOL0     H77202   9.114   7.930   1.826 -1.1645  1.8449  1.3548
  572MOL0     H77203   9.033   7.838   2.039 -0.1439  1.9628  0.9185
  572MOL0     H77204   9.031   7.946   3.768 -3.5837 -0.4777 -0.0535
  572MOL0     H77205   9.181   8.095   3.875 -0.6522 -0.0277 -0.8977
  572MOL0     H77206   9.217   8.566   3.980 -0.2151  0.0438  2.7270
  572MOL0     H77207   9.326   8.717   4.113 -1.7116  0.2106 -1.0682
  572MOL0     H77208   9.432   8.833   4.254  0.2609 -1.1631  3.0187
  572MOL0     H77209   9.559   8.938   4.189  0.9374 -0.2642  2.2088
  572MOL0     H77210   9.709   8.828   4.363  1.2832  4.0885 -0.8912
  572MOL0     H77211   9.557   8.766   4.429  1.3089 -0.5668  0.7864
  572MOL0     H77212   9.517   9.035   4.405 -2.7733 -3.7404  1.3014
  572MOL0     H77213   9.697   9.025   4.375 -0.0352 -2.1688 -1.8779
  572MOL0     H77214   9.715   8.898   4.585 -0.9218  0.4587  1.4662
  572MOL0     H77215   9.687   9.068   4.606 -1.4729  1.4365  1.9781
  572MOL0     H77216   9.353   8.863   4.788  2.4402 -0.1933  1.9240
  572MOL0     H77217   9.715   8.596   3.964  0.4140 -2.0140 -1.7256
  572MOL0     H77218   9.609   8.309   3.765 -0.7226  0.5519 -2.7735
  572MOL0     H77219   9.669   8.468   3.710  3.9322 -3.9098 -1.8195
  572MOL0     H77220   9.742   8.397   3.847 -0.9500  0.8594  1.0824
  573MOL0     O77221   4.439   5.329   1.688  0.1363 -0.2791 -0.3093
  573MOL0     C77222   4.488   5.304   1.581  0.5355 -0.2630  0.7440
  573MOL0     O77223   4.586   5.374   1.520 -0.3352 -0.4004  1.0186
  573MOL0     C77224   4.668   5.458   1.585 -0.3187  0.9661  0.7620
  573MOL0     C77225   4.813   5.461   1.570 -0.0650 -0.7690  0.2797
  573MOL0     C77226   4.890   5.549   1.644 -0.5113 -0.3000  0.8058
  573MOL0     C77227   4.831   5.646   1.728  0.2573 -0.2194  0.4343
  573MOL0     O77228   4.908   5.731   1.805  0.2768 -0.2962  0.7202
  573MOL0     C77229   5.049   5.736   1.793 -0.6934 -0.0150 -0.6381
  573MOL0     C77230   5.121   5.822   1.890 -0.3387 -0.0746  0.7293
  573MOL0     C77231   5.262   5.855   1.837 -0.4456 -0.1058 -0.3558
  573MOL0     C77232   5.333   5.939   1.948 -0.2449 -0.7676 -0.2133
  573MOL0     C77233   5.459   6.003   1.889 -0.1846 -0.6454 -0.1859
  573MOL0     C77234   5.567   5.891   1.863  0.7149 -1.0488 -1.0273
  573MOL0     C77235   5.706   5.940   1.897 -0.7463  0.0625 -0.6377
  573MOL0     C77236   5.731   5.925   2.047  0.4368 -0.3428 -0.3941
  573MOL0     N77237   5.855   5.990   2.073  0.3308 -1.4541 -0.0893
  573MOL0     C77238   5.965   6.011   1.988  0.5964  0.8300  0.2303
  573MOL0     C77239   6.035   6.100   2.066  0.2806  1.0449 -0.1435
  573MOL0     C77240   6.157   6.163   2.009  0.9508 -1.2437  0.4180
  573MOL0     C77241   6.264   6.181   2.110  0.9994  0.1812  0.1386
  573MOL0     C77242   6.378   6.267   2.046 -0.6521  0.4585  0.8699
  573MOL0     C77243   6.449   6.201   1.922  0.4120 -0.9634 -0.6724
  573MOL0     O77244   6.466   6.065   1.953 -0.3688  0.8714  0.4863
  573MOL0     C77245   6.429   5.975   1.852  1.2823 -0.4734 -0.4084
  573MOL0     C77246   6.502   5.953   1.740  0.4219  0.3290 -0.6104
  573MOL0     C77247   6.457   5.864   1.649  0.0674 -0.3523  0.5747
  573MOL0     C77248   6.337   5.793   1.665  0.5888  0.2797  0.4929
  573MOL0     C77249   6.295   5.685   1.565  0.1914  0.7462 -0.5582
  573MOL0     O77250   6.160   5.639   1.572 -0.4494  0.4067 -0.5936
  573MOL0     C77251   6.119   5.559   1.471 -0.2049 -0.4494  0.8919
  573MOL0     C77252   6.102   5.421   1.486  0.4589  0.6153 -0.0335
  573MOL0     C77253   6.064   5.342   1.379  0.0903 -0.7497 -0.5823
  573MOL0     C77254   6.043   5.390   1.248  0.3544 -0.2005 -0.6014
  573MOL0     O77255   6.021   5.317   1.136  0.7862 -0.9707  0.1818
  573MOL0     C77256   6.008   5.179   1.154 -0.6802  0.1775 -0.8597
  573MOL0     C77257   6.012   5.107   1.019  0.7122  0.1939 -0.3409
  573MOL0     C77258   5.954   4.967   1.030 -0.5181  0.5096 -1.0019
  573MOL0     C77259   5.934   4.898   0.892  0.5999 -0.2338 -0.0596
  573MOL0     C77260   5.928   4.742   0.907  0.4326 -0.2637  0.4314
  573MOL0     C77261   5.836   4.664   0.802 -0.2887  0.5436  0.0640
  573MOL0     C77262   5.824   4.524   0.856 -0.9151  0.2220  0.3801
  573MOL0     C77263   5.729   4.449   0.769  0.7272  0.4871  0.1878
  573MOL0    Cl77264   5.798   4.397   0.611 -0.3333 -0.2398  0.2254
  573MOL0     C77265   6.070   5.523   1.229 -0.1129  0.4890 -0.0830
  573MOL0     C77266   6.115   5.605   1.339  0.4686 -0.2630  0.2754
  573MOL0     O77267   6.370   5.661   1.477  0.1242 -0.0309  0.5217
  573MOL0     C77268   6.261   5.804   1.782 -0.2327  0.1465 -0.4986
  573MOL0     C77269   6.320   5.889   1.879  0.3412 -0.2960  0.2505
  573MOL0     N77270   5.978   6.122   2.188  0.3964 -0.7864  0.2022
  573MOL0     N77271   5.864   6.073   2.185  0.5045  0.1426  0.4826
  573MOL0     C77272   4.692   5.630   1.751 -0.2245 -0.3095 -0.5677
  573MOL0     C77273   4.618   5.546   1.673  0.8713 -0.5750  0.0319
  573MOL0     C77274   4.481   5.171   1.524  0.3548 -0.3722  0.8491
  573MOL0     C77275   4.495   5.159   1.389  0.3235  0.0566  0.8145
  573MOL0     C77276   4.496   5.034   1.329  0.3352 -1.0813 -0.7316
  573MOL0     C77277   4.483   4.921   1.400 -0.3564 -0.6080  0.4987
  573MOL0     O77278   4.480   4.795   1.342 -0.0443  0.1875 -0.1953
  573MOL0     C77279   4.499   4.771   1.200  0.2801 -0.2231 -0.0922
  573MOL0     C77280   4.423   4.649   1.157 -0.7580  0.1173 -0.6482
  573MOL0     C77281   4.428   4.611   1.011  0.1459  0.0187 -0.2018
  573MOL0     C77282   4.553   4.529   0.954  0.1225 -0.1668  0.1688
  573MOL0     C77283   4.561   4.388   0.991 -0.0936 -0.0454 -0.4263
  573MOL0     C77284   4.545   4.270   1.015  0.2533 -0.7601  0.7421
  573MOL0     C77285   4.474   4.926   1.539  0.6521  0.0167  1.9542
  573MOL0     C77286   4.491   5.045   1.605  0.7633  0.2087  0.1094
  573MOL0     C77287   4.495   5.045   1.751 -0.0279  0.4411  0.6007
  573MOL0     H77288   4.864   5.393   1.502  1.6261 -1.3413  2.0337
  573MOL0     H77289   4.992   5.541   1.607 -1.2500 -0.4735 -1.3667
  573MOL0     H77290   5.110   5.646   1.807 -0.1857 -0.0972 -2.9432
  573MOL0     H77291   5.060   5.768   1.689 -1.3035  2.4727 -0.0085
  573MOL0     H77292   5.138   5.780   1.989 -1.8893  1.1544  1.5626
  573MOL0     H77293   5.054   5.907   1.904 -1.7605 -1.3699  2.2614
  573MOL0     H77294   5.262   5.912   1.743  2.0473  2.2502  0.9525
  573MOL0     H77295   5.329   5.770   1.817  0.4548  1.1830 -3.5244
  573MOL0     H77296   5.273   6.028   1.974 -1.3768 -1.3324 -0.8030
  573MOL0     H77297   5.365   5.890   2.041 -0.7324  0.7309  0.7862
  573MOL0     H77298   5.433   6.053   1.796 -0.4098  0.8566  0.6426
  573MOL0     H77299   5.496   6.082   1.956 -2.1533  1.1432 -1.1005
  573MOL0     H77300   5.546   5.797   1.917  3.1152 -1.9507 -1.5495
  573MOL0     H77301   5.552   5.862   1.759 -0.9169  1.4244 -1.5779
  573MOL0     H77302   5.715   6.045   1.869 -1.2505  0.2679 -0.0486
  573MOL0     H77303   5.777   5.878   1.843  1.1728  1.4985  0.1357
  573MOL0     H77304   5.649   5.964   2.109 -2.2759 -4.9690 -0.6168
  573MOL0     H77305   5.736   5.825   2.090 -0.1443  0.2524  1.1317
  573MOL0     H77306   5.980   5.960   1.893  0.7272  0.6377  0.3523
  573MOL0     H77307   6.184   6.112   1.916  1.0563 -1.4220  0.5472
  573MOL0     H77308   6.132   6.265   1.980 -2.0913 -2.1767 -0.6768
  573MOL0     H77309   6.214   6.244   2.184  0.9110  1.5609 -1.0420
  573MOL0     H77310   6.292   6.086   2.156 -1.1718 -0.5779  0.0192
  573MOL0     H77311   6.454   6.261   2.124  1.4555 -2.9677 -1.1719
  573MOL0     H77312   6.357   6.370   2.016  1.1672  0.4765 -0.5203
  573MOL0     H77313   6.551   6.241   1.921  0.1102 -0.0260  1.4135
  573MOL0     H77314   6.393   6.216   1.829 -0.1784  1.7900  0.0292
  573MOL0     H77315   6.601   5.998   1.740  0.6015  0.0715  1.8784
  573MOL0     H77316   6.522   5.833   1.568 -1.2532 -2.0613  0.1169
  573MOL0     H77317   6.098   5.376   1.585  0.2971  0.1773 -0.2416
  573MOL0     H77318   6.032   5.240   1.400 -0.8961 -0.6190 -1.3812
  573MOL0     H77319   6.093   5.133   1.204 -0.6189  0.9841 -0.1982
  573MOL0     H77320   5.910   5.159   1.198  0.1560 -3.7441 -0.4155
  573MOL0     H77321   5.957   5.174   0.953 -1.2916 -2.4718 -1.5411
  573MOL0     H77322   6.115   5.095   0.986  1.7724  1.8139  2.0570
  573MOL0     H77323   6.018   4.905   1.094 -1.1804  2.3763  1.6300
  573MOL0     H77324   5.855   4.966   1.076 -0.8196 -1.1171 -1.6148
  573MOL0     H77325   6.016   4.920   0.823 -0.2509 -0.4732 -1.1840
  573MOL0     H77326   5.842   4.947   0.859 -1.0171 -4.1495 -2.0158
  573MOL0     H77327   5.896   4.724   1.009  1.4092 -0.2679  0.7506
  573MOL0     H77328   6.030   4.705   0.893  0.4004  0.3639 -2.0025
  573MOL0     H77329   5.736   4.705   0.786 -1.0802 -1.9070 -2.0848
  573MOL0     H77330   5.884   4.662   0.703  1.3252 -0.7628  0.8245
  573MOL0     H77331   5.780   4.535   0.955  0.5317  0.8485  0.9752
  573MOL0     H77332   5.919   4.472   0.859 -0.5889  0.8650  2.7651
  573MOL0     H77333   5.698   4.356   0.818  0.2234  0.0831 -0.8607
  573MOL0     H77334   5.640   4.511   0.755 -1.5573 -2.3207  1.3505
  573MOL0     H77335   6.060   5.574   1.134 -0.2940 -0.8344 -0.7955
  573MOL0     H77336   6.134   5.709   1.314  2.0313 -0.5529  0.1593
  573MOL0     H77337   6.161   5.768   1.802 -0.3825  0.5584 -0.4981
  573MOL0     H77338   6.270   5.905   1.974  2.3287  1.8870  1.0269
  573MOL0     H77339   4.650   5.707   1.815  1.0840 -0.5524  0.6303
  573MOL0     H77340   4.511   5.550   1.687  0.8579  0.5746 -0.2741
  573MOL0     H77341   4.481   5.251   1.333  0.2219 -0.7354 -0.4990
  573MOL0     H77342   4.497   5.049   1.222  0.7336  2.0979 -0.3910
  573MOL0     H77343   4.604   4.766   1.169  0.5251 -2.2170  0.9442
  573MOL0     H77344   4.455   4.853   1.142  0.3626 -0.0446  0.0968
  573MOL0     H77345   4.319   4.647   1.192 -0.1214 -2.2370  1.3899
  573MOL0     H77346   4.480   4.568   1.204 -1.1832 -1.3315 -2.5161
  573MOL0     H77347   4.433   4.708   0.961  1.3533  0.6808  1.1381
  573MOL0     H77348   4.333   4.569   0.978  0.0450  2.5144 -3.6745
  573MOL0     H77349   4.533   4.529   0.847 -0.3703 -0.3056  0.2606
  573MOL0     H77350   4.657   4.562   0.968  0.4275 -0.9303 -0.2187
  573MOL0     H77351   4.515   4.167   1.021  3.8327 -2.2987 -2.7643
  573MOL0     H77352   4.468   4.832   1.594 -0.1892 -0.8666  0.4011
  573MOL0     H77353   4.395   5.025   1.793  0.6868 -2.8374  1.0389
  573MOL0     H77354   4.558   4.964   1.790 -1.8595 -2.2484 -1.6034
  573MOL0     H77355   4.531   5.131   1.808 -0.8928  0.4207  1.2202
  574MOL0     O77356   4.360   5.504  10.481  0.1350  0.2816 -0.3285
  574MOL0     C77357   4.297   5.544  10.379 -0.5042 -0.4439  0.4637
  574MOL0     O77358   4.183   5.497  10.337 -0.0663 -0.0619 -0.5241
  574MOL0     C77359   4.133   5.375  10.381  0.9329  0.5684  0.4463
  574MOL0     C77360   4.203   5.262  10.436  1.1975 -0.0442  0.3574
  574MOL0     C77361   4.134   5.144  10.468 -0.4554 -0.6281 -1.2369
  574MOL0     C77362   3.995   5.137  10.458  0.2677 -0.5577 -0.0605
  574MOL0     O77363   3.927   5.014  10.484  0.4265  0.6093 -0.8910
  574MOL0     C77364   3.808   4.982  10.413 -0.5613  0.2732  0.7318
  574MOL0     C77365   3.779   4.830  10.419  0.1230 -0.2472 -0.4993
  574MOL0     C77366   3.893   4.753  10.340 -0.8232 -0.3269 -0.0801
  574MOL0     C77367   3.860   4.606  10.349 -0.4800 -0.3161  0.0479
  574MOL0     C77368   3.953   4.517  10.249  0.8283  0.1192  0.2727
  574MOL0     C77369   4.097   4.495  10.302  0.1949  0.5037 -0.3369
  574MOL0     C77370   4.182   4.413  10.204  0.4405 -0.4662  0.3122
  574MOL0     C77371   4.243   4.490  10.080  0.3467  0.3072 -0.8184
  574MOL0     N77372   4.316   4.613  10.123 -0.0535  0.8789 -0.5525
  574MOL0     C77373   4.259   4.735  10.122 -0.0229  0.5102 -0.2627
  574MOL0     C77374   4.343   4.814  10.191  0.4619 -0.7362  0.2867
  574MOL0     C77375   4.318   4.961  10.227 -0.3491  0.2898 -0.2082
  574MOL0     C77376   4.246   5.047  10.124  0.6054 -0.6691 -0.1178
  574MOL0     C77377   4.334   5.105  10.003 -0.0989  0.3306  0.4159
  574MOL0     C77378   4.341   5.261  10.003 -0.1806 -0.2837  0.3161
  574MOL0     O77379   4.213   5.311  10.033 -0.3266 -0.5836 -0.5638
  574MOL0     C77380   4.189   5.437   9.984 -0.4215  0.3632  0.1763
  574MOL0     C77381   4.290   5.534   9.987 -0.1272  0.5205 -0.2900
  574MOL0     C77382   4.258   5.664   9.970 -0.1464  0.0182 -0.2236
  574MOL0     C77383   4.121   5.695   9.937 -0.8485  0.1337  0.6743
  574MOL0     C77384   4.090   5.838   9.924  0.0474  0.6308 -0.1130
  574MOL0     O77385   4.176   5.925   9.876 -0.4125  0.3775 -0.1983
  574MOL0     C77386   4.141   6.054   9.850  0.0302 -0.1927  0.1933
  574MOL0     C77387   4.126   6.148   9.964 -0.0484  0.2137  0.0075
  574MOL0     C77388   4.113   6.282   9.927  0.2533  0.6546 -0.3290
  574MOL0     C77389   4.094   6.326   9.796 -0.0553 -0.2420  0.4875
  574MOL0     O77390   4.046   6.453   9.782  0.0680  0.2310 -0.1704
  574MOL0     C77391   3.979   6.502   9.667  0.6318  0.2753 -0.4427
  574MOL0     C77392   3.868   6.583   9.731 -0.0520 -1.1468 -0.4328
  574MOL0     C77393   3.745   6.493   9.762 -0.0438 -0.6328 -0.6227
  574MOL0     C77394   3.724   6.391   9.882  0.6235 -1.3025  0.6376
  574MOL0     C77395   3.768   6.455  10.019 -0.0438  0.2458 -0.6694
  574MOL0     C77396   3.757   6.348  10.136  0.4532  0.3254  0.5771
  574MOL0     C77397   3.823   6.391  10.269 -0.4361  0.1801 -0.2194
  574MOL0     C77398   3.829   6.269  10.366 -0.5855  0.9672  0.1852
  574MOL0    Cl77399   3.969   6.159  10.340  0.1516 -0.0070  0.4010
  574MOL0     C77400   4.098   6.238   9.690 -0.3551 -1.1084  0.1249
  574MOL0     C77401   4.127   6.107   9.725 -0.6624  0.0132  0.2166
  574MOL0     O77402   3.977   5.868   9.960  0.4768 -0.3748  0.0682
  574MOL0     C77403   4.033   5.604   9.925  1.0630  0.6964 -0.4296
  574MOL0     C77404   4.065   5.473   9.953  0.2955 -0.0275  0.2067
  574MOL0     N77405   4.448   4.733  10.228 -0.9716 -0.4060  0.7643
  574MOL0     N77406   4.429   4.612  10.188 -0.6072  0.0858  0.4940
  574MOL0     C77407   3.926   5.245  10.401 -0.7267 -0.1201 -0.9134
  574MOL0     C77408   3.995   5.359  10.367  0.3174  0.2271  0.8899
  574MOL0     C77409   4.367   5.647  10.304 -0.7547 -0.0807  0.3528
  574MOL0     C77410   4.506   5.628  10.283 -0.5487  0.2522  0.3214
  574MOL0     C77411   4.583   5.725  10.215 -0.1984  0.0583  0.3921
  574MOL0     C77412   4.533   5.853  10.190  0.5101  0.4641  0.2077
  574MOL0     O77413   4.628   5.940  10.138  0.2353  0.7027  0.8636
  574MOL0     C77414   4.587   6.056  10.062  0.9839  0.6995 -0.4848
  574MOL0     C77415   4.560   6.178  10.155  0.8091  0.1453 -1.2097
  574MOL0     C77416   4.544   6.289  10.059  0.2439 -0.3230 -0.0916
  574MOL0     C77417   4.488   6.417  10.127  0.2498 -0.5524  0.1167
  574MOL0     C77418   4.369   6.478  10.053 -1.2072 -0.3273 -0.5418
  574MOL0     C77419   4.283   6.543   9.988  0.2573 -0.1893 -0.0464
  574MOL0     C77420   4.392   5.871  10.214  0.2125  0.0209 -0.6493
  574MOL0     C77421   4.316   5.777  10.268  0.8035  0.5096  0.5756
  574MOL0     C77422   4.167   5.807  10.284  0.8294  0.3703 -1.2754
  574MOL0     H77423   4.311   5.257  10.442  1.2566 -1.8848 -1.1124
  574MOL0     H77424   4.177   5.056  10.514  1.9057  1.0096 -0.1286
  574MOL0     H77425   3.716   5.025  10.455 -1.9651  0.2399 -2.0546
  574MOL0     H77426   3.804   5.017  10.309 -0.5453 -4.1954 -0.9839
  574MOL0     H77427   3.687   4.794  10.372 -0.3464 -0.7258  0.7206
  574MOL0     H77428   3.781   4.795  10.523 -2.7447  2.2640  0.5521
  574MOL0     H77429   3.994   4.784  10.370 -1.3282  1.5822 -0.2443
  574MOL0     H77430   3.879   4.781  10.236  0.4559  1.8197  0.2711
  574MOL0     H77431   3.862   4.578  10.455 -2.6568  2.2795  0.8777
  574MOL0     H77432   3.760   4.591  10.307 -0.9716  1.5817  0.4235
  574MOL0     H77433   3.911   4.416  10.235 -1.2582  0.9222  0.3844
  574MOL0     H77434   3.975   4.564  10.152  1.4877  2.4756  1.4924
  574MOL0     H77435   4.131   4.595  10.329 -0.7605  1.9773 -3.9699
  574MOL0     H77436   4.086   4.433  10.392  3.0713  1.1966  0.6092
  574MOL0     H77437   4.122   4.323  10.185 -0.4640  0.6718 -2.8960
  574MOL0     H77438   4.269   4.381  10.261  1.5217  1.3153 -0.2904
  574MOL0     H77439   4.300   4.422  10.017 -1.2762 -0.0089 -2.0256
  574MOL0     H77440   4.158   4.518  10.017 -1.0585  0.0753  0.8826
  574MOL0     H77441   4.162   4.756  10.078  0.1069 -1.5008 -1.6870
  574MOL0     H77442   4.254   4.951  10.315 -2.4391  0.1358 -1.6845
  574MOL0     H77443   4.412   5.015  10.242 -0.4965  0.7159 -0.7887
  574MOL0     H77444   4.181   4.974  10.075  1.1151 -1.6984  0.7065
  574MOL0     H77445   4.172   5.115  10.168 -0.2733 -2.0059  0.5426
  574MOL0     H77446   4.295   5.061   9.911  2.0412  0.3422 -0.5525
  574MOL0     H77447   4.435   5.073  10.028  0.4360  1.9653  0.4606
  574MOL0     H77448   4.371   5.293   9.903  2.7314 -0.2061  1.1220
  574MOL0     H77449   4.414   5.294  10.077  1.4616 -1.3870 -0.7211
  574MOL0     H77450   4.387   5.504  10.024  0.0510  0.8353 -0.4983
  574MOL0     H77451   4.334   5.739   9.990 -1.4491  1.3861 -0.2153
  574MOL0     H77452   4.128   6.105  10.064 -4.7910 -1.8613 -0.5415
  574MOL0     H77453   4.092   6.349  10.010 -2.0346  0.6653 -0.8378
  574MOL0     H77454   4.053   6.567   9.619 -1.3102  1.3466 -2.1755
  574MOL0     H77455   3.939   6.418   9.609 -0.6688  0.6860 -0.1734
  574MOL0     H77456   3.904   6.627   9.824  1.8107 -2.6827 -0.3492
  574MOL0     H77457   3.839   6.666   9.666 -0.0020 -0.9844 -0.2479
  574MOL0     H77458   3.667   6.568   9.780 -0.2590 -0.7936 -0.8647
  574MOL0     H77459   3.728   6.442   9.667 -2.1081 -2.0566  0.4110
  574MOL0     H77460   3.787   6.304   9.863  0.8803 -1.3923  1.8176
  574MOL0     H77461   3.619   6.362   9.882  0.6968 -1.7553 -1.5607
  574MOL0     H77462   3.699   6.532  10.053  0.3992 -0.0226  0.9139
  574MOL0     H77463   3.873   6.486  10.011 -0.2527  0.4564 -3.6435
  574MOL0     H77464   3.655   6.333  10.172  0.6057  0.3439  1.0195
  574MOL0     H77465   3.787   6.251  10.095 -1.9232  0.0994 -0.7813
  574MOL0     H77466   3.753   6.468  10.305 -3.3100 -1.6635 -1.4742
  574MOL0     H77467   3.920   6.441  10.268 -0.6631  0.6663 -2.3085
  574MOL0     H77468   3.851   6.312  10.464 -3.2321 -0.3992  1.4941
  574MOL0     H77469   3.734   6.214  10.374 -0.1516  0.1948  0.1311
  574MOL0     H77470   4.101   6.258   9.584  1.1250  0.3695  0.4039
  574MOL0     H77471   4.158   6.042   9.644 -0.4758  0.7025 -0.2774
  574MOL0     H77472   3.930   5.630   9.906 -1.1728 -5.6357  0.5752
  574MOL0     H77473   3.992   5.393   9.952 -0.5410  0.7198  0.2340
  574MOL0     H77474   3.821   5.265  10.380 -0.7823  2.0817  1.0353
  574MOL0     H77475   3.946   5.442  10.319  3.6655 -0.1460 -3.9623
  574MOL0     H77476   4.553   5.533  10.308  0.2202  0.6732  0.5156
  574MOL0     H77477   4.684   5.701  10.185 -0.4957  0.0499 -0.6611
  574MOL0     H77478   4.500   6.023  10.004  0.6480  1.4403 -0.4053
  574MOL0     H77479   4.669   6.088   9.998 -0.1005  2.1457 -1.1938
  574MOL0     H77480   4.630   6.183  10.239 -1.0388 -1.6330  0.5355
  574MOL0     H77481   4.466   6.159  10.205  0.9754 -1.1570 -1.3670
  574MOL0     H77482   4.481   6.257   9.976 -1.2610 -1.2406  1.3317
  574MOL0     H77483   4.640   6.323  10.021  0.1705 -0.9997 -0.9010
  574MOL0     H77484   4.458   6.381  10.226 -1.2026 -0.0852 -0.1285
  574MOL0     H77485   4.554   6.503  10.140 -1.7270  0.7307  2.7617
  574MOL0     H77486   4.206   6.591   9.931 -0.1371 -1.9219 -1.0701
  574MOL0     H77487   4.351   5.963  10.174 -3.9921 -1.6880 -0.8083
  574MOL0     H77488   4.114   5.734  10.222 -0.6159  0.0452  0.2763
  574MOL0     H77489   4.147   5.808  10.392  3.3668  2.0390 -0.7160
  574MOL0     H77490   4.144   5.908  10.250  0.1834  0.8772  0.5446
  575MOL0     O77491   5.556   0.815   9.618 -0.6718 -1.2518  0.3316
  575MOL0     C77492   5.649   0.793   9.540  0.3247  0.4773 -0.0974
  575MOL0     O77493   5.648   0.840   9.412 -0.2892  0.2787 -0.4215
  575MOL0     C77494   5.544   0.914   9.372 -0.5614  0.4212 -0.2819
  575MOL0     C77495   5.571   1.035   9.315  0.6916 -0.2463 -1.0272
  575MOL0     C77496   5.476   1.128   9.271 -0.6677 -0.7246  0.0750
  575MOL0     C77497   5.341   1.088   9.276  0.1836 -0.6326  0.0408
  575MOL0     O77498   5.239   1.155   9.219  1.0882  0.2700  0.5044
  575MOL0     C77499   5.247   1.280   9.149  0.1700 -0.2573 -0.9719
  575MOL0     C77500   5.282   1.398   9.248  0.5749 -0.0599 -0.8876
  575MOL0     C77501   5.217   1.534   9.205  0.0052  0.7802 -0.0097
  575MOL0     C77502   5.293   1.590   9.085 -0.1726 -0.5812 -0.2765
  575MOL0     C77503   5.193   1.677   9.002  0.2406  0.0962 -1.0145
  575MOL0     C77504   5.253   1.749   8.888  0.0891 -0.3063 -0.0022
  575MOL0     C77505   5.322   1.877   8.938 -0.0933  0.1196 -0.2687
  575MOL0     C77506   5.410   1.945   8.829  0.9092 -0.6671 -0.0522
  575MOL0     N77507   5.332   1.985   8.707 -0.3770  0.2164 -0.8899
  575MOL0     C77508   5.234   2.078   8.706 -0.1086 -0.5087 -0.5662
  575MOL0     C77509   5.184   2.066   8.578 -0.7168 -0.3576 -1.1028
  575MOL0     C77510   5.061   2.143   8.530 -0.2369  0.1642 -0.2162
  575MOL0     C77511   4.940   2.063   8.571 -1.4375  0.1092 -0.6509
  575MOL0     C77512   4.830   2.081   8.464 -0.3034  0.3936  0.2144
  575MOL0     C77513   4.687   2.039   8.484  0.3946  0.0431  0.4616
  575MOL0     O77514   4.674   1.899   8.483 -0.2654  0.1210 -0.6328
  575MOL0     C77515   4.550   1.842   8.495 -0.1202  0.1964 -0.5317
  575MOL0     C77516   4.542   1.703   8.510 -0.7143  0.1785 -0.3445
  575MOL0     C77517   4.427   1.630   8.517 -0.2476  0.0960  0.2011
  575MOL0     C77518   4.305   1.698   8.526 -0.6656 -1.4250  0.1869
  575MOL0     C77519   4.180   1.622   8.518 -0.1291 -0.0676  0.3300
  575MOL0     O77520   4.068   1.680   8.447  0.1413 -0.2026 -0.2023
  575MOL0     C77521   3.973   1.608   8.378 -0.3149 -0.7706  0.0068
  575MOL0     C77522   4.024   1.524   8.287  0.1211  0.3099 -0.5118
  575MOL0     C77523   3.936   1.449   8.197  0.2641 -1.1965  0.4671
  575MOL0     C77524   3.800   1.464   8.203  0.4487 -0.8946  0.2685
  575MOL0     O77525   3.700   1.386   8.122  0.1949 -0.1950 -0.2924
  575MOL0     C77526   3.735   1.294   8.013  0.5125  0.2556 -0.6496
  575MOL0     C77527   3.757   1.152   8.057 -0.1328  0.1481  0.0888
  575MOL0     C77528   3.899   1.120   8.110  0.2109 -0.1340  0.3571
  575MOL0     C77529   3.928   1.135   8.261  0.7863 -0.2635 -0.5592
  575MOL0     C77530   4.063   1.074   8.310 -0.0449 -0.7921  0.7533
  575MOL0     C77531   4.181   1.150   8.233  1.0368 -0.1334 -0.0776
  575MOL0     C77532   4.312   1.083   8.274 -0.8566 -1.0050 -0.3205
  575MOL0     C77533   4.429   1.178   8.236 -0.4429 -0.2824  0.0296
  575MOL0    Cl77534   4.418   1.335   8.324  0.0158  0.1882 -0.1215
  575MOL0     C77535   3.754   1.554   8.307 -0.4145 -0.0093  0.9543
  575MOL0     C77536   3.833   1.631   8.386 -0.0498  0.2636  0.7482
  575MOL0     O77537   4.185   1.505   8.550  0.1515 -0.5789  0.1499
  575MOL0     C77538   4.305   1.838   8.509  0.4031 -0.0564  0.1638
  575MOL0     C77539   4.430   1.910   8.499 -0.2657  0.2617  0.5033
  575MOL0     N77540   5.247   1.962   8.509  0.2993  0.6011 -0.2405
  575MOL0     N77541   5.336   1.911   8.591  0.5682 -0.8695 -0.4586
  575MOL0     C77542   5.319   0.967   9.334  0.4588  0.5566 -0.0992
  575MOL0     C77543   5.410   0.871   9.376  0.3890 -0.1181  0.1281
  575MOL0     C77544   5.772   0.721   9.572 -0.8691  0.0108  0.8053
  575MOL0     C77545   5.801   0.699   9.707  0.6165 -1.0527 -0.3679
  575MOL0     C77546   5.914   0.631   9.743 -0.0013 -0.4440 -1.3407
  575MOL0     C77547   6.012   0.590   9.657  0.4751  0.2644  0.5587
  575MOL0     O77548   6.106   0.513   9.703  0.3629 -0.1370 -0.0155
  575MOL0     C77549   6.203   0.444   9.619 -0.1283  0.3613  0.6087
  575MOL0     C77550   6.291   0.353   9.689  0.5645 -0.5259 -0.5232
  575MOL0     C77551   6.207   0.264   9.789  0.5246  0.0232 -0.0772
  575MOL0     C77552   6.268   0.135   9.845 -0.9194 -1.1613 -0.7115
  575MOL0     C77553   6.322   0.047   9.744  0.0705 -0.8427  0.2399
  575MOL0     C77554   6.335  -0.002   9.640  0.4706 -0.5342  0.6054
  575MOL0     C77555   5.989   0.620   9.522  0.8690  0.0197  1.0529
  575MOL0     C77556   5.873   0.680   9.475 -0.4129  0.2482 -0.6219
  575MOL0     C77557   5.857   0.693   9.321  0.0159 -0.4986 -0.7864
  575MOL0     H77558   5.677   1.054   9.306  0.5861  2.7086  2.1332
  575MOL0     H77559   5.497   1.228   9.234  0.4590 -0.7546  0.5957
  575MOL0     H77560   5.330   1.283   9.077  2.0036 -0.3844  1.0285
  575MOL0     H77561   5.145   1.292   9.112 -0.8967 -0.0472  1.7803
  575MOL0     H77562   5.390   1.408   9.257  0.2661  2.5009  1.4497
  575MOL0     H77563   5.252   1.376   9.351  0.0516 -1.2252 -1.2757
  575MOL0     H77564   5.217   1.601   9.291  2.9357 -2.5356  2.8969
  575MOL0     H77565   5.111   1.519   9.182 -0.4328  1.0308  1.7353
  575MOL0     H77566   5.385   1.644   9.108 -0.2163 -0.0404 -1.3415
  575MOL0     H77567   5.318   1.504   9.023  2.2386 -1.3114  1.5492
  575MOL0     H77568   5.110   1.615   8.965 -1.9227  1.7285  0.7831
  575MOL0     H77569   5.134   1.751   9.057 -2.7386 -0.3452 -3.3126
  575MOL0     H77570   5.330   1.697   8.830  0.0011 -0.6973  0.2243
  575MOL0     H77571   5.175   1.781   8.819  1.2380  2.7947  0.0067
  575MOL0     H77572   5.378   1.873   9.031 -1.4538  2.5095  0.7467
  575MOL0     H77573   5.236   1.939   8.966  1.8486  1.7761  2.5511
  575MOL0     H77574   5.448   2.032   8.884  1.7541 -1.4187  0.5687
  575MOL0     H77575   5.499   1.888   8.802  1.2857 -0.0320 -0.1684
  575MOL0     H77576   5.202   2.131   8.796  1.0599 -0.3252 -0.2432
  575MOL0     H77577   5.060   2.242   8.577  0.7343  1.0364 -1.9449
  575MOL0     H77578   5.069   2.162   8.423  0.5718  1.9558  0.1146
  575MOL0     H77579   4.958   1.956   8.588  1.3612  0.8222  1.7189
  575MOL0     H77580   4.906   2.102   8.668 -1.5441 -0.5312 -0.4230
  575MOL0     H77581   4.864   2.018   8.381 -0.8318 -0.6813  0.7940
  575MOL0     H77582   4.828   2.184   8.427 -1.8536  0.4535  0.3736
  575MOL0     H77583   4.620   2.092   8.416 -0.9577 -1.1886  0.7895
  575MOL0     H77584   4.654   2.070   8.584  0.7198 -2.4383  1.4160
  575MOL0     H77585   4.631   1.642   8.507 -1.1979 -0.7482  2.1370
  575MOL0     H77586   4.417   1.523   8.505 -2.6867  0.4394 -1.6555
  575MOL0     H77587   4.128   1.500   8.301 -0.5853 -2.1147  1.1726
  575MOL0     H77588   3.980   1.375   8.131  0.8395  0.9238 -1.6827
  575MOL0     H77589   3.647   1.293   7.948  1.3173  0.1424 -1.7493
  575MOL0     H77590   3.821   1.337   7.962 -0.6951  3.6044 -0.1473
  575MOL0     H77591   3.694   1.124   8.142  0.5356  2.3608  1.3980
  575MOL0     H77592   3.748   1.097   7.963 -0.5494 -0.2466  0.3547
  575MOL0     H77593   3.934   1.021   8.079  3.2496  0.9869 -0.0408
  575MOL0     H77594   3.966   1.185   8.054 -0.2502 -0.8234 -1.0309
  575MOL0     H77595   3.849   1.074   8.305  1.4394 -1.1020 -0.5304
  575MOL0     H77596   3.915   1.236   8.302  1.4256 -0.4670  0.1820
  575MOL0     H77597   4.078   0.970   8.281  3.6054 -0.2379  0.2430
  575MOL0     H77598   4.083   1.088   8.416  2.6340 -0.7318  0.3037
  575MOL0     H77599   4.182   1.140   8.124 -5.4769  4.2974 -1.1615
  575MOL0     H77600   4.173   1.257   8.251 -2.3203  0.0444 -1.7675
  575MOL0     H77601   4.322   0.980   8.238 -2.2140 -1.6014  0.9094
  575MOL0     H77602   4.316   1.080   8.384  1.9412  0.6291 -0.2758
  575MOL0     H77603   4.524   1.125   8.251  0.4874  1.4861  0.6148
  575MOL0     H77604   4.424   1.205   8.130  0.9948  1.2010  0.3036
  575MOL0     H77605   3.648   1.577   8.307  0.1115  3.1021 -1.4882
  575MOL0     H77606   3.793   1.693   8.466 -1.9446 -1.3447  1.1374
  575MOL0     H77607   4.212   1.894   8.503 -0.1080 -1.0079 -2.4492
  575MOL0     H77608   4.434   2.017   8.485 -2.6142  0.6536  2.2087
  575MOL0     H77609   5.224   0.915   9.339  0.6137  0.2166 -0.6611
  575MOL0     H77610   5.392   0.771   9.416 -0.6920 -0.4861 -1.2192
  575MOL0     H77611   5.736   0.739   9.784  2.0750  0.2008  0.2630
  575MOL0     H77612   5.938   0.631   9.849 -0.8852 -1.9936 -1.1125
  575MOL0     H77613   6.255   0.526   9.568  0.9460  1.5201  3.3764
  575MOL0     H77614   6.164   0.385   9.535  2.6758 -0.1262 -0.4558
  575MOL0     H77615   6.356   0.419   9.747 -1.4898  1.3005 -0.1931
  575MOL0     H77616   6.364   0.301   9.626  2.8563 -0.6557  2.0503
  575MOL0     H77617   6.116   0.225   9.741 -0.9344  0.4809  2.1696
  575MOL0     H77618   6.175   0.334   9.867  0.4345  0.8360 -0.8338
  575MOL0     H77619   6.353   0.179   9.898 -3.2331  1.3755  1.1934
  575MOL0     H77620   6.210   0.088   9.925 -1.9212  0.6424 -0.3176
  575MOL0     H77621   6.351  -0.049   9.545  2.6638 -0.0621  0.6905
  575MOL0     H77622   6.057   0.588   9.443 -0.5044  1.4002 -0.7577
  575MOL0     H77623   5.933   0.630   9.275  2.8941  2.1231 -0.0137
  575MOL0     H77624   5.767   0.649   9.278 -1.0349 -1.2540  1.9967
  575MOL0     H77625   5.877   0.797   9.291 -2.1091 -0.0325 -0.6885
  576MOL0     O77626   4.928   4.039  11.279  0.1687  0.5087  0.6420
  576MOL0     C77627   4.978   4.146  11.322  0.1835 -0.9075 -0.1474
  576MOL0     O77628   4.905   4.266  11.320  0.3065 -0.6956  0.2639
  576MOL0     C77629   4.774   4.288  11.352  0.1076  0.3302 -0.3621
  576MOL0     C77630   4.727   4.357  11.466 -0.3502 -0.1932 -0.1690
  576MOL0     C77631   4.588   4.373  11.497 -0.2793  0.1049  0.5313
  576MOL0     C77632   4.499   4.305  11.414 -0.8298 -0.1359  0.2989
  576MOL0     O77633   4.365   4.331  11.429 -0.0705  0.2854  0.3255
  576MOL0     C77634   4.292   4.202  11.452 -1.8019  0.4495  1.0450
  576MOL0     C77635   4.169   4.232  11.523 -0.3523 -1.5583 -0.1985
  576MOL0     C77636   4.187   4.243  11.671 -0.5023 -0.3533  0.1837
  576MOL0     C77637   4.064   4.272  11.745  0.5259 -0.3222  0.1622
  576MOL0     C77638   4.079   4.239  11.892 -0.1757 -0.2417 -0.2114
  576MOL0     C77639   3.953   4.274  11.983  0.6377 -0.5748 -0.5055
  576MOL0     C77640   3.984   4.229  12.126 -0.4471 -0.4243  0.1152
  576MOL0     C77641   3.883   4.282  12.232 -0.1169  0.5817 -0.0277
  576MOL0     N77642   3.761   4.207  12.214 -0.1351 -0.4596  1.0390
  576MOL0     C77643   3.725   4.104  12.296  0.3320  0.8341 -0.8373
  576MOL0     C77644   3.593   4.095  12.294 -0.5631 -0.3054  0.2331
  576MOL0     C77645   3.519   4.011  12.387  0.2875  0.0398 -0.1112
  576MOL0     C77646   3.425   4.100  12.473 -1.0809  0.2443  0.2047
  576MOL0     C77647   3.355   4.033  12.592 -0.7069 -1.0384 -0.5904
  576MOL0     C77648   3.464   3.986  12.688  0.6104  0.4071 -0.6106
  576MOL0     O77649   3.420   3.981  12.825 -0.0132 -0.1678  0.1847
  576MOL0     C77650   3.329   3.887  12.843 -0.3054  0.3648  0.0088
  576MOL0     C77651   3.337   3.746  12.815 -0.7721  0.1680  0.6047
  576MOL0     C77652   3.239   3.663  12.852 -0.0440  1.0025  0.3829
  576MOL0     C77653   3.117   3.704  12.903 -0.4606  0.0113  0.3286
  576MOL0     C77654   3.012   3.610  12.906  0.0805  0.2383  0.4082
  576MOL0     O77655   3.038   3.478  12.903 -0.1028 -0.0236  1.2783
  576MOL0     C77656   2.926   3.398  12.909 -0.2875  0.8066  0.2288
  576MOL0     C77657   2.839   3.365  12.800  0.0002 -1.1065 -0.5730
  576MOL0     C77658   2.719   3.294  12.831  0.1098 -0.2760 -0.5618
  576MOL0     C77659   2.679   3.270  12.960 -0.0064  0.0730  0.4968
  576MOL0     O77660   2.561   3.207  12.983  0.0868  0.5969  0.0468
  576MOL0     C77661   2.479   3.265  13.085 -0.2088 -0.7945 -0.2613
  576MOL0     C77662   2.343   3.204  13.060  1.7126  0.1900  0.1194
  576MOL0     C77663   2.257   3.241  12.936 -0.5315  0.2767  0.1770
  576MOL0     C77664   2.109   3.203  12.937  0.0047  0.4835 -0.4529
  576MOL0     C77665   2.030   3.237  12.813  0.5497  0.0221 -0.2981
  576MOL0     C77666   2.065   3.145  12.692 -0.4061 -0.3793 -0.1488
  576MOL0     C77667   1.990   3.184  12.568 -0.5093 -0.7127 -0.9680
  576MOL0     C77668   1.836   3.169  12.574 -0.2607  1.6639 -0.6425
  576MOL0    Cl77669   1.806   2.990  12.612  0.1511 -0.4168  0.0749
  576MOL0     C77670   2.769   3.290  13.061  0.1223  0.1089  0.6807
  576MOL0     C77671   2.897   3.343  13.039  0.2280 -0.3354  0.4693
  576MOL0     O77672   2.902   3.668  12.894 -0.7588 -0.1039  0.0344
  576MOL0     C77673   3.101   3.845  12.921  0.2883  0.0208  0.4790
  576MOL0     C77674   3.210   3.929  12.904  0.5712 -0.3773 -0.0130
  576MOL0     N77675   3.545   4.189  12.195 -0.1055 -0.3447 -0.3501
  576MOL0     N77676   3.646   4.256  12.150 -0.3156  0.5586 -0.3126
  576MOL0     C77677   4.545   4.229  11.304  0.6502 -0.3044 -0.1151
  576MOL0     C77678   4.677   4.237  11.273 -0.6632 -0.0156 -0.0869
  576MOL0     C77679   5.107   4.151  11.395  0.6627 -0.1005 -0.5256
  576MOL0     C77680   5.193   4.271  11.397 -0.1926  0.4824 -0.2713
  576MOL0     C77681   5.310   4.269  11.471 -0.0171 -0.5332 -0.1139
  576MOL0     C77682   5.369   4.149  11.511 -0.2701 -0.5673  0.5312
  576MOL0     O77683   5.491   4.151  11.575 -0.4042 -0.1030  0.3435
  576MOL0     C77684   5.567   4.264  11.590  0.6516  0.7992 -0.1419
  576MOL0     C77685   5.706   4.238  11.651  0.5046  0.2856  0.6107
  576MOL0     C77686   5.708   4.141  11.775 -0.3504 -0.0278  0.7768
  576MOL0     C77687   5.846   4.106  11.816  0.1551 -0.8991 -0.2734
  576MOL0     C77688   5.847   4.016  11.932 -0.2893 -1.3781 -0.3075
  576MOL0     C77689   5.850   3.935  12.031  0.1687 -1.0541 -0.5442
  576MOL0     C77690   5.296   4.038  11.497 -0.6190 -0.5669  0.4066
  576MOL0     C77691   5.166   4.034  11.446  0.0554 -0.3570 -0.7608
  576MOL0     C77692   5.090   3.901  11.455  0.4147  0.9550 -0.4579
  576MOL0     H77693   4.803   4.414  11.519 -1.3578  0.6830  0.3817
  576MOL0     H77694   4.559   4.404  11.597  2.2776 -3.7777  2.7125
  576MOL0     H77695   4.262   4.169  11.352  1.1938  3.5585 -1.0938
  576MOL0     H77696   4.358   4.127  11.495  0.2994  2.3148  1.2732
  576MOL0     H77697   4.095   4.153  11.509 -0.0967 -2.2027  1.7352
  576MOL0     H77698   4.134   4.330  11.487  0.2204 -1.3622 -0.2256
  576MOL0     H77699   4.260   4.319  11.700  0.3985 -0.7108 -1.0797
  576MOL0     H77700   4.216   4.139  11.690 -1.9534 -1.6131 -3.6003
  576MOL0     H77701   4.049   4.379  11.732  3.7376  0.1769 -0.0489
  576MOL0     H77702   3.978   4.223  11.698  0.9472 -0.5379 -0.3880
  576MOL0     H77703   4.099   4.132  11.900  0.3254 -0.0182  4.5771
  576MOL0     H77704   4.165   4.285  11.942  1.0571 -2.0701 -0.5551
  576MOL0     H77705   3.924   4.380  11.987  1.6125 -0.1352 -3.4468
  576MOL0     H77706   3.867   4.216  11.951 -1.8368  1.0565  2.5478
  576MOL0     H77707   4.086   4.259  12.153 -0.5029 -1.3201  1.4140
  576MOL0     H77708   3.974   4.120  12.119  0.6644 -0.7158  2.1867
  576MOL0     H77709   3.934   4.265  12.328  1.3899 -3.1701 -1.3163
  576MOL0     H77710   3.874   4.391  12.232 -0.5937  0.6529  3.2365
  576MOL0     H77711   3.793   4.053  12.364 -0.1863  0.6956 -0.4169
  576MOL0     H77712   3.471   3.944  12.315  0.6648  0.0119 -0.3376
  576MOL0     H77713   3.576   3.944  12.452 -1.2711 -0.8824  0.3721
  576MOL0     H77714   3.473   4.186  12.521 -0.4398  0.3612 -0.6269
  576MOL0     H77715   3.348   4.131  12.401 -3.2382 -1.4907  1.6226
  576MOL0     H77716   3.280   3.955  12.581  0.1053 -2.2328  1.7869
  576MOL0     H77717   3.302   4.118  12.635 -0.9610 -0.3725 -2.1327
  576MOL0     H77718   3.546   4.054  12.662 -1.3814  1.9236 -3.5380
  576MOL0     H77719   3.496   3.887  12.656  0.9696  0.5446 -0.6805
  576MOL0     H77720   3.428   3.697  12.782 -3.0336 -1.5087 -4.0789
  576MOL0     H77721   3.258   3.561  12.822 -0.0680  0.6758  1.4122
  576MOL0     H77722   2.860   3.393  12.697  4.3602 -2.2327 -0.1729
  576MOL0     H77723   2.649   3.268  12.753  1.6847 -0.0107 -2.1335
  576MOL0     H77724   2.497   3.223  13.185 -1.3545 -0.0677  0.2742
  576MOL0     H77725   2.478   3.374  13.092  1.6545 -0.7455 -0.3097
  576MOL0     H77726   2.354   3.095  13.055  1.9055  0.0576  2.2335
  576MOL0     H77727   2.291   3.225  13.154  2.2174 -2.5834  1.1238
  576MOL0     H77728   2.273   3.347  12.914 -0.3716 -0.4269 -3.8085
  576MOL0     H77729   2.292   3.184  12.850 -2.9178  0.5006 -1.0295
  576MOL0     H77730   2.061   3.256  13.020  2.2467 -0.2687  1.4460
  576MOL0     H77731   2.096   3.096  12.955 -0.5097  0.6697  0.3983
  576MOL0     H77732   2.032   3.343  12.786 -1.4670 -0.3913 -2.3528
  576MOL0     H77733   1.925   3.212  12.831  0.4677 -0.9533 -1.8971
  576MOL0     H77734   2.173   3.152  12.673  0.4591 -4.8427  1.7218
  576MOL0     H77735   2.045   3.045  12.731 -1.5639  1.2828  4.0547
  576MOL0     H77736   2.032   3.128  12.484  0.5693  1.7716 -2.2096
  576MOL0     H77737   1.997   3.292  12.548 -0.0073 -0.8942 -1.7929
  576MOL0     H77738   1.800   3.233  12.655  0.2085 -2.4852  3.2601
  576MOL0     H77739   1.801   3.193  12.473  0.2882  1.3534 -0.9111
  576MOL0     H77740   2.739   3.262  13.161  0.9367 -0.8885  0.6630
  576MOL0     H77741   2.967   3.347  13.121  0.1315  1.0043  0.5087
  576MOL0     H77742   3.012   3.902  12.947 -0.0684  1.3883 -3.2581
  576MOL0     H77743   3.205   4.032  12.938  0.3466 -0.9403  1.8020
  576MOL0     H77744   4.469   4.182  11.242 -2.0328  0.3008  2.5039
  576MOL0     H77745   4.699   4.188  11.179 -1.3155 -0.8735  0.1818
  576MOL0     H77746   5.168   4.365  11.347 -0.2834  0.5056 -0.1811
  576MOL0     H77747   5.365   4.356  11.507 -1.7449 -0.8790  3.8025
  576MOL0     H77748   5.512   4.332  11.656  2.5562  0.6663  1.6824
  576MOL0     H77749   5.576   4.308  11.490 -0.7069 -0.1167 -0.6890
  576MOL0     H77750   5.758   4.328  11.686 -0.9262  1.8920 -1.2225
  576MOL0     H77751   5.760   4.198  11.565  1.5084  1.6939  0.5626
  576MOL0     H77752   5.650   4.052  11.748 -1.4039  0.3925  1.5730
  576MOL0     H77753   5.663   4.180  11.868  0.7894 -0.2114  1.4245
  576MOL0     H77754   5.905   4.050  11.743 -0.6743 -2.1725 -0.0071
  576MOL0     H77755   5.896   4.199  11.845  1.0676 -0.9742 -1.5308
  576MOL0     H77756   5.864   3.883  12.124 -0.5692  2.0634  1.4851
  576MOL0     H77757   5.346   3.942  11.508 -1.9395 -2.1878 -4.8352
  576MOL0     H77758   5.085   3.853  11.357  0.2791  0.4129 -0.1921
  576MOL0     H77759   5.144   3.837  11.526 -3.8573 -2.2719  0.3526
  576MOL0     H77760   4.991   3.908  11.502 -1.9704 -2.1618 -4.3796
  577MOL0     O77761  11.067   8.688  11.072 -0.1539  0.3569 -0.4938
  577MOL0     C77762  11.061   8.707  10.950  1.6329 -0.2298 -0.2965
  577MOL0     O77763  11.144   8.648  10.853  0.2436  0.4531  0.7926
  577MOL0     C77764  11.205   8.528  10.855 -0.9783 -0.2587  0.1352
  577MOL0     C77765  11.312   8.511  10.765  0.0626  0.3270 -0.0808
  577MOL0     C77766  11.374   8.392  10.760 -0.2065  0.5215 -0.3230
  577MOL0     C77767  11.327   8.277  10.827  0.3582  0.0108  0.9263
  577MOL0     O77768  11.394   8.160  10.799  0.4297  0.4020 -0.1612
  577MOL0     C77769  11.356   8.042  10.865  0.4822 -0.7165 -0.1526
  577MOL0     C77770  11.467   7.938  10.837 -0.1060 -0.6975 -0.5513
  577MOL0     C77771  11.463   7.891  10.698 -0.4557  0.5356 -0.4933
  577MOL0     C77772  11.571   7.796  10.662 -0.4472 -0.4006 -0.5635
  577MOL0     C77773  11.558   7.742  10.517 -0.5357 -0.6513 -0.4298
  577MOL0     C77774  11.644   7.616  10.503  0.1485 -0.7522 -0.3859
  577MOL0     C77775  11.785   7.618  10.562  0.2539 -0.0293  0.1769
  577MOL0     C77776  11.846   7.474  10.537  0.3460 -0.5377  0.2634
  577MOL0     N77777  11.781   7.369  10.617 -0.4690  0.3504 -0.0347
  577MOL0     C77778  11.762   7.371  10.748  0.7742 -0.1082  0.7921
  577MOL0     C77779  11.690   7.258  10.773 -0.5443 -0.0478  0.2505
  577MOL0     C77780  11.645   7.220  10.914  0.2524  0.2840  0.5885
  577MOL0     C77781  11.753   7.205  11.017 -1.4459 -0.5268 -0.0319
  577MOL0     C77782  11.839   7.090  10.961 -0.2129 -0.3019  0.2945
  577MOL0     C77783  11.928   7.047  11.067 -0.4386  0.2581  1.1585
  577MOL0     O77784  11.955   6.903  11.063 -0.5158 -0.3279  0.4680
  577MOL0     C77785  12.032   6.848  10.958 -1.1782 -0.3838  0.4330
  577MOL0     C77786  12.012   6.710  10.913  0.2358 -1.0121  0.2242
  577MOL0     C77787  12.083   6.663  10.804  0.5676 -0.3867  0.3777
  577MOL0     C77788  12.172   6.741  10.738 -0.3770  0.2995 -0.5852
  577MOL0     C77789  12.250   6.687  10.623 -0.7904 -0.0388 -0.1919
  577MOL0     O77790  12.333   6.767  10.551  0.3909  0.4312 -0.0208
  577MOL0     C77791  12.415   6.691  10.465  0.6489 -1.5707  0.8279
  577MOL0     C77792  12.549   6.723  10.471 -0.4160  0.4027 -0.0042
  577MOL0     C77793  12.636   6.664  10.384  0.2485 -0.0209 -0.5366
  577MOL0     C77794  12.595   6.587  10.282  0.1198 -0.4766  1.1208
  577MOL0     O77795  12.685   6.539  10.192 -0.0779 -0.6281  0.5131
  577MOL0     C77796  12.650   6.448  10.085  0.9960 -0.1648  0.2358
  577MOL0     C77797  12.776   6.419  10.010 -0.2554 -0.9184 -0.0568
  577MOL0     C77798  12.891   6.366  10.098 -0.1398 -0.3836 -0.0163
  577MOL0     C77799  13.023   6.339  10.027 -0.5146  0.1542 -0.1465
  577MOL0     C77800  13.118   6.254  10.103 -0.4768  0.4764  0.0384
  577MOL0     C77801  13.252   6.222  10.019  0.0238 -1.1117 -0.5949
  577MOL0     C77802  13.340   6.134  10.100 -0.4354 -0.2625  0.3228
  577MOL0     C77803  13.469   6.202  10.146 -0.5394  0.4593  0.8391
  577MOL0    Cl77804  13.427   6.260  10.307 -0.3856  0.0443  0.4567
  577MOL0     C77805  12.461   6.556  10.269  0.6633 -0.9501 -1.0363
  577MOL0     C77806  12.370   6.608  10.369 -0.0674 -0.3819  0.5465
  577MOL0     O77807  12.240   6.563  10.611 -0.3877  0.1993  0.0251
  577MOL0     C77808  12.189   6.874  10.777 -0.5990 -0.4289  0.3352
  577MOL0     C77809  12.113   6.928  10.882 -0.2755  0.8615 -1.0228
  577MOL0     N77810  11.671   7.194  10.650 -1.1014 -0.2351 -0.2660
  577MOL0     N77811  11.736   7.254  10.568  0.2877  0.1749  0.6402
  577MOL0     C77812  11.212   8.291  10.910 -0.2263 -0.4665 -0.2473
  577MOL0     C77813  11.160   8.413  10.930  0.1354 -0.6133 -0.8430
  577MOL0     C77814  10.941   8.775  10.906  0.4373 -0.0985 -0.9922
  577MOL0     C77815  10.822   8.770  10.986  0.8494 -0.8711  0.0258
  577MOL0     C77816  10.714   8.860  10.972  0.4999 -0.0379  0.6843
  577MOL0     C77817  10.694   8.931  10.858  0.4301  0.0568 -0.3862
  577MOL0     O77818  10.591   9.026  10.845  0.0310 -0.0729 -0.4358
  577MOL0     C77819  10.637   9.163  10.880 -0.0780 -0.4003  0.0224
  577MOL0     C77820  10.524   9.219  10.973 -1.2782  0.8107 -0.2781
  577MOL0     C77821  10.404   9.288  10.904  0.1977 -0.4748  0.1203
  577MOL0     C77822  10.425   9.432  10.918  0.6387 -0.3611 -0.1242
  577MOL0     C77823  10.388   9.479  11.050 -0.5204 -0.5465 -0.2217
  577MOL0     C77824  10.361   9.518  11.162  0.6053  0.2180  0.1506
  577MOL0     C77825  10.798   8.925  10.763  0.3658  0.9892  0.2531
  577MOL0     C77826  10.919   8.853  10.785  0.0352  1.6767  0.9850
  577MOL0     C77827  11.032   8.884  10.685 -0.0017 -1.2334 -0.0648
  577MOL0     H77828  11.343   8.592  10.700  3.9099 -1.4961 -0.8226
  577MOL0     H77829  11.449   8.378  10.683  1.6871  0.8016  1.3689
  577MOL0     H77830  11.326   8.061  10.968 -2.7099 -1.5526 -0.8256
  577MOL0     H77831  11.268   8.003  10.812 -1.3389  2.5911  0.1781
  577MOL0     H77832  11.457   7.853  10.905 -0.1652 -1.3659 -1.3718
  577MOL0     H77833  11.566   7.985  10.849 -0.4449  0.3364 -1.5444
  577MOL0     H77834  11.480   7.985  10.644  6.2553  0.1623  0.0243
  577MOL0     H77835  11.375   7.831  10.675  0.8977 -3.0658  2.6501
  577MOL0     H77836  11.671   7.838  10.676 -0.2699 -0.4058 -1.6799
  577MOL0     H77837  11.575   7.716  10.737  0.0841  2.1976  2.3563
  577MOL0     H77838  11.457   7.712  10.487 -0.3743 -2.3034  0.5246
  577MOL0     H77839  11.583   7.812  10.438  0.8612 -1.0733 -0.3934
  577MOL0     H77840  11.597   7.529  10.550 -0.5560 -0.9451 -1.4344
  577MOL0     H77841  11.655   7.606  10.395 -3.6140 -0.1993 -0.9528
  577MOL0     H77842  11.781   7.643  10.669 -0.5445  1.6584 -0.2143
  577MOL0     H77843  11.857   7.691  10.523  0.9292  0.0789  1.5629
  577MOL0     H77844  11.820   7.446  10.434 -2.2153 -0.2163  0.7631
  577MOL0     H77845  11.951   7.482  10.568  0.4188 -0.9764  0.1400
  577MOL0     H77846  11.780   7.451  10.819 -0.1020 -0.5633  1.5550
  577MOL0     H77847  11.582   7.303  10.946 -1.4717 -0.6988 -0.0929
  577MOL0     H77848  11.577   7.135  10.908  0.3679  0.1615  1.0035
  577MOL0     H77849  11.815   7.294  11.032  2.1094 -2.3941 -2.2279
  577MOL0     H77850  11.692   7.169  11.101 -1.4007 -0.6398 -0.0476
  577MOL0     H77851  11.884   7.113  10.864 -2.0264  0.9418 -0.3018
  577MOL0     H77852  11.764   7.012  10.945  1.6817 -1.9961 -0.8161
  577MOL0     H77853  11.886   7.056  11.168  4.7160 -0.6029  3.7675
  577MOL0     H77854  12.018   7.109  11.073 -1.7093  2.3819 -0.3241
  577MOL0     H77855  11.941   6.642  10.958  0.8616 -2.6413 -1.1497
  577MOL0     H77856  12.073   6.560  10.772 -0.2279 -0.1314 -0.2459
  577MOL0     H77857  12.577   6.788  10.553 -2.6523  0.3312  0.8869
  577MOL0     H77858  12.740   6.666  10.416  0.1157  1.6829 -0.1064
  577MOL0     H77859  12.604   6.357  10.123 -1.3915  0.6668 -0.4672
  577MOL0     H77860  12.583   6.492  10.010  4.9173  0.9288 -3.0197
  577MOL0     H77861  12.761   6.351   9.926 -1.5391 -2.6869  1.5254
  577MOL0     H77862  12.805   6.511   9.958 -1.7948  0.5907  1.6156
  577MOL0     H77863  12.910   6.433  10.182  0.1521 -1.3197  0.6829
  577MOL0     H77864  12.855   6.278  10.152  4.8637 -0.7517  3.3367
  577MOL0     H77865  13.060   6.438   9.998 -4.8896  2.4632  1.2366
  577MOL0     H77866  12.991   6.279   9.941 -0.8656 -0.5384  0.4461
  577MOL0     H77867  13.075   6.156  10.122  0.7083 -0.1333 -0.3185
  577MOL0     H77868  13.142   6.306  10.196 -2.5122  0.5399  0.5795
  577MOL0     H77869  13.210   6.157   9.941 -1.8552 -0.6457 -0.0085
  577MOL0     H77870  13.300   6.308   9.970 -3.0989 -0.5400 -2.9705
  577MOL0     H77871  13.373   6.060  10.027  0.1131  0.7275 -0.4370
  577MOL0     H77872  13.284   6.075  10.174 -2.3211 -0.3754 -1.1431
  577MOL0     H77873  13.543   6.122  10.155 -0.3756  0.8317  4.0831
  577MOL0     H77874  13.502   6.285  10.083 -1.7482  3.6777  4.0749
  577MOL0     H77875  12.424   6.496  10.186 -1.3455  2.2410 -2.6480
  577MOL0     H77876  12.265   6.582  10.372 -0.4855  1.2419  1.7494
  577MOL0     H77877  12.250   6.943  10.719 -0.8473 -0.7224 -0.2810
  577MOL0     H77878  12.131   7.033  10.904  0.4631  0.3320  1.2035
  577MOL0     H77879  11.174   8.203  10.962  0.1279 -0.3376  0.2264
  577MOL0     H77880  11.085   8.427  11.008 -0.9513 -1.2697 -1.7348
  577MOL0     H77881  10.814   8.708  11.074  2.7925 -1.8975 -0.4506
  577MOL0     H77882  10.631   8.851  11.043 -0.1470  0.5827  0.0133
  577MOL0     H77883  10.645   9.228  10.793  0.6595  2.5260  2.1387
  577MOL0     H77884  10.733   9.167  10.932  1.3971  0.3879 -2.6237
  577MOL0     H77885  10.560   9.287  11.050  0.5246  1.4543 -1.6328
  577MOL0     H77886  10.479   9.131  11.021 -1.8485  1.1030 -0.2696
  577MOL0     H77887  10.304   9.253  10.929 -0.4198 -1.7389 -3.5564
  577MOL0     H77888  10.395   9.266  10.797  1.7489 -1.0304  0.0830
  577MOL0     H77889  10.528   9.461  10.893  0.0729  2.8770  0.8262
  577MOL0     H77890  10.374   9.486  10.838 -0.2163  0.3846  0.8887
  577MOL0     H77891  10.343   9.541  11.265 -0.0052  1.0074 -0.1230
  577MOL0     H77892  10.800   8.988  10.675  0.2016 -0.1053 -0.5492
  577MOL0     H77893  11.105   8.934  10.751 -2.8317  2.6508  0.4783
  577MOL0     H77894  11.075   8.788  10.656  4.0799  0.4201 -0.1594
  577MOL0     H77895  11.021   8.943  10.594  0.2814 -2.4192 -0.8909
  578MOL0     O77896   5.515   5.633  10.985  0.7160  0.8678 -0.1193
  578MOL0     C77897   5.409   5.690  10.948  0.3860 -0.1147 -0.2174
  578MOL0     O77898   5.402   5.803  10.873 -0.1168  0.7092  0.3716
  578MOL0     C77899   5.510   5.873  10.853  0.9315  0.8204  0.3403
  578MOL0     C77900   5.518   6.001  10.904 -1.0298 -0.3695  0.0884
  578MOL0     C77901   5.639   6.067  10.884 -0.5854 -0.1103  0.2327
  578MOL0     C77902   5.736   6.011  10.802  0.5778 -0.9844 -0.3429
  578MOL0     O77903   5.857   6.070  10.770  0.4570 -0.2880  0.0472
  578MOL0     C77904   5.901   6.175  10.864  0.3398  0.7182  0.7266
  578MOL0     C77905   5.979   6.119  10.982  0.6512 -0.7721 -0.2125
  578MOL0     C77906   6.068   6.000  10.943  0.1833  0.6449 -0.6961
  578MOL0     C77907   6.145   5.969  11.083 -0.1912  0.9501 -0.6403
  578MOL0     C77908   6.217   5.840  11.085 -0.0611 -1.3048  1.4335
  578MOL0     C77909   6.309   5.817  11.211  0.6517 -0.2841 -0.2779
  578MOL0     C77910   6.390   5.684  11.203 -0.0047  0.6824 -0.3260
  578MOL0     C77911   6.291   5.576  11.258 -0.0494 -0.5404 -0.3245
  578MOL0     N77912   6.260   5.585  11.392  0.2073 -0.1485 -0.6727
  578MOL0     C77913   6.147   5.542  11.449 -0.3848  0.7588  0.2138
  578MOL0     C77914   6.169   5.544  11.586 -1.0745 -0.3646 -0.2259
  578MOL0     C77915   6.086   5.489  11.698  0.7137 -0.0011  0.3465
  578MOL0     C77916   6.009   5.361  11.653  0.6174  0.4509 -0.0068
  578MOL0     C77917   5.950   5.293  11.780 -0.6404 -0.5172  0.2243
  578MOL0     C77918   5.849   5.177  11.742  0.6488 -0.2822 -0.0623
  578MOL0     O77919   5.894   5.059  11.679  0.2806 -0.3233  0.1178
  578MOL0     C77920   5.797   4.984  11.625  1.4302  0.4050  0.0729
  578MOL0     C77921   5.685   4.926  11.694 -0.2355 -0.6140 -0.3656
  578MOL0     C77922   5.605   4.824  11.645 -0.0036  0.1157  0.8797
  578MOL0     C77923   5.601   4.803  11.507 -0.2526  0.2493  0.9277
  578MOL0     C77924   5.514   4.710  11.439  0.2922 -0.4620 -0.9583
  578MOL0     O77925   5.465   4.741  11.311 -0.5705  0.5370 -0.0895
  578MOL0     C77926   5.363   4.661  11.256 -0.9780  0.9021 -0.3218
  578MOL0     C77927   5.231   4.707  11.252  0.0814 -0.2497  1.0151
  578MOL0     C77928   5.127   4.623  11.197  0.0718  0.6242 -0.1499
  578MOL0     C77929   5.155   4.510  11.115 -0.2176 -0.5239 -0.8499
  578MOL0     O77930   5.047   4.434  11.069 -0.3212  0.1663 -0.2287
  578MOL0     C77931   5.075   4.299  11.019  0.1871 -0.4588 -0.0567
  578MOL0     C77932   5.077   4.314  10.866 -0.2278  0.0660 -0.1739
  578MOL0     C77933   5.098   4.201  10.787 -0.2838  0.1357  0.4372
  578MOL0     C77934   5.152   4.230  10.641  0.0786 -0.2217 -0.0706
  578MOL0     C77935   5.147   4.117  10.549 -0.0523 -0.2446  0.9286
  578MOL0     C77936   5.191   4.135  10.400  1.3029 -0.0740 -0.3859
  578MOL0     C77937   5.199   4.001  10.329  1.2985 -0.4491  0.0697
  578MOL0     C77938   5.264   4.011  10.192 -0.4444  0.0319  0.0936
  578MOL0    Cl77939   5.293   3.859  10.114  0.2480 -0.2718  0.1279
  578MOL0     C77940   5.296   4.476  11.110  1.0057  0.1506 -0.6303
  578MOL0     C77941   5.386   4.540  11.186 -0.5437 -0.9463  0.4496
  578MOL0     O77942   5.466   4.621  11.513  0.6997  0.3317 -0.1102
  578MOL0     C77943   5.706   4.872  11.429  0.0420  0.6078 -0.5284
  578MOL0     C77944   5.793   4.967  11.483 -0.5845  0.5789  0.8175
  578MOL0     N77945   6.294   5.598  11.604  0.5929  0.4056  0.1977
  578MOL0     N77946   6.346   5.617  11.493  0.0121 -0.1980 -0.1734
  578MOL0     C77947   5.722   5.889  10.743  1.5064 -0.3694  0.7007
  578MOL0     C77948   5.604   5.817  10.761  0.1507  0.3265 -0.0350
  578MOL0     C77949   5.280   5.609  10.968  0.1861 -0.1028 -0.1253
  578MOL0     C77950   5.156   5.667  10.927  0.1056  0.1253  0.0975
  578MOL0     C77951   5.027   5.608  10.959  0.7526  0.2548  0.8823
  578MOL0     C77952   5.028   5.483  11.021  0.4892 -0.2246 -0.3722
  578MOL0     O77953   4.905   5.426  11.042  0.0390  0.0645 -0.0139
  578MOL0     C77954   4.838   5.378  10.922  1.0826  0.3360 -0.1077
  578MOL0     C77955   4.835   5.222  10.920  0.2947  0.0245 -0.3376
  578MOL0     C77956   4.767   5.166  10.801  1.0093  0.0033 -0.1260
  578MOL0     C77957   4.610   5.171  10.807 -0.1664  0.2037 -0.4485
  578MOL0     C77958   4.551   5.092  10.696  0.0165 -0.3918  0.3732
  578MOL0     C77959   4.489   5.025  10.616 -0.1955  0.3683  0.6384
  578MOL0     C77960   5.146   5.422  11.064 -0.4807 -0.1198  0.2971
  578MOL0     C77961   5.274   5.474  11.029  0.4693 -0.4669 -0.2849
  578MOL0     C77962   5.391   5.387  11.063  0.5993  0.3007  0.0750
  578MOL0     H77963   5.437   6.051  10.957 -1.9444  0.2724 -1.8289
  578MOL0     H77964   5.649   6.168  10.923  3.1735 -0.7122  1.2209
  578MOL0     H77965   5.968   6.237  10.804  1.2750 -2.1766 -1.4844
  578MOL0     H77966   5.815   6.239  10.884  0.0823  0.8177 -0.5751
  578MOL0     H77967   5.901   6.105  11.057  0.0446  2.3734 -0.1230
  578MOL0     H77968   6.045   6.200  11.013 -0.2642 -0.3246  0.5959
  578MOL0     H77969   6.138   6.040  10.870  0.0899  2.6367  0.2461
  578MOL0     H77970   6.020   5.911  10.902  2.7942 -1.1573 -0.1177
  578MOL0     H77971   6.222   6.045  11.098  2.0130 -1.0860 -0.9886
  578MOL0     H77972   6.076   5.968  11.168 -1.5441 -1.1153 -1.6701
  578MOL0     H77973   6.153   5.751  11.077 -0.9891 -0.5572  0.2754
  578MOL0     H77974   6.284   5.833  10.999  2.1005  0.2244  2.9079
  578MOL0     H77975   6.374   5.904  11.222 -1.2159  0.9670  1.7566
  578MOL0     H77976   6.258   5.835  11.306  0.3250 -0.0100 -0.4987
  578MOL0     H77977   6.484   5.689  11.260  0.0169 -0.3485 -0.2675
  578MOL0     H77978   6.406   5.645  11.103  0.0292  2.5075 -1.0714
  578MOL0     H77979   6.194   5.558  11.211 -0.6485  0.8965  0.3094
  578MOL0     H77980   6.337   5.478  11.240 -1.8898 -1.7952  1.3793
  578MOL0     H77981   6.056   5.514  11.396  2.0087 -0.2528 -3.7570
  578MOL0     H77982   6.161   5.472  11.776  0.1099 -0.7988  0.7612
  578MOL0     H77983   6.016   5.565  11.733  0.9067  1.1113 -1.5559
  578MOL0     H77984   5.929   5.394  11.585 -1.8638 -0.7540  2.1798
  578MOL0     H77985   6.071   5.294  11.593 -0.6144 -0.0768 -0.7424
  578MOL0     H77986   5.892   5.355  11.848 -1.3728 -2.2381  1.2458
  578MOL0     H77987   6.029   5.241  11.835 -3.6607 -2.9553  2.6078
  578MOL0     H77988   5.764   5.214  11.685 -2.5851 -4.0334  1.8792
  578MOL0     H77989   5.797   5.158  11.836  1.4515  2.1054  0.9588
  578MOL0     H77990   5.685   4.946  11.801  2.5830 -1.0332 -0.1987
  578MOL0     H77991   5.531   4.772  11.706  0.7672  0.9402  2.5868
  578MOL0     H77992   5.206   4.799  11.303 -1.4556  1.2194 -2.1431
  578MOL0     H77993   5.024   4.650  11.216 -0.4066  0.0278 -1.6830
  578MOL0     H77994   5.169   4.262  11.063 -0.4342 -0.6046  1.1861
  578MOL0     H77995   4.997   4.231  11.055  0.1076 -0.3476 -0.0202
  578MOL0     H77996   4.991   4.375  10.834 -0.7442  1.0991  2.8612
  578MOL0     H77997   5.159   4.381  10.838  1.3217 -1.9550 -0.6277
  578MOL0     H77998   5.154   4.124  10.841  1.1961 -0.1822 -1.4296
  578MOL0     H77999   4.996   4.163  10.771 -0.5294  0.8906  0.1738
  578MOL0     H78000   5.257   4.260  10.637  0.1605 -0.3921  0.6579
  578MOL0     H78001   5.095   4.307  10.588  1.9093 -1.2875 -4.0063
  578MOL0     H78002   5.039   4.101  10.543 -0.1493 -0.3117  2.4299
  578MOL0     H78003   5.194   4.026  10.586 -0.0826 -0.5532  0.2319
  578MOL0     H78004   5.120   4.202  10.351 -1.8299 -1.8705  1.4144
  578MOL0     H78005   5.295   4.170  10.400  2.0637 -1.9761  2.1520
  578MOL0     H78006   5.097   3.960  10.330  0.8970  0.4983  1.1667
  578MOL0     H78007   5.253   3.926  10.388  0.5608  1.4123  3.4099
  578MOL0     H78008   5.210   4.089  10.137 -2.5764  0.1545  2.1872
  578MOL0     H78009   5.363   4.056  10.203  0.1391 -0.5411 -2.2862
  578MOL0     H78010   5.339   4.389  11.062  0.2555 -1.3860  1.3226
  578MOL0     H78011   5.483   4.493  11.183  0.9316  1.8833 -1.1237
  578MOL0     H78012   5.699   4.859  11.322  0.5172 -1.7190 -0.3288
  578MOL0     H78013   5.858   5.025  11.419  2.4975 -0.6061  2.6421
  578MOL0     H78014   5.787   5.858  10.663  0.2698  0.5129 -0.6973
  578MOL0     H78015   5.592   5.722  10.711  0.3114  0.1128  0.3269
  578MOL0     H78016   5.157   5.762  10.875  0.7616 -0.6357 -1.3328
  578MOL0     H78017   4.941   5.674  10.963 -0.6568 -1.5680  1.8121
  578MOL0     H78018   4.884   5.415  10.830 -2.0075 -1.2582 -2.4957
  578MOL0     H78019   4.732   5.402  10.910  0.2767 -3.0394 -0.9345
  578MOL0     H78020   4.795   5.189  11.017  1.8574  2.0067  1.0758
  578MOL0     H78021   4.939   5.190  10.921  0.6182  1.0207  0.1787
  578MOL0     H78022   4.795   5.062  10.780  1.5824  0.3174 -0.9375
  578MOL0     H78023   4.795   5.236  10.723 -3.8610  3.5173  0.7875
  578MOL0     H78024   4.583   5.119  10.900  2.7019 -0.2520  0.2135
  578MOL0     H78025   4.574   5.274  10.817  1.9670  0.7838  2.4454
  578MOL0     H78026   4.435   4.977  10.537 -0.6863 -0.8050  1.6637
  578MOL0     H78027   5.125   5.324  11.107 -3.3121  1.0317  1.8695
  578MOL0     H78028   5.447   5.391  10.969  3.1196  0.2485  1.4703
  578MOL0     H78029   5.449   5.425  11.148 -0.2458 -0.9068  1.2268
  578MOL0     H78030   5.384   5.278  11.061  0.0664  0.3458 -1.0915
  579MOL0     O78031   0.066   1.358   6.179  0.1757 -0.5490 -0.0945
  579MOL0     C78032   0.167   1.405   6.234 -0.2318 -0.1829 -1.1009
  579MOL0     O78033   0.229   1.518   6.185 -0.3685 -0.3637  0.8347
  579MOL0     C78034   0.161   1.589   6.089 -0.6970 -0.2141  0.9501
  579MOL0     C78035   0.030   1.603   6.059  0.3630  0.1182 -0.4273
  579MOL0     C78036  -0.010   1.685   5.949 -0.5994  0.6277 -0.0224
  579MOL0     C78037   0.080   1.764   5.875  0.0935 -0.3453 -1.1842
  579MOL0     O78038   0.028   1.832   5.774 -0.1905  0.3840 -0.3119
  579MOL0     C78039   0.106   1.900   5.682 -1.3508 -1.1623  0.4407
  579MOL0     C78040   0.167   1.806   5.572 -1.1184 -0.6148 -0.3807
  579MOL0     C78041   0.255   1.901   5.481 -0.8697 -0.7155 -0.5997
  579MOL0     C78042   0.290   1.828   5.346  0.6167  0.8009  0.1666
  579MOL0     C78043   0.169   1.829   5.249 -0.6868 -0.9865  0.2059
  579MOL0     C78044   0.206   1.789   5.103 -0.0204  0.2694  0.4627
  579MOL0     C78045   0.082   1.737   5.028  0.5919 -0.3123  0.1463
  579MOL0     C78046  -0.015   1.857   5.005 -0.1240  0.3562 -0.7375
  579MOL0     N78047  -0.005   1.913   4.867  0.2828 -1.1618 -0.7295
  579MOL0     C78048  -0.112   1.957   4.799  0.6640  0.0769  0.4139
  579MOL0     C78049  -0.065   2.016   4.689 -0.4824  0.1964 -0.4041
  579MOL0     C78050  -0.158   2.081   4.581 -0.4179  0.5291 -1.7126
  579MOL0     C78051  -0.230   1.990   4.487  0.1784  0.2390 -0.0460
  579MOL0     C78052  -0.139   1.898   4.398  0.6266 -0.5352  0.4561
  579MOL0     C78053  -0.217   1.818   4.295  0.0573  0.0904 -0.6879
  579MOL0     O78054  -0.276   1.698   4.347 -0.2058  0.5596  0.4651
  579MOL0     C78055  -0.413   1.656   4.340  0.1089 -0.2344  0.0267
  579MOL0     C78056  -0.504   1.735   4.259  0.1830 -0.2370  0.1421
  579MOL0     C78057  -0.635   1.681   4.246  1.2242 -0.2760 -0.2000
  579MOL0     C78058  -0.661   1.560   4.308  1.0189 -0.0843  0.9393
  579MOL0     C78059  -0.798   1.505   4.303 -0.0978 -0.6539 -0.1619
  579MOL0     O78060  -0.829   1.404   4.389  0.0527  0.1753  0.1999
  579MOL0     C78061  -0.947   1.336   4.381  0.6725 -0.0402 -0.2513
  579MOL0     C78062  -0.999   1.268   4.268 -0.3261 -0.8176 -0.7979
  579MOL0     C78063  -1.123   1.206   4.280 -0.3538 -0.1300  0.5650
  579MOL0     C78064  -1.202   1.215   4.398  0.0196  0.3208  0.4179
  579MOL0     O78065  -1.333   1.165   4.415 -0.7066  0.3551  0.3344
  579MOL0     C78066  -1.391   1.072   4.316 -0.9862  0.1141 -0.1993
  579MOL0     C78067  -1.516   1.015   4.362 -0.2771 -0.2456  0.5549
  579MOL0     C78068  -1.517   0.938   4.490  0.4838  0.0827 -0.3535
  579MOL0     C78069  -1.653   0.915   4.548  0.4033 -0.3358  0.4292
  579MOL0     C78070  -1.691   0.762   4.514 -0.0908 -0.3251 -0.4297
  579MOL0     C78071  -1.729   0.735   4.365 -1.2107 -0.4765  0.8490
  579MOL0     C78072  -1.774   0.588   4.338  0.2320  0.4981  1.0407
  579MOL0     C78073  -1.829   0.576   4.202 -0.1909  0.3317 -0.4077
  579MOL0    Cl78074  -1.847   0.399   4.149  0.2214 -0.2697 -0.1573
  579MOL0     C78075  -1.140   1.283   4.504  0.1807  0.1131  0.2155
  579MOL0     C78076  -1.014   1.336   4.498  0.0122 -0.2043 -0.0063
  579MOL0     O78077  -0.873   1.546   4.222  1.2840  0.4957  0.4392
  579MOL0     C78078  -0.565   1.482   4.379  0.5145  0.5490 -0.2802
  579MOL0     C78079  -0.446   1.545   4.410  0.1781  0.5738  0.2494
  579MOL0     N78080   0.070   2.016   4.696  0.0971  0.9646 -0.6019
  579MOL0     N78081   0.106   1.951   4.800  0.1309  0.4104 -0.1082
  579MOL0     C78082   0.213   1.756   5.922  0.0896 -0.7038 -0.3558
  579MOL0     C78083   0.251   1.671   6.026  0.1229  0.9960  1.8141
  579MOL0     C78084   0.223   1.344   6.356  0.2836  0.8189  0.1461
  579MOL0     C78085   0.314   1.419   6.428  0.2674  0.2087 -0.0135
  579MOL0     C78086   0.382   1.367   6.533  0.2575  0.5141  0.4959
  579MOL0     C78087   0.357   1.237   6.580  1.0383  0.0626 -0.1730
  579MOL0     O78088   0.430   1.185   6.686 -0.1496  0.1948 -0.0561
  579MOL0     C78089   0.382   1.068   6.753 -0.4237  0.1025 -0.2850
  579MOL0     C78090   0.459   1.048   6.874 -0.3325  0.5995 -0.2388
  579MOL0     C78091   0.364   1.021   6.991  0.3657  0.4005 -0.6351
  579MOL0     C78092   0.355   0.872   7.039  0.3159 -1.1195  0.4160
  579MOL0     C78093   0.494   0.830   7.065  0.5416 -0.1542 -0.0411
  579MOL0     C78094   0.603   0.801   7.104  0.6502  0.3132  0.5540
  579MOL0     C78095   0.249   1.165   6.515  0.4678  0.1361 -0.5235
  579MOL0     C78096   0.186   1.213   6.396 -0.1355 -0.1910  0.0402
  579MOL0     C78097   0.085   1.125   6.328  0.0494  0.6492  0.2499
  579MOL0     H78098  -0.042   1.560   6.128  0.1681 -1.1185 -1.3751
  579MOL0     H78099  -0.115   1.698   5.925 -0.2850  0.2446 -1.6944
  579MOL0     H78100   0.037   1.961   5.623  2.1211 -1.5830 -4.8154
  579MOL0     H78101   0.175   1.971   5.728 -2.6470 -0.8081  1.9158
  579MOL0     H78102   0.089   1.751   5.518  0.0202 -2.4231 -0.2608
  579MOL0     H78103   0.231   1.730   5.618  0.0255  2.5646  3.9903
  579MOL0     H78104   0.350   1.923   5.531 -0.5778  0.3359 -1.5543
  579MOL0     H78105   0.201   1.995   5.466 -0.7963 -0.8370 -1.7300
  579MOL0     H78106   0.375   1.879   5.300 -1.4183  2.0392 -2.4633
  579MOL0     H78107   0.313   1.723   5.367 -0.5696  0.5352  0.2025
  579MOL0     H78108   0.091   1.770   5.298 -0.6126 -0.1646  1.3396
  579MOL0     H78109   0.133   1.932   5.241  1.3791 -0.0203  2.2057
  579MOL0     H78110   0.252   1.876   5.055  0.1420  0.4017  0.8567
  579MOL0     H78111   0.279   1.708   5.100  1.2093  1.3778 -0.7092
  579MOL0     H78112   0.030   1.656   5.081  0.2059 -0.4085 -0.3666
  579MOL0     H78113   0.121   1.692   4.936 -0.2573  2.7552 -1.8569
  579MOL0     H78114  -0.118   1.824   5.017 -2.0588  5.2031 -1.6062
  579MOL0     H78115  -0.008   1.931   5.084 -2.0034 -2.6703  2.5477
  579MOL0     H78116  -0.215   1.948   4.833 -0.0757 -2.9093 -2.1907
  579MOL0     H78117  -0.223   2.140   4.646 -0.5331 -1.9533  0.5555
  579MOL0     H78118  -0.115   2.161   4.519 -2.7662  4.1169  0.8640
  579MOL0     H78119  -0.294   1.936   4.558  0.7705  1.7522  1.7293
  579MOL0     H78120  -0.290   2.062   4.430 -1.8018 -0.5074  0.9806
  579MOL0     H78121  -0.080   1.826   4.455  1.2594  0.0546  0.5495
  579MOL0     H78122  -0.077   1.971   4.345  0.6706  2.7729  4.5447
  579MOL0     H78123  -0.147   1.788   4.217  0.1766 -0.5218 -0.3497
  579MOL0     H78124  -0.291   1.884   4.247  1.8153  1.1744 -2.0226
  579MOL0     H78125  -0.495   1.826   4.200  0.3397 -1.3623 -1.6498
  579MOL0     H78126  -0.719   1.736   4.205  0.8960 -0.1206  0.6587
  579MOL0     H78127  -0.926   1.246   4.191  0.9756  1.8635 -0.4518
  579MOL0     H78128  -1.163   1.151   4.196  0.5368 -1.0639  0.7272
  579MOL0     H78129  -1.407   1.123   4.220  1.6213 -0.9854 -1.3076
  579MOL0     H78130  -1.313   0.996   4.311 -0.5164  0.5955 -0.2928
  579MOL0     H78131  -1.595   1.089   4.377 -2.2776 -2.7229  3.2073
  579MOL0     H78132  -1.547   0.948   4.281  0.7005 -1.5630  1.2182
  579MOL0     H78133  -1.452   0.850   4.492  1.5543  0.7999 -1.4193
  579MOL0     H78134  -1.468   1.005   4.561 -1.9749  1.6139  0.0015
  579MOL0     H78135  -1.725   0.989   4.513  1.5947  0.3329 -0.6729
  579MOL0     H78136  -1.642   0.927   4.656 -0.9797 -0.9438  0.6652
  579MOL0     H78137  -1.765   0.734   4.590  1.6779  0.5579  1.7639
  579MOL0     H78138  -1.604   0.702   4.543 -0.5296  0.2433  2.4128
  579MOL0     H78139  -1.801   0.815   4.346 -1.4706  0.1368  3.9187
  579MOL0     H78140  -1.635   0.749   4.310 -0.8714  1.3415  1.8107
  579MOL0     H78141  -1.854   0.559   4.407  0.1407  0.7778  1.0540
  579MOL0     H78142  -1.692   0.516   4.343 -1.7258 -1.9209 -0.1124
  579MOL0     H78143  -1.926   0.626   4.206 -0.5285 -0.2965 -0.5261
  579MOL0     H78144  -1.763   0.627   4.131  0.1487  1.6209  0.7716
  579MOL0     H78145  -1.196   1.280   4.597 -0.5001 -2.1554 -0.2103
  579MOL0     H78146  -0.974   1.375   4.590  0.3439 -2.2913  0.7891
  579MOL0     H78147  -0.591   1.383   4.415  2.7717  0.2272  0.5734
  579MOL0     H78148  -0.387   1.502   4.490  0.8664 -1.2328 -1.1489
  579MOL0     H78149   0.286   1.818   5.869 -1.8444  1.7435 -0.3447
  579MOL0     H78150   0.353   1.674   6.064  1.2657 -1.9811 -0.5930
  579MOL0     H78151   0.349   1.516   6.393 -0.8906  0.9959  0.9368
  579MOL0     H78152   0.476   1.412   6.565  0.7595 -0.4020  0.3585
  579MOL0     H78153   0.395   0.979   6.691  2.1294 -1.0664  1.7420
  579MOL0     H78154   0.274   1.079   6.760 -0.7338 -1.3673 -2.1232
  579MOL0     H78155   0.497   1.147   6.901  1.4695 -0.1687  0.1891
  579MOL0     H78156   0.536   0.971   6.862  1.3487  1.9313  1.5193
  579MOL0     H78157   0.268   1.067   6.969  0.7365  0.1408 -3.1170
  579MOL0     H78158   0.401   1.077   7.078 -2.7855 -1.3125  2.0081
  579MOL0     H78159   0.287   0.859   7.123  0.5283  0.0753  0.7915
  579MOL0     H78160   0.313   0.804   6.964 -2.3743  0.1902  0.6041
  579MOL0     H78161   0.698   0.776   7.147  1.4529  0.8626 -0.8274
  579MOL0     H78162   0.203   1.072   6.548  0.8375 -0.4747 -1.6415
  579MOL0     H78163   0.093   1.024   6.370  1.5818  0.9017  0.6191
  579MOL0     H78164  -0.015   1.169   6.338 -0.0158  1.5132 -2.9556
  579MOL0     H78165   0.099   1.109   6.220 -2.3246 -1.2062  0.1170
  580MOL0     O78166   6.572   4.281   8.639 -0.4727 -0.1876  0.0626
  580MOL0     C78167   6.517   4.358   8.723 -0.1871  0.7132 -0.0774
  580MOL0     O78168   6.402   4.423   8.698  0.0074 -0.8823 -0.8975
  580MOL0     C78169   6.352   4.423   8.573  0.1438  0.5587  0.8382
  580MOL0     C78170   6.239   4.342   8.545  0.1557 -0.6945  0.5336
  580MOL0     C78171   6.179   4.347   8.418  0.7069  0.1943  0.0038
  580MOL0     C78172   6.230   4.431   8.321 -0.6887  0.9939  0.0412
  580MOL0     O78173   6.172   4.428   8.194 -0.1173  0.7222 -0.7307
  580MOL0     C78174   6.209   4.510   8.080  0.5693 -0.5838 -0.8297
  580MOL0     C78175   6.108   4.510   7.974 -0.3829  0.4404 -0.3189
  580MOL0     C78176   6.144   4.611   7.861  0.2275  0.8119  0.8235
  580MOL0     C78177   6.049   4.576   7.746  0.1639  0.5528 -0.2393
  580MOL0     C78178   6.009   4.697   7.654  0.0446 -0.4939 -0.9662
  580MOL0     C78179   5.921   4.806   7.736  0.1104 -0.3178  0.4963
  580MOL0     C78180   5.770   4.783   7.733  0.7880 -0.3501  1.7840
  580MOL0     C78181   5.711   4.837   7.598 -1.0763 -0.4395  0.5912
  580MOL0     N78182   5.574   4.792   7.582  1.0574 -0.2711 -0.1182
  580MOL0     C78183   5.476   4.788   7.676 -0.1360 -0.2194  0.3830
  580MOL0     C78184   5.378   4.712   7.620 -0.0238  0.5006  0.0547
  580MOL0     C78185   5.253   4.708   7.693 -0.5880 -1.7756  0.7241
  580MOL0     C78186   5.183   4.572   7.669 -0.4635  0.2267  0.0076
  580MOL0     C78187   5.152   4.526   7.529  1.0351  0.2459  0.4380
  580MOL0     C78188   5.035   4.429   7.538 -0.1413  0.4793 -0.4006
  580MOL0     O78189   5.009   4.365   7.411 -0.7218  0.2138  0.1291
  580MOL0     C78190   4.906   4.423   7.334  0.2804 -1.0993 -1.2891
  580MOL0     C78191   4.804   4.334   7.287  1.1328  0.6023  0.8725
  580MOL0     C78192   4.693   4.384   7.219  0.5712 -0.3894 -0.3508
  580MOL0     C78193   4.677   4.520   7.191 -0.5294  0.1284 -0.6118
  580MOL0     C78194   4.548   4.574   7.135  0.3237 -0.5584  1.3485
  580MOL0     O78195   4.441   4.492   7.130 -0.9465 -0.0582 -0.2244
  580MOL0     C78196   4.323   4.539   7.072 -1.2384  0.2142 -0.5465
  580MOL0     C78197   4.314   4.560   6.934  0.6964  0.4111 -0.3022
  580MOL0     C78198   4.187   4.580   6.878 -0.6915  0.2376 -0.2931
  580MOL0     C78199   4.077   4.598   6.952 -0.0186  0.0513 -0.5255
  580MOL0     O78200   3.957   4.633   6.893  0.1398  0.0503 -0.7884
  580MOL0     C78201   3.949   4.689   6.761  0.0903 -1.0416 -0.5687
  580MOL0     C78202   4.033   4.810   6.731 -0.7792  0.3870  0.1760
  580MOL0     C78203   3.963   4.937   6.787 -0.5436  0.2914 -0.5237
  580MOL0     C78204   3.946   4.941   6.944 -0.7474  0.4639 -0.0614
  580MOL0     C78205   3.885   5.072   6.977 -0.2431  0.6665 -0.2048
  580MOL0     C78206   3.862   5.083   7.131 -0.0838  0.3254  0.1602
  580MOL0     C78207   3.735   5.013   7.190  0.5141  0.4740 -1.3322
  580MOL0     C78208   3.770   4.939   7.330 -0.1058  0.1795 -0.2155
  580MOL0    Cl78209   3.930   4.866   7.334  0.0282  0.4631 -0.4343
  580MOL0     C78210   4.087   4.585   7.093 -0.0665  0.0929  0.7814
  580MOL0     C78211   4.212   4.548   7.153  0.0728  0.3190  0.7476
  580MOL0     O78212   4.553   4.694   7.107 -0.4421 -0.8713 -0.2605
  580MOL0     C78213   4.778   4.610   7.234 -0.6777 -0.9948 -0.1972
  580MOL0     C78214   4.893   4.564   7.304 -0.3332  1.2931 -0.6551
  580MOL0     N78215   5.417   4.682   7.485  0.4982  0.3252 -0.3173
  580MOL0     N78216   5.530   4.751   7.460 -0.4690 -0.2300  0.6630
  580MOL0     C78217   6.342   4.509   8.347 -0.8296  0.1557 -0.4313
  580MOL0     C78218   6.404   4.505   8.475 -1.5308  0.0367  0.4595
  580MOL0     C78219   6.598   4.386   8.848  0.4773  0.8819  0.1104
  580MOL0     C78220   6.522   4.427   8.961  0.7976 -0.1024  0.2787
  580MOL0     C78221   6.581   4.466   9.084 -0.2443 -1.0077  0.7087
  580MOL0     C78222   6.724   4.467   9.093 -0.5390  0.5168 -0.6425
  580MOL0     O78223   6.768   4.515   9.211  0.6340 -0.9746 -0.3698
  580MOL0     C78224   6.906   4.532   9.242  0.3342  0.4040  0.6053
  580MOL0     C78225   6.928   4.591   9.382  0.5413  0.4315  0.1361
  580MOL0     C78226   6.867   4.496   9.493 -1.4533  0.1996  0.2627
  580MOL0     C78227   6.787   4.564   9.594  0.2046 -0.5548  0.5242
  580MOL0     C78228   6.859   4.598   9.724  0.0416 -0.1373  0.5441
  580MOL0     C78229   6.935   4.612   9.825  0.0357 -0.4457 -0.7364
  580MOL0     C78230   6.806   4.424   8.989  0.1973 -0.1926  0.2090
  580MOL0     C78231   6.740   4.387   8.865 -0.1160  0.4175  0.3674
  580MOL0     C78232   6.826   4.344   8.742 -0.1538 -0.0615 -0.5335
  580MOL0     H78233   6.196   4.276   8.620  1.9639 -0.2945  2.0139
  580MOL0     H78234   6.094   4.294   8.377  0.4594  0.3966  0.2557
  580MOL0     H78235   6.225   4.612   8.116 -0.6652 -0.2092 -1.3100
  580MOL0     H78236   6.309   4.468   8.067  1.6154  0.0101  3.6164
  580MOL0     H78237   6.011   4.536   8.017 -1.2727 -2.1470 -0.6093
  580MOL0     H78238   6.099   4.405   7.945  3.2196 -0.5881  1.6480
  580MOL0     H78239   6.241   4.586   7.817 -0.9790 -2.6641 -0.2107
  580MOL0     H78240   6.143   4.717   7.891 -1.7956  1.0304  0.1670
  580MOL0     H78241   6.093   4.503   7.678  1.6750 -2.3057  3.4591
  580MOL0     H78242   5.952   4.539   7.781 -0.4876  1.2919 -1.2037
  580MOL0     H78243   6.104   4.747   7.635 -1.0407  3.6611  2.8812
  580MOL0     H78244   5.977   4.655   7.558  1.3184 -1.4216 -1.0150
  580MOL0     H78245   5.941   4.807   7.843 -2.1482  0.0050  0.9663
  580MOL0     H78246   5.945   4.906   7.698 -1.8501 -0.9930 -2.9682
  580MOL0     H78247   5.735   4.838   7.820  2.1675  1.5828  1.1872
  580MOL0     H78248   5.741   4.678   7.733 -1.3909  0.1801 -0.0067
  580MOL0     H78249   5.711   4.946   7.612  2.7302 -0.0607 -1.0160
  580MOL0     H78250   5.763   4.804   7.507  0.2227  0.0037  1.1505
  580MOL0     H78251   5.463   4.838   7.772 -0.7048  5.2298 -2.1899
  580MOL0     H78252   5.260   4.746   7.796 -1.2425  0.0161  0.1493
  580MOL0     H78253   5.196   4.784   7.637  1.3119 -1.4290 -0.8271
  580MOL0     H78254   5.238   4.493   7.721  3.1856  1.5310 -1.5789
  580MOL0     H78255   5.089   4.585   7.724  0.7981  1.2616  2.0279
  580MOL0     H78256   5.243   4.487   7.482  0.7572  1.5140 -1.2223
  580MOL0     H78257   5.125   4.612   7.468  1.8470  0.4845  0.4036
  580MOL0     H78258   4.947   4.480   7.577  0.7131  1.9907 -0.3886
  580MOL0     H78259   5.068   4.356   7.613  0.0634  2.5205  1.5835
  580MOL0     H78260   4.807   4.232   7.324 -0.2838  0.1252 -0.2572
  580MOL0     H78261   4.623   4.312   7.178  1.0908 -0.5634 -0.9576
  580MOL0     H78262   4.396   4.562   6.864  2.4410 -0.4821  1.6060
  580MOL0     H78263   4.196   4.605   6.773  1.4392  1.9537  0.1923
  580MOL0     H78264   3.961   4.615   6.682  2.2651  2.5782 -4.0227
  580MOL0     H78265   3.846   4.727   6.759  1.4204  3.1265 -2.1661
  580MOL0     H78266   4.130   4.809   6.783 -1.6307 -0.4264  1.8383
  580MOL0     H78267   4.058   4.820   6.625  3.1442  0.7821  0.9591
  580MOL0     H78268   4.022   5.027   6.765 -0.4209 -0.3151 -3.0648
  580MOL0     H78269   3.863   4.959   6.747 -0.6026  0.7784 -0.1153
  580MOL0     H78270   4.048   4.931   6.981 -0.6821  0.1667 -0.3127
  580MOL0     H78271   3.878   4.860   6.972  0.1846 -0.1640  0.4484
  580MOL0     H78272   3.793   5.096   6.923  0.4029 -1.8407 -2.6139
  580MOL0     H78273   3.959   5.151   6.959 -0.0964  0.0008 -2.9529
  580MOL0     H78274   3.955   5.035   7.163 -0.1636 -1.9181 -2.6315
  580MOL0     H78275   3.857   5.187   7.165 -0.5103  0.2738  0.2629
  580MOL0     H78276   3.691   4.930   7.135  0.2859 -2.1371  2.4293
  580MOL0     H78277   3.660   5.087   7.220 -0.5872 -1.8301  2.1152
  580MOL0     H78278   3.763   5.012   7.411  2.1194 -0.4335  0.6239
  580MOL0     H78279   3.684   4.877   7.358 -2.0371  1.2612 -3.3220
  580MOL0     H78280   3.994   4.610   7.143 -2.1081  3.1005 -3.7533
  580MOL0     H78281   4.215   4.512   7.255  0.5573 -0.7196  0.3821
  580MOL0     H78282   4.767   4.716   7.216  1.3057 -0.5629  0.8419
  580MOL0     H78283   4.962   4.636   7.347 -0.1547  1.1734 -0.7395
  580MOL0     H78284   6.377   4.580   8.273  2.8275  0.0064  0.9112
  580MOL0     H78285   6.479   4.580   8.501 -3.1448  1.3891  1.4030
  580MOL0     H78286   6.417   4.454   8.960  0.9191  0.3847 -0.3514
  580MOL0     H78287   6.512   4.500   9.160  0.3240  0.2909  0.6612
  580MOL0     H78288   6.941   4.601   9.165  1.3067 -1.3706 -0.6096
  580MOL0     H78289   6.955   4.436   9.228 -2.0584 -0.5543 -2.2849
  580MOL0     H78290   6.885   4.691   9.388 -0.4775 -0.0760  2.5491
  580MOL0     H78291   7.033   4.609   9.403  0.4262  1.6072 -0.2484
  580MOL0     H78292   6.946   4.439   9.543 -1.1023  0.3402 -0.1287
  580MOL0     H78293   6.794   4.425   9.453  1.2904 -1.1390 -2.9458
  580MOL0     H78294   6.752   4.660   9.555  0.7771 -0.7373 -0.4841
  580MOL0     H78295   6.699   4.506   9.624 -1.0379  0.9636 -0.0167
  580MOL0     H78296   6.999   4.611   9.911 -1.3107 -0.7789  0.2930
  580MOL0     H78297   6.910   4.406   9.015  0.2249 -0.1881  0.0981
  580MOL0     H78298   6.786   4.409   8.664  0.7756  1.9340  0.5737
  580MOL0     H78299   6.934   4.356   8.759 -0.6525  0.1052  3.2117
  580MOL0     H78300   6.805   4.239   8.722  0.0385 -0.5158  1.4855
  581MOL0     O78301   9.060  11.323  10.254  0.7417  0.6764 -0.1255
  581MOL0     C78302   9.087  11.204  10.238  0.7897  0.0640 -0.0558
  581MOL0     O78303   9.034  11.122  10.142  0.0446  0.3104 -0.2057
  581MOL0     C78304   8.928  11.168  10.068  0.4069 -0.0774 -0.0629
  581MOL0     C78305   8.955  11.249   9.953  0.6963  0.0539 -0.1035
  581MOL0     C78306   8.845  11.314   9.877 -0.4898 -0.6973  0.0050
  581MOL0     C78307   8.714  11.286   9.912 -0.7160 -0.1235  0.2279
  581MOL0     O78308   8.609  11.341   9.841 -0.0792  0.5451 -0.9466
  581MOL0     C78309   8.633  11.367   9.702 -0.1421  0.0531 -0.1458
  581MOL0     C78310   8.496  11.374   9.628  0.6822  0.6174  0.5861
  581MOL0     C78311   8.390  11.275   9.679  0.6173  0.3560 -0.3320
  581MOL0     C78312   8.299  11.356   9.783 -0.5547  0.8605  0.7810
  581MOL0     C78313   8.177  11.277   9.835  0.2876  0.1499 -0.7917
  581MOL0     C78314   8.193  11.228   9.983 -1.2053  0.1206  0.9153
  581MOL0     C78315   8.329  11.161  10.017  0.0892 -0.6730 -0.2855
  581MOL0     C78316   8.331  11.060  10.131 -0.0771  0.3842 -0.3628
  581MOL0     N78317   8.323  11.118  10.259  0.6059 -0.0846  0.1474
  581MOL0     C78318   8.428  11.149  10.341 -0.7952  0.5110 -0.9271
  581MOL0     C78319   8.378  11.186  10.464  0.3704 -0.1867 -0.3644
  581MOL0     C78320   8.472  11.222  10.573  0.6155  0.0592 -0.4584
  581MOL0     C78321   8.412  11.189  10.721 -0.5386 -0.8500  1.0224
  581MOL0     C78322   8.366  11.049  10.735 -0.2748  0.4647 -0.3153
  581MOL0     C78323   8.341  11.004  10.881  0.7619 -0.0095  0.1876
  581MOL0     O78324   8.360  10.869  10.905 -0.3557  0.4757 -0.1469
  581MOL0     C78325   8.484  10.812  10.940  0.2676 -0.5593  1.2292
  581MOL0     C78326   8.601  10.886  10.953 -0.2838  0.2899 -0.3600
  581MOL0     C78327   8.725  10.831  10.979 -0.2659 -0.1423 -0.2640
  581MOL0     C78328   8.742  10.690  10.970  0.8431  0.1887  0.8959
  581MOL0     C78329   8.871  10.629  11.018 -0.0855  0.4137 -0.6095
  581MOL0     O78330   8.949  10.711  11.079  0.3744 -0.4897 -0.0173
  581MOL0     C78331   9.074  10.669  11.102  0.2007  0.5804 -0.7097
  581MOL0     C78332   9.167  10.656  11.001  0.3199  0.2782 -0.5371
  581MOL0     C78333   9.294  10.612  11.030  0.2631 -0.9235  0.2661
  581MOL0     C78334   9.334  10.591  11.164 -0.0153  1.2007  0.7543
  581MOL0     O78335   9.467  10.572  11.193 -0.3923 -0.2180 -0.5492
  581MOL0     C78336   9.510  10.486  11.302 -1.0201 -0.7462 -0.3235
  581MOL0     C78337   9.661  10.457  11.311 -0.2289 -0.2452  0.1082
  581MOL0     C78338   9.704  10.410  11.455  0.2225  0.1396 -0.5381
  581MOL0     C78339   9.594  10.328  11.538 -0.1582 -0.5761  0.1002
  581MOL0     C78340   9.642  10.290  11.685 -0.7003 -0.6593 -0.5344
  581MOL0     C78341   9.714  10.404  11.771 -0.0116 -0.1313  1.0863
  581MOL0     C78342   9.737  10.349  11.910  0.1096 -0.8064  0.4415
  581MOL0     C78343   9.827  10.420  12.009  0.3185 -0.6887  0.2254
  581MOL0    Cl78344   9.769  10.588  12.023 -0.1203 -0.6507 -0.1659
  581MOL0     C78345   9.240  10.607  11.264  0.3006  0.2122 -0.6226
  581MOL0     C78346   9.106  10.637  11.229 -0.2165  0.1238  0.4927
  581MOL0     O78347   8.895  10.508  11.006 -0.3692  0.8154  0.1540
  581MOL0     C78348   8.625  10.614  10.954  0.2277 -0.0366 -0.2470
  581MOL0     C78349   8.497  10.669  10.941 -0.2124 -0.3434  0.4768
  581MOL0     N78350   8.238  11.190  10.448 -0.1336  0.6991  0.5658
  581MOL0     N78351   8.206  11.145  10.332  0.0924  0.7139  0.4136
  581MOL0     C78352   8.688  11.200  10.023 -0.1955 -0.4977  0.2559
  581MOL0     C78353   8.791  11.151  10.099 -0.2470  0.1942 -1.0623
  581MOL0     C78354   9.183  11.141  10.326  1.0865  0.9758 -0.2806
  581MOL0     C78355   9.204  11.198  10.454  0.2924  0.6449 -0.2364
  581MOL0     C78356   9.307  11.144  10.537  0.2629 -0.2984  0.6628
  581MOL0     C78357   9.398  11.051  10.486  0.2927 -0.4502 -0.6396
  581MOL0     O78358   9.502  11.019  10.574 -0.3915  0.3515  0.3931
  581MOL0     C78359   9.499  10.880  10.612 -1.0943  0.2115 -0.1292
  581MOL0     C78360   9.617  10.828  10.692 -1.0713 -0.9886  0.2652
  581MOL0     C78361   9.738  10.805  10.604  1.0939  0.0903 -0.7594
  581MOL0     C78362   9.816  10.932  10.567 -0.1235  1.1158  0.8308
  581MOL0     C78363   9.923  10.897  10.472 -0.6835  0.1474  0.4753
  581MOL0     C78364  10.020  10.855  10.405  0.2946 -1.4095  0.2433
  581MOL0     C78365   9.382  10.998  10.359  0.1093  0.1661 -0.3222
  581MOL0     C78366   9.280  11.047  10.275  0.1220  0.3294 -1.1385
  581MOL0     C78367   9.298  11.005  10.129  0.4202 -0.0312 -0.5153
  581MOL0     H78368   9.060  11.257   9.929  0.4486  3.0080 -0.6387
  581MOL0     H78369   8.878  11.387   9.804 -3.2464 -1.7967 -2.5720
  581MOL0     H78370   8.686  11.460   9.678 -0.5519 -0.0001 -1.3013
  581MOL0     H78371   8.689  11.283   9.660 -1.5072  0.8329 -3.8875
  581MOL0     H78372   8.506  11.365   9.519 -1.2150 -1.2083  0.4919
  581MOL0     H78373   8.464  11.476   9.651 -1.2819 -0.1640  1.5569
  581MOL0     H78374   8.439  11.185   9.716 -0.4286 -0.1959 -0.2481
  581MOL0     H78375   8.315  11.240   9.608 -0.2919 -2.2048  1.7156
  581MOL0     H78376   8.358  11.400   9.864 -0.0109  1.2051  0.2075
  581MOL0     H78377   8.250  11.435   9.725  0.3644  0.9771  0.1517
  581MOL0     H78378   8.088  11.341   9.827  0.3204  0.2046 -0.7110
  581MOL0     H78379   8.162  11.188   9.773 -1.4198 -1.7159  2.0234
  581MOL0     H78380   8.163  11.312  10.046 -1.8029  0.8310 -0.2644
  581MOL0     H78381   8.120  11.148  10.003 -2.9369  1.9789  2.5038
  581MOL0     H78382   8.400  11.241  10.036  3.7969 -3.3403 -1.6609
  581MOL0     H78383   8.366  11.099   9.935  2.3424 -0.7776  0.7292
  581MOL0     H78384   8.250  10.987  10.120  0.2819  0.1750 -1.8156
  581MOL0     H78385   8.423  11.006  10.112 -0.9149 -0.7914 -1.2147
  581MOL0     H78386   8.534  11.134  10.321 -0.9918 -2.6833 -0.1274
  581MOL0     H78387   8.562  11.162  10.558  0.5100  0.2535 -2.0627
  581MOL0     H78388   8.493  11.328  10.563 -1.0385  0.2936 -1.9923
  581MOL0     H78389   8.495  11.222  10.784  0.2831 -0.9143  0.0094
  581MOL0     H78390   8.332  11.262  10.739 -0.0611  0.1286 -0.5786
  581MOL0     H78391   8.431  10.972  10.692 -1.5983 -2.0438  1.9207
  581MOL0     H78392   8.269  11.042  10.685 -1.6041  2.0323  1.8838
  581MOL0     H78393   8.234  11.022  10.896  0.8949  1.7908 -0.8847
  581MOL0     H78394   8.389  11.063  10.959 -1.3587  0.4029  1.2595
  581MOL0     H78395   8.592  10.994  10.955 -0.1068  0.3241  2.4873
  581MOL0     H78396   8.815  10.887  11.002 -0.0005 -0.4473 -0.5523
  581MOL0     H78397   9.127  10.669  10.901 -0.3879 -0.5309 -0.3679
  581MOL0     H78398   9.365  10.586  10.953 -1.4890  1.0966 -2.2055
  581MOL0     H78399   9.473  10.531  11.394 -1.4027  2.2887 -1.8074
  581MOL0     H78400   9.480  10.383  11.283 -1.1541 -0.6374 -0.7114
  581MOL0     H78401   9.682  10.386  11.231 -1.7301  1.3399 -1.8334
  581MOL0     H78402   9.711  10.552  11.289  0.0700 -0.5361 -0.4629
  581MOL0     H78403   9.788  10.345  11.428 -0.2153 -0.4028 -0.6143
  581MOL0     H78404   9.747  10.485  11.523 -2.8142 -0.2621  2.0636
  581MOL0     H78405   9.560  10.236  11.490 -0.0497 -1.7082  2.0796
  581MOL0     H78406   9.509  10.396  11.554 -0.9383 -1.8218  1.5607
  581MOL0     H78407   9.709  10.204  11.675  1.9549  1.2727 -0.3046
  581MOL0     H78408   9.546  10.263  11.730  0.1198 -2.7500  0.0906
  581MOL0     H78409   9.810  10.440  11.733  0.7177  0.2664  3.2005
  581MOL0     H78410   9.641  10.486  11.775  0.5062  0.4115 -0.1216
  581MOL0     H78411   9.787  10.254  11.892  2.9566  0.2804  2.0334
  581MOL0     H78412   9.633  10.338  11.942 -0.3775  0.6456 -0.5303
  581MOL0     H78413   9.812  10.377  12.108  0.0017 -1.8790 -0.3301
  581MOL0     H78414   9.929  10.404  11.971 -0.1587 -0.8641 -0.9991
  581MOL0     H78415   9.265  10.607  11.370 -1.3587  0.7277 -0.1935
  581MOL0     H78416   9.039  10.645  11.314 -0.0251 -2.3439  0.9236
  581MOL0     H78417   8.648  10.507  10.954  0.0422 -0.0761 -0.3644
  581MOL0     H78418   8.421  10.597  10.913  0.9557 -1.2895 -0.3710
  581MOL0     H78419   8.594  11.149  10.045  0.8094 -2.7222 -0.3413
  581MOL0     H78420   8.775  11.069  10.169 -1.8127  1.3748  0.0316
  581MOL0     H78421   9.140  11.274  10.497  2.3129  0.3287  3.7838
  581MOL0     H78422   9.318  11.172  10.641 -2.7190 -2.1781  1.6006
  581MOL0     H78423   9.475  10.805  10.535  4.0691 -1.0293 -0.8718
  581MOL0     H78424   9.420  10.865  10.687  0.1343 -4.4388  0.5618
  581MOL0     H78425   9.605  10.751  10.769  2.3370 -0.2898  1.7224
  581MOL0     H78426   9.638  10.919  10.749 -2.6036  0.7596 -1.7963
  581MOL0     H78427   9.704  10.748  10.517 -1.9692 -0.2425  0.5323
  581MOL0     H78428   9.809  10.740  10.657  1.3618 -1.5981 -3.0366
  581MOL0     H78429   9.759  11.015  10.525  2.0404  1.2232 -2.2332
  581MOL0     H78430   9.866  10.981  10.651  1.7295  1.6899 -0.5533
  581MOL0     H78431  10.099  10.830  10.337 -1.0725 -1.4675 -1.3859
  581MOL0     H78432   9.453  10.924  10.324 -2.4652 -1.5631 -2.3686
  581MOL0     H78433   9.200  10.959  10.109 -0.0446  1.1451 -1.0274
  581MOL0     H78434   9.324  11.096  10.074  4.1185  0.0721  1.1575
  581MOL0     H78435   9.378  10.932  10.117 -0.2486 -0.4294 -3.4374
  582MOL0     O78436   5.556   5.900   8.382  0.4853  0.0775  0.0325
  582MOL0     C78437   5.588   5.809   8.308  0.3798 -0.9608  0.4704
  582MOL0     O78438   5.717   5.752   8.304  0.0975 -0.6280  0.1904
  582MOL0     C78439   5.808   5.784   8.398 -0.6451 -0.1413 -0.0414
  582MOL0     C78440   5.781   5.798   8.536  0.4165 -0.7485  0.0780
  582MOL0     C78441   5.881   5.834   8.628 -0.1445 -0.2633 -0.5702
  582MOL0     C78442   6.010   5.855   8.584  0.6767  0.0074  0.1956
  582MOL0     O78443   6.103   5.897   8.677 -0.4679  0.5605  0.1203
  582MOL0     C78444   6.211   5.977   8.632  0.0308 -0.3782  0.1936
  582MOL0     C78445   6.274   6.017   8.761  0.0732 -0.7074  0.2912
  582MOL0     C78446   6.173   6.098   8.853 -0.7194 -0.7487  0.0507
  582MOL0     C78447   6.245   6.192   8.952  0.2675 -0.1430  0.6333
  582MOL0     C78448   6.155   6.280   9.034  0.6223  0.5546  0.8664
  582MOL0     C78449   6.227   6.410   9.065  0.0709 -0.6029 -0.5124
  582MOL0     C78450   6.186   6.464   9.198 -0.1187 -0.1317 -0.6671
  582MOL0     C78451   6.041   6.532   9.197 -0.5409  0.1892  0.2344
  582MOL0     N78452   6.027   6.643   9.098 -0.2483  0.1585  0.7144
  582MOL0     C78453   6.046   6.779   9.110 -0.8188 -0.3923 -0.2578
  582MOL0     C78454   6.023   6.830   8.984  1.2926 -0.8814  0.1038
  582MOL0     C78455   6.017   6.980   8.943 -0.0398  0.3556  0.5489
  582MOL0     C78456   5.954   7.014   8.805  1.3138 -0.3218 -0.8658
  582MOL0     C78457   6.058   7.040   8.697  0.3263 -0.2653 -0.2803
  582MOL0     C78458   5.989   7.064   8.562  0.5652 -0.2947 -0.0520
  582MOL0     O78459   6.086   7.115   8.459  0.2416  1.4043 -0.4514
  582MOL0     C78460   6.113   7.033   8.358 -1.3043 -0.7598  0.6152
  582MOL0     C78461   6.101   6.890   8.349  0.6664 -0.2350  1.2579
  582MOL0     C78462   6.141   6.818   8.231 -0.1114  0.5260  1.3771
  582MOL0     C78463   6.183   6.883   8.119 -0.2154 -0.6211  0.0896
  582MOL0     C78464   6.223   6.814   7.998  0.1996 -0.0468  0.2065
  582MOL0     O78465   6.322   6.862   7.916  0.7986  0.7879 -0.1133
  582MOL0     C78466   6.361   6.793   7.808  0.9030  0.6729  0.4310
  582MOL0     C78467   6.301   6.801   7.682  0.0467  0.7502  0.6632
  582MOL0     C78468   6.369   6.735   7.571  1.3919  0.3619  0.0406
  582MOL0     C78469   6.487   6.653   7.585  0.1982 -0.7416 -0.3593
  582MOL0     O78470   6.542   6.598   7.468 -0.4178  0.2734  0.5448
  582MOL0     C78471   6.627   6.481   7.498  0.8015 -0.1088 -0.3605
  582MOL0     C78472   6.668   6.403   7.370  0.4652 -0.6712  1.4592
  582MOL0     C78473   6.722   6.269   7.398  0.1707 -0.7182  1.5291
  582MOL0     C78474   6.859   6.283   7.469 -1.1122  0.8836  0.6517
  582MOL0     C78475   6.942   6.161   7.455 -0.7775 -0.2385  0.3405
  582MOL0     C78476   6.865   6.033   7.499  0.2266  1.0904  0.1223
  582MOL0     C78477   6.958   5.911   7.506 -0.6808  0.9241  0.0971
  582MOL0     C78478   7.082   5.909   7.595 -0.0764  0.8060  0.5681
  582MOL0    Cl78479   7.215   5.985   7.509  0.1573  0.6739 -0.2716
  582MOL0     C78480   6.533   6.640   7.720 -0.3892 -0.3756  0.6405
  582MOL0     C78481   6.469   6.701   7.828 -0.3596  0.0618  1.0919
  582MOL0     O78482   6.151   6.718   7.969 -0.2352 -0.3319 -0.7215
  582MOL0     C78483   6.193   7.022   8.129 -0.5282 -0.3677  0.5476
  582MOL0     C78484   6.154   7.091   8.238 -0.1218  0.2189 -0.3708
  582MOL0     N78485   5.998   6.725   8.904  0.3128 -0.2554 -0.5250
  582MOL0     N78486   5.997   6.615   8.965  0.2388  0.5352 -0.2951
  582MOL0     C78487   6.032   5.843   8.446 -0.7423 -0.1141 -1.5234
  582MOL0     C78488   5.935   5.805   8.358 -0.1832  0.7804  0.4807
  582MOL0     C78489   5.484   5.743   8.226 -0.3976 -0.7527  0.4900
  582MOL0     C78490   5.524   5.645   8.139 -0.0288 -0.3359  0.6228
  582MOL0     C78491   5.439   5.581   8.055 -0.1628 -0.1001 -0.0926
  582MOL0     C78492   5.307   5.611   8.057  1.6119 -0.0508 -0.2333
  582MOL0     O78493   5.232   5.522   7.983  0.0845 -0.0275  0.3711
  582MOL0     C78494   5.081   5.529   7.973  0.2546  0.3738 -0.3881
  582MOL0     C78495   5.029   5.403   7.916 -0.3989 -0.8598  0.3586
  582MOL0     C78496   5.069   5.383   7.770  1.1844 -0.2202  0.6654
  582MOL0     C78497   4.958   5.321   7.697  0.4746 -0.0594  0.3416
  582MOL0     C78498   5.007   5.312   7.550 -0.5845 -0.4589 -0.1205
  582MOL0     C78499   5.043   5.305   7.434  1.1444 -0.0568  0.7963
  582MOL0     C78500   5.260   5.717   8.140  0.5985  0.8675 -0.0363
  582MOL0     C78501   5.349   5.791   8.218 -0.4962 -0.5527  0.9750
  582MOL0     C78502   5.296   5.909   8.297  0.7421  0.3977  0.5191
  582MOL0     H78503   5.680   5.790   8.576  0.2619 -1.0894 -0.3710
  582MOL0     H78504   5.860   5.844   8.734 -2.2752  1.9790 -1.1207
  582MOL0     H78505   6.295   5.924   8.586  0.7470 -0.4575  1.5490
  582MOL0     H78506   6.172   6.056   8.566 -2.3763 -1.8289 -0.2212
  582MOL0     H78507   6.364   6.076   8.739 -0.8087  2.5858  4.1627
  582MOL0     H78508   6.310   5.926   8.810 -0.5538 -0.9037  0.3903
  582MOL0     H78509   6.123   6.018   8.908 -0.2450 -0.5309  0.8207
  582MOL0     H78510   6.110   6.161   8.790 -0.0034  0.8205  0.8472
  582MOL0     H78511   6.318   6.140   9.015  0.6583  0.0684  0.3560
  582MOL0     H78512   6.308   6.254   8.888  0.3976 -0.6531  0.2629
  582MOL0     H78513   6.071   6.307   8.969  2.7285  1.9990 -1.4215
  582MOL0     H78514   6.121   6.227   9.123 -1.0505 -3.5859 -1.9074
  582MOL0     H78515   6.335   6.403   9.082 -0.1011  2.4750  3.0253
  582MOL0     H78516   6.212   6.486   8.988 -3.9850 -3.0174 -2.4781
  582MOL0     H78517   6.248   6.545   9.237 -3.5342  1.0985  2.9121
  582MOL0     H78518   6.187   6.383   9.272  0.5144  0.7371  0.3068
  582MOL0     H78519   5.970   6.460   9.154  0.8109 -0.1044 -1.6186
  582MOL0     H78520   6.003   6.569   9.293  1.5113 -0.2220  1.2743
  582MOL0     H78521   6.070   6.838   9.198 -1.0553  0.4054 -0.7209
  582MOL0     H78522   5.956   7.022   9.024 -0.2550  1.4739 -0.1737
  582MOL0     H78523   6.111   7.030   8.964 -0.5744  0.7619  2.1213
  582MOL0     H78524   5.883   6.935   8.779 -1.3901  0.2569  3.6204
  582MOL0     H78525   5.897   7.107   8.818 -0.6070 -1.4801 -0.6692
  582MOL0     H78526   6.119   6.949   8.694  1.2047  0.3261 -1.2307
  582MOL0     H78527   6.123   7.124   8.725 -0.2268 -0.6059  2.2428
  582MOL0     H78528   5.909   7.139   8.566  2.1987  1.4972  1.3382
  582MOL0     H78529   5.940   6.970   8.536  1.7366 -1.9350  3.1137
  582MOL0     H78530   6.066   6.833   8.434  0.0452 -0.3812  0.9121
  582MOL0     H78531   6.138   6.710   8.235 -0.5133  0.5416  1.4902
  582MOL0     H78532   6.209   6.858   7.668 -0.0381  0.0013 -3.0432
  582MOL0     H78533   6.335   6.748   7.469  1.4238 -1.3222 -0.2171
  582MOL0     H78534   6.722   6.505   7.547  0.5393  0.9141 -0.3320
  582MOL0     H78535   6.568   6.408   7.554  0.7573  0.4009  0.2665
  582MOL0     H78536   6.579   6.394   7.307 -0.7526 -0.4839  3.0770
  582MOL0     H78537   6.747   6.462   7.323 -0.9284 -0.7496 -1.1532
  582MOL0     H78538   6.642   6.211   7.446 -2.7859  1.1821 -0.7106
  582MOL0     H78539   6.728   6.222   7.300 -2.1566 -1.4131  1.6580
  582MOL0     H78540   6.855   6.303   7.577  2.3695  1.0588  0.8751
  582MOL0     H78541   6.928   6.348   7.414 -0.3367 -2.1459 -2.2445
  582MOL0     H78542   7.023   6.179   7.525 -0.5465 -0.2696  0.0814
  582MOL0     H78543   6.979   6.160   7.352 -0.6663 -0.2390  0.3816
  582MOL0     H78544   6.808   6.035   7.593 -0.3841  0.0568 -0.2100
  582MOL0     H78545   6.785   6.021   7.425  1.3055 -0.2827 -0.8577
  582MOL0     H78546   6.996   5.879   7.409 -1.6934  0.1615 -0.0711
  582MOL0     H78547   6.903   5.825   7.546  0.1017  0.4039  0.0795
  582MOL0     H78548   7.075   5.962   7.690  0.3805 -2.4511  2.5708
  582MOL0     H78549   7.094   5.803   7.622 -0.3498  0.5587 -0.2560
  582MOL0     H78550   6.625   6.586   7.740 -0.3514  0.5711  3.4939
  582MOL0     H78551   6.512   6.687   7.927 -0.7078 -1.2633  1.0723
  582MOL0     H78552   6.260   7.073   8.059  0.8730 -1.3330  1.1304
  582MOL0     H78553   6.169   7.198   8.247 -0.6009  0.3143 -0.6772
  582MOL0     H78554   6.124   5.876   8.398 -0.1114 -1.4484 -1.2724
  582MOL0     H78555   5.968   5.795   8.255  2.7085  0.1963  1.3747
  582MOL0     H78556   5.620   5.596   8.137  0.6064  0.8505 -1.0697
  582MOL0     H78557   5.471   5.483   8.021  0.1944 -1.6129  4.0279
  582MOL0     H78558   5.051   5.615   7.913 -0.2684 -0.2246 -1.0014
  582MOL0     H78559   5.045   5.532   8.076  2.0965  0.1401  0.2967
  582MOL0     H78560   4.922   5.400   7.940 -0.9955  2.7084 -1.2011
  582MOL0     H78561   5.081   5.319   7.961 -2.6173 -3.0054 -0.7955
  582MOL0     H78562   5.161   5.327   7.753  0.5821 -0.5950 -1.6736
  582MOL0     H78563   5.096   5.481   7.729  2.2083 -0.3293  1.0387
  582MOL0     H78564   4.959   5.216   7.726 -0.3586 -0.1328  0.1219
  582MOL0     H78565   4.856   5.362   7.700 -1.4034 -4.2710  0.4843
  582MOL0     H78566   5.075   5.327   7.334  0.0233 -0.4474  0.3380
  582MOL0     H78567   5.154   5.740   8.142  1.2214  4.3777  1.4220
  582MOL0     H78568   5.188   5.916   8.285  0.5021 -2.0469  0.8451
  582MOL0     H78569   5.303   5.884   8.403 -0.0003  1.5018  0.8439
  582MOL0     H78570   5.346   6.006   8.285 -0.2422  0.9495  0.7460
  583MOL0     O78571  11.351   5.691   7.277  0.0463 -0.4168 -1.0634
  583MOL0     C78572  11.469   5.685   7.231  0.0336 -0.4445  0.2061
  583MOL0     O78573  11.525   5.578   7.168 -0.3418 -0.1128  0.1126
  583MOL0     C78574  11.613   5.504   7.243 -0.7267 -1.1307 -0.6165
  583MOL0     C78575  11.702   5.415   7.178 -0.8424  0.8402  0.1608
  583MOL0     C78576  11.809   5.342   7.245 -0.9556 -0.5189  0.7278
  583MOL0     C78577  11.815   5.346   7.383  0.4953 -0.8011  0.9066
  583MOL0     O78578  11.901   5.278   7.461  0.5767  0.5397  0.8139
  583MOL0     C78579  11.972   5.165   7.404 -0.2419  0.4032 -0.5580
  583MOL0     C78580  12.102   5.116   7.489  0.4472 -1.0160  1.0184
  583MOL0     C78581  12.084   5.012   7.597 -1.2878  0.1044 -0.5316
  583MOL0     C78582  12.218   5.001   7.683  1.1229 -0.1712 -0.4953
  583MOL0     C78583  12.333   4.947   7.609  0.7944 -0.4298  0.4137
  583MOL0     C78584  12.311   4.812   7.543  0.1771  0.5366 -0.1747
  583MOL0     C78585  12.377   4.707   7.639 -0.8472  0.3481  1.0316
  583MOL0     C78586  12.383   4.574   7.571 -0.0535  1.3136 -0.4810
  583MOL0     N78587  12.480   4.486   7.641  0.1428  0.1903  0.2201
  583MOL0     C78588  12.606   4.470   7.599 -0.5929 -0.2605  0.5587
  583MOL0     C78589  12.669   4.422   7.720 -0.3001  0.0181 -0.3018
  583MOL0     C78590  12.814   4.394   7.748  0.5783 -0.3380 -0.3973
  583MOL0     C78591  12.900   4.405   7.610  0.0968  0.9236  0.2950
  583MOL0     C78592  12.926   4.552   7.589 -0.0544 -0.4052 -0.0597
  583MOL0     C78593  13.003   4.573   7.457 -0.9804 -0.4625 -0.0149
  583MOL0     O78594  12.922   4.527   7.354 -0.7259  0.9452  0.7313
  583MOL0     C78595  12.827   4.619   7.299 -0.4380  0.1391  0.3449
  583MOL0     C78596  12.814   4.757   7.321  0.1579 -0.1798  0.2627
  583MOL0     C78597  12.722   4.833   7.250  0.9368 -0.0149 -0.2396
  583MOL0     C78598  12.615   4.783   7.173 -0.4398  0.4343 -0.4168
  583MOL0     C78599  12.516   4.867   7.118  0.6407  0.0591 -0.3098
  583MOL0     O78600  12.512   4.999   7.181  1.3524 -0.6380 -0.5072
  583MOL0     C78601  12.425   5.069   7.116  0.0982 -0.0629  0.2542
  583MOL0     C78602  12.282   5.050   7.133  0.8088 -0.0846 -0.8775
  583MOL0     C78603  12.199   5.128   7.057 -0.3777  0.4214  0.3650
  583MOL0     C78604  12.245   5.218   6.959  0.6205  0.2173 -0.6155
  583MOL0     O78605  12.143   5.274   6.891  0.5797  0.2205 -1.1074
  583MOL0     C78606  12.165   5.280   6.748 -0.0645  0.1223  1.2458
  583MOL0     C78607  12.043   5.332   6.673 -0.6002  0.0034 -0.3021
  583MOL0     C78608  11.912   5.285   6.737  0.3899 -1.0225  1.0890
  583MOL0     C78609  11.791   5.347   6.665  0.5637  0.0404  0.3572
  583MOL0     C78610  11.759   5.484   6.733 -0.0385 -0.7784 -0.2252
  583MOL0     C78611  11.616   5.537   6.684  0.3198 -0.3035  0.1418
  583MOL0     C78612  11.636   5.609   6.551  0.3406  0.4726  0.5147
  583MOL0     C78613  11.502   5.622   6.458 -0.1415  1.2228 -0.7644
  583MOL0    Cl78614  11.439   5.458   6.414 -0.1807  0.2837 -0.2524
  583MOL0     C78615  12.375   5.240   6.950  0.2821 -1.0162  0.2090
  583MOL0     C78616  12.473   5.175   7.028  0.3616  0.1296 -0.2861
  583MOL0     O78617  12.439   4.826   7.032 -0.2506 -0.6884 -0.2573
  583MOL0     C78618  12.627   4.642   7.148 -0.9362 -0.0670 -0.0249
  583MOL0     C78619  12.736   4.564   7.206  0.6285 -0.3577 -0.2435
  583MOL0     N78620  12.577   4.414   7.823 -0.3349 -1.1373 -0.0715
  583MOL0     N78621  12.465   4.449   7.773  0.3166 -0.1883  1.0078
  583MOL0     C78622  11.728   5.433   7.449 -0.2355  0.1226  0.0569
  583MOL0     C78623  11.632   5.516   7.384  0.1773  0.7625 -0.2001
  583MOL0     C78624  11.553   5.816   7.215  0.5099 -0.5380  0.4037
  583MOL0     C78625  11.658   5.813   7.116  0.3726  0.2397 -0.2388
  583MOL0     C78626  11.747   5.922   7.100 -1.0750 -0.0185 -0.1912
  583MOL0     C78627  11.729   6.038   7.177  0.2460  0.0230  0.2087
  583MOL0     O78628  11.825   6.134   7.199  0.2633  0.6167  1.1884
  583MOL0     C78629  11.946   6.080   7.241  0.7733 -0.4897 -0.6038
  583MOL0     C78630  12.034   6.186   7.316  0.2358 -0.5317 -0.1823
  583MOL0     C78631  12.082   6.301   7.225 -0.5775  0.3204 -1.0867
  583MOL0     C78632  12.070   6.448   7.292  0.3835 -0.7338  0.1305
  583MOL0     C78633  11.941   6.503   7.250  0.3918 -0.1477  0.0508
  583MOL0     C78634  11.840   6.550   7.210 -0.1253  0.3274  0.3102
  583MOL0     C78635  11.631   6.041   7.272  0.7408 -0.0152  0.9171
  583MOL0     C78636  11.540   5.929   7.295  0.8258 -0.9939  0.9126
  583MOL0     C78637  11.433   5.942   7.400  0.3158 -0.4354 -0.3494
  583MOL0     H78638  11.687   5.402   7.072  2.3918  0.5327 -0.3723
  583MOL0     H78639  11.883   5.295   7.181 -0.5005 -0.3224  1.0985
  583MOL0     H78640  11.906   5.083   7.374 -0.1053  0.5890 -1.4125
  583MOL0     H78641  12.031   5.203   7.319  1.1671 -0.8811 -0.1972
  583MOL0     H78642  12.136   5.209   7.536 -2.0887 -0.5229  2.0264
  583MOL0     H78643  12.183   5.088   7.421  3.5232  0.8394  3.6362
  583MOL0     H78644  12.047   4.917   7.556 -0.4652 -2.0013  3.1541
  583MOL0     H78645  12.000   5.048   7.658 -1.6390 -1.2388 -0.1888
  583MOL0     H78646  12.236   5.101   7.724  1.9056  0.6403 -2.6867
  583MOL0     H78647  12.191   4.932   7.764 -3.1158  2.4785  0.6822
  583MOL0     H78648  12.362   5.027   7.540 -1.3180  1.0010  1.0826
  583MOL0     H78649  12.417   4.956   7.679  4.1760  1.2664 -3.4328
  583MOL0     H78650  12.206   4.787   7.525 -0.0121  1.5499 -0.5296
  583MOL0     H78651  12.362   4.802   7.448  2.2118  2.7573  0.5982
  583MOL0     H78652  12.341   4.704   7.742  0.1621  1.1992  1.4294
  583MOL0     H78653  12.481   4.741   7.644 -1.3295  2.4216 -1.0473
  583MOL0     H78654  12.281   4.533   7.579  0.1069  1.2966  2.3253
  583MOL0     H78655  12.412   4.577   7.466 -0.2489  0.2071 -0.5788
  583MOL0     H78656  12.648   4.497   7.503 -0.2352  2.2402  1.3502
  583MOL0     H78657  12.853   4.459   7.828 -3.6587  1.7515  0.2498
  583MOL0     H78658  12.812   4.293   7.790 -1.9375 -0.8994 -1.7335
  583MOL0     H78659  12.992   4.351   7.637 -1.8841 -1.2720  3.3217
  583MOL0     H78660  12.849   4.349   7.531  1.5567  0.4835 -0.3820
  583MOL0     H78661  12.970   4.594   7.680  0.3552  2.5751 -1.5128
  583MOL0     H78662  12.830   4.604   7.590  0.5498  0.8167  2.2630
  583MOL0     H78663  13.084   4.501   7.473 -1.8571 -0.9197  3.1608
  583MOL0     H78664  13.041   4.675   7.451 -1.2694 -0.3332  0.2671
  583MOL0     H78665  12.895   4.791   7.385  0.5807  0.8717 -0.7910
  583MOL0     H78666  12.721   4.940   7.267  2.6239 -0.2413  1.7405
  583MOL0     H78667  12.222   4.992   7.203  1.2214  3.8662  3.2105
  583MOL0     H78668  12.095   5.106   7.077 -0.0399  1.5538  4.1777
  583MOL0     H78669  12.250   5.343   6.723  1.5582 -1.8669  1.5023
  583MOL0     H78670  12.192   5.176   6.726  3.0230  1.2783 -1.2096
  583MOL0     H78671  12.037   5.441   6.667 -4.6732 -0.1307 -2.1346
  583MOL0     H78672  12.049   5.305   6.567 -2.9609  2.4503 -1.1907
  583MOL0     H78673  11.906   5.176   6.730  0.1382 -0.9057 -2.3787
  583MOL0     H78674  11.917   5.325   6.839  3.2918  1.3942  0.1526
  583MOL0     H78675  11.706   5.280   6.685 -0.6865  1.3129 -0.5082
  583MOL0     H78676  11.812   5.360   6.559  0.2953 -0.4097  0.2446
  583MOL0     H78677  11.839   5.558   6.724  2.2637 -2.6971  2.7070
  583MOL0     H78678  11.750   5.475   6.841 -0.8267  0.8872 -0.1203
  583MOL0     H78679  11.540   5.459   6.678 -0.9098  0.7375  1.6065
  583MOL0     H78680  11.572   5.605   6.758 -0.2318 -0.3680 -0.1226
  583MOL0     H78681  11.715   5.563   6.490 -0.8341  0.7169 -1.2965
  583MOL0     H78682  11.677   5.708   6.571  0.7328  0.3322  0.4053
  583MOL0     H78683  11.424   5.662   6.524 -0.6950  1.7379 -1.7081
  583MOL0     H78684  11.520   5.673   6.363 -1.3932  2.2300 -0.4903
  583MOL0     H78685  12.405   5.331   6.899 -0.8375 -1.5332 -1.4634
  583MOL0     H78686  12.578   5.203   7.024  0.7898 -0.5300  3.0604
  583MOL0     H78687  12.571   4.612   7.060 -1.7337  3.7782 -1.0244
  583MOL0     H78688  12.745   4.466   7.162  1.0020 -0.5467  0.2429
  583MOL0     H78689  11.749   5.449   7.554  2.6877 -1.1108 -0.2491
  583MOL0     H78690  11.566   5.582   7.439 -2.2272 -1.7992  0.1974
  583MOL0     H78691  11.677   5.718   7.066  0.5489 -1.7107  3.1682
  583MOL0     H78692  11.830   5.921   7.029 -0.6487 -4.2468  0.1125
  583MOL0     H78693  12.008   6.043   7.159 -2.9927 -2.1827 -2.9531
  583MOL0     H78694  11.934   5.994   7.308  0.3977 -1.4817 -1.9081
  583MOL0     H78695  12.118   6.130   7.357  2.5121  2.8070  0.1056
  583MOL0     H78696  11.975   6.236   7.394 -0.6467 -2.4209  0.4234
  583MOL0     H78697  12.039   6.302   7.124 -1.2583  0.3413 -0.8041
  583MOL0     H78698  12.187   6.271   7.219 -1.0745 -2.4844  1.7794
  583MOL0     H78699  12.069   6.450   7.401 -2.1215 -0.4821  0.1551
  583MOL0     H78700  12.145   6.521   7.259 -1.6826  1.7024  0.5574
  583MOL0     H78701  11.750   6.600   7.182  0.1256 -0.1121 -1.4072
  583MOL0     H78702  11.626   6.113   7.352  1.3091  1.2467 -0.1493
  583MOL0     H78703  11.335   5.916   7.359 -0.1068 -1.9425  1.4826
  583MOL0     H78704  11.462   5.890   7.491  1.1716  0.4762 -0.0843
  583MOL0     H78705  11.408   6.044   7.431  0.6761 -0.2004 -0.8053
  584MOL0     O78706  11.028  10.482   6.754 -0.0555  1.1053 -0.0081
  584MOL0     C78707  11.149  10.459   6.757  0.4795 -0.2580 -0.9456
  584MOL0     O78708  11.205  10.337   6.773  0.1346 -0.1952 -0.1204
  584MOL0     C78709  11.123  10.236   6.809 -0.4678 -0.0462 -0.4817
  584MOL0     C78710  11.009  10.184   6.741 -0.4822  0.4937 -0.4564
  584MOL0     C78711  10.930  10.088   6.797  1.2022  0.0153 -0.3828
  584MOL0     C78712  10.957  10.034   6.923  0.3975 -0.6883 -0.3354
  584MOL0     O78713  10.868   9.960   7.003 -0.2598  0.6480  0.0969
  584MOL0     C78714  10.832   9.842   6.933  0.0934 -0.5393  1.2016
  584MOL0     C78715  10.736   9.750   7.011  0.1705  0.0168  0.2721
  584MOL0     C78716  10.690   9.635   6.920 -0.3337  0.0102  0.2343
  584MOL0     C78717  10.647   9.512   7.002 -0.2681 -0.7006  0.3689
  584MOL0     C78718  10.644   9.380   6.924 -0.1365 -0.0489  0.1444
  584MOL0     C78719  10.532   9.362   6.832  0.2662 -0.1888 -0.4398
  584MOL0     C78720  10.589   9.331   6.687  0.4127  0.3526  0.3240
  584MOL0     C78721  10.471   9.279   6.596 -0.3947 -0.9342  0.0429
  584MOL0     N78722  10.525   9.250   6.461 -0.5312 -0.5684  0.4845
  584MOL0     C78723  10.498   9.326   6.340  0.7279 -0.0244  0.2848
  584MOL0     C78724  10.535   9.244   6.239 -0.4703  1.0713  0.3102
  584MOL0     C78725  10.530   9.270   6.089  0.8603  0.8284 -0.1380
  584MOL0     C78726  10.647   9.228   6.006 -0.7169  0.3688  1.3898
  584MOL0     C78727  10.617   9.187   5.860  0.3102 -0.5109 -0.5509
  584MOL0     C78728  10.733   9.160   5.771  0.1358 -1.2838  1.3576
  584MOL0     O78729  10.819   9.273   5.761 -0.7590  0.0437 -0.7346
  584MOL0     C78730  10.755   9.373   5.695 -0.1883 -0.0923 -0.5641
  584MOL0     C78731  10.703   9.366   5.560  0.0478  0.2082 -0.3206
  584MOL0     C78732  10.631   9.469   5.502  0.4231 -0.1872  0.2397
  584MOL0     C78733  10.584   9.576   5.575 -0.8017 -1.6004  0.3672
  584MOL0     C78734  10.489   9.674   5.506  0.7091 -1.2597  2.1639
  584MOL0     O78735  10.482   9.695   5.373 -0.6452  0.5810 -0.1354
  584MOL0     C78736  10.406   9.802   5.327 -0.2720 -0.5889 -0.2713
  584MOL0     C78737  10.297   9.790   5.236 -0.0894 -0.3598 -0.5033
  584MOL0     C78738  10.241   9.896   5.176  0.1529  0.3613 -1.0105
  584MOL0     C78739  10.275  10.022   5.199  0.3020 -0.7222  0.2973
  584MOL0     O78740  10.221  10.124   5.125 -0.5015  0.7089 -0.1122
  584MOL0     C78741  10.323  10.142   5.026 -0.2718  0.5118  0.6621
  584MOL0     C78742  10.288  10.283   4.962 -0.3196 -0.2168  0.1777
  584MOL0     C78743  10.307  10.405   5.047  0.2257 -1.5505 -0.6677
  584MOL0     C78744  10.369  10.533   4.980 -0.7489  0.0875 -0.0712
  584MOL0     C78745  10.388  10.645   5.090  0.0794  0.3370 -0.6842
  584MOL0     C78746  10.473  10.617   5.218  0.1300 -0.2788 -1.0473
  584MOL0     C78747  10.616  10.594   5.204 -0.8094  0.0260 -0.0507
  584MOL0     C78748  10.685  10.487   5.280  0.2202 -0.3759 -0.8079
  584MOL0    Cl78749  10.603  10.329   5.268  0.4810 -0.0451 -0.0388
  584MOL0     C78750  10.391  10.040   5.277  0.0949  0.4313  0.2679
  584MOL0     C78751  10.454   9.933   5.345 -0.1826  0.8412 -0.1189
  584MOL0     O78752  10.398   9.709   5.583 -0.6853  0.0216  0.5142
  584MOL0     C78753  10.623   9.583   5.711  0.3924  0.1240 -0.3554
  584MOL0     C78754  10.709   9.484   5.766  0.3491  1.0700 -0.5730
  584MOL0     N78755  10.581   9.125   6.297  0.3006 -0.0486  0.3964
  584MOL0     N78756  10.582   9.133   6.429  0.2876  0.1636  0.6552
  584MOL0     C78757  11.081  10.060   6.982  0.1705  0.2780  0.4238
  584MOL0     C78758  11.161  10.165   6.934 -0.6994 -0.5759  0.2582
  584MOL0     C78759  11.256  10.566   6.745 -0.7066  1.2621  0.7060
  584MOL0     C78760  11.374  10.537   6.808  1.0591  0.0519  0.1403
  584MOL0     C78761  11.482  10.628   6.797  0.3632 -0.2219  0.4941
  584MOL0     C78762  11.460  10.755   6.744 -0.9403  0.2850 -0.0070
  584MOL0     O78763  11.552  10.855   6.752  0.1347  0.1097  0.0130
  584MOL0     C78764  11.691  10.824   6.769 -0.5111 -0.2358  1.1377
  584MOL0     C78765  11.746  10.802   6.621 -0.5601  0.8269  0.1273
  584MOL0     C78766  11.897  10.767   6.602  0.3474  1.1316 -0.5097
  584MOL0     C78767  11.981  10.874   6.673  0.4885 -0.0340  0.0337
  584MOL0     C78768  12.108  10.865   6.605 -0.7897  0.6459 -1.3485
  584MOL0     C78769  12.200  10.858   6.538 -0.0079  0.0539 -0.0473
  584MOL0     C78770  11.340  10.790   6.699  1.0744 -0.4885  0.3274
  584MOL0     C78771  11.235  10.698   6.693  1.3251  0.7399  0.9059
  584MOL0     C78772  11.108  10.730   6.620 -0.3392 -0.0089 -0.6198
  584MOL0     H78773  10.990  10.222   6.641 -1.6560  0.7435 -0.1586
  584MOL0     H78774  10.837  10.066   6.746 -1.1622  5.4933  0.7920
  584MOL0     H78775  10.775   9.874   6.845 -0.8959 -2.1281  1.2143
  584MOL0     H78776  10.920   9.787   6.899 -0.3494 -0.4509 -0.1899
  584MOL0     H78777  10.646   9.801   7.046 -3.1931 -5.3285  0.5654
  584MOL0     H78778  10.777   9.711   7.105 -2.8633 -1.0723  1.2559
  584MOL0     H78779  10.778   9.594   6.869  0.8985  0.6711  1.7417
  584MOL0     H78780  10.613   9.665   6.848 -0.4967 -0.9800 -0.0086
  584MOL0     H78781  10.703   9.503   7.095  1.7450  2.9700 -0.2911
  584MOL0     H78782  10.544   9.537   7.028 -0.6627  0.2107 -1.8411
  584MOL0     H78783  10.744   9.367   6.881  1.3086  0.4005  3.0902
  584MOL0     H78784  10.640   9.300   6.998  2.5956  0.6549  1.1995
  584MOL0     H78785  10.474   9.278   6.872 -0.0314 -0.3520 -1.1776
  584MOL0     H78786  10.463   9.447   6.828  1.8479  1.2847  1.7093
  584MOL0     H78787  10.663   9.251   6.699  0.8079  1.1190  6.1768
  584MOL0     H78788  10.639   9.414   6.635  0.8680 -1.1063 -1.6825
  584MOL0     H78789  10.436   9.192   6.652  0.5188 -2.3046 -1.4264
  584MOL0     H78790  10.398   9.360   6.593  1.1235  0.5743  1.5584
  584MOL0     H78791  10.452   9.424   6.334  1.4203  0.2796 -0.2466
  584MOL0     H78792  10.442   9.224   6.043 -0.5139  1.3359  1.8226
  584MOL0     H78793  10.512   9.376   6.069 -0.1300  0.4709 -1.2165
  584MOL0     H78794  10.718   9.311   6.005  1.0677 -1.0884 -0.0334
  584MOL0     H78795  10.694   9.137   6.046 -0.6290 -0.1494  0.1299
  584MOL0     H78796  10.556   9.261   5.807  0.4655  0.5916  0.7545
  584MOL0     H78797  10.559   9.094   5.868  2.5101 -1.9571 -0.7708
  584MOL0     H78798  10.702   9.124   5.673  1.7767  4.0110 -1.4576
  584MOL0     H78799  10.802   9.089   5.818  3.5883  0.6526 -0.4342
  584MOL0     H78800  10.737   9.283   5.498  0.5744 -2.0954  2.8024
  584MOL0     H78801  10.599   9.465   5.398 -1.5437 -1.2541  0.8371
  584MOL0     H78802  10.265   9.693   5.201 -0.6731 -0.4624  0.3039
  584MOL0     H78803  10.172   9.873   5.095 -0.0406  0.7547 -0.9629
  584MOL0     H78804  10.430  10.143   5.049  0.5583 -0.8179 -2.5859
  584MOL0     H78805  10.313  10.054   4.962  1.5699  0.3098  0.6119
  584MOL0     H78806  10.359  10.297   4.879  1.3501  0.0876  1.6128
  584MOL0     H78807  10.189  10.288   4.917 -0.6568 -0.8822  0.8322
  584MOL0     H78808  10.212  10.420   5.098  0.7250 -0.7854  0.0875
  584MOL0     H78809  10.379  10.383   5.127  0.4090  2.5406  0.5385
  584MOL0     H78810  10.294  10.563   4.906 -1.3324  2.2153  1.2796
  584MOL0     H78811  10.465  10.512   4.931 -0.1340  0.9533  0.7353
  584MOL0     H78812  10.288  10.677   5.119 -0.3336  2.5044 -4.0203
  584MOL0     H78813  10.428  10.722   5.024 -1.8741  2.9179  0.9852
  584MOL0     H78814  10.462  10.714   5.269 -0.9896 -1.2330  0.6501
  584MOL0     H78815  10.430  10.543   5.286  1.4848  0.2559  0.4560
  584MOL0     H78816  10.665  10.688   5.230  1.3268 -0.6552 -1.3537
  584MOL0     H78817  10.642  10.584   5.099  1.5967  4.0391 -0.0278
  584MOL0     H78818  10.791  10.483   5.253  0.3661  0.9202 -0.5126
  584MOL0     H78819  10.686  10.531   5.380  1.2348  0.7492 -1.2836
  584MOL0     H78820  10.438  10.137   5.272  1.0330  0.0464  1.3601
  584MOL0     H78821  10.550   9.954   5.392 -0.6360 -0.0153  1.2263
  584MOL0     H78822  10.567   9.645   5.780 -1.9664 -0.2586 -1.8310
  584MOL0     H78823  10.723   9.507   5.871 -0.6602 -2.2442  0.3914
  584MOL0     H78824  11.092  10.005   7.075 -2.0545  0.9624  1.1545
  584MOL0     H78825  11.255  10.189   6.983 -1.2364  0.3272  0.8847
  584MOL0     H78826  11.383  10.439   6.854 -1.0098  0.2521  1.0791
  584MOL0     H78827  11.574  10.590   6.842  0.4944 -2.0878 -1.2132
  584MOL0     H78828  11.709  10.736   6.831  0.1536  0.2075  1.5842
  584MOL0     H78829  11.742  10.908   6.817  2.3700  0.1596 -2.1369
  584MOL0     H78830  11.725  10.887   6.555 -0.4713 -1.0331 -2.4119
  584MOL0     H78831  11.694  10.717   6.576 -1.4094  1.8975 -1.0029
  584MOL0     H78832  11.923  10.749   6.497  0.0559  1.4180 -0.6320
  584MOL0     H78833  11.921  10.670   6.647  0.1017  1.3422  0.0759
  584MOL0     H78834  11.945  10.976   6.655 -1.2457  0.2676  4.0942
  584MOL0     H78835  11.997  10.859   6.780  0.0390  2.8427  0.5899
  584MOL0     H78836  12.284  10.829   6.479  1.4668  3.8801 -0.1230
  584MOL0     H78837  11.318  10.893   6.671  0.8333 -0.7505 -0.4932
  584MOL0     H78838  11.114  10.834   6.589 -2.9865 -0.4697 -3.1808
  584MOL0     H78839  11.092  10.677   6.525 -3.1556 -0.2603 -0.0800
  584MOL0     H78840  11.021  10.717   6.685 -0.0397  3.2312  0.6184
  585MOL0     O78841   4.101   9.590  11.485 -0.5689 -0.0517 -0.0030
  585MOL0     C78842   4.208   9.582  11.422 -0.8821 -0.8021 -1.1998
  585MOL0     O78843   4.224   9.599  11.280  0.4252 -0.7640  0.4164
  585MOL0     C78844   4.096   9.623  11.225 -0.1576 -0.1119 -0.2430
  585MOL0     C78845   4.049   9.526  11.138  0.9066 -0.6428 -0.7575
  585MOL0     C78846   3.928   9.533  11.069 -0.5375  0.1493  0.4892
  585MOL0     C78847   3.870   9.656  11.064  0.7389  0.1468  0.0421
  585MOL0     O78848   3.752   9.671  10.993  0.4928 -0.2631  0.0568
  585MOL0     C78849   3.658   9.571  10.992  0.5423  0.2151 -0.0998
  585MOL0     C78850   3.514   9.625  10.945  0.1771  0.1684  0.5681
  585MOL0     C78851   3.506   9.679  10.799 -0.7198 -0.5269  0.3310
  585MOL0     C78852   3.498   9.556  10.700  0.6417  0.3138  0.1657
  585MOL0     C78853   3.452   9.600  10.554  1.0255  0.1752 -0.2011
  585MOL0     C78854   3.380   9.485  10.481  0.2059  0.4209 -0.3371
  585MOL0     C78855   3.336   9.521  10.341 -0.4024  0.6238  0.2010
  585MOL0     C78856   3.251   9.408  10.272  0.7431  0.3728 -0.6754
  585MOL0     N78857   3.245   9.434  10.121 -0.5057 -0.4610 -0.6777
  585MOL0     C78858   3.226   9.340  10.025 -0.3576 -0.2898 -0.4168
  585MOL0     C78859   3.208   9.415   9.913 -0.4855 -1.1976 -1.5436
  585MOL0     C78860   3.197   9.349   9.773  0.5223  0.4272  0.3834
  585MOL0     C78861   3.329   9.331   9.703 -0.5850 -0.2631 -0.2153
  585MOL0     C78862   3.307   9.278   9.559  0.5732 -0.0832 -0.8970
  585MOL0     C78863   3.443   9.245   9.489  0.0858  0.1074  0.0051
  585MOL0     O78864   3.420   9.141   9.384 -0.8390 -0.6271 -0.1922
  585MOL0     C78865   3.424   9.006   9.432 -0.2917  0.1757  0.2251
  585MOL0     C78866   3.442   8.950   9.563 -0.9323  0.3204  0.4619
  585MOL0     C78867   3.427   8.814   9.590  0.0964 -0.1471  0.0131
  585MOL0     C78868   3.377   8.728   9.498 -0.1005 -0.6986  0.6733
  585MOL0     C78869   3.350   8.586   9.511  0.1947  1.0900 -0.5171
  585MOL0     O78870   3.406   8.527   9.611 -0.3881  0.3406 -0.4443
  585MOL0     C78871   3.401   8.389   9.616  0.6884  0.3198  0.1134
  585MOL0     C78872   3.496   8.308   9.550  0.0149  1.1942  0.5518
  585MOL0     C78873   3.500   8.166   9.567  0.2131  0.5375 -0.3480
  585MOL0     C78874   3.399   8.093   9.640  0.3112 -0.4681  0.0365
  585MOL0     O78875   3.405   7.957   9.666  0.0631  0.2048  0.4564
  585MOL0     C78876   3.327   7.887   9.760 -0.6551  0.0400  0.3983
  585MOL0     C78877   3.350   7.724   9.753 -0.2003  0.0898  0.5974
  585MOL0     C78878   3.322   7.653   9.885 -0.3764 -0.3002 -0.3238
  585MOL0     C78879   3.437   7.668   9.987  0.1951  0.4636 -0.8264
  585MOL0     C78880   3.385   7.636  10.137 -0.0000 -0.1609  0.1112
  585MOL0     C78881   3.498   7.602  10.225 -0.3076  0.1077  0.2713
  585MOL0     C78882   3.590   7.734  10.245 -0.1580 -0.2520  0.7508
  585MOL0     C78883   3.714   7.684  10.305 -0.0227  0.2773 -0.3324
  585MOL0    Cl78884   3.839   7.816  10.295 -0.2378  0.1852  0.2964
  585MOL0     C78885   3.302   8.178   9.701  0.0207  1.5554  0.4149
  585MOL0     C78886   3.298   8.310   9.685 -1.0737 -0.0254  0.3227
  585MOL0     O78887   3.274   8.529   9.433  1.0614 -0.5820  0.9258
  585MOL0     C78888   3.349   8.782   9.373  0.3744 -0.7112  0.0732
  585MOL0     C78889   3.370   8.917   9.343 -0.2112 -0.3197 -0.6410
  585MOL0     N78890   3.229   9.552   9.945 -0.3897  0.4479  0.1838
  585MOL0     N78891   3.242   9.563  10.076 -0.3761 -0.7692  0.0958
  585MOL0     C78892   3.906   9.759  11.151 -0.3948  0.1767  0.4123
  585MOL0     C78893   4.019   9.746  11.230  1.4312 -0.7587  0.8338
  585MOL0     C78894   4.339   9.577  11.499 -0.5578  0.7307 -0.3641
  585MOL0     C78895   4.456   9.634  11.441 -0.2222 -0.0244 -0.0725
  585MOL0     C78896   4.568   9.658  11.520  0.4699  0.7553  0.6270
  585MOL0     C78897   4.565   9.622  11.654 -0.1232  0.7746  0.1452
  585MOL0     O78898   4.683   9.651  11.727  0.1367  1.0456  0.8879
  585MOL0     C78899   4.673   9.670  11.866  0.6079  0.6020  0.1341
  585MOL0     C78900   4.785   9.744  11.929  0.2723 -0.4378  0.7106
  585MOL0     C78901   4.802   9.887  11.870  0.0381  1.0627 -0.4126
  585MOL0     C78902   4.870   9.899  11.735 -0.2220  0.7452  0.5551
  585MOL0     C78903   4.863  10.044  11.687  0.8204  0.1958 -0.6083
  585MOL0     C78904   4.841  10.163  11.660  0.1211 -0.0243  0.8495
  585MOL0     C78905   4.458   9.556  11.706  0.2686 -0.0918 -1.0951
  585MOL0     C78906   4.345   9.535  11.628  0.0546 -0.0403 -0.8131
  585MOL0     C78907   4.230   9.471  11.705 -0.0761 -0.3992 -0.2862
  585MOL0     H78908   4.109   9.436  11.136  1.9684  0.0577 -1.4052
  585MOL0     H78909   3.896   9.445  11.014  1.2556  0.0655 -0.4900
  585MOL0     H78910   3.686   9.485  10.930  0.7808  0.4681 -0.3465
  585MOL0     H78911   3.638   9.525  11.089  0.3604  2.2744  0.8799
  585MOL0     H78912   3.484   9.703  11.016 -0.5915 -0.8811  1.4085
  585MOL0     H78913   3.440   9.545  10.950 -2.1365  2.2408  1.3126
  585MOL0     H78914   3.594   9.739  10.775 -2.0108  0.3178 -2.8487
  585MOL0     H78915   3.425   9.751  10.782  2.2248  2.9021 -0.3089
  585MOL0     H78916   3.584   9.489  10.695 -0.9685 -1.8782  0.1607
  585MOL0     H78917   3.413   9.496  10.734  0.8176 -1.2570 -1.9328
  585MOL0     H78918   3.374   9.676  10.566 -0.0205 -1.0264  0.9775
  585MOL0     H78919   3.545   9.637  10.511  0.5096  1.4302 -0.2792
  585MOL0     H78920   3.444   9.397  10.478 -1.1380 -0.5687 -1.6783
  585MOL0     H78921   3.294   9.459  10.543 -0.6279  1.0191 -1.2060
  585MOL0     H78922   3.425   9.533  10.280 -1.1502  0.0338 -1.0432
  585MOL0     H78923   3.287   9.619  10.332  0.1288  0.7182 -2.2855
  585MOL0     H78924   3.306   9.315  10.289 -0.0243 -0.2759 -1.6451
  585MOL0     H78925   3.153   9.406  10.319  1.4542 -1.1560  0.8957
  585MOL0     H78926   3.198   9.236  10.036 -2.0892 -0.1316 -2.6106
  585MOL0     H78927   3.145   9.254   9.787 -1.1810  0.6606 -3.3306
  585MOL0     H78928   3.130   9.404   9.707 -3.4107 -1.4511  2.4412
  585MOL0     H78929   3.390   9.422   9.695  2.9269 -2.4509 -0.1854
  585MOL0     H78930   3.396   9.269   9.763  0.4875  0.9059 -0.1440
  585MOL0     H78931   3.244   9.345   9.500  0.8283  0.1135 -0.9512
  585MOL0     H78932   3.247   9.187   9.564  1.1063 -0.4037  3.1565
  585MOL0     H78933   3.530   9.210   9.546  1.0453  0.1903 -1.3296
  585MOL0     H78934   3.477   9.338   9.442 -0.5485 -0.4565 -1.6326
  585MOL0     H78935   3.486   9.021   9.633 -0.8353  2.7017 -1.8611
  585MOL0     H78936   3.452   8.780   9.690 -0.0751 -0.7240 -0.1387
  585MOL0     H78937   3.584   8.351   9.504 -0.1965  0.8824 -0.1599
  585MOL0     H78938   3.582   8.120   9.512  0.4207  0.1255  0.3055
  585MOL0     H78939   3.349   7.929   9.858 -0.2328  0.9438 -0.0683
  585MOL0     H78940   3.220   7.899   9.740 -0.6182  1.5454  0.9278
  585MOL0     H78941   3.283   7.686   9.675 -1.4524  3.3285 -0.0607
  585MOL0     H78942   3.452   7.699   9.721  0.0604  0.8356  0.8342
  585MOL0     H78943   3.234   7.701   9.930  1.6622  2.7103  0.8303
  585MOL0     H78944   3.303   7.547   9.870  2.2096 -0.8590 -0.1950
  585MOL0     H78945   3.470   7.773   9.982  0.6563  0.4858  1.4859
  585MOL0     H78946   3.519   7.601   9.959  0.9088  0.9210  0.1043
  585MOL0     H78947   3.324   7.546  10.124 -1.1887  0.6108  0.1286
  585MOL0     H78948   3.324   7.718  10.176 -2.5515 -1.7247 -0.3427
  585MOL0     H78949   3.465   7.564  10.322  0.1900  4.1977  2.2220
  585MOL0     H78950   3.565   7.523  10.187 -0.8846  0.3284 -1.2971
  585MOL0     H78951   3.526   7.802  10.304 -1.1781  0.1212 -0.7341
  585MOL0     H78952   3.602   7.782  10.148 -1.0101 -2.1157 -0.3181
  585MOL0     H78953   3.696   7.666  10.411  0.0814  0.3918 -0.2947
  585MOL0     H78954   3.770   7.602  10.260  5.7162  1.8764  2.7496
  585MOL0     H78955   3.234   8.130   9.771  0.7295 -1.3646 -0.7617
  585MOL0     H78956   3.235   8.369   9.752 -1.8370  0.0063 -0.4109
  585MOL0     H78957   3.320   8.712   9.296  1.4989 -0.7107 -0.3642
  585MOL0     H78958   3.344   8.951   9.243 -1.7005 -0.5375 -0.3421
  585MOL0     H78959   3.852   9.853  11.159  0.8393  0.8051  2.1398
  585MOL0     H78960   4.058   9.823  11.296 -2.5514  0.0502  2.5223
  585MOL0     H78961   4.461   9.655  11.334  0.2035  2.9857  0.4443
  585MOL0     H78962   4.651   9.720  11.489  1.9559 -1.3752  0.1584
  585MOL0     H78963   4.663   9.571  11.912 -0.2942  1.7137  2.5102
  585MOL0     H78964   4.579   9.722  11.888 -0.2419  0.0456 -1.8774
  585MOL0     H78965   4.877   9.687  11.916  0.2024 -0.5920  0.8898
  585MOL0     H78966   4.765   9.743  12.036 -0.7190 -1.7641  0.5396
  585MOL0     H78967   4.866   9.935  11.945 -1.1646  2.2540 -0.1062
  585MOL0     H78968   4.707   9.940  11.881  0.1506  1.6674 -2.1615
  585MOL0     H78969   4.976   9.876  11.751  0.2631  2.9465  0.7448
  585MOL0     H78970   4.821   9.848  11.651 -1.7346  1.3524  1.0467
  585MOL0     H78971   4.798  10.260  11.640 -3.1768 -1.3947  0.6911
  585MOL0     H78972   4.461   9.527  11.811  3.7333 -0.8663 -1.3012
  585MOL0     H78973   4.180   9.400  11.639 -2.1380 -0.5659  1.3675
  585MOL0     H78974   4.260   9.418  11.796  0.2409  1.1427  0.5451
  585MOL0     H78975   4.149   9.541  11.729 -2.6287 -3.7262  1.6504
  586MOL0     O78976   6.557   6.996   0.706  0.0250  0.7259  0.9155
  586MOL0     C78977   6.531   7.116   0.711  0.6023  0.3566 -0.4391
  586MOL0     O78978   6.547   7.190   0.818  0.5868  0.2551  0.1861
  586MOL0     C78979   6.584   7.140   0.933  1.5466  0.6598 -0.8735
  586MOL0     C78980   6.700   7.065   0.950 -0.0064 -0.3700  0.4315
  586MOL0     C78981   6.745   7.031   1.075 -0.3926  0.3968 -0.7800
  586MOL0     C78982   6.671   7.068   1.184 -0.1347  0.2287  0.7273
  586MOL0     O78983   6.698   7.048   1.315  0.3219  0.5353  0.0916
  586MOL0     C78984   6.766   6.934   1.353  0.5237  0.0721  0.0081
  586MOL0     C78985   6.722   6.908   1.495 -0.0438 -0.1438  1.0500
  586MOL0     C78986   6.764   6.776   1.548 -0.3421 -0.0974 -0.1600
  586MOL0     C78987   6.914   6.781   1.572  0.2867 -0.2256 -0.0454
  586MOL0     C78988   6.963   6.670   1.666  0.3893 -0.2440  0.2220
  586MOL0     C78989   6.952   6.534   1.592 -0.3160 -0.4631 -0.5238
  586MOL0     C78990   7.041   6.442   1.671  0.3338  0.9315 -0.6847
  586MOL0     C78991   7.057   6.302   1.615  0.9264 -0.1750 -1.7070
  586MOL0     N78992   7.174   6.289   1.524 -1.2254  0.4212  0.0645
  586MOL0     C78993   7.295   6.347   1.552 -0.2439 -0.0245  0.7073
  586MOL0     C78994   7.374   6.323   1.446 -0.0332 -0.2207 -0.0836
  586MOL0     C78995   7.514   6.379   1.423  0.0551 -0.2519 -0.8054
  586MOL0     C78996   7.610   6.315   1.522 -0.0281 -0.2824 -0.9180
  586MOL0     C78997   7.627   6.167   1.507  0.3306  0.2658  0.1129
  586MOL0     C78998   7.720   6.117   1.393 -0.3140 -0.8188  0.5825
  586MOL0     O78999   7.767   5.991   1.443 -0.1729  0.4892  0.1444
  586MOL0     C79000   7.871   5.955   1.356  0.3901  1.0338  0.1068
  586MOL0     C79001   7.848   5.916   1.227 -0.4827 -0.9930  0.5738
  586MOL0     C79002   7.949   5.876   1.143  0.1094  0.0964  0.2319
  586MOL0     C79003   8.080   5.874   1.193 -1.0367 -1.1470 -0.1189
  586MOL0     C79004   8.187   5.818   1.107 -0.2985  1.3358  0.0990
  586MOL0     O79005   8.278   5.728   1.153  0.3143 -0.7368 -0.1065
  586MOL0     C79006   8.375   5.670   1.078 -0.2972  0.3734  0.3828
  586MOL0     C79007   8.410   5.535   1.111 -0.1823  0.5194  0.1667
  586MOL0     C79008   8.523   5.479   1.056 -0.8658  0.4703 -0.6523
  586MOL0     C79009   8.608   5.544   0.968 -0.6701  0.0244  0.3818
  586MOL0     O79010   8.731   5.486   0.926 -0.6789  0.1078 -0.6027
  586MOL0     C79011   8.816   5.426   1.028  0.5994 -0.4205 -0.2408
  586MOL0     C79012   8.963   5.484   1.010 -0.4897  0.1933  0.6137
  586MOL0     C79013   9.009   5.525   0.863 -0.1555 -0.2846 -0.2641
  586MOL0     C79014   9.011   5.415   0.761  0.1389  0.3872  0.6728
  586MOL0     C79015   9.032   5.458   0.619  0.6969  0.5680 -0.1832
  586MOL0     C79016   8.912   5.535   0.561 -0.0518 -0.5444 -0.0827
  586MOL0     C79017   8.940   5.575   0.413 -0.7660  0.5706 -0.2211
  586MOL0     C79018   8.842   5.678   0.375  0.9530  0.1190 -0.0374
  586MOL0    Cl79019   8.675   5.621   0.395  0.2388  0.0964  0.0994
  586MOL0     C79020   8.564   5.665   0.920 -0.0189 -0.5974 -0.4358
  586MOL0     C79021   8.455   5.732   0.981 -1.1634  0.4586 -0.1408
  586MOL0     O79022   8.187   5.869   0.992  0.6178  0.0149 -0.5097
  586MOL0     C79023   8.113   5.920   1.321  0.0109  0.1351 -1.1179
  586MOL0     C79024   8.008   5.967   1.395  0.3039  0.0795 -0.4598
  586MOL0     N79025   7.289   6.261   1.356 -0.4594 -0.0081 -0.3164
  586MOL0     N79026   7.172   6.234   1.405  0.1405 -0.0594 -1.5257
  586MOL0     C79027   6.558   7.153   1.164  0.8292  0.9613 -0.7790
  586MOL0     C79028   6.511   7.194   1.039 -0.5197 -0.9154  0.6036
  586MOL0     C79029   6.473   7.191   0.593  0.8337 -0.1354 -0.3438
  586MOL0     C79030   6.425   7.327   0.627 -0.2287  0.2241  0.1085
  586MOL0     C79031   6.365   7.405   0.519 -0.7833 -0.1835 -0.6000
  586MOL0     C79032   6.319   7.350   0.403 -0.3978 -0.3245 -1.2413
  586MOL0     O79033   6.257   7.418   0.304  0.6983  0.1104 -0.5122
  586MOL0     C79034   6.176   7.527   0.352  0.1944 -0.5975 -0.6867
  586MOL0     C79035   6.080   7.585   0.252  0.7025 -0.7423 -0.1799
  586MOL0     C79036   6.141   7.595   0.116 -0.6694  0.2369  0.3285
  586MOL0     C79037   6.254   7.705   0.117  0.0225  0.7062 -0.8593
  586MOL0     C79038   6.210   7.840   0.159 -0.3147 -0.4664 -0.8154
  586MOL0     C79039   6.179   7.951   0.193  0.4051 -0.4909  0.3275
  586MOL0     C79040   6.363   7.218   0.375  0.3572  0.7149  0.3621
  586MOL0     C79041   6.427   7.141   0.466  0.1306 -0.1026 -0.3919
  586MOL0     C79042   6.451   6.994   0.438 -0.3416  0.1358 -0.3532
  586MOL0     H79043   6.760   7.045   0.862  0.9294 -1.9912  1.3881
  586MOL0     H79044   6.839   6.979   1.091 -0.1729  1.2560  1.0200
  586MOL0     H79045   6.739   6.848   1.291  2.5879 -0.5340 -0.1200
  586MOL0     H79046   6.872   6.959   1.352  0.9380 -0.9662  3.4366
  586MOL0     H79047   6.614   6.920   1.509  0.0784  0.1735  1.7562
  586MOL0     H79048   6.753   6.991   1.559 -0.9387  0.5883  0.5585
  586MOL0     H79049   6.720   6.693   1.492 -1.5173  1.5003 -1.6942
  586MOL0     H79050   6.716   6.774   1.647  1.5595  0.1975  0.8110
  586MOL0     H79051   6.968   6.792   1.477 -1.0506  2.4347 -0.5982
  586MOL0     H79052   6.928   6.873   1.629  1.0525 -1.7718  2.4582
  586MOL0     H79053   7.068   6.688   1.692  0.3475 -0.2743  0.4097
  586MOL0     H79054   6.896   6.675   1.752 -0.6753 -0.0576 -0.5948
  586MOL0     H79055   6.854   6.484   1.595  0.9489 -3.0862  0.6430
  586MOL0     H79056   6.995   6.540   1.492 -0.6759  0.8776 -0.6143
  586MOL0     H79057   6.986   6.419   1.762 -0.6561  1.4231 -1.1411
  586MOL0     H79058   7.141   6.478   1.694  0.7100 -1.1155  1.2811
  586MOL0     H79059   7.076   6.232   1.697  0.7948  0.6826 -0.9290
  586MOL0     H79060   6.960   6.288   1.567 -0.7671  2.9037  0.4582
  586MOL0     H79061   7.311   6.413   1.637 -3.5649 -1.6783  2.7875
  586MOL0     H79062   7.561   6.362   1.326  3.0062  2.8532 -0.1251
  586MOL0     H79063   7.513   6.488   1.430  0.4321 -0.3301  2.4060
  586MOL0     H79064   7.710   6.355   1.505 -0.4310  0.1802 -2.3211
  586MOL0     H79065   7.581   6.335   1.625  3.8957 -0.2030  0.3223
  586MOL0     H79066   7.526   6.124   1.504 -0.7358  2.5435  0.5942
  586MOL0     H79067   7.671   6.144   1.604 -3.0833 -0.7188  1.5890
  586MOL0     H79068   7.804   6.184   1.378  1.1154 -2.7398 -0.5419
  586MOL0     H79069   7.658   6.123   1.303  1.0484  1.4591 -0.2613
  586MOL0     H79070   7.746   5.891   1.199 -0.5960  0.5361 -0.4385
  586MOL0     H79071   7.935   5.828   1.047  3.5599 -1.3394  0.2695
  586MOL0     H79072   8.357   5.475   1.185 -1.0475  1.3825  0.2665
  586MOL0     H79073   8.524   5.376   1.089 -0.6778 -0.7159 -4.0329
  586MOL0     H79074   8.785   5.444   1.131 -0.8044  2.1611 -1.0018
  586MOL0     H79075   8.820   5.318   1.011  0.2612 -0.1476 -2.3264
  586MOL0     H79076   9.000   5.564   1.074  4.0633 -0.4157 -0.8968
  586MOL0     H79077   9.033   5.404   1.038  0.2307  0.1326 -1.2214
  586MOL0     H79078   8.963   5.619   0.831 -1.2249 -0.1852  1.4517
  586MOL0     H79079   9.113   5.555   0.885 -0.3402 -0.5591  1.1240
  586MOL0     H79080   8.910   5.374   0.769 -0.6687  1.7393 -1.5145
  586MOL0     H79081   9.088   5.348   0.799 -0.2393 -0.4424 -0.0159
  586MOL0     H79082   9.064   5.367   0.569  2.2805  0.8354  0.3111
  586MOL0     H79083   9.109   5.535   0.611 -0.9905  2.1254 -3.6273
  586MOL0     H79084   8.815   5.484   0.568 -0.2519 -0.1693 -0.0968
  586MOL0     H79085   8.904   5.627   0.619 -0.2115 -1.3521  1.2172
  586MOL0     H79086   8.928   5.480   0.359 -1.1419 -0.7079  1.9593
  586MOL0     H79087   9.035   5.629   0.412 -0.0077 -0.7251 -1.3126
  586MOL0     H79088   8.850   5.765   0.441 -1.4100  0.1680  0.2838
  586MOL0     H79089   8.847   5.714   0.272  0.7236  1.0600  0.2714
  586MOL0     H79090   8.631   5.702   0.843  1.6092 -1.6357  0.4276
  586MOL0     H79091   8.439   5.837   0.955  0.3731  1.0322  1.0845
  586MOL0     H79092   8.215   5.925   1.359 -0.3247 -1.0341 -0.0007
  586MOL0     H79093   8.024   5.999   1.497  1.3070  0.0670 -0.6003
  586MOL0     H79094   6.509   7.183   1.256  1.8965  0.9161 -0.1718
  586MOL0     H79095   6.432   7.267   1.022  2.0567  1.1233 -4.8804
  586MOL0     H79096   6.422   7.369   0.726 -2.9832  1.4917 -0.4033
  586MOL0     H79097   6.348   7.508   0.549  0.1606  0.2799 -1.5700
  586MOL0     H79098   6.238   7.612   0.381 -0.4158 -0.3485 -0.0942
  586MOL0     H79099   6.111   7.494   0.434  2.4245 -2.3446  0.4869
  586MOL0     H79100   6.040   7.681   0.286 -0.9774 -1.6147  0.4370
  586MOL0     H79101   5.994   7.518   0.237  0.2822 -0.0597 -0.8918
  586MOL0     H79102   6.057   7.624   0.052 -1.3937 -1.4980  0.4465
  586MOL0     H79103   6.186   7.502   0.082  0.8175  1.0653 -0.0724
  586MOL0     H79104   6.328   7.669   0.188 -2.9429  0.1265  2.1902
  586MOL0     H79105   6.304   7.713   0.020 -0.7317  2.4350 -1.1328
  586MOL0     H79106   6.143   8.050   0.212  1.7017  0.4874 -1.9810
  586MOL0     H79107   6.333   7.174   0.280 -0.8098  0.3090  0.9119
  586MOL0     H79108   6.375   6.933   0.487  1.5753  0.4290  3.3930
  586MOL0     H79109   6.443   6.980   0.330 -4.1917 -3.4317  0.1501
  586MOL0     H79110   6.555   6.968   0.463 -0.0599 -0.4500 -2.0202
  587MOL0     O79111   7.391  10.889   3.253 -0.2789  0.1778  0.2707
  587MOL0     C79112   7.446  10.996   3.285  0.9314 -0.7066  0.8513
  587MOL0     O79113   7.375  11.086   3.350 -0.3854 -0.2831 -0.7477
  587MOL0     C79114   7.259  11.050   3.405 -0.7356 -1.3209  0.1624
  587MOL0     C79115   7.157  11.132   3.359  0.1995 -1.3730 -0.0695
  587MOL0     C79116   7.024  11.125   3.418  1.1073  0.4780  0.4145
  587MOL0     C79117   6.994  11.018   3.506  0.2956 -0.5167 -0.4510
  587MOL0     O79118   6.873  11.001   3.559  0.0208 -0.2121  0.0951
  587MOL0     C79119   6.806  10.902   3.479  0.7547 -0.1322  0.2545
  587MOL0     C79120   6.662  10.886   3.548 -0.1428 -0.0417  0.0789
  587MOL0     C79121   6.614  10.753   3.503  0.2355  0.4225 -0.0442
  587MOL0     C79122   6.504  10.761   3.401  0.9727  0.2958  0.3824
  587MOL0     C79123   6.433  10.625   3.360 -0.4044  0.0756 -0.8274
  587MOL0     C79124   6.365  10.542   3.482  0.2517  1.1022 -0.2378
  587MOL0     C79125   6.270  10.429   3.438 -1.0742 -0.4327  0.2134
  587MOL0     C79126   6.202  10.342   3.547  0.1812 -0.7570  0.7186
  587MOL0     N79127   6.096  10.408   3.613  0.0997 -0.1196 -0.1640
  587MOL0     C79128   5.967  10.403   3.568  0.4198  0.7195  1.2916
  587MOL0     C79129   5.903  10.478   3.659 -0.6200 -0.5282  0.0913
  587MOL0     C79130   5.760  10.501   3.663  0.2354  0.1652  0.0148
  587MOL0     C79131   5.686  10.371   3.701 -0.6352 -0.0859  0.2875
  587MOL0     C79132   5.539  10.405   3.704 -0.5379 -0.8724 -0.0916
  587MOL0     C79133   5.454  10.314   3.784 -0.4468 -0.3407  0.7250
  587MOL0     O79134   5.311  10.345   3.787  0.1661 -0.0143 -0.6481
  587MOL0     C79135   5.225  10.282   3.706  0.3695  0.3630  0.3773
  587MOL0     C79136   5.256  10.233   3.578  0.5038 -0.3786  0.5394
  587MOL0     C79137   5.165  10.165   3.498  0.1528 -0.0774  0.3478
  587MOL0     C79138   5.049  10.117   3.556 -0.4898  0.0452 -0.0959
  587MOL0     C79139   4.943  10.055   3.464 -1.2786  0.9146  0.5119
  587MOL0     O79140   4.815  10.047   3.510 -0.2628 -0.4432  0.1204
  587MOL0     C79141   4.712  10.000   3.432 -0.1022 -0.9722 -0.4843
  587MOL0     C79142   4.685  10.035   3.295  0.0367 -0.2485 -0.3218
  587MOL0     C79143   4.562  10.005   3.230 -0.6141 -0.3626 -0.8461
  587MOL0     C79144   4.466   9.936   3.304 -0.4035 -0.7060  0.0734
  587MOL0     O79145   4.345   9.909   3.257 -0.3458  0.8161 -0.1456
  587MOL0     C79146   4.333   9.826   3.134 -1.0596 -0.0064 -0.5675
  587MOL0     C79147   4.214   9.875   3.051  0.2208 -0.6808 -0.8302
  587MOL0     C79148   4.221   9.840   2.908  0.1599  0.4807 -0.0398
  587MOL0     C79149   4.085   9.885   2.851  0.1751  0.3472 -0.3246
  587MOL0     C79150   4.089   9.858   2.703  0.3964  0.4702 -0.7730
  587MOL0     C79151   3.941   9.875   2.642 -0.5536  0.0850  0.4379
  587MOL0     C79152   3.929   9.878   2.487 -0.0204 -0.2065 -0.2642
  587MOL0     C79153   3.794   9.905   2.428  1.4595  0.2404 -0.5059
  587MOL0    Cl79154   3.821   9.933   2.250 -0.0389 -0.1256 -0.1254
  587MOL0     C79155   4.491   9.905   3.437  0.7477  0.3791 -0.8685
  587MOL0     C79156   4.612   9.939   3.501  1.5544  0.0176  0.1433
  587MOL0     O79157   4.983  10.003   3.357  1.3652 -0.4969  0.4536
  587MOL0     C79158   5.015  10.150   3.686 -0.1997 -1.4681  0.1831
  587MOL0     C79159   5.095  10.241   3.756 -0.0097 -0.2970 -0.4602
  587MOL0     N79160   5.995  10.513   3.753  0.3900 -0.5011 -0.0623
  587MOL0     N79161   6.113  10.470   3.724  0.3939  0.2808  0.4732
  587MOL0     C79162   7.103  10.941   3.555 -0.4568 -0.1255  0.5772
  587MOL0     C79163   7.233  10.951   3.502 -0.8728  1.1210  0.4519
  587MOL0     C79164   7.582  11.022   3.247  0.4463  0.7238 -0.6536
  587MOL0     C79165   7.637  11.148   3.235 -1.0439 -0.1397  0.5179
  587MOL0     C79166   7.768  11.181   3.170  0.3408 -0.1890 -0.1444
  587MOL0     C79167   7.845  11.069   3.134 -0.4508  0.3309 -0.1472
  587MOL0     O79168   7.975  11.095   3.100  0.5063 -0.7830  0.1454
  587MOL0     C79169   8.029  11.007   3.003  0.6794  0.5218  0.0544
  587MOL0     C79170   8.160  10.947   3.052  1.5825  0.1612  0.4261
  587MOL0     C79171   8.271  11.051   3.044 -0.7705 -0.1172  0.0231
  587MOL0     C79172   8.399  11.011   3.122 -0.0566  1.2708 -0.4785
  587MOL0     C79173   8.366  10.994   3.267  0.0807 -0.3633  0.5543
  587MOL0     C79174   8.324  11.004   3.380 -0.1412  0.2400 -0.7229
  587MOL0     C79175   7.809  10.943   3.173  0.4496  0.1051 -0.4475
  587MOL0     C79176   7.680  10.920   3.228 -0.3063 -0.2477  0.1240
  587MOL0     C79177   7.649  10.769   3.254  0.1059  0.2281  0.1385
  587MOL0     H79178   7.170  11.222   3.299 -1.9104 -0.1071  1.2155
  587MOL0     H79179   6.968  11.216   3.398 -0.2124 -0.7190 -1.7006
  587MOL0     H79180   6.795  10.933   3.374  2.1646 -0.7655 -0.0949
  587MOL0     H79181   6.856  10.805   3.485 -0.0501 -0.5314  0.7106
  587MOL0     H79182   6.588  10.963   3.528 -0.2664 -0.1450  0.1370
  587MOL0     H79183   6.684  10.890   3.656 -1.5142 -2.2434  0.4980
  587MOL0     H79184   6.577  10.684   3.580  2.0258 -1.3607 -0.6659
  587MOL0     H79185   6.691  10.694   3.452  1.8043  2.3683 -0.0546
  587MOL0     H79186   6.423  10.821   3.445  0.6730  0.6934 -0.6679
  587MOL0     H79187   6.531  10.811   3.307  0.7034 -1.1298 -0.4842
  587MOL0     H79188   6.355  10.647   3.286  0.7724  0.2051 -2.0772
  587MOL0     H79189   6.493  10.557   3.299 -3.9080  0.4061 -5.2238
  587MOL0     H79190   6.435  10.494   3.551 -2.4158 -3.4012 -0.2663
  587MOL0     H79191   6.304  10.607   3.545  0.8949  1.6964 -0.2231
  587MOL0     H79192   6.334  10.368   3.375  3.2219  0.1123  3.5464
  587MOL0     H79193   6.187  10.472   3.382  0.3262  0.9463 -0.9010
  587MOL0     H79194   6.157  10.253   3.504 -1.4181  0.1038  0.5413
  587MOL0     H79195   6.283  10.319   3.617 -0.1015  1.5900  1.9052
  587MOL0     H79196   5.917  10.355   3.485 -0.5967 -0.1607  2.3850
  587MOL0     H79197   5.739  10.579   3.738  0.8362  0.7250 -0.3881
  587MOL0     H79198   5.730  10.538   3.565  0.7730 -0.5035 -0.4052
  587MOL0     H79199   5.687  10.285   3.632 -0.3506  0.6089 -0.5926
  587MOL0     H79200   5.719  10.343   3.801  1.7005 -0.1616 -0.4412
  587MOL0     H79201   5.487  10.399   3.608  1.7387  1.2152 -1.5847
  587MOL0     H79202   5.523  10.507   3.739  1.8846 -0.2008 -0.7593
  587MOL0     H79203   5.477  10.316   3.891 -3.6553 -0.7967  1.5271
  587MOL0     H79204   5.463  10.210   3.751 -0.7621 -0.3300  0.5977
  587MOL0     H79205   5.359  10.262   3.558 -0.5433  4.5542  0.9695
  587MOL0     H79206   5.197  10.153   3.394 -1.4841  3.3581 -0.6814
  587MOL0     H79207   4.764  10.091   3.247 -0.5850 -0.3755 -1.5591
  587MOL0     H79208   4.548  10.045   3.131 -0.3883  0.9287 -0.3766
  587MOL0     H79209   4.424   9.840   3.075 -1.8494 -0.1872 -1.8512
  587MOL0     H79210   4.330   9.719   3.157  0.3284 -0.3695 -1.9202
  587MOL0     H79211   4.120   9.843   3.097  0.7208  3.3002  3.8417
  587MOL0     H79212   4.210   9.984   3.062 -1.6707 -0.7711 -0.3837
  587MOL0     H79213   4.307   9.883   2.855  0.6548  0.0574  0.4099
  587MOL0     H79214   4.220   9.731   2.898 -0.5802  0.3851  0.9433
  587MOL0     H79215   4.055   9.989   2.866  0.6302  0.7446 -2.0045
  587MOL0     H79216   4.006   9.818   2.888  0.7690 -1.4041 -2.0473
  587MOL0     H79217   4.134   9.760   2.681  0.2519  0.6414 -1.8515
  587MOL0     H79218   4.150   9.930   2.648  0.1442 -0.4263 -2.3051
  587MOL0     H79219   3.884   9.786   2.670  0.9333 -0.3390  2.3681
  587MOL0     H79220   3.882   9.957   2.685  0.0309  1.3274 -1.0333
  587MOL0     H79221   3.959   9.785   2.440 -3.2083 -0.1604 -2.7633
  587MOL0     H79222   3.993   9.959   2.450  0.5992 -1.2516 -1.5571
  587MOL0     H79223   3.731   9.817   2.439 -0.7168  1.8776  1.1293
  587MOL0     H79224   3.749   9.988   2.483  2.6114  0.6411 -0.1368
  587MOL0     H79225   4.413   9.856   3.495  0.5126  2.1840  0.4320
  587MOL0     H79226   4.626   9.913   3.605 -0.1345 -1.4850  0.0382
  587MOL0     H79227   4.914  10.118   3.711  0.2036 -4.0931 -1.3024
  587MOL0     H79228   5.051  10.247   3.855  0.7050 -1.0824 -0.0848
  587MOL0     H79229   7.086  10.862   3.629  2.7269 -0.8012  0.7472
  587MOL0     H79230   7.320  10.889   3.524 -1.0670  1.0868  1.1287
  587MOL0     H79231   7.594  11.245   3.259  2.1219  1.8270 -1.1129
  587MOL0     H79232   7.796  11.283   3.147 -0.8541 -0.3842 -2.9293
  587MOL0     H79233   8.041  11.074   2.917 -0.4775  2.8718  1.6067
  587MOL0     H79234   7.964  10.926   2.969 -1.7693  2.2121  0.4323
  587MOL0     H79235   8.175  10.860   2.989  0.8158 -1.6273  2.5635
  587MOL0     H79236   8.142  10.918   3.156 -1.4520  0.0912 -0.0084
  587MOL0     H79237   8.242  11.146   3.090 -2.2206 -0.6987  0.3418
  587MOL0     H79238   8.304  11.053   2.940  0.0422  1.5634  0.2731
  587MOL0     H79239   8.431  10.912   3.089 -5.3530 -1.0133  0.2451
  587MOL0     H79240   8.479  11.083   3.102  1.1744  0.4780  1.3483
  587MOL0     H79241   8.278  11.013   3.476  0.0349 -1.3132 -0.4742
  587MOL0     H79242   7.883  10.864   3.166  0.2401  0.0104 -2.2391
  587MOL0     H79243   7.730  10.712   3.301 -2.1058 -2.8405  0.6140
  587MOL0     H79244   7.570  10.766   3.330  0.1209 -1.0710  0.1331
  587MOL0     H79245   7.606  10.726   3.163 -2.7637  2.2678  0.3897
  588MOL0     O79246   7.987   2.725   2.792 -0.3789  0.9961 -0.5378
  588MOL0     C79247   7.921   2.641   2.860 -0.3310 -1.1620 -0.2870
  588MOL0     O79248   7.789   2.636   2.854 -0.6573 -0.0459  0.3813
  588MOL0     C79249   7.719   2.735   2.773  0.4445 -0.3551  0.5791
  588MOL0     C79250   7.628   2.672   2.695 -0.0841 -0.0002  1.1906
  588MOL0     C79251   7.540   2.743   2.617 -0.0679 -0.0467  1.2188
  588MOL0     C79252   7.555   2.889   2.616  0.2553  0.4137 -0.0947
  588MOL0     O79253   7.467   2.969   2.554  0.2621  0.6390 -0.2700
  588MOL0     C79254   7.463   2.949   2.408 -1.0643 -0.4594 -0.1147
  588MOL0     C79255   7.490   3.086   2.340  0.5975  0.5177  0.6294
  588MOL0     C79256   7.399   3.203   2.383 -0.0957 -0.3159  0.2922
  588MOL0     C79257   7.422   3.344   2.340 -0.2190 -0.4360  0.6492
  588MOL0     C79258   7.313   3.452   2.339 -0.0490  0.3341  0.1742
  588MOL0     C79259   7.329   3.521   2.475  0.6307 -0.4194  0.0452
  588MOL0     C79260   7.258   3.660   2.474  0.8188 -0.3849  0.2389
  588MOL0     C79261   7.263   3.724   2.613  0.0864 -0.9184 -0.1974
  588MOL0     N79262   7.164   3.659   2.707 -0.7019 -0.2610  0.0782
  588MOL0     C79263   7.030   3.670   2.705  0.3066 -0.4255 -0.0154
  588MOL0     C79264   6.986   3.612   2.819  0.6928 -1.5483  0.7284
  588MOL0     C79265   6.835   3.581   2.860  0.6449 -0.0075 -0.3276
  588MOL0     C79266   6.773   3.723   2.904 -0.4557  1.5587  0.0728
  588MOL0     C79267   6.780   3.737   3.059 -1.0834 -1.3880  0.2913
  588MOL0     C79268   6.652   3.703   3.126 -0.2305  0.7820  0.4840
  588MOL0     O79269   6.669   3.651   3.259 -0.1208  0.6628 -0.1807
  588MOL0     C79270   6.657   3.520   3.291  0.6736  0.0011 -0.3507
  588MOL0     C79271   6.603   3.494   3.423 -0.3091 -0.5943  0.3656
  588MOL0     C79272   6.561   3.364   3.465 -0.5273  0.4499  1.0649
  588MOL0     C79273   6.582   3.260   3.368 -0.6421  0.9137 -0.4261
  588MOL0     C79274   6.560   3.125   3.422  0.3501 -0.9370 -0.2468
  588MOL0     O79275   6.490   3.103   3.540  0.1168  0.2000  0.7680
  588MOL0     C79276   6.442   2.981   3.567 -0.0412  0.1346  0.7676
  588MOL0     C79277   6.520   2.881   3.628  0.0495 -0.2481  0.1942
  588MOL0     C79278   6.475   2.764   3.670 -0.3780  0.0471  0.2981
  588MOL0     C79279   6.342   2.726   3.655  0.5408 -0.2467  0.0190
  588MOL0     O79280   6.300   2.605   3.702 -1.2596  0.2281  0.8052
  588MOL0     C79281   6.224   2.526   3.606 -0.5752 -0.0261 -0.7980
  588MOL0     C79282   6.136   2.429   3.685 -0.0152 -0.2881  0.2728
  588MOL0     C79283   6.058   2.343   3.593 -0.0440  0.5911 -0.5556
  588MOL0     C79284   6.108   2.196   3.594  0.6944 -0.1627 -0.1041
  588MOL0     C79285   6.026   2.122   3.482 -0.7885  0.6296  0.3609
  588MOL0     C79286   5.866   2.122   3.497  0.1856 -0.0978 -0.4999
  588MOL0     C79287   5.797   2.041   3.393  0.7175  0.6365 -1.0200
  588MOL0     C79288   5.756   2.117   3.272  0.1115  1.0356 -0.8126
  588MOL0    Cl79289   5.622   2.232   3.290 -0.2391 -0.1692 -0.1025
  588MOL0     C79290   6.254   2.828   3.614 -0.7707 -0.5809 -0.2194
  588MOL0     C79291   6.303   2.958   3.564  0.6185  0.1004 -0.3781
  588MOL0     O79292   6.605   3.034   3.353 -0.2715 -0.2163  0.1328
  588MOL0     C79293   6.644   3.296   3.242  1.2445 -0.1049 -0.1178
  588MOL0     C79294   6.676   3.424   3.205  0.3126  0.5183  0.2199
  588MOL0     N79295   7.084   3.544   2.876 -0.2097 -0.3784  0.0595
  588MOL0     N79296   7.198   3.588   2.812 -0.7653 -0.1908  0.2515
  588MOL0     C79297   7.643   2.956   2.701  0.1852  0.2221  0.8465
  588MOL0     C79298   7.726   2.874   2.777 -0.6036 -0.3051  0.5830
  588MOL0     C79299   7.993   2.547   2.956  0.8672 -0.2688 -0.8356
  588MOL0     C79300   8.092   2.604   3.040 -0.8553  0.3446  0.3354
  588MOL0     C79301   8.132   2.527   3.148 -1.3711 -0.2088 -0.2438
  588MOL0     C79302   8.106   2.396   3.170 -0.1096  0.1319 -0.0871
  588MOL0     O79303   8.169   2.344   3.285  1.0265  0.7406 -0.2084
  588MOL0     C79304   8.106   2.239   3.355 -0.6517 -0.0714  0.2316
  588MOL0     C79305   8.213   2.136   3.386  0.1287 -0.0956  0.8232
  588MOL0     C79306   8.165   2.055   3.509 -0.1903  0.1681 -0.3349
  588MOL0     C79307   8.263   1.954   3.567  0.6510  0.1095 -0.4759
  588MOL0     C79308   8.261   1.830   3.483  0.7817 -0.1375 -0.3275
  588MOL0     C79309   8.294   1.751   3.404 -0.6957 -0.0119  0.4879
  588MOL0     C79310   8.008   2.333   3.082 -0.6569 -1.1218 -0.1602
  588MOL0     C79311   7.943   2.412   2.980 -0.5840 -1.1953 -0.2235
  588MOL0     C79312   7.826   2.355   2.914 -1.2425 -0.1721 -0.5724
  588MOL0     H79313   7.628   2.564   2.691 -1.3284  0.0073 -0.2884
  588MOL0     H79314   7.459   2.694   2.564 -0.0282  1.4204 -0.2833
  588MOL0     H79315   7.549   2.886   2.382 -1.4391 -0.2255 -2.0760
  588MOL0     H79316   7.365   2.912   2.377 -1.5478  1.9881 -1.7954
  588MOL0     H79317   7.472   3.072   2.233 -0.9027 -1.6309  1.0950
  588MOL0     H79318   7.593   3.124   2.348  0.6061  1.6710 -3.1006
  588MOL0     H79319   7.395   3.209   2.492  2.3600  0.1250  0.4143
  588MOL0     H79320   7.303   3.167   2.345  0.6220 -2.3675  0.2891
  588MOL0     H79321   7.507   3.372   2.403 -0.7267 -1.3863  1.7980
  588MOL0     H79322   7.453   3.336   2.235 -0.4967 -2.8415  0.7035
  588MOL0     H79323   7.316   3.526   2.259 -3.5264 -0.8360 -1.2150
  588MOL0     H79324   7.214   3.406   2.333 -0.8385  2.1572 -2.2767
  588MOL0     H79325   7.270   3.470   2.552 -1.5731  1.0927 -0.5477
  588MOL0     H79326   7.427   3.527   2.523  0.9098 -1.9147 -0.2974
  588MOL0     H79327   7.154   3.639   2.445  1.5384 -0.1746 -2.7923
  588MOL0     H79328   7.296   3.730   2.399  0.8042  1.0870  1.5332
  588MOL0     H79329   7.363   3.715   2.657  1.2719  3.0413 -1.5855
  588MOL0     H79330   7.253   3.833   2.608  0.2889 -0.8457  0.7870
  588MOL0     H79331   6.968   3.730   2.639  0.5974 -1.9242 -1.7171
  588MOL0     H79332   6.785   3.543   2.771 -0.2264 -0.1734  0.2257
  588MOL0     H79333   6.828   3.507   2.940 -1.8630 -0.1326 -0.6113
  588MOL0     H79334   6.824   3.800   2.846  0.8960 -1.2727 -2.8140
  588MOL0     H79335   6.665   3.715   2.884 -0.3891 -0.3107  0.2342
  588MOL0     H79336   6.820   3.837   3.076  1.4878 -1.4681 -3.8386
  588MOL0     H79337   6.856   3.669   3.100  0.6039  1.6701  2.6461
  588MOL0     H79338   6.612   3.616   3.072  2.4065 -1.9820  2.6096
  588MOL0     H79339   6.583   3.787   3.112  0.1795  0.6067 -4.0516
  588MOL0     H79340   6.586   3.577   3.491 -2.3557 -0.7890  0.1574
  588MOL0     H79341   6.519   3.350   3.564 -1.7846 -0.3617  0.4446
  588MOL0     H79342   6.617   2.922   3.656  1.6361 -4.0085  0.8257
  588MOL0     H79343   6.547   2.699   3.719  1.8829  2.1567  0.0109
  588MOL0     H79344   6.161   2.598   3.552  0.3912  1.4442 -0.0456
  588MOL0     H79345   6.275   2.465   3.531 -0.1352 -1.0078  0.2689
  588MOL0     H79346   6.200   2.368   3.749 -1.5863 -0.5414  1.6674
  588MOL0     H79347   6.073   2.473   3.763  1.7507 -1.9203  2.7758
  588MOL0     H79348   5.954   2.352   3.624 -0.2601 -0.8323 -0.7968
  588MOL0     H79349   6.063   2.389   3.494  0.5813 -0.4316 -1.0260
  588MOL0     H79350   6.086   2.145   3.688 -0.1281  0.7888  0.2398
  588MOL0     H79351   6.215   2.186   3.574  1.1260  2.2037  0.6970
  588MOL0     H79352   6.046   2.020   3.514 -1.8239  0.3806  0.2629
  588MOL0     H79353   6.053   2.151   3.380 -0.5480  1.2144  0.5904
  588MOL0     H79354   5.835   2.078   3.592  0.2505 -1.5085 -1.1058
  588MOL0     H79355   5.828   2.223   3.477  0.5653 -0.0200 -0.8523
  588MOL0     H79356   5.708   1.994   3.437  0.7360 -0.0394 -1.6766
  588MOL0     H79357   5.851   1.947   3.375 -2.2918 -1.2012 -1.1991
  588MOL0     H79358   5.839   2.179   3.238  0.5906  1.7534  1.5399
  588MOL0     H79359   5.738   2.045   3.191  3.8905  0.1586 -1.0253
  588MOL0     H79360   6.147   2.812   3.611 -0.4220 -3.5246  0.2178
  588MOL0     H79361   6.243   3.042   3.530  0.7374 -0.2126 -1.3775
  588MOL0     H79362   6.664   3.213   3.175  1.6971 -0.6228  0.6269
  588MOL0     H79363   6.730   3.442   3.112 -0.6747  0.3850 -0.3980
  588MOL0     H79364   7.642   3.065   2.700  0.5510  0.2294  0.0005
  588MOL0     H79365   7.787   2.912   2.858 -1.4530  0.3214  0.9322
  588MOL0     H79366   8.130   2.702   3.012 -3.1764  2.0836  2.6675
  588MOL0     H79367   8.208   2.579   3.206  3.2448 -4.6974 -1.4708
  588MOL0     H79368   8.029   2.181   3.303  1.5160 -6.0634  2.8530
  588MOL0     H79369   8.065   2.290   3.443  1.5135  1.1891  0.5723
  588MOL0     H79370   8.315   2.169   3.408 -0.2719  2.1277 -0.4018
  588MOL0     H79371   8.218   2.087   3.287  1.5932  0.4791  0.5813
  588MOL0     H79372   8.066   2.011   3.491 -0.8370  1.0705  0.8692
  588MOL0     H79373   8.160   2.130   3.588  1.5665  0.7246 -0.7129
  588MOL0     H79374   8.352   2.012   3.592  1.1159 -0.1377 -1.5214
  588MOL0     H79375   8.212   1.932   3.661  1.3312 -0.4594 -0.2318
  588MOL0     H79376   8.330   1.677   3.336  0.2786 -0.4356  1.4336
  588MOL0     H79377   7.975   2.234   3.114 -0.7717 -0.7913  0.7619
  588MOL0     H79378   7.785   2.274   2.976  0.2273  0.0370  0.7247
  588MOL0     H79379   7.740   2.422   2.916 -1.2549 -0.2027  0.7794
  588MOL0     H79380   7.844   2.317   2.813 -0.5144 -3.0296  0.5300
  589MOL0     O79381   1.614   3.235   8.736  0.2941  0.4596  0.4419
  589MOL0     C79382   1.607   3.181   8.843  0.4712 -0.5851 -1.3813
  589MOL0     O79383   1.692   3.200   8.952 -0.5660  0.7996 -0.7439
  589MOL0     C79384   1.824   3.241   8.931 -1.2847  0.0925 -0.5251
  589MOL0     C79385   1.921   3.138   8.971 -1.0457  0.0546  0.2085
  589MOL0     C79386   2.065   3.157   8.955 -0.0317  0.0894  0.3107
  589MOL0     C79387   2.109   3.271   8.874  0.6510  0.8809 -0.4046
  589MOL0     O79388   2.233   3.283   8.834 -0.8813 -0.0757  0.4827
  589MOL0     C79389   2.261   3.231   8.710 -0.0089  0.2118  0.6011
  589MOL0     C79390   2.401   3.273   8.662 -0.2239 -0.2860  0.4392
  589MOL0     C79391   2.443   3.227   8.519  0.1280 -0.0519 -0.6043
  589MOL0     C79392   2.562   3.306   8.486 -0.5946 -1.1701 -0.1477
  589MOL0     C79393   2.530   3.454   8.442 -0.1656 -0.0324 -0.8671
  589MOL0     C79394   2.462   3.466   8.304  0.3861 -0.8226 -0.1956
  589MOL0     C79395   2.476   3.609   8.258 -0.1376 -0.5881 -0.2565
  589MOL0     C79396   2.341   3.672   8.219 -0.4005  0.5801  0.8160
  589MOL0     N79397   2.276   3.736   8.339 -0.3270  0.3526  1.5958
  589MOL0     C79398   2.207   3.668   8.434 -0.3326 -0.5837 -0.7612
  589MOL0     C79399   2.178   3.768   8.524  0.5225 -0.4112  0.7801
  589MOL0     C79400   2.124   3.753   8.663 -0.0219 -0.4681  1.2817
  589MOL0     C79401   2.236   3.706   8.753  0.2643  0.8434  0.0574
  589MOL0     C79402   2.335   3.814   8.776  0.7148 -0.2438 -0.4464
  589MOL0     C79403   2.408   3.781   8.911 -0.4211 -0.7630  0.4329
  589MOL0     O79404   2.447   3.643   8.919 -0.1121  0.9303  0.1475
  589MOL0     C79405   2.572   3.615   8.860  0.0140  0.6304 -0.0988
  589MOL0     C79406   2.606   3.483   8.871  0.3466  0.8114  0.3314
  589MOL0     C79407   2.722   3.424   8.823 -0.4199 -0.4844  0.2557
  589MOL0     C79408   2.820   3.512   8.764  0.6047 -1.0968  0.0146
  589MOL0     C79409   2.941   3.451   8.719  0.4496  1.2994  0.6279
  589MOL0     O79410   2.955   3.301   8.709 -0.7776 -0.3211 -0.8267
  589MOL0     C79411   3.063   3.267   8.646  1.5618  0.3321 -0.8999
  589MOL0     C79412   3.093   3.320   8.517 -0.1876  0.9862 -0.5417
  589MOL0     C79413   3.197   3.263   8.439  1.3268 -0.1694 -0.0904
  589MOL0     C79414   3.272   3.165   8.496 -0.3991  0.8654 -0.8611
  589MOL0     O79415   3.371   3.113   8.422 -0.5159  0.1190  0.6212
  589MOL0     C79416   3.368   2.966   8.418 -0.8085 -0.1459 -0.0153
  589MOL0     C79417   3.249   2.924   8.332  0.1670 -0.9304  0.0546
  589MOL0     C79418   3.267   2.773   8.304 -0.4569 -0.4120  0.3100
  589MOL0     C79419   3.249   2.756   8.159  0.0988  0.4952 -0.2981
  589MOL0     C79420   3.234   2.605   8.126 -0.7629  0.3164  0.7677
  589MOL0     C79421   3.364   2.528   8.099 -0.4655 -0.0457  0.4315
  589MOL0     C79422   3.426   2.561   7.967 -0.7448  0.5787 -0.0961
  589MOL0     C79423   3.510   2.448   7.909 -0.7039 -0.6685  0.8096
  589MOL0    Cl79424   3.385   2.336   7.839 -0.6982  0.2931  0.2511
  589MOL0     C79425   3.267   3.134   8.637  0.2746 -0.2741  0.0043
  589MOL0     C79426   3.153   3.176   8.712  0.8369 -0.4045  0.9325
  589MOL0     O79427   3.030   3.531   8.690  0.5252  0.7047 -0.0793
  589MOL0     C79428   2.783   3.650   8.749  0.6031  0.9083  0.1740
  589MOL0     C79429   2.654   3.693   8.783 -0.1277  0.1301 -0.8443
  589MOL0     N79430   2.229   3.886   8.474  0.7709 -0.6088 -0.9580
  589MOL0     N79431   2.290   3.865   8.368 -0.8304  0.0435  0.1623
  589MOL0     C79432   2.010   3.361   8.819  0.6484 -0.7595  0.2288
  589MOL0     C79433   1.871   3.351   8.855 -0.6234 -0.0578  0.7384
  589MOL0     C79434   1.477   3.129   8.898 -0.1260  0.2684  0.0772
  589MOL0     C79435   1.443   3.161   9.043  0.4429 -0.0978  0.6614
  589MOL0     C79436   1.327   3.092   9.088 -0.1982 -0.3130 -0.7739
  589MOL0     C79437   1.241   3.014   9.011 -0.9223  0.2093 -0.2028
  589MOL0     O79438   1.138   2.944   9.056 -0.1404 -0.0337 -0.4635
  589MOL0     C79439   1.017   3.016   9.042  0.6491  0.5200  0.0151
  589MOL0     C79440   0.960   3.050   9.178  0.3839 -0.0624  0.5626
  589MOL0     C79441   0.891   2.919   9.238 -0.1846  0.5274 -0.2619
  589MOL0     C79442   0.774   2.938   9.329 -0.0417 -0.7478  0.3825
  589MOL0     C79443   0.649   3.001   9.264 -0.7879 -0.6803 -0.5697
  589MOL0     C79444   0.552   3.069   9.239  0.6955  0.0157 -0.6306
  589MOL0     C79445   1.277   2.984   8.879  0.3821  0.2089  0.1079
  589MOL0     C79446   1.391   3.045   8.822  0.2579 -0.5751  0.0333
  589MOL0     C79447   1.439   3.006   8.684 -0.2213 -0.1826 -0.4927
  589MOL0     H79448   1.882   3.040   8.996  1.6467 -1.6259 -1.6185
  589MOL0     H79449   2.131   3.082   8.997 -0.7736  0.4121  2.1385
  589MOL0     H79450   2.270   3.124   8.731  0.5807  0.5533  2.2461
  589MOL0     H79451   2.192   3.253   8.628  1.0687  1.2863 -0.0341
  589MOL0     H79452   2.476   3.241   8.736 -0.9495 -0.6176  1.0385
  589MOL0     H79453   2.392   3.382   8.656 -5.0626 -0.5473 -1.8066
  589MOL0     H79454   2.360   3.240   8.450 -1.4931  1.9832  1.5548
  589MOL0     H79455   2.465   3.120   8.525  1.1229  0.1895  0.6884
  589MOL0     H79456   2.641   3.315   8.561 -0.3825  2.5893 -0.6257
  589MOL0     H79457   2.605   3.265   8.394 -0.8112  2.2800 -1.9456
  589MOL0     H79458   2.492   3.510   8.528 -0.2228 -1.6705  0.2290
  589MOL0     H79459   2.633   3.488   8.423  0.4086 -1.7808 -1.0776
  589MOL0     H79460   2.511   3.392   8.240 -1.6112  0.1390 -3.0496
  589MOL0     H79461   2.362   3.425   8.319  1.3084 -3.5575 -0.8990
  589MOL0     H79462   2.544   3.617   8.172  0.1682  0.1182  0.0420
  589MOL0     H79463   2.520   3.668   8.339 -1.5997 -1.6106  1.3554
  589MOL0     H79464   2.370   3.756   8.155  0.6119 -1.2487 -1.2440
  589MOL0     H79465   2.266   3.610   8.168  0.0311  2.3282 -2.1583
  589MOL0     H79466   2.182   3.564   8.446 -1.0720 -0.2603  0.6666
  589MOL0     H79467   2.087   3.852   8.690 -0.5380 -0.7852  1.7647
  589MOL0     H79468   2.038   3.685   8.667 -1.0607  0.7260  5.9636
  589MOL0     H79469   2.192   3.674   8.848  0.8032 -2.3918 -0.6493
  589MOL0     H79470   2.292   3.621   8.712 -3.3984 -2.0565  0.4193
  589MOL0     H79471   2.279   3.905   8.798 -2.0081 -1.6965 -0.9901
  589MOL0     H79472   2.401   3.835   8.692  0.4050 -0.1571 -0.6681
  589MOL0     H79473   2.340   3.789   8.997 -0.9079  2.0512 -0.0947
  589MOL0     H79474   2.492   3.850   8.927 -3.4163  3.2396  0.5941
  589MOL0     H79475   2.541   3.420   8.931  2.9802  0.4944  3.0564
  589MOL0     H79476   2.738   3.319   8.847  0.2158 -0.4856 -0.1742
  589MOL0     H79477   3.017   3.384   8.473 -1.9801 -1.4557 -1.1954
  589MOL0     H79478   3.221   3.313   8.346 -0.5855  1.1375  0.0460
  589MOL0     H79479   3.461   2.927   8.375 -0.9166 -1.7722  1.1236
  589MOL0     H79480   3.360   2.925   8.519 -1.8207  0.8046  0.3126
  589MOL0     H79481   3.155   2.936   8.386  0.4266  0.0757  0.3105
  589MOL0     H79482   3.251   2.987   8.243 -1.2842 -2.9584 -1.5038
  589MOL0     H79483   3.365   2.732   8.328  0.9910 -0.5461 -4.7262
  589MOL0     H79484   3.189   2.718   8.359 -1.7000  1.0246  0.0399
  589MOL0     H79485   3.342   2.791   8.113  2.2017 -1.0507  2.4724
  589MOL0     H79486   3.158   2.809   8.131 -1.6782 -1.3132  1.6531
  589MOL0     H79487   3.168   2.604   8.039  0.5010 -0.1561 -0.1983
  589MOL0     H79488   3.177   2.561   8.209 -2.6504 -0.8239 -1.0344
  589MOL0     H79489   3.436   2.539   8.180  0.7652  2.9284 -0.9380
  589MOL0     H79490   3.338   2.421   8.098 -0.9546  0.0711  0.2200
  589MOL0     H79491   3.487   2.650   7.985 -0.7298  0.2292  1.7302
  589MOL0     H79492   3.342   2.590   7.903 -1.2139 -0.4583  0.0388
  589MOL0     H79493   3.584   2.481   7.836 -1.3204 -0.0182  0.4651
  589MOL0     H79494   3.565   2.399   7.990  0.4946 -3.1162 -1.3553
  589MOL0     H79495   3.328   3.061   8.689 -1.2148 -1.7247 -0.2070
  589MOL0     H79496   3.124   3.147   8.812  3.5710 -1.7759  1.4237
  589MOL0     H79497   2.849   3.726   8.709 -2.1370  2.4761 -1.6875
  589MOL0     H79498   2.625   3.793   8.754  1.6655  1.3576  1.2552
  589MOL0     H79499   2.033   3.449   8.759 -0.0148 -0.4660  0.3961
  589MOL0     H79500   1.803   3.424   8.812  1.8295  1.0900 -1.4611
  589MOL0     H79501   1.505   3.229   9.101  0.9389 -0.0028  0.0339
  589MOL0     H79502   1.295   3.120   9.188 -2.4140  0.7356 -1.7278
  589MOL0     H79503   0.935   2.966   8.990 -1.9397  3.5316  0.9014
  589MOL0     H79504   1.030   3.115   8.997  0.4327  1.4709  1.9633
  589MOL0     H79505   0.879   3.122   9.179 -0.4843 -1.0157  1.3940
  589MOL0     H79506   1.047   3.074   9.241 -1.5920 -1.3591  4.0368
  589MOL0     H79507   0.972   2.869   9.293 -0.1173  0.7759 -0.1335
  589MOL0     H79508   0.855   2.858   9.154 -1.3361 -0.1197  0.6694
  589MOL0     H79509   0.749   2.838   9.366  0.9815 -1.4304 -0.7099
  589MOL0     H79510   0.803   2.991   9.420  0.7466  0.2165 -0.4085
  589MOL0     H79511   0.479   3.140   9.206  1.3247  2.3224  2.4065
  589MOL0     H79512   1.218   2.925   8.810  1.4300 -0.3344 -0.3501
  589MOL0     H79513   1.430   3.094   8.619 -2.3001 -0.2687 -0.3933
  589MOL0     H79514   1.543   2.973   8.678  1.5826  4.7325 -0.8782
  589MOL0     H79515   1.376   2.928   8.642 -0.4827  0.3161 -1.0448
  590MOL0     O79516   7.200   0.171   2.858 -0.1472  1.4414 -0.0184
  590MOL0     C79517   7.310   0.200   2.828  0.5819 -0.7841  0.5714
  590MOL0     O79518   7.349   0.234   2.701  0.4867  0.0151 -0.0719
  590MOL0     C79519   7.257   0.228   2.594  0.5648 -0.0579 -0.1545
  590MOL0     C79520   7.224   0.099   2.548 -0.7384 -0.5323  0.9160
  590MOL0     C79521   7.143   0.076   2.436 -0.0892 -0.4355  0.8506
  590MOL0     C79522   7.081   0.180   2.369 -0.0062  0.6770 -0.1437
  590MOL0     O79523   6.997   0.148   2.264  0.2241 -0.1750 -0.7626
  590MOL0     C79524   6.966   0.250   2.160 -0.2097  0.6175 -0.8534
  590MOL0     C79525   6.830   0.302   2.184 -0.8416 -0.0722  0.8986
  590MOL0     C79526   6.826   0.407   2.304 -0.3156  0.3762  0.6056
  590MOL0     C79527   6.699   0.494   2.318 -0.3617  0.6779 -0.1426
  590MOL0     C79528   6.585   0.415   2.365  0.4386  0.3973 -0.0913
  590MOL0     C79529   6.473   0.494   2.424 -0.1639  0.4850 -1.1734
  590MOL0     C79530   6.404   0.582   2.329  0.3214  0.4141  0.6660
  590MOL0     C79531   6.303   0.511   2.225  0.8992 -0.2784  0.9360
  590MOL0     N79532   6.384   0.476   2.108  0.1444 -0.2559 -0.7552
  590MOL0     C79533   6.407   0.348   2.054 -1.0422 -0.1344 -0.2900
  590MOL0     C79534   6.480   0.373   1.948  0.4463 -0.4450 -0.4007
  590MOL0     C79535   6.551   0.280   1.859  0.1364 -0.1773 -1.3499
  590MOL0     C79536   6.484   0.243   1.727  0.4083 -0.1523 -1.0943
  590MOL0     C79537   6.338   0.195   1.746  0.6683  0.1242  0.1337
  590MOL0     C79538   6.339   0.051   1.807 -0.6437 -0.4329 -0.4379
  590MOL0     O79539   6.382  -0.055   1.724  0.2253  0.1191  0.0366
  590MOL0     C79540   6.427  -0.164   1.792  1.0201 -0.5262 -0.0064
  590MOL0     C79541   6.370  -0.221   1.906  0.1372  0.1504  0.5385
  590MOL0     C79542   6.410  -0.337   1.964 -0.7144 -0.8011  0.3377
  590MOL0     C79543   6.526  -0.401   1.918 -0.0758 -0.3015 -0.4814
  590MOL0     C79544   6.579  -0.505   2.004  0.1802  0.3812 -0.5374
  590MOL0     O79545   6.687  -0.566   1.963  0.3822 -0.5182  0.6187
  590MOL0     C79546   6.762  -0.652   2.051  0.3535 -0.6248  0.0553
  590MOL0     C79547   6.895  -0.612   2.087 -0.8953 -0.2445 -0.5239
  590MOL0     C79548   6.978  -0.693   2.170 -0.1498 -0.3002 -0.7849
  590MOL0     C79549   6.924  -0.809   2.229 -0.1297  0.6478  0.5246
  590MOL0     O79550   6.994  -0.913   2.280 -0.1267 -0.6475 -0.3561
  590MOL0     C79551   7.128  -0.882   2.306 -0.3265 -0.5839 -0.3397
  590MOL0     C79552   7.198  -0.998   2.381 -0.3433  0.7286 -0.1004
  590MOL0     C79553   7.104  -1.078   2.471  0.3956 -1.3212 -0.4815
  590MOL0     C79554   7.179  -1.170   2.566 -0.3109  0.6084 -0.7009
  590MOL0     C79555   7.227  -1.297   2.485  0.4258  0.1659  0.5160
  590MOL0     C79556   7.304  -1.386   2.585  0.0219  1.0192 -0.1741
  590MOL0     C79557   7.458  -1.377   2.563 -0.3823  0.6530  0.0194
  590MOL0     C79558   7.546  -1.435   2.668  0.5478  0.5551  0.7774
  590MOL0    Cl79559   7.494  -1.612   2.682  0.2727 -0.3994  0.2169
  590MOL0     C79560   6.793  -0.848   2.199 -0.7386 -0.1651 -0.2118
  590MOL0     C79561   6.715  -0.767   2.115  1.1610 -1.7071 -0.5466
  590MOL0     O79562   6.524  -0.523   2.105  0.3700  1.2698  0.7453
  590MOL0     C79563   6.586  -0.349   1.806 -0.0803 -0.2771 -0.0796
  590MOL0     C79564   6.532  -0.238   1.745  0.9337  0.3818  0.1433
  590MOL0     N79565   6.485   0.506   1.907  1.4639 -0.0220 -0.1259
  590MOL0     N79566   6.438   0.560   2.019  0.6433 -0.2534  0.1865
  590MOL0     C79567   7.120   0.305   2.412  0.6191 -0.7757 -0.1582
  590MOL0     C79568   7.213   0.330   2.515  0.1789  0.6898 -0.3865
  590MOL0     C79569   7.412   0.225   2.937 -0.7180 -0.5454  0.5593
  590MOL0     C79570   7.547   0.237   2.890 -0.3458  1.1703 -0.2925
  590MOL0     C79571   7.658   0.244   2.975  0.6161  0.2501 -0.6210
  590MOL0     C79572   7.635   0.247   3.112 -0.0748  0.2219 -0.3461
  590MOL0     O79573   7.722   0.292   3.206 -0.3961  0.0052 -0.3910
  590MOL0     C79574   7.860   0.290   3.173  0.6103 -1.4148  0.1655
  590MOL0     C79575   7.931   0.343   3.298  0.5939 -0.0142 -0.8821
  590MOL0     C79576   7.928   0.222   3.395 -0.7995  0.9855  0.1543
  590MOL0     C79577   7.995   0.246   3.536 -0.4777 -0.0977  0.7914
  590MOL0     C79578   8.125   0.309   3.511  0.2749  0.0941  0.3130
  590MOL0     C79579   8.237   0.352   3.477  0.5534 -0.9141  0.3750
  590MOL0     C79580   7.498   0.258   3.157 -0.2660  0.8325 -0.4687
  590MOL0     C79581   7.385   0.239   3.068  0.2513 -0.4778 -0.4018
  590MOL0     C79582   7.251   0.252   3.131  0.8801  0.0371 -0.6557
  590MOL0     H79583   7.261   0.010   2.597 -0.6327 -1.6711 -1.1392
  590MOL0     H79584   7.121  -0.022   2.397 -0.0076 -0.5336  1.0505
  590MOL0     H79585   7.038   0.332   2.151  2.1844 -1.4602 -1.7964
  590MOL0     H79586   6.963   0.198   2.064  0.4077 -1.9987  0.4479
  590MOL0     H79587   6.749   0.229   2.193 -1.2604 -0.4246 -3.3713
  590MOL0     H79588   6.809   0.354   2.090 -0.7364 -1.7382 -0.0964
  590MOL0     H79589   6.901   0.485   2.286 -0.3527  0.9862  2.8667
  590MOL0     H79590   6.840   0.341   2.390 -0.8787 -0.2847  0.1997
  590MOL0     H79591   6.711   0.582   2.382 -1.9882  2.2973 -1.9352
  590MOL0     H79592   6.685   0.532   2.217  3.5432  1.5492 -0.5179
  590MOL0     H79593   6.549   0.350   2.285  0.2960 -1.3287  1.3193
  590MOL0     H79594   6.616   0.345   2.444 -2.2607 -0.1081  0.6065
  590MOL0     H79595   6.391   0.437   2.466 -0.4922  1.7744  0.0042
  590MOL0     H79596   6.520   0.560   2.498 -0.0601 -0.3436 -0.4882
  590MOL0     H79597   6.474   0.634   2.263  0.7658 -0.2250  0.6233
  590MOL0     H79598   6.349   0.653   2.392 -2.1091 -1.3656  0.7008
  590MOL0     H79599   6.257   0.425   2.274  2.3244 -1.7086 -0.1560
  590MOL0     H79600   6.228   0.587   2.199  0.4912 -0.6463  1.0165
  590MOL0     H79601   6.376   0.255   2.100  0.2738 -0.5419 -0.2072
  590MOL0     H79602   6.654   0.317   1.851  0.5626 -0.6910  0.9401
  590MOL0     H79603   6.571   0.182   1.903 -3.7607 -0.9923 -1.0332
  590MOL0     H79604   6.479   0.328   1.659 -0.2786  1.6759  1.1386
  590MOL0     H79605   6.536   0.162   1.674  0.5828  0.0033 -1.1609
  590MOL0     H79606   6.280   0.183   1.654  0.7747 -0.4578  0.1394
  590MOL0     H79607   6.287   0.259   1.817  0.9631  0.3869  0.1126
  590MOL0     H79608   6.235   0.025   1.827 -0.7241 -1.7657 -2.3860
  590MOL0     H79609   6.401   0.059   1.897  1.9467  0.3197 -2.1794
  590MOL0     H79610   6.287  -0.163   1.944  0.4242  0.7641  0.2491
  590MOL0     H79611   6.347  -0.367   2.047 -0.3250 -0.4559  0.7610
  590MOL0     H79612   6.938  -0.525   2.037  0.8425 -1.3001 -0.9638
  590MOL0     H79613   7.084  -0.668   2.175 -0.3105  2.0153 -4.7559
  590MOL0     H79614   7.191  -0.857   2.219 -2.8981  2.6326 -1.4946
  590MOL0     H79615   7.131  -0.794   2.371  0.6260  0.3761 -1.6211
  590MOL0     H79616   7.224  -1.072   2.304 -1.0672  1.7289 -1.3466
  590MOL0     H79617   7.289  -0.973   2.435  0.7379 -3.2497  0.2744
  590MOL0     H79618   7.063  -0.999   2.535  1.3341 -2.1750  1.2351
  590MOL0     H79619   7.029  -1.124   2.406 -0.5521 -0.1130 -0.2912
  590MOL0     H79620   7.105  -1.197   2.640 -1.0221  5.7238  0.8844
  590MOL0     H79621   7.267  -1.123   2.613 -0.6788 -1.8178  2.7298
  590MOL0     H79622   7.285  -1.275   2.395 -0.2400 -0.8690 -0.1916
  590MOL0     H79623   7.132  -1.335   2.447 -0.1749  1.9049  0.2109
  590MOL0     H79624   7.288  -1.358   2.690  0.4800  1.0155 -0.0997
  590MOL0     H79625   7.271  -1.490   2.584  0.8004  0.7477 -2.2458
  590MOL0     H79626   7.485  -1.273   2.544  2.6442 -0.4376 -2.6805
  590MOL0     H79627   7.489  -1.428   2.470 -1.5177 -0.1602  0.0633
  590MOL0     H79628   7.654  -1.425   2.654  0.8833  0.3217  2.8701
  590MOL0     H79629   7.521  -1.371   2.753  1.4776  1.7372  0.1870
  590MOL0     H79630   6.755  -0.943   2.234 -0.1404  0.0498  1.0725
  590MOL0     H79631   6.616  -0.802   2.091 -0.7760  1.2665  2.2217
  590MOL0     H79632   6.675  -0.403   1.777  0.8927  0.2731  1.7007
  590MOL0     H79633   6.586  -0.212   1.655  0.2831 -0.4044 -0.4948
  590MOL0     H79634   7.083   0.398   2.372 -1.4488 -0.8105  1.4921
  590MOL0     H79635   7.242   0.430   2.546 -0.3156  0.2056  1.8275
  590MOL0     H79636   7.570   0.223   2.784 -3.3116  0.4151 -0.9238
  590MOL0     H79637   7.753   0.253   2.923  1.6136 -4.3099  0.0303
  590MOL0     H79638   7.872   0.364   3.093 -2.3234 -1.6942 -0.6803
  590MOL0     H79639   7.894   0.188   3.154 -0.5899 -1.7166 -0.4619
  590MOL0     H79640   7.878   0.430   3.338  0.8735 -0.2241 -0.0438
  590MOL0     H79641   8.033   0.371   3.273  0.7359  0.6227  0.3581
  590MOL0     H79642   7.981   0.138   3.351  1.2224  2.0626  0.4200
  590MOL0     H79643   7.825   0.189   3.410 -0.5048 -0.2891 -0.5189
  590MOL0     H79644   7.932   0.312   3.596  1.8081  2.4031  0.6543
  590MOL0     H79645   8.010   0.148   3.583 -2.3030 -0.8214 -0.0316
  590MOL0     H79646   8.335   0.396   3.467  1.4081 -3.1055 -2.2071
  590MOL0     H79647   7.473   0.276   3.261  1.0650  2.0707 -0.3225
  590MOL0     H79648   7.169   0.189   3.095 -1.4690  2.6249 -0.1546
  590MOL0     H79649   7.281   0.235   3.234  2.0220  0.3149 -0.9328
  590MOL0     H79650   7.221   0.356   3.148 -5.4552 -1.5728  0.7893
  591MOL0     O79651   1.457   5.143   7.522  0.3918 -0.4245 -0.8149
  591MOL0     C79652   1.343   5.139   7.478  0.2193 -1.3801 -0.5988
  591MOL0     O79653   1.238   5.070   7.532 -0.5656  0.0799 -0.3199
  591MOL0     C79654   1.244   5.005   7.655 -0.4548 -0.3276 -1.5332
  591MOL0     C79655   1.187   4.872   7.664 -0.5995 -0.0496 -0.0771
  591MOL0     C79656   1.181   4.804   7.780  0.4351 -0.4358 -0.3113
  591MOL0     C79657   1.224   4.868   7.901 -0.6086  0.5463 -0.7165
  591MOL0     O79658   1.200   4.819   8.028 -0.2318  0.5241  0.3405
  591MOL0     C79659   1.100   4.713   8.037 -0.0950 -0.5015 -0.0995
  591MOL0     C79660   1.031   4.738   8.169 -0.7136  0.9626 -0.1672
  591MOL0     C79661   0.961   4.614   8.219 -0.1676 -0.8435 -0.2943
  591MOL0     C79662   0.850   4.628   8.322 -0.9654  1.1331 -0.1986
  591MOL0     C79663   0.886   4.704   8.450 -0.9415 -0.8441 -0.7003
  591MOL0     C79664   0.771   4.728   8.546 -0.2706 -0.6216  0.6455
  591MOL0     C79665   0.806   4.815   8.662 -0.0347 -0.6052 -0.7989
  591MOL0     C79666   0.696   4.811   8.786  1.0791  0.5282  0.3815
  591MOL0     N79667   0.741   4.909   8.888  0.5697  0.0533  0.6277
  591MOL0     C79668   0.840   4.894   8.978 -0.1994  0.7366  0.3729
  591MOL0     C79669   0.819   4.987   9.076 -0.2984 -0.5641 -0.1522
  591MOL0     C79670   0.922   5.006   9.181 -0.3150  0.2205  0.0641
  591MOL0     C79671   0.908   5.144   9.259  1.0457  0.7071  0.5210
  591MOL0     C79672   1.023   5.151   9.347 -1.3746 -0.5374 -0.5797
  591MOL0     C79673   1.031   5.263   9.436  0.3329 -0.4251 -0.3952
  591MOL0     O79674   0.951   5.258   9.553 -0.3575  0.1712 -0.8952
  591MOL0     C79675   0.995   5.189   9.661 -0.3378  0.2391 -0.3469
  591MOL0     C79676   0.926   5.207   9.772  0.1965  0.3044 -0.0006
  591MOL0     C79677   0.981   5.163   9.894  0.0112 -0.4008  0.1774
  591MOL0     C79678   1.083   5.075   9.912 -0.1295 -0.9292 -0.6279
  591MOL0     C79679   1.129   5.016  10.052 -0.5649 -0.0307  0.0451
  591MOL0     O79680   1.033   4.984  10.142  0.3578  0.6339  0.5381
  591MOL0     C79681   1.063   4.930  10.263  0.9190 -0.1875  1.1369
  591MOL0     C79682   1.175   4.964  10.334 -0.6932 -0.4164 -0.5617
  591MOL0     C79683   1.188   4.894  10.457  0.4091  0.8303  0.9921
  591MOL0     C79684   1.100   4.788  10.498 -0.6452 -0.1537  0.2600
  591MOL0     O79685   1.141   4.722  10.612 -0.3350 -0.0772  0.6399
  591MOL0     C79686   1.073   4.601  10.658 -0.0369 -0.6912 -0.3375
  591MOL0     C79687   1.096   4.595  10.808 -0.0663 -0.2383  0.0467
  591MOL0     C79688   1.041   4.467  10.874  0.3004  1.0756 -0.9352
  591MOL0     C79689   0.999   4.496  11.017  0.2289 -0.5901  0.8654
  591MOL0     C79690   0.954   4.365  11.082 -0.1571  0.3876  0.2598
  591MOL0     C79691   0.960   4.382  11.235 -0.1449  0.3494  0.7327
  591MOL0     C79692   0.911   4.258  11.312 -0.1141  1.0128 -0.4676
  591MOL0     C79693   0.991   4.133  11.300  0.1605  1.1082 -0.4882
  591MOL0    Cl79694   0.960   4.004  11.425 -0.0809  0.1805 -0.2820
  591MOL0     C79695   0.990   4.763  10.416 -0.3858  0.1396  0.4704
  591MOL0     C79696   0.972   4.837  10.303 -0.0786 -0.6576  0.8592
  591MOL0     O79697   1.247   5.034  10.076  0.4804  0.0661 -0.8585
  591MOL0     C79698   1.151   5.056   9.794 -0.5989 -0.5522 -0.3300
  591MOL0     C79699   1.105   5.106   9.671 -0.1061  0.0937 -0.1441
  591MOL0     N79700   0.706   5.045   9.053  0.0819  0.6051 -1.5594
  591MOL0     N79701   0.660   4.996   8.941 -0.2498 -0.2044  0.1792
  591MOL0     C79702   1.266   5.003   7.899  0.1947  0.4709 -0.5978
  591MOL0     C79703   1.284   5.066   7.777 -0.6454 -0.8923 -0.4944
  591MOL0     C79704   1.310   5.215   7.360 -0.1634 -0.2268 -0.6455
  591MOL0     C79705   1.375   5.159   7.239  0.8778  0.4553 -0.3914
  591MOL0     C79706   1.355   5.222   7.121 -0.0239  0.8316  0.5498
  591MOL0     C79707   1.280   5.338   7.110 -0.1798  0.5772 -1.6463
  591MOL0     O79708   1.232   5.403   6.996  0.1369 -0.1736 -0.2343
  591MOL0     C79709   1.258   5.343   6.865 -0.0646 -0.8716  0.4449
  591MOL0     C79710   1.168   5.402   6.767  0.0576  0.9792  0.3335
  591MOL0     C79711   1.184   5.343   6.626  0.5296  0.1694 -0.0493
  591MOL0     C79712   1.197   5.186   6.613 -0.5053 -0.8818  0.1697
  591MOL0     C79713   1.089   5.109   6.654  0.2362 -0.2261  0.3814
  591MOL0     C79714   1.007   5.040   6.705 -0.2181  0.5375 -0.6559
  591MOL0     C79715   1.230   5.399   7.223  0.0720  0.5329 -0.2063
  591MOL0     C79716   1.240   5.335   7.344  0.1931  0.2048 -0.3751
  591MOL0     C79717   1.181   5.399   7.462 -1.2900  0.0197  0.0816
  591MOL0     H79718   1.157   4.824   7.571  3.0662 -0.2976 -1.3122
  591MOL0     H79719   1.137   4.705   7.781  0.4691 -0.4598 -0.7949
  591MOL0     H79720   1.025   4.731   7.960  3.7141 -0.2036 -4.1640
  591MOL0     H79721   1.148   4.617   8.016  3.7315  0.8584  1.4945
  591MOL0     H79722   0.958   4.819   8.174 -0.6021  1.0070  0.8177
  591MOL0     H79723   1.111   4.747   8.243  0.7388 -2.9397 -0.9805
  591MOL0     H79724   1.024   4.534   8.260  1.5526  1.1314  1.1177
  591MOL0     H79725   0.914   4.572   8.130 -0.1646 -1.0246 -0.2097
  591MOL0     H79726   0.776   4.683   8.263  1.8245  1.3530 -3.8753
  591MOL0     H79727   0.811   4.528   8.341  0.3733  0.7990  0.9859
  591MOL0     H79728   0.952   4.637   8.507  0.9735  0.3071 -1.4531
  591MOL0     H79729   0.958   4.786   8.437  4.7315 -5.5061 -3.6756
  591MOL0     H79730   0.689   4.774   8.490  0.7330  0.0523 -0.3070
  591MOL0     H79731   0.735   4.632   8.583 -0.1373 -0.4697  1.1775
  591MOL0     H79732   0.824   4.916   8.623  0.9442 -0.4711 -0.0320
  591MOL0     H79733   0.902   4.783   8.702 -0.5625 -1.4951 -0.2321
  591MOL0     H79734   0.597   4.841   8.751 -0.6268 -1.6519  2.9269
  591MOL0     H79735   0.676   4.714   8.831 -2.8844 -0.0958 -2.2250
  591MOL0     H79736   0.928   4.830   8.983 -1.9291 -1.9429 -1.3404
  591MOL0     H79737   0.927   4.932   9.262  2.9864 -0.1677 -0.3434
  591MOL0     H79738   1.018   5.010   9.128 -1.0574  1.2865 -1.2651
  591MOL0     H79739   0.900   5.227   9.188 -0.0484 -0.5245 -0.8655
  591MOL0     H79740   0.810   5.142   9.309 -1.4344 -2.9221 -3.7561
  591MOL0     H79741   1.110   5.141   9.280 -1.4993 -4.0133 -0.3991
  591MOL0     H79742   1.020   5.064   9.413 -1.4525  1.3363  2.0174
  591MOL0     H79743   1.007   5.351   9.375 -0.3136  0.8301  1.5719
  591MOL0     H79744   1.133   5.279   9.470  0.0940 -0.0909  0.1863
  591MOL0     H79745   0.836   5.267   9.769  2.0168  3.1571 -1.4953
  591MOL0     H79746   0.932   5.184   9.989  0.1883 -0.3499  0.2559
  591MOL0     H79747   1.246   5.041  10.303 -1.1639 -0.1900 -1.0879
  591MOL0     H79748   1.278   4.901  10.517 -0.1264  3.5575  1.6249
  591MOL0     H79749   0.965   4.596  10.648 -0.1588 -0.1989  0.6044
  591MOL0     H79750   1.124   4.513  10.617 -0.7180 -1.5206  0.5499
  591MOL0     H79751   1.203   4.593  10.830  0.3022  1.4640 -1.4142
  591MOL0     H79752   1.060   4.686  10.857  1.1003 -0.2152  0.8940
  591MOL0     H79753   0.958   4.438  10.809 -1.4339  3.3025  0.1598
  591MOL0     H79754   1.122   4.394  10.874 -0.2079  0.4582  0.7411
  591MOL0     H79755   0.942   4.589  11.026 -0.8008 -0.9526 -1.3002
  591MOL0     H79756   1.092   4.515  11.071 -1.4942  0.0723  3.8857
  591MOL0     H79757   0.992   4.273  11.038 -2.6971 -1.1258  1.0372
  591MOL0     H79758   0.846   4.355  11.071  0.0617  0.7776 -3.1421
  591MOL0     H79759   1.062   4.396  11.271  1.7810 -4.6264 -1.7379
  591MOL0     H79760   0.905   4.473  11.258  1.1243  1.4668 -0.4483
  591MOL0     H79761   0.813   4.216  11.290  0.4906 -1.8214  1.6482
  591MOL0     H79762   0.910   4.294  11.415 -1.5436  1.6908 -0.7030
  591MOL0     H79763   0.977   4.087  11.201 -2.4689 -1.6824  1.0267
  591MOL0     H79764   1.098   4.159  11.304  0.8419 -0.4018 -4.0556
  591MOL0     H79765   0.908   4.694  10.436 -0.9546  0.5339 -0.4363
  591MOL0     H79766   0.894   4.832  10.228  1.2203  1.7187 -0.7699
  591MOL0     H79767   1.242   4.997   9.795  0.7498  1.4436 -0.5952
  591MOL0     H79768   1.163   5.079   9.583  1.4243  0.2602  0.7720
  591MOL0     H79769   1.286   5.044   7.998 -2.8296 -0.0250  0.3528
  591MOL0     H79770   1.303   5.173   7.770 -5.5696  0.1912 -0.5899
  591MOL0     H79771   1.440   5.072   7.249  1.2832  0.3706 -2.9371
  591MOL0     H79772   1.419   5.216   7.034 -0.1695  2.1233  0.3265
  591MOL0     H79773   1.228   5.239   6.877  0.6858 -1.0190  1.1492
  591MOL0     H79774   1.358   5.356   6.824  0.1415 -1.9265  0.5989
  591MOL0     H79775   1.202   5.506   6.756  0.7925  0.5287 -2.4697
  591MOL0     H79776   1.062   5.400   6.794  0.8809  0.0622  4.1139
  591MOL0     H79777   1.270   5.389   6.576  0.4301 -1.2876 -1.6558
  591MOL0     H79778   1.093   5.364   6.570  0.2781  1.5877  0.8208
  591MOL0     H79779   1.216   5.162   6.508  0.0103 -3.8736  0.8675
  591MOL0     H79780   1.287   5.156   6.667  0.9543  2.7156  0.0554
  591MOL0     H79781   0.935   4.982   6.759  0.3057  1.0696  0.6540
  591MOL0     H79782   1.182   5.497   7.218 -1.1975  0.0435  1.2432
  591MOL0     H79783   1.247   5.474   7.508 -2.6369  1.6800 -0.5554
  591MOL0     H79784   1.094   5.462   7.441 -0.7362  1.4205  1.7427
  591MOL0     H79785   1.156   5.335   7.547  1.4486 -0.8102  0.3474
  592MOL0     O79786   0.417   6.759  10.507 -0.0522 -0.4363 -0.1656
  592MOL0     C79787   0.335   6.668  10.541  0.5024 -0.1135  0.7143
  592MOL0     O79788   0.309   6.555  10.482 -0.0545  0.0188 -0.3006
  592MOL0     C79789   0.355   6.514  10.361 -0.9167 -0.1027  0.5649
  592MOL0     C79790   0.304   6.388  10.316 -0.4930 -0.7206 -0.8071
  592MOL0     C79791   0.341   6.333  10.189  0.4487  0.0691  0.2794
  592MOL0     C79792   0.426   6.410  10.104  0.0960 -1.4922  0.2796
  592MOL0     O79793   0.470   6.361   9.976  0.5437 -0.2747 -0.1091
  592MOL0     C79794   0.571   6.261  10.002 -1.0627 -0.9335  0.1052
  592MOL0     C79795   0.656   6.249   9.877 -0.2634  0.4673  0.4993
  592MOL0     C79796   0.742   6.123   9.871  0.4742 -0.3273 -0.0481
  592MOL0     C79797   0.847   6.118   9.974 -0.4404 -0.4000  0.3467
  592MOL0     C79798   0.961   6.009   9.948  0.6012 -0.7870  0.3495
  592MOL0     C79799   0.915   5.873   9.898  0.5608 -0.2023 -0.3256
  592MOL0     C79800   0.850   5.787  10.013  0.6748  0.0143  0.5792
  592MOL0     C79801   0.706   5.738   9.984 -0.3522 -0.0291 -0.1940
  592MOL0     N79802   0.700   5.652   9.873 -0.1593  0.2966  0.2967
  592MOL0     C79803   0.667   5.690   9.737  0.0551 -0.3568  0.0224
  592MOL0     C79804   0.688   5.582   9.665 -0.1072  0.2525 -1.1626
  592MOL0     C79805   0.657   5.557   9.525  0.0451  0.7541 -1.0750
  592MOL0     C79806   0.764   5.602   9.430  0.4226  0.7672 -0.1864
  592MOL0     C79807   0.737   5.537   9.287  0.5856 -0.4895 -0.2511
  592MOL0     C79808   0.614   5.614   9.211  1.0756 -0.8603 -0.6601
  592MOL0     O79809   0.621   5.757   9.208  0.6144  0.4495  0.2518
  592MOL0     C79810   0.715   5.828   9.145  0.0053 -0.0047 -0.2976
  592MOL0     C79811   0.807   5.783   9.063 -0.4421  0.6656 -0.7659
  592MOL0     C79812   0.900   5.870   9.006 -0.4050  0.7106 -0.1431
  592MOL0     C79813   0.908   6.010   9.034  0.1200  0.3003 -0.3494
  592MOL0     C79814   1.015   6.100   8.996 -0.0821 -0.3974  0.1620
  592MOL0     O79815   0.996   6.228   9.020 -0.1432  0.8775 -1.0063
  592MOL0     C79816   1.086   6.326   8.997 -1.2722 -0.1038 -0.1924
  592MOL0     C79817   1.157   6.375   9.104 -0.4552 -0.6233  0.5209
  592MOL0     C79818   1.249   6.477   9.069 -0.7089 -0.2609  0.9460
  592MOL0     C79819   1.258   6.536   8.937 -0.6139 -0.1612  0.1470
  592MOL0     O79820   1.350   6.632   8.906  0.2325  0.6474 -0.7960
  592MOL0     C79821   1.409   6.707   9.012  0.1077  0.3419 -0.1153
  592MOL0     C79822   1.309   6.795   9.080  0.3947 -1.1886 -0.1875
  592MOL0     C79823   1.377   6.880   9.196  0.8707  1.0028 -0.2743
  592MOL0     C79824   1.285   6.953   9.286  0.1281  0.1781 -0.7503
  592MOL0     C79825   1.184   7.053   9.228 -0.1975  0.1892 -1.2815
  592MOL0     C79826   1.136   7.150   9.340  0.3874  0.4623 -0.3546
  592MOL0     C79827   1.053   7.081   9.455  0.4288  0.0553  0.3734
  592MOL0     C79828   0.969   7.202   9.516  0.0426  0.0585  1.1412
  592MOL0    Cl79829   0.895   7.149   9.678 -0.4929  0.0857  0.1133
  592MOL0     C79830   1.190   6.483   8.836 -0.6493 -0.3531  0.3460
  592MOL0     C79831   1.107   6.377   8.868  1.0086 -0.2810  0.1967
  592MOL0     O79832   1.106   6.052   8.929  0.0404  0.3347  0.0704
  592MOL0     C79833   0.800   6.057   9.121  0.2520 -0.2061  0.5117
  592MOL0     C79834   0.710   5.971   9.180  0.0272 -0.1616 -0.1968
  592MOL0     N79835   0.736   5.486   9.752  0.0806  0.5929 -0.0233
  592MOL0     N79836   0.742   5.528   9.869 -1.2742  0.3894 -0.3013
  592MOL0     C79837   0.480   6.527  10.147 -0.5065 -0.7756  0.1245
  592MOL0     C79838   0.439   6.585  10.267 -0.4007  0.2523  0.5268
  592MOL0     C79839   0.252   6.697  10.659  0.9112 -0.1153 -0.3251
  592MOL0     C79840   0.193   6.823  10.668  0.1801 -0.1195  0.3810
  592MOL0     C79841   0.103   6.847  10.770 -0.5865 -0.4794  0.2321
  592MOL0     C79842   0.078   6.758  10.873  0.1285 -0.4296  0.6558
  592MOL0     O79843  -0.004   6.780  10.982  0.6628 -0.1765 -0.6482
  592MOL0     C79844   0.056   6.819  11.111 -0.4043 -0.6933 -0.0061
  592MOL0     C79845  -0.035   6.796  11.219  0.1881  1.2021 -0.4028
  592MOL0     C79846   0.034   6.840  11.360  0.3374  0.2496  0.7197
  592MOL0     C79847  -0.077   6.837  11.473  0.0624 -0.1952 -0.4175
  592MOL0     C79848  -0.034   6.886  11.603 -0.1147 -0.2030  0.1299
  592MOL0     C79849   0.014   6.930  11.706  0.4416  0.3024  0.7134
  592MOL0     C79850   0.130   6.628  10.862 -0.4705 -0.3371 -2.0240
  592MOL0     C79851   0.216   6.596  10.755 -0.3098  0.7856  0.5767
  592MOL0     C79852   0.256   6.450  10.749  0.6086 -0.3953 -0.1865
  592MOL0     H79853   0.247   6.332  10.390  1.0391 -1.2649  0.0091
  592MOL0     H79854   0.298   6.238  10.159 -3.3888  1.8127 -0.3840
  592MOL0     H79855   0.640   6.289  10.082 -1.0324  1.6568 -0.7517
  592MOL0     H79856   0.526   6.162  10.012  0.5036 -1.7414 -0.5458
  592MOL0     H79857   0.723   6.335   9.863  3.4476 -2.2633 -0.1111
  592MOL0     H79858   0.580   6.231   9.800  0.5527 -0.8723 -0.0260
  592MOL0     H79859   0.785   6.110   9.772 -0.5834 -2.9242 -0.2495
  592MOL0     H79860   0.681   6.032   9.880 -1.9257  1.3255  1.8587
  592MOL0     H79861   0.885   6.221   9.972  0.4838 -0.6062 -4.2440
  592MOL0     H79862   0.805   6.087  10.070 -0.3080 -1.1400  0.1733
  592MOL0     H79863   1.014   6.057   9.865 -1.9105  2.1293  0.2338
  592MOL0     H79864   1.022   6.004  10.039 -0.0028  0.0509  0.8129
  592MOL0     H79865   0.840   5.885   9.820  1.2011 -1.1111 -1.1055
  592MOL0     H79866   0.997   5.816   9.853 -0.5092 -1.7551 -0.3503
  592MOL0     H79867   0.844   5.848  10.103  0.8017 -1.1196  1.3822
  592MOL0     H79868   0.914   5.703  10.043  0.2957 -0.4203  0.1919
  592MOL0     H79869   0.669   5.687  10.073  1.1220 -3.4053 -1.3373
  592MOL0     H79870   0.634   5.819   9.968  0.0088  0.2614 -0.3345
  592MOL0     H79871   0.645   5.792   9.709 -2.0424 -0.9207 -0.5943
  592MOL0     H79872   0.652   5.448   9.516 -3.1379  0.6618  0.3809
  592MOL0     H79873   0.559   5.586   9.486  0.6036 -1.3550 -4.4525
  592MOL0     H79874   0.763   5.711   9.435 -0.9417  0.7283  0.9347
  592MOL0     H79875   0.863   5.571   9.466  0.2290 -0.9319 -1.0045
  592MOL0     H79876   0.715   5.430   9.293  0.9841 -0.7789 -2.9042
  592MOL0     H79877   0.834   5.555   9.240  0.4641  1.1934  0.0657
  592MOL0     H79878   0.518   5.593   9.258  0.2631  0.7313 -1.5330
  592MOL0     H79879   0.611   5.585   9.106 -0.2307  0.7241 -1.0970
  592MOL0     H79880   0.821   5.678   9.038 -3.0881 -0.6164  2.2819
  592MOL0     H79881   0.983   5.836   8.945  2.5069  1.8483  2.8989
  592MOL0     H79882   1.143   6.345   9.208  1.5780  3.0008  2.0382
  592MOL0     H79883   1.302   6.520   9.153 -0.2874 -0.5406  0.8229
  592MOL0     H79884   1.452   6.628   9.075 -1.9203 -1.1617 -0.5318
  592MOL0     H79885   1.492   6.765   8.968  2.1188 -2.3279 -0.1146
  592MOL0     H79886   1.261   6.865   9.011  0.4171 -0.2464  0.7445
  592MOL0     H79887   1.221   6.740   9.115 -2.6388  1.0975 -3.4256
  592MOL0     H79888   1.438   6.815   9.260 -0.8144 -1.4454 -0.9983
  592MOL0     H79889   1.432   6.955   9.139  1.0406 -1.9494 -4.4709
  592MOL0     H79890   1.348   7.002   9.361  0.9400 -1.8405 -0.0409
  592MOL0     H79891   1.221   6.893   9.351  0.9944  1.5270  1.4371
  592MOL0     H79892   1.096   7.007   9.182  0.1667 -1.9051 -0.0007
  592MOL0     H79893   1.223   7.113   9.145 -1.7366  1.9243 -0.8416
  592MOL0     H79894   1.223   7.191   9.392 -0.6896 -3.0621  5.1487
  592MOL0     H79895   1.075   7.223   9.287 -0.1662 -0.3351 -0.8460
  592MOL0     H79896   1.128   7.047   9.527 -0.3739 -2.6171  0.0360
  592MOL0     H79897   1.005   6.992   9.414  2.9863  0.0477 -3.1145
  592MOL0     H79898   1.028   7.292   9.535  1.6123 -0.5877 -0.3613
  592MOL0     H79899   0.891   7.228   9.443  0.9115 -0.0374  0.1594
  592MOL0     H79900   1.194   6.527   8.737  2.2275  3.6932  1.9983
  592MOL0     H79901   1.051   6.328   8.789 -1.8862  3.4115 -0.3505
  592MOL0     H79902   0.788   6.162   9.142 -0.0502  0.0040 -0.6456
  592MOL0     H79903   0.629   6.013   9.239 -0.8741  2.1390 -2.8729
  592MOL0     H79904   0.562   6.567  10.089 -0.7062 -0.8235 -0.1913
  592MOL0     H79905   0.501   6.673  10.281  0.1532 -0.1609  0.7232
  592MOL0     H79906   0.208   6.902  10.595 -1.9652  0.4313  0.4662
  592MOL0     H79907   0.045   6.939  10.769 -0.2333 -0.2070 -2.2345
  592MOL0     H79908   0.064   6.928  11.104 -0.7625 -0.6865 -0.4231
  592MOL0     H79909   0.158   6.782  11.118 -0.4614 -0.6995  0.9370
  592MOL0     H79910  -0.051   6.688  11.207  1.5182  1.0529 -1.0405
  592MOL0     H79911  -0.128   6.848  11.195 -0.7467 -0.3428 -0.3046
  592MOL0     H79912   0.061   6.944  11.340 -1.7137  0.7476  0.3692
  592MOL0     H79913   0.124   6.783  11.386  1.0404  0.7334 -0.5426
  592MOL0     H79914  -0.166   6.893  11.443 -0.3586 -1.4268 -1.6018
  592MOL0     H79915  -0.093   6.736  11.512  2.0876  0.8852  3.7552
  592MOL0     H79916   0.062   6.969  11.794  1.7330  0.0723  0.1322
  592MOL0     H79917   0.100   6.553  10.934 -0.5644  1.8386  0.3856
  592MOL0     H79918   0.223   6.392  10.836 -1.3386  1.3298  0.3162
  592MOL0     H79919   0.210   6.406  10.660  1.9653 -1.1787 -0.5260
  592MOL0     H79920   0.364   6.441  10.741  0.3893 -3.9686 -0.8528
  593MOL0     O79921   8.859   2.203  11.517 -0.8115  0.1931 -0.7067
  593MOL0     C79922   8.815   2.186  11.628 -0.6815  0.5535 -1.1538
  593MOL0     O79923   8.859   2.091  11.722 -0.5388  0.3270 -0.1737
  593MOL0     C79924   8.993   2.076  11.727 -0.1808  0.3435 -0.3650
  593MOL0     C79925   9.100   2.172  11.709  0.0511  0.8110  0.9000
  593MOL0     C79926   9.231   2.136  11.734  0.0342 -0.3847  0.0037
  593MOL0     C79927   9.262   2.005  11.777 -0.5503 -1.2806 -0.5981
  593MOL0     O79928   9.392   1.965  11.801 -0.9951 -0.0833 -0.3603
  593MOL0     C79929   9.414   1.863  11.888  0.1767 -0.1952 -0.6823
  593MOL0     C79930   9.552   1.871  11.953 -0.6497  0.2704 -1.4365
  593MOL0     C79931   9.567   1.755  12.049 -0.6047  0.0653  0.1575
  593MOL0     C79932   9.679   1.802  12.156 -0.0055 -0.2892 -0.4381
  593MOL0     C79933   9.820   1.770  12.108  1.1679 -0.4549  0.0415
  593MOL0     C79934   9.866   1.623  12.119  0.5427  0.0189  0.3878
  593MOL0     C79935  10.017   1.627  12.069 -0.1739  0.1766  0.0339
  593MOL0     C79936  10.021   1.550  11.930 -0.7211  1.0962  0.4261
  593MOL0     N79937  10.031   1.400  11.947 -0.2116  0.0260  0.1759
  593MOL0     C79938  10.116   1.341  12.035  0.1715 -0.2389 -0.8721
  593MOL0     C79939  10.117   1.211  11.999  0.0167  0.4171  1.0552
  593MOL0     C79940  10.224   1.104  12.018 -0.5195  0.2568 -0.3846
  593MOL0     C79941  10.186   1.003  12.126  0.2549 -0.3030 -0.9877
  593MOL0     C79942  10.304   0.901  12.149  0.3609 -0.2135  0.1843
  593MOL0     C79943  10.249   0.772  12.202 -0.6156  0.0554 -0.9861
  593MOL0     O79944  10.210   0.787  12.339 -0.3022 -0.9876  0.8852
  593MOL0     C79945  10.215   0.668  12.411 -0.4367  0.7352 -0.2876
  593MOL0     C79946  10.133   0.564  12.384  0.0404 -0.4136 -0.2245
  593MOL0     C79947  10.137   0.445  12.461 -0.1319 -0.0827 -0.0401
  593MOL0     C79948  10.225   0.441  12.569  0.9527  1.0602  0.3783
  593MOL0     C79949  10.238   0.310  12.642 -0.4217  0.0513  0.1475
  593MOL0     O79950  10.155   0.212  12.613 -0.5011 -0.4087  0.3823
  593MOL0     C79951  10.176   0.087  12.663 -0.3193 -1.2278  0.6521
  593MOL0     C79952  10.064   0.016  12.706  0.9344 -0.1437 -0.3544
  593MOL0     C79953  10.054  -0.119  12.736 -0.5465 -0.0628  1.5487
  593MOL0     C79954  10.169  -0.190  12.712 -0.5205  0.2328 -0.4203
  593MOL0     O79955  10.176  -0.325  12.713 -0.9239  0.4589 -0.3493
  593MOL0     C79956  10.098  -0.408  12.623  0.2708 -0.5977 -0.3625
  593MOL0     C79957  10.146  -0.421  12.482 -0.0339  0.4661 -0.2827
  593MOL0     C79958  10.266  -0.517  12.442  0.9198  0.3510  0.0200
  593MOL0     C79959  10.380  -0.510  12.539 -0.6905 -0.0669  0.5277
  593MOL0     C79960  10.485  -0.615  12.493 -0.0074  0.7824 -0.4308
  593MOL0     C79961  10.453  -0.760  12.529 -0.9189 -0.0317  0.6081
  593MOL0     C79962  10.488  -0.784  12.678 -0.5420 -0.7302  1.0163
  593MOL0     C79963  10.502  -0.926  12.716  0.1199 -0.8911  0.0708
  593MOL0    Cl79964  10.587  -0.923  12.877 -0.5963  0.1010 -0.0549
  593MOL0     C79965  10.286  -0.125  12.670  0.2250 -0.3390  0.9039
  593MOL0     C79966  10.285   0.015  12.649  0.7639  0.4613  1.5113
  593MOL0     O79967  10.347   0.291  12.694 -0.2568 -1.1790  0.0258
  593MOL0     C79968  10.308   0.550  12.602 -0.6989  1.4092 -0.1074
  593MOL0     C79969  10.304   0.659  12.514 -0.4562  0.1568 -0.0680
  593MOL0     N79970  10.037   1.199  11.888 -0.1644 -0.1110 -0.6881
  593MOL0     N79971   9.980   1.307  11.863 -0.5273 -0.3752 -0.0198
  593MOL0     C79972   9.154   1.920  11.807 -0.3661  0.5571  0.0769
  593MOL0     C79973   9.026   1.946  11.770  0.1771 -0.1708  0.1565
  593MOL0     C79974   8.686   2.249  11.656 -0.4680  0.4373 -0.4429
  593MOL0     C79975   8.568   2.158  11.667 -0.2211 -0.0631 -1.3157
  593MOL0     C79976   8.440   2.207  11.675  0.8935 -0.7741 -0.9729
  593MOL0     C79977   8.422   2.343  11.686  0.0124 -0.5154  0.1582
  593MOL0     O79978   8.291   2.399  11.716 -0.9711 -0.3477 -0.3905
  593MOL0     C79979   8.208   2.326  11.798  0.0046 -0.1805  0.1154
  593MOL0     C79980   8.094   2.430  11.825  0.6139  0.6883  0.2758
  593MOL0     C79981   7.989   2.370  11.905  0.2145  0.0553 -0.1037
  593MOL0     C79982   7.846   2.383  11.844 -0.2767  0.3849  1.4074
  593MOL0     C79983   7.816   2.315  11.715 -1.2223 -0.4818  0.6011
  593MOL0     C79984   7.807   2.273  11.598 -0.3055  0.0539 -0.3790
  593MOL0     C79985   8.535   2.434  11.679 -0.9626  0.1012  0.3411
  593MOL0     C79986   8.670   2.388  11.668  0.2115  0.6977 -0.5784
  593MOL0     C79987   8.786   2.476  11.637  0.0204  0.3949 -0.3956
  593MOL0     H79988   9.080   2.273  11.673 -1.7344  1.7458  4.1451
  593MOL0     H79989   9.297   2.218  11.708 -2.1859  1.6753  0.5394
  593MOL0     H79990   9.343   1.869  11.971  1.7948 -0.7555  0.8161
  593MOL0     H79991   9.402   1.765  11.842  1.6490 -0.8827  0.3071
  593MOL0     H79992   9.566   1.972  11.991 -1.0055  1.1185 -3.4343
  593MOL0     H79993   9.623   1.866  11.870 -0.4340 -3.2856 -1.2018
  593MOL0     H79994   9.600   1.662  12.001  1.5886  1.2583 -0.8199
  593MOL0     H79995   9.477   1.734  12.108 -2.7205  0.1543 -2.7929
  593MOL0     H79996   9.661   1.907  12.181  0.6132 -0.8004  2.4414
  593MOL0     H79997   9.667   1.747  12.250  1.2085 -1.2501 -0.8280
  593MOL0     H79998   9.828   1.807  12.005 -0.2149  2.4797  0.8541
  593MOL0     H79999   9.885   1.841  12.160  0.3387 -0.0548  0.5521
  593MOL0     H80000   9.865   1.593  12.224  0.1575  1.1090  0.7160
  593MOL0     H80001   9.797   1.555  12.070 -0.4880 -0.8918  2.9224
  593MOL0     H80002  10.079   1.586  12.149  1.2979 -0.0233 -1.1601
  593MOL0     H80003  10.054   1.726  12.040  0.9072 -0.9774 -2.9943
  593MOL0     H80004   9.933   1.585  11.875  0.1693  0.7719 -1.2968
  593MOL0     H80005  10.107   1.577  11.869 -1.6769  1.5187 -0.7902
  593MOL0     H80006  10.182   1.395  12.102 -2.3856  2.5739 -0.3955
  593MOL0     H80007  10.262   1.055  11.928  3.4373 -0.9903  1.6956
  593MOL0     H80008  10.318   1.154  12.044  1.1808 -1.6300 -2.4770
  593MOL0     H80009  10.159   1.060  12.216 -1.3879 -1.0704 -0.9518
  593MOL0     H80010  10.088   0.963  12.098 -0.3204  0.0765  0.3717
  593MOL0     H80011  10.363   0.947  12.229 -0.1806 -0.0743  0.5106
  593MOL0     H80012  10.369   0.889  12.062 -0.7560 -5.2893 -0.2774
  593MOL0     H80013  10.324   0.693  12.198  0.9500  1.5431 -2.2309
  593MOL0     H80014  10.163   0.729  12.149 -1.0731 -1.5466  0.9009
  593MOL0     H80015  10.064   0.570  12.301 -1.3164  1.2301  0.9482
  593MOL0     H80016  10.069   0.368  12.426 -0.8884  0.5040  0.1062
  593MOL0     H80017   9.978   0.083  12.712  2.3912  1.8486 -0.8169
  593MOL0     H80018   9.962  -0.171  12.762 -2.5472  2.4618 -0.0106
  593MOL0     H80019  10.113  -0.506  12.669 -0.3394  0.2020  1.6367
  593MOL0     H80020   9.992  -0.382  12.621  0.7957  1.8594 -2.8950
  593MOL0     H80021  10.059  -0.450  12.422 -0.4471 -1.3465  1.1078
  593MOL0     H80022  10.182  -0.320  12.461 -2.2901  1.2218 -0.7764
  593MOL0     H80023  10.224  -0.616  12.424  2.0894  0.4702 -4.4741
  593MOL0     H80024  10.306  -0.485  12.346  0.4843 -3.0738 -1.4417
  593MOL0     H80025  10.348  -0.519  12.643 -0.8492  2.3809  0.7328
  593MOL0     H80026  10.427  -0.412  12.536 -1.0741  0.1364  1.0787
  593MOL0     H80027  10.582  -0.585  12.535  1.2911 -0.0546 -2.6767
  593MOL0     H80028  10.484  -0.610  12.384 -1.6921 -1.5983 -0.5993
  593MOL0     H80029  10.352  -0.788  12.498  0.0460 -1.6242 -1.3322
  593MOL0     H80030  10.523  -0.826  12.476 -1.2619  0.9885 -1.2217
  593MOL0     H80031  10.415  -0.729  12.738 -0.7509  3.1819 -2.4111
  593MOL0     H80032  10.583  -0.733  12.698 -0.1555 -0.9917 -0.0776
  593MOL0     H80033  10.402  -0.967  12.729 -0.3308 -1.1234 -3.2197
  593MOL0     H80034  10.562  -0.983  12.644  0.8600 -0.9133  0.6833
  593MOL0     H80035  10.377  -0.174  12.638 -0.1331 -1.1499  1.0990
  593MOL0     H80036  10.373   0.056  12.600 -2.1463  2.3679 -2.7612
  593MOL0     H80037  10.383   0.543  12.680 -0.9365  0.4768  0.0523
  593MOL0     H80038  10.383   0.733  12.524 -0.6932  0.1668  2.2960
  593MOL0     H80039   9.170   1.821  11.847  3.1613  1.0217  0.1398
  593MOL0     H80040   8.960   1.867  11.804  0.4921 -0.3117  0.4489
  593MOL0     H80041   8.604   2.057  11.649  1.0031  0.2000 -0.4760
  593MOL0     H80042   8.359   2.137  11.694 -0.2274  0.3306 -1.5196
  593MOL0     H80043   8.240   2.286  11.895 -2.3848 -2.9019 -0.0888
  593MOL0     H80044   8.163   2.239  11.749  0.2935 -0.2507 -0.0273
  593MOL0     H80045   8.056   2.457  11.726 -1.6832 -0.4962  0.7853
  593MOL0     H80046   8.124   2.516  11.885  2.3348 -0.6261  1.3979
  593MOL0     H80047   7.992   2.406  12.008  1.5171  0.3471 -0.2297
  593MOL0     H80048   7.999   2.262  11.919  0.0196  0.1499  0.8664
  593MOL0     H80049   7.785   2.339  11.923  1.1136 -1.1388  1.6726
  593MOL0     H80050   7.821   2.490  11.844 -1.2307  0.2063  3.4695
  593MOL0     H80051   7.774   2.237  11.503  1.0581 -1.9478 -0.1402
  593MOL0     H80052   8.523   2.541  11.685 -2.3126 -0.1210  2.6942
  593MOL0     H80053   8.821   2.469  11.533  1.7014 -3.7440  0.2609
  593MOL0     H80054   8.750   2.573  11.670 -0.3445 -1.6968  7.4013
  593MOL0     H80055   8.865   2.462  11.711 -2.8149 -1.5999  2.5153
  594MOL0     O80056   5.167   6.777   7.705 -0.6797  0.4352 -0.2526
  594MOL0     C80057   5.266   6.752   7.782  0.6501 -0.3900  0.0206
  594MOL0     O80058   5.393   6.725   7.743 -0.3801  0.6952  0.6352
  594MOL0     C80059   5.427   6.716   7.609 -0.0047 -0.2137 -0.2310
  594MOL0     C80060   5.408   6.825   7.515  0.5313 -0.1867  0.1739
  594MOL0     C80061   5.421   6.801   7.375 -0.4826 -0.6273  0.1913
  594MOL0     C80062   5.452   6.676   7.326 -0.6277  0.3032  0.6882
  594MOL0     O80063   5.443   6.656   7.190 -0.5118  0.8923 -0.0805
  594MOL0     C80064   5.537   6.737   7.109 -0.0678  0.5743  0.0435
  594MOL0     C80065   5.516   6.718   6.965 -0.5217 -0.3061 -0.1514
  594MOL0     C80066   5.586   6.823   6.889  0.6118 -0.2404  0.6178
  594MOL0     C80067   5.549   6.806   6.745  0.0980 -0.1085 -0.2566
  594MOL0     C80068   5.484   6.931   6.679  0.2371  1.0768 -0.8146
  594MOL0     C80069   5.586   7.047   6.636  0.6694  0.3455 -0.0061
  594MOL0     C80070   5.694   7.000   6.529  0.3059 -0.2953 -0.0223
  594MOL0     C80071   5.621   6.954   6.398  0.0269 -1.1475 -0.6436
  594MOL0     N80072   5.725   6.980   6.297  0.3958 -0.4923  0.4468
  594MOL0     C80073   5.736   6.908   6.179  0.4568 -0.0571  1.1171
  594MOL0     C80074   5.801   6.989   6.092  0.4236 -0.0490 -0.0362
  594MOL0     C80075   5.844   6.934   5.961  0.4059 -0.2398  1.1601
  594MOL0     C80076   5.766   7.007   5.855  0.3453  0.8951  0.3884
  594MOL0     C80077   5.824   6.987   5.716 -0.1418  0.3162 -0.2911
  594MOL0     C80078   5.755   7.081   5.619 -0.6491  0.0318  0.2411
  594MOL0     O80079   5.809   7.049   5.485 -0.1093  0.4688 -0.2786
  594MOL0     C80080   5.937   7.070   5.457 -0.5311  0.6279 -0.5314
  594MOL0     C80081   5.988   7.199   5.471  0.6145  0.4109  0.3009
  594MOL0     C80082   6.112   7.237   5.428 -0.4293 -0.0278  0.6468
  594MOL0     C80083   6.210   7.142   5.379  0.5308  0.6664 -0.0007
  594MOL0     C80084   6.345   7.177   5.330 -0.0085  0.5438 -0.8489
  594MOL0     O80085   6.384   7.305   5.333 -0.5378  0.2639  0.1262
  594MOL0     C80086   6.508   7.336   5.292  0.0677 -0.0095  0.3037
  594MOL0     C80087   6.609   7.386   5.383  0.0170 -0.1752  0.2000
  594MOL0     C80088   6.729   7.439   5.339  0.8739 -0.7588  0.2731
  594MOL0     C80089   6.745   7.449   5.197  0.0953 -0.0084 -0.4723
  594MOL0     O80090   6.854   7.506   5.132  0.0205  0.0009  0.6507
  594MOL0     C80091   6.988   7.469   5.172  0.4170 -1.7689  0.2369
  594MOL0     C80092   7.023   7.332   5.126 -0.1423 -0.7056  0.4624
  594MOL0     C80093   7.174   7.308   5.115 -0.0815 -0.1639  1.1569
  594MOL0     C80094   7.237   7.324   5.255 -0.5051  0.0486  0.1943
  594MOL0     C80095   7.385   7.285   5.250 -0.1989  0.7419 -0.4021
  594MOL0     C80096   7.472   7.348   5.141  0.4092  0.1515  0.1995
  594MOL0     C80097   7.495   7.503   5.142  0.2428  0.3717 -0.0176
  594MOL0     C80098   7.535   7.555   5.276  0.0901 -0.5176  0.5934
  594MOL0    Cl80099   7.519   7.743   5.289  0.2152  0.1260  0.4294
  594MOL0     C80100   6.650   7.401   5.107 -0.3019 -0.1832 -0.2241
  594MOL0     C80101   6.536   7.346   5.154  0.2018 -0.2000  0.2755
  594MOL0     O80102   6.406   7.078   5.300 -0.7200  0.1893 -0.1866
  594MOL0     C80103   6.154   7.013   5.356 -0.3731 -0.6613  0.7300
  594MOL0     C80104   6.020   6.976   5.391 -0.2635 -0.4673 -0.5220
  594MOL0     N80105   5.830   7.109   6.160 -0.8721 -0.2912  0.3718
  594MOL0     N80106   5.780   7.107   6.273  0.0260 -0.4230  0.3145
  594MOL0     C80107   5.464   6.576   7.419 -0.2127  0.1064  0.0528
  594MOL0     C80108   5.448   6.592   7.554 -1.5477  0.7892 -0.1392
  594MOL0     C80109   5.228   6.741   7.919 -1.1193  0.0514  0.5701
  594MOL0     C80110   5.248   6.853   8.002  0.5424  0.3503  0.2131
  594MOL0     C80111   5.209   6.840   8.134  0.2229 -0.4652 -0.2155
  594MOL0     C80112   5.161   6.722   8.181 -0.7458  0.8342 -0.1015
  594MOL0     O80113   5.137   6.725   8.316 -0.3917  1.2172  0.0027
  594MOL0     C80114   5.089   6.602   8.384 -0.1015 -0.9624 -0.1295
  594MOL0     C80115   5.101   6.641   8.527  0.1974 -0.0349 -0.7698
  594MOL0     C80116   4.994   6.745   8.569 -0.9049 -0.1979 -0.4496
  594MOL0     C80117   4.986   6.740   8.728  0.4286  0.2286  0.1268
  594MOL0     C80118   4.932   6.614   8.783 -0.3861  0.7449 -1.2249
  594MOL0     C80119   4.885   6.514   8.842  0.7441 -0.0075 -0.7855
  594MOL0     C80120   5.139   6.616   8.099  0.8047  1.4823  0.2932
  594MOL0     C80121   5.180   6.618   7.967 -0.2129 -0.9863 -0.3598
  594MOL0     C80122   5.183   6.483   7.881  0.5155 -0.4922  0.0920
  594MOL0     H80123   5.392   6.919   7.567 -2.0336 -2.2631  3.5174
  594MOL0     H80124   5.417   6.891   7.315  0.2345 -1.1372 -0.6380
  594MOL0     H80125   5.526   6.843   7.133  1.7248  0.7978 -0.0063
  594MOL0     H80126   5.642   6.707   7.122 -0.0003 -0.1413 -1.9142
  594MOL0     H80127   5.409   6.741   6.957 -1.1359 -2.2843  1.4473
  594MOL0     H80128   5.542   6.617   6.933  1.4782  0.0716  0.1193
  594MOL0     H80129   5.693   6.802   6.898  0.4236 -2.1585 -1.0084
  594MOL0     H80130   5.558   6.922   6.925  2.5072  1.0471 -1.2220
  594MOL0     H80131   5.626   6.750   6.692 -0.0570 -2.2757  1.6829
  594MOL0     H80132   5.468   6.733   6.739 -2.2241  2.1282  1.2411
  594MOL0     H80133   5.431   6.897   6.589  1.3766  0.2557 -1.2070
  594MOL0     H80134   5.417   6.974   6.754  2.8902  0.5433  2.0227
  594MOL0     H80135   5.533   7.132   6.593  4.5820  1.6799 -2.8368
  594MOL0     H80136   5.652   7.068   6.721  2.6095 -1.6684 -0.8954
  594MOL0     H80137   5.742   6.911   6.570  0.9721  0.7122  1.5017
  594MOL0     H80138   5.769   7.078   6.514 -0.2977  0.1267 -0.9648
  594MOL0     H80139   5.582   6.852   6.403 -0.2330 -0.9756  1.5732
  594MOL0     H80140   5.536   7.020   6.377  0.3507 -0.2251  0.8569
  594MOL0     H80141   5.715   6.804   6.155  1.1240  0.4780 -2.2574
  594MOL0     H80142   5.952   6.929   5.942  0.1506 -1.2129 -0.1674
  594MOL0     H80143   5.809   6.831   5.956 -2.8164  0.8030  0.1474
  594MOL0     H80144   5.664   6.967   5.857  1.2247 -1.4871  1.2656
  594MOL0     H80145   5.758   7.115   5.871 -5.8853  1.0319 -1.1385
  594MOL0     H80146   5.818   6.886   5.674 -2.0704  1.0297 -1.9547
  594MOL0     H80147   5.929   7.017   5.720  0.5706 -1.5042 -2.7536
  594MOL0     H80148   5.759   7.188   5.638 -0.4503 -0.0269  0.5438
  594MOL0     H80149   5.648   7.058   5.610 -0.2377 -1.2540 -5.9128
  594MOL0     H80150   5.915   7.276   5.494 -0.1004  0.0794 -0.8188
  594MOL0     H80151   6.156   7.336   5.440  3.0925 -1.6651  2.8935
  594MOL0     H80152   6.588   7.372   5.488  0.0455 -1.7060  0.0273
  594MOL0     H80153   6.809   7.466   5.407 -0.2864  1.4493  0.8613
  594MOL0     H80154   7.053   7.547   5.131  0.1382 -1.3247  0.6286
  594MOL0     H80155   6.999   7.468   5.281 -0.3316  2.8964  0.5653
  594MOL0     H80156   6.968   7.258   5.185 -1.0424 -1.6629 -1.4703
  594MOL0     H80157   6.988   7.321   5.023 -1.4704 -3.8100  1.1317
  594MOL0     H80158   7.189   7.205   5.081  1.7284 -0.4398  2.6131
  594MOL0     H80159   7.202   7.381   5.039 -1.1774  3.0708  3.6412
  594MOL0     H80160   7.185   7.250   5.316  1.2673 -1.9584 -0.5968
  594MOL0     H80161   7.227   7.420   5.307 -1.2658 -0.3298  0.7702
  594MOL0     H80162   7.377   7.175   5.246 -1.8079  0.8269 -0.2325
  594MOL0     H80163   7.430   7.306   5.347 -0.5382 -0.5195  0.0507
  594MOL0     H80164   7.564   7.292   5.156 -0.9513 -1.5664  3.1285
  594MOL0     H80165   7.447   7.308   5.042 -0.7736 -1.5564  1.1350
  594MOL0     H80166   7.397   7.543   5.117 -0.3739 -0.0298  1.6286
  594MOL0     H80167   7.566   7.542   5.068 -0.6573  0.8985 -0.6208
  594MOL0     H80168   7.477   7.516   5.360 -1.5593  2.0800  0.7711
  594MOL0     H80169   7.636   7.517   5.290  0.7790 -0.9194 -4.0332
  594MOL0     H80170   6.659   7.405   4.999 -0.3153 -1.4062 -0.2854
  594MOL0     H80171   6.457   7.305   5.091 -1.3568 -1.2928  2.7971
  594MOL0     H80172   6.207   6.930   5.311 -1.2354 -0.0491 -1.5744
  594MOL0     H80173   5.985   6.874   5.383 -2.7792  0.3013  0.0106
  594MOL0     H80174   5.474   6.478   7.373 -2.4996  0.8747 -2.3238
  594MOL0     H80175   5.458   6.505   7.618  4.5629 -0.2481 -1.8724
  594MOL0     H80176   5.287   6.946   7.963  0.6173  1.6487  3.1191
  594MOL0     H80177   5.219   6.925   8.201 -2.4952 -0.9078  0.8621
  594MOL0     H80178   5.145   6.509   8.365 -0.4642 -1.5494  1.5502
  594MOL0     H80179   4.985   6.585   8.356 -1.2346  3.2143  0.8800
  594MOL0     H80180   5.205   6.674   8.539  0.1732 -0.1820 -0.1401
  594MOL0     H80181   5.092   6.554   8.592 -2.5885  0.4519 -0.3844
  594MOL0     H80182   4.895   6.721   8.530 -2.1704  1.8835  1.2516
  594MOL0     H80183   5.037   6.838   8.528  1.4199 -0.7507  0.5497
  594MOL0     H80184   5.082   6.775   8.769  0.4948  3.4578 -2.3917
  594MOL0     H80185   4.916   6.821   8.753  2.2522  2.1119 -0.5839
  594MOL0     H80186   4.847   6.423   8.884  1.2025  1.3432  2.9213
  594MOL0     H80187   5.090   6.521   8.118  3.2051  0.0576 -0.2040
  594MOL0     H80188   5.180   6.388   7.935  0.5134 -0.5296  0.0265
  594MOL0     H80189   5.102   6.473   7.809  0.5688 -2.3151  0.2248
  594MOL0     H80190   5.277   6.497   7.827  1.7202 -4.4267  0.8636
  595MOL0     O80191   2.328   7.077   2.866 -0.9681  0.5757  0.3355
  595MOL0     C80192   2.250   7.046   2.777 -0.5261  0.2923  0.9076
  595MOL0     O80193   2.220   7.119   2.663 -0.5566  0.1260 -0.8435
  595MOL0     C80194   2.271   7.241   2.628  0.0288  0.0823 -0.2249
  595MOL0     C80195   2.259   7.286   2.493  0.5437 -0.0809  0.4556
  595MOL0     C80196   2.301   7.411   2.449  0.5953 -0.0224  0.9800
  595MOL0     C80197   2.366   7.500   2.535  0.0886  0.2582  0.1568
  595MOL0     O80198   2.413   7.614   2.467 -0.4743  0.2857 -0.1110
  595MOL0     C80199   2.446   7.728   2.551 -1.3881 -0.9111 -0.5114
  595MOL0     C80200   2.527   7.825   2.455  0.8561 -0.1232 -0.4465
  595MOL0     C80201   2.657   7.770   2.396 -0.5770 -0.2581  0.1627
  595MOL0     C80202   2.727   7.867   2.299 -0.2735 -0.1891 -0.1304
  595MOL0     C80203   2.875   7.828   2.261 -0.2301  0.2413 -0.0216
  595MOL0     C80204   2.948   7.907   2.160  0.5586  0.3313  0.7938
  595MOL0     C80205   2.954   8.056   2.200  0.6661  0.2914 -0.7584
  595MOL0     C80206   3.073   8.124   2.147  1.2421 -0.0202 -0.7046
  595MOL0     N80207   3.095   8.112   2.005  0.2953  0.0679 -0.0851
  595MOL0     C80208   3.007   8.137   1.906 -0.0098  0.8850 -0.2626
  595MOL0     C80209   3.045   8.066   1.792  0.0821  1.3275 -1.1114
  595MOL0     C80210   3.000   8.092   1.653  1.6915 -0.2085  0.4823
  595MOL0     C80211   2.861   8.034   1.607 -0.0689 -0.2007 -0.2794
  595MOL0     C80212   2.844   8.053   1.451 -0.3229 -0.3595 -0.4915
  595MOL0     C80213   2.913   7.949   1.364  0.3594 -0.4415  0.0530
  595MOL0     O80214   2.818   7.850   1.333 -1.0024  0.9369 -0.0524
  595MOL0     C80215   2.785   7.744   1.415  0.0882  0.6412 -1.1234
  595MOL0     C80216   2.654   7.712   1.450  0.0582  0.0125  0.0984
  595MOL0     C80217   2.617   7.600   1.523 -0.4250  0.0775  0.4388
  595MOL0     C80218   2.718   7.519   1.575  0.2443  0.9134  0.1726
  595MOL0     C80219   2.689   7.381   1.625  1.0735  0.4718 -0.6761
  595MOL0     O80220   2.790   7.305   1.670  0.1732  0.3450  0.0319
  595MOL0     C80221   2.761   7.173   1.688 -0.5150 -0.3079 -0.1848
  595MOL0     C80222   2.772   7.074   1.592 -0.2352  0.6367 -0.1105
  595MOL0     C80223   2.737   6.939   1.615 -0.3482  0.1050 -0.3848
  595MOL0     C80224   2.699   6.903   1.744  0.8897 -0.0773  0.2291
  595MOL0     O80225   2.683   6.768   1.761  0.6739 -0.6838 -0.1661
  595MOL0     C80226   2.768   6.705   1.861  0.2938  1.1971  0.1333
  595MOL0     C80227   2.875   6.621   1.797 -0.5846  0.7494 -0.0346
  595MOL0     C80228   2.965   6.570   1.914  0.2122  0.1312  0.9112
  595MOL0     C80229   3.063   6.456   1.864  0.3716 -0.1892 -0.3516
  595MOL0     C80230   3.137   6.401   1.992  0.5437  0.3633  0.0521
  595MOL0     C80231   3.050   6.360   2.111  0.9497  0.5181 -0.2746
  595MOL0     C80232   2.949   6.248   2.071 -1.2881 -0.4468 -0.3436
  595MOL0     C80233   2.857   6.218   2.182 -0.6772 -0.0764  1.4089
  595MOL0    Cl80234   2.721   6.334   2.179 -0.3392  0.0257  0.6451
  595MOL0     C80235   2.693   7.002   1.850  1.0316  0.0831 -0.7776
  595MOL0     C80236   2.717   7.135   1.817  0.1797 -0.3732 -0.0126
  595MOL0     O80237   2.569   7.340   1.626  0.1472 -0.3006  0.1556
  595MOL0     C80238   2.851   7.557   1.569  0.0650  0.7927 -0.3922
  595MOL0     C80239   2.888   7.661   1.484  0.7477 -0.7530  0.7790
  595MOL0     N80240   3.154   7.990   1.821 -0.3623  0.3145 -1.1034
  595MOL0     N80241   3.186   8.015   1.947  0.0624 -1.0902 -0.6121
  595MOL0     C80242   2.379   7.457   2.676 -0.5049  0.8707  0.7835
  595MOL0     C80243   2.331   7.329   2.717  0.3490 -0.3748  0.3064
  595MOL0     C80244   2.185   6.909   2.792  0.2766 -0.8157  0.7000
  595MOL0     C80245   2.203   6.810   2.687 -0.1429  0.2514 -0.1533
  595MOL0     C80246   2.146   6.682   2.709  0.4129 -0.6794  0.2499
  595MOL0     C80247   2.081   6.653   2.829 -0.2325  1.1714  0.0187
  595MOL0     O80248   2.019   6.537   2.866 -0.0834  0.5460  0.4103
  595MOL0     C80249   2.054   6.424   2.793 -0.2320  0.1359  0.5078
  595MOL0     C80250   2.194   6.370   2.783 -0.9087  1.4629 -0.8570
  595MOL0     C80251   2.258   6.376   2.927 -0.7657  0.6693  0.5278
  595MOL0     C80252   2.388   6.313   2.913 -0.1676  0.0458 -0.1749
  595MOL0     C80253   2.466   6.342   3.033  0.0983  0.1618 -0.4373
  595MOL0     C80254   2.540   6.367   3.134  0.3627  0.1945  0.8072
  595MOL0     C80255   2.060   6.748   2.922 -0.4060 -1.1415  1.2732
  595MOL0     C80256   2.118   6.875   2.907  0.5284  0.1785 -0.4174
  595MOL0     C80257   2.094   6.971   3.022 -0.4573  0.1897 -0.0935
  595MOL0     H80258   2.207   7.221   2.425  1.3113 -3.3608  2.7642
  595MOL0     H80259   2.284   7.448   2.349 -4.1682  1.1934  1.9925
  595MOL0     H80260   2.360   7.783   2.591 -1.7621 -1.2825 -0.7864
  595MOL0     H80261   2.502   7.685   2.634  0.9327 -0.6112 -1.8521
  595MOL0     H80262   2.544   7.920   2.507  3.8980  1.4769 -3.8630
  595MOL0     H80263   2.452   7.845   2.378  1.0340  0.2594 -0.5237
  595MOL0     H80264   2.644   7.681   2.333 -1.2322  2.1421 -3.3871
  595MOL0     H80265   2.716   7.742   2.484 -2.0817  0.6516  1.4990
  595MOL0     H80266   2.669   7.888   2.208  0.2625  3.6838  0.2634
  595MOL0     H80267   2.725   7.968   2.340 -0.4778  0.9141 -2.6651
  595MOL0     H80268   2.932   7.840   2.353  0.5190  1.3015 -0.6024
  595MOL0     H80269   2.891   7.724   2.229  3.3916  0.5096  0.4783
  595MOL0     H80270   3.052   7.876   2.147  0.0404 -0.1879 -3.1828
  595MOL0     H80271   2.912   7.891   2.058  1.9815 -1.4906  0.5264
  595MOL0     H80272   2.969   8.066   2.308 -0.0203 -3.3528 -0.1989
  595MOL0     H80273   2.860   8.108   2.181 -2.2273 -2.3953  3.9621
  595MOL0     H80274   3.064   8.230   2.171  0.6267 -0.6026  1.9914
  595MOL0     H80275   3.163   8.082   2.193  1.0209  0.1919 -0.0725
  595MOL0     H80276   2.924   8.205   1.919 -1.3107 -0.8350  1.0077
  595MOL0     H80277   2.990   8.200   1.642 -2.1603 -0.4600 -0.2021
  595MOL0     H80278   3.076   8.064   1.579  2.4031  2.3067  0.1814
  595MOL0     H80279   2.855   7.929   1.635 -2.3835 -0.0741 -0.0461
  595MOL0     H80280   2.785   8.088   1.664  1.0203  0.4802  0.5688
  595MOL0     H80281   2.896   8.146   1.427 -4.1657  1.6639 -1.8992
  595MOL0     H80282   2.741   8.068   1.417 -0.5446  1.0971  0.7306
  595MOL0     H80283   2.996   7.900   1.417  1.2037  0.5628 -0.3167
  595MOL0     H80284   2.944   7.985   1.265 -1.8385  2.9339  0.4184
  595MOL0     H80285   2.574   7.782   1.431  1.4675  1.7918  0.4071
  595MOL0     H80286   2.510   7.584   1.533 -0.2980 -1.2048 -0.1338
  595MOL0     H80287   2.800   7.082   1.487  0.5303  0.8859  0.1090
  595MOL0     H80288   2.722   6.872   1.531  2.1153 -1.4196  0.2867
  595MOL0     H80289   2.819   6.775   1.927  0.3863  1.4255 -0.1818
  595MOL0     H80290   2.700   6.637   1.914  0.3565  1.5106  0.6149
  595MOL0     H80291   2.829   6.542   1.737 -0.1595  0.8519 -0.5026
  595MOL0     H80292   2.935   6.680   1.728  0.2240 -2.4219 -2.3134
  595MOL0     H80293   3.032   6.649   1.949  0.7665 -0.6825  1.7217
  595MOL0     H80294   2.897   6.534   1.992 -3.2231  1.4712 -1.2291
  595MOL0     H80295   3.140   6.502   1.802  1.8874  1.8156  2.7414
  595MOL0     H80296   3.017   6.375   1.807 -2.0536  1.5496 -1.0726
  595MOL0     H80297   3.186   6.489   2.035 -1.0007  0.7170  1.1619
  595MOL0     H80298   3.213   6.328   1.963  1.2879  0.7604  0.9537
  595MOL0     H80299   3.101   6.322   2.200 -2.0106 -0.2333  1.2669
  595MOL0     H80300   3.004   6.448   2.158  0.6740  0.5819 -0.6567
  595MOL0     H80301   2.994   6.153   2.044 -0.9338  0.0786 -1.6657
  595MOL0     H80302   2.885   6.278   1.988 -2.1762  0.2740  0.5751
  595MOL0     H80303   2.813   6.122   2.156  0.6298 -0.0338 -1.3634
  595MOL0     H80304   2.904   6.222   2.281  0.5548  2.2324  0.8172
  595MOL0     H80305   2.662   6.969   1.948 -0.4705  2.6906 -0.2922
  595MOL0     H80306   2.684   7.217   1.879  2.5082  3.3701 -3.2651
  595MOL0     H80307   2.933   7.503   1.614  1.7267  2.3909 -1.3310
  595MOL0     H80308   2.994   7.679   1.468  0.3580 -0.1031 -1.4459
  595MOL0     H80309   2.429   7.517   2.752  2.0323 -1.2062  0.9095
  595MOL0     H80310   2.332   7.315   2.825 -0.2058  2.2892  0.7366
  595MOL0     H80311   2.269   6.823   2.602  0.5972  0.4047  0.4362
  595MOL0     H80312   2.153   6.611   2.628  2.0930  1.6000 -1.7177
  595MOL0     H80313   2.014   6.428   2.691 -0.0441 -0.7482  0.3922
  595MOL0     H80314   1.997   6.343   2.840  0.8549 -1.2790 -0.5261
  595MOL0     H80315   2.257   6.437   2.724  1.3464  0.4262  0.2708
  595MOL0     H80316   2.208   6.271   2.740  2.9223  1.3823  0.2118
  595MOL0     H80317   2.191   6.333   3.002  0.9974 -1.7109  0.8471
  595MOL0     H80318   2.275   6.484   2.935 -1.3629  0.7680  0.4843
  595MOL0     H80319   2.370   6.205   2.899 -3.3453  0.6253 -1.6627
  595MOL0     H80320   2.442   6.333   2.820  1.3320 -3.6042 -0.2737
  595MOL0     H80321   2.595   6.375   3.226  0.7096 -0.6205  0.6753
  595MOL0     H80322   2.002   6.732   3.012  0.3271  2.1682  2.4618
  595MOL0     H80323   2.021   6.930   3.092  0.4388  0.6827  1.1684
  595MOL0     H80324   2.187   6.997   3.075  0.0066 -4.6902  2.0559
  595MOL0     H80325   2.055   7.068   2.991  0.0474  0.6734  0.7358
  596MOL0     O80326   8.127   6.113   9.095  0.0063  0.5349 -0.0116
  596MOL0     C80327   8.150   6.019   9.025  0.0256  0.1937 -0.0933
  596MOL0     O80328   8.070   5.966   8.922 -0.0988 -0.9482 -0.5760
  596MOL0     C80329   7.939   6.002   8.932 -0.3354 -0.5025 -0.2955
  596MOL0     C80330   7.892   6.130   8.962  0.2388  0.1526 -0.3013
  596MOL0     C80331   7.752   6.154   8.956 -0.6594 -0.5392 -0.3364
  596MOL0     C80332   7.666   6.047   8.937  0.3588  0.6304  0.1702
  596MOL0     O80333   7.528   6.071   8.942  0.4040  0.3995  0.1925
  596MOL0     C80334   7.443   5.991   9.039 -0.6621 -0.1538  0.6307
  596MOL0     C80335   7.315   5.960   8.964  0.5123  0.9240  0.3503
  596MOL0     C80336   7.213   5.887   9.052 -0.2374  0.3460  0.1186
  596MOL0     C80337   7.097   5.984   9.076  0.4043 -0.0822 -0.5690
  596MOL0     C80338   6.994   5.917   9.171  1.0801  0.6624  0.0247
  596MOL0     C80339   7.038   5.928   9.317  0.7106 -1.0193 -0.0186
  596MOL0     C80340   6.926   5.891   9.417 -0.6733  0.0510 -0.5286
  596MOL0     C80341   6.811   5.986   9.425  0.4958  0.2253  0.3384
  596MOL0     N80342   6.847   6.132   9.432 -0.1599 -0.7127  0.6461
  596MOL0     C80343   6.914   6.197   9.534  0.2175 -0.3337 -0.3297
  596MOL0     C80344   6.930   6.323   9.474  0.1481 -0.2528  0.6931
  596MOL0     C80345   7.025   6.429   9.523  0.2380  0.0324 -0.3552
  596MOL0     C80346   7.167   6.396   9.486  1.0045 -0.4431 -0.4246
  596MOL0     C80347   7.236   6.281   9.569 -0.6287 -0.6649  0.2275
  596MOL0     C80348   7.320   6.335   9.684 -0.2483  0.5233 -0.2467
  596MOL0     O80349   7.355   6.221   9.765 -0.1318 -0.2784 -0.3423
  596MOL0     C80350   7.417   6.236   9.887  0.4809 -0.4936 -0.0674
  596MOL0     C80351   7.526   6.162   9.909 -0.0820  0.0506  0.2929
  596MOL0     C80352   7.578   6.161  10.042 -0.6642  0.0170 -0.8237
  596MOL0     C80353   7.526   6.236  10.150 -0.2717 -0.7563 -0.4936
  596MOL0     C80354   7.598   6.242  10.291  1.4859 -0.2778  0.3774
  596MOL0     O80355   7.684   6.141  10.313  0.2683 -0.3062 -0.6941
  596MOL0     C80356   7.733   6.122  10.435 -0.6895  0.3311 -0.0679
  596MOL0     C80357   7.820   6.207  10.497 -1.1149  0.1627  0.7587
  596MOL0     C80358   7.871   6.167  10.624 -0.1322 -0.3816 -0.2779
  596MOL0     C80359   7.831   6.051  10.686  0.1222 -0.0817  0.1433
  596MOL0     O80360   7.867   6.016  10.815 -0.1014  0.0290 -0.3253
  596MOL0     C80361   7.931   6.113  10.895  0.0051 -1.0349  0.3578
  596MOL0     C80362   7.904   6.090  11.037 -0.1963 -0.9537 -1.1594
  596MOL0     C80363   7.914   6.220  11.122 -0.4246  0.8132 -0.0342
  596MOL0     C80364   7.923   6.185  11.269  0.0488  0.1293 -0.1021
  596MOL0     C80365   7.970   6.299  11.357  0.0201 -0.6543 -0.4260
  596MOL0     C80366   7.975   6.242  11.500  0.4866 -0.6703  0.3385
  596MOL0     C80367   8.032   6.342  11.612  0.9585 -0.5129 -0.0600
  596MOL0     C80368   8.036   6.284  11.753  0.2745 -0.7979 -0.0025
  596MOL0    Cl80369   8.073   6.405  11.881 -0.2490  0.1218 -0.1286
  596MOL0     C80370   7.752   5.960  10.615  0.7991 -0.4845  0.3678
  596MOL0     C80371   7.700   5.997  10.495  0.5079 -0.0645  1.0703
  596MOL0     O80372   7.580   6.335  10.368 -0.2280  0.2635 -0.2560
  596MOL0     C80373   7.416   6.320  10.125 -0.0913 -0.4742 -0.3974
  596MOL0     C80374   7.362   6.317   9.995  0.7039  0.5504  0.8248
  596MOL0     N80375   6.878   6.327   9.344  0.2302  0.3321 -0.0529
  596MOL0     N80376   6.813   6.216   9.335  0.2515 -0.1294  0.8298
  596MOL0     C80377   7.710   5.916   8.896 -0.2915  0.2805 -0.9716
  596MOL0     C80378   7.849   5.894   8.895 -0.8448 -0.3338 -0.1109
  596MOL0     C80379   8.269   5.941   9.058  0.1694  0.7141  0.3225
  596MOL0     C80380   8.372   6.006   9.116 -0.1475  0.0151 -0.7033
  596MOL0     C80381   8.490   5.946   9.161 -0.0065 -0.6696 -0.1242
  596MOL0     C80382   8.511   5.804   9.128  0.7704  0.0519  0.0631
  596MOL0     O80383   8.621   5.733   9.157  0.2495  0.4837  0.3069
  596MOL0     C80384   8.681   5.754   9.286  0.1880 -0.4242 -0.2183
  596MOL0     C80385   8.777   5.634   9.315  0.3457  0.1995  1.2937
  596MOL0     C80386   8.696   5.506   9.364  0.4987  0.3251 -0.0357
  596MOL0     C80387   8.614   5.447   9.252  0.7974  0.9704 -0.5727
  596MOL0     C80388   8.593   5.302   9.264 -0.7669 -0.0094  0.4656
  596MOL0     C80389   8.571   5.183   9.271  0.5491 -0.2181  0.1430
  596MOL0     C80390   8.409   5.743   9.056  0.2743  0.6543  0.3790
  596MOL0     C80391   8.299   5.809   9.016 -0.3165 -0.1339  0.1348
  596MOL0     C80392   8.205   5.725   8.938  0.1292  0.5382  0.3471
  596MOL0     H80393   7.952   6.218   8.980  3.4610 -2.0576  0.5817
  596MOL0     H80394   7.713   6.255   8.959  2.6578  0.8780 -0.0718
  596MOL0     H80395   7.499   5.902   9.068 -3.6131 -2.1784  0.5945
  596MOL0     H80396   7.429   6.038   9.136  1.1412 -2.9730  2.3936
  596MOL0     H80397   7.340   5.906   8.873  0.2694  2.3674 -0.6133
  596MOL0     H80398   7.264   6.049   8.925 -0.3513 -0.4772 -1.8573
  596MOL0     H80399   7.262   5.844   9.140 -0.6533 -0.3168  0.0372
  596MOL0     H80400   7.188   5.795   8.997 -0.3204  0.4902 -0.0877
  596MOL0     H80401   7.130   6.072   9.131  2.7315 -0.9541 -0.4515
  596MOL0     H80402   7.054   6.014   8.980 -1.4077  0.1114  0.2597
  596MOL0     H80403   6.903   5.966   9.135  0.4814 -0.0158  0.5910
  596MOL0     H80404   6.982   5.812   9.142  2.2961 -0.5485  3.3644
  596MOL0     H80405   7.124   5.861   9.330  0.3691 -1.7294 -1.2427
  596MOL0     H80406   7.070   6.030   9.339 -1.6623 -1.0190  4.7524
  596MOL0     H80407   6.973   5.910   9.514  0.4298  0.7143 -1.1634
  596MOL0     H80408   6.902   5.785   9.410 -0.6870 -0.1409  1.6229
  596MOL0     H80409   6.750   5.980   9.334  0.4427 -0.5402  0.4159
  596MOL0     H80410   6.746   5.970   9.512 -1.2674 -2.9896 -1.3523
  596MOL0     H80411   6.955   6.163   9.628 -1.0908 -6.0579 -1.4563
  596MOL0     H80412   6.998   6.525   9.477 -0.6502 -1.0892 -2.3087
  596MOL0     H80413   7.004   6.443   9.629  0.6960  1.3469 -0.4142
  596MOL0     H80414   7.176   6.352   9.387 -2.2888 -1.7870 -0.2435
  596MOL0     H80415   7.233   6.483   9.495 -0.3330  0.4526  1.4229
  596MOL0     H80416   7.300   6.218   9.505  3.6019  0.9842  2.4079
  596MOL0     H80417   7.165   6.211   9.613 -1.6270 -0.9446 -1.6959
  596MOL0     H80418   7.261   6.406   9.743  0.4788 -0.8081  2.2291
  596MOL0     H80419   7.402   6.390   9.638 -0.9337  2.1117  0.3621
  596MOL0     H80420   7.570   6.113   9.823  0.6733 -1.1996  1.3698
  596MOL0     H80421   7.666   6.098  10.052  2.4536  3.7305 -2.3997
  596MOL0     H80422   7.866   6.295  10.454  0.7844 -0.3665  1.6190
  596MOL0     H80423   7.940   6.242  10.661 -0.1317 -0.1726 -0.6874
  596MOL0     H80424   8.036   6.114  10.865  0.3780  1.9130  1.3824
  596MOL0     H80425   7.886   6.211  10.877 -0.2570 -1.0562  0.8589
  596MOL0     H80426   7.799   6.059  11.040  0.6291 -3.9833  1.5170
  596MOL0     H80427   7.961   6.003  11.070  1.5485 -0.2103 -2.1388
  596MOL0     H80428   8.011   6.268  11.106 -0.9824  3.3249  3.0920
  596MOL0     H80429   7.834   6.293  11.106 -1.9015 -1.3003 -3.2186
  596MOL0     H80430   7.974   6.089  11.277 -3.4584 -1.9686 -0.7385
  596MOL0     H80431   7.821   6.157  11.296 -0.2639  1.5662  0.3157
  596MOL0     H80432   7.893   6.377  11.361  0.2223 -0.5111  1.4544
  596MOL0     H80433   8.063   6.350  11.328 -1.0816  1.7442  0.0104
  596MOL0     H80434   7.871   6.221  11.527  0.0625  0.4369 -0.4074
  596MOL0     H80435   8.033   6.149  11.493 -4.0913 -3.7476 -2.8382
  596MOL0     H80436   7.978   6.436  11.602  2.3288  0.4549  1.1207
  596MOL0     H80437   8.137   6.351  11.583  0.8902  0.6983  0.0344
  596MOL0     H80438   7.933   6.251  11.766 -0.0112 -0.2039 -0.6547
  596MOL0     H80439   8.094   6.191  11.751 -1.9359 -2.3310 -3.4603
  596MOL0     H80440   7.723   5.861  10.649 -0.8102 -0.9929 -2.2168
  596MOL0     H80441   7.628   5.930  10.448 -1.8277  0.2165  3.9832
  596MOL0     H80442   7.371   6.374  10.207 -0.8423  2.0822 -2.3654
  596MOL0     H80443   7.281   6.387   9.977 -1.7691 -2.2176  0.3647
  596MOL0     H80444   7.648   5.836   8.858  2.0483 -1.0425 -2.2625
  596MOL0     H80445   7.894   5.806   8.848  2.5695  0.6863  0.9497
  596MOL0     H80446   8.370   6.110   9.146 -0.5624  0.2991 -1.6767
  596MOL0     H80447   8.557   6.007   9.221  3.1039 -2.4486 -1.5243
  596MOL0     H80448   8.604   5.752   9.363  0.1311 -0.5842 -0.2782
  596MOL0     H80449   8.729   5.852   9.285 -2.8101  1.1943 -2.7539
  596MOL0     H80450   8.848   5.676   9.387  1.7878 -2.4978  1.5803
  596MOL0     H80451   8.840   5.602   9.232  0.0630 -1.4099  1.6638
  596MOL0     H80452   8.628   5.528   9.446 -1.9305 -1.3698 -1.4778
  596MOL0     H80453   8.754   5.425   9.410 -1.1778 -0.9015 -0.0290
  596MOL0     H80454   8.520   5.501   9.267  2.3761  4.5740 -2.2220
  596MOL0     H80455   8.659   5.458   9.152  0.3616 -1.0488 -1.0450
  596MOL0     H80456   8.531   5.084   9.280 -1.5616  0.5648 -0.0733
  596MOL0     H80457   8.421   5.637   9.039  0.2512  0.7660 -0.3503
  596MOL0     H80458   8.099   5.739   8.959 -0.1529 -2.9074  2.0012
  596MOL0     H80459   8.223   5.743   8.831  0.5873  1.6993  0.6149
  596MOL0     H80460   8.230   5.622   8.966  3.0639  1.0126 -0.1269
  597MOL0     O80461  10.388   0.018   7.276  0.0401 -0.2786  0.4508
  597MOL0     C80462  10.303  -0.068   7.244  1.4961  0.4115 -0.7561
  597MOL0     O80463  10.193  -0.046   7.166 -0.2399 -0.4209 -0.3245
  597MOL0     C80464  10.210   0.041   7.069 -0.2054  0.6215 -0.5512
  597MOL0     C80465  10.305   0.025   6.957 -1.0086 -1.0235 -0.2142
  597MOL0     C80466  10.330   0.126   6.859  0.1174 -0.6619  0.4206
  597MOL0     C80467  10.249   0.240   6.863  0.6480  0.2349  0.1292
  597MOL0     O80468  10.265   0.337   6.770  0.4482  0.3722  0.2302
  597MOL0     C80469  10.158   0.422   6.732  0.9884 -1.1368  0.4297
  597MOL0     C80470  10.085   0.353   6.610  0.1928  0.9839 -0.0945
  597MOL0     C80471   9.974   0.444   6.547 -0.3344 -0.6569  0.1599
  597MOL0     C80472   9.884   0.360   6.458  0.2517 -0.1516 -0.8490
  597MOL0     C80473   9.788   0.441   6.377 -0.3909  0.1108 -0.3222
  597MOL0     C80474   9.724   0.555   6.462 -0.1963  0.4188 -0.2384
  597MOL0     C80475   9.626   0.652   6.383  0.1323  0.1159  1.1725
  597MOL0     C80476   9.686   0.751   6.271  0.1003  0.1000  0.4202
  597MOL0     N80477   9.810   0.801   6.321 -0.5848 -0.0075 -0.5338
  597MOL0     C80478   9.826   0.908   6.419  0.1575  0.6246  1.0492
  597MOL0     C80479   9.952   0.889   6.449 -0.7129 -0.4482  0.1244
  597MOL0     C80480  10.012   0.928   6.582  0.8279 -0.4669  0.2104
  597MOL0     C80481   9.967   0.855   6.717  0.6593  0.0297 -0.4739
  597MOL0     C80482  10.022   0.908   6.839  0.2458 -0.2697 -0.1633
  597MOL0     C80483   9.985   0.820   6.956 -0.2641  0.1851 -0.6710
  597MOL0     O80484  10.046   0.872   7.073 -0.5380  0.0190  0.2484
  597MOL0     C80485  10.102   0.787   7.162 -0.2483  1.3198  0.0196
  597MOL0     C80486  10.058   0.658   7.183  0.1461  1.0452  0.3032
  597MOL0     C80487  10.122   0.573   7.279  0.2981  0.4197  1.5673
  597MOL0     C80488  10.235   0.618   7.342 -0.6050  0.1580 -0.3811
  597MOL0     C80489  10.305   0.533   7.441 -0.7402 -0.3949  0.0238
  597MOL0     O80490  10.399   0.597   7.508  0.1340  0.9140 -0.8040
  597MOL0     C80491  10.439   0.560   7.629 -1.5117  0.2312 -0.7658
  597MOL0     C80492  10.360   0.481   7.709  0.1870  0.8260  0.6621
  597MOL0     C80493  10.405   0.457   7.842  0.2191  0.8747 -0.4110
  597MOL0     C80494  10.521   0.515   7.891  0.4087 -0.2287  0.5225
  597MOL0     O80495  10.543   0.500   8.027  0.5365 -0.4588  0.0711
  597MOL0     C80496  10.682   0.476   8.086  1.0510  0.1101 -0.1135
  597MOL0     C80497  10.671   0.413   8.226  1.1818  0.8493  0.2125
  597MOL0     C80498  10.633   0.513   8.340 -0.8172 -0.0159  0.2256
  597MOL0     C80499  10.619   0.439   8.475  0.3658  0.0540 -0.4401
  597MOL0     C80500  10.748   0.393   8.523 -0.1780  0.3156 -0.8850
  597MOL0     C80501  10.762   0.361   8.675 -0.4850  0.8160  0.5391
  597MOL0     C80502  10.672   0.241   8.721  0.9249 -0.4369  0.1695
  597MOL0     C80503  10.710   0.101   8.670  0.0476 -0.1844 -0.5485
  597MOL0    Cl80504  10.577  -0.013   8.697 -0.0342  0.0452 -0.1928
  597MOL0     C80505  10.599   0.585   7.806  0.4443  0.1075 -0.4678
  597MOL0     C80506  10.556   0.615   7.673  0.1977 -0.0934 -1.1289
  597MOL0     O80507  10.268   0.417   7.460  0.3172  0.5245 -0.2945
  597MOL0     C80508  10.266   0.760   7.334  0.6246  0.6392  0.0969
  597MOL0     C80509  10.207   0.838   7.238 -0.0129 -0.2542 -0.4331
  597MOL0     N80510  10.012   0.787   6.370 -0.2381 -0.5399  0.1239
  597MOL0     N80511   9.927   0.744   6.287  0.7737  0.4739  0.8013
  597MOL0     C80512  10.157   0.260   6.966  0.0733 -0.6781 -0.5498
  597MOL0     C80513  10.141   0.168   7.063 -0.6092 -0.0719  0.0632
  597MOL0     C80514  10.348  -0.210   7.280  0.7155  0.8304  0.2941
  597MOL0     C80515  10.310  -0.315   7.191  0.1467 -0.7205 -0.5788
  597MOL0     C80516  10.351  -0.442   7.194  0.3877 -0.1800 -0.5218
  597MOL0     C80517  10.434  -0.481   7.288  0.6204 -1.1493  0.2745
  597MOL0     O80518  10.479  -0.613   7.293 -0.0397 -0.0896  0.5809
  597MOL0     C80519  10.394  -0.722   7.335 -1.0623  0.7967  0.7558
  597MOL0     C80520  10.501  -0.849   7.351  0.0515 -1.3717  0.6058
  597MOL0     C80521  10.411  -0.969   7.382 -0.0466 -0.0140 -0.3925
  597MOL0     C80522  10.499  -1.086   7.429  0.7279  0.5419  0.2322
  597MOL0     C80523  10.544  -1.069   7.567  0.7681  0.2563  0.6293
  597MOL0     C80524  10.570  -1.061   7.688  0.1036  0.2215 -0.3279
  597MOL0     C80525  10.488  -0.387   7.381 -0.1945 -0.0553 -0.2737
  597MOL0     C80526  10.442  -0.253   7.374  0.4244  0.2022 -0.6694
  597MOL0     C80527  10.502  -0.166   7.483 -0.2937  0.3959 -0.7201
  597MOL0     H80528  10.372  -0.060   6.972 -0.5347 -0.6134  0.0128
  597MOL0     H80529  10.411   0.127   6.787 -1.8257  1.1891 -1.9130
  597MOL0     H80530  10.089   0.451   6.813  0.3778 -1.8333  0.1724
  597MOL0     H80531  10.203   0.511   6.687  0.7807 -2.1607 -1.9564
  597MOL0     H80532  10.035   0.260   6.641 -0.2527  0.1193 -3.1031
  597MOL0     H80533  10.164   0.336   6.537  0.4070 -3.4063  0.9010
  597MOL0     H80534  10.010   0.528   6.488 -0.3397 -0.6467  0.1703
  597MOL0     H80535   9.917   0.502   6.620 -0.4224  0.1228 -0.5131
  597MOL0     H80536   9.938   0.297   6.386 -0.6535 -0.5369 -1.2013
  597MOL0     H80537   9.821   0.293   6.515  0.6954 -2.6641 -3.1134
  597MOL0     H80538   9.851   0.479   6.297  0.8003  0.1906  0.6246
  597MOL0     H80539   9.717   0.377   6.324  0.9086 -0.5484 -1.2939
  597MOL0     H80540   9.674   0.517   6.552 -3.5945  2.6486 -0.9990
  597MOL0     H80541   9.808   0.618   6.491  1.6714 -2.0469  0.0985
  597MOL0     H80542   9.586   0.718   6.461 -1.8160 -1.0134  1.1989
  597MOL0     H80543   9.550   0.582   6.348  2.9151 -3.5054  1.7993
  597MOL0     H80544   9.705   0.702   6.174 -3.2725  0.1967 -0.4353
  597MOL0     H80545   9.619   0.835   6.250 -1.1719 -1.0505 -0.4155
  597MOL0     H80546   9.760   0.972   6.477 -0.0873  1.1559  0.2071
  597MOL0     H80547  10.118   0.904   6.568  0.8228 -0.0884 -0.5284
  597MOL0     H80548   9.982   1.033   6.579  4.3676  0.6714  0.2955
  597MOL0     H80549   9.858   0.861   6.723  0.8084  2.7260  3.2037
  597MOL0     H80550   9.991   0.748   6.709  1.8647 -0.0657  2.6574
  597MOL0     H80551   9.990   1.013   6.845  0.1391 -0.0215 -3.2777
  597MOL0     H80552  10.131   0.916   6.829  0.4373  1.1350  2.2689
  597MOL0     H80553  10.019   0.718   6.934 -0.8965 -0.0463 -0.6102
  597MOL0     H80554   9.877   0.820   6.973 -0.4931 -0.6427 -1.9863
  597MOL0     H80555   9.976   0.619   7.123  1.2525 -2.0288  0.6107
  597MOL0     H80556  10.085   0.472   7.289  0.4872  0.0761 -0.6890
  597MOL0     H80557  10.265   0.435   7.688  1.3781 -2.2332  1.4932
  597MOL0     H80558  10.352   0.386   7.904  0.4933 -0.1729 -1.3324
  597MOL0     H80559  10.741   0.409   8.023  3.2482  4.4499 -3.2028
  597MOL0     H80560  10.742   0.567   8.096  0.7411  0.3188 -0.1298
  597MOL0     H80561  10.596   0.333   8.227  2.1123 -0.1614  3.6409
  597MOL0     H80562  10.758   0.350   8.242  0.3481 -0.3296  0.2572
  597MOL0     H80563  10.708   0.588   8.365 -0.4075 -0.4268  0.2563
  597MOL0     H80564  10.540   0.554   8.301 -1.2160 -1.0791  0.0116
  597MOL0     H80565  10.567   0.343   8.460  4.1093 -1.9679 -1.7404
  597MOL0     H80566  10.569   0.499   8.551 -2.3594  1.2098 -2.9202
  597MOL0     H80567  10.819   0.475   8.508  0.2042  0.1055 -0.2417
  597MOL0     H80568  10.784   0.305   8.470  0.5587 -1.8135  2.8037
  597MOL0     H80569  10.864   0.334   8.704 -0.6289 -4.4798 -2.5494
  597MOL0     H80570  10.750   0.455   8.729 -0.7985  1.8228 -1.1823
  597MOL0     H80571  10.569   0.258   8.689  0.7927 -0.7918  0.3990
  597MOL0     H80572  10.661   0.242   8.830 -0.4731  1.0361  0.0474
  597MOL0     H80573  10.734   0.115   8.565 -0.4201 -0.3967 -0.6830
  597MOL0     H80574  10.800   0.062   8.719  1.9994 -0.9357 -4.3904
  597MOL0     H80575  10.697   0.603   7.849 -0.4235 -1.9604  2.7423
  597MOL0     H80576  10.622   0.675   7.612  2.1703 -0.0429  0.9335
  597MOL0     H80577  10.347   0.797   7.396  0.7124 -1.5458  1.3891
  597MOL0     H80578  10.226   0.945   7.233  0.6068 -0.4113 -2.2031
  597MOL0     H80579  10.098   0.351   6.980 -0.0893 -0.9711  0.7812
  597MOL0     H80580  10.072   0.187   7.145 -1.0569 -1.3318  0.0089
  597MOL0     H80581  10.253  -0.299   7.100 -0.0856  0.6785 -0.2168
  597MOL0     H80582  10.322  -0.518   7.122  1.3944 -0.3339 -0.7779
  597MOL0     H80583  10.326  -0.743   7.252  0.7852  2.6430 -1.3614
  597MOL0     H80584  10.349  -0.701   7.432  0.9348  2.4947  1.3952
  597MOL0     H80585  10.562  -0.812   7.434 -0.7159  2.6372 -0.3894
  597MOL0     H80586  10.572  -0.858   7.269 -1.1494  1.8005 -0.9407
  597MOL0     H80587  10.353  -1.007   7.298  1.8309 -1.7838 -0.9468
  597MOL0     H80588  10.337  -0.946   7.460  0.7837  0.6939  0.2103
  597MOL0     H80589  10.459  -1.186   7.408  0.5642  0.7190 -0.2951
  597MOL0     H80590  10.595  -1.077   7.377 -0.5017 -1.9942 -2.8217
  597MOL0     H80591  10.585  -1.051   7.794 -1.2376 -0.7219 -0.0211
  597MOL0     H80592  10.554  -0.410   7.463  2.2208  0.3846 -1.9814
  597MOL0     H80593  10.548  -0.223   7.564 -0.6040  1.5434  0.2990
  597MOL0     H80594  10.581  -0.106   7.437 -1.6470  1.5484 -1.6487
  597MOL0     H80595  10.428  -0.101   7.532  1.4588  1.7021  0.3006
  598MOL0     O80596   6.736   5.064   6.425  0.3490 -0.0063 -0.0706
  598MOL0     C80597   6.686   5.122   6.332  0.6689  0.6860 -0.4696
  598MOL0     O80598   6.563   5.095   6.274 -0.0885  0.3529  0.6389
  598MOL0     C80599   6.474   5.021   6.348  0.7415 -0.0045 -0.4482
  598MOL0     C80600   6.398   5.074   6.457  0.1614 -0.1063 -0.0400
  598MOL0     C80601   6.329   4.977   6.533  0.1154  0.0440 -0.4440
  598MOL0     C80602   6.329   4.841   6.511  0.1522 -0.2248 -0.0022
  598MOL0     O80603   6.255   4.746   6.575  0.5234  0.1197 -0.0032
  598MOL0     C80604   6.127   4.791   6.625 -0.7572  1.9316  0.0945
  598MOL0     C80605   6.028   4.788   6.509  0.6608 -0.4906 -0.1143
  598MOL0     C80606   5.887   4.838   6.551 -0.3223  0.1699 -0.0253
  598MOL0     C80607   5.785   4.840   6.432 -0.1918  1.1621  0.6436
  598MOL0     C80608   5.653   4.912   6.447  0.7269 -0.3670 -0.3337
  598MOL0     C80609   5.582   4.853   6.567 -1.2759  0.5435  0.2858
  598MOL0     C80610   5.461   4.927   6.612  0.3249  0.4551 -0.4717
  598MOL0     C80611   5.387   4.853   6.730  0.4111 -0.5833  0.0710
  598MOL0     N80612   5.303   4.739   6.686 -0.6525  0.4792 -0.8846
  598MOL0     C80613   5.338   4.608   6.710  0.5572  0.6202  0.6888
  598MOL0     C80614   5.269   4.540   6.618 -0.6620  0.0471  0.2793
  598MOL0     C80615   5.296   4.385   6.587  0.2552  0.1554 -0.2748
  598MOL0     C80616   5.170   4.306   6.579  0.0910  0.5941  0.2173
  598MOL0     C80617   5.107   4.297   6.717 -0.0334  0.0464 -0.0436
  598MOL0     C80618   5.002   4.411   6.749 -0.8848 -0.4575  0.0796
  598MOL0     O80619   4.865   4.389   6.700  0.2772  0.8317 -0.1478
  598MOL0     C80620   4.766   4.481   6.694  0.4692  0.5389  0.2982
  598MOL0     C80621   4.769   4.584   6.784  0.1193  0.6413 -0.2044
  598MOL0     C80622   4.666   4.683   6.777  0.8679 -0.3997  0.6011
  598MOL0     C80623   4.557   4.677   6.686  0.0962 -1.1183  1.0896
  598MOL0     C80624   4.458   4.788   6.686  0.7324  0.3299 -0.2386
  598MOL0     O80625   4.473   4.881   6.787 -0.4978 -0.2824 -0.1105
  598MOL0     C80626   4.404   4.995   6.769  0.2160 -0.7068 -0.9639
  598MOL0     C80627   4.421   5.056   6.640 -0.5981  0.0084 -0.6523
  598MOL0     C80628   4.352   5.177   6.613  0.0389  0.5054  0.5075
  598MOL0     C80629   4.275   5.235   6.707  0.0075  0.6462  0.1522
  598MOL0     O80630   4.204   5.357   6.691 -0.3792 -0.1074  0.2253
  598MOL0     C80631   4.288   5.471   6.653 -0.2245 -1.1793 -0.0912
  598MOL0     C80632   4.367   5.520   6.777 -0.0691 -0.5169 -0.2644
  598MOL0     C80633   4.476   5.605   6.723 -0.7954 -0.2333  1.1101
  598MOL0     C80634   4.577   5.650   6.827  0.5299  0.9393 -0.5357
  598MOL0     C80635   4.685   5.730   6.753  0.2242 -0.5643  0.0980
  598MOL0     C80636   4.731   5.841   6.855  0.3062  1.0436 -0.1177
  598MOL0     C80637   4.845   5.924   6.790  0.0900 -0.3254 -0.2901
  598MOL0     C80638   4.877   6.047   6.886 -0.0752 -0.2864 -0.4110
  598MOL0    Cl80639   4.966   6.014   7.035 -0.1573 -0.7323  0.3183
  598MOL0     C80640   4.280   5.191   6.837 -0.1595 -1.0501  0.0067
  598MOL0     C80641   4.347   5.067   6.868 -0.5781  0.9213 -0.1057
  598MOL0     O80642   4.361   4.789   6.605 -0.5585 -0.4504  0.0031
  598MOL0     C80643   4.554   4.567   6.597  0.0080  0.6757 -0.5093
  598MOL0     C80644   4.658   4.473   6.605 -0.3587  0.0801  0.4581
  598MOL0     N80645   5.202   4.626   6.530 -0.0860  0.3022 -0.5706
  598MOL0     N80646   5.228   4.741   6.574  0.9574  0.0154  0.0678
  598MOL0     C80647   6.398   4.797   6.401 -0.9612  0.8229 -0.0757
  598MOL0     C80648   6.474   4.885   6.326  0.8601  1.0416 -0.3187
  598MOL0     C80649   6.774   5.215   6.250 -0.1296  1.1415 -0.1432
  598MOL0     C80650   6.753   5.211   6.116  0.0715 -0.5128  0.4984
  598MOL0     C80651   6.825   5.291   6.029  0.0054  0.4351  0.8626
  598MOL0     C80652   6.886   5.401   6.080 -0.5722 -0.4851 -1.1073
  598MOL0     O80653   6.926   5.500   5.998 -0.2496  0.5680  0.4853
  598MOL0     C80654   7.069   5.500   5.984 -0.7713 -0.5805 -0.0870
  598MOL0     C80655   7.099   5.485   5.834  0.6729 -0.3955 -0.3978
  598MOL0     C80656   7.250   5.480   5.810 -0.0105 -0.2542  0.1893
  598MOL0     C80657   7.295   5.367   5.712  0.4196  0.3327 -0.3332
  598MOL0     C80658   7.245   5.373   5.577  0.8052  0.6336  0.3266
  598MOL0     C80659   7.194   5.373   5.464 -0.5357 -1.1581  0.0392
  598MOL0     C80660   6.910   5.417   6.218 -1.0530 -0.2390 -0.0927
  598MOL0     C80661   6.862   5.313   6.300 -0.0198 -1.1515 -1.3380
  598MOL0     C80662   6.890   5.339   6.446  0.2390 -0.9688 -0.2745
  598MOL0     H80663   6.407   5.175   6.497  2.6806  0.7036 -2.3237
  598MOL0     H80664   6.259   5.010   6.610  3.2656 -0.2307  2.7802
  598MOL0     H80665   6.092   4.714   6.696 -1.9925  1.9552 -0.4598
  598MOL0     H80666   6.141   4.887   6.675  3.2957  1.3103  0.4861
  598MOL0     H80667   6.021   4.683   6.479  1.3679 -1.3898  2.5102
  598MOL0     H80668   6.063   4.846   6.423  0.3617 -0.3691 -0.1541
  598MOL0     H80669   5.900   4.938   6.595  0.4412  0.2448 -0.4015
  598MOL0     H80670   5.852   4.777   6.635  1.6518  2.9016  3.0873
  598MOL0     H80671   5.853   4.878   6.355 -1.0416  2.9853  0.7310
  598MOL0     H80672   5.758   4.738   6.404 -3.4325  2.4014 -1.4021
  598MOL0     H80673   5.670   5.018   6.466  1.3030 -0.6123  0.6220
  598MOL0     H80674   5.586   4.900   6.362  0.2070  1.4062 -0.2068
  598MOL0     H80675   5.546   4.751   6.552  0.9995 -0.5903  1.8960
  598MOL0     H80676   5.651   4.848   6.651 -2.0598  1.0142  0.9734
  598MOL0     H80677   5.389   4.938   6.531 -1.9859  4.1167  1.7948
  598MOL0     H80678   5.491   5.027   6.645 -2.0548  0.4951  1.9460
  598MOL0     H80679   5.454   4.835   6.814  0.9096  2.1822  0.3395
  598MOL0     H80680   5.322   4.932   6.769  1.0715  1.4246 -2.5959
  598MOL0     H80681   5.370   4.560   6.802 -2.4381 -3.5005 -0.1192
  598MOL0     H80682   5.347   4.372   6.491  0.9997 -0.9640  0.2582
  598MOL0     H80683   5.369   4.342   6.656  2.0457 -0.7388 -2.5852
  598MOL0     H80684   5.100   4.357   6.512 -0.4246 -1.1892 -0.6519
  598MOL0     H80685   5.205   4.206   6.552  2.6328  1.8279 -1.5040
  598MOL0     H80686   5.188   4.296   6.790  2.1090  0.1586 -2.3237
  598MOL0     H80687   5.053   4.203   6.734  0.0119 -0.5341 -2.7952
  598MOL0     H80688   5.036   4.498   6.692 -1.0784 -0.9667 -0.8412
  598MOL0     H80689   5.005   4.436   6.855  0.2306 -1.4223  0.2980
  598MOL0     H80690   4.847   4.599   6.859 -0.1778 -3.8566  1.3491
  598MOL0     H80691   4.677   4.759   6.853 -0.4139 -0.2367  0.6390
  598MOL0     H80692   4.487   5.003   6.572 -0.0207  0.1060 -0.1695
  598MOL0     H80693   4.349   5.201   6.507  2.4088  0.1952  0.3082
  598MOL0     H80694   4.339   5.447   6.559 -2.0828 -3.3064 -0.6400
  598MOL0     H80695   4.227   5.554   6.618 -1.7317 -1.6585  1.2676
  598MOL0     H80696   4.308   5.591   6.835 -2.3397  2.1872 -5.2461
  598MOL0     H80697   4.413   5.444   6.841 -0.2563  0.4899  1.1132
  598MOL0     H80698   4.534   5.560   6.643 -0.0169  3.5449 -0.6342
  598MOL0     H80699   4.431   5.699   6.689 -0.5653  0.8981  3.6741
  598MOL0     H80700   4.604   5.558   6.880  1.1262  0.8255 -1.0424
  598MOL0     H80701   4.516   5.716   6.889 -0.1588 -1.4888  1.5690
  598MOL0     H80702   4.658   5.781   6.660  0.6728 -1.7772 -0.7210
  598MOL0     H80703   4.760   5.658   6.720 -1.6438 -1.6556 -2.0291
  598MOL0     H80704   4.638   5.895   6.877 -1.8354 -2.7664  1.2564
  598MOL0     H80705   4.760   5.795   6.950  1.0032  0.6996 -0.4896
  598MOL0     H80706   4.813   5.960   6.692 -1.7611 -0.1552  0.3526
  598MOL0     H80707   4.932   5.859   6.774  1.0866  0.3225  2.0111
  598MOL0     H80708   4.945   6.115   6.833 -1.2282  1.4353  0.2286
  598MOL0     H80709   4.797   6.119   6.904 -0.5390 -0.7783 -0.5066
  598MOL0     H80710   4.219   5.253   6.901 -2.0119 -1.3494 -1.3700
  598MOL0     H80711   4.338   5.026   6.968  1.7570 -0.8143 -0.5234
  598MOL0     H80712   4.473   4.553   6.527  2.5382  1.2746 -3.8210
  598MOL0     H80713   4.676   4.399   6.527 -1.9140  0.5645 -0.4076
  598MOL0     H80714   6.383   4.693   6.374 -3.1181  1.0916 -0.0987
  598MOL0     H80715   6.530   4.853   6.239 -1.4749 -1.4674 -1.0680
  598MOL0     H80716   6.678   5.145   6.076 -0.0856  0.2768 -0.5736
  598MOL0     H80717   6.802   5.284   5.923  0.3296 -3.3168  0.9144
  598MOL0     H80718   7.120   5.429   6.051  3.0566 -0.3566 -2.4983
  598MOL0     H80719   7.093   5.603   6.008 -1.2995  0.3216 -3.0254
  598MOL0     H80720   7.053   5.567   5.779  0.7572 -0.7856 -1.0705
  598MOL0     H80721   7.055   5.393   5.794 -0.1784 -0.3203  0.3416
  598MOL0     H80722   7.310   5.463   5.899  3.4216 -1.0985 -2.1013
  598MOL0     H80723   7.284   5.575   5.767  4.1459 -0.5061  2.4211
  598MOL0     H80724   7.403   5.357   5.721  0.6259  2.3468 -0.0384
  598MOL0     H80725   7.252   5.276   5.754 -0.6618  1.9122  2.2475
  598MOL0     H80726   7.175   5.376   5.359 -1.5254 -2.6431  0.1545
  598MOL0     H80727   6.973   5.494   6.260  2.3457 -2.2547 -1.1202
  598MOL0     H80728   6.794   5.341   6.500 -0.6807 -2.1498 -1.7809
  598MOL0     H80729   6.957   5.262   6.487 -0.2003  0.3172  3.1722
  598MOL0     H80730   6.942   5.435   6.450 -1.1312 -0.2306  0.7557
  599MOL0     O80731  10.827   2.452   5.831  0.0278 -0.0716 -0.2845
  599MOL0     C80732  10.731   2.510   5.877  0.4506  0.0578 -0.6338
  599MOL0     O80733  10.685   2.634   5.846  0.6406 -0.4157  0.9246
  599MOL0     C80734  10.723   2.709   5.733 -0.4923  0.6666 -0.7667
  599MOL0     C80735  10.715   2.642   5.619  0.6675 -0.4077 -0.1386
  599MOL0     C80736  10.754   2.709   5.501  0.6227 -0.2234 -0.1270
  599MOL0     C80737  10.805   2.841   5.506 -0.6719 -0.5290  0.4092
  599MOL0     O80738  10.831   2.895   5.381  0.1699  0.3762  0.3918
  599MOL0     C80739  10.859   3.040   5.377  0.9154 -0.5708 -0.0802
  599MOL0     C80740  10.859   3.095   5.233 -0.5413 -1.2351  0.3086
  599MOL0     C80741  10.713   3.118   5.175  0.3511  0.1930 -0.7698
  599MOL0     C80742  10.711   3.212   5.057  0.4406 -0.3564  0.4048
  599MOL0     C80743  10.571   3.266   5.034  0.1876  1.2416  0.2479
  599MOL0     C80744  10.549   3.389   5.103  0.3207 -0.9254  0.0367
  599MOL0     C80745  10.398   3.416   5.139  0.3312  0.5188  0.4402
  599MOL0     C80746  10.378   3.549   5.225 -0.7975  0.6611  0.8981
  599MOL0     N80747  10.265   3.526   5.316  0.4295  0.2627  0.0975
  599MOL0     C80748  10.141   3.526   5.265 -0.2616 -0.3320  1.0504
  599MOL0     C80749  10.067   3.481   5.372 -0.2402 -0.6983 -0.3737
  599MOL0     C80750   9.918   3.466   5.391 -0.3319  0.3550 -0.1372
  599MOL0     C80751   9.840   3.585   5.441 -0.6852 -0.9370 -0.1348
  599MOL0     C80752   9.686   3.554   5.455 -1.0678 -0.1983  0.0806
  599MOL0     C80753   9.616   3.526   5.319 -0.6329 -0.7160  0.9858
  599MOL0     O80754   9.470   3.501   5.328 -0.0356  0.6181  0.2133
  599MOL0     C80755   9.406   3.463   5.210  0.1956 -0.8658 -0.1742
  599MOL0     C80756   9.268   3.454   5.216 -0.4078  0.8622 -0.2737
  599MOL0     C80757   9.192   3.435   5.100  0.0870 -0.0124 -0.5180
  599MOL0     C80758   9.245   3.442   4.974 -0.3882 -0.4543 -0.4782
  599MOL0     C80759   9.151   3.455   4.858 -0.0811  0.3789 -1.2841
  599MOL0     O80760   9.026   3.402   4.876  0.5801 -0.2912  0.2170
  599MOL0     C80761   8.952   3.377   4.757  0.6146 -0.8639 -0.1275
  599MOL0     C80762   8.879   3.483   4.698 -0.0724  0.6769 -1.6254
  599MOL0     C80763   8.800   3.447   4.587  0.2644 -0.0965  0.1802
  599MOL0     C80764   8.795   3.316   4.527 -0.8634  0.0975  0.5498
  599MOL0     O80765   8.739   3.279   4.406 -0.1172  0.4350  0.4571
  599MOL0     C80766   8.618   3.354   4.361  0.2482 -0.2768 -0.2086
  599MOL0     C80767   8.565   3.283   4.237 -0.6317  0.1639 -0.2070
  599MOL0     C80768   8.650   3.306   4.119 -0.1304  0.6291 -0.5962
  599MOL0     C80769   8.573   3.271   3.991  0.0423  0.4956  0.5866
  599MOL0     C80770   8.658   3.297   3.863  0.5183 -0.1723  0.0135
  599MOL0     C80771   8.560   3.294   3.745 -0.3309 -0.3537 -0.4002
  599MOL0     C80772   8.622   3.292   3.607 -0.4802  0.7898 -0.4859
  599MOL0     C80773   8.706   3.173   3.571 -0.4913 -0.3966 -1.0460
  599MOL0    Cl80774   8.617   3.019   3.563  0.4636  0.0977  0.3154
  599MOL0     C80775   8.888   3.221   4.574  0.1525  0.2777  0.2007
  599MOL0     C80776   8.955   3.247   4.697  0.3083 -0.3183  0.0559
  599MOL0     O80777   9.203   3.486   4.751  0.2042 -0.0454 -0.1769
  599MOL0     C80778   9.391   3.453   4.970  0.6019 -0.2741 -0.8525
  599MOL0     C80779   9.466   3.459   5.083 -0.8676 -0.8634 -0.2816
  599MOL0     N80780  10.153   3.433   5.470 -0.3906 -0.2344 -0.5338
  599MOL0     N80781  10.270   3.473   5.443  0.3135 -0.1031 -0.1344
  599MOL0     C80782  10.816   2.910   5.628 -0.3086  0.5022 -1.2155
  599MOL0     C80783  10.770   2.837   5.740 -0.8423  0.4243  0.2828
  599MOL0     C80784  10.636   2.421   5.961  0.2964 -0.3680  0.5663
  599MOL0     C80785  10.507   2.474   5.980 -0.1555  0.9325 -0.4758
  599MOL0     C80786  10.420   2.418   6.074 -0.9260  0.3185  1.1007
  599MOL0     C80787  10.454   2.314   6.149 -0.1244  0.0642 -0.3305
  599MOL0     O80788  10.358   2.281   6.246  0.2913  0.6856  0.4921
  599MOL0     C80789  10.369   2.177   6.332 -0.5891  1.2399 -0.4491
  599MOL0     C80790  10.323   2.047   6.263  0.6190  0.2070  0.4945
  599MOL0     C80791  10.383   1.924   6.325  0.3315 -0.4644 -0.6367
  599MOL0     C80792  10.312   1.793   6.293  0.1009 -0.0471  0.1994
  599MOL0     C80793  10.324   1.791   6.141  1.9285 -0.7230 -0.0801
  599MOL0     C80794  10.326   1.781   6.023  0.7041  0.0932 -0.7175
  599MOL0     C80795  10.576   2.256   6.132  0.2972  0.1651  0.1900
  599MOL0     C80796  10.671   2.305   6.035  1.0985 -1.1015  0.2424
  599MOL0     C80797  10.811   2.255   6.048 -0.0862 -0.5815  0.8734
  599MOL0     H80798  10.670   2.544   5.608 -1.6705  0.7076 -1.4664
  599MOL0     H80799  10.739   2.652   5.410 -0.0041 -2.6052  1.4069
  599MOL0     H80800  10.803   3.111   5.440  3.6975  2.9080 -1.1476
  599MOL0     H80801  10.958   3.060   5.419  0.4355 -0.1268  0.8729
  599MOL0     H80802  10.926   3.029   5.178  0.0053 -1.2949  1.0304
  599MOL0     H80803  10.896   3.195   5.257  1.2199 -1.4731 -1.2079
  599MOL0     H80804  10.654   3.154   5.260  2.1976 -1.1817  1.1975
  599MOL0     H80805  10.669   3.023   5.144  0.4641  0.2673 -1.1546
  599MOL0     H80806  10.780   3.296   5.071  3.8696 -2.5036 -2.1009
  599MOL0     H80807  10.736   3.156   4.966  2.3516  2.4936 -0.9640
  599MOL0     H80808  10.538   3.282   4.930  0.1508  2.3739  0.4181
  599MOL0     H80809  10.507   3.192   5.083  2.8058 -0.9417  0.5712
  599MOL0     H80810  10.607   3.386   5.196 -1.3307  1.7848  1.3054
  599MOL0     H80811  10.593   3.478   5.056  0.7394 -0.6692  0.8774
  599MOL0     H80812  10.353   3.333   5.194  0.2427 -0.7516 -1.4480
  599MOL0     H80813  10.347   3.421   5.042 -4.2316  0.6750  2.5895
  599MOL0     H80814  10.461   3.576   5.292  1.0954 -0.0933 -1.0203
  599MOL0     H80815  10.366   3.633   5.156  1.5777 -0.2910 -0.8219
  599MOL0     H80816  10.107   3.553   5.165  1.6009  0.9480  0.6993
  599MOL0     H80817   9.888   3.427   5.293  1.3858  0.6808 -0.8266
  599MOL0     H80818   9.897   3.392   5.468  1.4931  0.5419  0.6064
  599MOL0     H80819   9.883   3.625   5.533 -4.0388 -1.3289  1.7727
  599MOL0     H80820   9.855   3.663   5.367 -0.9665 -1.9444 -1.2963
  599MOL0     H80821   9.639   3.629   5.520 -1.8744 -1.4403  0.9678
  599MOL0     H80822   9.676   3.459   5.509 -1.4925 -0.8082 -1.0515
  599MOL0     H80823   9.662   3.441   5.267 -2.6813 -2.6049  2.0624
  599MOL0     H80824   9.644   3.607   5.252 -0.5688 -1.6678 -0.1637
  599MOL0     H80825   9.219   3.451   5.313 -2.9311  0.9229 -1.4685
  599MOL0     H80826   9.087   3.410   5.117  0.9465 -4.2646 -0.5153
  599MOL0     H80827   8.862   3.578   4.747 -0.7020  1.9168 -4.0648
  599MOL0     H80828   8.724   3.511   4.543 -0.7181 -0.7803  0.8410
  599MOL0     H80829   8.531   3.357   4.429 -0.6070 -0.1860 -1.2826
  599MOL0     H80830   8.636   3.455   4.323 -1.7315  0.3294  0.3415
  599MOL0     H80831   8.561   3.174   4.250  1.9903  0.1524  1.3910
  599MOL0     H80832   8.463   3.318   4.220 -1.6651 -1.4038  2.2300
  599MOL0     H80833   8.672   3.413   4.125 -1.0181  0.8201 -0.5407
  599MOL0     H80834   8.745   3.252   4.120  1.0300  2.5644 -0.5995
  599MOL0     H80835   8.498   3.351   3.986 -2.6378 -1.7477  1.9314
  599MOL0     H80836   8.530   3.171   3.996  2.4586 -0.5421  2.6761
  599MOL0     H80837   8.726   3.212   3.872 -0.4461 -0.8181  1.5145
  599MOL0     H80838   8.713   3.392   3.862 -1.9921  1.3632  0.4803
  599MOL0     H80839   8.486   3.214   3.757 -1.3202  0.4279 -1.1051
  599MOL0     H80840   8.495   3.380   3.759 -0.7622 -0.8145  0.5468
  599MOL0     H80841   8.691   3.376   3.618  2.1269 -1.2728 -0.0365
  599MOL0     H80842   8.554   3.310   3.523 -0.1382 -2.6058 -1.6369
  599MOL0     H80843   8.752   3.202   3.476 -0.2736  1.1110 -0.5053
  599MOL0     H80844   8.793   3.158   3.636 -0.8370 -0.8795 -0.6882
  599MOL0     H80845   8.895   3.132   4.514  0.8405  1.9589 -2.3903
  599MOL0     H80846   9.017   3.164   4.729  1.0538 -1.9735 -4.7791
  599MOL0     H80847   9.442   3.464   4.875  3.7285  0.8615  0.8074
  599MOL0     H80848   9.573   3.472   5.070 -0.8647 -0.7672 -0.1547
  599MOL0     H80849  10.850   3.013   5.635  1.0237  0.1418 -1.9118
  599MOL0     H80850  10.767   2.885   5.838  0.7260  1.6659 -0.2347
  599MOL0     H80851  10.471   2.563   5.929 -3.4076 -0.7493 -1.3511
  599MOL0     H80852  10.327   2.467   6.100 -1.0994  0.2931  0.5340
  599MOL0     H80853  10.302   2.205   6.415 -0.3863 -1.6080  0.7752
  599MOL0     H80854  10.470   2.165   6.372 -0.6570 -2.5842 -1.0602
  599MOL0     H80855  10.371   2.052   6.165 -1.2918  1.7649 -0.4281
  599MOL0     H80856  10.214   2.040   6.260  0.7201 -2.9349  0.7907
  599MOL0     H80857  10.391   1.947   6.431  1.4486  0.8449 -0.9752
  599MOL0     H80858  10.489   1.913   6.300  0.6602  3.1495 -1.4527
  599MOL0     H80859  10.346   1.701   6.343 -1.4412  0.1996  1.7740
  599MOL0     H80860  10.206   1.811   6.314  0.1382  0.0638  0.2936
  599MOL0     H80861  10.328   1.762   5.918 -2.8786 -2.4744 -0.5273
  599MOL0     H80862  10.603   2.178   6.203  1.9892  2.3514  2.1007
  599MOL0     H80863  10.889   2.329   6.071 -0.8135  1.3519 -2.3188
  599MOL0     H80864  10.821   2.173   6.120 -0.9072 -0.6865  0.8754
  599MOL0     H80865  10.840   2.226   5.947  1.8991  1.1896  0.8579
  600MOL0     O80866   6.925   8.982   2.943  0.4871 -0.5842  0.2213
  600MOL0     C80867   6.915   8.865   2.928 -0.3833 -0.3536  0.6996
  600MOL0     O80868   6.992   8.775   2.859 -0.3741  0.0154 -0.0101
  600MOL0     C80869   7.114   8.827   2.806  0.2613 -0.1267 -0.4560
  600MOL0     C80870   7.218   8.860   2.893  0.6392 -1.1037 -0.5295
  600MOL0     C80871   7.335   8.911   2.845 -0.3573 -0.0375  0.0385
  600MOL0     C80872   7.348   8.938   2.711  1.1282  0.4204 -0.1113
  600MOL0     O80873   7.454   8.995   2.655 -0.8037  0.2946 -0.1938
  600MOL0     C80874   7.524   8.903   2.564 -0.4467  0.1587  0.1534
  600MOL0     C80875   7.676   8.894   2.587  0.0897 -0.2864  0.7905
  600MOL0     C80876   7.742   9.042   2.573 -0.1716  0.1042  0.2154
  600MOL0     C80877   7.884   9.038   2.616  0.2581 -0.7240  0.0732
  600MOL0     C80878   7.922   9.173   2.665 -0.3634  0.0480  0.1889
  600MOL0     C80879   8.049   9.182   2.743 -0.1313 -0.8140 -0.5887
  600MOL0     C80880   8.076   9.329   2.791  0.4205  0.3850  0.1683
  600MOL0     C80881   8.220   9.336   2.851 -0.1296  0.1482 -0.9397
  600MOL0     N80882   8.253   9.473   2.908  0.1928  0.4045 -0.3808
  600MOL0     C80883   8.313   9.503   3.030 -0.3200  0.7372  0.1673
  600MOL0     C80884   8.349   9.633   3.020 -0.3119 -0.4838  0.3204
  600MOL0     C80885   8.449   9.707   3.118 -0.1647 -0.1661  1.0947
  600MOL0     C80886   8.525   9.823   3.040  0.8979  0.5683 -0.2179
  600MOL0     C80887   8.462   9.955   3.048  0.4245  0.8929  0.0465
  600MOL0     C80888   8.488  10.064   2.934 -0.4412 -1.1263  0.6434
  600MOL0     O80889   8.625  10.049   2.900 -0.3632  0.3024  0.1928
  600MOL0     C80890   8.716  10.105   2.988  0.3112 -0.8441  0.0440
  600MOL0     C80891   8.689  10.179   3.103  0.1829 -0.4074  0.1526
  600MOL0     C80892   8.785  10.248   3.170  0.5453 -0.2080  0.0067
  600MOL0     C80893   8.915  10.242   3.133 -0.2210  0.2090 -0.2988
  600MOL0     C80894   9.019  10.290   3.218 -0.2489  0.2053 -0.4799
  600MOL0     O80895   8.993  10.297   3.351  0.3965 -0.3629  0.7786
  600MOL0     C80896   9.071  10.371   3.428  0.4547 -0.4933  0.5902
  600MOL0     C80897   9.066  10.510   3.421  0.1253  0.0994  0.0066
  600MOL0     C80898   9.136  10.587   3.510 -0.1350 -0.4707 -0.2682
  600MOL0     C80899   9.216  10.528   3.611 -0.6692 -0.2853  0.2573
  600MOL0     O80900   9.287  10.602   3.699 -0.7161 -0.2794 -0.6549
  600MOL0     C80901   9.405  10.558   3.767  0.2142 -0.2461  0.7452
  600MOL0     C80902   9.535  10.558   3.685 -0.2153  0.3722  0.2243
  600MOL0     C80903   9.558  10.673   3.583 -0.5588  0.4794  0.3573
  600MOL0     C80904   9.687  10.665   3.502  0.7062 -0.9189 -0.1262
  600MOL0     C80905   9.738  10.784   3.422 -0.4271 -0.1203  0.6017
  600MOL0     C80906   9.787  10.907   3.510  0.2231 -0.5084  0.6876
  600MOL0     C80907   9.921  10.878   3.558  0.4902 -0.7595 -0.1056
  600MOL0     C80908   9.986  10.999   3.630 -0.6367 -0.2709  0.3465
  600MOL0    Cl80909   9.880  11.058   3.762 -0.6992  0.1735  0.0321
  600MOL0     C80910   9.231  10.389   3.616  0.1502  0.1992  0.5790
  600MOL0     C80911   9.156  10.309   3.525 -0.7608 -0.8023  0.6897
  600MOL0     O80912   9.130  10.313   3.169 -0.4989  0.5917 -0.2588
  600MOL0     C80913   8.946  10.176   3.016  0.2791 -0.4998  0.7889
  600MOL0     C80914   8.844  10.118   2.941  0.2423 -0.5971 -0.1375
  600MOL0     N80915   8.272   9.694   2.915  0.4569  0.6650  0.0266
  600MOL0     N80916   8.217   9.593   2.850  0.3003 -0.7336 -1.1551
  600MOL0     C80917   7.245   8.913   2.623  0.1638 -0.5734  0.5740
  600MOL0     C80918   7.119   8.855   2.666 -0.6760  0.9413 -0.0831
  600MOL0     C80919   6.791   8.800   2.997 -0.9042  0.4374  0.3092
  600MOL0     C80920   6.778   8.659   2.987 -0.5838 -0.5325  0.5173
  600MOL0     C80921   6.656   8.593   3.029  0.4862  0.6007 -0.9516
  600MOL0     C80922   6.551   8.668   3.089 -0.0696  0.1533 -0.1780
  600MOL0     O80923   6.443   8.599   3.136  0.4232 -0.5559 -0.7025
  600MOL0     C80924   6.308   8.663   3.143  0.3397 -0.0795 -0.0042
  600MOL0     C80925   6.230   8.657   3.004 -0.4365 -0.4302 -0.3689
  600MOL0     C80926   6.171   8.515   2.992  1.0154  0.8226  0.6791
  600MOL0     C80927   6.142   8.499   2.844 -0.9851  0.0813 -0.5409
  600MOL0     C80928   6.090   8.361   2.819  0.1952 -0.1298  0.1387
  600MOL0     C80929   6.036   8.251   2.808 -0.3764 -0.1043 -0.2409
  600MOL0     C80930   6.569   8.808   3.102 -0.5748  0.0616  0.4368
  600MOL0     C80931   6.686   8.878   3.064  0.3489 -0.1413 -0.8579
  600MOL0     C80932   6.681   9.026   3.093  0.8294 -0.1016  0.4702
  600MOL0     H80933   7.204   8.846   3.000  3.4838 -0.0255  0.0598
  600MOL0     H80934   7.410   8.944   2.916  0.3108 -1.5707  0.0824
  600MOL0     H80935   7.498   8.800   2.589 -1.6071 -0.0764 -1.7782
  600MOL0     H80936   7.492   8.936   2.464 -3.9356 -1.9560  0.4118
  600MOL0     H80937   7.717   8.835   2.504  0.6250 -1.6915  2.0175
  600MOL0     H80938   7.700   8.850   2.684  1.4293 -1.7805 -0.1671
  600MOL0     H80939   7.688   9.115   2.634  1.1698  2.0787 -0.8658
  600MOL0     H80940   7.740   9.066   2.466 -1.0827  4.1132  0.9726
  600MOL0     H80941   7.906   8.965   2.694  1.3587 -0.1375  0.3356
  600MOL0     H80942   7.938   9.032   2.521 -0.9863 -0.7188 -0.6473
  600MOL0     H80943   7.930   9.246   2.584 -0.7745 -1.1904 -1.0253
  600MOL0     H80944   7.842   9.206   2.731 -0.5956  2.7165 -1.3032
  600MOL0     H80945   8.044   9.115   2.829  1.1549 -0.1669  0.0168
  600MOL0     H80946   8.136   9.157   2.681  2.2333  2.7661  0.9376
  600MOL0     H80947   8.002   9.357   2.866  0.4285  1.2147 -0.1194
  600MOL0     H80948   8.077   9.397   2.705 -1.5306  1.7120  1.1318
  600MOL0     H80949   8.224   9.261   2.930  1.6871 -2.4385 -3.2776
  600MOL0     H80950   8.290   9.303   2.774 -0.6721  1.2780 -1.9523
  600MOL0     H80951   8.354   9.435   3.104  0.4233  0.1226 -0.7788
  600MOL0     H80952   8.398   9.758   3.200  2.8773  2.3960  1.5564
  600MOL0     H80953   8.528   9.639   3.152  0.8866  1.7264  2.6245
  600MOL0     H80954   8.629   9.823   3.072  2.0504  0.8913 -3.6075
  600MOL0     H80955   8.534   9.802   2.933  0.7945 -2.0873  0.2406
  600MOL0     H80956   8.504   9.991   3.142  0.8934 -3.3630  1.6985
  600MOL0     H80957   8.353   9.943   3.056  0.6347 -1.0473  0.3702
  600MOL0     H80958   8.467  10.165   2.969 -0.2590 -0.5646 -0.8083
  600MOL0     H80959   8.432  10.033   2.845 -1.5395 -0.4683  1.0861
  600MOL0     H80960   8.590  10.187   3.145 -0.9559  1.3691 -2.6313
  600MOL0     H80961   8.751  10.291   3.264 -1.0915  2.7097 -1.7824
  600MOL0     H80962   8.992  10.559   3.358 -0.9368 -2.0181 -0.4804
  600MOL0     H80963   9.147  10.694   3.495 -0.9379 -0.4409 -0.6746
  600MOL0     H80964   9.442  10.627   3.844 -0.0738 -0.6531  1.2561
  600MOL0     H80965   9.378  10.462   3.811 -2.7832  0.7202  1.2095
  600MOL0     H80966   9.617  10.570   3.757 -0.5157  1.4089  0.4094
  600MOL0     H80967   9.529  10.457   3.645  2.7094 -0.9908  2.8314
  600MOL0     H80968   9.472  10.691   3.518 -2.1924  0.3504  2.3954
  600MOL0     H80969   9.580  10.756   3.650  0.6805  1.8605 -1.6369
  600MOL0     H80970   9.661  10.582   3.435  1.6611  0.7671 -2.7551
  600MOL0     H80971   9.770  10.625   3.561  0.1843 -2.6101 -0.4904
  600MOL0     H80972   9.646  10.827   3.382 -1.0503 -1.1058  0.9365
  600MOL0     H80973   9.803  10.757   3.338 -3.0959  0.3239 -1.7800
  600MOL0     H80974   9.791  10.989   3.437 -0.5123 -2.3482 -1.5532
  600MOL0     H80975   9.707  10.928   3.582 -0.1224 -0.9052  0.4247
  600MOL0     H80976   9.990  10.845   3.480  0.4603  2.7763 -1.7703
  600MOL0     H80977   9.911  10.799   3.633  2.8857 -1.2671 -0.2554
  600MOL0     H80978  10.074  10.962   3.682 -0.1894  0.2589 -0.0251
  600MOL0     H80979  10.013  11.086   3.570 -0.3730 -1.0503 -0.6957
  600MOL0     H80980   9.285  10.334   3.693 -2.2735 -2.2772  0.6567
  600MOL0     H80981   9.161  10.201   3.532  0.4288 -1.0784 -2.6932
  600MOL0     H80982   9.052  10.168   2.992  0.9649  0.9045  3.0547
  600MOL0     H80983   8.865  10.053   2.856 -3.4761 -2.7782  0.3862
  600MOL0     H80984   7.249   8.959   2.525 -1.1944  2.3589  1.7828
  600MOL0     H80985   7.041   8.836   2.592  0.0867  2.1545 -1.2536
  600MOL0     H80986   6.863   8.595   2.966  0.5710  0.9014  0.7006
  600MOL0     H80987   6.643   8.487   3.012 -1.4595  0.6317  0.1326
  600MOL0     H80988   6.313   8.766   3.179  0.5879 -0.1970  0.2959
  600MOL0     H80989   6.242   8.607   3.209  2.0764 -0.4566  1.4856
  600MOL0     H80990   6.299   8.688   2.925  1.4416 -2.4545  0.3632
  600MOL0     H80991   6.147   8.728   3.010 -0.7411 -0.8532  0.6673
  600MOL0     H80992   6.073   8.521   3.040 -0.5351 -3.1291 -1.5235
  600MOL0     H80993   6.241   8.442   3.034  0.8513  1.0468  1.3640
  600MOL0     H80994   6.072   8.572   2.803  1.1367  1.5420 -1.7051
  600MOL0     H80995   6.238   8.490   2.793 -0.5462  0.1520  0.2619
  600MOL0     H80996   5.982   8.160   2.796 -1.4304  0.5697 -0.8635
  600MOL0     H80997   6.485   8.865   3.141 -0.2182  2.6649 -2.2072
  600MOL0     H80998   6.757   9.045   3.169  2.3067  1.0758 -1.2016
  600MOL0     H80999   6.698   9.095   3.010  2.5916  1.3351  1.9614
  600MOL0     H81000   6.580   9.055   3.123  0.8264  2.5905 -1.6949
  601MOL0     O81001   9.599   0.946   5.895 -0.2111 -0.6285 -0.2766
  601MOL0     C81002   9.710   0.957   5.844  0.0189  0.2003 -0.2178
  601MOL0     O81003   9.732   0.950   5.712  0.0983  0.4207  0.3402
  601MOL0     C81004   9.620   0.945   5.620 -0.1496  0.4257 -0.1668
  601MOL0     C81005   9.498   0.875   5.633 -1.2198 -0.0235 -0.3103
  601MOL0     C81006   9.397   0.886   5.534  0.0738  0.6623  0.6650
  601MOL0     C81007   9.426   0.958   5.421  0.7996  0.3897  0.0314
  601MOL0     O81008   9.321   0.938   5.325  0.4115  0.0877 -0.0581
  601MOL0     C81009   9.360   0.925   5.190 -0.0773  0.0934 -0.0569
  601MOL0     C81010   9.245   0.893   5.097  0.1174 -0.4822  0.2396
  601MOL0     C81011   9.192   1.008   5.016  0.4823  0.2738  0.1716
  601MOL0     C81012   9.160   1.139   5.084 -0.9345 -0.6307 -0.4489
  601MOL0     C81013   9.076   1.219   4.982 -0.6639 -0.0949  0.6397
  601MOL0     C81014   9.071   1.358   5.014  0.5069 -0.8262 -0.8445
  601MOL0     C81015   8.999   1.404   5.134  0.0737  0.3956 -0.8450
  601MOL0     C81016   9.013   1.556   5.163  0.2085 -0.1241 -0.4636
  601MOL0     N81017   8.928   1.655   5.094 -0.6881  0.1454 -0.0826
  601MOL0     C81018   8.965   1.725   4.985 -0.3213  0.7072  0.7507
  601MOL0     C81019   8.851   1.800   4.952 -0.4668  0.8886 -0.6825
  601MOL0     C81020   8.850   1.902   4.846 -0.0017 -0.9716  0.2399
  601MOL0     C81021   8.848   2.048   4.886  1.4428 -0.0200  0.0110
  601MOL0     C81022   8.720   2.085   4.972 -0.7496  0.0197  1.1892
  601MOL0     C81023   8.684   2.231   4.933 -0.0453 -0.6577 -1.1220
  601MOL0     O81024   8.637   2.258   4.804 -0.5540 -0.3718  0.1390
  601MOL0     C81025   8.574   2.373   4.760 -0.0147  0.9195 -0.9189
  601MOL0     C81026   8.530   2.366   4.627 -0.9558 -0.0382  0.8711
  601MOL0     C81027   8.462   2.478   4.576 -0.5282  0.8030  0.8534
  601MOL0     C81028   8.449   2.591   4.650 -0.3396 -0.4842  0.3831
  601MOL0     C81029   8.391   2.714   4.592  0.8476  0.4491 -0.0411
  601MOL0     O81030   8.356   2.710   4.460 -0.8099 -0.1311 -0.3565
  601MOL0     C81031   8.285   2.816   4.408  0.3916 -0.6256  0.1929
  601MOL0     C81032   8.338   2.941   4.385  0.2632 -0.3666 -1.0904
  601MOL0     C81033   8.260   3.036   4.312  0.0759 -0.2160 -0.1861
  601MOL0     C81034   8.138   3.016   4.257  0.3244  0.5666  0.2691
  601MOL0     O81035   8.081   3.110   4.176  0.1574 -0.3502 -0.6869
  601MOL0     C81036   7.928   3.127   4.161 -0.1673  0.6180 -1.1436
  601MOL0     C81037   7.904   3.254   4.077 -0.6294 -0.4467 -0.1256
  601MOL0     C81038   7.773   3.254   4.002  0.5721  0.3432 -0.7070
  601MOL0     C81039   7.784   3.162   3.877 -0.1187 -0.1709 -0.3569
  601MOL0     C81040   7.876   3.194   3.762 -0.4464 -0.1615  0.9362
  601MOL0     C81041   7.893   3.343   3.734  0.6912  0.4272 -0.1123
  601MOL0     C81042   7.973   3.360   3.605  0.8070 -0.3492  0.2745
  601MOL0     C81043   8.120   3.335   3.633 -0.5667 -0.2852  0.7546
  601MOL0    Cl81044   8.173   3.467   3.728  0.7554 -0.4971  0.3762
  601MOL0     C81045   8.085   2.894   4.284  1.0628  0.2849  0.2412
  601MOL0     C81046   8.164   2.792   4.344  1.2956  0.4743 -0.5973
  601MOL0     O81047   8.357   2.809   4.667 -0.1349  0.5432 -0.0709
  601MOL0     C81048   8.494   2.594   4.780 -0.4898  0.7070  0.0178
  601MOL0     C81049   8.566   2.483   4.840  0.5343  0.6803  0.2247
  601MOL0     N81050   8.754   1.761   5.050 -0.5514 -0.8458  0.2581
  601MOL0     N81051   8.805   1.682   5.134  0.3759  0.5631 -0.6330
  601MOL0     C81052   9.541   1.033   5.405 -0.2905 -0.3801 -1.0304
  601MOL0     C81053   9.638   1.027   5.510 -0.1669 -1.1640 -0.1363
  601MOL0     C81054   9.836   0.965   5.932  0.6785  0.6670 -0.2739
  601MOL0     C81055   9.952   0.901   5.876 -0.7861  0.4214  0.0098
  601MOL0     C81056  10.073   0.917   5.937  0.0054  0.6853 -0.4009
  601MOL0     C81057  10.093   0.988   6.055  0.0086  0.6968  0.1446
  601MOL0     O81058  10.212   1.024   6.103  0.4659 -0.3145  0.1724
  601MOL0     C81059  10.331   0.989   6.038  0.2191  0.2151 -0.5976
  601MOL0     C81060  10.432   1.082   6.098 -0.4192 -0.1502  0.3377
  601MOL0     C81061  10.574   1.077   6.043 -0.4199 -0.7904 -0.5753
  601MOL0     C81062  10.579   1.147   5.912  0.4428 -0.0113 -0.1897
  601MOL0     C81063  10.706   1.131   5.855  0.0894 -0.1048  0.0913
  601MOL0     C81064  10.812   1.106   5.802  0.9490  0.2385  0.5714
  601MOL0     C81065   9.977   1.042   6.108 -0.3355 -0.8714  0.0349
  601MOL0     C81066   9.852   1.032   6.051 -0.3150  0.9883  0.2071
  601MOL0     C81067   9.740   1.108   6.114  0.1726 -0.2699 -0.2677
  601MOL0     H81068   9.472   0.810   5.716 -0.3307 -2.0118 -1.4807
  601MOL0     H81069   9.304   0.831   5.548 -0.6791  1.2525 -1.6601
  601MOL0     H81070   9.406   1.019   5.161 -1.3374  1.5082  2.1812
  601MOL0     H81071   9.433   0.845   5.174  1.1932  0.5265  2.9203
  601MOL0     H81072   9.163   0.848   5.153 -0.8231  0.8742  0.0003
  601MOL0     H81073   9.279   0.833   5.013 -0.1679  0.1407 -0.3247
  601MOL0     H81074   9.109   0.974   4.954  1.9495 -0.8294 -1.2797
  601MOL0     H81075   9.263   1.040   4.939  0.6589  3.0350  1.3607
  601MOL0     H81076   9.084   1.129   5.162 -0.5039  0.7351  0.1849
  601MOL0     H81077   9.258   1.183   5.105 -1.4350  0.6802 -0.7054
  601MOL0     H81078   9.118   1.207   4.882 -0.2953 -1.0553  0.9018
  601MOL0     H81079   8.978   1.171   4.971 -0.2052 -0.4207 -3.1755
  601MOL0     H81080   9.175   1.391   5.017  0.3536 -0.1699 -2.0463
  601MOL0     H81081   9.032   1.406   4.924  2.7616  1.4158 -0.7164
  601MOL0     H81082   9.043   1.358   5.223  0.5048  0.4243 -1.0448
  601MOL0     H81083   8.890   1.388   5.131  0.0371  0.7113 -1.2957
  601MOL0     H81084   8.983   1.563   5.268  1.9062  1.0364 -0.0195
  601MOL0     H81085   9.115   1.594   5.150  0.7432 -1.4343 -0.2608
  601MOL0     H81086   9.059   1.711   4.932 -1.3966 -0.3003 -1.0003
  601MOL0     H81087   8.923   1.879   4.768 -2.6015 -0.3757 -2.5675
  601MOL0     H81088   8.754   1.878   4.799 -0.8661  2.2725  0.0946
  601MOL0     H81089   8.943   2.074   4.935  1.1390  1.5824 -0.2170
  601MOL0     H81090   8.840   2.108   4.795  1.8435  1.4064  0.8974
  601MOL0     H81091   8.744   2.067   5.077 -1.4503 -1.2526  1.1485
  601MOL0     H81092   8.635   2.020   4.948 -1.2240  0.7876  0.7314
  601MOL0     H81093   8.778   2.284   4.949  0.3442 -1.9476  1.2653
  601MOL0     H81094   8.614   2.269   5.009  3.4948 -2.6269  3.6190
  601MOL0     H81095   8.548   2.279   4.565  2.0226  1.6151 -0.8107
  601MOL0     H81096   8.420   2.473   4.477  0.2258  0.8234  0.5259
  601MOL0     H81097   8.431   2.976   4.429 -1.0171  2.6272 -0.5255
  601MOL0     H81098   8.301   3.131   4.281 -3.0143  0.6160 -2.1963
  601MOL0     H81099   7.889   3.039   4.109 -3.1771  0.6880  0.7478
  601MOL0     H81100   7.865   3.122   4.250 -0.1829 -2.5652 -1.2056
  601MOL0     H81101   7.908   3.334   4.151 -0.8407 -1.7246  1.3316
  601MOL0     H81102   7.992   3.262   4.012  2.1881 -2.0094  3.1609
  601MOL0     H81103   7.696   3.225   4.074  2.0802  0.4672  0.9972
  601MOL0     H81104   7.766   3.361   3.980 -1.5097  0.3385 -0.3048
  601MOL0     H81105   7.686   3.174   3.830 -0.3763  1.1004  0.4561
  601MOL0     H81106   7.798   3.058   3.908 -3.9841  0.0797  3.2956
  601MOL0     H81107   7.838   3.137   3.677  0.9114 -0.0248  0.2161
  601MOL0     H81108   7.976   3.159   3.788  1.1150  2.1201 -1.5323
  601MOL0     H81109   7.796   3.388   3.713 -1.0863 -0.2591  5.2660
  601MOL0     H81110   7.933   3.391   3.824  2.6100  1.1158 -1.2646
  601MOL0     H81111   7.958   3.457   3.558  1.1115 -0.2699  0.3329
  601MOL0     H81112   7.936   3.286   3.533 -4.0932  1.9383  0.0710
  601MOL0     H81113   8.133   3.240   3.685  0.4265  0.1435  1.3284
  601MOL0     H81114   8.184   3.345   3.546  0.6084  3.2904  1.8592
  601MOL0     H81115   7.985   2.859   4.258 -0.0193  1.0410  3.0766
  601MOL0     H81116   8.121   2.693   4.356  2.6854 -0.1520 -0.5267
  601MOL0     H81117   8.487   2.683   4.842 -3.7145  0.5926 -0.0043
  601MOL0     H81118   8.617   2.483   4.936  2.8851  5.2361 -0.7798
  601MOL0     H81119   9.556   1.109   5.328 -2.7795  0.2670 -0.9556
  601MOL0     H81120   9.730   1.084   5.514 -0.5998 -0.4554 -0.1583
  601MOL0     H81121   9.961   0.851   5.780  3.4997 -0.4609  0.6954
  601MOL0     H81122  10.164   0.870   5.902  0.0276  0.6972 -0.3582
  601MOL0     H81123  10.318   1.000   5.930 -1.0831  0.2627 -0.4465
  601MOL0     H81124  10.363   0.888   6.066 -0.3990  0.4095  0.8928
  601MOL0     H81125  10.429   1.077   6.207  0.0772  0.1448  0.3665
  601MOL0     H81126  10.391   1.183   6.089  1.6954  1.0320  2.8967
  601MOL0     H81127  10.607   0.974   6.026  0.9846 -0.5009  0.2287
  601MOL0     H81128  10.647   1.119   6.113  1.2331  1.8580 -3.6217
  601MOL0     H81129  10.507   1.093   5.850  1.2228 -2.2557  0.7788
  601MOL0     H81130  10.571   1.256   5.921  1.8560  0.0902  0.0266
  601MOL0     H81131  10.905   1.093   5.750  1.4674 -0.5596  1.6669
  601MOL0     H81132   9.998   1.098   6.199 -0.8174 -0.8960  0.1653
  601MOL0     H81133   9.690   1.175   6.043  0.2611 -0.4725 -0.5258
  601MOL0     H81134   9.661   1.038   6.145 -1.0671  0.4724 -1.6221
  601MOL0     H81135   9.777   1.163   6.200  2.0298  0.7898 -1.6761
  602MOL0     O81136   6.960   1.866   4.540 -0.3618  0.1071 -0.4832
  602MOL0     C81137   6.972   1.940   4.642 -0.1388 -0.5237  0.1777
  602MOL0     O81138   7.088   1.984   4.697 -0.0780  0.4857  0.0423
  602MOL0     C81139   7.206   1.939   4.647 -1.1892 -0.3751  0.4344
  602MOL0     C81140   7.291   2.048   4.611 -0.6738  0.3912 -0.2173
  602MOL0     C81141   7.417   2.028   4.547  0.1269 -0.8276 -0.0149
  602MOL0     C81142   7.455   1.899   4.513 -0.1122  0.5951  0.1723
  602MOL0     O81143   7.573   1.858   4.442  0.8090  0.5061 -0.2045
  602MOL0     C81144   7.695   1.923   4.417 -0.0901 -0.0640 -0.1129
  602MOL0     C81145   7.771   1.936   4.552 -0.0105 -1.0394 -0.5915
  602MOL0     C81146   7.798   1.804   4.620  0.1492  0.1674  0.0016
  602MOL0     C81147   7.821   1.812   4.768 -0.2937  0.7174 -0.3056
  602MOL0     C81148   7.870   1.680   4.830  0.1242  0.5551 -0.9894
  602MOL0     C81149   7.847   1.664   4.987 -0.0454  0.6068 -0.3139
  602MOL0     C81150   7.961   1.583   5.047 -0.2621 -0.2416  0.2619
  602MOL0     C81151   7.945   1.568   5.194  0.5851  0.2139 -1.0725
  602MOL0     N81152   8.061   1.507   5.247 -0.0127  0.5196 -0.1405
  602MOL0     C81153   8.193   1.531   5.215 -0.6763  0.4436  0.1319
  602MOL0     C81154   8.271   1.466   5.299 -0.0212  0.8850 -1.4425
  602MOL0     C81155   8.423   1.444   5.314 -0.4219  0.0977 -0.2924
  602MOL0     C81156   8.497   1.366   5.212  1.5179 -0.5422 -0.2156
  602MOL0     C81157   8.451   1.219   5.215 -0.2697  0.1221  0.0843
  602MOL0     C81158   8.555   1.106   5.204  0.8108 -0.3751  0.3594
  602MOL0     O81159   8.639   1.130   5.092 -0.5936 -0.0634 -0.1924
  602MOL0     C81160   8.684   1.010   5.038 -0.4239 -0.6826 -0.2069
  602MOL0     C81161   8.597   0.949   4.944 -0.6869 -0.3730  0.0143
  602MOL0     C81162   8.625   0.822   4.894 -0.3136 -0.0178 -0.7909
  602MOL0     C81163   8.735   0.747   4.948 -0.4803 -0.1223  0.1910
  602MOL0     C81164   8.748   0.601   4.925  0.2107 -1.0290 -0.1092
  602MOL0     O81165   8.632   0.537   4.896  0.1739 -0.0052 -0.3078
  602MOL0     C81166   8.614   0.425   4.971 -0.1816  0.1838  0.9818
  602MOL0     C81167   8.493   0.408   5.033 -0.2151 -0.3325 -0.3870
  602MOL0     C81168   8.455   0.296   5.103 -0.3380 -0.3402  0.5431
  602MOL0     C81169   8.553   0.198   5.128 -0.5113 -0.9985 -0.2083
  602MOL0     O81170   8.525   0.082   5.195  0.7091  0.7963 -0.0305
  602MOL0     C81171   8.518   0.086   5.336 -0.2367  0.2025 -0.7997
  602MOL0     C81172   8.629   0.007   5.407  1.2059  0.6362 -0.0317
  602MOL0     C81173   8.757   0.092   5.406 -0.0297  0.5561  0.0440
  602MOL0     C81174   8.890   0.025   5.414 -0.2775  0.0354  0.6768
  602MOL0     C81175   8.994   0.135   5.420 -0.4216  0.2404 -0.0628
  602MOL0     C81176   9.137   0.103   5.368  0.9476 -0.3213  0.0960
  602MOL0     C81177   9.189  -0.037   5.406  0.9562  0.2448  0.2854
  602MOL0     C81178   9.335  -0.060   5.368 -0.2397 -0.5916  0.1580
  602MOL0    Cl81179   9.374  -0.232   5.375 -0.3725  0.3309 -0.0140
  602MOL0     C81180   8.675   0.211   5.060 -0.1745 -0.3184 -0.4366
  602MOL0     C81181   8.702   0.320   4.982 -1.6899  0.0423  0.7936
  602MOL0     O81182   8.867   0.564   4.931 -0.1825 -0.5824 -0.5455
  602MOL0     C81183   8.827   0.819   5.036  0.5356  0.0595  1.1194
  602MOL0     C81184   8.801   0.940   5.082 -0.4538 -1.0814  0.2778
  602MOL0     N81185   8.177   1.398   5.376 -0.1381  0.7825 -0.6741
  602MOL0     N81186   8.055   1.420   5.344 -0.3895 -0.1426  1.1491
  602MOL0     C81187   7.366   1.790   4.538 -0.2598 -0.5749 -0.0546
  602MOL0     C81188   7.251   1.816   4.614  0.4560  0.6395  0.9207
  602MOL0     C81189   6.848   1.974   4.716 -0.8247  0.0582 -0.2634
  602MOL0     C81190   6.838   2.103   4.760  0.3933  0.3440 -0.3310
  602MOL0     C81191   6.715   2.149   4.802  0.1716 -0.6998  0.4342
  602MOL0     C81192   6.606   2.064   4.827  0.9464  0.7573  0.0174
  602MOL0     O81193   6.488   2.094   4.881  0.3072 -0.3868 -0.0414
  602MOL0     C81194   6.437   2.227   4.844 -0.4966  0.6689 -0.1706
  602MOL0     C81195   6.288   2.236   4.882  0.7860 -0.4469 -0.8033
  602MOL0     C81196   6.246   2.196   5.019 -1.1941 -0.4765 -0.5125
  602MOL0     C81197   6.312   2.282   5.132 -0.1369 -0.4071 -0.4735
  602MOL0     C81198   6.289   2.228   5.270  0.7930 -0.4452  1.0015
  602MOL0     C81199   6.255   2.192   5.383 -0.8419  0.6459 -0.8367
  602MOL0     C81200   6.620   1.929   4.799  0.1084  0.1873 -0.0195
  602MOL0     C81201   6.742   1.883   4.747  0.7933  0.8062 -0.6371
  602MOL0     C81202   6.765   1.727   4.734 -0.3108  0.3390  0.4975
  602MOL0     H81203   7.253   2.148   4.628  2.0414  1.2138  1.5179
  602MOL0     H81204   7.473   2.116   4.519  0.1731 -1.3024 -1.4939
  602MOL0     H81205   7.755   1.863   4.348  1.2806  0.5410  0.5130
  602MOL0     H81206   7.675   2.017   4.366 -0.7647 -1.3645 -2.3890
  602MOL0     H81207   7.711   2.001   4.617 -0.0449 -2.9302  1.3794
  602MOL0     H81208   7.861   1.989   4.518 -0.1844 -0.9374 -0.8951
  602MOL0     H81209   7.887   1.761   4.573  0.4770  0.3884  0.4079
  602MOL0     H81210   7.709   1.743   4.602 -1.0546  1.7724  0.3025
  602MOL0     H81211   7.896   1.887   4.798  1.5218 -1.1060 -0.0976
  602MOL0     H81212   7.728   1.837   4.821  0.3261 -0.3815  1.3884
  602MOL0     H81213   7.826   1.589   4.788  0.7034  0.3427 -1.1458
  602MOL0     H81214   7.978   1.673   4.812  0.8768  3.0309  1.6956
  602MOL0     H81215   7.862   1.756   5.045 -1.5812  0.2967  0.6416
  602MOL0     H81216   7.753   1.609   5.000 -1.0949  1.9013 -1.8883
  602MOL0     H81217   8.055   1.634   5.026 -1.0638  2.2055  2.1704
  602MOL0     H81218   7.945   1.485   5.000 -2.2345  0.8225 -1.4393
  602MOL0     H81219   7.946   1.671   5.233 -1.5426  1.6429 -4.3431
  602MOL0     H81220   7.845   1.530   5.217  0.4595  2.4404  3.1099
  602MOL0     H81221   8.229   1.592   5.134 -2.9957  0.8029 -0.7154
  602MOL0     H81222   8.470   1.543   5.313 -0.7986  0.4470 -4.7160
  602MOL0     H81223   8.450   1.398   5.409 -0.6883  0.5372 -0.0002
  602MOL0     H81224   8.466   1.399   5.112 -1.5156 -2.1072  0.0925
  602MOL0     H81225   8.605   1.351   5.227  1.2167  0.2207  3.8126
  602MOL0     H81226   8.381   1.215   5.131  0.2170  2.0438 -0.4706
  602MOL0     H81227   8.392   1.209   5.306 -0.2463  0.9721  0.2046
  602MOL0     H81228   8.501   1.011   5.200  1.5261 -0.8016  0.7458
  602MOL0     H81229   8.615   1.101   5.295 -0.8485  0.5677  1.5805
  602MOL0     H81230   8.512   1.007   4.910 -0.0082  0.0842 -0.9222
  602MOL0     H81231   8.555   0.787   4.819  2.6539 -1.1612 -3.1801
  602MOL0     H81232   8.416   0.483   5.021 -1.0830 -1.4600 -2.5446
  602MOL0     H81233   8.352   0.288   5.138 -1.9944  0.0610 -3.7067
  602MOL0     H81234   8.510   0.182   5.388 -1.7693 -0.4452  0.2546
  602MOL0     H81235   8.422   0.036   5.355 -0.9120  2.1693  1.4684
  602MOL0     H81236   8.591  -0.008   5.508 -0.8209 -1.6596 -1.0139
  602MOL0     H81237   8.636  -0.099   5.379  1.8188  0.7503 -0.3126
  602MOL0     H81238   8.747   0.160   5.321  1.7961  2.5633  1.3252
  602MOL0     H81239   8.745   0.152   5.497  1.3080  2.0821 -0.7419
  602MOL0     H81240   8.909  -0.028   5.320  1.3325  0.1096  0.9328
  602MOL0     H81241   8.907  -0.045   5.497  3.9420  2.9374  2.6344
  602MOL0     H81242   8.994   0.176   5.521 -7.1175  1.7122 -0.1545
  602MOL0     H81243   8.953   0.214   5.356 -3.5584  0.2408  1.7209
  602MOL0     H81244   9.138   0.101   5.259  1.6384  1.2105  0.0483
  602MOL0     H81245   9.205   0.178   5.409 -0.3963 -0.3548  2.6060
  602MOL0     H81246   9.128  -0.110   5.352  2.9199 -1.4474  0.2223
  602MOL0     H81247   9.180  -0.053   5.514  2.4527 -0.2019  0.3669
  602MOL0     H81248   9.344  -0.024   5.265  1.4732  2.5402  1.2623
  602MOL0     H81249   9.409  -0.008   5.429 -2.4492 -0.8577  3.3303
  602MOL0     H81250   8.758   0.141   5.066  1.4054  1.4962 -0.0789
  602MOL0     H81251   8.797   0.325   4.930 -1.1684 -0.3814  1.6731
  602MOL0     H81252   8.913   0.765   5.073  1.7526  2.0073  1.2071
  602MOL0     H81253   8.881   0.993   5.133  0.6897 -0.7391 -1.7756
  602MOL0     H81254   7.406   1.693   4.512  1.0164 -0.1208  0.0909
  602MOL0     H81255   7.189   1.730   4.634  0.2989  0.3805 -0.5812
  602MOL0     H81256   6.919   2.173   4.743 -1.1868  2.8968  1.8441
  602MOL0     H81257   6.707   2.255   4.824  1.6382 -0.6749  0.9594
  602MOL0     H81258   6.454   2.242   4.737  1.2374  1.4796  0.1815
  602MOL0     H81259   6.491   2.305   4.899  4.1391 -0.9019 -2.0298
  602MOL0     H81260   6.232   2.177   4.808 -0.0069  0.7390 -1.1757
  602MOL0     H81261   6.259   2.340   4.864  2.0429  0.0515 -0.0367
  602MOL0     H81262   6.272   2.091   5.035 -0.9006 -0.7290 -2.4153
  602MOL0     H81263   6.137   2.205   5.016 -1.1061  1.2398  0.1534
  602MOL0     H81264   6.421   2.276   5.129 -0.1608 -0.3670 -1.7013
  602MOL0     H81265   6.292   2.389   5.130  5.2614  0.9097 -3.8592
  602MOL0     H81266   6.220   2.152   5.475  0.8190  0.4980 -0.2250
  602MOL0     H81267   6.541   1.860   4.824 -0.0800  0.0973 -0.8556
  602MOL0     H81268   6.704   1.701   4.647  1.6113  0.3018 -0.8935
  602MOL0     H81269   6.868   1.695   4.718 -0.0098  1.2159  0.6378
  602MOL0     H81270   6.717   1.661   4.807 -0.9955 -1.1736 -1.2280
  603MOL0     O81271   6.065   4.073   4.586  0.0887  0.2278 -0.0342
  603MOL0     C81272   5.951   4.073   4.629  0.5104 -0.6097  0.0404
  603MOL0     O81273   5.858   4.162   4.594  0.3000 -0.0927  0.6609
  603MOL0     C81274   5.889   4.283   4.534  0.1355  0.0685 -0.5756
  603MOL0     C81275   6.003   4.358   4.550  0.2481 -0.4098 -0.3101
  603MOL0     C81276   6.019   4.480   4.491  0.4190 -0.0478  0.2330
  603MOL0     C81277   5.924   4.530   4.402  0.6061 -0.5307  0.1534
  603MOL0     O81278   5.949   4.644   4.328 -0.1299  0.2154  0.4233
  603MOL0     C81279   5.870   4.672   4.217 -0.4481  0.1123  0.6188
  603MOL0     C81280   5.924   4.794   4.140 -0.2757  1.1067 -1.2031
  603MOL0     C81281   6.057   4.779   4.072  0.0122  0.2359  0.5536
  603MOL0     C81282   6.063   4.667   3.966  0.2812 -0.3113  0.3582
  603MOL0     C81283   6.196   4.681   3.890  0.1880 -0.3617 -0.5979
  603MOL0     C81284   6.220   4.576   3.777 -0.5358 -0.5587  0.2223
  603MOL0     C81285   6.108   4.588   3.670 -0.7256 -0.2483  0.1771
  603MOL0     C81286   6.149   4.525   3.534 -0.1769 -0.1875 -0.3764
  603MOL0     N81287   6.044   4.515   3.434 -0.3288  0.6548  0.2401
  603MOL0     C81288   5.909   4.554   3.443 -0.1280  0.5988 -0.8972
  603MOL0     C81289   5.861   4.542   3.314 -1.4281  1.2883 -0.5950
  603MOL0     C81290   5.727   4.566   3.253  0.2932 -0.3326  0.1570
  603MOL0     C81291   5.735   4.671   3.140 -0.7124 -0.4849 -0.1869
  603MOL0     C81292   5.611   4.683   3.051 -0.1302  0.3980  0.0396
  603MOL0     C81293   5.536   4.817   3.059 -0.1560 -0.5919 -0.9039
  603MOL0     O81294   5.463   4.826   2.937  0.1295 -0.3354 -0.5366
  603MOL0     C81295   5.426   4.953   2.897  1.0256 -0.7254 -0.5391
  603MOL0     C81296   5.379   4.965   2.767 -0.8357 -0.4987  0.0643
  603MOL0     C81297   5.344   5.097   2.720 -0.1866 -0.0008  0.1720
  603MOL0     C81298   5.346   5.201   2.812  0.0430  1.0246 -0.2931
  603MOL0     C81299   5.298   5.340   2.778  0.0313  0.5113 -0.4699
  603MOL0     O81300   5.243   5.366   2.652  0.9801  0.1882 -0.7565
  603MOL0     C81301   5.173   5.486   2.630 -2.1404  1.0977 -0.0565
  603MOL0     C81302   5.215   5.589   2.537 -0.3603 -0.7608 -0.1807
  603MOL0     C81303   5.136   5.707   2.531  0.4722 -1.2442  0.2781
  603MOL0     C81304   5.005   5.711   2.590 -0.0356 -1.0817 -0.6249
  603MOL0     O81305   4.932   5.826   2.568  0.2356 -0.2999  0.3428
  603MOL0     C81306   4.830   5.859   2.664  0.5899  0.3792  0.0149
  603MOL0     C81307   4.774   6.000   2.627  0.3895  0.2263  0.3756
  603MOL0     C81308   4.882   6.112   2.621  0.7185  0.8693  0.1547
  603MOL0     C81309   4.924   6.157   2.474 -0.1784 -0.1200 -0.7249
  603MOL0     C81310   5.059   6.235   2.477 -0.0131  0.5863  0.7426
  603MOL0     C81311   5.120   6.277   2.335 -0.4231  0.2355 -0.4493
  603MOL0     C81312   5.126   6.165   2.226  0.1582  0.7587  0.1647
  603MOL0     C81313   5.196   6.039   2.275  0.7197  0.6799  0.0958
  603MOL0    Cl81314   5.369   6.059   2.305  0.1872  0.0964  0.0957
  603MOL0     C81315   4.964   5.599   2.658 -0.6521  0.1097 -0.8041
  603MOL0     C81316   5.048   5.498   2.694  0.5116 -0.0588 -0.1286
  603MOL0     O81317   5.300   5.420   2.870  0.5844 -0.3954 -0.0931
  603MOL0     C81318   5.399   5.185   2.935  0.6069  0.0997  0.0534
  603MOL0     C81319   5.430   5.066   2.979 -0.0894 -0.0726  0.0996
  603MOL0     N81320   5.970   4.486   3.239 -0.0320 -0.7022  0.5121
  603MOL0     N81321   6.069   4.466   3.308  0.4108 -0.9156  0.2700
  603MOL0     C81322   5.806   4.454   4.384 -0.1456  0.6315 -0.7857
  603MOL0     C81323   5.787   4.332   4.456 -0.6843 -0.3404  0.5892
  603MOL0     C81324   5.888   3.949   4.679 -0.2273  0.2954  0.1714
  603MOL0     C81325   5.912   3.828   4.611  0.0698  0.3564 -0.9582
  603MOL0     C81326   5.851   3.712   4.648 -0.0018  0.1310 -0.7403
  603MOL0     C81327   5.776   3.698   4.765 -0.1956 -0.6231  0.2750
  603MOL0     O81328   5.720   3.582   4.818 -0.1746 -0.0889  0.3976
  603MOL0     C81329   5.702   3.463   4.732 -1.4467 -1.0869  0.1076
  603MOL0     C81330   5.819   3.365   4.758  0.4825  0.1826  0.1387
  603MOL0     C81331   5.865   3.364   4.903 -0.2695 -0.4359  0.1047
  603MOL0     C81332   5.950   3.244   4.937  0.5831  0.4439  0.1693
  603MOL0     C81333   5.866   3.123   4.946  0.3371 -0.0244  0.1335
  603MOL0     C81334   5.796   3.032   4.971  0.3722  0.2295 -0.8858
  603MOL0     C81335   5.750   3.812   4.836 -0.5077 -0.5622  0.2217
  603MOL0     C81336   5.808   3.942   4.801 -0.5257  0.1318  0.3843
  603MOL0     C81337   5.768   4.063   4.891  0.6502 -0.1637  0.2096
  603MOL0     H81338   6.072   4.319   4.624 -2.7664 -0.5966  2.6420
  603MOL0     H81339   6.116   4.527   4.504  2.4863 -2.8433 -3.0381
  603MOL0     H81340   5.866   4.590   4.144 -1.1317 -0.8425  1.6890
  603MOL0     H81341   5.766   4.689   4.245 -1.1538 -1.8925 -0.5237
  603MOL0     H81342   5.932   4.872   4.216 -0.6003  2.3267 -2.3844
  603MOL0     H81343   5.840   4.824   4.076 -2.1786  0.8692  1.0387
  603MOL0     H81344   6.139   4.757   4.141  1.4703 -1.3923 -1.5570
  603MOL0     H81345   6.074   4.878   4.028  0.5823  0.2478  0.7810
  603MOL0     H81346   6.047   4.563   3.997  0.2789 -0.7484 -1.0366
  603MOL0     H81347   5.976   4.693   3.905 -0.0467  3.4891  2.1710
  603MOL0     H81348   6.184   4.772   3.831  4.5870 -0.3321 -1.8058
  603MOL0     H81349   6.285   4.682   3.953 -0.0898 -0.7135 -0.1920
  603MOL0     H81350   6.314   4.590   3.724 -0.4434  2.4751  0.9962
  603MOL0     H81351   6.215   4.474   3.816 -1.7119 -0.8583 -0.6541
  603MOL0     H81352   6.054   4.683   3.673  0.4030  0.4194  0.0006
  603MOL0     H81353   6.030   4.524   3.713 -1.0161  0.7909  1.2475
  603MOL0     H81354   6.238   4.579   3.500  1.6232 -3.8994 -2.2140
  603MOL0     H81355   6.189   4.426   3.558  2.8600  1.2955  1.3468
  603MOL0     H81356   5.845   4.582   3.526 -1.5448 -1.5573 -1.1865
  603MOL0     H81357   5.701   4.475   3.197 -0.7892  1.0568 -1.7036
  603MOL0     H81358   5.657   4.594   3.332  0.4769 -1.1558  0.6290
  603MOL0     H81359   5.761   4.768   3.184  2.0368 -1.3757  0.3609
  603MOL0     H81360   5.812   4.640   3.069  1.4203  2.3525  0.7205
  603MOL0     H81361   5.532   4.614   3.080 -0.4604  1.5548  2.0605
  603MOL0     H81362   5.632   4.663   2.945 -4.0365 -3.6912 -0.2613
  603MOL0     H81363   5.611   4.896   3.066 -0.1818 -0.6938  2.2095
  603MOL0     H81364   5.472   4.816   3.148  0.0931  2.1241 -0.6236
  603MOL0     H81365   5.363   4.877   2.706 -1.4187 -0.3455 -0.0058
  603MOL0     H81366   5.314   5.112   2.617  0.1923 -0.0047  0.0609
  603MOL0     H81367   5.318   5.590   2.502 -0.6523  0.1949 -1.0705
  603MOL0     H81368   5.148   5.796   2.470 -2.2620 -0.9276  0.0811
  603MOL0     H81369   4.743   5.794   2.653 -0.3980  2.0979 -3.6856
  603MOL0     H81370   4.875   5.866   2.764  3.0475 -0.5454 -0.9510
  603MOL0     H81371   4.714   5.999   2.536 -0.8176 -2.8761  1.0717
  603MOL0     H81372   4.704   6.023   2.707 -1.4432 -1.8601 -0.5316
  603MOL0     H81373   4.843   6.196   2.679 -3.1486 -0.7366  0.1857
  603MOL0     H81374   4.969   6.072   2.674 -1.0406 -3.7878  0.0220
  603MOL0     H81375   4.841   6.210   2.427  1.8527  1.0802 -3.1417
  603MOL0     H81376   4.930   6.066   2.413 -2.6299  0.1615 -1.5017
  603MOL0     H81377   5.127   6.164   2.524 -0.6965 -0.6768 -0.1085
  603MOL0     H81378   5.047   6.325   2.538  1.1250  0.3977  1.2639
  603MOL0     H81379   5.058   6.355   2.289  0.0123 -0.6422 -2.6434
  603MOL0     H81380   5.219   6.318   2.357 -1.5955  1.8448  2.3127
  603MOL0     H81381   5.189   6.205   2.146 -0.3035  0.0457 -0.5687
  603MOL0     H81382   5.024   6.147   2.193 -0.4929  1.0238  1.9100
  603MOL0     H81383   5.144   6.002   2.363 -0.2807  1.0250 -0.3254
  603MOL0     H81384   5.190   5.955   2.206  2.7088 -0.0682  0.7847
  603MOL0     H81385   4.861   5.611   2.692 -0.4248  0.0487 -0.0912
  603MOL0     H81386   5.012   5.424   2.764  2.1625  1.0368  1.9783
  603MOL0     H81387   5.419   5.271   2.998  3.0409 -1.0391  0.9806
  603MOL0     H81388   5.450   5.063   3.086 -1.8968 -0.6962  0.4564
  603MOL0     H81389   5.734   4.505   4.322  0.8604  1.8105 -1.0284
  603MOL0     H81390   5.690   4.288   4.436  0.3831 -2.6358  0.0931
  603MOL0     H81391   5.972   3.840   4.521  0.2067  0.0877 -0.9022
  603MOL0     H81392   5.862   3.627   4.582 -0.1853 -0.9116  0.5254
  603MOL0     H81393   5.707   3.485   4.625 -3.3046  1.1487  0.3783
  603MOL0     H81394   5.607   3.412   4.748 -1.1326 -1.6193  0.2819
  603MOL0     H81395   5.904   3.407   4.704 -0.4510 -0.6648 -2.1181
  603MOL0     H81396   5.780   3.268   4.728 -1.9573  1.0275  0.3436
  603MOL0     H81397   5.788   3.372   4.980 -0.1897 -1.6673  0.3396
  603MOL0     H81398   5.928   3.452   4.908 -1.5950  0.5371  0.2238
  603MOL0     H81399   6.023   3.230   4.857  1.2616  0.5393  0.7686
  603MOL0     H81400   6.014   3.244   5.025  0.0289  0.1314  0.5846
  603MOL0     H81401   5.732   2.961   5.019  0.9649  2.3729  3.6269
  603MOL0     H81402   5.688   3.795   4.924 -0.7540 -0.2682  0.1073
  603MOL0     H81403   5.661   4.080   4.876  0.3578 -0.8211  1.3449
  603MOL0     H81404   5.790   4.041   4.996 -0.8889 -1.2770  0.3338
  603MOL0     H81405   5.815   4.161   4.882  0.1941  0.0291 -0.0781
  604MOL0     O81406   0.295   0.257   9.419 -0.1680  0.3415 -0.0554
  604MOL0     C81407   0.410   0.266   9.398  0.2522 -0.1019 -0.2302
  604MOL0     O81408   0.461   0.316   9.288  0.5367 -0.7185  0.1980
  604MOL0     C81409   0.382   0.370   9.192 -0.8336  1.0073 -0.3785
  604MOL0     C81410   0.313   0.286   9.110  0.6766  0.4043 -0.6800
  604MOL0     C81411   0.245   0.322   9.003  1.3885  0.6053 -0.9018
  604MOL0     C81412   0.229   0.461   8.975  0.2411  0.9501 -0.0674
  604MOL0     O81413   0.155   0.499   8.869 -0.6448 -0.5978 -0.4459
  604MOL0     C81414   0.110   0.398   8.773 -0.1772 -0.2077 -1.4161
  604MOL0     C81415   0.062   0.482   8.663 -0.3123  0.5658  0.4933
  604MOL0     C81416   0.011   0.409   8.544 -0.2646 -0.0143  0.0681
  604MOL0     C81417   0.117   0.325   8.469 -0.4110  0.3593 -0.1885
  604MOL0     C81418   0.081   0.254   8.339 -0.3930 -0.3369 -0.9593
  604MOL0     C81419  -0.001   0.331   8.229  0.6811 -0.5689  0.1027
  604MOL0     C81420   0.043   0.470   8.193  0.3872 -0.2627 -0.3286
  604MOL0     C81421   0.006   0.500   8.037  0.7189  0.5570  0.5228
  604MOL0     N81422   0.096   0.595   7.969 -0.5883  0.7525  0.4990
  604MOL0     C81423   0.055   0.685   7.874 -0.3479  0.3418  0.8345
  604MOL0     C81424   0.165   0.704   7.797 -0.6963 -0.1992  0.5827
  604MOL0     C81425   0.200   0.800   7.687 -0.2307  0.6195  0.4803
  604MOL0     C81426   0.247   0.725   7.557 -0.6163  0.4644 -0.6052
  604MOL0     C81427   0.148   0.621   7.502  0.5019 -0.6007  0.5011
  604MOL0     C81428   0.218   0.538   7.395  0.0677 -0.8071 -0.0237
  604MOL0     O81429   0.119   0.450   7.334  0.0625 -0.5039 -0.3655
  604MOL0     C81430   0.159   0.376   7.219 -0.6486 -0.6855 -0.4670
  604MOL0     C81431   0.068   0.290   7.156  0.1135 -0.1769  0.5638
  604MOL0     C81432   0.111   0.203   7.052  0.2237  0.2396  0.2711
  604MOL0     C81433   0.235   0.216   6.994  0.2249 -0.9371 -0.1589
  604MOL0     C81434   0.271   0.133   6.880 -0.1314  0.4120 -0.0105
  604MOL0     O81435   0.206   0.012   6.874  0.3165 -0.8980 -0.4798
  604MOL0     C81436   0.241  -0.070   6.772 -0.2356  0.5263  0.1149
  604MOL0     C81437   0.227  -0.045   6.630  0.0792 -0.2461  0.0901
  604MOL0     C81438   0.268  -0.152   6.540  0.0711  0.2121  0.8469
  604MOL0     C81439   0.311  -0.275   6.585 -0.6411  0.0369  1.0132
  604MOL0     O81440   0.362  -0.370   6.495 -1.0806 -0.5982  0.1145
  604MOL0     C81441   0.490  -0.322   6.436 -0.5591  0.8433 -0.8828
  604MOL0     C81442   0.597  -0.326   6.543 -0.1037  0.1630 -0.3040
  604MOL0     C81443   0.738  -0.334   6.479 -0.0991 -0.0614  0.4408
  604MOL0     C81444   0.853  -0.348   6.586 -0.6352  0.1079  0.4581
  604MOL0     C81445   0.995  -0.364   6.523 -0.0576  1.1270 -0.7246
  604MOL0     C81446   1.119  -0.356   6.616 -0.7214  1.0943  0.9885
  604MOL0     C81447   1.238  -0.413   6.527 -0.4488  0.7116  0.8577
  604MOL0     C81448   1.377  -0.389   6.585  0.2593 -0.1634 -0.9277
  604MOL0    Cl81449   1.421  -0.221   6.559  0.2729 -0.1282 -0.1081
  604MOL0     C81450   0.327  -0.287   6.724  0.3695 -0.3104 -0.8234
  604MOL0     C81451   0.285  -0.198   6.818 -0.2751  0.2267  0.3317
  604MOL0     O81452   0.341   0.177   6.788 -0.3156 -0.5810 -0.5596
  604MOL0     C81453   0.330   0.309   7.057  0.1081 -0.4605 -0.3743
  604MOL0     C81454   0.295   0.380   7.177 -0.2288  0.7576 -0.3974
  604MOL0     N81455   0.266   0.623   7.845 -0.2689  0.5818  0.1917
  604MOL0     N81456   0.227   0.561   7.946 -0.1289  0.0907  0.5713
  604MOL0     C81457   0.291   0.556   9.055 -0.7042 -0.0553 -0.5292
  604MOL0     C81458   0.368   0.510   9.168  0.0553  0.0637  0.4255
  604MOL0     C81459   0.505   0.209   9.504 -0.1533  0.8897  0.0141
  604MOL0     C81460   0.636   0.244   9.484 -1.1787 -0.2120 -0.8751
  604MOL0     C81461   0.737   0.204   9.579  0.1756 -0.5505  1.5800
  604MOL0     C81462   0.712   0.110   9.685 -0.2063  0.5667 -0.3071
  604MOL0     O81463   0.793   0.051   9.776  0.6187  0.5803  0.1201
  604MOL0     C81464   0.931   0.054   9.739  0.3832  0.6220  0.4926
  604MOL0     C81465   1.006  -0.045   9.828 -0.1917 -0.0743 -1.3282
  604MOL0     C81466   1.162  -0.020   9.807  1.4395  0.4690  0.2308
  604MOL0     C81467   1.243  -0.146   9.849 -0.1034  0.1758 -0.0130
  604MOL0     C81468   1.381  -0.126   9.804  0.6857  0.4426 -0.1189
  604MOL0     C81469   1.495  -0.100   9.786 -0.1525  0.6651 -0.9636
  604MOL0     C81470   0.575   0.068   9.705  0.2285 -0.2870  0.5657
  604MOL0     C81471   0.476   0.130   9.618  0.5188  0.1597 -1.5677
  604MOL0     C81472   0.331   0.086   9.652 -0.2997  0.7315 -0.2740
  604MOL0     H81473   0.315   0.179   9.131  1.2748  0.3511 -0.9661
  604MOL0     H81474   0.203   0.247   8.937 -0.1601 -0.2881  0.9708
  604MOL0     H81475   0.188   0.328   8.740 -1.4156 -2.4506  0.1714
  604MOL0     H81476   0.023   0.342   8.807 -1.4054  1.7609 -1.1916
  604MOL0     H81477   0.133   0.560   8.631 -0.2320  0.7623  1.1213
  604MOL0     H81478  -0.025   0.527   8.712  0.0159  0.8985  0.7842
  604MOL0     H81479  -0.025   0.488   8.478 -1.8813  0.0230  0.9415
  604MOL0     H81480  -0.077   0.348   8.566  0.3150 -1.5944 -1.7202
  604MOL0     H81481   0.199   0.395   8.450 -1.6044  1.8424 -0.0668
  604MOL0     H81482   0.144   0.242   8.536  0.3959  0.3735 -0.4843
  604MOL0     H81483   0.172   0.207   8.299  0.1934  0.3234 -0.4316
  604MOL0     H81484   0.027   0.164   8.370  0.6901 -1.1413 -1.3092
  604MOL0     H81485  -0.004   0.273   8.136 -1.5474  2.9345 -2.2722
  604MOL0     H81486  -0.106   0.343   8.256 -0.4421  3.8702 -4.6091
  604MOL0     H81487   0.152   0.471   8.197  0.4754  1.5516 -1.6537
  604MOL0     H81488   0.012   0.540   8.271 -2.3565 -2.2154  0.4773
  604MOL0     H81489   0.006   0.405   7.983 -3.5747 -1.2846  3.2370
  604MOL0     H81490  -0.096   0.534   8.021 -0.1641 -2.2850 -0.5692
  604MOL0     H81491  -0.039   0.740   7.874 -1.4550 -1.4017 -0.6623
  604MOL0     H81492   0.117   0.864   7.656  0.0350 -0.8892 -4.0464
  604MOL0     H81493   0.284   0.860   7.726  0.2185  1.9414 -2.3124
  604MOL0     H81494   0.279   0.799   7.483  2.5409 -2.0701 -2.0123
  604MOL0     H81495   0.337   0.672   7.590  0.0724  0.0820 -2.9247
  604MOL0     H81496   0.059   0.661   7.453 -0.2545 -2.3409  0.3854
  604MOL0     H81497   0.100   0.562   7.581 -4.7281  2.6041  0.1874
  604MOL0     H81498   0.298   0.472   7.428 -2.4386 -3.0172  2.1658
  604MOL0     H81499   0.262   0.613   7.329 -1.5876  1.5298  1.3567
  604MOL0     H81500  -0.033   0.273   7.191  0.1982 -1.0249  0.4067
  604MOL0     H81501   0.044   0.123   7.022 -1.8933  2.5398 -1.5215
  604MOL0     H81502   0.182   0.049   6.602  0.2961  0.2466  1.3334
  604MOL0     H81503   0.255  -0.146   6.432 -1.3795 -1.8340  0.8526
  604MOL0     H81504   0.510  -0.378   6.344 -1.9244  1.9016 -1.8733
  604MOL0     H81505   0.478  -0.223   6.391  1.5715  1.2730 -0.6341
  604MOL0     H81506   0.594  -0.244   6.616  0.1301  1.5946 -1.8332
  604MOL0     H81507   0.576  -0.421   6.593 -0.1883  0.8155  0.9444
  604MOL0     H81508   0.746  -0.421   6.414  2.4273 -0.2575  0.9079
  604MOL0     H81509   0.759  -0.241   6.426  3.7306 -1.9153 -1.7335
  604MOL0     H81510   0.832  -0.427   6.660 -0.2174  1.5052  2.1410
  604MOL0     H81511   0.858  -0.254   6.641  1.4269  2.2639 -3.1062
  604MOL0     H81512   1.011  -0.286   6.448  5.3024  0.8795 -0.1938
  604MOL0     H81513   0.979  -0.461   6.474 -1.4612  0.5097  0.8747
  604MOL0     H81514   1.147  -0.262   6.663 -0.7747  0.6724  1.8829
  604MOL0     H81515   1.103  -0.430   6.696  2.0304 -1.0180 -0.2259
  604MOL0     H81516   1.238  -0.376   6.424  3.6972 -2.9154 -0.7905
  604MOL0     H81517   1.225  -0.522   6.524  0.5389  0.5790  0.9353
  604MOL0     H81518   1.375  -0.413   6.691  3.6233  1.6674 -0.3085
  604MOL0     H81519   1.458  -0.450   6.543  2.4639  0.7008  1.7407
  604MOL0     H81520   0.377  -0.373   6.768  0.7431  1.3800  2.3820
  604MOL0     H81521   0.306  -0.204   6.924  1.3600 -5.4716  0.0496
  604MOL0     H81522   0.421   0.318   7.000  0.5030 -1.6928  0.0262
  604MOL0     H81523   0.375   0.442   7.216 -1.8469  3.2561 -0.7810
  604MOL0     H81524   0.278   0.661   9.031  0.7480  0.1620 -0.4492
  604MOL0     H81525   0.417   0.589   9.223 -0.9970  1.4277 -0.5292
  604MOL0     H81526   0.662   0.299   9.394 -3.8541  0.2572 -1.4377
  604MOL0     H81527   0.832   0.249   9.554  0.2234 -1.7379 -0.6151
  604MOL0     H81528   0.969   0.156   9.750  0.2738  0.5009  2.2680
  604MOL0     H81529   0.950   0.033   9.633  0.1440 -0.2764  0.6155
  604MOL0     H81530   0.977  -0.150   9.826  0.5259 -0.3168  0.0175
  604MOL0     H81531   0.984  -0.022   9.933 -0.4078 -2.8964 -0.6720
  604MOL0     H81532   1.181   0.078   9.852 -0.9422  1.0418  0.1375
  604MOL0     H81533   1.176   0.000   9.700 -5.6739 -0.1082 -1.3160
  604MOL0     H81534   1.248  -0.149   9.958 -1.1342  0.8916  0.0799
  604MOL0     H81535   1.191  -0.236   9.815  1.6403 -0.3251 -1.4593
  604MOL0     H81536   1.599  -0.078   9.774 -0.0390  2.8784  2.6199
  604MOL0     H81537   0.567  -0.000   9.789  0.8059  0.5936  1.3612
  604MOL0     H81538   0.338  -0.008   9.707  2.2308 -0.1298 -1.9310
  604MOL0     H81539   0.272   0.162   9.705 -0.0344  1.2152 -0.6590
  604MOL0     H81540   0.266   0.063   9.567 -0.2826  0.9817 -0.3581
  605MOL0     O81541   3.117   5.283   1.561 -0.3148  0.2315 -0.6311
  605MOL0     C81542   3.060   5.387   1.570 -0.0193 -0.8100 -0.7094
  605MOL0     O81543   2.989   5.428   1.683  0.2942  1.0356 -0.1507
  605MOL0     C81544   2.930   5.339   1.757  0.1031  1.0727 -0.5747
  605MOL0     C81545   2.867   5.223   1.697  0.2864  0.8949  0.0739
  605MOL0     C81546   2.810   5.118   1.777 -0.5186  0.1599  0.9070
  605MOL0     C81547   2.821   5.126   1.912 -0.2981 -0.4905  0.7691
  605MOL0     O81548   2.770   5.025   1.989 -0.7563  0.0054  0.5800
  605MOL0     C81549   2.815   5.011   2.125  0.5706  0.6279  0.7096
  605MOL0     C81550   2.755   4.886   2.184 -0.3567  0.0179 -0.0266
  605MOL0     C81551   2.766   4.878   2.334 -0.2775 -0.1385 -0.4828
  605MOL0     C81552   2.668   4.985   2.402 -0.4648  0.8843  0.8751
  605MOL0     C81553   2.656   4.943   2.547  1.1476  0.0665 -0.4265
  605MOL0     C81554   2.584   5.035   2.652 -0.4417 -0.0729  0.1620
  605MOL0     C81555   2.608   4.969   2.792  0.1756 -0.7864 -0.1295
  605MOL0     C81556   2.568   5.070   2.909  0.6856  0.3794 -0.0493
  605MOL0     N81557   2.590   5.023   3.040 -0.2084 -0.2466 -0.4894
  605MOL0     C81558   2.705   5.035   3.108 -0.6951  0.3596 -0.3148
  605MOL0     C81559   2.695   4.976   3.225 -0.0591 -0.8310  0.5805
  605MOL0     C81560   2.802   4.974   3.340 -0.6265 -0.2328  0.1452
  605MOL0     C81561   2.740   5.030   3.463  0.4388 -0.3021 -0.0745
  605MOL0     C81562   2.674   5.170   3.452  0.7537  0.0910  0.2216
  605MOL0     C81563   2.758   5.293   3.421  0.2963 -0.6032 -0.0353
  605MOL0     O81564   2.764   5.329   3.282 -0.0133  1.0355  0.4984
  605MOL0     C81565   2.651   5.402   3.235  0.2079 -1.0351  0.3056
  605MOL0     C81566   2.660   5.539   3.244  0.1140  0.0005 -0.5193
  605MOL0     C81567   2.548   5.614   3.208 -0.1841  0.0148  0.2108
  605MOL0     C81568   2.431   5.554   3.160 -0.1236 -1.1134  0.2701
  605MOL0     C81569   2.319   5.644   3.115 -0.5522  0.0564 -0.3631
  605MOL0     O81570   2.338   5.778   3.143 -0.3730 -0.8258 -0.9306
  605MOL0     C81571   2.225   5.845   3.180 -0.3018 -0.8408  0.3846
  605MOL0     C81572   2.211   5.974   3.126 -0.5123 -0.1542 -0.7576
  605MOL0     C81573   2.114   6.067   3.179 -0.1369 -0.4171 -0.1279
  605MOL0     C81574   2.039   6.029   3.297  0.9582  0.2817 -0.2955
  605MOL0     O81575   1.944   6.105   3.361 -0.6833 -0.3259  0.0709
  605MOL0     C81576   1.920   6.234   3.305 -0.0076  0.0834  0.1677
  605MOL0     C81577   1.786   6.277   3.370  0.0616  1.4267 -0.3120
  605MOL0     C81578   1.705   6.391   3.303  0.1113  0.2069  0.9955
  605MOL0     C81579   1.694   6.511   3.393  0.1736  0.1055 -0.4129
  605MOL0     C81580   1.630   6.641   3.328  0.2764 -0.0432 -0.5913
  605MOL0     C81581   1.701   6.684   3.203  0.3163 -0.2319  0.3373
  605MOL0     C81582   1.658   6.821   3.152  0.0156 -0.4023 -0.4186
  605MOL0     C81583   1.674   6.857   3.013 -0.3274 -0.6885  0.2066
  605MOL0    Cl81584   1.681   7.038   2.986 -0.2052 -0.1359  0.1733
  605MOL0     C81585   2.049   5.893   3.342 -0.1238 -0.4997  0.2389
  605MOL0     C81586   2.144   5.811   3.293  0.4764 -0.3992  0.5119
  605MOL0     O81587   2.217   5.603   3.063  0.3831  0.7923 -0.0043
  605MOL0     C81588   2.422   5.416   3.147  0.3824  0.2988  0.4753
  605MOL0     C81589   2.536   5.338   3.184 -0.9051  0.3055 -0.4471
  605MOL0     N81590   2.564   4.931   3.236 -0.2206  1.0146  0.4041
  605MOL0     N81591   2.509   4.957   3.124  0.5120 -0.8741 -0.1827
  605MOL0     C81592   2.868   5.245   1.967 -0.6229 -0.3246 -0.6077
  605MOL0     C81593   2.920   5.352   1.896  0.0895 -0.3976  1.0958
  605MOL0     C81594   3.077   5.480   1.463  0.3169 -0.7410  0.1393
  605MOL0     C81595   3.073   5.612   1.519  1.0398 -0.4972 -0.8190
  605MOL0     C81596   3.094   5.720   1.434  0.0899 -0.0140  0.3035
  605MOL0     C81597   3.104   5.704   1.293  1.0119  1.2531 -0.7143
  605MOL0     O81598   3.120   5.812   1.212  0.2092 -0.1437  1.1815
  605MOL0     C81599   3.108   5.809   1.065 -0.2957  0.9061 -1.1311
  605MOL0     C81600   3.050   5.936   1.013 -0.0351 -0.7677  0.1298
  605MOL0     C81601   3.155   6.057   1.009 -0.2348 -0.4818  0.5729
  605MOL0     C81602   3.101   6.162   1.108  0.8565  0.0062  0.0757
  605MOL0     C81603   3.188   6.272   1.122 -0.4638 -0.0802 -0.3525
  605MOL0     C81604   3.262   6.361   1.146 -0.3938  0.6031  0.6305
  605MOL0     C81605   3.105   5.569   1.240 -0.8702  0.5094  0.3435
  605MOL0     C81606   3.098   5.455   1.323  0.3201  0.1876 -0.2149
  605MOL0     C81607   3.099   5.313   1.256  0.1345  0.2564  0.2969
  605MOL0     H81608   2.859   5.214   1.589 -0.8663  1.3987  0.1063
  605MOL0     H81609   2.761   5.033   1.731  3.9255 -0.8027 -2.7998
  605MOL0     H81610   2.923   4.999   2.115  0.6958  2.4563 -0.6801
  605MOL0     H81611   2.788   5.098   2.187  1.3612  2.9820 -2.0278
  605MOL0     H81612   2.808   4.804   2.135 -1.6339 -1.4126  0.8993
  605MOL0     H81613   2.649   4.886   2.156 -0.6626  2.5327  0.9177
  605MOL0     H81614   2.865   4.903   2.372 -0.7899  1.5523 -0.1445
  605MOL0     H81615   2.754   4.776   2.372  2.9993 -0.8534 -1.0572
  605MOL0     H81616   2.688   5.090   2.383  1.3048  0.4396  0.0636
  605MOL0     H81617   2.568   4.969   2.361 -0.1592 -0.2515  0.5351
  605MOL0     H81618   2.620   4.842   2.566 -1.7758  1.5629  3.5472
  605MOL0     H81619   2.761   4.933   2.578  1.2093 -2.8660 -1.2790
  605MOL0     H81620   2.624   5.136   2.639 -0.7152 -0.2535 -2.9852
  605MOL0     H81621   2.479   5.042   2.625 -0.5187  0.9971  0.6743
  605MOL0     H81622   2.712   4.938   2.804  1.1958  2.9028  2.0305
  605MOL0     H81623   2.553   4.874   2.792 -0.3805 -0.4732 -0.9672
  605MOL0     H81624   2.610   5.168   2.885 -0.5091  0.6848 -0.9597
  605MOL0     H81625   2.459   5.085   2.907  0.7553  0.8553 -2.4981
  605MOL0     H81626   2.792   5.094   3.079 -1.1803  0.6447 -1.2560
  605MOL0     H81627   2.836   4.874   3.368  0.2226 -0.0922 -0.3550
  605MOL0     H81628   2.892   5.031   3.316  0.2398 -2.5609 -2.6912
  605MOL0     H81629   2.665   4.955   3.492  0.2747  1.3803  4.6562
  605MOL0     H81630   2.801   5.034   3.554 -1.3912  0.1370  1.1926
  605MOL0     H81631   2.622   5.179   3.547  1.4226 -1.7673  0.8074
  605MOL0     H81632   2.594   5.163   3.378 -0.5683 -0.8877  1.7020
  605MOL0     H81633   2.866   5.279   3.433  1.1884  2.9534 -2.3702
  605MOL0     H81634   2.749   5.382   3.485  1.7438 -0.2279 -0.3073
  605MOL0     H81635   2.744   5.596   3.281 -2.9270  3.5988  1.4884
  605MOL0     H81636   2.571   5.720   3.218 -1.6540  0.5564 -1.5146
  605MOL0     H81637   2.268   6.016   3.043  1.4515 -1.3648 -0.0915
  605MOL0     H81638   2.095   6.166   3.137  0.2877 -1.1938 -2.3102
  605MOL0     H81639   2.004   6.295   3.341 -1.2379  0.9879  1.6451
  605MOL0     H81640   1.906   6.235   3.197  1.4446  1.8684 -0.0586
  605MOL0     H81641   1.712   6.197   3.368 -2.2645  3.4711 -2.0237
  605MOL0     H81642   1.809   6.303   3.474  0.4806 -0.3970  0.0854
  605MOL0     H81643   1.744   6.407   3.202  0.7816 -1.8176  0.8822
  605MOL0     H81644   1.605   6.357   3.273  0.5277 -0.7473  0.6355
  605MOL0     H81645   1.792   6.540   3.431 -1.4349  2.0939  2.5538
  605MOL0     H81646   1.640   6.478   3.482 -0.6296  0.0912 -0.8980
  605MOL0     H81647   1.631   6.718   3.406  1.7920 -1.3700  0.7755
  605MOL0     H81648   1.525   6.625   3.300 -0.3526  2.6197 -0.0573
  605MOL0     H81649   1.806   6.690   3.234  1.1613  0.7658 -2.4717
  605MOL0     H81650   1.694   6.606   3.127  3.1021  0.7012 -1.0190
  605MOL0     H81651   1.730   6.892   3.194 -2.0401  2.0633 -0.8595
  605MOL0     H81652   1.556   6.846   3.182  0.5384 -0.2228  1.3293
  605MOL0     H81653   1.769   6.820   2.972 -0.8618 -0.6646 -1.1142
  605MOL0     H81654   1.586   6.818   2.961 -0.2886  0.6797 -0.9418
  605MOL0     H81655   1.990   5.863   3.428  0.4476  0.5402  1.0202
  605MOL0     H81656   2.135   5.710   3.331  2.3458 -0.4414  0.9539
  605MOL0     H81657   2.342   5.353   3.110 -0.7255  0.1129  2.9509
  605MOL0     H81658   2.526   5.231   3.176  0.2309  0.2756 -2.0778
  605MOL0     H81659   2.853   5.264   2.073 -2.2468  0.9073 -1.0217
  605MOL0     H81660   2.954   5.446   1.940 -1.1260  1.7749 -2.2133
  605MOL0     H81661   3.056   5.638   1.623  0.1088  1.4499 -1.4174
  605MOL0     H81662   3.089   5.827   1.456  1.4025  0.2785 -0.6524
  605MOL0     H81663   3.033   5.734   1.038 -0.1232  0.6932 -1.0171
  605MOL0     H81664   3.207   5.783   1.025  1.0284 -2.3098  3.4879
  605MOL0     H81665   2.963   5.957   1.074 -1.3383  0.1704 -1.9458
  605MOL0     H81666   3.012   5.928   0.911 -3.3203  1.8306  0.9813
  605MOL0     H81667   3.161   6.098   0.907  1.7303  2.3605  1.6797
  605MOL0     H81668   3.253   6.017   1.036  1.1480  1.4264 -1.2258
  605MOL0     H81669   2.999   6.194   1.085 -0.3411 -2.5715  1.4109
  605MOL0     H81670   3.097   6.126   1.212 -0.6808  2.8749  1.1117
  605MOL0     H81671   3.347   6.425   1.155 -2.1874  3.1206  0.6817
  605MOL0     H81672   3.117   5.544   1.135  1.8856 -3.6395  1.3913
  605MOL0     H81673   3.199   5.276   1.232  0.4754 -0.4059  2.5664
  605MOL0     H81674   3.063   5.231   1.320 -2.2532  2.4917  2.0195
  605MOL0     H81675   3.048   5.311   1.159 -0.0377  0.8698  0.3721
  606MOL0     O81676   0.061   9.436   3.974 -0.2740  0.3100  0.5682
  606MOL0     C81677   0.136   9.531   3.948 -0.1451  0.2555  1.3172
  606MOL0     O81678   0.222   9.594   4.037  0.4354 -0.9525 -0.1590
  606MOL0     C81679   0.292   9.537   4.141  0.8133 -0.6010  0.1899
  606MOL0     C81680   0.349   9.623   4.240  0.3125 -0.0302  0.8969
  606MOL0     C81681   0.427   9.564   4.335  0.5567 -0.9715 -0.0602
  606MOL0     C81682   0.440   9.431   4.347 -0.7549  0.6475  0.1549
  606MOL0     O81683   0.515   9.377   4.452  0.7865 -0.3405 -0.0805
  606MOL0     C81684   0.471   9.422   4.586  0.4279 -0.3133 -0.2544
  606MOL0     C81685   0.572   9.377   4.699  0.0204 -0.1385 -0.1796
  606MOL0     C81686   0.709   9.448   4.685 -0.7732  0.1160 -0.4329
  606MOL0     C81687   0.720   9.603   4.688  0.5176  0.2500  0.1344
  606MOL0     C81688   0.682   9.666   4.819 -0.5805  0.4762 -0.2277
  606MOL0     C81689   0.623   9.806   4.807  0.0677  0.6379 -0.2177
  606MOL0     C81690   0.626   9.884   4.940  0.5373  0.1348 -0.0605
  606MOL0     C81691   0.558  10.015   4.916 -1.7923 -0.7372  0.1476
  606MOL0     N81692   0.659  10.116   4.869 -0.1544  0.4737  0.1718
  606MOL0     C81693   0.635  10.178   4.751  0.1052 -0.1448  0.7765
  606MOL0     C81694   0.717  10.284   4.752  0.0660 -0.4245 -0.6330
  606MOL0     C81695   0.722  10.404   4.658 -0.5594  0.4546 -0.0941
  606MOL0     C81696   0.628  10.512   4.694  0.0658 -0.2961 -0.6297
  606MOL0     C81697   0.650  10.658   4.625  0.2712 -0.4042 -0.0991
  606MOL0     C81698   0.624  10.765   4.727  0.1258  0.3984  0.2204
  606MOL0     O81699   0.617  10.898   4.656  0.2654  0.4126  0.3353
  606MOL0     C81700   0.493  10.962   4.620 -0.6531 -0.0332 -0.8015
  606MOL0     C81701   0.366  10.895   4.597  0.5755  0.1990  0.6417
  606MOL0     C81702   0.245  10.980   4.573 -0.6691  0.3352  0.2757
  606MOL0     C81703   0.254  11.112   4.578 -0.2665 -0.7945 -0.1925
  606MOL0     C81704   0.133  11.202   4.558 -0.5244 -0.2006  0.1325
  606MOL0     O81705   0.008  11.140   4.585  0.2528  0.2105 -0.3426
  606MOL0     C81706  -0.109  11.202   4.554  0.1401  0.2951  0.7762
  606MOL0     C81707  -0.128  11.281   4.433  0.2434 -0.2625 -1.0067
  606MOL0     C81708  -0.250  11.354   4.419 -0.3063 -1.5924  0.2452
  606MOL0     C81709  -0.358  11.338   4.509  0.0402 -0.3503 -0.9903
  606MOL0     O81710  -0.472  11.424   4.510  0.1411  0.5186  0.3367
  606MOL0     C81711  -0.539  11.466   4.390 -0.1312  0.4407  0.4665
  606MOL0     C81712  -0.617  11.346   4.343  0.2800  1.2823 -0.2097
  606MOL0     C81713  -0.724  11.375   4.250 -0.6210  0.2616  0.3988
  606MOL0     C81714  -0.698  11.470   4.127 -0.7982 -0.5310 -0.4764
  606MOL0     C81715  -0.782  11.415   4.013 -0.5810  0.4439 -0.1289
  606MOL0     C81716  -0.934  11.432   4.007  0.3273 -0.3322 -0.1176
  606MOL0     C81717  -0.986  11.364   3.889 -0.6088  0.3434 -0.2304
  606MOL0     C81718  -1.044  11.224   3.934 -0.1590  0.0276  0.7229
  606MOL0    Cl81719  -1.189  11.251   4.043 -0.1878  0.0985  0.0809
  606MOL0     C81720  -0.342  11.266   4.625 -0.5239 -0.3176  0.4437
  606MOL0     C81721  -0.215  11.192   4.644 -0.1889  0.3156 -0.3416
  606MOL0     O81722   0.143  11.322   4.512  0.1053 -0.3778 -0.8007
  606MOL0     C81723   0.376  11.170   4.604 -0.2875  0.8864 -0.0762
  606MOL0     C81724   0.501  11.105   4.623  0.0980 -0.2138 -0.2240
  606MOL0     N81725   0.790  10.280   4.868 -0.0070 -0.0854  0.5780
  606MOL0     N81726   0.754  10.183   4.942  0.5756 -0.0455 -0.1466
  606MOL0     C81727   0.377   9.344   4.261  0.0226  0.3048  0.0690
  606MOL0     C81728   0.305   9.396   4.156  0.9368 -0.0895  0.2682
  606MOL0     C81729   0.122   9.596   3.817  0.7238  0.7148 -0.1634
  606MOL0     C81730   0.143   9.737   3.796 -1.0134 -0.5515 -0.3074
  606MOL0     C81731   0.121   9.794   3.678 -0.0738  0.4261  0.0188
  606MOL0     C81732   0.055   9.734   3.568 -0.2185  1.3889 -0.6301
  606MOL0     O81733   0.020   9.802   3.459 -1.0725  0.3373 -0.7126
  606MOL0     C81734   0.028   9.735   3.336 -0.2515  0.0696 -0.2212
  606MOL0     C81735  -0.061   9.789   3.231  0.1135 -0.7196  0.5079
  606MOL0     C81736  -0.034   9.698   3.115  0.0230  0.5008 -0.0350
  606MOL0     C81737  -0.118   9.733   2.985  0.4075  0.7837  0.9084
  606MOL0     C81738  -0.077   9.855   2.921 -0.1895 -0.2995 -0.1963
  606MOL0     C81739  -0.054   9.953   2.854 -0.3962 -1.5075 -0.2600
  606MOL0     C81740   0.022   9.595   3.586  0.0060 -0.7832  0.1859
  606MOL0     C81741   0.069   9.522   3.696 -0.2868 -0.4066 -0.0316
  606MOL0     C81742   0.043   9.371   3.684 -0.3026  0.2373  0.2440
  606MOL0     H81743   0.334   9.727   4.214  0.0549 -0.5366 -1.1726
  606MOL0     H81744   0.472   9.640   4.399  2.4712 -3.0096  1.1811
  606MOL0     H81745   0.445   9.528   4.597  0.3973 -0.5221  2.5280
  606MOL0     H81746   0.374   9.381   4.616  1.3253 -1.5969  1.0957
  606MOL0     H81747   0.582   9.268   4.702  1.7344 -0.0148  0.0932
  606MOL0     H81748   0.534   9.407   4.797 -3.0694 -0.6764 -1.1263
  606MOL0     H81749   0.753   9.408   4.593  0.8879 -4.2051  1.9534
  606MOL0     H81750   0.762   9.408   4.772  0.1256 -3.3537 -2.3985
  606MOL0     H81751   0.822   9.630   4.660  1.1361  1.7766  3.3749
  606MOL0     H81752   0.656   9.626   4.603 -1.0750  2.4168  1.7948
  606MOL0     H81753   0.621   9.607   4.888  1.7216  0.6466  2.1177
  606MOL0     H81754   0.765   9.683   4.889 -0.5409 -1.0647  0.1376
  606MOL0     H81755   0.672   9.871   4.734  1.5744  0.9622  1.0297
  606MOL0     H81756   0.522   9.787   4.770  0.9738 -2.2925 -1.4498
  606MOL0     H81757   0.726   9.892   4.983  0.8597 -0.4452 -0.6815
  606MOL0     H81758   0.568   9.830   5.016  3.1350  0.5429  2.3818
  606MOL0     H81759   0.473  10.003   4.848 -0.7152  0.0044 -1.3979
  606MOL0     H81760   0.518  10.060   5.007 -3.1631  1.0385 -1.2631
  606MOL0     H81761   0.553  10.152   4.684 -1.4574  2.5027  1.5113
  606MOL0     H81762   0.823  10.447   4.662 -0.7504  0.8547  0.4025
  606MOL0     H81763   0.709  10.376   4.553 -1.4630  1.3435 -0.2323
  606MOL0     H81764   0.527  10.481   4.664  0.6354 -1.3208 -1.5312
  606MOL0     H81765   0.636  10.529   4.802  0.5648 -0.0194 -0.7059
  606MOL0     H81766   0.582  10.681   4.543 -0.0113  4.1539  1.1601
  606MOL0     H81767   0.752  10.667   4.586  0.7252  0.4353  1.1802
  606MOL0     H81768   0.702  10.769   4.804  0.2817 -1.0247  0.1504
  606MOL0     H81769   0.525  10.737   4.765 -0.4415 -0.2287 -1.6488
  606MOL0     H81770   0.369  10.788   4.580  0.2677  0.4929 -1.5345
  606MOL0     H81771   0.145  10.940   4.562 -1.0159  0.8534  1.3486
  606MOL0     H81772  -0.042  11.288   4.367  2.4190  2.3519  1.7954
  606MOL0     H81773  -0.258  11.430   4.342  1.3584 -1.3308  0.2957
  606MOL0     H81774  -0.600  11.550   4.423 -0.7306  0.6887 -1.1540
  606MOL0     H81775  -0.470  11.500   4.312 -1.5573 -1.2258 -1.6660
  606MOL0     H81776  -0.541  11.277   4.305 -0.3601 -1.1478  2.5269
  606MOL0     H81777  -0.661  11.293   4.428 -1.5468  0.3517 -1.6454
  606MOL0     H81778  -0.745  11.275   4.211  1.6121 -0.5896  1.2150
  606MOL0     H81779  -0.815  11.416   4.296 -0.8493  1.7965 -1.3477
  606MOL0     H81780  -0.596  11.440   4.100 -0.5275  0.6242 -0.7765
  606MOL0     H81781  -0.705  11.579   4.137  2.3727 -0.3521  0.5818
  606MOL0     H81782  -0.755  11.309   4.002 -0.6516  0.3644  0.4652
  606MOL0     H81783  -0.736  11.463   3.926 -0.4999 -0.5396 -0.6452
  606MOL0     H81784  -0.975  11.391   4.100  1.8297  2.8536  2.1136
  606MOL0     H81785  -0.950  11.539   3.992  4.4748  0.4022 -0.4872
  606MOL0     H81786  -0.907  11.360   3.812  1.1581  0.9995  1.4554
  606MOL0     H81787  -1.068  11.422   3.845 -1.5033 -0.6550  0.1061
  606MOL0     H81788  -1.083  11.173   3.846 -0.2827  3.2214 -1.2592
  606MOL0     H81789  -0.966  11.176   3.993  1.9930 -0.7474 -2.5062
  606MOL0     H81790  -0.417  11.278   4.703 -1.6061  0.1846 -0.6452
  606MOL0     H81791  -0.193  11.140   4.737 -0.4720 -2.2912 -1.6577
  606MOL0     H81792   0.379  11.278   4.599 -0.7861  1.0482  2.1401
  606MOL0     H81793   0.591  11.163   4.645 -1.1287  1.5930  0.2954
  606MOL0     H81794   0.365   9.237   4.272 -1.8023  0.5622  0.9118
  606MOL0     H81795   0.244   9.339   4.086 -0.0684  1.2055  0.0304
  606MOL0     H81796   0.193   9.795   3.873 -1.5144 -1.3476  0.6525
  606MOL0     H81797   0.162   9.895   3.670 -0.5484  0.9776  3.2875
  606MOL0     H81798  -0.000   9.630   3.352  1.0121 -0.6475 -2.3735
  606MOL0     H81799   0.134   9.740   3.309 -0.3291  2.1006 -0.3146
  606MOL0     H81800  -0.034   9.893   3.209  0.8707  0.0703  4.3133
  606MOL0     H81801  -0.162   9.779   3.273 -0.2378 -0.0187 -0.1424
  606MOL0     H81802  -0.057   9.594   3.138 -1.2355  1.1270  1.7283
  606MOL0     H81803   0.072   9.704   3.086  0.6094  0.3110  1.9273
  606MOL0     H81804  -0.105   9.652   2.913 -1.7650 -1.3150  2.7146
  606MOL0     H81805  -0.225   9.744   3.002  0.3529  1.6815  0.0595
  606MOL0     H81806  -0.055  10.035   2.785 -4.7792  0.9640  2.3330
  606MOL0     H81807  -0.038   9.535   3.518  0.1094  1.8466 -2.4259
  606MOL0     H81808   0.058   9.342   3.579  1.2006 -0.5723  0.6638
  606MOL0     H81809   0.107   9.314   3.752  0.1595 -0.7137 -0.9506
  606MOL0     H81810  -0.062   9.353   3.710 -1.4478  0.5522 -3.4441
  607MOL0     O81811   7.908   3.400  10.808  0.1061 -0.0625 -0.0406
  607MOL0     C81812   7.935   3.379  10.926 -0.8642  0.5656 -0.8737
  607MOL0     O81813   7.883   3.438  11.036 -0.3371 -0.2191 -0.1687
  607MOL0     C81814   7.852   3.571  11.026 -0.6574  0.2010  0.2638
  607MOL0     C81815   7.734   3.617  11.091  0.2214 -0.3925  0.3117
  607MOL0     C81816   7.680   3.741  11.060 -0.7264  0.0173  0.5859
  607MOL0     C81817   7.754   3.835  10.980  1.2924  0.6453 -0.3451
  607MOL0     O81818   7.705   3.960  10.949  0.1477  0.2274  0.4318
  607MOL0     C81819   7.741   4.063  11.043  0.5038  0.2705  0.9439
  607MOL0     C81820   7.806   4.180  10.977 -0.4544  0.1023 -0.3702
  607MOL0     C81821   7.701   4.282  10.933  0.4344 -0.3591 -0.6232
  607MOL0     C81822   7.687   4.384  11.051 -0.3036  0.4423  0.2333
  607MOL0     C81823   7.806   4.489  11.063 -0.8227 -0.5379  0.5032
  607MOL0     C81824   7.771   4.618  11.151  0.2327  0.8980  0.1201
  607MOL0     C81825   7.877   4.716  11.173  0.0881 -0.7718 -0.0096
  607MOL0     C81826   7.918   4.793  11.049  0.2927  0.3860  0.0146
  607MOL0     N81827   7.794   4.857  11.000  0.4002 -0.6328  0.5389
  607MOL0     C81828   7.735   4.977  11.046 -0.6504 -0.7399  0.1458
  607MOL0     C81829   7.668   5.035  10.941  0.1829 -0.0429 -0.0676
  607MOL0     C81830   7.595   5.162  10.932 -0.4083 -0.6387  0.4453
  607MOL0     C81831   7.676   5.274  10.986 -0.2306 -0.2794 -0.2460
  607MOL0     C81832   7.793   5.335  10.901  0.1091  0.4531 -0.4475
  607MOL0     C81833   7.754   5.362  10.755  0.1717 -0.6501 -0.1135
  607MOL0     O81834   7.639   5.446  10.749 -0.1839  0.0621 -0.3389
  607MOL0     C81835   7.584   5.500  10.632 -0.4330 -0.2461 -0.0502
  607MOL0     C81836   7.627   5.471  10.504  0.3272 -0.1718 -0.0822
  607MOL0     C81837   7.578   5.555  10.402  0.0243  0.0228  0.4232
  607MOL0     C81838   7.483   5.656  10.433  0.8204 -0.0564  0.2887
  607MOL0     C81839   7.427   5.738  10.317 -0.4138 -0.2999 -0.0388
  607MOL0     O81840   7.366   5.668  10.216  0.1881 -0.6891  0.2595
  607MOL0     C81841   7.285   5.723  10.114  0.6107 -0.1782 -0.3132
  607MOL0     C81842   7.177   5.639  10.087  1.0162  0.1386 -0.2474
  607MOL0     C81843   7.074   5.669   9.999  0.5246  0.5217 -0.2344
  607MOL0     C81844   7.075   5.794   9.943  0.3507  0.0040  0.4586
  607MOL0     O81845   6.969   5.831   9.862 -0.4653 -0.1011 -0.2896
  607MOL0     C81846   6.837   5.791   9.888 -0.5597  0.5462  0.5958
  607MOL0     C81847   6.730   5.877   9.825 -0.9048  0.2296  0.0876
  607MOL0     C81848   6.594   5.813   9.805  0.6209 -0.0151  0.2697
  607MOL0     C81849   6.493   5.895   9.725  0.0510 -0.7826  0.2586
  607MOL0     C81850   6.477   6.044   9.767  0.1629 -0.2978  0.6984
  607MOL0     C81851   6.395   6.121   9.673  0.6277 -0.1725  0.5402
  607MOL0     C81852   6.462   6.155   9.543  0.5438 -0.3680 -0.2049
  607MOL0     C81853   6.372   6.244   9.454  0.3922  0.1396 -1.0274
  607MOL0    Cl81854   6.469   6.310   9.328  0.0930 -0.6632 -0.4947
  607MOL0     C81855   7.182   5.876   9.954 -0.5468  0.4856 -0.7591
  607MOL0     C81856   7.287   5.845  10.047  0.0922 -0.0511  0.5857
  607MOL0     O81857   7.418   5.860  10.347 -0.0986  0.7607 -0.1689
  607MOL0     C81858   7.437   5.681  10.561  1.0350  0.2671  0.7071
  607MOL0     C81859   7.485   5.599  10.664 -0.4931  0.2185 -0.1875
  607MOL0     N81860   7.696   4.965  10.828  0.3361  1.1286 -0.6240
  607MOL0     N81861   7.763   4.856  10.861 -0.0692  0.1586  0.3025
  607MOL0     C81862   7.877   3.794  10.928 -0.7853  0.1109  0.3431
  607MOL0     C81863   7.922   3.663  10.945 -0.7074  0.0243  0.4480
  607MOL0     C81864   8.029   3.269  10.952 -0.2905 -0.0732  1.2515
  607MOL0     C81865   8.020   3.193  11.068 -0.2631 -0.0624 -0.1752
  607MOL0     C81866   8.115   3.097  11.094 -0.5959  0.6459  0.6626
  607MOL0     C81867   8.224   3.068  11.005  1.3689 -0.6192  0.5045
  607MOL0     O81868   8.304   2.969  11.050  0.1955 -0.3238 -1.0122
  607MOL0     C81869   8.369   2.887  10.958  0.2227  0.3795  0.1433
  607MOL0     C81870   8.469   2.796  11.027  1.2148  0.9028  0.9622
  607MOL0     C81871   8.396   2.724  11.139 -0.2060  0.6155  1.0713
  607MOL0     C81872   8.470   2.596  11.176 -0.2005 -0.4153 -0.8473
  607MOL0     C81873   8.596   2.626  11.237 -0.1468 -0.5682 -0.4442
  607MOL0     C81874   8.712   2.657  11.267  1.2685  0.4336 -0.8954
  607MOL0     C81875   8.224   3.133  10.888  0.0063 -0.6662 -0.1898
  607MOL0     C81876   8.140   3.239  10.859  1.1578  0.0592 -0.9982
  607MOL0     C81877   8.175   3.315  10.734  0.1914 -0.2187  0.4374
  607MOL0     H81878   7.699   3.544  11.163  1.7519 -0.4356  1.0677
  607MOL0     H81879   7.598   3.783  11.116  1.2923  0.2865  3.5287
  607MOL0     H81880   7.647   4.088  11.093 -0.6049  1.1769 -1.4432
  607MOL0     H81881   7.815   4.013  11.107 -0.6942 -3.3735 -0.2518
  607MOL0     H81882   7.863   4.143  10.891  1.6672 -3.4566  2.2902
  607MOL0     H81883   7.884   4.227  11.038 -0.1583  2.3759 -2.3282
  607MOL0     H81884   7.604   4.242  10.903 -0.5155  2.5701 -1.8105
  607MOL0     H81885   7.737   4.334  10.844 -2.0561  2.3750 -0.2044
  607MOL0     H81886   7.597   4.439  11.023  0.8628  2.3995  0.1443
  607MOL0     H81887   7.664   4.331  11.144  1.6459 -1.0130 -0.0391
  607MOL0     H81888   7.896   4.445  11.108 -0.6964 -0.0334  0.7542
  607MOL0     H81889   7.838   4.522  10.964  0.7054 -0.5013  0.9833
  607MOL0     H81890   7.679   4.664  11.117  0.2296  1.7109  1.1868
  607MOL0     H81891   7.746   4.579  11.250 -3.6594  0.9205 -0.7114
  607MOL0     H81892   7.971   4.669  11.202  0.0113  0.3233  2.1478
  607MOL0     H81893   7.850   4.788  11.250 -0.1649 -2.0287  1.1138
  607MOL0     H81894   7.990   4.866  11.087 -1.8451  0.6226  4.1237
  607MOL0     H81895   7.951   4.725  10.970 -2.2952  0.0883 -0.9168
  607MOL0     H81896   7.749   5.023  11.143 -2.4208 -0.1691  0.1645
  607MOL0     H81897   7.551   5.174  10.832  0.7259 -1.9270 -0.2417
  607MOL0     H81898   7.511   5.158  11.002 -0.4648 -7.0032  0.6279
  607MOL0     H81899   7.608   5.360  10.981 -0.5095 -0.2164  2.6307
  607MOL0     H81900   7.693   5.249  11.091 -2.5193  0.6412  0.3964
  607MOL0     H81901   7.873   5.261  10.911  1.2189  1.9382  3.7185
  607MOL0     H81902   7.816   5.432  10.945 -0.4238 -0.9925  3.3991
  607MOL0     H81903   7.733   5.277  10.689 -1.8772  0.5440 -1.0858
  607MOL0     H81904   7.843   5.413  10.715 -0.5520  0.7608 -0.0044
  607MOL0     H81905   7.702   5.397  10.478 -1.3641 -1.5622 -1.2874
  607MOL0     H81906   7.618   5.537  10.303 -0.6291  3.8872 -0.7346
  607MOL0     H81907   7.160   5.547  10.142 -0.0929  1.4799  1.7865
  607MOL0     H81908   6.986   5.607   9.991  1.6479 -0.9918 -1.4935
  607MOL0     H81909   6.824   5.692   9.844  2.9728  0.9746 -1.8660
  607MOL0     H81910   6.832   5.778   9.996  0.0395 -2.4792  0.3482
  607MOL0     H81911   6.729   5.972   9.879  1.5938  2.4804 -3.4126
  607MOL0     H81912   6.770   5.893   9.725  0.8839 -0.9832  0.5494
  607MOL0     H81913   6.599   5.709   9.772 -2.1138 -0.2480  0.4251
  607MOL0     H81914   6.545   5.796   9.901 -5.1798  0.0018 -2.2589
  607MOL0     H81915   6.401   5.838   9.741  1.0415 -2.0343  1.8265
  607MOL0     H81916   6.519   5.889   9.619 -2.0471  1.5914 -0.4861
  607MOL0     H81917   6.570   6.101   9.776 -0.5135  1.6266 -2.8899
  607MOL0     H81918   6.431   6.045   9.867  0.7968  4.2629  1.1793
  607MOL0     H81919   6.306   6.059   9.659  1.7850 -1.5106 -1.3012
  607MOL0     H81920   6.361   6.213   9.722 -3.2181 -1.7493  1.2247
  607MOL0     H81921   6.484   6.064   9.486  1.0768  0.6642 -1.6797
  607MOL0     H81922   6.548   6.219   9.563 -2.3956  3.0745  2.7540
  607MOL0     H81923   6.296   6.182   9.404  0.7157 -0.0944 -1.2288
  607MOL0     H81924   6.328   6.321   9.518 -0.2126 -0.8999 -0.1512
  607MOL0     H81925   7.194   5.970   9.899 -0.1121  2.4525  2.4388
  607MOL0     H81926   7.381   5.900  10.050  0.0742 -0.0567  2.3368
  607MOL0     H81927   7.363   5.759  10.576  1.2213  0.1530  2.3861
  607MOL0     H81928   7.469   5.616  10.770  0.6164  0.2361 -0.0127
  607MOL0     H81929   7.940   3.873  10.889  0.2201 -0.7793  0.1271
  607MOL0     H81930   8.019   3.631  10.906 -1.9950 -0.7415 -2.3519
  607MOL0     H81931   7.942   3.201  11.143  0.7639 -0.6692  1.0068
  607MOL0     H81932   8.121   3.033  11.182 -2.9365  0.4432  0.7427
  607MOL0     H81933   8.430   2.950  10.892  1.0566 -1.9156 -1.3972
  607MOL0     H81934   8.295   2.832  10.900 -0.8408  2.3643 -0.4810
  607MOL0     H81935   8.558   2.852  11.058 -0.4975  3.4346  1.6607
  607MOL0     H81936   8.496   2.730  10.945 -4.4946  2.5734 -2.8864
  607MOL0     H81937   8.291   2.704  11.118  0.2514 -1.1325  0.3384
  607MOL0     H81938   8.377   2.785  11.228  1.6861 -0.1428  2.0572
  607MOL0     H81939   8.414   2.554  11.260  3.1478 -0.0410  1.7654
  607MOL0     H81940   8.466   2.524  11.093 -0.5558  0.0656 -1.2564
  607MOL0     H81941   8.815   2.661  11.296  0.8414 -1.3951  1.1858
  607MOL0     H81942   8.307   3.103  10.825 -1.5511 -1.0903 -2.1417
  607MOL0     H81943   8.143   3.417  10.756  0.5096 -0.6142  2.9941
  607MOL0     H81944   8.284   3.321  10.733  0.1581  1.8227  2.2155
  607MOL0     H81945   8.140   3.268  10.641  0.1983  0.8444 -0.1151
  608MOL0     O81946   3.936   0.139   1.580  0.3961 -1.0953 -0.0323
  608MOL0     C81947   3.894   0.069   1.489 -0.3414  0.3167 -0.5586
  608MOL0     O81948   3.775  -0.009   1.499  0.1799 -0.5713 -0.2577
  608MOL0     C81949   3.674   0.065   1.563 -0.1830  0.3130  0.4607
  608MOL0     C81950   3.667   0.112   1.690  0.1246  0.1899 -0.0303
  608MOL0     C81951   3.554   0.180   1.747 -1.2423  0.0994 -0.2607
  608MOL0     C81952   3.447   0.209   1.665  0.3913  0.6919 -1.4606
  608MOL0     O81953   3.342   0.285   1.721 -1.1817  0.6746  1.1929
  608MOL0     C81954   3.285   0.369   1.632  0.5676 -0.3146  0.4015
  608MOL0     C81955   3.213   0.478   1.708 -0.2087 -0.0626 -0.3161
  608MOL0     C81956   3.168   0.595   1.623  0.0949  0.1982 -0.0331
  608MOL0     C81957   3.056   0.543   1.521 -1.1218 -0.3050  0.0862
  608MOL0     C81958   2.988   0.643   1.437  0.4537 -0.5886  1.0846
  608MOL0     C81959   2.877   0.576   1.356  0.2011  0.7429 -0.0459
  608MOL0     C81960   2.797   0.673   1.274  0.2058 -0.4909  0.0833
  608MOL0     C81961   2.867   0.786   1.194  0.3067 -0.8929  0.0120
  608MOL0     N81962   2.775   0.857   1.101  0.0247 -1.1154  0.4853
  608MOL0     C81963   2.747   0.820   0.971 -0.0834 -0.7308  0.0119
  608MOL0     C81964   2.645   0.895   0.932  0.3024  0.3683  0.2048
  608MOL0     C81965   2.584   0.908   0.797 -0.1821  1.1369  0.2457
  608MOL0     C81966   2.450   0.834   0.790  0.7727  0.5800  0.0978
  608MOL0     C81967   2.452   0.687   0.827  0.4719 -0.4343 -0.6009
  608MOL0     C81968   2.542   0.607   0.737  0.1624  0.1564  0.4132
  608MOL0     O81969   2.504   0.468   0.754 -1.1270 -0.0632  0.3085
  608MOL0     C81970   2.546   0.396   0.861  0.0633  1.0486  0.0819
  608MOL0     C81971   2.616   0.446   0.967  0.1461 -0.2789 -0.3700
  608MOL0     C81972   2.673   0.356   1.064 -0.2742 -0.8387 -0.4213
  608MOL0     C81973   2.654   0.213   1.059 -1.7700 -0.5736 -0.1552
  608MOL0     C81974   2.733   0.121   1.156  0.8879  0.2480 -0.9369
  608MOL0     O81975   2.836   0.182   1.224  0.1301 -0.0519  1.0302
  608MOL0     C81976   2.899   0.120   1.327  0.4479  0.7842  0.0705
  608MOL0     C81977   2.923   0.183   1.451 -0.6366 -0.0448  0.9126
  608MOL0     C81978   3.016   0.124   1.541 -0.1526  0.0145 -0.0089
  608MOL0     C81979   3.089   0.013   1.513  0.2745 -0.0109  0.4838
  608MOL0     O81980   3.174  -0.062   1.587 -0.2152 -0.6213 -0.0024
  608MOL0     C81981   3.175  -0.029   1.726 -0.0470 -0.4652 -1.1170
  608MOL0     C81982   3.248  -0.145   1.797 -0.1700  0.1347  0.4832
  608MOL0     C81983   3.263  -0.119   1.947  0.5826 -0.3432  0.9429
  608MOL0     C81984   3.379  -0.205   2.012 -0.2261 -0.5617 -0.0462
  608MOL0     C81985   3.421  -0.162   2.156 -0.0959 -0.6121 -0.6681
  608MOL0     C81986   3.546  -0.234   2.201  0.9644 -0.0940  0.4369
  608MOL0     C81987   3.603  -0.182   2.335  0.5985  1.4049  0.4244
  608MOL0     C81988   3.702  -0.062   2.337 -0.6775  0.4472 -0.5053
  608MOL0    Cl81989   3.869  -0.117   2.268 -0.0515 -0.7919 -0.2617
  608MOL0     C81990   3.073  -0.046   1.388 -0.3081  0.3116  0.4967
  608MOL0     C81991   2.985   0.009   1.294 -0.1615  0.2243  0.7859
  608MOL0     O81992   2.714  -0.003   1.164  0.6078  0.3223 -1.1038
  608MOL0     C81993   2.569   0.168   0.960 -0.5595  0.4019  0.4225
  608MOL0     C81994   2.511   0.260   0.869 -0.2351  0.3558 -0.0160
  608MOL0     N81995   2.605   0.971   1.032  0.0949  0.1683 -0.6338
  608MOL0     N81996   2.676   0.942   1.135  0.0400  0.1527 -0.7206
  608MOL0     C81997   3.451   0.149   1.537  0.8488  0.2922 -0.0975
  608MOL0     C81998   3.555   0.070   1.489 -0.8963  0.8369 -0.3828
  608MOL0     C81999   3.997   0.034   1.383  1.4051  1.4508 -1.2396
  608MOL0     C82000   4.131   0.054   1.419 -0.4227  0.9445  0.2666
  608MOL0     C82001   4.239   0.016   1.336  0.6981 -0.6331 -1.9384
  608MOL0     C82002   4.213  -0.034   1.208  0.7180 -0.5819  0.2517
  608MOL0     O82003   4.302  -0.047   1.103  0.1046 -0.7058  0.3554
  608MOL0     C82004   4.440  -0.050   1.145 -0.3094  0.2665 -0.6118
  608MOL0     C82005   4.547  -0.088   1.052 -0.3271 -0.2259  0.1888
  608MOL0     C82006   4.524  -0.231   1.000 -0.1171 -0.2913 -0.3330
  608MOL0     C82007   4.588  -0.244   0.865 -0.0955  0.0436  0.0446
  608MOL0     C82008   4.590  -0.393   0.829 -0.1560 -0.6497  0.0706
  608MOL0     C82009   4.594  -0.515   0.823 -0.7502  0.8857  0.0906
  608MOL0     C82010   4.087  -0.050   1.179  0.7638 -0.1499 -0.4435
  608MOL0     C82011   3.979  -0.011   1.260 -0.3430 -0.6552 -0.3363
  608MOL0     C82012   3.841   0.015   1.201 -0.6691  1.0886 -0.0186
  608MOL0     H82013   3.754   0.098   1.753  0.3469  1.8694  0.0874
  608MOL0     H82014   3.555   0.209   1.852 -0.8532  1.1253 -0.5275
  608MOL0     H82015   3.361   0.422   1.573  0.3387 -0.4981 -0.0568
  608MOL0     H82016   3.224   0.315   1.560  4.6434 -2.0758 -2.1039
  608MOL0     H82017   3.286   0.528   1.773 -1.6105  2.4283 -0.5198
  608MOL0     H82018   3.135   0.432   1.768  2.6422 -0.1171  3.7687
  608MOL0     H82019   3.249   0.647   1.570 -0.9776  3.8079  1.5340
  608MOL0     H82020   3.125   0.668   1.692  0.6300  0.8270 -0.3481
  608MOL0     H82021   3.105   0.466   1.461 -0.4684  0.8942 -0.9721
  608MOL0     H82022   2.989   0.490   1.589 -0.0231  1.2606  2.5163
  608MOL0     H82023   2.938   0.704   1.513  1.2431 -1.8166  2.6476
  608MOL0     H82024   3.062   0.689   1.370  0.4836  1.3447  2.3725
  608MOL0     H82025   2.940   0.523   1.284  1.6371  2.7641 -0.3820
  608MOL0     H82026   2.812   0.509   1.412  0.5369 -0.2230 -0.7692
  608MOL0     H82027   2.733   0.729   1.342  3.7738  2.1511  1.5351
  608MOL0     H82028   2.733   0.611   1.209  1.1653  0.1902 -1.5873
  608MOL0     H82029   2.927   0.849   1.260  0.2058  0.4915 -1.1600
  608MOL0     H82030   2.936   0.738   1.125  1.0651  1.1602 -0.7432
  608MOL0     H82031   2.806   0.751   0.911  1.7507  0.9211 -0.1906
  608MOL0     H82032   2.565   1.013   0.777 -0.5459  0.8051 -1.2639
  608MOL0     H82033   2.650   0.872   0.718 -1.2869 -0.8037  0.1292
  608MOL0     H82034   2.366   0.880   0.843  0.1118 -0.0288 -0.4076
  608MOL0     H82035   2.416   0.830   0.686  0.5607  0.9077  0.1532
  608MOL0     H82036   2.354   0.641   0.841 -1.2429  2.8058 -1.0960
  608MOL0     H82037   2.487   0.688   0.931  0.9211 -1.5949 -0.7302
  608MOL0     H82038   2.648   0.627   0.757 -0.5074  1.6510  3.0464
  608MOL0     H82039   2.531   0.639   0.633 -1.0992  0.9320  0.7567
  608MOL0     H82040   2.639   0.551   0.984  0.0875 -0.3278  0.0197
  608MOL0     H82041   2.736   0.408   1.136 -3.0186  2.0438  0.1206
  608MOL0     H82042   2.865   0.273   1.472  0.0862  0.4862  0.6904
  608MOL0     H82043   3.042   0.175   1.634  1.4534 -1.7787  0.6022
  608MOL0     H82044   3.226   0.064   1.754 -0.2311 -0.2451 -1.5096
  608MOL0     H82045   3.075  -0.030   1.769  0.1080 -0.1042 -0.7464
  608MOL0     H82046   3.189  -0.235   1.781  1.5405 -0.8852 -0.3114
  608MOL0     H82047   3.350  -0.153   1.757  0.2515  3.4407  0.6257
  608MOL0     H82048   3.288  -0.014   1.965 -0.8301  0.8065 -2.8331
  608MOL0     H82049   3.166  -0.139   1.993  1.4857 -1.5439  2.3979
  608MOL0     H82050   3.461  -0.189   1.941 -1.6091  1.1638 -1.3791
  608MOL0     H82051   3.356  -0.311   2.000 -0.3395 -0.7025  1.2699
  608MOL0     H82052   3.341  -0.181   2.228 -0.5675 -6.8184 -2.3341
  608MOL0     H82053   3.439  -0.054   2.152 -0.1114 -0.4579  1.9511
  608MOL0     H82054   3.518  -0.340   2.211 -1.0645  0.4811  1.2817
  608MOL0     H82055   3.627  -0.218   2.130 -1.4080 -0.0009 -2.4409
  608MOL0     H82056   3.653  -0.271   2.375 -0.2388  0.5484 -0.3584
  608MOL0     H82057   3.519  -0.162   2.403 -2.7506 -0.4585 -2.7701
  608MOL0     H82058   3.655   0.026   2.293 -3.3916 -1.1766 -1.0953
  608MOL0     H82059   3.715  -0.040   2.443 -0.4948  2.4350 -0.9161
  608MOL0     H82060   3.117  -0.145   1.379 -0.9739 -0.4888  4.3662
  608MOL0     H82061   3.003  -0.040   1.199 -0.0047  0.9106  0.4568
  608MOL0     H82062   2.531   0.067   0.951 -3.5600  1.5067 -0.5005
  608MOL0     H82063   2.433   0.219   0.806  1.1321 -1.8053 -0.3772
  608MOL0     H82064   3.366   0.160   1.470  0.2122  0.5676  0.7393
  608MOL0     H82065   3.549   0.039   1.385 -1.9479  2.3268 -0.7823
  608MOL0     H82066   4.173   0.101   1.507  0.5615 -0.0589  0.3542
  608MOL0     H82067   4.341   0.037   1.367 -0.2791  0.4143  0.8030
  608MOL0     H82068   4.454  -0.108   1.237  1.1855  0.5236 -0.6446
  608MOL0     H82069   4.471   0.052   1.170  0.4061  0.4245 -2.0309
  608MOL0     H82070   4.642  -0.080   1.106 -1.3422 -1.6122  2.2990
  608MOL0     H82071   4.553  -0.018   0.968  2.1910 -1.6071 -0.8906
  608MOL0     H82072   4.419  -0.262   0.991  0.3978 -3.5678  2.6838
  608MOL0     H82073   4.571  -0.290   1.079 -0.0786  1.8809  1.3390
  608MOL0     H82074   4.536  -0.199   0.780 -2.5946 -1.6937  0.5454
  608MOL0     H82075   4.689  -0.203   0.878  1.2561 -2.5325 -1.2842
  608MOL0     H82076   4.616  -0.620   0.814 -0.7543  0.8880  0.0517
  608MOL0     H82077   4.054  -0.094   1.085  2.0255 -1.1930 -0.4254
  608MOL0     H82078   3.791  -0.080   1.184 -0.5410  0.9496  0.3735
  608MOL0     H82079   3.775   0.081   1.257 -1.9748  0.4827 -0.8188
  608MOL0     H82080   3.856   0.065   1.105 -3.1077 -0.8479 -1.5218
  609MOL0     O82081   5.289  10.078   9.556  0.3733 -0.3110  0.3767
  609MOL0     C82082   5.184  10.024   9.586  0.1864  0.0277  0.5022
  609MOL0     O82083   5.164   9.958   9.709  0.5078  0.6401  0.3712
  609MOL0     C82084   5.256   9.975   9.809  0.4174 -0.2547 -0.1304
  609MOL0     C82085   5.327  10.092   9.846  0.1322 -0.4427  0.1954
  609MOL0     C82086   5.413  10.091   9.962 -0.7423 -0.8748 -0.2632
  609MOL0     C82087   5.424   9.980  10.050  0.2092 -0.0985  0.0101
  609MOL0     O82088   5.498   9.978  10.163 -0.1993 -0.2136 -0.3237
  609MOL0     C82089   5.627   9.911  10.154 -0.4481 -0.4021 -0.2801
  609MOL0     C82090   5.673   9.895  10.293  0.2498  0.3562  0.8063
  609MOL0     C82091   5.740  10.030  10.325  0.1550  0.3580  0.2666
  609MOL0     C82092   5.767  10.021  10.478  0.2076  0.3812  0.0553
  609MOL0     C82093   5.869  10.124  10.522  0.5698  0.7578 -0.9567
  609MOL0     C82094   5.834  10.240  10.606  0.2103  0.2926 -0.3508
  609MOL0     C82095   5.953  10.326  10.657 -0.7047  0.3900  0.8726
  609MOL0     C82096   6.038  10.233  10.754 -0.1298 -0.2737 -0.7628
  609MOL0     N82097   5.962  10.187  10.876  0.4183  0.0061  0.0445
  609MOL0     C82098   5.886  10.068  10.877  0.2781 -0.4582 -0.8137
  609MOL0     C82099   5.853  10.051  11.009 -0.0249 -0.3414 -0.3532
  609MOL0     C82100   5.761   9.943  11.061  0.4553  1.4267  0.6774
  609MOL0     C82101   5.629   9.999  11.108  0.1483 -0.2540 -1.2068
  609MOL0     C82102   5.556  10.109  11.024 -0.6961 -0.0337 -0.7306
  609MOL0     C82103   5.509  10.216  11.121 -0.0520 -0.6148  0.8417
  609MOL0     O82104   5.425  10.325  11.056  0.0337 -0.0650  0.5399
  609MOL0     C82105   5.487  10.403  10.953  0.2739  0.1628 -0.6904
  609MOL0     C82106   5.416  10.472  10.856  0.8437 -1.0872 -0.4090
  609MOL0     C82107   5.477  10.550  10.760 -0.8421  0.0712 -0.6867
  609MOL0     C82108   5.619  10.572  10.762 -0.2231 -0.2938 -0.6720
  609MOL0     C82109   5.686  10.648  10.659  0.3225 -0.4378 -0.6438
  609MOL0     O82110   5.818  10.639  10.660 -0.0099  0.0419  0.1105
  609MOL0     C82111   5.878  10.711  10.570 -0.5750 -0.6151  0.2972
  609MOL0     C82112   5.905  10.665  10.440 -0.5089 -0.3990  0.3208
  609MOL0     C82113   5.949  10.742  10.332 -0.0677 -0.2139 -0.5179
  609MOL0     C82114   5.992  10.870  10.358 -0.4830 -0.0046 -0.4336
  609MOL0     O82115   6.042  10.950  10.256  0.3895  0.0073 -0.7263
  609MOL0     C82116   5.947  10.969  10.143 -0.4964  0.3932 -0.1142
  609MOL0     C82117   6.003  11.091  10.062 -0.4424  0.0136 -0.2821
  609MOL0     C82118   6.102  11.048   9.955  0.1130  0.4701 -0.0482
  609MOL0     C82119   6.134  11.154   9.853 -0.6289  0.6676 -0.0584
  609MOL0     C82120   6.286  11.150   9.823 -0.2387 -0.0819  0.0424
  609MOL0     C82121   6.367  11.230   9.932  1.1159  0.0188 -0.6627
  609MOL0     C82122   6.509  11.236   9.885  0.3580 -0.1180 -0.3662
  609MOL0     C82123   6.595  11.295  10.001  0.3232 -0.1344  0.7152
  609MOL0    Cl82124   6.770  11.264   9.983 -0.0491 -0.4982  0.1915
  609MOL0     C82125   5.983  10.918  10.492 -0.1808  0.5249  0.1169
  609MOL0     C82126   5.927  10.838  10.595  0.1627 -0.9917  0.4809
  609MOL0     O82127   5.616  10.700  10.563 -0.5891  0.6927  0.9564
  609MOL0     C82128   5.691  10.505  10.857  0.5092  0.1958 -1.3103
  609MOL0     C82129   5.628  10.425  10.953  0.6809 -0.1636 -0.3583
  609MOL0     N82130   5.904  10.157  11.085 -0.8939  0.0910 -0.2862
  609MOL0     N82131   5.956  10.240  10.997  0.5678 -0.5150 -0.1952
  609MOL0     C82132   5.352   9.869  10.009 -0.2164 -0.7486 -0.0041
  609MOL0     C82133   5.269   9.864   9.897 -0.4339 -0.1597 -0.1746
  609MOL0     C82134   5.074  10.019   9.484  0.4830 -0.4707 -0.1671
  609MOL0     C82135   4.975   9.923   9.489 -0.4515 -0.0770 -0.9566
  609MOL0     C82136   4.882   9.894   9.396  0.5017  0.6126 -0.1542
  609MOL0     C82137   4.875   9.977   9.286  0.4359  0.3402  0.3091
  609MOL0     O82138   4.778   9.949   9.195  0.2148  0.5397 -0.5610
  609MOL0     C82139   4.766  10.016   9.071 -0.7185  0.3886  0.0597
  609MOL0     C82140   4.631   9.989   9.005 -0.3923  0.3845 -0.9269
  609MOL0     C82141   4.613   9.859   8.931 -0.1711 -0.8351  1.0809
  609MOL0     C82142   4.701   9.860   8.808  0.3393 -0.9197 -1.5498
  609MOL0     C82143   4.701   9.728   8.741 -0.2852 -1.1878 -0.5197
  609MOL0     C82144   4.690   9.619   8.690 -0.4795  0.0207  0.0472
  609MOL0     C82145   4.951  10.084   9.274  0.5103 -1.9331  0.0097
  609MOL0     C82146   5.048  10.108   9.374 -0.5131 -0.0119 -0.4780
  609MOL0     C82147   5.136  10.233   9.362  1.1491 -0.5381 -0.8795
  609MOL0     H82148   5.317  10.182   9.787  1.1120 -0.7441 -0.4520
  609MOL0     H82149   5.464  10.185   9.979 -4.6374  1.4731 -0.2661
  609MOL0     H82150   5.611   9.814  10.106  0.0846 -1.0935  0.9069
  609MOL0     H82151   5.702   9.965  10.096 -0.2746 -3.1203 -2.8673
  609MOL0     H82152   5.733   9.804  10.302 -0.2486 -0.1511 -0.6626
  609MOL0     H82153   5.589   9.871  10.359 -2.7132 -0.7010 -2.9351
  609MOL0     H82154   5.687  10.122  10.297  1.1118  0.3649 -1.6845
  609MOL0     H82155   5.833  10.029  10.267 -1.2128 -3.7765 -2.2557
  609MOL0     H82156   5.672  10.037  10.530 -0.3152  0.5675 -0.9315
  609MOL0     H82157   5.811   9.928  10.516  1.1863  1.1448  0.8376
  609MOL0     H82158   5.938  10.065  10.583  0.0355 -0.1380 -1.1977
  609MOL0     H82159   5.929  10.166  10.440 -0.9297  0.8496 -2.0384
  609MOL0     H82160   5.760  10.298  10.549 -0.9110 -1.2125 -0.5215
  609MOL0     H82161   5.774  10.214  10.693 -0.5674  4.0818  0.4118
  609MOL0     H82162   5.919  10.401  10.729 -0.1081  1.3774  0.1505
  609MOL0     H82163   6.003  10.371  10.571 -2.5142  0.5654 -0.1514
  609MOL0     H82164   6.084  10.149  10.702 -1.2745 -1.1059 -0.4777
  609MOL0     H82165   6.125  10.284  10.798  0.4933 -2.9195  1.3630
  609MOL0     H82166   5.873   9.991  10.801  3.0469  0.1114 -1.9822
  609MOL0     H82167   5.751   9.861  10.989  1.3666  0.2294  1.8566
  609MOL0     H82168   5.801   9.901  11.153 -1.6815 -1.7728  0.3101
  609MOL0     H82169   5.563   9.917  11.137  0.4774 -0.6815 -1.6511
  609MOL0     H82170   5.653  10.052  11.200 -1.2200  1.5159 -1.8025
  609MOL0     H82171   5.460  10.082  10.980 -0.4386 -1.0128 -0.7138
  609MOL0     H82172   5.622  10.149  10.946 -0.4664  1.3200  0.1180
  609MOL0     H82173   5.595  10.261  11.171 -1.1513  5.1402 -1.6360
  609MOL0     H82174   5.447  10.177  11.203 -0.6911 -0.4069  0.4674
  609MOL0     H82175   5.308  10.478  10.851  0.6937  2.5495  2.4756
  609MOL0     H82176   5.414  10.602  10.687 -0.5711 -0.9530 -1.6800
  609MOL0     H82177   5.880  10.560  10.423  0.4143 -0.2557 -2.3374
  609MOL0     H82178   5.948  10.687  10.238 -0.6828 -4.8475  1.9094
  609MOL0     H82179   5.955  10.881  10.079  1.0110 -1.7444  2.7509
  609MOL0     H82180   5.845  10.979  10.180 -0.3636 -1.8017  1.0594
  609MOL0     H82181   5.914  11.140  10.022  0.6297  2.4946  0.1746
  609MOL0     H82182   6.060  11.161  10.124 -1.6945  1.7915 -1.0321
  609MOL0     H82183   6.190  11.022  10.015 -0.7531  0.4189  1.2205
  609MOL0     H82184   6.061  10.962   9.901  1.0583  0.3540 -0.6176
  609MOL0     H82185   6.123  11.252   9.901  2.7049  0.0744  2.2427
  609MOL0     H82186   6.059  11.152   9.773 -0.2592  1.5286 -0.4326
  609MOL0     H82187   6.295  11.203   9.728 -0.4781  1.8884  1.0645
  609MOL0     H82188   6.333  11.053   9.805 -1.3309 -1.6704  4.4422
  609MOL0     H82189   6.336  11.335   9.943 -1.1448 -0.6954  0.3769
  609MOL0     H82190   6.359  11.179  10.028  0.4631  2.6955  0.7931
  609MOL0     H82191   6.506  11.288   9.789 -2.0330 -3.2836 -2.2076
  609MOL0     H82192   6.548  11.135   9.871 -1.8248 -1.8592  4.1005
  609MOL0     H82193   6.574  11.401  10.017 -0.0445 -0.3730  1.9357
  609MOL0     H82194   6.576  11.256  10.101  4.7023 -1.5719  1.2200
  609MOL0     H82195   6.021  11.015  10.522  0.6475  1.1746 -2.6819
  609MOL0     H82196   5.928  10.875  10.697  1.2946 -0.2946  0.2287
  609MOL0     H82197   5.800  10.509  10.862  0.6063 -2.5487  0.5996
  609MOL0     H82198   5.694  10.372  11.021 -0.2331  2.0715  2.4770
  609MOL0     H82199   5.367   9.774  10.061 -0.4756 -0.2550  1.0003
  609MOL0     H82200   5.225   9.771   9.863  0.8523  0.2713 -3.4827
  609MOL0     H82201   4.987   9.857   9.575 -1.2249  0.7117 -0.2274
  609MOL0     H82202   4.823   9.804   9.407  0.0367  1.0244  0.8311
  609MOL0     H82203   4.851   9.996   9.005  0.8523  0.9938  1.8242
  609MOL0     H82204   4.772  10.123   9.092  2.1181  0.5988 -1.3677
  609MOL0     H82205   4.626  10.068   8.930 -2.2684 -1.2136 -2.6262
  609MOL0     H82206   4.554  10.012   9.080  0.7670  1.0228  0.1102
  609MOL0     H82207   4.506   9.845   8.915 -0.6881 -1.6703  4.5476
  609MOL0     H82208   4.634   9.769   8.989  1.0634 -2.7645 -2.0418
  609MOL0     H82209   4.651   9.931   8.741 -1.8670 -1.3510 -0.4498
  609MOL0     H82210   4.801   9.891   8.836  0.2457 -0.2181 -1.9895
  609MOL0     H82211   4.689   9.525   8.638 -0.1233  1.1071 -1.9962
  609MOL0     H82212   4.943  10.162   9.199  3.2684 -0.2401  1.3070
  609MOL0     H82213   5.139  10.294   9.452  0.4909 -0.7043 -0.7371
  609MOL0     H82214   5.242  10.210   9.350  2.3630  3.2173  1.2162
  609MOL0     H82215   5.110  10.289   9.272  3.1255  0.6017 -0.7824
  610MOL0     O82216   9.882   8.612  11.520  0.2288 -0.8460 -0.4717
  610MOL0     C82217   9.950   8.601  11.415  0.1960 -0.1398  0.0337
  610MOL0     O82218   9.906   8.569  11.299 -0.2892  0.7248  0.6439
  610MOL0     C82219   9.775   8.580  11.263  0.4044 -0.1545  1.1730
  610MOL0     C82220   9.707   8.705  11.274 -0.5248  0.1754  0.4966
  610MOL0     C82221   9.569   8.712  11.255 -0.3507 -0.4056  1.1554
  610MOL0     C82222   9.495   8.604  11.207  0.5975  0.6704  0.6636
  610MOL0     O82223   9.360   8.604  11.161 -0.2744 -0.1292  0.0164
  610MOL0     C82224   9.288   8.729  11.176 -1.1827 -0.2707  0.2250
  610MOL0     C82225   9.140   8.711  11.171 -0.1371 -0.1774  0.4375
  610MOL0     C82226   9.078   8.619  11.281 -0.0687  1.0737 -0.5505
  610MOL0     C82227   8.929   8.631  11.277 -0.2265  0.1148  0.6832
  610MOL0     C82228   8.865   8.533  11.366  0.2367 -0.1447 -0.1695
  610MOL0     C82229   8.722   8.581  11.391  0.2634 -0.6951  0.0763
  610MOL0     C82230   8.623   8.476  11.443 -0.4177 -0.9337 -0.0949
  610MOL0     C82231   8.652   8.461  11.595  0.4455  0.2395 -1.0478
  610MOL0     N82232   8.553   8.363  11.653 -0.1599 -0.1890  0.9454
  610MOL0     C82233   8.465   8.400  11.758  0.8705 -0.2948 -0.3423
  610MOL0     C82234   8.409   8.286  11.803 -0.5267  0.1616  0.1837
  610MOL0     C82235   8.298   8.284  11.900  0.2659  0.2303  0.3800
  610MOL0     C82236   8.233   8.139  11.904 -0.3136 -1.0319  0.4980
  610MOL0     C82237   8.128   8.128  12.017 -0.0601 -0.6041  1.2860
  610MOL0     C82238   8.035   8.009  12.009  0.0400  0.6188 -0.6974
  610MOL0     O82239   7.934   8.032  11.907 -0.3431 -0.6204  0.1562
  610MOL0     C82240   7.866   7.922  11.857 -0.0740  0.6844  0.1713
  610MOL0     C82241   7.795   7.945  11.738  0.6613  0.3897  0.4263
  610MOL0     C82242   7.730   7.837  11.670 -0.1917  0.2741  0.1211
  610MOL0     C82243   7.738   7.711  11.724  1.0627  0.4634  0.8728
  610MOL0     C82244   7.660   7.606  11.650 -0.0113 -0.4340  0.0895
  610MOL0     O82245   7.676   7.477  11.700  0.5621  0.0452  0.0976
  610MOL0     C82246   7.616   7.363  11.648 -0.7779  0.2173 -0.3830
  610MOL0     C82247   7.479   7.356  11.634 -0.6433 -0.0620  0.9152
  610MOL0     C82248   7.413   7.251  11.566 -0.5633 -0.1009 -1.1778
  610MOL0     C82249   7.490   7.139  11.533 -0.7035 -0.4721 -0.6408
  610MOL0     O82250   7.431   7.024  11.479  0.3711 -0.9805  0.5980
  610MOL0     C82251   7.369   7.059  11.355  0.5255 -0.6156  0.1887
  610MOL0     C82252   7.333   6.933  11.274 -0.3799 -0.2696 -0.7728
  610MOL0     C82253   7.254   6.953  11.146 -0.2909  0.5259 -0.6062
  610MOL0     C82254   7.106   6.979  11.178 -0.2401 -0.7212  0.5082
  610MOL0     C82255   7.025   7.002  11.054 -0.7306 -0.0114 -0.0991
  610MOL0     C82256   6.877   6.982  11.085  0.3649 -0.2046 -0.3806
  610MOL0     C82257   6.786   7.040  10.971 -0.3059 -0.5256 -0.1019
  610MOL0     C82258   6.802   6.985  10.826 -1.6735 -0.2943 -0.2162
  610MOL0    Cl82259   6.680   7.067  10.731  0.0120 -0.3319  0.4009
  610MOL0     C82260   7.630   7.137  11.572 -0.4236 -0.6694  0.6131
  610MOL0     C82261   7.697   7.243  11.625 -0.7245  0.7025 -0.3696
  610MOL0     O82262   7.588   7.636  11.549  1.1725 -0.5751  0.4030
  610MOL0     C82263   7.801   7.680  11.842 -0.5507  0.3519 -0.2497
  610MOL0     C82264   7.860   7.788  11.913 -0.5651  0.0670  0.1983
  610MOL0     N82265   8.466   8.184  11.730  0.3044  1.0252 -0.3119
  610MOL0     N82266   8.555   8.225  11.649  0.7918  0.0016 -0.0707
  610MOL0     C82267   9.565   8.481  11.189  0.1971  0.1228 -0.1762
  610MOL0     C82268   9.703   8.469  11.231 -0.5766  0.5538  0.0080
  610MOL0     C82269  10.099   8.617  11.441  0.4122  0.6943  0.9649
  610MOL0     C82270  10.151   8.605  11.568 -0.9836 -0.3282 -0.6933
  610MOL0     C82271  10.293   8.592  11.578  0.5008 -0.5610 -0.5907
  610MOL0     C82272  10.373   8.606  11.466 -0.3253 -0.2350  0.3382
  610MOL0     O82273  10.513   8.609  11.474 -0.3579 -0.0808  1.4929
  610MOL0     C82274  10.572   8.479  11.511  0.5068  0.4824  0.1744
  610MOL0     C82275  10.623   8.414  11.390  1.2408  1.0463  0.2952
  610MOL0     C82276  10.736   8.497  11.329  0.1096  0.6461 -0.0325
  610MOL0     C82277  10.757   8.440  11.192 -0.6927 -0.3733 -0.0188
  610MOL0     C82278  10.860   8.332  11.193  0.4489 -0.0867 -0.0047
  610MOL0     C82279  10.951   8.245  11.189  1.0775  0.0783  0.2604
  610MOL0     C82280  10.315   8.634  11.343 -0.3229 -0.3092  0.1295
  610MOL0     C82281  10.182   8.647  11.328 -0.4769  1.0397  0.0160
  610MOL0     C82282  10.124   8.685  11.187 -0.6496  0.7290  0.3587
  610MOL0     H82283   9.761   8.796  11.299  0.8645 -0.4089 -0.2555
  610MOL0     H82284   9.523   8.809  11.259 -1.1534 -0.7367  0.3309
  610MOL0     H82285   9.313   8.787  11.266 -1.7784  1.3445 -0.6147
  610MOL0     H82286   9.320   8.784  11.088  1.5442 -3.5683 -1.0681
  610MOL0     H82287   9.110   8.686  11.069 -1.0099  0.5781  0.4892
  610MOL0     H82288   9.097   8.810  11.190 -0.6475 -0.6005  1.5471
  610MOL0     H82289   9.120   8.638  11.380 -2.0248  1.5683  0.2313
  610MOL0     H82290   9.083   8.512  11.260  3.1194  1.2589 -1.2336
  610MOL0     H82291   8.905   8.734  11.307  0.4794  0.2720  0.7290
  610MOL0     H82292   8.900   8.615  11.173  0.7463 -1.6292  0.6504
  610MOL0     H82293   8.857   8.444  11.303 -1.4264  0.3435 -0.7021
  610MOL0     H82294   8.923   8.511  11.457  0.3143 -1.5152 -0.5229
  610MOL0     H82295   8.710   8.667  11.457 -0.0202 -0.5259 -0.1961
  610MOL0     H82296   8.684   8.604  11.291  1.2336 -0.1982 -0.1893
  610MOL0     H82297   8.654   8.383  11.394 -0.0177 -1.1060  0.4743
  610MOL0     H82298   8.521   8.508  11.421 -0.7622 -0.2618  2.2463
  610MOL0     H82299   8.747   8.414  11.621  0.3441  0.9507  0.7853
  610MOL0     H82300   8.642   8.558  11.645 -2.1589  0.1454 -1.2171
  610MOL0     H82301   8.442   8.498  11.800 -2.7380 -0.1996 -2.1454
  610MOL0     H82302   8.352   8.291  11.995  3.8117 -1.3191 -1.3082
  610MOL0     H82303   8.231   8.367  11.877  0.4687  0.4582  0.6037
  610MOL0     H82304   8.174   8.139  11.812 -0.9302 -1.0775  0.8858
  610MOL0     H82305   8.296   8.050  11.897 -0.8235 -1.3545 -0.1603
  610MOL0     H82306   8.057   8.212  12.010  0.7210 -0.0075  0.2757
  610MOL0     H82307   8.172   8.149  12.115 -2.3448  1.9261  1.9048
  610MOL0     H82308   7.985   7.998  12.105  1.0114  2.4453  0.0644
  610MOL0     H82309   8.091   7.916  11.994 -0.7983 -0.7948  3.6724
  610MOL0     H82310   7.779   8.050  11.715  1.6601  0.4546 -0.0435
  610MOL0     H82311   7.688   7.871  11.576 -0.2095  1.8470  0.6681
  610MOL0     H82312   7.434   7.451  11.662 -1.7528 -0.7321  1.4711
  610MOL0     H82313   7.308   7.266  11.541 -0.7465 -1.5057 -1.3617
  610MOL0     H82314   7.274   7.096  11.392  1.3007  0.7256  0.9211
  610MOL0     H82315   7.421   7.124  11.284  1.4936  0.2474  1.6324
  610MOL0     H82316   7.419   6.873  11.241 -1.4178 -0.7240 -2.8526
  610MOL0     H82317   7.278   6.871  11.345 -3.1524  3.8616  1.0042
  610MOL0     H82318   7.303   7.030  11.087  2.8014  0.1863  1.3169
  610MOL0     H82319   7.258   6.868  11.077  0.5659  1.0948 -1.2805
  610MOL0     H82320   7.101   7.067  11.242 -0.2167 -2.6365  3.3484
  610MOL0     H82321   7.057   6.906  11.243  1.1605  0.2273  2.7408
  610MOL0     H82322   7.064   6.942  10.972 -0.0583 -0.4022  0.4877
  610MOL0     H82323   7.036   7.104  11.016  0.1484 -0.5029 -1.1970
  610MOL0     H82324   6.862   6.874  11.089 -0.4234 -0.0851  0.0525
  610MOL0     H82325   6.864   7.027  11.184  2.0188  0.1778 -0.3134
  610MOL0     H82326   6.809   7.146  10.986 -1.2323 -0.3839  0.4223
  610MOL0     H82327   6.680   7.029  10.999 -0.7975  2.5320 -0.4370
  610MOL0     H82328   6.904   6.992  10.789 -0.6265  0.8394  2.6168
  610MOL0     H82329   6.767   6.881  10.824  1.1876 -1.3538  0.6951
  610MOL0     H82330   7.699   7.056  11.550 -3.3248 -2.8335 -1.1485
  610MOL0     H82331   7.805   7.228  11.628 -0.8894 -0.9816  4.0573
  610MOL0     H82332   7.811   7.575  11.866 -0.7120  0.8548  2.3205
  610MOL0     H82333   7.919   7.755  11.997 -1.3311 -1.8942  0.0319
  610MOL0     H82334   9.519   8.390  11.153  0.3691 -0.6633  1.4607
  610MOL0     H82335   9.740   8.367  11.243 -2.3475  0.1131  2.9311
  610MOL0     H82336  10.089   8.607  11.658  0.3498  1.3711  0.2434
  610MOL0     H82337  10.344   8.576  11.672  1.7781  1.9451 -0.7782
  610MOL0     H82338  10.503   8.411  11.561 -2.0827  0.0447 -3.6439
  610MOL0     H82339  10.666   8.493  11.565  0.9724 -1.3839 -0.0846
  610MOL0     H82340  10.540   8.403  11.319 -1.0123 -1.1127  2.9886
  610MOL0     H82341  10.648   8.310  11.416 -0.5637  0.7478  0.9984
  610MOL0     H82342  10.825   8.495  11.393  1.9827  2.2777 -2.4049
  610MOL0     H82343  10.703   8.601  11.327  2.2554  1.4024  0.4410
  610MOL0     H82344  10.667   8.399  11.144 -0.6769  2.3081 -2.6866
  610MOL0     H82345  10.793   8.516  11.122  0.9547 -2.4395 -1.5828
  610MOL0     H82346  11.032   8.174  11.186  1.4987  0.5875 -1.0124
  610MOL0     H82347  10.378   8.624  11.254  0.7064 -2.7799  1.0516
  610MOL0     H82348  10.087   8.600  11.129  2.4941 -0.6305  0.1005
  610MOL0     H82349  10.048   8.761  11.209  0.8075  1.9350  1.4848
  610MOL0     H82350  10.198   8.747  11.136 -0.9704 -0.4071 -1.5982
  611MOL0     O82351   8.259   1.567   8.142  0.2241 -0.8082  0.4990
  611MOL0     C82352   8.205   1.495   8.230 -0.1639 -0.2012 -0.6939
  611MOL0     O82353   8.117   1.542   8.326 -0.5637  0.1862 -1.5332
  611MOL0     C82354   8.064   1.672   8.321  0.8639  0.0447  0.1873
  611MOL0     C82355   7.990   1.721   8.430 -0.0882  0.3701  0.2905
  611MOL0     C82356   7.940   1.855   8.436  0.4348  0.0653  0.0157
  611MOL0     C82357   7.964   1.935   8.334  0.3989 -0.2367  0.2320
  611MOL0     O82358   7.901   2.055   8.348 -0.3698  0.4444  0.0537
  611MOL0     C82359   7.991   2.157   8.320 -0.6296 -0.9541 -0.5686
  611MOL0     C82360   7.957   2.276   8.410  0.0751 -0.2957  0.9031
  611MOL0     C82361   8.061   2.391   8.407  0.4969  0.2363 -0.0316
  611MOL0     C82362   8.039   2.498   8.516  0.5007 -0.6007 -0.7848
  611MOL0     C82363   8.023   2.446   8.658 -0.6452  0.2673  0.9646
  611MOL0     C82364   8.022   2.547   8.776  0.8873 -0.2744  0.6729
  611MOL0     C82365   8.097   2.530   8.899  0.0743  0.3878 -0.1040
  611MOL0     C82366   8.028   2.417   8.976 -0.2228 -0.4594 -0.0955
  611MOL0     N82367   7.900   2.455   9.051  0.6272  0.1179 -0.8696
  611MOL0     C82368   7.897   2.543   9.160  0.5697 -0.7079  0.3915
  611MOL0     C82369   7.770   2.571   9.189 -0.6253 -0.1270 -0.6376
  611MOL0     C82370   7.711   2.677   9.281 -0.2459  0.3453  0.8636
  611MOL0     C82371   7.594   2.631   9.360  0.3385 -0.6825  0.1125
  611MOL0     C82372   7.549   2.747   9.450 -0.2060 -0.7026 -0.1733
  611MOL0     C82373   7.619   2.717   9.591 -0.6977 -0.7731 -0.2730
  611MOL0     O82374   7.526   2.641   9.665  1.1664  0.7151  0.2820
  611MOL0     C82375   7.567   2.571   9.776  0.3633 -0.7006 -0.2284
  611MOL0     C82376   7.457   2.504   9.827 -0.2861  0.2483 -0.4090
  611MOL0     C82377   7.495   2.435   9.947 -0.4276  0.3758 -0.0686
  611MOL0     C82378   7.627   2.413   9.990  0.0825  0.5388  0.3985
  611MOL0     C82379   7.666   2.320  10.099  0.7264  0.3000 -0.5696
  611MOL0     O82380   7.786   2.288  10.104  0.3639 -0.4987 -0.0431
  611MOL0     C82381   7.833   2.255  10.227  0.1968  0.1428  0.0678
  611MOL0     C82382   7.893   2.345  10.322  0.1220 -0.0872 -0.4565
  611MOL0     C82383   7.952   2.292  10.441  1.2973  0.1925 -0.8017
  611MOL0     C82384   7.942   2.158  10.474  0.0272 -0.5444  0.7341
  611MOL0     O82385   7.994   2.110  10.594 -0.7188 -0.4571  0.1107
  611MOL0     C82386   7.908   2.072  10.690  0.1592 -0.6403 -0.0652
  611MOL0     C82387   7.975   1.995  10.809  0.5732  0.4777  0.3690
  611MOL0     C82388   8.064   2.096  10.886 -0.7157 -0.1259  0.0662
  611MOL0     C82389   8.199   2.094  10.816 -0.4371 -0.6461 -0.2513
  611MOL0     C82390   8.315   2.178  10.889 -0.0326  0.3092 -0.1315
  611MOL0     C82391   8.442   2.179  10.796  0.0113 -0.7742 -0.1175
  611MOL0     C82392   8.562   2.263  10.847  0.4668 -0.3988 -0.2250
  611MOL0     C82393   8.635   2.352  10.741  0.3866 -0.3560  0.6295
  611MOL0    Cl82394   8.549   2.507  10.734 -0.2764  0.1048  0.3824
  611MOL0     C82395   7.876   2.072  10.386 -0.3798 -0.7888  0.4203
  611MOL0     C82396   7.826   2.123  10.262 -0.5558 -0.4605 -0.1591
  611MOL0     O82397   7.581   2.271  10.173  0.2203 -0.9074  0.5191
  611MOL0     C82398   7.722   2.481   9.920 -0.2078 -0.7624 -0.3080
  611MOL0     C82399   7.697   2.563   9.817 -0.1701  0.1717 -0.2003
  611MOL0     N82400   7.702   2.504   9.099  0.3017  0.0491 -0.2739
  611MOL0     N82401   7.766   2.423   9.025 -0.8893 -0.5235 -0.0057
  611MOL0     C82402   8.024   1.888   8.213  0.7574 -0.3385  0.0571
  611MOL0     C82403   8.072   1.755   8.207  1.1936 -0.1844  0.4181
  611MOL0     C82404   8.237   1.347   8.219 -0.2364 -0.3470 -0.2138
  611MOL0     C82405   8.138   1.245   8.220  0.0963 -1.1532  0.0006
  611MOL0     C82406   8.175   1.114   8.213  0.5457  0.4750  0.7942
  611MOL0     C82407   8.300   1.070   8.193 -1.5271 -0.2082  0.4986
  611MOL0     O82408   8.330   0.928   8.180 -0.0307 -1.1510  0.0293
  611MOL0     C82409   8.459   0.886   8.123 -0.3417  0.9248  1.4549
  611MOL0     C82410   8.429   0.788   8.012 -0.6429  0.3613  0.0830
  611MOL0     C82411   8.557   0.707   7.970  0.1357 -0.7153 -1.4637
  611MOL0     C82412   8.574   0.578   8.047 -0.2481  0.3123  0.3567
  611MOL0     C82413   8.680   0.589   8.152  0.3384  0.4140 -0.4489
  611MOL0     C82414   8.769   0.596   8.236 -1.3958 -0.1722 -0.5040
  611MOL0     C82415   8.402   1.165   8.189 -0.6561 -1.1041 -0.1914
  611MOL0     C82416   8.372   1.301   8.191 -0.7363 -0.0900 -0.3190
  611MOL0     C82417   8.494   1.390   8.157 -0.1549 -0.7808 -0.1881
  611MOL0     H82418   7.974   1.651   8.512 -1.5590 -0.6837 -0.8415
  611MOL0     H82419   7.892   1.893   8.526  1.1722  2.1592 -0.4222
  611MOL0     H82420   8.090   2.124   8.353 -0.4423  1.2628  1.3171
  611MOL0     H82421   7.991   2.188   8.215  2.0602 -1.6001 -0.8384
  611MOL0     H82422   7.958   2.232   8.510  0.6688  0.3286  1.1802
  611MOL0     H82423   7.855   2.309   8.387 -0.5328 -1.4219  1.8790
  611MOL0     H82424   8.043   2.440   8.311 -0.3545 -0.5582 -0.2888
  611MOL0     H82425   8.165   2.358   8.420  0.9816  0.1935 -3.2841
  611MOL0     H82426   8.131   2.555   8.504  0.5642 -0.2184  1.1905
  611MOL0     H82427   7.955   2.565   8.498  0.0004 -0.2997  2.1712
  611MOL0     H82428   7.926   2.396   8.664 -1.1512  0.5889 -2.4561
  611MOL0     H82429   8.105   2.377   8.677 -0.3067  0.2736 -0.4198
  611MOL0     H82430   8.047   2.643   8.730  0.5627 -0.9579 -1.0135
  611MOL0     H82431   7.914   2.554   8.793  0.1765 -4.7243 -0.7605
  611MOL0     H82432   8.105   2.622   8.958 -0.8705 -0.1366  0.8746
  611MOL0     H82433   8.200   2.507   8.868  0.4417  1.9538 -0.1421
  611MOL0     H82434   8.000   2.341   8.902 -1.4329 -2.3686  2.2088
  611MOL0     H82435   8.110   2.380   9.039  0.9068  1.3229 -0.4386
  611MOL0     H82436   7.976   2.598   9.211 -0.8719  2.1838 -0.2563
  611MOL0     H82437   7.792   2.712   9.346  0.0610  1.0280  0.1265
  611MOL0     H82438   7.681   2.760   9.216  1.8062  2.3536  2.3348
  611MOL0     H82439   7.520   2.593   9.288 -0.6032  0.2854  0.5261
  611MOL0     H82440   7.623   2.552   9.429  1.6288  1.1568  1.8042
  611MOL0     H82441   7.440   2.743   9.454 -0.3610  0.4373 -1.7848
  611MOL0     H82442   7.578   2.847   9.417 -0.8250 -0.0786  1.1096
  611MOL0     H82443   7.639   2.806   9.652  0.2881 -1.0001 -0.2469
  611MOL0     H82444   7.713   2.664   9.572  1.1168  1.7153  1.1259
  611MOL0     H82445   7.360   2.520   9.780  0.5120  2.3156 -1.4979
  611MOL0     H82446   7.419   2.377   9.999 -0.4396 -1.5049 -2.0557
  611MOL0     H82447   7.911   2.448  10.296  1.3771  0.7747  3.2133
  611MOL0     H82448   8.011   2.355  10.506  2.2267 -1.6370  0.2067
  611MOL0     H82449   7.851   2.154  10.732 -0.4424 -0.9977 -0.1675
  611MOL0     H82450   7.843   1.997  10.643  1.3141 -1.1013 -0.9903
  611MOL0     H82451   7.893   1.950  10.865 -1.8534  3.9857 -0.0805
  611MOL0     H82452   8.031   1.908  10.772  0.4608  0.0206  1.2372
  611MOL0     H82453   8.015   2.194  10.888  1.2488  0.9688 -1.8781
  611MOL0     H82454   8.070   2.054  10.987  2.5363 -3.1426 -1.1903
  611MOL0     H82455   8.177   2.161  10.733  1.8316  0.5772  0.0594
  611MOL0     H82456   8.233   1.992  10.796 -0.1195 -0.4513 -0.7202
  611MOL0     H82457   8.346   2.148  10.990 -1.6511  2.3390  1.0409
  611MOL0     H82458   8.276   2.279  10.905 -1.3427  0.5115 -3.7873
  611MOL0     H82459   8.476   2.082  10.760  0.0183 -0.7176 -0.2637
  611MOL0     H82460   8.412   2.227  10.703  3.2168  0.5350 -0.6113
  611MOL0     H82461   8.635   2.190  10.883 -0.4795 -1.2567 -0.0139
  611MOL0     H82462   8.546   2.331  10.931 -2.3089 -1.2757  0.0328
  611MOL0     H82463   8.740   2.373  10.766 -0.0638  0.4423  1.9680
  611MOL0     H82464   8.625   2.304  10.644  0.8604  1.3422 -0.2973
  611MOL0     H82465   7.852   1.968  10.410  1.3889 -0.8050  2.4021
  611MOL0     H82466   7.784   2.063  10.182  2.4662 -1.0538 -1.4633
  611MOL0     H82467   7.818   2.440   9.951 -0.6255 -1.1985  0.4351
  611MOL0     H82468   7.780   2.619   9.776  0.1978 -0.6175 -0.5538
  611MOL0     H82469   8.023   1.955   8.128  1.1297 -0.0095  0.3136
  611MOL0     H82470   8.112   1.742   8.108 -2.4953  5.7024 -2.4484
  611MOL0     H82471   8.036   1.279   8.232  1.0625  2.4784 -0.8700
  611MOL0     H82472   8.106   1.033   8.234  0.8227 -0.4070 -1.4285
  611MOL0     H82473   8.511   0.832   8.203 -3.8407 -0.5143  2.9608
  611MOL0     H82474   8.521   0.963   8.077  2.6960 -3.5009 -2.9837
  611MOL0     H82475   8.387   0.841   7.926 -0.6329  2.3409  1.2404
  611MOL0     H82476   8.347   0.722   8.041  1.7566 -1.3804  3.5329
  611MOL0     H82477   8.645   0.771   7.975  0.1911 -0.9065  1.4578
  611MOL0     H82478   8.526   0.674   7.870 -3.3228  1.5170 -1.3105
  611MOL0     H82479   8.474   0.549   8.081 -1.1756  1.1409 -1.5334
  611MOL0     H82480   8.606   0.506   7.970 -2.8826 -1.2971  0.6326
  611MOL0     H82481   8.847   0.583   8.308  0.3428  0.0777 -2.2526
  611MOL0     H82482   8.506   1.137   8.200 -0.4842  0.0266  1.2744
  611MOL0     H82483   8.475   1.447   8.065  0.4461  0.1171  0.2322
  611MOL0     H82484   8.497   1.461   8.240  0.3180 -0.4664 -0.4680
  611MOL0     H82485   8.589   1.335   8.157  1.3691  1.6449 -1.5884
  612MOL0     O82486   0.740  11.372   4.297 -0.7366 -0.9403  0.7601
  612MOL0     C82487   0.739  11.302   4.196 -0.5617 -0.0837  1.2555
  612MOL0     O82488   0.721  11.342   4.066  0.1990  0.2456 -0.3314
  612MOL0     C82489   0.708  11.480   4.058  1.4004 -0.0467 -0.4853
  612MOL0     C82490   0.570  11.537   4.065  0.1349  0.2743 -0.8341
  612MOL0     C82491   0.560  11.675   4.073 -0.3434  0.0550  0.3862
  612MOL0     C82492   0.673  11.757   4.070  0.0235 -0.4624  1.0794
  612MOL0     O82493   0.659  11.897   4.058 -0.6287 -0.6580  0.2631
  612MOL0     C82494   0.651  11.970   4.185  1.3273 -0.4361 -0.3889
  612MOL0     C82495   0.541  11.913   4.282 -0.0601  0.0280  0.1215
  612MOL0     C82496   0.537  11.989   4.418  0.0564 -0.5448 -0.0439
  612MOL0     C82497   0.468  12.127   4.418 -0.2653 -0.0289 -0.6990
  612MOL0     C82498   0.317  12.116   4.379 -0.4401  0.8111  0.1788
  612MOL0     C82499   0.229  12.019   4.466  0.3454  0.0556 -0.4112
  612MOL0     C82500   0.249  12.036   4.616 -0.4443  0.2902  0.5042
  612MOL0     C82501   0.131  11.956   4.672 -0.2744  0.5350 -0.1250
  612MOL0     N82502   0.128  11.958   4.823 -0.3960 -0.1534  0.1915
  612MOL0     C82503   0.021  11.981   4.902  0.7436 -0.2541  0.2427
  612MOL0     C82504   0.075  11.959   5.020  1.1663  0.1205  0.8080
  612MOL0     C82505   0.014  11.984   5.157 -0.4997  0.3742 -0.7660
  612MOL0     C82506  -0.139  11.984   5.161 -0.0078  0.5062 -0.2644
  612MOL0     C82507  -0.197  11.953   5.301 -0.1278  0.1833  0.1419
  612MOL0     C82508  -0.192  12.076   5.394  1.3744  0.5360  0.7393
  612MOL0     O82509  -0.277  12.179   5.343 -0.7127 -0.3691  0.7144
  612MOL0     C82510  -0.407  12.190   5.384  0.3413  0.8066  1.1682
  612MOL0     C82511  -0.478  12.318   5.353 -1.8963 -0.2817  0.2701
  612MOL0     C82512  -0.612  12.331   5.375  0.1433  0.0413  0.0333
  612MOL0     C82513  -0.682  12.226   5.442  0.3111 -0.6488  0.1701
  612MOL0     C82514  -0.826  12.246   5.490 -0.1366 -0.4922  0.9422
  612MOL0     O82515  -0.882  12.138   5.545 -0.4813  1.1346  0.2316
  612MOL0     C82516  -0.987  12.144   5.627 -0.3740 -0.2504 -0.4948
  612MOL0     C82517  -1.050  12.028   5.657 -0.3866 -0.3152  0.6735
  612MOL0     C82518  -1.170  12.026   5.738 -0.5199 -0.1356  0.7733
  612MOL0     C82519  -1.227  12.142   5.798 -0.7547  0.3521 -0.2543
  612MOL0     O82520  -1.354  12.154   5.862  0.5082  0.6450  0.6506
  612MOL0     C82521  -1.420  12.041   5.922  0.4280 -0.4451 -0.6428
  612MOL0     C82522  -1.415  12.055   6.075 -0.7223  0.6283 -0.5377
  612MOL0     C82523  -1.275  12.085   6.130 -0.4698  0.0151 -0.4307
  612MOL0     C82524  -1.281  12.104   6.284  1.6344  0.0572 -0.1178
  612MOL0     C82525  -1.149  12.123   6.359  0.3757  0.4001  0.3990
  612MOL0     C82526  -1.092  12.256   6.311 -0.6116  0.4246  0.1226
  612MOL0     C82527  -0.991  12.302   6.419 -0.0837 -0.0556 -0.2046
  612MOL0     C82528  -0.921  12.436   6.399  0.7275  0.2043  0.1746
  612MOL0    Cl82529  -0.798  12.466   6.536 -0.0672  0.0278 -0.4362
  612MOL0     C82530  -1.144  12.254   5.793  0.2031  0.1648 -0.2647
  612MOL0     C82531  -1.028  12.258   5.706 -0.0762  0.4408  0.5327
  612MOL0     O82532  -0.881  12.353   5.471  0.4826  0.4109  0.2494
  612MOL0     C82533  -0.620  12.102   5.456  1.0308 -0.1296 -0.4474
  612MOL0     C82534  -0.483  12.082   5.430  0.7568  0.2060  1.3596
  612MOL0     N82535   0.199  11.922   5.013 -0.2311  0.0341 -0.3269
  612MOL0     N82536   0.238  11.927   4.896 -1.5654  0.2756  0.3303
  612MOL0     C82537   0.801  11.702   4.054 -0.3911 -0.0320 -0.7353
  612MOL0     C82538   0.818  11.566   4.053 -0.7517 -1.0348 -0.7465
  612MOL0     C82539   0.774  11.163   4.223  0.4635 -0.0102  0.3736
  612MOL0     C82540   0.751  11.108   4.357 -0.4682  0.8128  0.2641
  612MOL0     C82541   0.789  10.982   4.384 -0.4792  1.0674 -0.3537
  612MOL0     C82542   0.840  10.899   4.282 -0.2328 -0.2670 -0.0753
  612MOL0     O82543   0.850  10.768   4.323 -0.0508 -0.9176  0.3801
  612MOL0     C82544   0.898  10.664   4.240  0.7392 -0.9968  0.7474
  612MOL0     C82545   0.927  10.542   4.335  0.9792 -0.2675  0.3968
  612MOL0     C82546   1.057  10.532   4.420  0.4079  0.0125  0.5632
  612MOL0     C82547   1.124  10.664   4.446  0.5496  0.7656 -0.4831
  612MOL0     C82548   1.227  10.645   4.546 -0.4587  0.5204  0.2198
  612MOL0     C82549   1.312  10.658   4.627  0.1909 -0.5730 -0.0254
  612MOL0     C82550   0.874  10.949   4.158 -0.1310 -0.3352  0.0144
  612MOL0     C82551   0.838  11.077   4.122  0.2236 -0.4288  0.3901
  612MOL0     C82552   0.856  11.114   3.971 -0.7208 -0.5100  0.5708
  612MOL0     H82553   0.482  11.475   4.077 -0.2956  1.0599  0.2503
  612MOL0     H82554   0.457  11.708   4.085 -0.1617  0.7145  0.1927
  612MOL0     H82555   0.744  11.961   4.241  0.2952  0.4457  1.5669
  612MOL0     H82556   0.631  12.076   4.169 -0.4028 -0.2753  2.2186
  612MOL0     H82557   0.568  11.810   4.308  1.0327 -0.1143 -1.4913
  612MOL0     H82558   0.442  11.913   4.236 -0.3679 -2.7458  0.5698
  612MOL0     H82559   0.638  12.006   4.455 -0.6700  1.3269  1.2299
  612MOL0     H82560   0.499  11.923   4.496  1.0810 -1.6025 -0.4021
  612MOL0     H82561   0.471  12.171   4.517  1.8362  1.2885 -1.2791
  612MOL0     H82562   0.515  12.201   4.352 -1.0981  2.3521  1.2616
  612MOL0     H82563   0.275  12.216   4.394 -0.1319  0.8387  0.8922
  612MOL0     H82564   0.303  12.085   4.275 -0.5554 -1.4861  0.8227
  612MOL0     H82565   0.131  12.049   4.428  0.9486  1.5622 -0.8519
  612MOL0     H82566   0.257  11.917   4.440  0.2597 -0.3084  0.8411
  612MOL0     H82567   0.248  12.143   4.641  2.2954  0.2280  1.1815
  612MOL0     H82568   0.345  11.995   4.647 -0.5584  0.6370  1.3587
  612MOL0     H82569   0.040  11.995   4.625 -1.1685 -0.9743  0.2949
  612MOL0     H82570   0.152  11.854   4.639  0.2001 -0.4051  2.8141
  612MOL0     H82571  -0.078  12.022   4.885  0.0260 -1.5036  1.2833
  612MOL0     H82572   0.048  11.907   5.226 -1.0692  3.1496  2.9348
  612MOL0     H82573   0.053  12.078   5.197  2.5442 -0.8575 -0.5933
  612MOL0     H82574  -0.183  12.079   5.131  1.7276  2.2856  2.3596
  612MOL0     H82575  -0.166  11.912   5.083  0.3058  1.9975 -1.8160
  612MOL0     H82576  -0.126  11.878   5.338 -1.0311 -0.4139  0.6989
  612MOL0     H82577  -0.302  11.924   5.295 -0.6812  1.7893  1.4209
  612MOL0     H82578  -0.089  12.110   5.381  1.6347 -0.4279  0.1458
  612MOL0     H82579  -0.211  12.038   5.495  0.6647 -0.3745  0.2791
  612MOL0     H82580  -0.420  12.403   5.319 -0.1086 -1.5205  0.1083
  612MOL0     H82581  -0.668  12.418   5.340 -0.3686 -0.3308 -0.0915
  612MOL0     H82582  -1.010  11.947   5.598 -0.9767  1.0204 -1.6868
  612MOL0     H82583  -1.201  11.922   5.738  1.4289 -0.7711  2.0271
  612MOL0     H82584  -1.528  12.047   5.910  0.0382  0.5799  2.4761
  612MOL0     H82585  -1.389  11.949   5.872 -1.7394 -0.9197 -1.1918
  612MOL0     H82586  -1.479  12.140   6.100 -1.0097  0.5030 -0.8346
  612MOL0     H82587  -1.455  11.970   6.130  0.4984 -0.1398 -0.7981
  612MOL0     H82588  -1.222  11.991   6.115 -1.9002 -1.0451  0.8456
  612MOL0     H82589  -1.214  12.165   6.086  2.2811 -0.5049  2.0922
  612MOL0     H82590  -1.354  12.036   6.330  0.3442 -1.1652 -3.6088
  612MOL0     H82591  -1.339  12.195   6.301  0.0664 -1.2466  2.0372
  612MOL0     H82592  -1.089  12.032   6.357 -1.3600 -0.8086  1.1286
  612MOL0     H82593  -1.173  12.131   6.465  0.6754 -0.5271  0.5362
  612MOL0     H82594  -1.031  12.228   6.225  1.4120  0.4640  1.4559
  612MOL0     H82595  -1.165  12.334   6.290 -0.4642 -0.0935 -2.6970
  612MOL0     H82596  -0.911  12.233   6.447 -0.6395  0.8521  4.4523
  612MOL0     H82597  -1.063  12.305   6.502 -1.0944 -1.2573 -1.0006
  612MOL0     H82598  -0.870  12.445   6.303 -2.5008 -3.1567 -2.1371
  612MOL0     H82599  -1.005  12.504   6.405 -2.4392 -3.4486  1.4945
  612MOL0     H82600  -1.170  12.339   5.854  1.7432  0.1117  0.5227
  612MOL0     H82601  -0.965  12.344   5.724  1.4851 -0.6478  0.4097
  612MOL0     H82602  -0.663  12.018   5.510  3.1108 -1.0879 -0.1763
  612MOL0     H82603  -0.432  11.991   5.459  0.0658 -0.6123  0.1124
  612MOL0     H82604   0.888  11.764   4.035  0.3692 -1.2063 -1.2289
  612MOL0     H82605   0.916  11.520   4.057  0.1521  0.8117 -0.4398
  612MOL0     H82606   0.690  11.151   4.436 -6.3510 -4.8083 -0.3344
  612MOL0     H82607   0.764  10.925   4.473  0.3712 -1.2775 -1.5253
  612MOL0     H82608   0.986  10.698   4.185  1.1094 -2.0128  0.6969
  612MOL0     H82609   0.818  10.635   4.171  1.4758  0.3082 -0.7136
  612MOL0     H82610   0.927  10.451   4.275 -0.6253 -1.4384  2.0542
  612MOL0     H82611   0.832  10.523   4.386  0.8074  0.7872  0.5002
  612MOL0     H82612   1.114  10.457   4.364  0.3360  1.6799 -1.8776
  612MOL0     H82613   1.032  10.479   4.513 -0.9275 -1.9416 -0.8306
  612MOL0     H82614   1.167  10.702   4.353 -0.8437 -1.9684 -2.3687
  612MOL0     H82615   1.050  10.739   4.477  0.5566  1.2793 -1.6331
  612MOL0     H82616   1.381  10.678   4.706 -0.4436  4.4247 -0.4055
  612MOL0     H82617   0.902  10.877   4.081  0.4195 -1.0264  0.8396
  612MOL0     H82618   0.755  11.121   3.930 -0.5515 -0.0149  0.2348
  612MOL0     H82619   0.897  11.215   3.977 -0.0771 -0.7600  0.4653
  612MOL0     H82620   0.909  11.042   3.907 -1.2581  0.4726 -1.0384
  613MOL0     O82621   4.944   6.486   3.584  0.2437  0.0442 -0.3732
  613MOL0     C82622   5.041   6.528   3.535 -0.1693 -0.6757 -0.5790
  613MOL0     O82623   5.068   6.667   3.532 -0.2350  0.0933 -0.2423
  613MOL0     C82624   5.002   6.758   3.610 -0.5489  0.3362  1.2210
  613MOL0     C82625   4.936   6.868   3.551 -0.7598 -0.5118  0.0989
  613MOL0     C82626   4.878   6.969   3.636  0.5874  0.1805 -0.6580
  613MOL0     C82627   4.884   6.958   3.773 -0.5915  0.3779 -0.4888
  613MOL0     O82628   4.829   7.040   3.866  0.4128 -0.0925  0.1771
  613MOL0     C82629   4.775   7.160   3.823 -0.0245 -0.0835 -0.6080
  613MOL0     C82630   4.715   7.238   3.936 -0.6094 -0.2637 -0.7995
  613MOL0     C82631   4.632   7.365   3.895  0.0170  0.3514 -0.3892
  613MOL0     C82632   4.605   7.471   4.002  0.0488 -0.5719 -0.6209
  613MOL0     C82633   4.596   7.612   3.951 -0.0693 -0.1165 -0.1597
  613MOL0     C82634   4.619   7.718   4.061  0.7106  0.0825  0.6813
  613MOL0     C82635   4.682   7.851   4.001  0.0823 -0.2754 -0.3991
  613MOL0     C82636   4.688   7.967   4.094  0.5218 -0.3345 -0.4436
  613MOL0     N82637   4.816   7.974   4.160 -0.6809 -0.2531 -0.0587
  613MOL0     C82638   4.850   7.913   4.279 -0.5589 -0.3724 -0.5230
  613MOL0     C82639   4.949   7.989   4.337 -0.2141 -1.0862 -0.0384
  613MOL0     C82640   4.995   7.973   4.474  0.1602 -0.4833  0.0958
  613MOL0     C82641   4.942   8.089   4.565  0.1993  0.3277 -0.0908
  613MOL0     C82642   4.793   8.123   4.558  0.1961 -0.4449 -1.3243
  613MOL0     C82643   4.759   8.244   4.650  0.5060  0.5949 -0.0453
  613MOL0     O82644   4.804   8.363   4.600  0.2218  0.0335  0.1352
  613MOL0     C82645   4.771   8.477   4.676 -1.0980 -0.4385  0.0112
  613MOL0     C82646   4.844   8.591   4.638 -0.7057 -0.6036 -0.2367
  613MOL0     C82647   4.830   8.714   4.708 -0.3256  0.3973 -0.2405
  613MOL0     C82648   4.758   8.720   4.824 -0.5206 -0.2041 -0.1819
  613MOL0     C82649   4.743   8.838   4.910 -0.9459  0.0598  0.4658
  613MOL0     O82650   4.750   8.948   4.837  1.6817  0.4071  0.6460
  613MOL0     C82651   4.719   9.064   4.902  0.5692  0.4918  1.0222
  613MOL0     C82652   4.820   9.149   4.938 -0.3267  0.4534 -1.1240
  613MOL0     C82653   4.784   9.262   5.014  0.4968  0.7754 -0.4241
  613MOL0     C82654   4.650   9.290   5.038 -1.1755  0.4263 -0.1702
  613MOL0     O82655   4.615   9.392   5.121  0.2587 -0.2620 -0.1164
  613MOL0     C82656   4.588   9.354   5.255  0.3286  0.8237  0.6620
  613MOL0     C82657   4.473   9.420   5.312  0.8113 -0.1842 -0.1032
  613MOL0     C82658   4.494   9.420   5.460  0.5867  0.7199  0.6975
  613MOL0     C82659   4.358   9.434   5.532  0.4443  0.1501  1.2914
  613MOL0     C82660   4.384   9.475   5.683 -0.7925 -0.0597  0.5633
  613MOL0     C82661   4.252   9.445   5.761  0.1269 -0.2727  0.0125
  613MOL0     C82662   4.212   9.294   5.773  0.1722 -0.9402 -0.3197
  613MOL0     C82663   4.319   9.199   5.815  0.0025  0.1129  0.9921
  613MOL0    Cl82664   4.244   9.039   5.818  0.5481  0.3690  0.1517
  613MOL0     C82665   4.548   9.209   4.990  0.1591  0.6027 -0.1381
  613MOL0     C82666   4.587   9.090   4.926  0.1987 -0.2536 -0.3735
  613MOL0     O82667   4.719   8.829   5.030 -0.8020  0.2057 -0.3491
  613MOL0     C82668   4.691   8.605   4.865 -1.1901 -0.0971 -0.1815
  613MOL0     C82669   4.684   8.485   4.789 -0.1676 -0.2581  0.0655
  613MOL0     N82670   4.981   8.091   4.247 -0.0281  0.8285  0.0820
  613MOL0     N82671   4.894   8.088   4.151 -0.2322  0.1247  0.2941
  613MOL0     C82672   4.958   6.845   3.824 -0.0276 -0.4865  0.0505
  613MOL0     C82673   5.017   6.749   3.745 -0.6397 -0.5352 -0.9910
  613MOL0     C82674   5.148   6.449   3.467 -0.4844 -0.3701  0.8443
  613MOL0     C82675   5.228   6.526   3.375 -0.0594 -0.6622 -0.9370
  613MOL0     C82676   5.324   6.457   3.301  0.6729  0.6742  0.2206
  613MOL0     C82677   5.338   6.322   3.317  0.0265 -0.6735 -0.9075
  613MOL0     O82678   5.450   6.268   3.250  0.5117 -0.6049 -0.2382
  613MOL0     C82679   5.494   6.134   3.247  0.0491  0.0205  0.9608
  613MOL0     C82680   5.638   6.145   3.236 -0.9867 -0.0694 -0.0784
  613MOL0     C82681   5.696   6.007   3.257 -0.7459 -0.3228 -0.6395
  613MOL0     C82682   5.846   5.986   3.236  0.8136 -0.7225  0.4490
  613MOL0     C82683   5.883   6.049   3.105 -0.0483 -0.1282 -0.4537
  613MOL0     C82684   5.928   6.090   3.000 -0.4287 -0.0382 -0.8415
  613MOL0     C82685   5.267   6.255   3.412 -0.4925 -0.4066 -0.7062
  613MOL0     C82686   5.169   6.308   3.486 -0.3453  0.3001 -0.8061
  613MOL0     C82687   5.089   6.226   3.580  0.0749  0.2628 -0.6660
  613MOL0     H82688   4.932   6.864   3.443 -1.8420  2.9021 -0.1026
  613MOL0     H82689   4.830   7.057   3.594 -1.0717 -1.1626 -1.6827
  613MOL0     H82690   4.854   7.215   3.772 -1.3880  2.8874  0.2623
  613MOL0     H82691   4.696   7.144   3.749  0.3292  3.4378 -1.9445
  613MOL0     H82692   4.800   7.271   3.997 -1.7748  2.0080 -0.2785
  613MOL0     H82693   4.641   7.177   3.989 -0.0016  1.1862  1.9195
  613MOL0     H82694   4.539   7.323   3.855 -1.3476  1.7865  1.1026
  613MOL0     H82695   4.680   7.416   3.811 -0.8725 -0.0087 -1.1402
  613MOL0     H82696   4.516   7.448   4.062  0.5533  0.0033  0.3787
  613MOL0     H82697   4.689   7.461   4.071 -0.2054 -2.1922 -0.5181
  613MOL0     H82698   4.671   7.627   3.872 -0.6150 -2.2633 -1.1547
  613MOL0     H82699   4.498   7.636   3.908  1.0065  0.4766 -2.4842
  613MOL0     H82700   4.519   7.733   4.103  0.2987  1.0970 -0.6368
  613MOL0     H82701   4.673   7.682   4.149 -0.8730  1.2004  2.1755
  613MOL0     H82702   4.611   7.881   3.924  2.0661  2.4084 -1.3381
  613MOL0     H82703   4.774   7.829   3.946 -0.7356 -1.2719 -1.3786
  613MOL0     H82704   4.687   8.057   4.031  0.4787  0.0957  0.1573
  613MOL0     H82705   4.609   7.961   4.170 -0.2375  0.1937 -1.1594
  613MOL0     H82706   4.806   7.828   4.330 -0.3730  0.1221  0.4760
  613MOL0     H82707   4.961   7.872   4.498 -1.0438 -0.8765 -2.7796
  613MOL0     H82708   5.104   7.972   4.472  0.3415  3.2272  0.9071
  613MOL0     H82709   4.967   8.052   4.664  0.4421 -0.5976 -0.4848
  613MOL0     H82710   5.000   8.181   4.549 -0.5941  0.5853 -1.7320
  613MOL0     H82711   4.744   8.042   4.613 -0.2725  0.7205  0.0441
  613MOL0     H82712   4.747   8.122   4.459 -2.3333 -0.1727 -0.2327
  613MOL0     H82713   4.809   8.227   4.746  0.4529 -2.8605 -0.5064
  613MOL0     H82714   4.651   8.247   4.663  0.2096  1.4367 -2.3105
  613MOL0     H82715   4.914   8.580   4.557 -1.1798 -1.2897 -0.5644
  613MOL0     H82716   4.898   8.787   4.665  4.5216 -2.2345  2.0827
  613MOL0     H82717   4.927   9.132   4.930 -0.2055 -3.5783  3.7471
  613MOL0     H82718   4.863   9.322   5.056  0.3268  1.9355 -1.6813
  613MOL0     H82719   4.575   9.245   5.258 -2.9066  0.9188 -2.8608
  613MOL0     H82720   4.679   9.372   5.315  1.0673 -2.3827  0.7126
  613MOL0     H82721   4.472   9.528   5.295  2.6008 -0.0404  0.3909
  613MOL0     H82722   4.379   9.376   5.279 -0.1162  1.2340  0.5649
  613MOL0     H82723   4.545   9.329   5.493 -0.5590  0.3200  1.4431
  613MOL0     H82724   4.560   9.503   5.484  1.0860 -0.0338  2.0780
  613MOL0     H82725   4.290   9.349   5.520 -0.4148  0.7752  1.5938
  613MOL0     H82726   4.306   9.512   5.474  3.0219  0.7180 -0.4281
  613MOL0     H82727   4.386   9.585   5.679 -3.2173  0.1271  2.3551
  613MOL0     H82728   4.471   9.434   5.735 -1.1524 -0.7997  0.5836
  613MOL0     H82729   4.281   9.481   5.860  3.6488 -0.3524 -0.8648
  613MOL0     H82730   4.160   9.492   5.724  0.5523 -0.3890 -1.2525
  613MOL0     H82731   4.177   9.273   5.671  2.1347  0.3977 -1.3584
  613MOL0     H82732   4.130   9.282   5.844 -0.8472 -0.3599 -1.3618
  613MOL0     H82733   4.410   9.196   5.755  1.0303  1.4661  2.3894
  613MOL0     H82734   4.362   9.216   5.915  2.0494  0.8498  0.0534
  613MOL0     H82735   4.440   9.219   4.998  0.3000  1.2116  1.1160
  613MOL0     H82736   4.504   9.034   4.884 -0.3629  0.6703 -0.5163
  613MOL0     H82737   4.645   8.604   4.963  0.7402 -0.5586  0.7841
  613MOL0     H82738   4.619   8.404   4.821 -2.0723  0.9325 -0.6502
  613MOL0     H82739   4.967   6.838   3.932  1.0103  1.4895  0.1339
  613MOL0     H82740   5.084   6.674   3.786  0.3102  1.4390  1.2909
  613MOL0     H82741   5.224   6.634   3.366 -0.9844 -0.6409 -0.4124
  613MOL0     H82742   5.401   6.510   3.245 -1.0184  2.5793 -0.4319
  613MOL0     H82743   5.450   6.085   3.159 -0.9887  1.1251  0.8391
  613MOL0     H82744   5.469   6.073   3.334 -3.1897  0.6921  0.6470
  613MOL0     H82745   5.674   6.208   3.318 -0.8402  1.3649 -1.1885
  613MOL0     H82746   5.668   6.180   3.137 -3.3422  0.3322 -0.7164
  613MOL0     H82747   5.647   5.939   3.187 -0.4536  0.2393 -1.4075
  613MOL0     H82748   5.671   5.978   3.360 -0.6852  2.8072  0.3507
  613MOL0     H82749   5.889   6.047   3.316 -1.3279  4.2129 -1.7420
  613MOL0     H82750   5.875   5.881   3.237 -0.2837 -1.0403 -0.0231
  613MOL0     H82751   5.974   6.130   2.912  0.6880  1.6699  0.4358
  613MOL0     H82752   5.291   6.150   3.425 -3.1243 -1.1198 -1.1405
  613MOL0     H82753   5.111   6.244   3.685 -0.5732 -2.3161 -0.0243
  613MOL0     H82754   4.981   6.242   3.568 -0.3538 -2.6768 -1.5079
  613MOL0     H82755   5.100   6.119   3.558 -3.6484 -0.8146  1.7549
  614MOL0     O82756   5.263   9.922   5.502 -0.4079 -0.2661  0.6952
  614MOL0     C82757   5.187   9.844   5.449 -0.1559  0.2781  0.0922
  614MOL0     O82758   5.135   9.856   5.319 -0.0308 -0.2630 -0.6675
  614MOL0     C82759   5.147   9.972   5.251  0.1986  0.5563  0.8761
  614MOL0     C82760   5.270  10.032   5.225  0.6719 -0.5553  0.3715
  614MOL0     C82761   5.284  10.140   5.134  0.5430  0.5758  0.2333
  614MOL0     C82762   5.170  10.181   5.060 -0.9528 -0.2706  1.1686
  614MOL0     O82763   5.170  10.288   4.970  0.3303  1.0137 -0.0193
  614MOL0     C82764   5.280  10.379   4.947  0.2186  0.3889  0.1839
  614MOL0     C82765   5.320  10.473   5.057  0.5812  0.2197 -0.0344
  614MOL0     C82766   5.202  10.522   5.138  1.0650  0.0217  0.1386
  614MOL0     C82767   5.254  10.618   5.245  0.0197 -0.1492  0.1950
  614MOL0     C82768   5.138  10.667   5.331 -0.0211  0.4594 -1.1051
  614MOL0     C82769   5.063  10.783   5.261  0.0829 -0.2711 -0.1885
  614MOL0     C82770   4.908  10.762   5.294 -0.2076 -0.4833  0.3003
  614MOL0     C82771   4.879  10.831   5.425  0.8616 -1.2068 -0.3929
  614MOL0     N82772   4.738  10.794   5.463 -0.5056 -0.6958 -0.2645
  614MOL0     C82773   4.619  10.827   5.410 -0.5086  0.6620 -0.4020
  614MOL0     C82774   4.523  10.764   5.484 -0.6723  0.1792  0.3830
  614MOL0     C82775   4.378  10.765   5.464 -0.4622 -0.8661  0.4446
  614MOL0     C82776   4.346  10.648   5.368  0.2156 -0.5931  0.1029
  614MOL0     C82777   4.188  10.637   5.349  0.5936 -0.1113 -0.1022
  614MOL0     C82778   4.131  10.576   5.214 -0.6109 -0.2290 -0.2819
  614MOL0     O82779   4.186  10.445   5.222 -0.4298  0.7456 -0.0931
  614MOL0     C82780   4.107  10.348   5.281 -1.1366 -0.4782  0.2757
  614MOL0     C82781   4.185  10.254   5.341  0.1612  0.6020 -0.7015
  614MOL0     C82782   4.124  10.154   5.420 -0.0205 -0.2399 -0.0591
  614MOL0     C82783   3.980  10.142   5.425  0.1097  0.1051 -0.2088
  614MOL0     C82784   3.910  10.040   5.516 -0.9452 -0.2992  1.6373
  614MOL0     O82785   3.982   9.945   5.586  0.1664 -0.3016  0.0025
  614MOL0     C82786   3.916   9.856   5.663 -0.4665  0.4090 -0.4691
  614MOL0     C82787   3.806   9.885   5.749  0.6357 -0.4697 -0.0844
  614MOL0     C82788   3.733   9.783   5.809  0.5660 -0.8780 -0.2956
  614MOL0     C82789   3.763   9.641   5.792 -0.4858  0.8177  0.9295
  614MOL0     O82790   3.674   9.549   5.829  0.2441 -0.3197 -0.4866
  614MOL0     C82791   3.677   9.429   5.748 -0.2148 -0.3751 -0.3565
  614MOL0     C82792   3.752   9.318   5.816  0.1253 -0.4215  0.5672
  614MOL0     C82793   3.759   9.212   5.716 -0.6419 -1.3154  0.7905
  614MOL0     C82794   3.823   9.091   5.788  0.4302  0.2213  0.5381
  614MOL0     C82795   3.850   8.969   5.688 -0.4830 -0.5748 -0.5843
  614MOL0     C82796   3.726   8.921   5.615  0.0247 -0.0139 -0.1824
  614MOL0     C82797   3.651   8.813   5.691 -0.6816 -0.4604  0.9700
  614MOL0     C82798   3.541   8.878   5.779  0.0941 -0.0086  0.0495
  614MOL0    Cl82799   3.395   8.898   5.679  0.1871 -0.2405 -0.1595
  614MOL0     C82800   3.869   9.617   5.709 -0.1447  0.2954 -0.5265
  614MOL0     C82801   3.946   9.718   5.651  0.3838 -0.2445  0.0179
  614MOL0     O82802   3.784  10.048   5.514  0.4058  0.3895 -0.1954
  614MOL0     C82803   3.901  10.224   5.341 -0.2474  0.0774  0.4470
  614MOL0     C82804   3.969  10.334   5.277  0.2848 -0.3513 -0.1179
  614MOL0     N82805   4.594  10.687   5.577  0.4761 -0.0406  0.4373
  614MOL0     N82806   4.718  10.698   5.557  0.3392 -0.4224 -1.1494
  614MOL0     C82807   5.054  10.100   5.077 -0.0018 -0.5136  0.2060
  614MOL0     C82808   5.041  10.002   5.168  0.3322  0.3445  0.0106
  614MOL0     C82809   5.145   9.724   5.519  0.7215  0.0360  0.0004
  614MOL0     C82810   5.049   9.640   5.453  0.0354  0.4950 -0.2375
  614MOL0     C82811   4.980   9.539   5.515  0.3945  0.2734  1.2649
  614MOL0     C82812   5.009   9.511   5.645  0.1369 -1.0234  0.2473
  614MOL0     O82813   4.923   9.427   5.714 -0.2502  0.4655 -0.0317
  614MOL0     C82814   4.865   9.488   5.828 -0.5637  0.0545 -0.1288
  614MOL0     C82815   4.765   9.373   5.875  0.2889  0.5836  0.6784
  614MOL0     C82816   4.653   9.419   5.962 -0.7132  0.3400  0.1424
  614MOL0     C82817   4.710   9.457   6.098 -0.3006  0.2447 -0.1740
  614MOL0     C82818   4.775   9.357   6.182  0.2837  0.2574 -0.4492
  614MOL0     C82819   4.817   9.265   6.247  0.4690 -0.2797 -0.0330
  614MOL0     C82820   5.120   9.569   5.703  0.1039  0.1215  0.5242
  614MOL0     C82821   5.183   9.683   5.651 -0.3294  0.3718  0.8962
  614MOL0     C82822   5.315   9.715   5.711  0.4390 -0.9422 -0.2735
  614MOL0     H82823   5.354   9.994   5.283 -0.6636 -1.4391  1.7990
  614MOL0     H82824   5.382  10.187   5.131 -0.6489  3.2087 -1.7787
  614MOL0     H82825   5.370  10.330   4.909 -0.8843 -0.6253 -1.2565
  614MOL0     H82826   5.256  10.427   4.851  0.6895 -3.1798 -1.9146
  614MOL0     H82827   5.361  10.557   5.000  1.2259  0.3140  0.5605
  614MOL0     H82828   5.390  10.437   5.133  0.1995 -1.8381 -0.5913
  614MOL0     H82829   5.152  10.437   5.185  2.1930 -0.7440 -0.0068
  614MOL0     H82830   5.127  10.572   5.075 -0.4776 -1.4282  0.7632
  614MOL0     H82831   5.327  10.562   5.305 -0.5147  0.1050  1.0986
  614MOL0     H82832   5.305  10.709   5.211  0.8832 -1.0502 -1.0361
  614MOL0     H82833   5.074  10.584   5.363  1.3818  0.0660  0.8411
  614MOL0     H82834   5.170  10.715   5.424 -0.7791  2.0309 -1.6285
  614MOL0     H82835   5.091  10.878   5.307  3.0477 -2.2056  2.3847
  614MOL0     H82836   5.075  10.786   5.152 -2.4394  2.1484 -0.5132
  614MOL0     H82837   4.888  10.655   5.296 -0.1752 -0.8345 -4.6023
  614MOL0     H82838   4.845  10.804   5.215 -0.3568  1.1257  1.2501
  614MOL0     H82839   4.943  10.796   5.507  1.0988 -1.3994 -0.6566
  614MOL0     H82840   4.911  10.935   5.430 -0.1407 -0.9518  1.8969
  614MOL0     H82841   4.610  10.873   5.312 -1.3481 -0.2630 -0.7719
  614MOL0     H82842   4.324  10.767   5.560 -1.7239 -0.3673 -0.2522
  614MOL0     H82843   4.352  10.862   5.421 -1.1279 -2.1560 -2.2261
  614MOL0     H82844   4.397  10.680   5.277 -1.6330  0.1338 -0.7260
  614MOL0     H82845   4.386  10.556   5.412 -0.2188 -1.0461 -0.4270
  614MOL0     H82846   4.130  10.730   5.348 -2.2054 -1.7277  0.6112
  614MOL0     H82847   4.146  10.568   5.423 -0.0515 -0.8616 -1.1474
  614MOL0     H82848   4.170  10.637   5.131 -0.5756  1.0366  0.6369
  614MOL0     H82849   4.022  10.577   5.210 -0.8270 -0.9388  3.0102
  614MOL0     H82850   4.294  10.252   5.338  0.2317  0.6602  0.8167
  614MOL0     H82851   4.186  10.092   5.485  1.6173  2.4796  1.1850
  614MOL0     H82852   3.774   9.981   5.785 -2.9066 -0.7552 -2.0693
  614MOL0     H82853   3.643   9.814   5.861 -1.7791 -0.7276 -4.0592
  614MOL0     H82854   3.574   9.395   5.734 -1.3554  3.1782 -1.7442
  614MOL0     H82855   3.699   9.448   5.642  0.8788 -0.2294 -0.1084
  614MOL0     H82856   3.850   9.356   5.843 -0.3532 -0.2219  2.1158
  614MOL0     H82857   3.711   9.273   5.907  2.6412 -0.5661  1.7039
  614MOL0     H82858   3.655   9.189   5.689 -1.4588  2.6160  0.0320
  614MOL0     H82859   3.809   9.240   5.623  1.1148  1.6490  2.4687
  614MOL0     H82860   3.756   9.062   5.869 -2.1950  0.3652 -1.4585
  614MOL0     H82861   3.919   9.124   5.829 -0.4424  2.9358  0.5821
  614MOL0     H82862   3.891   8.895   5.758 -2.6963 -0.0700  1.4085
  614MOL0     H82863   3.925   8.990   5.612  1.3243  0.9310  1.4928
  614MOL0     H82864   3.664   9.005   5.582  1.6927  1.5643  0.5120
  614MOL0     H82865   3.753   8.863   5.527  0.5542  1.2016 -0.8471
  614MOL0     H82866   3.707   8.737   5.747 -1.1893  0.2760  2.5610
  614MOL0     H82867   3.595   8.769   5.609 -0.9117  1.5957 -0.0396
  614MOL0     H82868   3.517   8.810   5.862 -1.0290 -1.9978 -1.7942
  614MOL0     H82869   3.574   8.971   5.825 -2.5374  1.2945 -0.5186
  614MOL0     H82870   3.907   9.516   5.696  5.0645  1.5468  2.3426
  614MOL0     H82871   4.029   9.690   5.587 -0.5756 -1.1810 -0.8635
  614MOL0     H82872   3.793  10.217   5.340 -1.0393  5.9845 -2.1403
  614MOL0     H82873   3.903  10.398   5.219  2.5312  2.5139  0.2365
  614MOL0     H82874   4.973  10.118   5.007 -1.1056 -1.9641  1.0649
  614MOL0     H82875   4.947   9.951   5.188  2.2533 -3.4047  0.2866
  614MOL0     H82876   5.013   9.652   5.351 -0.9240 -0.7122 -0.0623
  614MOL0     H82877   4.908   9.480   5.459  1.7713  1.7181 -2.2994
  614MOL0     H82878   4.813   9.581   5.802  1.0563  0.7853 -0.8534
  614MOL0     H82879   4.943   9.505   5.903 -0.1912  2.6149 -0.9941
  614MOL0     H82880   4.810   9.277   5.903 -3.0546 -1.3178  0.1115
  614MOL0     H82881   4.719   9.340   5.781 -2.6952  0.2863  2.1189
  614MOL0     H82882   4.579   9.341   5.982 -0.8107  0.6541  1.0685
  614MOL0     H82883   4.604   9.510   5.926  4.9737  3.2681 -1.3708
  614MOL0     H82884   4.785   9.534   6.080  3.3669 -2.3860  2.4014
  614MOL0     H82885   4.635   9.509   6.158 -0.3954  0.2295 -0.2774
  614MOL0     H82886   4.875   9.198   6.308  3.1308  2.9315  1.2479
  614MOL0     H82887   5.142   9.530   5.802 -0.1842 -0.8512  0.2065
  614MOL0     H82888   5.347   9.819   5.695  2.2083 -1.4701 -0.4335
  614MOL0     H82889   5.314   9.682   5.815 -4.8571 -2.0128 -0.3711
  614MOL0     H82890   5.391   9.658   5.657 -1.6095 -0.7046 -3.6585
  615MOL0     O82891   6.074   2.552   8.768 -0.5828 -0.5126  0.4932
  615MOL0     C82892   6.039   2.623   8.864  0.8649  0.6019 -0.8764
  615MOL0     O82893   6.003   2.567   8.991 -0.3944 -0.3972 -0.4694
  615MOL0     C82894   6.009   2.441   9.015 -0.7727  0.3575  0.1614
  615MOL0     C82895   6.125   2.384   9.068 -0.4476  0.5770  0.0564
  615MOL0     C82896   6.144   2.247   9.089 -0.7000 -0.6541  0.8747
  615MOL0     C82897   6.040   2.161   9.042  0.1108 -0.5482 -0.2816
  615MOL0     O82898   6.044   2.028   9.053  0.1353  0.4987  0.0129
  615MOL0     C82899   6.165   1.959   9.106 -0.9309 -0.8747  0.0547
  615MOL0     C82900   6.137   1.810   9.095  0.6506  0.1414  0.4467
  615MOL0     C82901   6.253   1.721   9.097  0.5777  0.5839 -0.2891
  615MOL0     C82902   6.220   1.571   9.128 -0.6793 -0.1404 -0.2223
  615MOL0     C82903   6.351   1.472   9.120 -0.2897 -0.4116  0.0642
  615MOL0     C82904   6.320   1.328   9.091 -0.5990 -0.3510  0.4364
  615MOL0     C82905   6.442   1.246   9.049  0.5330  0.1920  0.3233
  615MOL0     C82906   6.401   1.113   8.997 -0.2292  0.2942 -0.0501
  615MOL0     N82907   6.499   1.014   9.018  0.7055  0.0344  0.9759
  615MOL0     C82908   6.483   0.887   9.052 -0.3577  0.1396 -0.2453
  615MOL0     C82909   6.595   0.820   9.019  0.0670  0.3615  0.0948
  615MOL0     C82910   6.624   0.670   9.054 -0.0808 -0.1163  0.5431
  615MOL0     C82911   6.682   0.591   8.939 -0.5139  0.3207 -0.2303
  615MOL0     C82912   6.611   0.616   8.800  0.5125  0.8580  0.3231
  615MOL0     C82913   6.672   0.510   8.703 -0.6865  0.5023  0.0674
  615MOL0     O82914   6.598   0.510   8.586  0.1953  1.1448  0.0444
  615MOL0     C82915   6.630   0.610   8.494  0.2609  0.6433  0.3105
  615MOL0     C82916   6.526   0.703   8.454 -0.1114  0.5789 -0.3763
  615MOL0     C82917   6.549   0.794   8.351 -0.2517  1.2583 -0.9419
  615MOL0     C82918   6.675   0.806   8.293  0.7121  0.4808  0.3343
  615MOL0     C82919   6.699   0.890   8.186 -0.8175  0.4145  0.0570
  615MOL0     O82920   6.823   0.876   8.134  1.3227 -0.0002 -0.0041
  615MOL0     C82921   6.864   0.953   8.034 -0.0915  0.2624  0.6048
  615MOL0     C82922   6.796   0.978   7.906 -0.0420  0.5336 -0.0929
  615MOL0     C82923   6.868   1.056   7.806  0.1401 -0.3831 -0.6708
  615MOL0     C82924   6.996   1.096   7.828 -0.1831 -1.2296  0.5423
  615MOL0     O82925   7.052   1.174   7.727  0.6206  0.2835  0.9682
  615MOL0     C82926   7.156   1.263   7.756 -0.0612 -0.6644 -0.7228
  615MOL0     C82927   7.152   1.384   7.663 -0.9143 -0.7051  0.0509
  615MOL0     C82928   7.031   1.466   7.672 -0.1536 -0.7072 -0.1852
  615MOL0     C82929   7.030   1.568   7.794 -0.5724 -0.2272  0.3642
  615MOL0     C82930   7.106   1.697   7.766  0.3152  0.3875  0.2934
  615MOL0     C82931   7.015   1.806   7.714  0.1211 -0.0887  0.2797
  615MOL0     C82932   7.094   1.927   7.646  1.3403 -0.0924 -0.6291
  615MOL0     C82933   7.009   2.005   7.556  0.4272  0.1369 -0.5948
  615MOL0    Cl82934   6.877   2.104   7.618  0.0338  0.3283 -0.5597
  615MOL0     C82935   7.061   1.062   7.944  0.1987 -0.6307  0.7863
  615MOL0     C82936   7.000   0.987   8.048  0.9051  0.3170  0.8734
  615MOL0     O82937   6.603   0.956   8.143  0.3537 -0.2643 -0.2161
  615MOL0     C82938   6.782   0.718   8.334 -0.2829 -0.4179 -1.0241
  615MOL0     C82939   6.759   0.622   8.435  0.3693 -0.7279  0.1830
  615MOL0     N82940   6.682   0.900   8.948 -0.8761 -0.3743  0.5199
  615MOL0     N82941   6.628   1.019   8.960 -0.0548 -0.6697  1.5323
  615MOL0     C82942   5.927   2.213   8.982  1.0417 -0.6790 -0.5459
  615MOL0     C82943   5.906   2.351   8.973 -0.2235 -0.6297  0.1166
  615MOL0     C82944   6.019   2.769   8.848  0.0413  1.2444 -1.4651
  615MOL0     C82945   5.928   2.840   8.943 -0.7855 -0.0097  0.2946
  615MOL0     C82946   5.889   2.974   8.922 -0.3676  1.0066  0.2697
  615MOL0     C82947   5.966   3.048   8.829  0.7974 -0.7431  0.6575
  615MOL0     O82948   5.949   3.193   8.823 -0.0246  0.0642 -0.1233
  615MOL0     C82949   5.886   3.259   8.937 -0.2864 -0.3784 -0.3080
  615MOL0     C82950   6.012   3.331   8.993  0.0542  0.6000 -0.6579
  615MOL0     C82951   6.078   3.445   8.916 -0.9314  0.1569 -0.5548
  615MOL0     C82952   6.169   3.533   9.014  0.0781 -0.0476 -0.1840
  615MOL0     C82953   6.098   3.611   9.117  0.2506 -0.5019  0.5039
  615MOL0     C82954   6.056   3.678   9.209  0.4462 -0.6837  0.3610
  615MOL0     C82955   6.046   2.986   8.735 -0.4191 -0.7461 -1.1240
  615MOL0     C82956   6.068   2.848   8.742 -0.8680  0.5863  0.7678
  615MOL0     C82957   6.157   2.795   8.637 -0.4632 -0.7352 -0.5551
  615MOL0     H82958   6.209   2.439   9.109  3.4818 -1.3594 -4.4190
  615MOL0     H82959   6.228   2.209   9.148  1.2177 -0.0163 -1.2825
  615MOL0     H82960   6.246   1.985   9.038 -1.3044 -0.5129 -0.2553
  615MOL0     H82961   6.181   1.996   9.208  2.0891 -0.7483 -0.3884
  615MOL0     H82962   6.109   1.796   8.990  0.9179  1.1188  0.2341
  615MOL0     H82963   6.066   1.770   9.168 -0.0379  2.7649  1.3154
  615MOL0     H82964   6.331   1.728   9.174  3.9018 -3.0903 -2.8659
  615MOL0     H82965   6.306   1.736   9.002 -1.0095  3.3255 -0.8586
  615MOL0     H82966   6.180   1.553   9.228 -0.2349 -0.2321 -0.0628
  615MOL0     H82967   6.145   1.550   9.051 -0.9507  0.2178 -0.0616
  615MOL0     H82968   6.404   1.513   9.034 -0.6429  2.3601  1.0804
  615MOL0     H82969   6.423   1.497   9.198  0.8127  3.5934 -1.9908
  615MOL0     H82970   6.257   1.279   9.166  2.3018 -1.5061  2.2972
  615MOL0     H82971   6.261   1.335   9.000  2.0903 -0.8038 -1.4510
  615MOL0     H82972   6.506   1.222   9.134  3.0392  2.3282 -0.8504
  615MOL0     H82973   6.509   1.301   8.983  0.6558 -1.7433 -1.2216
  615MOL0     H82974   6.314   1.077   9.053  0.0756  1.0495  0.9304
  615MOL0     H82975   6.368   1.117   8.892 -1.2885  1.6136  0.3173
  615MOL0     H82976   6.391   0.846   9.091  0.0988  0.9857  1.8640
  615MOL0     H82977   6.693   0.669   9.139  0.3473 -2.0467  0.2179
  615MOL0     H82978   6.531   0.620   9.082 -0.5517  0.0024 -0.7654
  615MOL0     H82979   6.786   0.618   8.920 -0.0706 -2.1985 -1.9012
  615MOL0     H82980   6.666   0.486   8.966  0.4734 -0.1494 -1.3812
  615MOL0     H82981   6.638   0.715   8.764  0.0031  1.4003  1.3997
  615MOL0     H82982   6.503   0.602   8.810  0.5930 -0.0722  0.0276
  615MOL0     H82983   6.676   0.408   8.742  1.0304 -0.3179 -2.0472
  615MOL0     H82984   6.774   0.540   8.679 -0.9054  0.5969 -0.7854
  615MOL0     H82985   6.426   0.702   8.496 -0.5724 -0.7980 -1.4487
  615MOL0     H82986   6.460   0.841   8.312 -0.9525  0.8636  0.1315
  615MOL0     H82987   6.690   0.955   7.897  0.4252 -2.6037  1.2295
  615MOL0     H82988   6.818   1.075   7.712 -1.0243  1.6925  0.2956
  615MOL0     H82989   7.133   1.307   7.854  0.6960 -0.1336 -0.7697
  615MOL0     H82990   7.262   1.237   7.765  0.9034  3.3034  3.8713
  615MOL0     H82991   7.247   1.436   7.678 -2.8826  3.6060 -0.9133
  615MOL0     H82992   7.156   1.342   7.562 -0.9228  0.0791 -0.2830
  615MOL0     H82993   7.031   1.524   7.579  2.5384 -1.0596 -0.4886
  615MOL0     H82994   6.944   1.400   7.683 -0.2621 -0.1182  3.6753
  615MOL0     H82995   7.074   1.514   7.879 -0.7106  0.8367  1.1398
  615MOL0     H82996   6.930   1.607   7.812 -0.3841  0.2373  0.4375
  615MOL0     H82997   7.187   1.687   7.694  0.6560 -0.5530  0.7844
  615MOL0     H82998   7.155   1.736   7.856 -0.8363  0.9896  0.6897
  615MOL0     H82999   6.947   1.762   7.642  0.8483  0.9393 -1.0750
  615MOL0     H83000   6.951   1.842   7.795 -1.0980 -0.2185 -0.6002
  615MOL0     H83001   7.180   1.889   7.589  1.3127  1.8079 -1.9962
  615MOL0     H83002   7.121   1.986   7.734 -2.8719 -0.0491  0.8672
  615MOL0     H83003   7.071   2.085   7.512 -0.1399  0.6645 -0.4466
  615MOL0     H83004   6.985   1.945   7.467  2.6484  4.0878 -4.2774
  615MOL0     H83005   7.164   1.091   7.960  0.3588 -1.1778  0.7594
  615MOL0     H83006   7.042   0.971   8.147 -1.3359  1.6761  2.1312
  615MOL0     H83007   6.886   0.728   8.305  0.4128  0.0332  1.4309
  615MOL0     H83008   6.842   0.558   8.465 -0.1977 -1.1700  0.8520
  615MOL0     H83009   5.845   2.142   8.975  2.5618 -2.8276  1.8574
  615MOL0     H83010   5.810   2.384   8.934 -0.5165  2.3957  2.9657
  615MOL0     H83011   5.892   2.796   9.035  1.4693 -0.1468  1.1892
  615MOL0     H83012   5.810   3.008   8.988 -1.1655 -1.1061  0.4619
  615MOL0     H83013   5.843   3.197   9.017 -0.5522 -1.2791 -1.1271
  615MOL0     H83014   5.801   3.324   8.913  1.4938  4.2057  3.9990
  615MOL0     H83015   6.081   3.247   8.986  0.5757  0.8803  0.8548
  615MOL0     H83016   5.996   3.357   9.098 -1.0100  0.7031 -0.8250
  615MOL0     H83017   5.994   3.513   8.895 -1.3099  0.4902  1.7822
  615MOL0     H83018   6.127   3.410   8.825 -0.6199  2.3461 -1.2813
  615MOL0     H83019   6.234   3.461   9.065  0.6598  0.0784 -0.7376
  615MOL0     H83020   6.231   3.590   8.945  0.8294  0.1891  0.6622
  615MOL0     H83021   6.021   3.728   9.298 -0.1479 -1.7220  0.7234
  615MOL0     H83022   6.109   3.054   8.677  2.8407 -0.7921  2.0343
  615MOL0     H83023   6.184   2.879   8.571 -0.4237 -0.9050 -0.7583
  615MOL0     H83024   6.244   2.755   8.689  0.1227  1.2030  0.0535
  615MOL0     H83025   6.100   2.724   8.576 -0.6014  0.8898 -2.4199
  616MOL0     O83026   4.477   8.346   9.023  0.1631 -0.4716  0.3323
  616MOL0     C83027   4.392   8.427   9.052 -0.4742 -0.4806  0.0954
  616MOL0     O83028   4.306   8.486   8.959 -0.5342 -0.3401  0.0689
  616MOL0     C83029   4.335   8.485   8.829 -0.9977 -0.7927 -0.3406
  616MOL0     C83030   4.277   8.393   8.744  0.3070  1.3322  1.1753
  616MOL0     C83031   4.324   8.374   8.614 -1.5847  0.1508  0.0180
  616MOL0     C83032   4.426   8.455   8.559  0.1777 -0.8876 -0.0741
  616MOL0     O83033   4.470   8.478   8.431  0.4982  0.0390  0.2923
  616MOL0     C83034   4.422   8.396   8.326 -0.6471  0.3385  1.1977
  616MOL0     C83035   4.462   8.437   8.180  0.3392  0.5311 -0.7830
  616MOL0     C83036   4.421   8.326   8.080 -0.1693 -1.5512 -0.9559
  616MOL0     C83037   4.485   8.378   7.944  0.3361  0.4867 -0.8696
  616MOL0     C83038   4.383   8.425   7.834  0.2805 -1.5792  0.5987
  616MOL0     C83039   4.473   8.476   7.702  1.0997  0.6517  0.1862
  616MOL0     C83040   4.386   8.545   7.594  0.2148 -0.3323  0.4778
  616MOL0     C83041   4.478   8.569   7.476 -0.0318 -0.3256 -1.1103
  616MOL0     N83042   4.519   8.458   7.386 -0.3647 -0.0927  0.0257
  616MOL0     C83043   4.472   8.433   7.264 -0.6432  0.5081  0.3026
  616MOL0     C83044   4.549   8.333   7.218 -0.6564 -0.4090  0.5917
  616MOL0     C83045   4.528   8.261   7.082  0.0705  0.0282  0.3484
  616MOL0     C83046   4.604   8.335   6.967  0.5146 -0.1215 -0.4199
  616MOL0     C83047   4.736   8.272   6.920  0.1045 -0.6118  0.5229
  616MOL0     C83048   4.846   8.277   7.015 -0.2053  0.0544  0.5471
  616MOL0     O83049   4.867   8.405   7.079  0.4990 -0.0268  0.2555
  616MOL0     C83050   4.967   8.406   7.172  0.2547 -0.6238 -0.5742
  616MOL0     C83051   5.062   8.309   7.190 -0.3297  0.9536 -0.6874
  616MOL0     C83052   5.154   8.308   7.301 -0.0202  0.4402 -0.6228
  616MOL0     C83053   5.154   8.412   7.399  0.1230  1.1816  0.3856
  616MOL0     C83054   5.261   8.427   7.511  0.2147  0.8953  0.1516
  616MOL0     O83055   5.251   8.529   7.593 -0.5042 -1.1531 -0.4910
  616MOL0     C83056   5.337   8.547   7.703  0.1393 -0.5227  0.5416
  616MOL0     C83057   5.478   8.523   7.699  0.6387  0.6731 -0.5911
  616MOL0     C83058   5.558   8.561   7.814  0.0207 -0.5495  0.2306
  616MOL0     C83059   5.500   8.622   7.924 -0.5561  0.2568  0.1095
  616MOL0     O83060   5.566   8.663   8.047  0.2292  0.4717  1.3762
  616MOL0     C83061   5.693   8.606   8.065 -0.0677  0.6925  0.1847
  616MOL0     C83062   5.738   8.633   8.206 -0.2566  0.7928  0.5077
  616MOL0     C83063   5.873   8.578   8.238  0.5748  0.1011 -0.1826
  616MOL0     C83064   5.898   8.596   8.379 -0.3923 -0.4815 -0.3857
  616MOL0     C83065   6.032   8.531   8.419 -0.1418  1.3126  0.9884
  616MOL0     C83066   6.100   8.584   8.553 -0.4760 -0.5267  1.0409
  616MOL0     C83067   6.172   8.723   8.546  0.2862  0.4306 -0.0984
  616MOL0     C83068   6.239   8.759   8.669  0.7109 -1.2430  0.9174
  616MOL0    Cl83069   6.143   8.733   8.822 -0.0008  0.4045  0.1290
  616MOL0     C83070   5.354   8.636   7.929 -0.4931 -0.7484  0.0042
  616MOL0     C83071   5.276   8.607   7.813  0.3048  0.7882  0.3262
  616MOL0     O83072   5.349   8.345   7.500 -0.9628  0.1790  0.0820
  616MOL0     C83073   5.053   8.507   7.378 -0.1081 -0.1923  0.5116
  616MOL0     C83074   4.983   8.508   7.262  0.5496 -0.3738  0.5907
  616MOL0     N83075   4.646   8.296   7.307  0.0388  0.1053 -0.4134
  616MOL0     N83076   4.633   8.383   7.403 -0.9249  0.2104 -0.8801
  616MOL0     C83077   4.474   8.558   8.640  0.7892  0.5346 -0.1191
  616MOL0     C83078   4.423   8.572   8.775 -0.7111  0.4355 -0.4307
  616MOL0     C83079   4.371   8.477   9.194 -0.5391 -0.8632  0.6850
  616MOL0     C83080   4.307   8.600   9.210  0.0429  0.7600 -1.1800
  616MOL0     C83081   4.274   8.653   9.337  0.1017  0.0836  0.1963
  616MOL0     C83082   4.305   8.588   9.453 -0.5704  0.8124 -0.1537
  616MOL0     O83083   4.273   8.640   9.574 -0.3266  0.4739 -0.0997
  616MOL0     C83084   4.356   8.619   9.688 -0.2119  0.0579 -0.0004
  616MOL0     C83085   4.320   8.707   9.816  0.2404 -0.6872 -0.2397
  616MOL0     C83086   4.173   8.713   9.838  1.0514 -0.4970 -0.5769
  616MOL0     C83087   4.122   8.825   9.938 -0.1094 -0.6427 -0.4123
  616MOL0     C83088   3.981   8.858   9.926  0.0600 -0.1799 -0.0004
  616MOL0     C83089   3.855   8.889   9.916  0.9603  0.2543 -0.6782
  616MOL0     C83090   4.378   8.469   9.436 -0.0853  0.6488  0.5371
  616MOL0     C83091   4.400   8.406   9.304  1.1095 -0.4582 -0.4464
  616MOL0     C83092   4.470   8.278   9.301  0.3005 -0.1850  0.4512
  616MOL0     H83093   4.193   8.330   8.771 -1.9482  3.0434 -1.2912
  616MOL0     H83094   4.290   8.295   8.548  0.2403 -1.6892  1.1775
  616MOL0     H83095   4.466   8.297   8.342  0.3837  0.7131  0.7780
  616MOL0     H83096   4.314   8.405   8.319 -0.8625 -2.4735 -0.8752
  616MOL0     H83097   4.571   8.447   8.186  0.2223  1.1167  0.6266
  616MOL0     H83098   4.413   8.534   8.166  2.4171  2.2892  2.7279
  616MOL0     H83099   4.312   8.317   8.078 -0.2666 -1.0602  0.6326
  616MOL0     H83100   4.471   8.234   8.114  1.2940  0.3333  2.5440
  616MOL0     H83101   4.576   8.438   7.954 -0.4260  1.8816 -1.9966
  616MOL0     H83102   4.527   8.283   7.909  4.6318  2.1374 -0.7818
  616MOL0     H83103   4.309   8.348   7.806  0.7441 -2.9208  2.7941
  616MOL0     H83104   4.323   8.509   7.869 -0.0440 -2.1699  1.5172
  616MOL0     H83105   4.545   8.542   7.750  0.3189  2.6406 -1.2634
  616MOL0     H83106   4.516   8.381   7.668  1.0346  0.2404  1.1973
  616MOL0     H83107   4.348   8.641   7.631  1.4685  1.7102 -3.0053
  616MOL0     H83108   4.300   8.482   7.570 -1.9844  2.2560  1.0494
  616MOL0     H83109   4.435   8.650   7.416  1.6445 -0.3936 -2.4929
  616MOL0     H83110   4.569   8.616   7.515 -2.6668  4.1567  0.3388
  616MOL0     H83111   4.376   8.461   7.221 -0.9389 -2.2748 -1.1582
  616MOL0     H83112   4.573   8.162   7.095 -1.0008 -0.9340 -2.4204
  616MOL0     H83113   4.424   8.243   7.052 -0.6244 -1.6904  3.3949
  616MOL0     H83114   4.532   8.334   6.884 -0.5547  2.3077  0.3960
  616MOL0     H83115   4.618   8.438   7.000 -1.8498  1.4180 -3.5956
  616MOL0     H83116   4.772   8.320   6.829  0.2855  1.3983  1.6056
  616MOL0     H83117   4.715   8.165   6.904  0.3089 -0.7134  0.9238
  616MOL0     H83118   4.936   8.246   6.962 -0.3574  0.0460  0.2915
  616MOL0     H83119   4.814   8.202   7.089  2.1271 -2.7712 -1.1122
  616MOL0     H83120   5.078   8.229   7.119 -1.8362 -0.4294  0.4637
  616MOL0     H83121   5.215   8.218   7.300 -1.2893 -0.4361 -0.5527
  616MOL0     H83122   5.526   8.485   7.610  0.9980  1.7092 -0.8599
  616MOL0     H83123   5.666   8.545   7.811  0.6664  2.8509  1.2049
  616MOL0     H83124   5.682   8.497   8.067  1.7876  0.4765  0.9584
  616MOL0     H83125   5.764   8.637   7.987  1.2859  1.3582  1.6152
  616MOL0     H83126   5.731   8.739   8.231  1.2785  0.9143  0.4937
  616MOL0     H83127   5.671   8.577   8.272 -2.0040  1.4618 -0.6289
  616MOL0     H83128   5.880   8.473   8.209 -1.3342 -0.4706  1.2021
  616MOL0     H83129   5.945   8.642   8.185  0.4558 -2.1127 -3.2997
  616MOL0     H83130   5.822   8.547   8.441 -0.3129 -2.8485 -2.0195
  616MOL0     H83131   5.906   8.700   8.412  0.0725 -0.1663 -1.4780
  616MOL0     H83132   6.102   8.565   8.342 -2.9789  2.6315 -1.2084
  616MOL0     H83133   6.024   8.422   8.412 -1.3608  1.4349  0.0665
  616MOL0     H83134   6.018   8.596   8.625 -1.0674  0.8371  0.1610
  616MOL0     H83135   6.177   8.514   8.585  2.0785  0.5542 -2.1862
  616MOL0     H83136   6.100   8.804   8.529  1.2494  1.1993 -0.6088
  616MOL0     H83137   6.248   8.720   8.467  0.5173 -1.7154  0.1652
  616MOL0     H83138   6.332   8.702   8.683  1.6571  0.5179  2.0851
  616MOL0     H83139   6.277   8.860   8.650  1.5438 -1.7056 -0.0413
  616MOL0     H83140   5.295   8.678   8.009 -0.2385  0.9408 -0.6398
  616MOL0     H83141   5.172   8.640   7.817  0.0717  0.2029 -0.5373
  616MOL0     H83142   5.030   8.582   7.452 -0.0251  2.5069 -2.0164
  616MOL0     H83143   4.916   8.593   7.259 -0.4484 -0.9233  3.5749
  616MOL0     H83144   4.554   8.624   8.609 -1.6287  2.9651 -1.6502
  616MOL0     H83145   4.461   8.652   8.839  0.7301  0.2525 -1.0159
  616MOL0     H83146   4.299   8.673   9.130  0.5684  1.1288 -0.8974
  616MOL0     H83147   4.221   8.748   9.330 -1.7297 -0.9193 -0.0278
  616MOL0     H83148   4.456   8.650   9.656 -0.8708  2.7176  0.2287
  616MOL0     H83149   4.368   8.517   9.725 -0.8698  0.1781  0.5581
  616MOL0     H83150   4.360   8.808   9.801 -0.0031 -0.7407 -1.3401
  616MOL0     H83151   4.374   8.675   9.905  1.2676 -0.6977 -0.8496
  616MOL0     H83152   4.161   8.613   9.882 -0.8602 -0.0877 -0.0863
  616MOL0     H83153   4.122   8.710   9.742  3.8772 -0.3708 -2.2055
  616MOL0     H83154   4.133   8.792  10.041  1.3632  0.9252 -0.0150
  616MOL0     H83155   4.191   8.908   9.922 -0.5044 -0.6632 -2.5706
  616MOL0     H83156   3.751   8.913   9.907  0.9394 -0.0412 -1.3522
  616MOL0     H83157   4.418   8.410   9.517  1.9506  1.6568  0.3256
  616MOL0     H83158   4.493   8.241   9.401  1.6817 -4.1401 -1.1247
  616MOL0     H83159   4.427   8.194   9.246 -0.9445  0.2730  0.6951
  616MOL0     H83160   4.565   8.298   9.249  0.9302 -2.1796  0.7472
  617MOL0     O83161   8.292  10.495   9.697 -0.3940 -0.2667  0.1924
  617MOL0     C83162   8.211  10.559   9.765 -0.3542 -0.0209  0.3093
  617MOL0     O83163   8.236  10.689   9.820  0.4413 -0.7834  0.0834
  617MOL0     C83164   8.360  10.744   9.811 -0.5429 -0.1545  0.3921
  617MOL0     C83165   8.479  10.676   9.845  0.0455  0.4665 -1.0372
  617MOL0     C83166   8.615  10.725   9.830  0.7290  0.0936 -0.3412
  617MOL0     C83167   8.628  10.856   9.767 -0.4018 -0.4277  0.0828
  617MOL0     O83168   8.754  10.912   9.749 -0.2917  0.2075  0.4826
  617MOL0     C83169   8.850  10.894   9.859 -0.3977  1.2043  0.0278
  617MOL0     C83170   8.997  10.901   9.817 -0.5261 -0.5228 -0.0502
  617MOL0     C83171   9.056  10.774   9.748  0.0235  0.0065 -0.1922
  617MOL0     C83172   9.007  10.753   9.612 -1.1115 -0.2224  0.4802
  617MOL0     C83173   9.076  10.632   9.545  0.2345  0.0995  0.1292
  617MOL0     C83174   9.031  10.595   9.397  0.4429 -0.0944 -0.9812
  617MOL0     C83175   9.125  10.508   9.321 -0.0551 -0.1926  0.3514
  617MOL0     C83176   9.081  10.492   9.174 -0.5238  1.1398  0.0113
  617MOL0     N83177   9.126  10.359   9.113 -0.4395 -0.5577 -0.9271
  617MOL0     C83178   9.252  10.321   9.115 -0.4359  0.0893  1.2526
  617MOL0     C83179   9.243  10.184   9.102  0.5898  0.0059 -0.4212
  617MOL0     C83180   9.351  10.090   9.141 -0.1836 -0.3306  0.6205
  617MOL0     C83181   9.319  10.027   9.274  0.6566  0.6602  0.1573
  617MOL0     C83182   9.370  10.115   9.391  0.1694 -0.0309  0.6400
  617MOL0     C83183   9.351  10.036   9.521 -0.4627  0.0820 -0.0500
  617MOL0     O83184   9.415  10.111   9.624 -0.5592 -0.1973 -0.2085
  617MOL0     C83185   9.344  10.200   9.710  0.0791  0.1104 -0.8502
  617MOL0     C83186   9.198  10.217   9.710 -0.5085  0.1457 -0.2520
  617MOL0     C83187   9.146  10.309   9.799 -0.8076  0.5938 -1.4364
  617MOL0     C83188   9.224  10.370   9.902  0.4439 -0.2571 -0.8203
  617MOL0     C83189   9.164  10.467  10.006 -0.1050  0.9073  0.2638
  617MOL0     O83190   9.028  10.478  10.001 -0.1963 -0.1251 -0.5960
  617MOL0     C83191   8.964  10.581  10.072  0.0049  0.0422  0.8299
  617MOL0     C83192   8.828  10.558  10.098 -0.1168 -0.0204  0.5449
  617MOL0     C83193   8.747  10.652  10.165  0.1771 -0.7512 -0.5844
  617MOL0     C83194   8.796  10.771  10.216 -0.3850  0.3112 -0.7661
  617MOL0     O83195   8.723  10.867  10.275  0.0857  0.3818  0.0162
  617MOL0     C83196   8.658  10.817  10.394 -0.0418 -0.4629 -0.7940
  617MOL0     C83197   8.746  10.798  10.517  0.0325  0.7537 -0.1530
  617MOL0     C83198   8.792  10.922  10.583 -0.1411 -0.3262  0.3125
  617MOL0     C83199   8.928  10.904  10.655 -0.0250 -1.4481 -0.2017
  617MOL0     C83200   8.954  11.042  10.723 -0.0334 -0.5458 -0.1588
  617MOL0     C83201   9.087  11.053  10.796 -0.2554 -0.4255  0.9828
  617MOL0     C83202   9.098  10.974  10.923  0.5964 -0.3507 -0.1539
  617MOL0     C83203   9.211  11.026  11.007 -1.1107 -0.5922 -0.3449
  617MOL0    Cl83204   9.359  10.947  10.956 -0.2895 -0.6707  0.3692
  617MOL0     C83205   8.937  10.798  10.204 -0.5235  0.2277  0.2464
  617MOL0     C83206   9.018  10.704  10.132  0.2108 -0.0059  1.0626
  617MOL0     O83207   9.237  10.526  10.086 -0.4710  0.2505 -0.0472
  617MOL0     C83208   9.356  10.338   9.903  0.3731 -0.5596 -0.0378
  617MOL0     C83209   9.421  10.257   9.815 -0.0600  0.9467 -0.3843
  617MOL0     N83210   9.111  10.148   9.086  0.0874 -0.0752 -0.1820
  617MOL0     N83211   9.042  10.255   9.099 -0.5040 -0.0361 -0.1065
  617MOL0     C83212   8.505  10.917   9.716 -1.0513  0.2402 -0.3956
  617MOL0     C83213   8.380  10.872   9.754  0.0926  0.4998  0.0501
  617MOL0     C83214   8.072  10.507   9.794  0.5508 -0.1762  0.9123
  617MOL0     C83215   7.976  10.603   9.825 -0.5620  0.3054 -0.2565
  617MOL0     C83216   7.843  10.568   9.839  0.6679  0.4071  0.7421
  617MOL0     C83217   7.799  10.430   9.829 -0.7092  0.1385  0.1318
  617MOL0     O83218   7.668  10.406   9.851 -0.4059  0.4642  0.4039
  617MOL0     C83219   7.604  10.280   9.793  0.8302 -1.7124 -0.3807
  617MOL0     C83220   7.447  10.316   9.781 -0.9766  0.2151  0.8416
  617MOL0     C83221   7.369  10.367   9.906  1.0032 -0.1602 -1.4713
  617MOL0     C83222   7.265  10.462   9.854 -0.0794  0.2124  0.0761
  617MOL0     C83223   7.328  10.589   9.827  0.1884  0.8343  0.1884
  617MOL0     C83224   7.383  10.689   9.789 -0.4688 -0.5297 -0.1317
  617MOL0     C83225   7.904  10.333   9.814  0.4074 -0.0606 -1.0226
  617MOL0     C83226   8.041  10.370   9.803 -1.1187 -0.4076  0.5758
  617MOL0     C83227   8.140  10.256   9.802 -1.3021  1.1685  0.3390
  617MOL0     H83228   8.460  10.584   9.899 -0.3672  0.7392 -0.7084
  617MOL0     H83229   8.698  10.664   9.863 -0.6891 -2.5841 -1.3500
  617MOL0     H83230   8.816  10.965   9.934  0.4180 -2.4197  4.3322
  617MOL0     H83231   8.850  10.791   9.897 -1.3689  0.6818 -1.3138
  617MOL0     H83232   9.053  10.921   9.908 -0.1820 -1.1554 -0.1231
  617MOL0     H83233   8.999  10.984   9.745  0.8374  0.5808  1.2045
  617MOL0     H83234   9.029  10.685   9.807 -1.1381 -0.6083 -1.5786
  617MOL0     H83235   9.164  10.789   9.752 -0.3116  2.8061  4.1610
  617MOL0     H83236   8.906  10.713   9.622 -0.6269 -1.4087  0.8051
  617MOL0     H83237   9.010  10.842   9.548  3.2561 -0.8734 -0.5651
  617MOL0     H83238   9.182  10.657   9.539  0.2638 -0.4040 -2.6421
  617MOL0     H83239   9.061  10.541   9.604  1.2707 -1.0111 -1.2585
  617MOL0     H83240   8.934  10.544   9.401 -0.4541  1.5529 -0.8443
  617MOL0     H83241   9.008  10.691   9.350  1.4119  0.5169 -0.2677
  617MOL0     H83242   9.120  10.412   9.373 -0.0012  0.5039  1.6883
  617MOL0     H83243   9.220  10.562   9.327 -0.6358  0.6819  3.2181
  617MOL0     H83244   8.973  10.501   9.185 -0.1460  2.8683  5.2694
  617MOL0     H83245   9.111  10.582   9.121 -1.1757  1.5019  0.2461
  617MOL0     H83246   9.340  10.383   9.135 -0.1711 -0.3552  1.4741
  617MOL0     H83247   9.371  10.018   9.061  0.4559 -2.2526  2.4110
  617MOL0     H83248   9.438  10.155   9.142  0.4490 -1.0776  3.2658
  617MOL0     H83249   9.210  10.017   9.279  0.4754  2.7759  2.0629
  617MOL0     H83250   9.371   9.930   9.277  0.2173  0.4023 -0.2966
  617MOL0     H83251   9.319  10.212   9.392  1.3117  0.7086 -2.4078
  617MOL0     H83252   9.475  10.139   9.372  0.4559 -1.0351  0.9139
  617MOL0     H83253   9.391   9.934   9.518  0.3276  0.2445  2.5311
  617MOL0     H83254   9.243  10.021   9.532 -0.7683  1.7486 -0.4154
  617MOL0     H83255   9.131  10.169   9.638  0.1246 -0.8248 -0.2223
  617MOL0     H83256   9.038  10.306   9.808 -0.6222  0.1752  1.4508
  617MOL0     H83257   8.768  10.471  10.074  0.1855  0.0100 -0.3710
  617MOL0     H83258   8.645  10.621  10.185  1.1705 -1.7633  4.0401
  617MOL0     H83259   8.580  10.891  10.413 -1.7745 -2.6698  1.4645
  617MOL0     H83260   8.610  10.722  10.370  1.8629 -2.0866  1.3955
  617MOL0     H83261   8.686  10.738  10.586  1.6531 -0.7578  0.0177
  617MOL0     H83262   8.829  10.732  10.489  1.6008  1.7287  1.9564
  617MOL0     H83263   8.812  10.996  10.505 -0.1033 -0.3188  0.3291
  617MOL0     H83264   8.709  10.958  10.645 -0.3171 -0.8557  0.3897
  617MOL0     H83265   9.015  10.878  10.595  2.1483  3.5194  0.2502
  617MOL0     H83266   8.925  10.828  10.733  1.4400 -2.6085 -1.2281
  617MOL0     H83267   8.874  11.053  10.797  0.5782  1.9247  0.2154
  617MOL0     H83268   8.945  11.122  10.650  1.8054  0.3334  0.5300
  617MOL0     H83269   9.166  11.014  10.732 -0.6633 -2.3105  1.5732
  617MOL0     H83270   9.097  11.160  10.819 -1.0153 -0.3206  0.8727
  617MOL0     H83271   9.109  10.869  10.896 -0.6579 -0.6810  0.5343
  617MOL0     H83272   9.007  10.985  10.983  2.5741  1.3080  2.8082
  617MOL0     H83273   9.214  11.135  11.002 -2.1630 -0.4047  1.8640
  617MOL0     H83274   9.201  10.999  11.113  0.9548  4.1596  1.3705
  617MOL0     H83275   8.986  10.879  10.257  3.4126 -2.8107  1.8086
  617MOL0     H83276   9.125  10.723  10.130  0.3540 -0.6629 -1.6158
  617MOL0     H83277   9.420  10.382   9.979  0.6771 -0.2272 -0.4816
  617MOL0     H83278   9.523  10.222   9.814 -0.0422  0.9038  1.1689
  617MOL0     H83279   8.514  11.012   9.665 -0.2077 -0.2391 -1.1658
  617MOL0     H83280   8.292  10.935   9.740 -2.1823 -3.0992 -4.2123
  617MOL0     H83281   7.991  10.710   9.812 -2.0790  0.8871  2.1568
  617MOL0     H83282   7.774  10.648   9.862 -0.9363  0.0945 -2.4535
  617MOL0     H83283   7.622  10.200   9.864 -0.8869  1.6726  4.3641
  617MOL0     H83284   7.646  10.246   9.698  0.6086 -0.4306 -0.9643
  617MOL0     H83285   7.370  10.246   9.747 -3.1201  1.7797  2.1487
  617MOL0     H83286   7.454  10.387   9.698 -0.6864  0.3228  0.9558
  617MOL0     H83287   7.430  10.418   9.981  1.5327 -0.8963 -1.3890
  617MOL0     H83288   7.304  10.287   9.942 -1.6429  0.9694 -3.4253
  617MOL0     H83289   7.224  10.428   9.758 -4.7418 -0.4981  2.0307
  617MOL0     H83290   7.186  10.468   9.930  1.4000 -2.6219  2.0055
  617MOL0     H83291   7.423  10.788   9.785 -3.2660  0.9046  2.3461
  617MOL0     H83292   7.873  10.231   9.832 -0.2286  0.4331  0.8705
  617MOL0     H83293   8.199  10.251   9.711 -1.6129 -3.6885  0.1263
  617MOL0     H83294   8.206  10.239   9.888  0.0648  1.1849 -0.6745
  617MOL0     H83295   8.096  10.156   9.791  1.3360  0.1567 -1.9489
  618MOL0     O83296   7.554   2.250   2.743 -0.3729  0.2683  0.2196
  618MOL0     C83297   7.498   2.156   2.687  0.2381 -0.6760  0.4524
  618MOL0     O83298   7.539   2.023   2.715 -0.6324 -0.3413  0.0294
  618MOL0     C83299   7.649   2.014   2.796 -0.1687  0.8107  0.2012
  618MOL0     C83300   7.651   1.975   2.931 -0.1946 -0.0538 -0.0433
  618MOL0     C83301   7.777   1.943   2.991 -0.2024 -0.6072  0.2110
  618MOL0     C83302   7.902   1.965   2.918 -0.0737 -1.4084 -0.0143
  618MOL0     O83303   8.034   1.948   2.970  0.6548  0.5109  0.2533
  618MOL0     C83304   8.050   1.840   3.065  0.2703  0.1169  0.3972
  618MOL0     C83305   8.198   1.784   3.068 -0.1525 -0.6510 -0.0160
  618MOL0     C83306   8.217   1.724   2.933 -0.3990  0.3547 -0.0714
  618MOL0     C83307   8.356   1.662   2.953  1.8404 -0.6559 -1.5526
  618MOL0     C83308   8.405   1.607   2.820 -0.5289 -0.6307 -0.9262
  618MOL0     C83309   8.493   1.715   2.749  0.2047 -0.4271 -0.2481
  618MOL0     C83310   8.575   1.679   2.630  0.3694  0.4643 -0.2581
  618MOL0     C83311   8.712   1.608   2.673 -1.0327  0.5272 -0.0046
  618MOL0     N83312   8.805   1.587   2.568 -0.0899 -0.4229 -0.2040
  618MOL0     C83313   8.762   1.580   2.435  0.1794  0.5319 -0.7834
  618MOL0     C83314   8.879   1.565   2.365  0.1836 -0.0148  0.1237
  618MOL0     C83315   8.897   1.574   2.213  0.1005 -0.7964  0.0858
  618MOL0     C83316   9.004   1.483   2.160  0.3455 -0.2586  0.6709
  618MOL0     C83317   9.040   1.507   2.014  0.7738  0.1832  0.1383
  618MOL0     C83318   9.071   1.383   1.933 -0.1671 -0.6006  0.0056
  618MOL0     O83319   8.972   1.287   1.932  0.9191  1.0333  0.0395
  618MOL0     C83320   8.969   1.209   1.817 -0.6018 -0.2745 -0.4459
  618MOL0     C83321   9.059   1.219   1.704 -0.3270 -0.6676  0.8593
  618MOL0     C83322   9.026   1.167   1.587  0.4277 -0.0954  0.5345
  618MOL0     C83323   8.907   1.090   1.567 -0.6141 -0.5663 -0.1998
  618MOL0     C83324   8.865   1.033   1.440  0.2209 -0.2808 -0.0525
  618MOL0     O83325   8.753   0.956   1.434 -0.0333  0.0035 -0.3682
  618MOL0     C83326   8.701   0.893   1.322  0.3182  0.2844  0.2720
  618MOL0     C83327   8.612   0.780   1.339 -0.4851 -0.3567 -0.0268
  618MOL0     C83328   8.553   0.710   1.230 -0.2570 -0.4017 -0.8450
  618MOL0     C83329   8.573   0.763   1.102 -0.8138 -0.5592  0.2947
  618MOL0     O83330   8.501   0.711   0.998 -0.5212 -0.0734  0.0637
  618MOL0     C83331   8.571   0.607   0.931 -0.0740  0.9592 -0.5466
  618MOL0     C83332   8.490   0.559   0.814 -0.4152 -0.0931  0.1084
  618MOL0     C83333   8.451   0.669   0.717 -0.0397 -0.1086  0.3554
  618MOL0     C83334   8.389   0.616   0.587 -0.6079 -0.4161 -0.5138
  618MOL0     C83335   8.395   0.722   0.477  0.6777  0.3501  0.7039
  618MOL0     C83336   8.333   0.666   0.338  0.1156  0.0700 -0.2338
  618MOL0     C83337   8.189   0.615   0.351  0.2136 -0.1698 -0.7272
  618MOL0     C83338   8.121   0.624   0.216  0.3922  0.0464 -0.0571
  618MOL0    Cl83339   8.187   0.507   0.106  0.1861 -0.2400 -0.2554
  618MOL0     C83340   8.655   0.871   1.083  0.3529 -0.0283  0.1850
  618MOL0     C83341   8.719   0.933   1.186  0.2448 -0.1333 -0.4294
  618MOL0     O83342   8.940   1.053   1.342  0.0035 -0.1489  0.7635
  618MOL0     C83343   8.830   1.066   1.680  0.9432 -0.5039 -0.8249
  618MOL0     C83344   8.864   1.124   1.799  1.4350  0.4385  0.2779
  618MOL0     N83345   8.982   1.581   2.458 -0.2811 -0.2423  0.4033
  618MOL0     N83346   8.943   1.589   2.574  0.6225 -0.6342 -0.2769
  618MOL0     C83347   7.899   2.034   2.795 -0.2500  0.2108  0.4644
  618MOL0     C83348   7.772   2.042   2.735  0.0506  0.4225 -0.4936
  618MOL0     C83349   7.383   2.174   2.593  1.0894 -0.7196 -0.6664
  618MOL0     C83350   7.291   2.069   2.582 -1.6033 -0.2237  0.0444
  618MOL0     C83351   7.179   2.079   2.504  0.4216  0.4122  1.1295
  618MOL0     C83352   7.143   2.196   2.444  0.3208  0.0343  0.5884
  618MOL0     O83353   7.029   2.182   2.364 -0.5431 -0.6203  0.6406
  618MOL0     C83354   7.028   2.246   2.230 -0.5649 -0.7516 -1.3371
  618MOL0     C83355   7.091   2.156   2.120  0.0466  0.7853 -0.0497
  618MOL0     C83356   7.126   2.235   1.990  0.4206  0.1830 -0.5354
  618MOL0     C83357   6.993   2.274   1.923  0.3227  0.8017  0.0911
  618MOL0     C83358   6.949   2.158   1.845 -0.3552 -0.3613 -0.3290
  618MOL0     C83359   6.899   2.061   1.790 -0.2080 -1.3299  0.9121
  618MOL0     C83360   7.234   2.308   2.452  0.4665  0.8935 -0.1254
  618MOL0     C83361   7.351   2.296   2.530  0.1971 -0.6071  0.6541
  618MOL0     C83362   7.443   2.419   2.532 -0.1159 -0.3177  0.1948
  618MOL0     H83363   7.556   1.957   2.979 -0.6404  0.4251 -0.7302
  618MOL0     H83364   7.771   1.884   3.082 -0.8964 -1.9689 -0.6824
  618MOL0     H83365   8.035   1.879   3.166  1.0655  5.6974 -1.3025
  618MOL0     H83366   7.980   1.757   3.051 -1.7758  1.1436  3.4094
  618MOL0     H83367   8.194   1.707   3.146 -2.1482 -1.9490 -1.2831
  618MOL0     H83368   8.274   1.861   3.079  1.1316 -1.2228 -3.5838
  618MOL0     H83369   8.215   1.806   2.861 -1.5326 -0.4133 -0.9428
  618MOL0     H83370   8.145   1.646   2.907 -1.8502  1.8178 -0.6361
  618MOL0     H83371   8.420   1.744   2.987  1.6960 -0.6132 -1.3823
  618MOL0     H83372   8.352   1.580   3.026 -0.5061 -0.7500 -1.7231
  618MOL0     H83373   8.466   1.519   2.844  0.1035  0.3271  1.2793
  618MOL0     H83374   8.319   1.582   2.757 -2.3920  0.8760  0.8715
  618MOL0     H83375   8.429   1.798   2.720  0.2589 -0.7462 -1.3270
  618MOL0     H83376   8.564   1.762   2.818 -0.8322  0.3556  0.3084
  618MOL0     H83377   8.605   1.768   2.573 -0.6645 -0.2034 -1.9140
  618MOL0     H83378   8.520   1.608   2.567  1.9684 -1.1697  0.1160
  618MOL0     H83379   8.759   1.674   2.747  0.4955  1.6349 -1.8931
  618MOL0     H83380   8.689   1.513   2.722 -2.0166  0.2363 -0.9886
  618MOL0     H83381   8.665   1.576   2.387  0.2414 -2.3220 -0.8118
  618MOL0     H83382   8.809   1.541   2.156  0.5818  1.0320 -1.8730
  618MOL0     H83383   8.905   1.681   2.188 -2.8365 -1.0603 -2.6437
  618MOL0     H83384   9.102   1.502   2.205 -0.0426  0.0582  1.3788
  618MOL0     H83385   8.966   1.382   2.178  1.0735 -0.4486  1.2164
  618MOL0     H83386   9.124   1.576   2.002  0.2496  0.4892 -2.3697
  618MOL0     H83387   8.955   1.558   1.968  0.3710  0.5142  1.2152
  618MOL0     H83388   9.166   1.342   1.968 -0.3312 -2.6757 -1.7788
  618MOL0     H83389   9.092   1.424   1.834 -0.2457  1.0594  0.6425
  618MOL0     H83390   9.156   1.269   1.700 -0.6874 -0.0745 -1.7959
  618MOL0     H83391   9.094   1.185   1.505  0.9186 -0.2313  0.9084
  618MOL0     H83392   8.585   0.759   1.442  1.7952 -0.0830  0.6692
  618MOL0     H83393   8.475   0.637   1.247  0.3718 -0.4150  2.5961
  618MOL0     H83394   8.668   0.644   0.898  1.3312 -0.0013  2.1514
  618MOL0     H83395   8.597   0.523   0.996  3.3493  2.3955  0.1511
  618MOL0     H83396   8.552   0.489   0.757  0.3345 -0.0997  0.9189
  618MOL0     H83397   8.396   0.518   0.853 -1.4035  1.7357 -0.2111
  618MOL0     H83398   8.380   0.742   0.757  0.5475  1.6361 -1.6424
  618MOL0     H83399   8.543   0.723   0.695 -0.4738  0.6710  0.4213
  618MOL0     H83400   8.284   0.586   0.597 -0.8889  0.4593 -0.7108
  618MOL0     H83401   8.445   0.528   0.554  0.2977 -0.9324  2.1790
  618MOL0     H83402   8.500   0.748   0.459 -0.5870  3.3964 -4.3393
  618MOL0     H83403   8.334   0.811   0.492 -0.1473  0.4400 -2.4108
  618MOL0     H83404   8.333   0.744   0.262  0.3066 -0.7128 -1.0528
  618MOL0     H83405   8.399   0.587   0.301 -2.0382 -1.9350  0.0154
  618MOL0     H83406   8.138   0.665   0.434  2.7821 -2.0850  2.2076
  618MOL0     H83407   8.203   0.508   0.367 -2.7613 -0.4471  0.6347
  618MOL0     H83408   8.014   0.600   0.218  0.6606 -1.2078  0.1282
  618MOL0     H83409   8.124   0.723   0.170 -3.2090  0.3207  0.0249
  618MOL0     H83410   8.684   0.892   0.981  1.8571 -2.5470  0.0008
  618MOL0     H83411   8.787   1.010   1.149  0.4779  0.3839  0.9893
  618MOL0     H83412   8.740   1.008   1.664  1.9218 -2.7420  1.1168
  618MOL0     H83413   8.789   1.109   1.876 -1.5032  3.4014 -1.7749
  618MOL0     H83414   7.982   2.058   2.729 -2.3169  0.5414 -2.2010
  618MOL0     H83415   7.770   2.072   2.631 -1.7856  0.4393 -0.4822
  618MOL0     H83416   7.328   1.974   2.622  0.8407  0.5751 -0.1456
  618MOL0     H83417   7.118   1.991   2.489 -3.2349  2.8135  0.4669
  618MOL0     H83418   7.083   2.340   2.231 -2.8126  0.6976  1.3085
  618MOL0     H83419   6.925   2.269   2.202 -0.5896 -0.7362 -1.2330
  618MOL0     H83420   7.025   2.071   2.104 -4.3637  3.5045  1.7652
  618MOL0     H83421   7.193   2.123   2.143  1.3943  1.4276 -4.2700
  618MOL0     H83422   7.186   2.169   1.926  3.4926  2.3468 -0.1002
  618MOL0     H83423   7.186   2.318   2.029 -0.3291 -0.5128  2.3483
  618MOL0     H83424   6.913   2.315   1.986  0.4526  2.6072 -0.8385
  618MOL0     H83425   7.019   2.356   1.855 -1.2326  0.4498 -0.9976
  618MOL0     H83426   6.851   1.977   1.743  1.9707 -0.6029 -3.1150
  618MOL0     H83427   7.221   2.397   2.392 -2.8657 -0.3774 -1.5378
  618MOL0     H83428   7.427   2.474   2.625 -1.3405  1.0031 -0.7420
  618MOL0     H83429   7.548   2.394   2.519 -0.1335  0.2053 -1.1629
  618MOL0     H83430   7.421   2.493   2.454  0.2664 -1.0549 -0.6205
  619MOL0     O83431   7.970   6.700  10.015  0.3122 -0.2476  0.0300
  619MOL0     C83432   7.864   6.638  10.021  0.0181 -0.0107  0.3453
  619MOL0     O83433   7.804   6.591  10.137 -0.4917 -0.4751 -0.1084
  619MOL0     C83434   7.887   6.548  10.245  0.5816 -0.2242  0.2694
  619MOL0     C83435   8.020   6.532  10.237  0.9141  0.0171  0.4472
  619MOL0     C83436   8.094   6.521  10.351 -0.2179  0.1402  0.2378
  619MOL0     C83437   8.029   6.524  10.478 -0.2662 -0.0588 -0.1973
  619MOL0     O83438   8.105   6.523  10.593 -0.1858  0.1153 -0.0976
  619MOL0     C83439   8.243   6.477  10.587 -0.1529  0.5910 -0.2996
  619MOL0     C83440   8.301   6.476  10.729  0.4049 -0.2240  0.1360
  619MOL0     C83441   8.198   6.401  10.820 -0.2791 -0.1921  0.9853
  619MOL0     C83442   8.260   6.371  10.953 -0.5874 -0.3549 -0.1278
  619MOL0     C83443   8.335   6.241  10.958  0.3039  0.0035  0.4609
  619MOL0     C83444   8.335   6.183  11.098  0.6319  0.2504 -0.6198
  619MOL0     C83445   8.411   6.051  11.096 -0.2459  0.0271  0.2251
  619MOL0     C83446   8.390   5.964  11.220  1.0372 -0.2465 -0.0617
  619MOL0     N83447   8.453   6.017  11.335 -0.2634  0.4668 -0.1752
  619MOL0     C83448   8.380   6.085  11.437 -0.1642  0.2040 -0.0641
  619MOL0     C83449   8.475   6.096  11.535  0.4651 -0.2557  0.0113
  619MOL0     C83450   8.448   6.149  11.673 -0.2672 -0.6094  0.0470
  619MOL0     C83451   8.575   6.203  11.750  0.2657 -0.0854  0.1986
  619MOL0     C83452   8.627   6.330  11.682  0.1654 -0.1556  1.1675
  619MOL0     C83453   8.768   6.373  11.740  0.1461  0.3595  0.2033
  619MOL0     O83454   8.766   6.363  11.889 -0.3777  0.0682  0.0303
  619MOL0     C83455   8.882   6.327  11.951  0.4585 -0.0128  0.4446
  619MOL0     C83456   8.936   6.203  11.965  0.4033  0.2376  0.1486
  619MOL0     C83457   9.065   6.177  12.027  0.3774 -0.7886  0.1371
  619MOL0     C83458   9.125   6.293  12.088  1.1168  0.4080 -0.0251
  619MOL0     C83459   9.250   6.276  12.157 -1.1347  0.4971 -0.2564
  619MOL0     O83460   9.308   6.391  12.203  0.0501  0.3532 -0.0980
  619MOL0     C83461   9.442   6.399  12.256 -0.2266 -0.4475 -0.1683
  619MOL0     C83462   9.481   6.512  12.337  0.1157  1.0657 -0.9092
  619MOL0     C83463   9.615   6.503  12.403  0.0673 -0.3448  0.6585
  619MOL0     C83464   9.698   6.389  12.384 -0.5735  0.0842 -0.8123
  619MOL0     O83465   9.826   6.394  12.444  0.2562  0.1262 -0.1032
  619MOL0     C83466   9.914   6.283  12.436 -0.2186 -0.6810 -0.3383
  619MOL0     C83467  10.063   6.322  12.479  0.5180 -0.5221  0.2289
  619MOL0     C83468  10.101   6.299  12.623  0.0711 -0.4152  0.1769
  619MOL0     C83469  10.252   6.328  12.643 -0.5664  0.1323  0.3942
  619MOL0     C83470  10.323   6.294  12.767 -0.2837  0.2839 -0.2374
  619MOL0     C83471  10.474   6.259  12.736  0.0010 -0.4123  0.4389
  619MOL0     C83472  10.558   6.257  12.864  0.2119 -0.3725 -0.8411
  619MOL0     C83473  10.702   6.214  12.855 -0.9411 -0.5752  0.3033
  619MOL0    Cl83474  10.717   6.051  12.796 -0.1775  0.4010  0.3101
  619MOL0     C83475   9.652   6.292  12.300  0.3898  1.3594  0.8973
  619MOL0     C83476   9.535   6.305  12.232 -0.3183  1.0542 -0.8533
  619MOL0     O83477   9.295   6.164  12.175  0.5430  0.2250 -0.1133
  619MOL0     C83478   9.065   6.421  12.076 -0.9999 -0.8195  0.4069
  619MOL0     C83479   8.947   6.438  11.996 -0.2953 -0.8966  0.6999
  619MOL0     N83480   8.598   6.052  11.483 -0.9230  0.6306 -0.5091
  619MOL0     N83481   8.585   5.998  11.368 -0.2461 -0.0167 -0.0556
  619MOL0     C83482   7.893   6.537  10.489 -0.1634  0.8834 -1.3320
  619MOL0     C83483   7.821   6.545  10.369 -0.0634 -1.0460 -0.3859
  619MOL0     C83484   7.800   6.625   9.891  0.9230 -0.2421  0.0816
  619MOL0     C83485   7.661   6.632   9.899 -0.4186  0.0187 -0.5630
  619MOL0     C83486   7.584   6.645   9.780  0.0424  1.1148 -0.5653
  619MOL0     C83487   7.644   6.626   9.653  0.6407 -0.0793  0.5273
  619MOL0     O83488   7.563   6.629   9.543  0.7771 -0.4641 -0.6717
  619MOL0     C83489   7.613   6.588   9.416 -0.2123  0.7097  1.1980
  619MOL0     C83490   7.524   6.499   9.333  1.1651 -0.2935  0.6630
  619MOL0     C83491   7.577   6.454   9.200  0.3892 -0.0234 -0.7967
  619MOL0     C83492   7.493   6.338   9.138 -0.4155 -0.2699  0.3149
  619MOL0     C83493   7.359   6.376   9.116 -1.4283 -0.6200 -0.3708
  619MOL0     C83494   7.250   6.407   9.077  0.1704  0.3006  0.2550
  619MOL0     C83495   7.779   6.624   9.653 -0.5034 -0.4554 -0.6494
  619MOL0     C83496   7.863   6.622   9.770  0.1886  0.7116 -0.8613
  619MOL0     C83497   8.008   6.596   9.753  0.7036 -0.4132  0.3132
  619MOL0     H83498   8.072   6.534  10.141  2.2700 -1.1334  1.1238
  619MOL0     H83499   8.202   6.517  10.343  0.0707  1.2348  2.7294
  619MOL0     H83500   8.243   6.375  10.547  0.5266  0.0025  1.1234
  619MOL0     H83501   8.300   6.553  10.533 -1.0450  3.7493  2.8272
  619MOL0     H83502   8.313   6.579  10.764  1.3057 -1.0132  2.3765
  619MOL0     H83503   8.403   6.436  10.732  0.9140  1.0493  1.5786
  619MOL0     H83504   8.149   6.310  10.786 -1.1751  0.1347  1.3560
  619MOL0     H83505   8.114   6.471  10.831 -2.6621 -2.1779 -2.7845
  619MOL0     H83506   8.316   6.452  11.001 -0.4628  0.5312 -1.6924
  619MOL0     H83507   8.170   6.366  11.014  0.5555  0.4951  1.7397
  619MOL0     H83508   8.289   6.162  10.897  1.9029 -2.2369  1.9652
  619MOL0     H83509   8.438   6.261  10.926 -0.1532 -0.6636 -1.5961
  619MOL0     H83510   8.380   6.249  11.173  1.8677 -0.9748 -0.2377
  619MOL0     H83511   8.234   6.159  11.134  1.1900  1.1632  1.6946
  619MOL0     H83512   8.514   6.063  11.061 -0.0941 -2.3835 -0.3402
  619MOL0     H83513   8.368   5.994  11.013 -0.1197  0.2717 -0.0108
  619MOL0     H83514   8.283   5.949  11.239  0.4049 -2.1909 -4.1067
  619MOL0     H83515   8.448   5.873  11.204  1.3800 -0.1058  0.3777
  619MOL0     H83516   8.275   6.113  11.437  0.4590  2.8711  1.3895
  619MOL0     H83517   8.372   6.228  11.666  0.4621  0.0158 -1.2321
  619MOL0     H83518   8.398   6.072  11.733  0.5567  1.3107  3.4575
  619MOL0     H83519   8.551   6.228  11.854 -2.2887  1.1604 -0.6118
  619MOL0     H83520   8.654   6.129  11.734 -1.3274 -1.2181 -3.8309
  619MOL0     H83521   8.558   6.414  11.698  3.3533  3.2672 -1.4755
  619MOL0     H83522   8.629   6.322  11.573  0.7433  0.4228  1.1284
  619MOL0     H83523   8.793   6.472  11.702  2.2058 -0.7753 -1.5885
  619MOL0     H83524   8.842   6.300  11.706 -0.4615 -0.6580  0.9708
  619MOL0     H83525   8.891   6.113  11.925 -3.6186  2.3725 -0.7380
  619MOL0     H83526   9.097   6.074  12.020  1.5109 -0.4160 -0.3869
  619MOL0     H83527   9.412   6.588  12.373 -2.6067 -2.6293  2.5136
  619MOL0     H83528   9.639   6.574  12.481 -0.6927 -1.3459  1.8414
  619MOL0     H83529   9.883   6.211  12.512 -0.3614 -2.0603 -1.6414
  619MOL0     H83530   9.915   6.226  12.342  2.2299  0.2930 -0.9588
  619MOL0     H83531  10.126   6.256  12.418  0.2881  0.7963 -1.5299
  619MOL0     H83532  10.086   6.421  12.439  3.9104 -2.1336 -2.3715
  619MOL0     H83533  10.060   6.375  12.690  2.8268  1.7280 -0.3792
  619MOL0     H83534  10.093   6.195  12.655  1.3878 -0.9903 -1.2523
  619MOL0     H83535  10.274   6.432  12.616 -2.2289 -0.2123 -2.7044
  619MOL0     H83536  10.299   6.272  12.562 -0.7850  0.6636 -0.1038
  619MOL0     H83537  10.296   6.194  12.800  4.0139 -1.1450 -0.3741
  619MOL0     H83538  10.308   6.371  12.844 -1.8008  0.5296 -0.7469
  619MOL0     H83539  10.471   6.159  12.690  0.6700 -1.1109  1.8421
  619MOL0     H83540  10.515   6.335  12.669  0.3539  0.6675  1.8552
  619MOL0     H83541  10.508   6.191  12.935 -0.3620 -0.8392 -1.6675
  619MOL0     H83542  10.553   6.352  12.918 -1.6122 -0.2169 -1.2263
  619MOL0     H83543  10.757   6.275  12.782 -1.1518 -0.1899  0.4687
  619MOL0     H83544  10.755   6.227  12.950 -1.0959 -0.4232  0.3681
  619MOL0     H83545   9.703   6.196  12.291 -0.6008  1.0329 -2.6729
  619MOL0     H83546   9.515   6.225  12.162 -0.9208  1.5309 -1.2476
  619MOL0     H83547   9.106   6.510  12.122  2.2692  0.0805 -3.6960
  619MOL0     H83548   8.903   6.537  11.986  2.4918  0.8697  3.6731
  619MOL0     H83549   7.841   6.543  10.584 -1.9185 -1.2127 -2.0845
  619MOL0     H83550   7.713   6.550  10.364  0.0256  2.0284 -2.3249
  619MOL0     H83551   7.611   6.624   9.995  2.4937  1.7354  1.2612
  619MOL0     H83552   7.477   6.657   9.798 -0.1011 -0.5885 -0.0839
  619MOL0     H83553   7.704   6.528   9.432 -0.7336 -0.0022  1.5379
  619MOL0     H83554   7.654   6.669   9.354 -1.7636 -0.5190 -1.6429
  619MOL0     H83555   7.436   6.562   9.321  1.2653 -0.1084  0.9063
  619MOL0     H83556   7.496   6.414   9.395  0.4543 -2.1157 -1.9674
  619MOL0     H83557   7.676   6.410   9.215  0.1819  0.0379  0.8512
  619MOL0     H83558   7.592   6.546   9.142  3.3960  1.0514  1.3917
  619MOL0     H83559   7.542   6.306   9.045 -1.1866 -1.5725  0.3309
  619MOL0     H83560   7.509   6.249   9.199 -2.1422 -1.4502 -0.8417
  619MOL0     H83561   7.151   6.437   9.049 -0.2478 -2.4026 -1.6134
  619MOL0     H83562   7.841   6.631   9.564 -0.6729 -0.2040 -0.7490
  619MOL0     H83563   8.043   6.522   9.825 -3.7643 -0.2501  3.0234
  619MOL0     H83564   8.031   6.565   9.651  0.6107  1.8624 -0.4501
  619MOL0     H83565   8.069   6.683   9.776  0.0117  0.2487 -0.3139
  620MOL0     O83566   1.062   2.174   3.252 -0.4300 -0.3000 -0.2991
  620MOL0     C83567   0.992   2.192   3.351 -0.7260  0.6143  0.1967
  620MOL0     O83568   1.014   2.283   3.444  0.4259  0.1176  0.1447
  620MOL0     C83569   1.107   2.378   3.422 -0.5690  0.0016 -0.5905
  620MOL0     C83570   1.072   2.504   3.370 -0.1574 -0.3335 -1.2920
  620MOL0     C83571   1.161   2.604   3.369 -0.9206  0.2883 -0.0828
  620MOL0     C83572   1.290   2.583   3.408 -1.5265  0.5160 -0.8489
  620MOL0     O83573   1.378   2.692   3.418  0.3495 -0.6948 -0.0242
  620MOL0     C83574   1.525   2.670   3.411  0.0185 -0.1860  0.5484
  620MOL0     C83575   1.608   2.798   3.424 -0.7047 -0.0345 -0.1390
  620MOL0     C83576   1.696   2.825   3.306  0.0231  0.4426  0.4375
  620MOL0     C83577   1.742   2.966   3.279  0.3791 -0.7517 -0.9264
  620MOL0     C83578   1.861   2.974   3.186 -0.7595  0.7908 -0.4075
  620MOL0     C83579   1.901   3.119   3.162 -0.2968  1.2012  0.0037
  620MOL0     C83580   2.001   3.130   3.053 -0.7003 -0.4785  0.2866
  620MOL0     C83581   2.140   3.126   3.138 -0.0753  0.0183 -0.8534
  620MOL0     N83582   2.163   3.254   3.198 -0.0835  0.9942  0.0479
  620MOL0     C83583   2.187   3.365   3.120  0.7146  0.0223  0.1419
  620MOL0     C83584   2.224   3.458   3.210 -0.5650  0.2964  0.2742
  620MOL0     C83585   2.264   3.608   3.170  0.4079  0.4967 -0.7992
  620MOL0     C83586   2.165   3.715   3.241 -0.5878 -0.0779  0.3616
  620MOL0     C83587   2.025   3.698   3.186  0.1634 -0.4231 -0.0946
  620MOL0     C83588   1.915   3.778   3.270 -0.5059  0.1492  0.5013
  620MOL0     O83589   1.792   3.794   3.201 -0.5564  0.4011 -0.3207
  620MOL0     C83590   1.681   3.704   3.217  0.6612 -0.5833 -0.0285
  620MOL0     C83591   1.667   3.617   3.324 -0.0651  0.3288  0.7967
  620MOL0     C83592   1.551   3.530   3.318  1.0122 -0.5613 -0.6609
  620MOL0     C83593   1.452   3.545   3.226 -0.3040  0.1389  0.4192
  620MOL0     C83594   1.347   3.445   3.221  0.0336  0.4947  0.5333
  620MOL0     O83595   1.394   3.324   3.265  1.6573  0.3541  0.1879
  620MOL0     C83596   1.304   3.221   3.253 -0.6669 -0.2751 -0.0797
  620MOL0     C83597   1.166   3.238   3.286  0.1481  0.7772 -0.1691
  620MOL0     C83598   1.076   3.134   3.268  0.1346 -0.2897  0.0285
  620MOL0     C83599   1.114   3.007   3.225  0.2795 -0.6746 -0.2872
  620MOL0     O83600   1.017   2.907   3.228  0.3762  0.3264  0.3233
  620MOL0     C83601   0.880   2.919   3.176 -0.0278  0.5091  0.3542
  620MOL0     C83602   0.899   2.895   3.032  0.5331  0.8078 -0.5751
  620MOL0     C83603   0.763   2.888   2.963 -0.0078 -0.1499  0.3599
  620MOL0     C83604   0.765   2.819   2.823 -0.8797  0.3375 -0.3423
  620MOL0     C83605   0.647   2.851   2.741 -0.1232  0.6180  0.3073
  620MOL0     C83606   0.535   2.745   2.770  0.1237 -0.2300  0.5564
  620MOL0     C83607   0.396   2.792   2.712  0.5770  0.6441 -0.7350
  620MOL0     C83608   0.275   2.710   2.765 -0.1994  0.4528  0.2947
  620MOL0    Cl83609   0.309   2.536   2.777 -0.0092 -0.1851  0.2601
  620MOL0     C83610   1.255   2.979   3.206  0.3115  0.4003  0.9986
  620MOL0     C83611   1.340   3.085   3.218 -0.0320  0.8391 -0.3239
  620MOL0     O83612   1.239   3.474   3.167 -0.1105  0.8298  0.1695
  620MOL0     C83613   1.463   3.640   3.128 -0.2717  0.3062  0.9097
  620MOL0     C83614   1.575   3.723   3.122  0.2066  0.0567  0.3294
  620MOL0     N83615   2.230   3.399   3.330 -1.2857 -1.1135  0.3571
  620MOL0     N83616   2.185   3.275   3.331  0.0636 -0.0493  0.5327
  620MOL0     C83617   1.335   2.452   3.433  0.3527  0.0150 -0.0066
  620MOL0     C83618   1.238   2.352   3.456  0.3623 -0.0446 -0.9993
  620MOL0     C83619   0.883   2.100   3.375 -0.3784 -0.3466  0.4372
  620MOL0     C83620   0.846   2.068   3.512 -0.3950 -0.2571  0.3611
  620MOL0     C83621   0.726   1.991   3.538  0.7346  0.3679  0.3248
  620MOL0     C83622   0.651   1.945   3.433  0.2400  1.0042  1.1730
  620MOL0     O83623   0.548   1.852   3.451 -0.1233  0.0719 -0.2602
  620MOL0     C83624   0.432   1.894   3.526 -0.0126  0.6434  0.3806
  620MOL0     C83625   0.428   1.811   3.653  0.6701  0.7343  0.6606
  620MOL0     C83626   0.311   1.836   3.740 -0.4830 -0.7007  0.0175
  620MOL0     C83627   0.327   1.783   3.882 -0.2452 -0.1310  0.0155
  620MOL0     C83628   0.225   1.831   3.974  0.0807  0.0610 -0.5416
  620MOL0     C83629   0.156   1.873   4.068  0.6503 -0.2119  0.6067
  620MOL0     C83630   0.692   1.977   3.304  0.3769  1.0783  0.1252
  620MOL0     C83631   0.803   2.047   3.270  1.1948 -0.2479 -0.3643
  620MOL0     C83632   0.837   2.051   3.122 -1.0646 -0.0221 -0.6314
  620MOL0     H83633   0.970   2.529   3.342  0.1618  0.3131 -1.8876
  620MOL0     H83634   1.125   2.705   3.353 -0.2491  1.0178  2.4680
  620MOL0     H83635   1.549   2.617   3.503  1.6312  1.8063  1.3527
  620MOL0     H83636   1.556   2.612   3.323  0.5994  1.0298 -0.0661
  620MOL0     H83637   1.673   2.799   3.511  0.2969  1.1699 -0.8713
  620MOL0     H83638   1.538   2.881   3.437  1.0641  1.4109  0.5878
  620MOL0     H83639   1.645   2.801   3.212  1.2116 -0.7819  0.0604
  620MOL0     H83640   1.787   2.764   3.313 -0.0150 -0.0126 -2.0292
  620MOL0     H83641   1.664   3.025   3.232 -1.1423 -1.7780  0.2051
  620MOL0     H83642   1.774   3.005   3.376  6.0099 -3.3517 -1.2990
  620MOL0     H83643   1.948   2.917   3.218  0.2632  0.6278 -3.1813
  620MOL0     H83644   1.838   2.924   3.092 -0.1030 -3.0104  1.2935
  620MOL0     H83645   1.818   3.180   3.125 -0.1341 -0.5379 -3.7112
  620MOL0     H83646   1.942   3.162   3.254 -0.4735  4.0326 -1.1461
  620MOL0     H83647   1.998   3.230   3.007  0.7783 -0.2124  0.7270
  620MOL0     H83648   1.983   3.053   2.977 -2.2201  0.4568 -0.3379
  620MOL0     H83649   2.127   3.065   3.228 -4.7401  0.9388 -0.6384
  620MOL0     H83650   2.231   3.104   3.080  1.2929  1.8418  0.5088
  620MOL0     H83651   2.172   3.378   3.013 -1.0332  1.3825  0.5119
  620MOL0     H83652   2.368   3.621   3.202  0.3146 -0.3371 -0.1021
  620MOL0     H83653   2.268   3.622   3.062  1.6795  2.3774 -0.5586
  620MOL0     H83654   2.164   3.705   3.350  2.7318  0.9618  0.6057
  620MOL0     H83655   2.194   3.816   3.211 -1.3538 -0.1920 -0.8177
  620MOL0     H83656   2.010   3.590   3.189 -2.0908 -0.1967 -1.1896
  620MOL0     H83657   2.025   3.724   3.079  0.2181 -0.5376 -0.1230
  620MOL0     H83658   1.957   3.878   3.286  3.4712 -1.2183 -0.3110
  620MOL0     H83659   1.910   3.727   3.367  2.5578 -0.4489  0.4547
  620MOL0     H83660   1.745   3.615   3.399  2.3332  0.0154 -1.5469
  620MOL0     H83661   1.541   3.447   3.388  1.0897  0.6086  0.7764
  620MOL0     H83662   1.124   3.320   3.342 -1.3083 -0.2589  0.3241
  620MOL0     H83663   0.973   3.148   3.300 -1.0369 -3.7958 -1.7054
  620MOL0     H83664   0.826   2.840   3.231  2.4115 -0.9415  0.8079
  620MOL0     H83665   0.832   3.017   3.183 -3.7787 -1.1144 -0.1063
  620MOL0     H83666   0.961   2.978   2.998 -0.7717  3.1482  2.1958
  620MOL0     H83667   0.963   2.806   3.027 -0.1509  0.2147  0.5654
  620MOL0     H83668   0.692   2.830   3.023 -2.0358  1.7969  0.0038
  620MOL0     H83669   0.731   2.993   2.964  1.9918  0.5098  0.2557
  620MOL0     H83670   0.793   2.713   2.830 -2.0941 -0.1804 -2.5179
  620MOL0     H83671   0.851   2.857   2.767  0.4825 -2.3728 -0.2858
  620MOL0     H83672   0.677   2.839   2.637  0.9374 -0.4203  0.7055
  620MOL0     H83673   0.614   2.954   2.759 -1.3852  0.3956 -0.5928
  620MOL0     H83674   0.549   2.650   2.719 -1.8203  0.2295 -0.9611
  620MOL0     H83675   0.520   2.743   2.878  1.0532  2.4179  0.8069
  620MOL0     H83676   0.394   2.770   2.605 -0.9016  0.4417 -0.6888
  620MOL0     H83677   0.387   2.901   2.722  2.3498  0.6319  2.0696
  620MOL0     H83678   0.269   2.749   2.867 -3.0666  1.6423 -0.2153
  620MOL0     H83679   0.183   2.728   2.708 -0.9133 -2.8998  0.2154
  620MOL0     H83680   1.288   2.888   3.158  0.0447  2.0892 -2.7403
  620MOL0     H83681   1.442   3.054   3.197 -0.7789 -2.3509  0.1392
  620MOL0     H83682   1.387   3.649   3.051  0.9107 -3.8254 -1.0167
  620MOL0     H83683   1.598   3.776   3.030 -0.4268 -2.8830 -1.6617
  620MOL0     H83684   1.440   2.428   3.447  0.8502  1.0164 -1.7453
  620MOL0     H83685   1.271   2.255   3.490 -4.5947 -1.2194  1.4357
  620MOL0     H83686   0.902   2.104   3.598 -1.5056  0.7650  0.6749
  620MOL0     H83687   0.698   1.960   3.638 -1.3249 -1.6018 -0.7778
  620MOL0     H83688   0.338   1.871   3.474  0.2096  0.2811  0.1418
  620MOL0     H83689   0.435   2.003   3.541  1.1033  0.7833 -0.7103
  620MOL0     H83690   0.526   1.816   3.701 -0.2423 -2.0390  3.1197
  620MOL0     H83691   0.426   1.706   3.621 -5.0348  1.0568 -1.0223
  620MOL0     H83692   0.223   1.788   3.696 -0.0222 -0.7236 -0.9099
  620MOL0     H83693   0.292   1.943   3.728  1.6529 -0.4554 -1.7715
  620MOL0     H83694   0.314   1.675   3.871  0.9677 -0.6312  2.7788
  620MOL0     H83695   0.427   1.797   3.925 -0.5803 -2.2425  1.6512
  620MOL0     H83696   0.079   1.919   4.127 -0.8936  1.7186 -2.6339
  620MOL0     H83697   0.644   1.920   3.225 -0.1467  0.5972  0.7706
  620MOL0     H83698   0.920   1.984   3.102  0.0555  1.7144 -2.2247
  620MOL0     H83699   0.755   2.013   3.061 -1.8433 -1.0934  1.0027
  620MOL0     H83700   0.868   2.150   3.087  0.7964 -0.4472 -0.2679
  621MOL0     O83701   4.286  10.220   6.420 -0.2946 -0.9275 -0.7124
  621MOL0     C83702   4.185  10.288   6.458 -0.1056  0.4182  0.9846
  621MOL0     O83703   4.125  10.280   6.577 -0.0151 -0.3068  0.4503
  621MOL0     C83704   4.172  10.184   6.667 -0.3183  1.1002 -0.2130
  621MOL0     C83705   4.196  10.046   6.643 -0.5867  0.3357 -0.5389
  621MOL0     C83706   4.223   9.956   6.745  0.4627  0.1205 -1.1265
  621MOL0     C83707   4.240   9.988   6.879  0.0677 -0.2835 -0.0973
  621MOL0     O83708   4.269   9.887   6.973  0.0077  0.6650 -0.0648
  621MOL0     C83709   4.243   9.914   7.113 -0.8540 -0.0348  0.1110
  621MOL0     C83710   4.245   9.789   7.195 -0.3549 -0.4315  0.2038
  621MOL0     C83711   4.181   9.665   7.124  0.4880  0.9520 -0.1091
  621MOL0     C83712   4.027   9.673   7.091  0.7983  0.5996  1.0246
  621MOL0     C83713   3.968   9.552   7.001 -0.1234  0.3374 -0.1112
  621MOL0     C83714   4.049   9.527   6.875 -0.9631  0.0323  0.1862
  621MOL0     C83715   4.036   9.630   6.760  0.0126  0.5439  0.0731
  621MOL0     C83716   3.890   9.643   6.715  0.3750 -0.1967 -0.0001
  621MOL0     N83717   3.882   9.754   6.622 -0.0822 -0.1586 -0.7427
  621MOL0     C83718   3.868   9.751   6.485 -0.4989 -0.4607 -0.9576
  621MOL0     C83719   3.864   9.888   6.450  0.7513 -1.2096  0.0620
  621MOL0     C83720   3.860   9.953   6.307  0.7883 -0.5991 -0.5769
  621MOL0     C83721   3.892   9.852   6.197 -0.5939  0.6156 -0.5942
  621MOL0     C83722   3.790   9.745   6.177  0.7300 -0.5443 -0.5463
  621MOL0     C83723   3.841   9.617   6.120 -0.4724  0.2700  0.4926
  621MOL0     O83724   3.920   9.547   6.215 -0.5070 -0.2667 -0.2441
  621MOL0     C83725   3.879   9.431   6.287 -0.0407  0.6983  0.2921
  621MOL0     C83726   3.965   9.352   6.355 -0.2136 -0.6203 -0.0194
  621MOL0     C83727   3.924   9.245   6.439  1.2128 -0.5028  0.3531
  621MOL0     C83728   3.780   9.225   6.461 -0.1869 -0.3078  0.2989
  621MOL0     C83729   3.742   9.129   6.559 -0.2505 -0.6000  0.3536
  621MOL0     O83730   3.824   9.118   6.673 -0.2817 -0.1199 -0.5693
  621MOL0     C83731   3.804   9.019   6.767  1.1042  0.2966 -0.9602
  621MOL0     C83732   3.706   9.026   6.861  0.0807 -0.3097 -1.5940
  621MOL0     C83733   3.688   8.916   6.944  0.2123  0.0154 -0.7938
  621MOL0     C83734   3.767   8.798   6.941  0.4571 -0.8927  0.3625
  621MOL0     O83735   3.744   8.688   7.021 -0.0238  0.3416 -0.4567
  621MOL0     C83736   3.637   8.676   7.110 -0.4622  0.5115 -0.1958
  621MOL0     C83737   3.622   8.530   7.151 -0.1872  0.2237 -0.1444
  621MOL0     C83738   3.490   8.503   7.222  0.7876 -0.2432 -0.2120
  621MOL0     C83739   3.455   8.358   7.205 -0.4920 -0.4504 -0.3324
  621MOL0     C83740   3.361   8.334   7.078  0.8678  0.8753 -0.8214
  621MOL0     C83741   3.352   8.178   7.051 -0.7597 -0.4200 -0.0715
  621MOL0     C83742   3.274   8.151   6.918 -0.5909 -0.8231 -0.4415
  621MOL0     C83743   3.123   8.169   6.928 -0.5788 -0.5248  0.6798
  621MOL0    Cl83744   3.048   8.014   6.956 -0.0845 -0.1326  0.4159
  621MOL0     C83745   3.871   8.800   6.855 -0.6083  0.1296 -0.4466
  621MOL0     C83746   3.890   8.908   6.769 -0.4076 -0.7218  0.3188
  621MOL0     O83747   3.645   9.066   6.544 -0.2224 -0.0714 -0.1077
  621MOL0     C83748   3.692   9.311   6.397  0.1904  0.0560  0.0179
  621MOL0     C83749   3.743   9.400   6.302  0.5051 -1.0337 -0.1398
  621MOL0     N83750   3.878   9.956   6.570 -0.7373  0.1029  0.7568
  621MOL0     N83751   3.902   9.875   6.670  0.8774  0.3548  0.4149
  621MOL0     C83752   4.211  10.128   6.909  0.0582  0.7337  1.0476
  621MOL0     C83753   4.193  10.219   6.803  0.2396 -0.0777  0.4515
  621MOL0     C83754   4.129  10.377   6.354 -0.1258  0.4279  0.3337
  621MOL0     C83755   4.005  10.442   6.379  0.2170  0.4029 -0.2361
  621MOL0     C83756   3.937  10.523   6.285  0.5993 -1.2386 -0.2636
  621MOL0     C83757   3.998  10.548   6.166  0.2956 -0.8100  0.7922
  621MOL0     O83758   3.955  10.627   6.063  0.3788 -0.4422 -0.3697
  621MOL0     C83759   3.818  10.637   6.037 -0.4308  0.4907  0.2569
  621MOL0     C83760   3.762  10.771   6.093 -0.2550  0.4473 -0.0119
  621MOL0     C83761   3.798  10.893   6.016 -0.0728 -0.6985 -0.2498
  621MOL0     C83762   3.727  11.010   6.067 -0.3242 -0.1670  0.5928
  621MOL0     C83763   3.751  11.121   5.978 -0.2709  0.0856 -0.1255
  621MOL0     C83764   3.775  11.210   5.894 -0.2626 -0.2420 -0.3345
  621MOL0     C83765   4.123  10.501   6.150 -0.8284  0.3891  0.3785
  621MOL0     C83766   4.189  10.410   6.227 -0.6462 -0.2944 -0.4410
  621MOL0     C83767   4.327  10.361   6.173 -1.0584 -0.1136  0.1963
  621MOL0     H83768   4.172  10.022   6.540 -0.0297  0.4995 -0.7106
  621MOL0     H83769   4.240   9.852   6.718  3.3550  0.9361 -2.8412
  621MOL0     H83770   4.319   9.982   7.151 -1.6436  1.0933 -0.2426
  621MOL0     H83771   4.142   9.956   7.119 -0.6673  0.3492  0.6821
  621MOL0     H83772   4.181   9.805   7.283 -2.7875 -4.2177 -0.6328
  621MOL0     H83773   4.346   9.758   7.220  1.5291  2.7906 -2.5408
  621MOL0     H83774   4.199   9.583   7.193  2.0141  1.7673  0.5220
  621MOL0     H83775   4.248   9.643   7.040  1.4758 -4.2535  1.7112
  621MOL0     H83776   3.958   9.687   7.175  0.1360  1.2637  0.3908
  621MOL0     H83777   4.014   9.762   7.028  0.7084  1.4626  2.2343
  621MOL0     H83778   3.985   9.465   7.065  0.3783  1.5085  1.4165
  621MOL0     H83779   3.861   9.567   6.981 -0.3676  0.3423  1.1072
  621MOL0     H83780   4.154   9.522   6.904 -0.4311  1.5027 -1.2894
  621MOL0     H83781   4.015   9.431   6.836  1.4385  0.2512 -2.8908
  621MOL0     H83782   4.103   9.606   6.677 -0.7651  0.9457 -0.6767
  621MOL0     H83783   4.055   9.729   6.803 -2.3226  1.2982 -0.4822
  621MOL0     H83784   3.854   9.554   6.662 -0.9561 -0.6918  1.6382
  621MOL0     H83785   3.823   9.660   6.800  1.8901  1.4674  0.9111
  621MOL0     H83786   3.868   9.664   6.420 -1.0655  0.1508 -1.7800
  621MOL0     H83787   3.752   9.958   6.291 -0.1990 -6.4812  1.6154
  621MOL0     H83788   3.909  10.050   6.291 -0.2259  0.2672  1.2652
  621MOL0     H83789   3.906   9.892   6.096  3.1983 -2.3769 -1.4752
  621MOL0     H83790   3.991   9.814   6.224 -2.1829 -1.2615  3.3353
  621MOL0     H83791   3.719   9.791   6.108 -2.0819 -1.7383  1.3888
  621MOL0     H83792   3.729   9.721   6.265 -2.6028  1.5540 -2.0869
  621MOL0     H83793   3.901   9.630   6.029 -0.0194  1.2879  0.9176
  621MOL0     H83794   3.760   9.559   6.075  1.2680 -0.6354 -1.6747
  621MOL0     H83795   4.068   9.385   6.367  0.2327 -2.7703  3.3169
  621MOL0     H83796   3.996   9.198   6.504 -0.2832  0.3740  2.7561
  621MOL0     H83797   3.638   9.107   6.885 -2.2498 -2.7179  0.7237
  621MOL0     H83798   3.604   8.910   7.013 -0.6130  1.2814 -1.6436
  621MOL0     H83799   3.660   8.741   7.194  0.5759  2.5038 -1.9317
  621MOL0     H83800   3.535   8.688   7.072 -0.2614  0.0969 -0.8963
  621MOL0     H83801   3.632   8.468   7.061  4.9260  0.6564 -0.1711
  621MOL0     H83802   3.708   8.500   7.212  0.6875  2.3819 -0.2265
  621MOL0     H83803   3.516   8.518   7.326 -1.4379 -0.6321  0.4656
  621MOL0     H83804   3.407   8.571   7.200 -0.6766 -2.0037 -0.4634
  621MOL0     H83805   3.415   8.315   7.297  1.5418 -2.9777 -0.5413
  621MOL0     H83806   3.550   8.306   7.195 -1.4271 -2.0432 -1.3673
  621MOL0     H83807   3.395   8.374   6.982  0.0129  0.6279 -1.2378
  621MOL0     H83808   3.263   8.380   7.093  0.4111  0.2325 -1.7187
  621MOL0     H83809   3.457   8.148   7.045  0.1495  1.1863  4.0143
  621MOL0     H83810   3.305   8.129   7.138 -0.1436  1.2234  1.2397
  621MOL0     H83811   3.281   8.046   6.887 -1.3416 -1.3647  1.1402
  621MOL0     H83812   3.323   8.214   6.843 -2.0944 -1.2642 -1.8492
  621MOL0     H83813   3.099   8.247   7.001  0.5593  1.1143 -0.6199
  621MOL0     H83814   3.098   8.214   6.831  2.7941  0.7405  0.2836
  621MOL0     H83815   3.947   8.723   6.863  0.2430  1.1268  2.1366
  621MOL0     H83816   3.979   8.905   6.707 -0.8224 -1.3079 -0.2681
  621MOL0     H83817   3.584   9.314   6.410  0.3879  2.3862  1.7023
  621MOL0     H83818   3.672   9.470   6.260  3.4318  1.4946 -1.3114
  621MOL0     H83819   4.212  10.155   7.014  0.2634 -3.1628  2.1969
  621MOL0     H83820   4.170  10.323   6.826 -1.1632  0.2065 -1.9054
  621MOL0     H83821   3.945  10.418   6.466  0.2996 -0.2714 -0.3640
  621MOL0     H83822   3.835  10.555   6.304  0.3919 -2.7448  1.4202
  621MOL0     H83823   3.778  10.546   6.082 -1.2584  0.0457 -1.2936
  621MOL0     H83824   3.811  10.643   5.928  1.5544 -2.9660 -0.2274
  621MOL0     H83825   3.801  10.786   6.195 -0.0719 -0.6496  0.0877
  621MOL0     H83826   3.653  10.773   6.096 -0.4269 -0.3587 -2.9269
  621MOL0     H83827   3.771  10.875   5.911 -0.5251 -2.5023  0.1451
  621MOL0     H83828   3.907  10.904   6.018 -0.2563  2.0814 -1.2836
  621MOL0     H83829   3.617  11.006   6.072 -0.2513 -1.0235  2.8279
  621MOL0     H83830   3.752  11.042   6.168 -1.4022  1.0965  0.4856
  621MOL0     H83831   3.797  11.271   5.810  2.2227 -0.0543  0.3918
  621MOL0     H83832   4.174  10.511   6.055  0.2755 -0.3149  0.8738
  621MOL0     H83833   4.337  10.264   6.123 -1.7241  0.1276 -0.4124
  621MOL0     H83834   4.361  10.433   6.099  3.0884  0.6571  2.5455
  621MOL0     H83835   4.409  10.355   6.246 -1.6303  3.1900  1.2531
  622MOL0     O83836   4.343   0.115   1.694 -0.2958  0.4069  0.3389
  622MOL0     C83837   4.386   0.043   1.787  0.3735  0.7005 -0.8158
  622MOL0     O83838   4.313  -0.052   1.865 -0.7129 -1.2243 -0.6304
  622MOL0     C83839   4.208  -0.113   1.810 -0.7952  0.4029  0.9186
  622MOL0     C83840   4.106  -0.155   1.891 -0.4456  1.0664  0.1894
  622MOL0     C83841   3.996  -0.225   1.840 -0.8515  0.3575 -0.6320
  622MOL0     C83842   3.993  -0.262   1.704  0.1864  0.4392 -0.0192
  622MOL0     O83843   3.889  -0.307   1.630  0.0990 -0.3171  0.1168
  622MOL0     C83844   3.771  -0.355   1.698  0.4683  0.5045  0.4465
  622MOL0     C83845   3.675  -0.397   1.582 -0.6981 -0.4476 -0.2489
  622MOL0     C83846   3.575  -0.481   1.664  0.8120 -0.1558  0.1592
  622MOL0     C83847   3.474  -0.555   1.571  1.1036 -0.1492 -1.0144
  622MOL0     C83848   3.363  -0.623   1.646  0.3420 -0.0634 -0.1815
  622MOL0     C83849   3.262  -0.704   1.567 -0.3304 -0.3562 -0.1883
  622MOL0     C83850   3.184  -0.617   1.465 -0.2211  0.1560  0.0089
  622MOL0     C83851   3.045  -0.679   1.427 -0.2036 -0.0436 -0.0125
  622MOL0     N83852   2.974  -0.589   1.340  0.7988  0.1490 -0.0882
  622MOL0     C83853   2.850  -0.617   1.280  0.2777  0.2598 -0.1664
  622MOL0     C83854   2.815  -0.503   1.220  0.4211 -0.3370  0.3411
  622MOL0     C83855   2.689  -0.476   1.137 -0.1175  0.1323  0.3537
  622MOL0     C83856   2.582  -0.439   1.246  0.2456 -0.6407 -0.7802
  622MOL0     C83857   2.467  -0.345   1.189 -1.1077  0.2120  0.7830
  622MOL0     C83858   2.345  -0.350   1.289  0.3235 -0.0531 -0.8459
  622MOL0     O83859   2.232  -0.284   1.230 -0.2231  0.1471  0.1466
  622MOL0     C83860   2.229  -0.142   1.226  0.7243  0.0799  0.4380
  622MOL0     C83861   2.123  -0.078   1.156  0.0922  0.5605  0.3432
  622MOL0     C83862   2.119   0.060   1.152  0.0137 -0.3343 -0.7537
  622MOL0     C83863   2.214   0.137   1.221  0.3830 -0.0305 -1.2706
  622MOL0     C83864   2.218   0.285   1.187  0.4649  0.2697 -0.1362
  622MOL0     O83865   2.305   0.362   1.248  0.2033 -0.6859  0.1110
  622MOL0     C83866   2.288   0.499   1.245 -0.3987  0.7496  0.5311
  622MOL0     C83867   2.163   0.554   1.283  0.2179  0.4576 -0.7321
  622MOL0     C83868   2.152   0.690   1.290 -0.2483  0.0371  1.2849
  622MOL0     C83869   2.248   0.781   1.243 -0.4169  0.6757  0.5957
  622MOL0     O83870   2.217   0.922   1.230  0.1896  0.6115 -0.8495
  622MOL0     C83871   2.295   1.009   1.151  0.1560  0.8836  0.2473
  622MOL0     C83872   2.234   1.145   1.163 -0.3203 -0.4804 -0.0147
  622MOL0     C83873   2.312   1.241   1.073 -0.4947 -0.4844 -0.9183
  622MOL0     C83874   2.284   1.383   1.123  0.1553  0.2350 -0.0212
  622MOL0     C83875   2.149   1.423   1.082  0.6627  0.0870  0.1701
  622MOL0     C83876   2.113   1.408   0.937 -0.4383 -0.3170  0.5610
  622MOL0     C83877   2.018   1.525   0.880 -1.1212 -0.5605  0.1870
  622MOL0     C83878   1.885   1.554   0.959 -0.6722  0.4058  0.7277
  622MOL0    Cl83879   1.772   1.654   0.868 -0.3037 -0.0595 -0.0100
  622MOL0     C83880   2.366   0.730   1.210  0.0961 -0.4703  1.0660
  622MOL0     C83881   2.386   0.587   1.200 -0.7713 -0.4502 -0.9480
  622MOL0     O83882   2.123   0.335   1.119 -0.2729 -0.9284 -0.3879
  622MOL0     C83883   2.322   0.078   1.291  0.3536 -0.2214 -0.0357
  622MOL0     C83884   2.320  -0.061   1.296  0.5377 -0.3234  0.2979
  622MOL0     N83885   2.902  -0.403   1.258 -0.2631 -0.0033  0.1869
  622MOL0     N83886   2.999  -0.457   1.325  0.3203 -0.4663 -0.0740
  622MOL0     C83887   4.112  -0.226   1.635  0.9589  0.1974  0.6581
  622MOL0     C83888   4.213  -0.155   1.679 -0.0443  0.0276  0.2298
  622MOL0     C83889   4.533   0.048   1.815  0.3717  1.5827 -0.0067
  622MOL0     C83890   4.602   0.170   1.798  0.0887  0.6194 -0.7209
  622MOL0     C83891   4.740   0.175   1.811  0.6616 -0.0292  0.5200
  622MOL0     C83892   4.807   0.065   1.858 -0.0721  0.5328 -0.9347
  622MOL0     O83893   4.941   0.084   1.881 -0.2694  0.4721  0.1632
  622MOL0     C83894   5.016  -0.021   1.947  0.1761 -0.3541 -0.2959
  622MOL0     C83895   5.096  -0.113   1.858 -0.7264 -0.3359  0.3583
  622MOL0     C83896   5.193  -0.022   1.774 -0.5059  0.3583 -0.3488
  622MOL0     C83897   5.261  -0.107   1.663  0.5064 -0.8891  0.3826
  622MOL0     C83898   5.383  -0.170   1.715  0.7181 -0.4676  1.1947
  622MOL0     C83899   5.480  -0.232   1.746 -0.4652 -0.3112 -0.1112
  622MOL0     C83900   4.741  -0.054   1.888 -0.1524 -0.1075 -0.3052
  622MOL0     C83901   4.606  -0.064   1.868 -0.3776 -0.0531  0.6375
  622MOL0     C83902   4.547  -0.195   1.911  0.6709  0.2043  0.8786
  622MOL0     H83903   4.101  -0.125   1.996 -0.1124  0.8614  0.2656
  622MOL0     H83904   3.917  -0.240   1.913 -0.9845 -1.1407 -1.0512
  622MOL0     H83905   3.802  -0.441   1.758 -3.1644 -0.7630  0.7205
  622MOL0     H83906   3.731  -0.278   1.765  0.9800  1.5120 -0.3707
  622MOL0     H83907   3.726  -0.468   1.516 -0.1680 -0.1566 -0.1512
  622MOL0     H83908   3.613  -0.323   1.529 -0.9801 -1.5969 -1.6080
  622MOL0     H83909   3.519  -0.416   1.732  0.7817 -1.7930  1.7756
  622MOL0     H83910   3.619  -0.564   1.720  1.6723  0.4238  0.3587
  622MOL0     H83911   3.426  -0.477   1.512  0.1663  0.3041  0.3072
  622MOL0     H83912   3.537  -0.626   1.517  0.0334 -0.6727 -1.6071
  622MOL0     H83913   3.408  -0.690   1.720  0.9912 -2.3749 -2.4927
  622MOL0     H83914   3.310  -0.541   1.694 -1.7459 -0.7569 -1.1809
  622MOL0     H83915   3.319  -0.785   1.520  0.9442  0.1263  0.4794
  622MOL0     H83916   3.196  -0.744   1.645 -0.0045 -0.9248 -0.1996
  622MOL0     H83917   3.246  -0.608   1.375 -0.7750 -3.5856 -0.8911
  622MOL0     H83918   3.183  -0.515   1.504 -0.8212  0.2129 -0.1508
  622MOL0     H83919   3.051  -0.772   1.369  1.3667  0.9362 -1.5060
  622MOL0     H83920   2.981  -0.707   1.512 -0.2716 -3.1469 -0.9397
  622MOL0     H83921   2.806  -0.716   1.286  2.2401 -0.5454  2.0578
  622MOL0     H83922   2.707  -0.389   1.073  1.2154  1.3667  2.2797
  622MOL0     H83923   2.669  -0.560   1.070  2.0507  0.1361 -0.3883
  622MOL0     H83924   2.543  -0.535   1.281  0.6463 -0.6422 -0.3301
  622MOL0     H83925   2.632  -0.386   1.327  1.0983 -1.0627 -1.0131
  622MOL0     H83926   2.424  -0.375   1.093  1.5927 -1.4228 -0.0395
  622MOL0     H83927   2.514  -0.251   1.158 -1.1024 -0.4331 -1.2936
  622MOL0     H83928   2.355  -0.300   1.386  2.5792 -0.1433 -0.9960
  622MOL0     H83929   2.317  -0.453   1.311 -2.5836  0.7862 -0.1123
  622MOL0     H83930   2.049  -0.144   1.112  1.2480 -1.7011  1.6462
  622MOL0     H83931   2.042   0.109   1.092  1.0300  2.9924  0.4074
  622MOL0     H83932   2.080   0.494   1.318  1.0405  0.8724  2.1642
  622MOL0     H83933   2.061   0.736   1.328 -0.1623 -0.4383  2.1082
  622MOL0     H83934   2.394   1.010   1.198  0.5801 -0.5289 -0.5686
  622MOL0     H83935   2.311   0.968   1.051  0.1156 -0.9144  0.9473
  622MOL0     H83936   2.128   1.125   1.145 -0.1163 -2.3378  0.6140
  622MOL0     H83937   2.242   1.174   1.268 -2.2268 -0.6716  0.2170
  622MOL0     H83938   2.420   1.226   1.080 -0.6120 -1.5649 -1.2034
  622MOL0     H83939   2.290   1.229   0.966  1.0427  1.5600 -1.5186
  622MOL0     H83940   2.348   1.455   1.070  0.2824  0.8623  0.9623
  622MOL0     H83941   2.273   1.386   1.232  1.1521  2.4107  0.0697
  622MOL0     H83942   2.136   1.531   1.098 -0.7649 -0.3333  2.2372
  622MOL0     H83943   2.065   1.380   1.138 -1.9023  2.8407 -1.2640
  622MOL0     H83944   2.203   1.405   0.875 -0.5659  2.6445  0.0864
  622MOL0     H83945   2.063   1.311   0.927  1.0378 -1.0515 -0.0449
  622MOL0     H83946   1.975   1.502   0.782  0.6802  1.1803 -1.1079
  622MOL0     H83947   2.083   1.613   0.869  0.3257 -1.8808 -2.8858
  622MOL0     H83948   1.835   1.468   1.004 -0.5479  0.7374  1.5159
  622MOL0     H83949   1.921   1.621   1.038 -0.3317  4.4551 -2.5318
  622MOL0     H83950   2.444   0.800   1.181 -1.2745  1.1528  1.1599
  622MOL0     H83951   2.482   0.561   1.157  1.2569  1.6337  1.9111
  622MOL0     H83952   2.403   0.140   1.330  0.9938 -0.2807 -1.2210
  622MOL0     H83953   2.401  -0.100   1.357  1.4994  1.0253 -0.0588
  622MOL0     H83954   4.113  -0.231   1.526  0.3957 -0.7382  0.6828
  622MOL0     H83955   4.294  -0.141   1.608 -1.8133  1.1517 -1.6559
  622MOL0     H83956   4.545   0.254   1.760 -2.8469 -1.3845 -1.1455
  622MOL0     H83957   4.808   0.252   1.776  0.9952 -0.4584  0.2242
  622MOL0     H83958   4.958  -0.082   2.017  0.1725  1.7510  1.6565
  622MOL0     H83959   5.085   0.030   2.015 -0.6224  0.7308 -0.2819
  622MOL0     H83960   5.020  -0.164   1.799 -1.1708 -0.3743  0.9511
  622MOL0     H83961   5.151  -0.185   1.919  0.6660 -1.0765 -1.6836
  622MOL0     H83962   5.263   0.034   1.837 -0.9046  2.1979 -1.4404
  622MOL0     H83963   5.136   0.051   1.715  1.6633  2.4028 -0.0797
  622MOL0     H83964   5.193  -0.178   1.613 -1.2620  1.0829 -0.1829
  622MOL0     H83965   5.287  -0.042   1.578  1.7684 -3.6431 -1.4905
  622MOL0     H83966   5.562  -0.294   1.777  0.2417  1.5008  1.9982
  622MOL0     H83967   4.798  -0.141   1.919  0.6664  1.2660  2.2845
  622MOL0     H83968   4.477  -0.242   1.841  1.4665 -1.7225  1.3323
  622MOL0     H83969   4.616  -0.279   1.917 -2.5042 -3.3426 -4.1982
  622MOL0     H83970   4.497  -0.174   2.006  2.2958  0.1446  1.7822
  623MOL0     O83971   0.760   2.486  10.530 -0.3718 -1.0144 -0.5021
  623MOL0     C83972   0.662   2.569  10.541 -0.7834 -0.7535  0.8483
  623MOL0     O83973   0.532   2.536  10.567 -0.2301 -0.9893 -0.1698
  623MOL0     C83974   0.483   2.411  10.562  0.0224  1.3047  0.4946
  623MOL0     C83975   0.557   2.286  10.585 -0.7758  0.8307 -0.6879
  623MOL0     C83976   0.494   2.163  10.571  0.0663 -0.7845  0.5771
  623MOL0     C83977   0.359   2.157  10.543 -0.0101 -1.0626  1.0438
  623MOL0     O83978   0.300   2.037  10.511 -0.1489  0.1670 -0.4661
  623MOL0     C83979   0.212   2.041  10.400  0.4499  1.1608 -0.3225
  623MOL0     C83980   0.196   1.912  10.310  0.3275  1.0128 -0.5206
  623MOL0     C83981   0.128   1.796  10.388 -0.5322  0.9448  0.4092
  623MOL0     C83982   0.002   1.752  10.318 -0.3323 -1.1940  0.1759
  623MOL0     C83983  -0.057   1.628  10.373 -0.1894  0.8231  0.4338
  623MOL0     C83984  -0.206   1.625  10.404  0.0110 -0.1388  1.0880
  623MOL0     C83985  -0.280   1.652  10.276 -0.3627 -0.5965 -0.3433
  623MOL0     C83986  -0.429   1.661  10.296  0.0110  1.0890  0.4375
  623MOL0     N83987  -0.499   1.696  10.172  0.1752  0.5281  0.0385
  623MOL0     C83988  -0.492   1.819  10.104 -0.3583 -0.7187  0.0431
  623MOL0     C83989  -0.606   1.813  10.028  0.0510  0.8231 -0.3213
  623MOL0     C83990  -0.668   1.938   9.977  0.4332  0.3338 -0.1182
  623MOL0     C83991  -0.750   2.017  10.082 -0.1970  0.2721 -0.1336
  623MOL0     C83992  -0.667   2.111  10.162  0.7364  0.5438  0.1070
  623MOL0     C83993  -0.744   2.235  10.214 -0.7137 -0.4901 -0.1288
  623MOL0     O83994  -0.841   2.172  10.297 -0.0582 -0.0994  0.0588
  623MOL0     C83995  -0.957   2.252  10.322  0.3176 -1.4371 -0.5846
  623MOL0     C83996  -1.061   2.196  10.402 -0.4933 -0.1887  0.4448
  623MOL0     C83997  -1.170   2.267  10.438 -0.2013  0.0731 -0.3168
  623MOL0     C83998  -1.190   2.402  10.405  0.3036 -0.5509  0.3636
  623MOL0     C83999  -1.305   2.476  10.461  0.2321 -1.0617 -0.1307
  623MOL0     O84000  -1.370   2.420  10.571  0.0798  0.7865  0.0978
  623MOL0     C84001  -1.488   2.474  10.601  0.2787  1.0217  1.7040
  623MOL0     C84002  -1.603   2.414  10.547 -0.2166 -0.7867  0.5773
  623MOL0     C84003  -1.730   2.468  10.558  0.3522  0.4672 -0.6659
  623MOL0     C84004  -1.753   2.579  10.638 -0.8032 -0.4699 -0.2006
  623MOL0     O84005  -1.880   2.622  10.661  0.4948 -0.1282 -0.1141
  623MOL0     C84006  -1.946   2.676  10.551 -0.3438  0.0961  1.3862
  623MOL0     C84007  -1.905   2.820  10.521 -1.4731 -1.2608 -0.9741
  623MOL0     C84008  -1.952   2.883  10.387 -0.5435  0.7400 -0.7650
  623MOL0     C84009  -1.894   3.025  10.355  0.9218 -0.5682 -0.6495
  623MOL0     C84010  -1.968   3.092  10.235 -0.1172 -0.5387  0.0470
  623MOL0     C84011  -1.908   3.223  10.176  0.4622 -0.3360 -0.3787
  623MOL0     C84012  -1.858   3.305  10.295 -0.7829  0.2829 -0.0521
  623MOL0     C84013  -1.818   3.444  10.247  0.0215  0.3144 -1.0039
  623MOL0    Cl84014  -1.792   3.552  10.387  0.4462  0.2627 -0.4279
  623MOL0     C84015  -1.637   2.637  10.697  1.1988 -0.3780 -0.5308
  623MOL0     C84016  -1.508   2.589  10.671 -0.1730  0.1286 -0.4080
  623MOL0     O84017  -1.335   2.589  10.410 -0.4917 -1.1649 -0.0844
  623MOL0     C84018  -1.095   2.458  10.313  0.0546 -0.4005  0.3765
  623MOL0     C84019  -0.973   2.384  10.281  0.5423 -0.6441  0.6815
  623MOL0     N84020  -0.674   1.694  10.039  0.7575  0.2670 -0.0678
  623MOL0     N84021  -0.605   1.625  10.127  0.3149 -1.2635 -0.9009
  623MOL0     C84022   0.292   2.279  10.519 -0.2066 -0.2017  0.2082
  623MOL0     C84023   0.349   2.402  10.530  0.0421  0.2887  0.8488
  623MOL0     C84024   0.695   2.712  10.555 -0.8905 -0.6775 -0.1394
  623MOL0     C84025   0.672   2.777  10.671  0.3046  0.3208 -0.9975
  623MOL0     C84026   0.707   2.906  10.687  0.0116  0.0323  0.3835
  623MOL0     C84027   0.771   2.973  10.586 -0.6325  0.3068  0.2849
  623MOL0     O84028   0.821   3.102  10.598  0.1927 -0.0071  1.5787
  623MOL0     C84029   0.813   3.161  10.730 -0.4719 -0.0914  0.6339
  623MOL0     C84030   0.867   3.305  10.710  0.0534 -0.1654  0.2759
  623MOL0     C84031   0.913   3.379  10.848  0.8060  0.7541 -0.3337
  623MOL0     C84032   0.971   3.516  10.825  0.0229  1.6020  0.3266
  623MOL0     C84033   0.886   3.603  10.744 -0.5382  0.5810  0.7231
  623MOL0     C84034   0.830   3.665  10.662  1.0611 -0.2311  1.2589
  623MOL0     C84035   0.814   2.909  10.470  0.3441  0.0861  0.3122
  623MOL0     C84036   0.770   2.777  10.451  0.5069 -0.0737 -0.7396
  623MOL0     C84037   0.809   2.700  10.320  0.3135 -0.7212 -2.4415
  623MOL0     H84038   0.665   2.279  10.598 -0.6010  1.6895 -1.5322
  623MOL0     H84039   0.554   2.072  10.571 -0.3039 -1.0306  0.2542
  623MOL0     H84040   0.113   2.064  10.440 -0.1276 -0.2799 -0.8342
  623MOL0     H84041   0.234   2.118  10.326 -0.6408  2.1903  0.4013
  623MOL0     H84042   0.291   1.871  10.274 -0.4044  0.8472 -2.3782
  623MOL0     H84043   0.138   1.934  10.219  1.9477 -0.4579 -1.9685
  623MOL0     H84044   0.098   1.816  10.491 -0.9037 -1.2870  0.7766
  623MOL0     H84045   0.201   1.714  10.390  2.3604  3.3454  2.4820
  623MOL0     H84046  -0.066   1.837  10.328  0.8502  0.1588 -2.3837
  623MOL0     H84047   0.030   1.752  10.212  1.9503  1.8158  0.6321
  623MOL0     H84048  -0.044   1.553  10.294 -5.1362  0.8746 -0.7552
  623MOL0     H84049  -0.002   1.594  10.462  0.8918 -1.8791 -1.1229
  623MOL0     H84050  -0.239   1.527  10.439 -0.9245 -0.2875 -0.1489
  623MOL0     H84051  -0.229   1.704  10.476 -1.9379  2.0882 -1.7360
  623MOL0     H84052  -0.270   1.569  10.205 -1.6999  0.6750 -2.1069
  623MOL0     H84053  -0.251   1.745  10.226 -4.2052  0.3899 -1.0918
  623MOL0     H84054  -0.482   1.577  10.342 -2.5067  1.5637 -1.3516
  623MOL0     H84055  -0.445   1.746  10.362 -1.0411 -0.6189  2.5244
  623MOL0     H84056  -0.422   1.899  10.122 -0.5465 -0.5623  0.0858
  623MOL0     H84057  -0.589   1.996   9.929  2.3412  0.0018  2.4349
  623MOL0     H84058  -0.741   1.906   9.901  0.1764 -2.6761  1.2635
  623MOL0     H84059  -0.827   2.081  10.039 -0.9521  0.8019  1.8597
  623MOL0     H84060  -0.814   1.953  10.145 -1.2696  0.9318 -0.5289
  623MOL0     H84061  -0.587   2.135  10.092  1.4272  0.8336  0.9841
  623MOL0     H84062  -0.622   2.059  10.248  1.9068  1.1058 -0.1448
  623MOL0     H84063  -0.794   2.284  10.131 -1.1916 -0.9570 -0.1205
  623MOL0     H84064  -0.686   2.297  10.283 -1.8666 -0.4050  0.7953
  623MOL0     H84065  -1.049   2.094  10.437  0.5167 -0.5923 -0.9850
  623MOL0     H84066  -1.236   2.226  10.514  0.3542  1.2819  0.8548
  623MOL0     H84067  -1.599   2.327  10.483 -0.6519 -1.7109  1.7772
  623MOL0     H84068  -1.818   2.418  10.519 -0.5000 -1.2426  3.0217
  623MOL0     H84069  -1.916   2.623  10.460 -1.8995  2.6394 -0.7919
  623MOL0     H84070  -2.053   2.654  10.560  0.0549 -1.8182  1.7895
  623MOL0     H84071  -1.925   2.886  10.606  3.8369  0.4608 -0.6578
  623MOL0     H84072  -1.796   2.830  10.517 -1.6756  1.9700 -1.2381
  623MOL0     H84073  -1.948   2.818  10.299  1.0195  0.8240 -0.7869
  623MOL0     H84074  -2.059   2.902  10.398 -0.6012  0.5924 -1.0523
  623MOL0     H84075  -1.790   3.021  10.323  1.8652  2.7369  1.5488
  623MOL0     H84076  -1.925   3.088  10.439 -2.6812  1.5710 -3.2636
  623MOL0     H84077  -2.067   3.127  10.264  0.7102  3.5828 -1.4141
  623MOL0     H84078  -1.984   3.022  10.152 -0.0567 -2.6042  1.7087
  623MOL0     H84079  -1.834   3.202  10.099  0.1156 -2.6199 -0.1585
  623MOL0     H84080  -1.989   3.282  10.131 -1.5552 -2.6952 -0.0913
  623MOL0     H84081  -1.764   3.269  10.339 -2.0554 -0.4462  2.2742
  623MOL0     H84082  -1.942   3.312  10.366 -0.5874  1.1778  0.0996
  623MOL0     H84083  -1.727   3.448  10.186  0.2539  0.2604 -0.6632
  623MOL0     H84084  -1.903   3.480  10.187 -0.1997  1.0440 -0.2648
  623MOL0     H84085  -1.642   2.726  10.758 -1.2321 -1.2079  0.5894
  623MOL0     H84086  -1.429   2.648  10.715 -0.6061  1.7248 -1.6613
  623MOL0     H84087  -1.115   2.554  10.268 -0.2973 -0.4833  0.3549
  623MOL0     H84088  -0.903   2.436  10.216  1.7506 -0.5580  1.9865
  623MOL0     H84089   0.184   2.276  10.505 -0.6799  0.8137  3.0384
  623MOL0     H84090   0.301   2.498  10.512  1.1801  0.8472  0.6764
  623MOL0     H84091   0.619   2.721  10.748 -2.3840  2.2855 -1.2547
  623MOL0     H84092   0.682   2.955  10.780  0.0332  1.5315 -0.3656
  623MOL0     H84093   0.859   3.097  10.806 -1.0063 -1.0864  0.1428
  623MOL0     H84094   0.709   3.172  10.762 -0.5881  3.4408 -0.5050
  623MOL0     H84095   0.785   3.364  10.667  1.2954 -0.5652 -2.9165
  623MOL0     H84096   0.953   3.296  10.643  0.9500  0.7487  1.2541
  623MOL0     H84097   0.994   3.318  10.890 -0.0073 -0.3113 -0.2791
  623MOL0     H84098   0.823   3.378  10.911  2.4591  1.6406  2.2242
  623MOL0     H84099   0.971   3.555  10.928  0.2607  2.7736 -0.1056
  623MOL0     H84100   1.071   3.509  10.782  0.2209 -1.7807  1.0655
  623MOL0     H84101   0.785   3.719  10.581  3.0935 -0.0394  0.1898
  623MOL0     H84102   0.878   2.969  10.407  0.5180  0.8386  1.1814
  623MOL0     H84103   0.755   2.756  10.243 -1.8328 -2.0521 -1.9993
  623MOL0     H84104   0.917   2.702  10.302  0.5017 -1.2301 -1.4486
  623MOL0     H84105   0.773   2.597  10.318 -1.8607 -0.1227  0.2596
  624MOL0     O84106   8.739   7.868  10.001 -0.1019  0.2713 -0.4336
  624MOL0     C84107   8.741   7.871  10.126 -0.5675 -1.0217  0.2357
  624MOL0     O84108   8.658   7.810  10.210 -0.5766 -0.3979  0.0777
  624MOL0     C84109   8.595   7.694  10.157  0.1159  0.1493  0.2353
  624MOL0     C84110   8.640   7.564  10.186 -0.2455  0.3347 -0.1120
  624MOL0     C84111   8.586   7.445  10.135 -0.1872 -0.3402 -0.8529
  624MOL0     C84112   8.481   7.457  10.040 -0.7802 -0.0898  0.5331
  624MOL0     O84113   8.408   7.357   9.985  0.1836  0.4687  0.8732
  624MOL0     C84114   8.441   7.222  10.033 -0.1457  0.1652 -0.1130
  624MOL0     C84115   8.377   7.125   9.939  1.0352  0.8874 -0.0900
  624MOL0     C84116   8.326   6.997  10.010 -1.1357 -0.7537 -0.1232
  624MOL0     C84117   8.448   6.927  10.084 -0.1859 -0.0568  0.2356
  624MOL0     C84118   8.383   6.802  10.152 -0.6905 -0.3977 -0.2184
  624MOL0     C84119   8.481   6.679  10.137 -0.4802 -0.3357 -0.2466
  624MOL0     C84120   8.592   6.682  10.241  0.3931 -0.1597 -0.6048
  624MOL0     C84121   8.703   6.568  10.238 -0.1579  0.5727  0.2503
  624MOL0     N84122   8.665   6.441  10.304 -0.2057 -0.0727  0.0477
  624MOL0     C84123   8.703   6.310  10.283 -0.4306 -0.2961 -0.5863
  624MOL0     C84124   8.638   6.238  10.378 -0.1591  0.2505  0.6168
  624MOL0     C84125   8.665   6.096  10.404 -0.6419  0.3606 -0.2242
  624MOL0     C84126   8.661   6.075  10.557 -1.0659 -1.5259  0.1349
  624MOL0     C84127   8.766   6.168  10.639 -0.2765  0.3609 -0.1380
  624MOL0     C84128   8.801   6.109  10.777  0.1524 -0.1220 -0.0476
  624MOL0     O84129   8.720   6.005  10.804 -1.1170  0.6285 -0.7094
  624MOL0     C84130   8.739   5.946  10.927  0.1695  0.0667 -1.1178
  624MOL0     C84131   8.670   5.831  10.942  0.0113  0.0627  0.7439
  624MOL0     C84132   8.691   5.750  11.052 -0.2457  0.3523  0.3474
  624MOL0     C84133   8.765   5.790  11.160 -0.5452 -0.2442  0.2513
  624MOL0     C84134   8.777   5.709  11.282 -0.4402 -0.5632 -0.2302
  624MOL0     O84135   8.702   5.599  11.300  0.1267 -0.0745  0.1871
  624MOL0     C84136   8.708   5.509  11.401 -0.5613 -0.3949  0.0045
  624MOL0     C84137   8.659   5.381  11.370 -0.1227  0.1625 -0.4786
  624MOL0     C84138   8.641   5.295  11.479  0.4033  0.4292 -0.0081
  624MOL0     C84139   8.687   5.326  11.609 -1.0285 -0.4978  0.6366
  624MOL0     O84140   8.683   5.232  11.709 -0.0293 -0.1488  0.3533
  624MOL0     C84141   8.708   5.267  11.850 -0.1699 -0.6028  0.3359
  624MOL0     C84142   8.657   5.159  11.940 -0.2852 -0.4657  0.2020
  624MOL0     C84143   8.691   5.168  12.093 -0.1993 -0.7760 -0.5846
  624MOL0     C84144   8.630   5.053  12.178 -0.5007 -0.2767  0.2359
  624MOL0     C84145   8.665   5.069  12.324  0.2564 -1.1473  0.6407
  624MOL0     C84146   8.628   4.952  12.411  0.0912  0.3597 -0.2283
  624MOL0     C84147   8.472   4.928  12.429 -0.1127  0.5936  0.3338
  624MOL0     C84148   8.446   4.799  12.505 -0.6415 -0.3378 -0.6946
  624MOL0    Cl84149   8.440   4.833  12.680 -0.3867  0.5642  0.4875
  624MOL0     C84150   8.734   5.450  11.633 -0.4999  0.0397  0.3566
  624MOL0     C84151   8.743   5.548  11.526  0.7159  0.3928 -1.4450
  624MOL0     O84152   8.875   5.741  11.352 -0.1378 -0.0694 -0.9994
  624MOL0     C84153   8.844   5.905  11.150  0.3687 -0.1844 -0.0984
  624MOL0     C84154   8.826   5.987  11.030  0.0758  0.0842 -0.3533
  624MOL0     N84155   8.543   6.322  10.433 -0.0615 -0.0849 -0.5144
  624MOL0     N84156   8.566   6.441  10.393  1.3211 -0.3536  0.3103
  624MOL0     C84157   8.430   7.595  10.009 -0.3336  0.2586  0.0499
  624MOL0     C84158   8.493   7.714  10.070 -0.8848  0.7309 -0.6543
  624MOL0     C84159   8.840   7.960  10.186 -0.2515 -0.3646  0.4883
  624MOL0     C84160   8.783   8.054  10.265  0.9747 -0.3803  0.4192
  624MOL0     C84161   8.858   8.153  10.329 -0.5216  0.5442 -0.6144
  624MOL0     C84162   8.996   8.155  10.318 -0.7069 -0.1926  0.7582
  624MOL0     O84163   9.088   8.242  10.376 -0.3406  0.3499 -0.4984
  624MOL0     C84164   9.117   8.361  10.301 -0.1744 -0.0792  0.6836
  624MOL0     C84165   9.232   8.440  10.361 -0.0408 -1.2458  0.0781
  624MOL0     C84166   9.253   8.585  10.295  0.0752  0.0128 -0.0220
  624MOL0     C84167   9.368   8.587  10.194  0.1055 -0.9812 -0.1370
  624MOL0     C84168   9.381   8.721  10.137  0.3558  0.1093 -0.0766
  624MOL0     C84169   9.378   8.833  10.094 -0.0926  0.0769 -0.5254
  624MOL0     C84170   9.059   8.061  10.233  0.4285 -0.2528  0.2960
  624MOL0     C84171   8.983   7.961  10.165 -0.2728  0.1003 -0.2036
  624MOL0     C84172   9.059   7.851  10.092  0.3262 -0.3799 -0.1193
  624MOL0     H84173   8.730   7.567  10.246 -0.8523  1.5831  0.7764
  624MOL0     H84174   8.630   7.352  10.169  0.4877 -0.4984 -2.1005
  624MOL0     H84175   8.549   7.202  10.035 -0.7432 -4.0391 -1.3487
  624MOL0     H84176   8.402   7.215  10.135 -0.2882  0.2604 -0.1606
  624MOL0     H84177   8.460   7.110   9.868 -0.2834 -1.9370 -1.1833
  624MOL0     H84178   8.292   7.171   9.889  0.7915 -1.7129 -2.3120
  624MOL0     H84179   8.283   6.924   9.940 -0.3503  0.3394 -1.8165
  624MOL0     H84180   8.249   7.025  10.083 -0.9199  1.9293 -0.8181
  624MOL0     H84181   8.522   6.888  10.013  1.5827  0.6034  1.6700
  624MOL0     H84182   8.499   6.988  10.159 -1.2058 -1.9422  2.6040
  624MOL0     H84183   8.361   6.818  10.258  0.4568  0.0487 -0.0333
  624MOL0     H84184   8.288   6.781  10.102 -1.6982  0.6937  1.1418
  624MOL0     H84185   8.429   6.584  10.150  1.9235 -1.7980 -0.6686
  624MOL0     H84186   8.515   6.673  10.033  1.4273 -4.9139  0.3936
  624MOL0     H84187   8.551   6.697  10.341  0.7800  1.5731 -0.6665
  624MOL0     H84188   8.647   6.775  10.220  3.6544 -1.0836  2.8107
  624MOL0     H84189   8.748   6.546  10.141  0.0577  0.3743  0.3933
  624MOL0     H84190   8.776   6.615  10.304 -3.5240  3.0797  2.5280
  624MOL0     H84191   8.777   6.259  10.223 -2.9393 -2.4130 -2.0272
  624MOL0     H84192   8.594   6.025  10.359 -1.4781  0.4396  0.9285
  624MOL0     H84193   8.766   6.071  10.369 -0.3708  1.4110 -0.2388
  624MOL0     H84194   8.560   6.075  10.600  0.5124  0.2787  4.4225
  624MOL0     H84195   8.705   5.975  10.567 -0.1289 -1.0122  1.4178
  624MOL0     H84196   8.725   6.269  10.649 -3.2226 -0.6977 -0.2764
  624MOL0     H84197   8.859   6.171  10.582  0.5730 -5.1913  0.3626
  624MOL0     H84198   8.797   6.189  10.852  0.6119 -0.7384  0.6459
  624MOL0     H84199   8.902   6.068  10.778  0.5186  0.4425 -3.2396
  624MOL0     H84200   8.599   5.800  10.867  0.8229  1.2373 -0.5604
  624MOL0     H84201   8.641   5.653  11.053  3.2275 -1.6805 -1.3396
  624MOL0     H84202   8.624   5.354  11.271  1.0140 -2.0014 -0.3492
  624MOL0     H84203   8.596   5.198  11.464  0.7675  0.2820 -0.1599
  624MOL0     H84204   8.813   5.294  11.864  0.0785 -0.1860 -1.9541
  624MOL0     H84205   8.642   5.351  11.875 -3.4709 -2.1100 -2.4441
  624MOL0     H84206   8.549   5.167  11.931 -0.8697 -5.1373  0.5582
  624MOL0     H84207   8.690   5.067  11.889 -0.3098  0.0729 -0.8264
  624MOL0     H84208   8.798   5.154  12.111 -0.6542 -0.6018  3.2118
  624MOL0     H84209   8.664   5.260  12.145  2.7011  0.3427 -0.8383
  624MOL0     H84210   8.656   4.951  12.147  1.2275  0.0678  0.4595
  624MOL0     H84211   8.523   5.053  12.153 -0.4360 -1.9260 -0.1701
  624MOL0     H84212   8.619   5.154  12.376  2.6586 -1.8101  4.1891
  624MOL0     H84213   8.774   5.077  12.330  0.6218 -2.9733 -1.9590
  624MOL0     H84214   8.670   4.855  12.382 -0.5103 -0.0759  0.3381
  624MOL0     H84215   8.673   4.978  12.507  0.4138 -2.4744  0.4710
  624MOL0     H84216   8.423   4.917  12.331 -1.4166  0.1396  1.0075
  624MOL0     H84217   8.432   5.021  12.472  0.0034  3.2678 -4.5463
  624MOL0     H84218   8.357   4.738  12.487 -0.2607 -1.0225 -0.3155
  624MOL0     H84219   8.534   4.740  12.477 -0.0517  0.3941 -0.4054
  624MOL0     H84220   8.758   5.478  11.735  2.2037 -0.5535 -0.0547
  624MOL0     H84221   8.782   5.648  11.534  2.0974 -0.1268 -1.3842
  624MOL0     H84222   8.898   5.948  11.234  2.0874 -2.8305  0.2699
  624MOL0     H84223   8.876   6.083  11.029 -0.0340  0.2879  2.8731
  624MOL0     H84224   8.352   7.595   9.934  1.5737  4.5865 -2.2970
  624MOL0     H84225   8.458   7.815  10.053  0.6043  2.0981  3.2715
  624MOL0     H84226   8.677   8.054  10.292  0.9698  0.5968  0.4406
  624MOL0     H84227   8.814   8.219  10.403 -1.0260 -0.9232  0.4714
  624MOL0     H84228   9.028   8.423  10.285 -0.0147 -0.7009 -3.4663
  624MOL0     H84229   9.153   8.331  10.203 -1.2158 -0.5946  0.4509
  624MOL0     H84230   9.317   8.373  10.347 -1.6598 -3.1479 -1.2520
  624MOL0     H84231   9.221   8.451  10.469  0.4495 -1.0492  0.1126
  624MOL0     H84232   9.267   8.662  10.371 -0.6015 -0.8502  1.0071
  624MOL0     H84233   9.160   8.609  10.244 -1.4569 -2.3029  1.4698
  624MOL0     H84234   9.459   8.551  10.242  0.7750 -0.3000 -0.8533
  624MOL0     H84235   9.349   8.528  10.104  5.2756  1.7001 -3.5181
  624MOL0     H84236   9.355   8.934  10.067 -4.0505 -1.0577 -2.2181
  624MOL0     H84237   9.167   8.057  10.226  0.6823  1.9921  2.1061
  624MOL0     H84238   9.034   7.868   9.987  1.9438  1.8249 -0.2141
  624MOL0     H84239   9.166   7.860  10.113  0.5503 -3.0630  0.2299
  624MOL0     H84240   9.038   7.750  10.128 -3.2562 -0.3693 -1.7695
  625MOL0     O84241   9.764   1.725   8.244 -0.7831 -0.7064  0.4492
  625MOL0     C84242   9.758   1.830   8.299  0.5200 -0.8251  0.2415
  625MOL0     O84243   9.667   1.925   8.264  0.0512  0.9236  0.5567
  625MOL0     C84244   9.558   1.896   8.182 -0.2022 -0.4180  0.1749
  625MOL0     C84245   9.442   1.963   8.214  0.0568 -0.0919  0.3502
  625MOL0     C84246   9.321   1.935   8.154  0.2652  0.4778  0.2231
  625MOL0     C84247   9.308   1.847   8.041 -0.6063 -0.7866  0.3033
  625MOL0     O84248   9.191   1.839   7.963  0.3760  0.9633 -0.6792
  625MOL0     C84249   9.108   1.951   7.968 -0.2529  0.1688  0.4709
  625MOL0     C84250   8.994   1.930   7.867  0.3384 -0.0474  0.7895
  625MOL0     C84251   8.929   1.790   7.898 -0.8639  0.5331  0.1444
  625MOL0     C84252   8.783   1.794   7.843  0.5465 -0.2460 -0.6926
  625MOL0     C84253   8.719   1.652   7.867 -0.3556  0.1333  0.4665
  625MOL0     C84254   8.576   1.621   7.824 -0.6184  0.0351 -0.5509
  625MOL0     C84255   8.465   1.714   7.872  0.6612  0.4882 -0.5452
  625MOL0     C84256   8.323   1.672   7.843  0.3965  0.1630 -0.5580
  625MOL0     N84257   8.285   1.645   7.703 -0.4454 -0.1102 -0.3129
  625MOL0     C84258   8.323   1.539   7.628 -0.0519  0.8172  0.3636
  625MOL0     C84259   8.286   1.586   7.499 -0.3812 -0.1894 -0.2802
  625MOL0     C84260   8.348   1.524   7.381  0.1005  0.0709 -0.3166
  625MOL0     C84261   8.481   1.567   7.352 -0.2282 -0.5491  0.2729
  625MOL0     C84262   8.507   1.722   7.339  1.2499 -0.5196 -0.5122
  625MOL0     C84263   8.644   1.768   7.306 -0.9485  0.0914  0.1249
  625MOL0     O84264   8.743   1.715   7.390 -0.6985 -0.5138 -0.3490
  625MOL0     C84265   8.875   1.763   7.379  0.0040 -0.1819 -0.8121
  625MOL0     C84266   8.934   1.829   7.276 -0.4892  0.5770  0.3279
  625MOL0     C84267   9.065   1.874   7.290 -0.1631 -0.4606  0.9661
  625MOL0     C84268   9.139   1.867   7.404 -0.7227 -0.1637 -0.5173
  625MOL0     C84269   9.285   1.917   7.416  1.2009  0.6589  0.4611
  625MOL0     O84270   9.350   1.965   7.306 -0.3803 -0.6995  0.1468
  625MOL0     C84271   9.463   2.042   7.327 -0.0969  0.0256 -0.5876
  625MOL0     C84272   9.565   1.978   7.391  0.2747 -0.6875  0.2673
  625MOL0     C84273   9.692   2.032   7.390  0.0876  0.6498  0.5697
  625MOL0     C84274   9.716   2.162   7.342 -0.5951 -0.2647  0.3334
  625MOL0     O84275   9.839   2.217   7.381  0.9996  0.3174 -0.0332
  625MOL0     C84276   9.879   2.340   7.326  0.0117 -0.2166 -0.6372
  625MOL0     C84277   9.919   2.324   7.173 -0.4822 -0.3549 -0.2911
  625MOL0     C84278   9.973   2.447   7.114 -0.2069 -0.6135 -0.3876
  625MOL0     C84279   9.984   2.433   6.963  0.2362 -0.1336 -0.1326
  625MOL0     C84280  10.057   2.550   6.884 -0.4152  0.0533 -0.6135
  625MOL0     C84281   9.966   2.676   6.874  0.2674 -0.3488  0.1007
  625MOL0     C84282  10.018   2.781   6.776 -0.1751 -0.3349  0.2261
  625MOL0     C84283  10.152   2.839   6.810  0.5096  1.5638 -0.4061
  625MOL0    Cl84284  10.185   2.926   6.971  0.4997  0.2464  0.3726
  625MOL0     C84285   9.608   2.236   7.284 -0.6057 -0.5571 -0.0087
  625MOL0     C84286   9.486   2.174   7.281 -0.4646 -0.5524  0.2146
  625MOL0     O84287   9.326   1.914   7.534  0.7395  0.3190  1.1552
  625MOL0     C84288   9.071   1.805   7.513 -0.2436 -0.1599 -0.6651
  625MOL0     C84289   8.941   1.748   7.497  0.6300  0.1611 -0.5652
  625MOL0     N84290   8.222   1.712   7.500 -0.0451 -0.2509  0.5627
  625MOL0     N84291   8.239   1.748   7.625 -0.2753  0.3345 -0.3455
  625MOL0     C84292   9.432   1.783   8.001 -0.4625 -0.4573 -0.1862
  625MOL0     C84293   9.550   1.800   8.079  1.4943 -1.2063 -0.9720
  625MOL0     C84294   9.857   1.862   8.401 -0.8046 -0.0186  0.0094
  625MOL0     C84295   9.962   1.778   8.408  0.0655 -0.2130 -0.0071
  625MOL0     C84296  10.066   1.806   8.505 -0.0698  0.5730 -0.3784
  625MOL0     C84297  10.063   1.920   8.594 -0.6870 -0.6334  0.5681
  625MOL0     O84298  10.175   1.953   8.663  0.0046  0.2346 -0.4938
  625MOL0     C84299  10.166   2.002   8.802 -0.1880 -0.9773 -0.4045
  625MOL0     C84300  10.296   1.992   8.877  0.2854 -0.1365 -0.1540
  625MOL0     C84301  10.361   1.853   8.894 -0.9131 -0.2738 -1.1833
  625MOL0     C84302  10.510   1.886   8.937  0.8493  1.0199 -0.3848
  625MOL0     C84303  10.562   1.762   8.987  0.4438  1.0180 -1.0165
  625MOL0     C84304  10.592   1.658   9.040 -0.2458 -0.1946 -0.1796
  625MOL0     C84305   9.940   1.982   8.607 -1.2201 -0.4456  0.4155
  625MOL0     C84306   9.840   1.960   8.509  0.2947  0.1109  0.3246
  625MOL0     C84307   9.722   2.037   8.534 -0.9920  0.0720 -0.3478
  625MOL0     H84308   9.450   2.041   8.289  0.5291 -0.2715  0.4924
  625MOL0     H84309   9.231   1.984   8.190  1.4197  3.0811 -0.1716
  625MOL0     H84310   9.059   1.971   8.064 -0.5176  0.2148  0.3291
  625MOL0     H84311   9.170   2.039   7.950  3.1183 -2.1879 -0.4440
  625MOL0     H84312   9.033   1.922   7.765 -0.6417 -0.4376  0.4293
  625MOL0     H84313   8.925   2.015   7.873 -2.1197 -1.4260 -3.7278
  625MOL0     H84314   8.937   1.766   8.004  0.1972 -0.9548 -0.2527
  625MOL0     H84315   8.978   1.713   7.838  1.3145  0.7053  1.5793
  625MOL0     H84316   8.719   1.868   7.891  1.7581  0.5671 -0.2937
  625MOL0     H84317   8.776   1.828   7.740 -0.0147  2.3701  0.1371
  625MOL0     H84318   8.773   1.571   7.817 -4.0421 -0.7598 -2.4528
  625MOL0     H84319   8.723   1.625   7.973 -0.0687  1.0605  0.7014
  625MOL0     H84320   8.580   1.628   7.715 -1.0598 -1.3403 -0.6776
  625MOL0     H84321   8.549   1.524   7.867 -2.6357  1.1138  0.7619
  625MOL0     H84322   8.476   1.817   7.838  1.8983  0.6671  0.3231
  625MOL0     H84323   8.466   1.719   7.981  1.3364 -1.5646 -0.4078
  625MOL0     H84324   8.289   1.587   7.903  0.8718 -0.1613 -0.7415
  625MOL0     H84325   8.266   1.761   7.873  1.0855  0.2821  0.4494
  625MOL0     H84326   8.354   1.442   7.665 -0.5775 -0.7011 -2.7921
  625MOL0     H84327   8.351   1.416   7.401 -2.1049 -0.5543 -2.7454
  625MOL0     H84328   8.277   1.529   7.298 -0.0841 -0.8693 -0.2288
  625MOL0     H84329   8.552   1.547   7.433  1.8074 -0.1257 -1.3206
  625MOL0     H84330   8.523   1.519   7.262  2.6221  0.3446  1.0307
  625MOL0     H84331   8.480   1.764   7.436 -0.3043 -2.0795 -0.2161
  625MOL0     H84332   8.443   1.755   7.257 -0.2837 -2.9797 -0.4051
  625MOL0     H84333   8.654   1.876   7.316  3.6521  0.3206 -3.4438
  625MOL0     H84334   8.662   1.735   7.203  0.2394 -0.5358  0.5153
  625MOL0     H84335   8.887   1.840   7.178 -1.2315  1.2866  0.7443
  625MOL0     H84336   9.109   1.927   7.206  1.7310  0.6246  2.5443
  625MOL0     H84337   9.553   1.884   7.444  0.7574 -2.5726 -2.6978
  625MOL0     H84338   9.787   1.997   7.430  1.2460  1.5267 -1.2884
  625MOL0     H84339   9.806   2.421   7.337 -0.1109 -0.6100  2.0518
  625MOL0     H84340   9.962   2.375   7.387 -1.8457  2.0176  0.7798
  625MOL0     H84341   9.990   2.242   7.166 -0.7122 -0.4678 -1.4228
  625MOL0     H84342   9.831   2.286   7.120 -1.1335 -0.1175  0.5881
  625MOL0     H84343   9.914   2.538   7.130  0.6011  0.9874 -4.9399
  625MOL0     H84344  10.070   2.458   7.162 -0.2946  0.2944 -0.4071
  625MOL0     H84345   9.894   2.427   6.901  0.3498  1.3871 -0.5093
  625MOL0     H84346  10.045   2.344   6.944 -0.9743 -0.9589 -0.2773
  625MOL0     H84347  10.080   2.505   6.787  1.4455 -1.2133  0.3599
  625MOL0     H84348  10.152   2.558   6.936 -0.8857 -1.7994  0.6364
  625MOL0     H84349   9.864   2.654   6.842  0.5848  0.8145 -1.9374
  625MOL0     H84350   9.958   2.723   6.972 -0.4879  0.3781 -0.2937
  625MOL0     H84351   9.940   2.858   6.782 -1.3125 -1.1251 -2.6443
  625MOL0     H84352  10.020   2.742   6.674  2.2825 -0.0609  0.1021
  625MOL0     H84353  10.219   2.754   6.794  0.5086  1.6345 -0.8174
  625MOL0     H84354  10.174   2.911   6.730  2.1870  0.3813 -1.0773
  625MOL0     H84355   9.613   2.343   7.265  1.2566 -0.7952 -1.0372
  625MOL0     H84356   9.396   2.235   7.268 -2.8285 -3.5846  1.1395
  625MOL0     H84357   9.116   1.790   7.611  0.9295  1.4500 -0.9140
  625MOL0     H84358   8.891   1.699   7.580  2.6811  2.7624  2.4680
  625MOL0     H84359   9.451   1.727   7.910  1.0086  0.8038 -0.7186
  625MOL0     H84360   9.641   1.761   8.035  1.5021 -0.1081 -1.9775
  625MOL0     H84361   9.972   1.704   8.330 -0.7429  0.2495 -0.5688
  625MOL0     H84362  10.144   1.733   8.489  0.4028  0.8053  0.7741
  625MOL0     H84363  10.090   1.957   8.866 -0.0283  0.8922  1.2040
  625MOL0     H84364  10.133   2.105   8.788 -1.0936 -1.1543  0.3376
  625MOL0     H84365  10.268   2.017   8.980  0.2815 -1.6965  0.2438
  625MOL0     H84366  10.364   2.073   8.849  0.5264  0.7193  2.5548
  625MOL0     H84367  10.371   1.795   8.802 -2.1687 -3.6843  0.6315
  625MOL0     H84368  10.299   1.792   8.961 -0.9652 -0.3576 -1.3060
  625MOL0     H84369  10.576   1.929   8.861  2.5933 -0.1045  0.4026
  625MOL0     H84370  10.508   1.956   9.022  0.3255  1.7938 -1.0228
  625MOL0     H84371  10.626   1.563   9.077  4.6986  1.6082  0.7283
  625MOL0     H84372   9.917   2.048   8.690 -0.9997 -0.9909  0.9218
  625MOL0     H84373   9.739   2.115   8.608  1.7371 -0.7742  0.0209
  625MOL0     H84374   9.685   2.082   8.441  0.2887  1.8962 -0.0286
  625MOL0     H84375   9.647   1.962   8.562 -2.8911  1.7286 -0.7363
  626MOL0     O84376   3.881   7.127   7.545 -0.6229 -0.2652 -0.1158
  626MOL0     C84377   3.767   7.088   7.577  0.2608  0.3325  0.2251
  626MOL0     O84378   3.660   7.078   7.495 -0.4577  0.0949 -0.4220
  626MOL0     C84379   3.674   7.062   7.357  0.6113  0.6182 -0.3517
  626MOL0     C84380   3.594   7.124   7.261 -0.1534 -0.5176 -0.8122
  626MOL0     C84381   3.632   7.118   7.126  0.0943 -0.3167  0.0081
  626MOL0     C84382   3.727   7.017   7.085  0.2006 -0.9468 -1.1314
  626MOL0     O84383   3.749   7.006   6.948 -0.2858 -0.1950  0.1136
  626MOL0     C84384   3.866   6.942   6.904 -0.0871  0.6974 -0.3686
  626MOL0     C84385   3.866   6.967   6.748 -0.9159 -0.8880  0.3465
  626MOL0     C84386   3.890   7.119   6.711 -1.0801  0.3519 -0.6068
  626MOL0     C84387   3.927   7.132   6.564  0.0391 -0.0525  0.5605
  626MOL0     C84388   3.935   7.286   6.531 -0.0372 -0.1613  0.5451
  626MOL0     C84389   3.807   7.371   6.531 -0.4085 -0.1112 -0.6433
  626MOL0     C84390   3.833   7.510   6.464  0.0307 -0.2133  0.1016
  626MOL0     C84391   3.715   7.609   6.457  0.3317  0.5648  0.0133
  626MOL0     N84392   3.646   7.619   6.583  0.9692  0.3236 -0.4244
  626MOL0     C84393   3.513   7.640   6.609  1.4634 -0.6557  0.3253
  626MOL0     C84394   3.496   7.672   6.739 -0.8629 -0.7887  0.1631
  626MOL0     C84395   3.368   7.721   6.795  0.5453 -0.1604 -0.1825
  626MOL0     C84396   3.294   7.609   6.868 -0.1149 -0.0997 -0.7023
  626MOL0     C84397   3.178   7.670   6.950 -0.2439  0.7429 -0.7042
  626MOL0     C84398   3.050   7.565   6.936 -0.5013  1.1003  0.0339
  626MOL0     O84399   3.106   7.446   7.004 -0.0597  0.1301  0.3401
  626MOL0     C84400   3.020   7.352   7.067  0.4869  0.2206  0.3340
  626MOL0     C84401   2.885   7.367   7.087 -0.2670  0.2576  0.0916
  626MOL0     C84402   2.812   7.257   7.147  0.0945  0.2371  0.6507
  626MOL0     C84403   2.881   7.143   7.190 -0.4063  0.1811  0.3317
  626MOL0     C84404   2.812   7.027   7.248  0.0489 -0.5096  0.0440
  626MOL0     O84405   2.671   7.017   7.228  1.3261  0.1787 -0.4054
  626MOL0     C84406   2.608   6.901   7.265 -0.3617 -0.4423  0.1022
  626MOL0     C84407   2.534   6.893   7.386 -0.6354  0.4741 -0.2443
  626MOL0     C84408   2.473   6.773   7.420 -0.7080  0.0198 -0.4203
  626MOL0     C84409   2.485   6.658   7.344 -0.0901  0.1037 -0.3180
  626MOL0     O84410   2.426   6.540   7.374 -0.0017 -0.4873 -0.2766
  626MOL0     C84411   2.441   6.423   7.298 -0.0931 -0.0379 -0.2470
  626MOL0     C84412   2.370   6.301   7.345 -0.2327  0.4313 -0.6734
  626MOL0     C84413   2.461   6.215   7.434 -1.1355  0.3410 -0.1111
  626MOL0     C84414   2.498   6.263   7.578  0.0238  0.4153  0.1236
  626MOL0     C84415   2.596   6.188   7.652 -0.3178 -0.9750 -0.0875
  626MOL0     C84416   2.625   6.271   7.781  0.4337 -0.1796  0.1278
  626MOL0     C84417   2.710   6.184   7.874 -0.8943  0.5729  0.0228
  626MOL0     C84418   2.777   6.274   7.981 -0.2076 -0.1641 -0.3624
  626MOL0    Cl84419   2.868   6.419   7.918 -0.2602 -0.3137  0.1160
  626MOL0     C84420   2.543   6.673   7.217 -0.2781 -0.6637 -0.5350
  626MOL0     C84421   2.607   6.793   7.180 -1.1003  0.0055 -0.6895
  626MOL0     O84422   2.883   6.943   7.299 -0.0372 -0.4932 -0.2376
  626MOL0     C84423   3.018   7.138   7.170  0.3653  0.1956 -0.3091
  626MOL0     C84424   3.086   7.235   7.100  1.4020 -0.1684  0.7364
  626MOL0     N84425   3.614   7.667   6.805 -0.2802  0.0800 -0.6784
  626MOL0     N84426   3.705   7.645   6.712  0.3151  0.0636 -0.0193
  626MOL0     C84427   3.782   6.935   7.178 -0.5508 -0.3713 -0.8140
  626MOL0     C84428   3.761   6.956   7.313 -0.0659  0.0911  0.4722
  626MOL0     C84429   3.742   7.028   7.709 -0.0903  0.2029 -0.8357
  626MOL0     C84430   3.611   7.037   7.768 -0.0850 -0.0356 -0.3407
  626MOL0     C84431   3.576   6.968   7.886 -0.3206 -1.7211 -0.8299
  626MOL0     C84432   3.686   6.913   7.967  1.0499  0.2334  0.2475
  626MOL0     O84433   3.675   6.864   8.095  0.1273  0.6182  0.9032
  626MOL0     C84434   3.547   6.809   8.125  0.3854  0.4450 -0.0198
  626MOL0     C84435   3.454   6.920   8.179  0.2466  0.1978 -0.7137
  626MOL0     C84436   3.427   6.914   8.326 -0.1237 -0.7880  0.9622
  626MOL0     C84437   3.316   7.011   8.361 -1.1629 -0.5595 -0.1603
  626MOL0     C84438   3.355   7.147   8.369 -0.7061  0.0724 -0.9486
  626MOL0     C84439   3.378   7.265   8.394  0.0360  0.0476  0.0838
  626MOL0     C84440   3.810   6.915   7.917  0.3298  1.2212 -0.3851
  626MOL0     C84441   3.835   6.957   7.785  0.3930 -0.2542  0.4049
  626MOL0     C84442   3.976   6.947   7.740  0.6348  0.7228  0.7248
  626MOL0     H84443   3.528   7.202   7.296 -2.6092 -2.5394 -0.6091
  626MOL0     H84444   3.580   7.180   7.054 -0.3673 -0.2231  0.4142
  626MOL0     H84445   3.958   6.992   6.934  0.9521 -1.3622  0.0536
  626MOL0     H84446   3.869   6.836   6.929  0.5792  0.3982 -1.6275
  626MOL0     H84447   3.773   6.924   6.710 -1.4567 -0.7458  1.4705
  626MOL0     H84448   3.943   6.902   6.706 -1.8134 -2.5552  1.1744
  626MOL0     H84449   3.970   7.148   6.780 -2.8086 -1.8568  2.5685
  626MOL0     H84450   3.795   7.166   6.739 -1.3666 -0.9339  0.7278
  626MOL0     H84451   4.029   7.099   6.539  0.3988  1.5505 -0.2566
  626MOL0     H84452   3.863   7.068   6.503  2.1376  0.1236 -2.0762
  626MOL0     H84453   4.012   7.346   6.581 -1.2265  1.6659  0.2558
  626MOL0     H84454   3.958   7.278   6.424 -1.4076  0.6725  0.1643
  626MOL0     H84455   3.733   7.313   6.475  1.9392 -0.8383 -3.2184
  626MOL0     H84456   3.777   7.382   6.636  0.5988 -0.4300 -0.3131
  626MOL0     H84457   3.856   7.497   6.358  2.1699  0.0815  0.4815
  626MOL0     H84458   3.922   7.556   6.509 -0.6254  1.2205 -0.0268
  626MOL0     H84459   3.725   7.710   6.415  2.4421 -0.6858 -2.8224
  626MOL0     H84460   3.650   7.550   6.392  1.0578 -0.6845  0.3906
  626MOL0     H84461   3.427   7.627   6.544  1.9813 -2.1509 -0.1169
  626MOL0     H84462   3.376   7.812   6.855  0.4486  0.1207 -0.5875
  626MOL0     H84463   3.292   7.757   6.725 -4.2407 -0.5546  4.2605
  626MOL0     H84464   3.259   7.541   6.790 -2.6277  1.0230 -0.6505
  626MOL0     H84465   3.366   7.555   6.930  0.6507 -0.1010 -1.5677
  626MOL0     H84466   3.156   7.774   6.922 -1.1508  0.5637 -0.6899
  626MOL0     H84467   3.207   7.675   7.055 -1.0597  0.9404 -0.4776
  626MOL0     H84468   3.020   7.531   6.836 -0.2728 -1.0153  0.6364
  626MOL0     H84469   2.970   7.606   6.999  1.0924  3.2061  0.7849
  626MOL0     H84470   2.844   7.460   7.047 -0.1080 -0.4709 -1.8903
  626MOL0     H84471   2.703   7.255   7.148  0.0729 -1.9518 -0.3477
  626MOL0     H84472   2.541   6.981   7.450  1.0044  0.4811 -0.3846
  626MOL0     H84473   2.411   6.762   7.509 -1.3974 -3.9687 -1.1803
  626MOL0     H84474   2.405   6.429   7.195 -0.9951 -3.1803 -0.2202
  626MOL0     H84475   2.547   6.398   7.288  0.2456  2.0324 -3.5878
  626MOL0     H84476   2.284   6.326   7.408  1.0804 -0.5653  1.6254
  626MOL0     H84477   2.334   6.240   7.262  2.4094  1.0065 -2.3678
  626MOL0     H84478   2.434   6.110   7.435 -0.9698  0.2939 -0.6008
  626MOL0     H84479   2.563   6.212   7.395 -1.1390  0.3389 -0.1204
  626MOL0     H84480   2.408   6.261   7.641 -0.0654 -2.2825  0.0584
  626MOL0     H84481   2.536   6.364   7.563  0.2611 -0.1413 -3.9595
  626MOL0     H84482   2.681   6.165   7.586 -0.6809  0.2287 -1.0038
  626MOL0     H84483   2.541   6.097   7.678 -0.6977 -0.2798  1.6977
  626MOL0     H84484   2.674   6.363   7.749  0.6453 -0.3325  0.0138
  626MOL0     H84485   2.529   6.283   7.833  0.5518 -3.2351  1.2996
  626MOL0     H84486   2.783   6.145   7.803 -1.7049 -1.1635  0.1077
  626MOL0     H84487   2.669   6.094   7.920  0.6109  0.3689  1.0176
  626MOL0     H84488   2.704   6.308   8.055 -1.5387 -0.6478 -1.4077
  626MOL0     H84489   2.844   6.199   8.024  0.3945 -0.9102 -2.4594
  626MOL0     H84490   2.529   6.601   7.137 -2.1640 -0.7007 -0.2258
  626MOL0     H84491   2.663   6.793   7.087  1.7195  2.1586  0.8711
  626MOL0     H84492   3.076   7.047   7.183  1.0094  0.7439  0.8579
  626MOL0     H84493   3.189   7.215   7.075  2.2679 -0.4202  4.0198
  626MOL0     H84494   3.849   6.851   7.161  2.7849  2.0778 -0.7927
  626MOL0     H84495   3.811   6.903   7.393 -1.7290  0.5434  1.8777
  626MOL0     H84496   3.544   7.109   7.722  1.5914  2.1317  0.3929
  626MOL0     H84497   3.472   6.981   7.914 -0.0128 -2.8541  0.9394
  626MOL0     H84498   3.546   6.719   8.187  0.9248  0.6942  0.3586
  626MOL0     H84499   3.498   6.775   8.033 -1.9867  0.2691  1.2138
  626MOL0     H84500   3.358   6.920   8.127 -0.8088 -1.1031  1.1185
  626MOL0     H84501   3.516   7.010   8.170 -1.6616  1.7823  1.1287
  626MOL0     H84502   3.518   6.946   8.377  1.9906 -0.5635 -2.6298
  626MOL0     H84503   3.396   6.815   8.359 -0.7033 -0.5748  1.0702
  626MOL0     H84504   3.229   6.998   8.297  0.2810  2.3373 -3.0199
  626MOL0     H84505   3.275   6.977   8.457  1.6707 -2.0408  0.6206
  626MOL0     H84506   3.400   7.369   8.409  0.8426 -0.0166 -0.6135
  626MOL0     H84507   3.887   6.886   7.988 -0.7704  2.9752  1.6131
  626MOL0     H84508   4.033   6.877   7.802 -0.7332 -0.5904  0.5730
  626MOL0     H84509   4.000   6.913   7.639  0.7005 -0.1270  1.0213
  626MOL0     H84510   4.008   7.049   7.761  1.2911  0.3240  1.7269
  627MOL0     O84511   3.309   1.416   3.230 -0.6779  0.6530 -0.0122
  627MOL0     C84512   3.408   1.480   3.282  0.5059 -0.3118  0.1067
  627MOL0     O84513   3.402   1.558   3.395 -0.0833 -0.0592 -0.6343
  627MOL0     C84514   3.286   1.540   3.467 -0.1069  0.3747  0.2714
  627MOL0     C84515   3.239   1.414   3.503  0.2830  0.6931 -0.7355
  627MOL0     C84516   3.121   1.402   3.572  0.2071 -0.7429  0.1015
  627MOL0     C84517   3.034   1.514   3.605 -0.6565 -0.0129  0.0748
  627MOL0     O84518   2.922   1.486   3.666  0.1534  0.7331 -0.5840
  627MOL0     C84519   2.870   1.574   3.762  0.0448 -0.2683 -0.8061
  627MOL0     C84520   2.768   1.504   3.846  0.9163 -0.2932 -0.0051
  627MOL0     C84521   2.834   1.426   3.964 -0.5421  0.0083  0.6431
  627MOL0     C84522   2.953   1.333   3.918 -0.0981  1.5927 -0.2429
  627MOL0     C84523   3.022   1.277   4.045  0.1392  0.2295  0.1838
  627MOL0     C84524   3.159   1.228   4.026  0.2475  0.5313  0.3494
  627MOL0     C84525   3.211   1.139   4.144  0.8203 -0.6707  0.1620
  627MOL0     C84526   3.146   0.996   4.139  0.2828 -2.0008  0.2856
  627MOL0     N84527   3.195   0.898   4.236  0.4101 -0.4155  0.0001
  627MOL0     C84528   3.327   0.869   4.258 -0.4823  0.5096  0.6657
  627MOL0     C84529   3.317   0.778   4.353  0.0494 -0.2480 -0.4981
  627MOL0     C84530   3.442   0.725   4.424  2.0438  0.7653  0.5505
  627MOL0     C84531   3.489   0.602   4.340 -1.0833  0.7754  0.2875
  627MOL0     C84532   3.626   0.622   4.260  0.5197  0.9667 -0.9094
  627MOL0     C84533   3.734   0.624   4.355 -0.1141 -0.6714  0.5710
  627MOL0     O84534   3.742   0.494   4.419  0.0918 -0.2588 -0.1686
  627MOL0     C84535   3.847   0.483   4.506 -0.4607 -0.0298 -0.1111
  627MOL0     C84536   3.847   0.356   4.565 -0.7738  0.0669  0.0071
  627MOL0     C84537   3.949   0.312   4.654 -0.6260  0.5604  1.4458
  627MOL0     C84538   4.039   0.409   4.702 -0.0882  0.0142  0.3449
  627MOL0     C84539   4.116   0.373   4.816  0.1231  0.1851  0.1909
  627MOL0     O84540   4.090   0.244   4.875 -0.1634  0.4943  0.4078
  627MOL0     C84541   4.139   0.197   4.999 -0.4282  1.0743  0.2159
  627MOL0     C84542   4.176   0.286   5.102 -0.4322  0.2513  0.5776
  627MOL0     C84543   4.269   0.242   5.199 -0.5892  0.6704 -0.2661
  627MOL0     C84544   4.313   0.106   5.199  0.0321  0.7680 -0.0766
  627MOL0     O84545   4.402   0.061   5.291 -0.1747  0.2677 -0.3713
  627MOL0     C84546   4.512   0.145   5.333  0.8351 -1.0846  0.3325
  627MOL0     C84547   4.550   0.125   5.468 -0.2492 -0.1114  0.5152
  627MOL0     C84548   4.444   0.120   5.576 -0.8695 -0.1641  0.3668
  627MOL0     C84549   4.404   0.255   5.656 -0.5147 -0.2899  0.3219
  627MOL0     C84550   4.278   0.214   5.741 -0.0932  0.4154  0.8336
  627MOL0     C84551   4.267   0.315   5.852 -0.5664 -0.6241 -0.1431
  627MOL0     C84552   4.262   0.237   5.990 -0.2013  0.1319 -0.4963
  627MOL0     C84553   4.226   0.317   6.117  0.0299 -0.8059 -0.0542
  627MOL0    Cl84554   4.304   0.474   6.135 -0.2594  0.0695 -0.0986
  627MOL0     C84555   4.255   0.011   5.110  0.8138 -0.3686 -0.3039
  627MOL0     C84556   4.165   0.055   5.009 -0.7080  0.1780  0.1948
  627MOL0     O84557   4.189   0.464   4.859  1.0639  0.6874  0.2093
  627MOL0     C84558   4.039   0.549   4.646  0.5925  0.8159 -0.1611
  627MOL0     C84559   3.944   0.578   4.545 -0.7962  0.3555  0.8223
  627MOL0     N84560   3.188   0.739   4.377  0.2698 -0.6509  0.2805
  627MOL0     N84561   3.116   0.818   4.306 -0.0437 -0.5792  0.6468
  627MOL0     C84562   3.094   1.637   3.572  0.7879 -0.0523  0.5121
  627MOL0     C84563   3.219   1.648   3.511 -0.1291 -1.2559 -0.6167
  627MOL0     C84564   3.539   1.486   3.215  0.8341  0.4513 -0.2007
  627MOL0     C84565   3.643   1.539   3.274  0.4818 -0.3412  0.0176
  627MOL0     C84566   3.768   1.531   3.225  0.1775  0.1365  0.2687
  627MOL0     C84567   3.800   1.475   3.101  0.0366  0.6182 -0.5179
  627MOL0     O84568   3.933   1.464   3.059  0.3138 -0.7456  0.2725
  627MOL0     C84569   3.965   1.385   2.943  0.6713  0.2831  0.3037
  627MOL0     C84570   4.105   1.416   2.889  0.9787  1.1128  0.5861
  627MOL0     C84571   4.145   1.325   2.764 -0.2052  0.2278  0.1293
  627MOL0     C84572   4.289   1.339   2.718  0.4107 -0.5206 -0.4626
  627MOL0     C84573   4.326   1.475   2.697  0.8682  1.1430  0.8546
  627MOL0     C84574   4.354   1.588   2.671 -0.2021  0.0915  0.5098
  627MOL0     C84575   3.690   1.423   3.034 -0.6801 -0.1287  0.7641
  627MOL0     C84576   3.558   1.419   3.092 -0.1271  0.1527  0.0579
  627MOL0     C84577   3.451   1.338   3.006  0.1919 -0.8898 -0.3074
  627MOL0     H84578   3.284   1.323   3.466 -0.4160  0.5430 -1.2362
  627MOL0     H84579   3.073   1.307   3.595 -1.4314  0.0445  0.1171
  627MOL0     H84580   2.955   1.610   3.822  0.4992 -0.0099 -1.5928
  627MOL0     H84581   2.817   1.659   3.718  0.2260  0.1430 -0.2484
  627MOL0     H84582   2.714   1.428   3.789 -1.3510  0.7833  0.5877
  627MOL0     H84583   2.693   1.567   3.895 -1.6736 -2.7414 -0.5544
  627MOL0     H84584   2.760   1.365   4.018 -1.8000 -1.5302 -2.5710
  627MOL0     H84585   2.881   1.495   4.035 -1.2447  2.0854 -0.8310
  627MOL0     H84586   2.931   1.255   3.844  0.4705 -2.0563  3.1206
  627MOL0     H84587   3.022   1.398   3.862  1.0695  0.0893 -0.5951
  627MOL0     H84588   3.030   1.356   4.120  5.0704 -1.3430  1.7247
  627MOL0     H84589   2.947   1.206   4.081 -0.7978 -1.0628 -3.8126
  627MOL0     H84590   3.168   1.172   3.933  1.1190  0.1072  0.6727
  627MOL0     H84591   3.231   1.309   4.009  1.2089  0.0678  1.9660
  627MOL0     H84592   3.180   1.195   4.233 -1.7828 -0.2282 -0.9431
  627MOL0     H84593   3.320   1.135   4.131  0.6840 -1.7556 -0.8378
  627MOL0     H84594   3.037   1.004   4.146  0.3908 -0.6797  0.5521
  627MOL0     H84595   3.178   0.958   4.042 -1.8092 -0.9540 -0.8859
  627MOL0     H84596   3.410   0.922   4.212  0.4764 -1.7217 -0.3253
  627MOL0     H84597   3.526   0.796   4.433  3.5428 -0.8747 -0.0075
  627MOL0     H84598   3.407   0.712   4.527 -1.3720  0.3435 -0.5388
  627MOL0     H84599   3.501   0.513   4.402 -0.7143 -1.6207 -2.9621
  627MOL0     H84600   3.406   0.575   4.273 -1.9129  1.6008  0.9504
  627MOL0     H84601   3.628   0.714   4.202 -1.7054  0.5191 -1.8059
  627MOL0     H84602   3.644   0.534   4.197 -1.5551 -0.2493  0.0691
  627MOL0     H84603   3.723   0.703   4.429 -0.8456 -0.2720  0.0527
  627MOL0     H84604   3.827   0.655   4.307 -1.2536 -0.6808 -1.8331
  627MOL0     H84605   3.778   0.282   4.527 -0.7769  0.7386 -1.3564
  627MOL0     H84606   3.969   0.206   4.668  0.4730  0.5284 -0.1122
  627MOL0     H84607   4.171   0.394   5.094  1.8887  0.3141 -1.4370
  627MOL0     H84608   4.304   0.309   5.277  0.5242  0.1782 -0.3240
  627MOL0     H84609   4.597   0.140   5.264  0.3382  3.9886 -1.0682
  627MOL0     H84610   4.491   0.251   5.316  1.0226 -0.7696  1.9354
  627MOL0     H84611   4.599   0.028   5.464 -0.3269 -0.1155 -1.7348
  627MOL0     H84612   4.632   0.191   5.498  0.8149  1.0467 -4.1000
  627MOL0     H84613   4.350   0.086   5.531 -0.5063  1.8388 -2.1049
  627MOL0     H84614   4.475   0.039   5.642  0.5966  2.3342  2.9765
  627MOL0     H84615   4.372   0.341   5.596 -0.0372 -0.4224 -0.1316
  627MOL0     H84616   4.494   0.284   5.710 -0.6089  1.8637 -0.6021
  627MOL0     H84617   4.285   0.109   5.773 -0.1731 -0.6043 -2.2054
  627MOL0     H84618   4.190   0.212   5.677 -0.1165 -2.3918  0.8273
  627MOL0     H84619   4.347   0.388   5.843 -2.7471  2.0435  0.8273
  627MOL0     H84620   4.172   0.369   5.858 -0.2138 -0.1071  4.4643
  627MOL0     H84621   4.357   0.184   6.002  0.6818  1.9615  1.1612
  627MOL0     H84622   4.185   0.159   5.988 -0.4645  0.3449  0.6104
  627MOL0     H84623   4.118   0.335   6.112  0.1259 -0.4540 -1.0999
  627MOL0     H84624   4.249   0.251   6.201 -0.6488 -0.1504  0.6582
  627MOL0     H84625   4.282  -0.091   5.133  0.9704  0.2504  2.6739
  627MOL0     H84626   4.114  -0.006   4.935 -2.0213  0.8356  0.5331
  627MOL0     H84627   4.104   0.626   4.685  3.0796 -0.2544 -1.9730
  627MOL0     H84628   3.949   0.672   4.490 -2.2821  0.5903  1.0590
  627MOL0     H84629   3.048   1.733   3.594  1.6211  1.1561 -2.5387
  627MOL0     H84630   3.259   1.748   3.498  0.3644 -1.0640  1.9128
  627MOL0     H84631   3.633   1.592   3.368 -0.5680  1.0515 -0.8326
  627MOL0     H84632   3.844   1.579   3.285  1.3766 -2.1549  0.6913
  627MOL0     H84633   3.897   1.415   2.863  1.1567 -0.6506 -0.4777
  627MOL0     H84634   3.953   1.278   2.961  2.0678  0.2017  0.9025
  627MOL0     H84635   4.182   1.412   2.966  1.0103 -0.6795  0.5197
  627MOL0     H84636   4.108   1.513   2.839 -2.3579  1.4512  0.8035
  627MOL0     H84637   4.079   1.356   2.682  4.3188  2.2962 -3.1154
  627MOL0     H84638   4.125   1.220   2.787  0.2737  0.0341 -0.3355
  627MOL0     H84639   4.351   1.287   2.792 -1.2436 -1.6983  0.1407
  627MOL0     H84640   4.299   1.282   2.625 -0.9223 -0.1354 -0.8563
  627MOL0     H84641   4.355   1.694   2.653 -3.6457  0.2063  0.3295
  627MOL0     H84642   3.702   1.381   2.935  2.3139  0.1981  0.9079
  627MOL0     H84643   3.492   1.292   2.916 -0.8218 -0.5807 -0.9374
  627MOL0     H84644   3.410   1.252   3.060 -0.7068 -0.7436 -0.7422
  627MOL0     H84645   3.372   1.407   2.975 -0.9165 -0.3448  3.2661
  628MOL0     O84646   0.300   3.483   2.765 -0.4447 -0.0165 -0.0188
  628MOL0     C84647   0.268   3.601   2.783 -0.7765 -1.0428 -0.4978
  628MOL0     O84648   0.156   3.671   2.736  0.0383  0.2230  0.3899
  628MOL0     C84649   0.059   3.609   2.668  0.2418 -0.3836  0.3155
  628MOL0     C84650  -0.055   3.565   2.735  0.1410 -0.3144  0.1585
  628MOL0     C84651  -0.158   3.499   2.668  0.0804 -0.7655 -0.4446
  628MOL0     C84652  -0.142   3.469   2.537  0.4903 -0.7677  0.0106
  628MOL0     O84653  -0.242   3.400   2.471  0.4878 -0.3986  0.2570
  628MOL0     C84654  -0.270   3.259   2.489 -0.1417 -0.0768 -0.9313
  628MOL0     C84655  -0.239   3.182   2.367  0.4751 -0.1634  0.7125
  628MOL0     C84656  -0.303   3.040   2.382 -0.3572  0.8116  0.0014
  628MOL0     C84657  -0.263   2.927   2.282 -0.1818  0.8157  0.2285
  628MOL0     C84658  -0.358   2.811   2.279 -0.5368  0.1448 -1.0324
  628MOL0     C84659  -0.285   2.675   2.254  0.2177 -0.1237 -0.6827
  628MOL0     C84660  -0.388   2.564   2.245  0.4296 -0.2473  0.3220
  628MOL0     C84661  -0.450   2.544   2.109  0.5627  0.2338 -0.6251
  628MOL0     N84662  -0.551   2.440   2.133 -0.3270 -0.0644  0.7280
  628MOL0     C84663  -0.536   2.307   2.107 -0.1508  0.1841  0.1674
  628MOL0     C84664  -0.665   2.257   2.116  0.3593 -0.1359 -1.0574
  628MOL0     C84665  -0.730   2.119   2.090  0.5097 -0.4014 -0.3445
  628MOL0     C84666  -0.641   2.002   2.134  0.1864  0.0136 -0.6080
  628MOL0     C84667  -0.594   1.909   2.027  0.1084  1.7882  0.1387
  628MOL0     C84668  -0.442   1.882   2.043  0.4414 -0.0254  0.9710
  628MOL0     O84669  -0.360   2.008   2.026  0.2185 -0.0021 -0.2916
  628MOL0     C84670  -0.231   1.978   2.018  0.0204 -0.7710 -0.4189
  628MOL0     C84671  -0.161   1.947   2.129 -0.2976 -0.0364 -1.0342
  628MOL0     C84672  -0.028   1.910   2.116 -0.3551 -0.7712 -0.5472
  628MOL0     C84673   0.042   1.919   1.998 -1.3944 -0.0785 -0.0736
  628MOL0     C84674   0.195   1.904   1.996 -0.1632 -1.0780  0.6398
  628MOL0     O84675   0.246   1.932   1.878  0.2988 -0.9154  0.2035
  628MOL0     C84676   0.371   1.897   1.846  0.6701 -0.0911  1.0756
  628MOL0     C84677   0.441   1.786   1.892 -0.6279  0.1454 -0.4543
  628MOL0     C84678   0.575   1.763   1.850  0.1331 -0.0268  0.8508
  628MOL0     C84679   0.634   1.843   1.759 -0.0765  1.0028 -0.5863
  628MOL0     O84680   0.763   1.812   1.722 -0.1015  0.1303 -0.0218
  628MOL0     C84681   0.772   1.811   1.569  0.0118  0.5869 -0.4664
  628MOL0     C84682   0.911   1.786   1.524  0.4867  0.4523  0.9049
  628MOL0     C84683   0.916   1.775   1.374 -0.3169  0.4660 -0.6501
  628MOL0     C84684   0.848   1.656   1.315 -0.2778 -0.0927 -0.7460
  628MOL0     C84685   0.933   1.599   1.198  0.3447 -0.7056 -0.5617
  628MOL0     C84686   0.873   1.479   1.130  0.8774 -0.2358  0.6712
  628MOL0     C84687   0.748   1.512   1.040  0.6353 -0.2816 -0.7069
  628MOL0     C84688   0.777   1.606   0.924  0.0111 -0.4654 -0.4994
  628MOL0    Cl84689   0.640   1.594   0.811 -0.3906 -0.2282  0.1688
  628MOL0     C84690   0.554   1.945   1.695  0.3110  0.6042  0.2185
  628MOL0     C84691   0.427   1.974   1.741 -1.2944  0.3842  0.1866
  628MOL0     O84692   0.250   1.898   2.100 -0.2608  1.1142 -0.7949
  628MOL0     C84693  -0.033   1.962   1.878  0.4278 -0.6526 -0.3662
  628MOL0     C84694  -0.173   1.991   1.885 -0.5731 -1.0785  0.4698
  628MOL0     N84695  -0.745   2.357   2.168  0.4134 -0.9753 -0.5113
  628MOL0     N84696  -0.676   2.466   2.174  1.0730 -0.3495 -0.7189
  628MOL0     C84697  -0.039   3.523   2.460  0.3666  0.5780  0.6312
  628MOL0     C84698   0.062   3.602   2.527  0.0514  0.2424  0.9098
  628MOL0     C84699   0.362   3.672   2.878  0.5594  0.0473 -0.2349
  628MOL0     C84700   0.506   3.630   2.883 -0.3701 -0.0431 -0.0885
  628MOL0     C84701   0.596   3.698   2.960 -0.7986 -0.4700  0.1641
  628MOL0     C84702   0.562   3.807   3.039  0.5238  0.4538  0.0845
  628MOL0     O84703   0.656   3.884   3.105 -0.3116 -0.2585 -0.2991
  628MOL0     C84704   0.642   3.918   3.245 -0.2076  0.2815  0.1985
  628MOL0     C84705   0.722   3.828   3.346  0.2565  0.1995 -0.5498
  628MOL0     C84706   0.742   3.885   3.485  0.0810  0.3159  1.2295
  628MOL0     C84707   0.610   3.893   3.555  0.9507 -0.0098  0.2614
  628MOL0     C84708   0.642   3.940   3.688 -1.1983 -0.2579 -0.8471
  628MOL0     C84709   0.658   3.955   3.813  0.0758  0.5025  0.0613
  628MOL0     C84710   0.428   3.839   3.039 -0.2145 -0.9562 -0.8346
  628MOL0     C84711   0.330   3.779   2.961 -0.3329 -0.0820  0.3527
  628MOL0     C84712   0.183   3.813   2.989  0.9429 -0.6118  0.2900
  628MOL0     H84713  -0.049   3.602   2.837  2.9223  4.8216 -1.4825
  628MOL0     H84714  -0.249   3.477   2.723  0.4286  1.0904  0.9575
  628MOL0     H84715  -0.216   3.204   2.567 -1.4830 -0.5195 -0.2796
  628MOL0     H84716  -0.377   3.258   2.508  0.1122 -0.4827  0.6155
  628MOL0     H84717  -0.135   3.165   2.340  0.0455  0.6634 -1.7000
  628MOL0     H84718  -0.288   3.235   2.285 -1.1081 -1.8001  0.5215
  628MOL0     H84719  -0.411   3.057   2.375 -0.5879  0.6058  2.2401
  628MOL0     H84720  -0.291   3.005   2.485 -1.0261 -0.9552 -0.4765
  628MOL0     H84721  -0.237   2.969   2.185  0.8460 -1.3582 -0.4808
  628MOL0     H84722  -0.164   2.892   2.313 -0.1251  2.1006  1.6735
  628MOL0     H84723  -0.413   2.816   2.374  0.6628 -1.3376 -0.2200
  628MOL0     H84724  -0.425   2.830   2.195 -3.4742 -1.5012  0.7739
  628MOL0     H84725  -0.209   2.671   2.176  2.5900  0.3277  1.4707
  628MOL0     H84726  -0.235   2.655   2.349  0.7572  1.9774 -0.4760
  628MOL0     H84727  -0.467   2.569   2.322  0.6022  1.2648  0.4269
  628MOL0     H84728  -0.344   2.468   2.271 -1.9869 -1.8629 -1.1240
  628MOL0     H84729  -0.494   2.631   2.059 -0.0143 -0.5266 -1.4721
  628MOL0     H84730  -0.374   2.511   2.038 -1.8089  1.2415 -3.8971
  628MOL0     H84731  -0.448   2.259   2.066 -0.8171  0.0716 -1.1550
  628MOL0     H84732  -0.824   2.125   2.146 -0.0051  0.8313 -1.3015
  628MOL0     H84733  -0.761   2.106   1.986 -0.4435 -3.4631  0.2381
  628MOL0     H84734  -0.566   2.053   2.194 -0.9842 -0.6603  1.5297
  628MOL0     H84735  -0.695   1.937   2.203  1.0934  1.4170  1.5073
  628MOL0     H84736  -0.615   1.942   1.925 -0.8319 -1.7899 -0.9703
  628MOL0     H84737  -0.643   1.811   2.029  0.7820  1.3023 -2.7264
  628MOL0     H84738  -0.415   1.798   1.978  0.1899  1.0303 -0.5559
  628MOL0     H84739  -0.435   1.843   2.145 -0.8357  2.0723  1.9201
  628MOL0     H84740  -0.207   1.940   2.227  2.3971 -0.2157  0.3018
  628MOL0     H84741   0.031   1.899   2.206  0.9607  0.4781 -1.2182
  628MOL0     H84742   0.393   1.720   1.964 -1.1432  0.0949 -0.8466
  628MOL0     H84743   0.625   1.673   1.884 -2.5699 -0.9138  2.8455
  628MOL0     H84744   0.722   1.719   1.539  0.3543  0.0914  0.4512
  628MOL0     H84745   0.725   1.896   1.517  1.1410  1.8156  0.4555
  628MOL0     H84746   0.983   1.858   1.564  0.0675  1.8315 -0.6988
  628MOL0     H84747   0.956   1.695   1.565 -5.1601 -2.3320  1.9792
  628MOL0     H84748   0.899   1.865   1.315 -0.0457 -0.7990 -2.7802
  628MOL0     H84749   1.025   1.769   1.364 -0.1331  0.1724  1.1199
  628MOL0     H84750   0.746   1.682   1.284 -0.2461  1.4093  0.3012
  628MOL0     H84751   0.834   1.576   1.389 -0.5495 -0.6333 -1.3676
  628MOL0     H84752   1.035   1.582   1.235  0.0561  1.2370  1.2992
  628MOL0     H84753   0.931   1.675   1.120 -1.2820 -0.9593 -0.8068
  628MOL0     H84754   0.940   1.417   1.070 -0.8734 -1.0368 -0.5327
  628MOL0     H84755   0.846   1.404   1.205 -0.9195  0.1442  0.4661
  628MOL0     H84756   0.669   1.552   1.105 -1.2512  2.1045 -4.1667
  628MOL0     H84757   0.704   1.424   0.993 -2.8075  0.1593  1.3548
  628MOL0     H84758   0.772   1.704   0.973  0.0647 -0.6044 -0.2132
  628MOL0     H84759   0.876   1.579   0.885  0.0357  1.0367 -1.5567
  628MOL0     H84760   0.595   2.018   1.625  2.0272  0.1638  0.7354
  628MOL0     H84761   0.372   2.059   1.703  0.1762  1.5460  0.5899
  628MOL0     H84762   0.008   1.982   1.779  1.3994  0.8673  0.3029
  628MOL0     H84763  -0.242   2.017   1.805 -1.9640 -0.3264  1.8367
  628MOL0     H84764  -0.023   3.520   2.353  0.0619 -0.6632  0.6043
  628MOL0     H84765   0.141   3.645   2.467 -1.7899 -0.0135 -1.9010
  628MOL0     H84766   0.554   3.549   2.829 -0.4602  0.1310 -0.4377
  628MOL0     H84767   0.702   3.679   2.967 -0.4202  0.0695 -2.8995
  628MOL0     H84768   0.538   3.898   3.273  0.3960 -1.2213  1.5565
  628MOL0     H84769   0.671   4.024   3.246 -2.0050  0.9167  3.7881
  628MOL0     H84770   0.820   3.807   3.301  0.3327 -1.4711  0.3168
  628MOL0     H84771   0.658   3.740   3.357  3.0015 -2.2108 -2.2553
  628MOL0     H84772   0.790   3.983   3.488  1.8735 -0.5038  0.9985
  628MOL0     H84773   0.801   3.826   3.556 -1.9880  0.7006  3.3713
  628MOL0     H84774   0.553   3.975   3.509 -2.2827 -2.1748  0.1266
  628MOL0     H84775   0.557   3.798   3.562 -0.6831  0.8897  0.5822
  628MOL0     H84776   0.677   3.949   3.919  1.6246  0.2645 -0.2003
  628MOL0     H84777   0.393   3.913   3.110 -1.2291 -2.1774 -0.0119
  628MOL0     H84778   0.190   3.897   3.060  0.7228  1.6320 -2.1769
  628MOL0     H84779   0.134   3.860   2.903 -1.4020  3.8985  3.6526
  628MOL0     H84780   0.121   3.731   3.027  0.8702 -0.5194  0.3736
  629MOL0     O84781   3.074   4.099   9.744 -0.1841 -0.5612  0.1468
  629MOL0     C84782   3.131   4.185   9.674  0.7319  0.9653  0.7678
  629MOL0     O84783   3.269   4.210   9.681  0.9022 -0.1428  0.3010
  629MOL0     C84784   3.353   4.155   9.770 -0.0913  0.2720 -0.4733
  629MOL0     C84785   3.483   4.130   9.739  0.0551  0.1047 -0.4043
  629MOL0     C84786   3.570   4.089   9.820  0.3378  0.8880 -0.0189
  629MOL0     C84787   3.538   4.065   9.956 -0.4918  0.3777  0.3496
  629MOL0     O84788   3.642   4.042  10.046 -0.2318 -0.3231  0.4195
  629MOL0     C84789   3.617   3.942  10.144 -0.0931  0.6450 -0.4208
  629MOL0     C84790   3.753   3.881  10.172 -1.0862 -0.1386  1.1167
  629MOL0     C84791   3.803   3.779  10.069 -0.2013 -0.3384 -0.1262
  629MOL0     C84792   3.925   3.703  10.137  0.7809  0.8710  0.2936
  629MOL0     C84793   4.008   3.648  10.026 -0.0440 -0.1600 -1.2005
  629MOL0     C84794   3.939   3.551   9.931  0.7233 -0.3678  1.0251
  629MOL0     C84795   3.915   3.413   9.980  1.0368 -0.4461  0.7503
  629MOL0     C84796   3.830   3.335   9.890  0.4805  1.1481  1.2204
  629MOL0     N84797   3.889   3.282   9.761  0.5768  0.0659 -1.0727
  629MOL0     C84798   3.818   3.250   9.647 -0.4350  0.1985 -0.9001
  629MOL0     C84799   3.912   3.191   9.567  0.4375  0.3115 -1.3060
  629MOL0     C84800   3.899   3.144   9.423  0.0653  0.4466  0.5419
  629MOL0     C84801   3.788   3.048   9.384 -0.0949  0.6459 -0.2731
  629MOL0     C84802   3.824   2.915   9.457 -0.1933  0.8488  0.3450
  629MOL0     C84803   3.728   2.807   9.407 -0.3839 -0.6401  0.0751
  629MOL0     O84804   3.733   2.779   9.272 -0.3768  0.2830  0.0270
  629MOL0     C84805   3.641   2.698   9.230 -0.2005  0.0108 -0.1034
  629MOL0     C84806   3.538   2.625   9.301 -0.3472 -0.0416  0.2777
  629MOL0     C84807   3.444   2.547   9.235 -0.5675  0.4154 -0.3665
  629MOL0     C84808   3.440   2.534   9.093 -0.1705 -0.2534  0.2676
  629MOL0     C84809   3.355   2.438   9.044  0.3501  0.2615 -0.4928
  629MOL0     O84810   3.228   2.438   9.099  0.0137  0.0997 -0.2262
  629MOL0     C84811   3.147   2.330   9.088  0.2118 -1.3360 -0.7258
  629MOL0     C84812   3.185   2.196   9.101  1.2167  0.4170 -0.1509
  629MOL0     C84813   3.086   2.090   9.086 -0.3307 -0.7428 -0.5338
  629MOL0     C84814   2.957   2.117   9.055  0.7548 -0.7504  0.7663
  629MOL0     O84815   2.856   2.026   9.025  0.2628  0.8435 -0.0727
  629MOL0     C84816   2.876   1.885   9.034 -0.4960 -0.4971 -0.5554
  629MOL0     C84817   2.813   1.808   9.141  0.0478 -0.0842 -0.7950
  629MOL0     C84818   2.659   1.829   9.157 -0.3158 -1.0097  0.4217
  629MOL0     C84819   2.573   1.778   9.036 -0.2529  0.7442 -0.1582
  629MOL0     C84820   2.582   1.620   9.016  0.7667 -0.4688  0.1880
  629MOL0     C84821   2.503   1.579   8.892  0.1661 -0.0580  0.0016
  629MOL0     C84822   2.562   1.628   8.758 -0.2442 -0.1628  0.6537
  629MOL0     C84823   2.459   1.625   8.643 -0.2928 -0.0343 -0.1836
  629MOL0    Cl84824   2.535   1.652   8.487  0.3609 -0.0281  0.0272
  629MOL0     C84825   2.922   2.250   9.052 -0.9645 -0.5037 -0.6013
  629MOL0     C84826   3.014   2.349   9.064 -0.9233  0.4416 -0.4995
  629MOL0     O84827   3.385   2.374   8.945 -0.1791  0.9910  0.2863
  629MOL0     C84828   3.541   2.606   9.025  0.0430 -0.0705 -0.3662
  629MOL0     C84829   3.638   2.682   9.092  0.3335  0.3807 -0.0451
  629MOL0     N84830   4.033   3.200   9.620 -0.8056  0.5486 -0.4817
  629MOL0     N84831   4.021   3.250   9.744  0.7829  0.4880  0.8951
  629MOL0     C84832   3.406   4.092  10.005 -0.7526  0.0555  0.5091
  629MOL0     C84833   3.310   4.138   9.904  0.5228  0.7616 -1.0649
  629MOL0     C84834   3.045   4.255   9.574 -0.3262 -0.3790 -0.7400
  629MOL0     C84835   3.112   4.351   9.493 -0.3624 -0.8948  0.5793
  629MOL0     C84836   3.042   4.429   9.393 -0.3031 -0.2257  0.3975
  629MOL0     C84837   2.908   4.405   9.382  0.4985  0.0836  0.4489
  629MOL0     O84838   2.846   4.467   9.280 -0.4799 -0.0974 -0.2397
  629MOL0     C84839   2.757   4.573   9.317  0.5804 -0.7450 -0.0433
  629MOL0     C84840   2.703   4.633   9.194  1.1043 -0.4673 -0.1667
  629MOL0     C84841   2.597   4.536   9.134 -0.2095 -1.1000  0.3538
  629MOL0     C84842   2.508   4.607   9.031 -0.2992 -0.3865  0.6576
  629MOL0     C84843   2.390   4.531   8.985  0.8068 -0.1710 -0.2625
  629MOL0     C84844   2.292   4.461   8.983 -0.0113  0.2650  0.9319
  629MOL0     C84845   2.841   4.317   9.460 -0.1815 -0.0698 -0.0453
  629MOL0     C84846   2.905   4.243   9.560 -0.3297 -0.1670 -1.0032
  629MOL0     C84847   2.807   4.147   9.630 -0.3377 -0.1891  0.7820
  629MOL0     H84848   3.523   4.150   9.640  1.3670 -2.2773 -0.4087
  629MOL0     H84849   3.668   4.063   9.780 -0.1201 -0.4345 -0.3372
  629MOL0     H84850   3.575   3.986  10.234 -1.0710  1.3879 -1.2105
  629MOL0     H84851   3.547   3.866  10.109  0.4659  0.3486 -0.9212
  629MOL0     H84852   3.756   3.831  10.269  1.0854  2.7897  2.7186
  629MOL0     H84853   3.820   3.967  10.178 -2.2367  0.7840  1.0573
  629MOL0     H84854   3.833   3.824   9.974  0.0388  0.6716  0.4117
  629MOL0     H84855   3.723   3.708  10.049 -0.6676  0.6750 -2.0409
  629MOL0     H84856   3.980   3.770  10.204 -0.3668 -1.3545  3.7648
  629MOL0     H84857   3.890   3.622  10.202 -1.2187 -1.5135 -3.4087
  629MOL0     H84858   4.028   3.735   9.962  3.4502  0.3011  0.3251
  629MOL0     H84859   4.102   3.609  10.066 -1.2569 -1.1829  0.8129
  629MOL0     H84860   3.844   3.596   9.902 -0.7673 -3.4095  0.7204
  629MOL0     H84861   3.980   3.551   9.830  0.5973  0.8337  0.9637
  629MOL0     H84862   3.871   3.426  10.079  2.1520  0.1709  1.1810
  629MOL0     H84863   4.008   3.356   9.983 -0.6799 -3.5479 -0.4747
  629MOL0     H84864   3.808   3.244   9.947 -4.8042  2.2425  1.4066
  629MOL0     H84865   3.732   3.378   9.871 -2.0273 -4.2323 -0.1449
  629MOL0     H84866   3.710   3.248   9.637 -0.9540  1.0956  2.8497
  629MOL0     H84867   3.891   3.237   9.367 -0.6111 -0.3214 -0.6809
  629MOL0     H84868   3.997   3.099   9.410  0.0923  1.2992 -3.0844
  629MOL0     H84869   3.689   3.086   9.414 -0.7511  0.6194 -2.2415
  629MOL0     H84870   3.789   3.036   9.275  0.2442 -0.7615 -0.1301
  629MOL0     H84871   3.809   2.937   9.563 -1.9270 -0.0906  0.3376
  629MOL0     H84872   3.929   2.885   9.442  0.1901  1.7958  1.0165
  629MOL0     H84873   3.629   2.842   9.437 -0.3793 -0.6407  0.0916
  629MOL0     H84874   3.753   2.711   9.454  1.0019  0.9736  2.9404
  629MOL0     H84875   3.519   2.630   9.408 -2.2465  3.2912 -0.0981
  629MOL0     H84876   3.369   2.502   9.299  0.4723  0.4135  0.8998
  629MOL0     H84877   3.292   2.187   9.116  1.2620 -1.9817 -1.4019
  629MOL0     H84878   3.127   1.990   9.098 -0.9379 -0.9212  0.1262
  629MOL0     H84879   2.825   1.843   8.947  0.4520  0.4425 -1.6053
  629MOL0     H84880   2.979   1.848   9.028 -0.2855  0.1447 -0.9582
  629MOL0     H84881   2.839   1.702   9.132 -3.5700 -1.1572 -0.2508
  629MOL0     H84882   2.848   1.837   9.240 -0.9241  2.0955 -1.0257
  629MOL0     H84883   2.623   1.773   9.244 -1.3261  0.4525  0.9753
  629MOL0     H84884   2.636   1.935   9.171  3.7405  0.2481 -1.0782
  629MOL0     H84885   2.602   1.839   8.949 -0.4021  0.7548 -0.2006
  629MOL0     H84886   2.470   1.800   9.064  0.1835 -0.5631  2.8202
  629MOL0     H84887   2.537   1.562   9.097 -2.0424 -2.7144 -2.6867
  629MOL0     H84888   2.688   1.595   9.005  1.3842  1.2126  1.8081
  629MOL0     H84889   2.487   1.471   8.890 -0.4306 -0.0284  1.8367
  629MOL0     H84890   2.405   1.626   8.901  0.3695  0.3421  0.1607
  629MOL0     H84891   2.646   1.565   8.727  0.0464  0.1982  0.6929
  629MOL0     H84892   2.606   1.728   8.770  0.1578 -0.3757  0.9742
  629MOL0     H84893   2.393   1.538   8.635 -1.1052 -0.0500  4.0577
  629MOL0     H84894   2.399   1.716   8.653  0.7443  1.3234 -4.2507
  629MOL0     H84895   2.820   2.268   9.020 -0.8854  0.6501 -0.2550
  629MOL0     H84896   2.992   2.455   9.059 -0.1984  0.6319  0.1336
  629MOL0     H84897   3.544   2.589   8.918  1.2559  1.0647 -0.5509
  629MOL0     H84898   3.719   2.727   9.035  1.0920 -0.5852  0.2381
  629MOL0     H84899   3.398   4.083  10.112  1.9203 -2.7516  0.6359
  629MOL0     H84900   3.210   4.169   9.934 -0.2324 -0.2487 -2.4082
  629MOL0     H84901   3.220   4.359   9.487 -0.3496 -0.3346  1.3909
  629MOL0     H84902   3.103   4.498   9.335 -1.3633  0.3299 -0.0808
  629MOL0     H84903   2.811   4.659   9.359 -0.6996  0.1764 -0.1931
  629MOL0     H84904   2.676   4.540   9.383  0.6576  2.2517  1.7477
  629MOL0     H84905   2.783   4.636   9.119  0.4295 -1.6853 -0.9860
  629MOL0     H84906   2.656   4.729   9.217 -0.4919 -1.5913  1.4889
  629MOL0     H84907   2.537   4.485   9.211 -3.6591 -1.7672 -2.5064
  629MOL0     H84908   2.647   4.454   9.081 -0.2418 -2.6045  2.5042
  629MOL0     H84909   2.475   4.701   9.076  1.2145 -0.7406  2.6956
  629MOL0     H84910   2.584   4.620   8.953  4.2556  1.6828  4.8549
  629MOL0     H84911   2.197   4.413   8.998 -1.5618  2.8296 -0.0265
  629MOL0     H84912   2.733   4.307   9.450 -0.2847  1.7057 -1.1665
  629MOL0     H84913   2.834   4.043   9.608 -1.6194 -0.4542  0.4024
  629MOL0     H84914   2.806   4.161   9.738  5.1158  0.9249  0.9806
  629MOL0     H84915   2.704   4.154   9.595  0.1019 -4.3192 -2.0020
  630MOL0     O84916   0.307   4.632   0.982  0.8341 -0.0123  0.4182
  630MOL0     C84917   0.375   4.577   1.065 -0.1479 -0.3700 -0.7398
  630MOL0     O84918   0.420   4.640   1.178 -0.1466 -1.0082 -1.2844
  630MOL0     C84919   0.391   4.770   1.202 -0.8671 -0.6775 -0.1940
  630MOL0     C84920   0.263   4.823   1.196  0.2057 -0.6049 -0.2640
  630MOL0     C84921   0.236   4.959   1.230  0.1236  0.1945  0.5180
  630MOL0     C84922   0.344   5.044   1.250 -0.6133 -0.8392 -0.2472
  630MOL0     O84923   0.339   5.182   1.277 -1.0879  0.2156  0.5870
  630MOL0     C84924   0.263   5.240   1.385 -0.0957  0.0204  0.4996
  630MOL0     C84925   0.252   5.391   1.364  0.5339 -0.1573  0.7824
  630MOL0     C84926   0.216   5.440   1.222 -0.7062  1.0270  0.4254
  630MOL0     C84927   0.075   5.390   1.197 -0.4088  0.5356  0.0584
  630MOL0     C84928  -0.040   5.413   1.292 -0.8935  0.6261 -0.0910
  630MOL0     C84929  -0.166   5.334   1.262  0.5610 -0.5031  0.1391
  630MOL0     C84930  -0.280   5.405   1.345 -0.2907  0.3361  0.4688
  630MOL0     C84931  -0.283   5.370   1.493 -0.0538  0.0377  0.2045
  630MOL0     N84932  -0.159   5.412   1.564  0.6316  0.0066  0.6114
  630MOL0     C84933  -0.136   5.545   1.583  0.5789  0.3501 -1.2224
  630MOL0     C84934  -0.035   5.546   1.673  0.9822  0.3151 -0.7642
  630MOL0     C84935   0.009   5.668   1.740 -0.9237 -0.6919  0.5612
  630MOL0     C84936  -0.083   5.729   1.850 -0.4222 -1.2476  0.5822
  630MOL0     C84937  -0.086   5.642   1.972 -0.2668 -0.1695 -0.3762
  630MOL0     C84938  -0.158   5.713   2.094 -0.6747 -0.3228  0.6385
  630MOL0     O84939  -0.200   5.605   2.179  0.2618 -0.5374  0.9380
  630MOL0     C84940  -0.105   5.543   2.256 -0.4566  0.7214  0.1319
  630MOL0     C84941   0.012   5.596   2.304  0.0707 -0.3130 -0.3236
  630MOL0     C84942   0.088   5.516   2.407  0.3700  0.0873 -0.3431
  630MOL0     C84943   0.053   5.384   2.439 -0.7402  1.6390 -0.8097
  630MOL0     C84944   0.122   5.306   2.550  0.0494 -0.3313  0.1070
  630MOL0     O84945   0.232   5.342   2.609  0.4001  0.3277  0.8690
  630MOL0     C84946   0.305   5.266   2.701 -0.4350 -0.0142 -0.3120
  630MOL0     C84947   0.249   5.187   2.805  0.2387  0.3538 -1.1545
  630MOL0     C84948   0.330   5.115   2.886 -0.3834  0.3879  0.4563
  630MOL0     C84949   0.467   5.126   2.876  0.2314 -0.1521  0.4784
  630MOL0     O84950   0.553   5.077   2.970 -0.2603 -0.3295  0.3870
  630MOL0     C84951   0.589   5.165   3.080  0.0064  0.3351 -0.3555
  630MOL0     C84952   0.728   5.130   3.120 -0.0076  0.1894 -0.0323
  630MOL0     C84953   0.754   5.181   3.260 -0.3358  0.1684 -0.8621
  630MOL0     C84954   0.819   5.066   3.350  0.0913  0.1069  0.5058
  630MOL0     C84955   0.820   5.117   3.486  0.9749 -1.4085 -0.2954
  630MOL0     C84956   0.930   5.050   3.566  0.6596  0.3184 -0.0412
  630MOL0     C84957   0.927   5.059   3.713  0.9897  0.3250  0.7311
  630MOL0     C84958   0.950   4.936   3.797  0.6133  0.2775 -0.3461
  630MOL0    Cl84959   0.818   4.826   3.789  0.2766 -0.1877  0.0827
  630MOL0     C84960   0.528   5.212   2.777 -0.0045  0.0502  0.4005
  630MOL0     C84961   0.448   5.269   2.684 -0.2832  0.2082 -0.7240
  630MOL0     O84962   0.063   5.195   2.565 -0.6122 -0.0373  0.3194
  630MOL0     C84963  -0.066   5.340   2.382  0.1139 -0.4151  0.6388
  630MOL0     C84964  -0.140   5.412   2.292 -0.5535  1.3625  1.5188
  630MOL0     N84965   0.012   5.418   1.686  0.7952 -0.7559 -1.5953
  630MOL0     N84966  -0.075   5.337   1.633  0.1997 -0.6518  0.0971
  630MOL0     C84967   0.477   4.992   1.254 -0.0242 -0.0712  0.3966
  630MOL0     C84968   0.491   4.852   1.234 -0.5641  0.4862 -0.2372
  630MOL0     C84969   0.414   4.435   1.048  0.2533  0.1462  0.0172
  630MOL0     C84970   0.478   4.379   1.157  0.1219 -0.0178 -0.2671
  630MOL0     C84971   0.524   4.247   1.152  0.1079  0.6982 -1.0335
  630MOL0     C84972   0.513   4.170   1.035 -0.2147  1.3191  0.0867
  630MOL0     O84973   0.574   4.047   1.011 -0.5291  0.5273 -0.0407
  630MOL0     C84974   0.662   3.988   1.105  0.1081  0.8888 -0.7170
  630MOL0     C84975   0.801   4.051   1.091 -0.7883 -0.1496 -0.1369
  630MOL0     C84976   0.890   4.006   1.208 -0.1436 -0.0710 -0.1739
  630MOL0     C84977   0.977   4.129   1.234  0.1865 -0.9253 -1.1924
  630MOL0     C84978   1.058   4.118   1.357  1.0652  0.5578  0.9182
  630MOL0     C84979   1.117   4.111   1.460  0.5038 -0.2082 -0.9771
  630MOL0     C84980   0.452   4.230   0.923 -0.7030  1.0956 -0.8785
  630MOL0     C84981   0.391   4.357   0.928 -0.4961  0.6947 -0.2577
  630MOL0     C84982   0.315   4.395   0.807  0.1494  0.4646  0.0488
  630MOL0     H84983   0.189   4.754   1.157  0.4943 -0.7259 -0.5982
  630MOL0     H84984   0.138   5.005   1.236  0.6454  1.3724  0.2149
  630MOL0     H84985   0.168   5.186   1.380  0.0168 -0.2148  0.8381
  630MOL0     H84986   0.309   5.223   1.483 -0.4411 -2.7719  0.2668
  630MOL0     H84987   0.348   5.438   1.386  0.6855 -1.5007  3.4527
  630MOL0     H84988   0.187   5.431   1.443 -1.4406  0.6600 -1.1595
  630MOL0     H84989   0.282   5.400   1.145 -1.3642 -0.5904  0.6596
  630MOL0     H84990   0.214   5.549   1.225  1.1140  1.0797  0.8921
  630MOL0     H84991   0.051   5.429   1.097 -1.0692  0.2163  0.0839
  630MOL0     H84992   0.087   5.282   1.193 -0.2470  0.4764  1.6452
  630MOL0     H84993   0.006   5.382   1.386 -3.2633  1.8943  1.6000
  630MOL0     H84994  -0.051   5.522   1.289 -1.8810  0.5104 -1.2287
  630MOL0     H84995  -0.176   5.343   1.153  3.6960  2.3456 -0.0823
  630MOL0     H84996  -0.150   5.227   1.279  2.8514 -0.0842  0.9068
  630MOL0     H84997  -0.371   5.369   1.295  1.6080 -1.2543 -2.1311
  630MOL0     H84998  -0.275   5.514   1.341 -0.3161  0.3369  0.4694
  630MOL0     H84999  -0.372   5.412   1.540 -1.5649 -1.2826 -1.3776
  630MOL0     H85000  -0.292   5.262   1.500  2.1883 -0.1309  1.7622
  630MOL0     H85001  -0.190   5.634   1.553  0.0160  0.3985 -0.1178
  630MOL0     H85002   0.108   5.659   1.786 -0.5225  0.9735  0.0563
  630MOL0     H85003   0.011   5.738   1.657 -1.0395  1.0659  1.9800
  630MOL0     H85004  -0.038   5.827   1.871  2.7728 -2.5318  0.3174
  630MOL0     H85005  -0.182   5.740   1.805  0.6050 -2.1113 -2.0870
  630MOL0     H85006   0.017   5.613   1.997 -0.2308  0.9816  0.9507
  630MOL0     H85007  -0.142   5.550   1.952 -0.9808  0.0854  0.3920
  630MOL0     H85008  -0.254   5.762   2.078 -0.3187  0.3638  0.5850
  630MOL0     H85009  -0.089   5.784   2.140 -2.2460  2.6484 -1.2577
  630MOL0     H85010   0.050   5.696   2.289 -2.3635  1.0900  1.9427
  630MOL0     H85011   0.169   5.568   2.456 -0.2567  1.3214 -0.5756
  630MOL0     H85012   0.143   5.166   2.812  0.4322 -0.9438 -1.8381
  630MOL0     H85013   0.283   5.063   2.970  0.9888  1.5976  2.0340
  630MOL0     H85014   0.580   5.273   3.071  0.0159  0.3338 -0.3792
  630MOL0     H85015   0.521   5.139   3.162 -0.4211 -0.5854 -0.9766
  630MOL0     H85016   0.749   5.022   3.120 -0.1033  0.1551 -0.9907
  630MOL0     H85017   0.792   5.169   3.040 -0.4866 -1.8529 -1.5088
  630MOL0     H85018   0.827   5.263   3.254  2.1276 -1.8709 -0.6141
  630MOL0     H85019   0.662   5.214   3.308 -0.7549 -1.9948 -0.0320
  630MOL0     H85020   0.920   5.032   3.323  0.6348 -2.8061  5.1105
  630MOL0     H85021   0.759   4.975   3.354  1.0509 -0.5323  0.7158
  630MOL0     H85022   0.721   5.099   3.530  0.9394 -0.5194  0.0122
  630MOL0     H85023   0.836   5.225   3.478 -1.1491 -1.1132 -1.2381
  630MOL0     H85024   0.940   4.945   3.537  3.1764  0.4544  0.1046
  630MOL0     H85025   1.018   5.097   3.523  1.0405 -0.9627 -0.7100
  630MOL0     H85026   0.825   5.089   3.739  1.1857  2.2124 -0.4270
  630MOL0     H85027   0.990   5.148   3.729  3.1436 -0.3197 -2.9421
  630MOL0     H85028   1.036   4.879   3.762  2.3548  1.2856  2.0049
  630MOL0     H85029   0.970   4.970   3.899  1.3035  3.4928 -1.4344
  630MOL0     H85030   0.635   5.193   2.784 -0.1739 -0.2916  3.7439
  630MOL0     H85031   0.489   5.317   2.596  1.2601 -1.3614 -0.8998
  630MOL0     H85032  -0.113   5.247   2.413 -1.2959 -0.1361 -0.5342
  630MOL0     H85033  -0.226   5.355   2.260  1.9978 -1.8090 -0.2839
  630MOL0     H85034   0.563   5.055   1.275 -1.6100  2.1790  0.3632
  630MOL0     H85035   0.591   4.811   1.245 -1.0834 -0.4047  1.5865
  630MOL0     H85036   0.489   4.437   1.248 -0.1378  0.0250 -0.2606
  630MOL0     H85037   0.575   4.205   1.238 -1.8306  0.0820 -0.1322
  630MOL0     H85038   0.678   3.881   1.091  1.9530  1.0783 -0.3557
  630MOL0     H85039   0.625   4.009   1.205  1.0372  2.8572 -0.7421
  630MOL0     H85040   0.778   4.158   1.096 -1.6953 -0.3621  0.6923
  630MOL0     H85041   0.839   4.022   0.993 -0.4767 -2.1853  0.5225
  630MOL0     H85042   0.947   3.914   1.190 -1.7810 -0.8364 -1.6569
  630MOL0     H85043   0.833   3.998   1.301 -2.1694 -1.0965 -1.4235
  630MOL0     H85044   1.036   4.147   1.145 -0.9696 -1.9319 -2.2003
  630MOL0     H85045   0.911   4.214   1.252  0.5482 -0.0568 -3.7140
  630MOL0     H85046   1.171   4.098   1.551  0.8247 -0.0585 -1.1436
  630MOL0     H85047   0.453   4.176   0.829  1.3048 -0.6697  0.0885
  630MOL0     H85048   0.208   4.376   0.818  0.5047 -1.9365 -0.0608
  630MOL0     H85049   0.325   4.501   0.780  2.5730  0.6616  1.4258
  630MOL0     H85050   0.364   4.339   0.726  0.9536 -2.5480  2.4329
  631MOL0     O85051   6.606   7.705   6.029  0.3094  0.0129  0.2001
  631MOL0     C85052   6.601   7.584   6.005  0.7261 -1.5056  1.2253
  631MOL0     O85053   6.507   7.498   6.067 -0.5253  0.1153 -0.1819
  631MOL0     C85054   6.445   7.562   6.168  0.6820 -0.3225 -0.0429
  631MOL0     C85055   6.321   7.627   6.139 -0.4881  0.8622 -0.0338
  631MOL0     C85056   6.238   7.672   6.239 -0.1486  1.0272 -0.4623
  631MOL0     C85057   6.267   7.655   6.369 -0.3831 -0.2857  0.6762
  631MOL0     O85058   6.190   7.691   6.478 -0.6177 -0.0316  0.4063
  631MOL0     C85059   6.068   7.757   6.450 -0.1990  0.5605  0.2107
  631MOL0     C85060   6.000   7.822   6.571 -1.0564  0.1097 -0.1579
  631MOL0     C85061   6.001   7.741   6.704  0.0987  0.1457  0.4005
  631MOL0     C85062   5.921   7.808   6.822  0.4169 -0.0232  0.2913
  631MOL0     C85063   5.926   7.716   6.948  0.1914  0.5161 -0.2472
  631MOL0     C85064   6.046   7.697   7.013 -0.6717  2.1847  0.3746
  631MOL0     C85065   6.036   7.620   7.148 -0.7722 -0.2217  0.4768
  631MOL0     C85066   6.179   7.587   7.205 -0.0805 -0.7976  0.1253
  631MOL0     N85067   6.256   7.476   7.142  0.4717  0.7777  0.9249
  631MOL0     C85068   6.383   7.470   7.118 -0.0684 -0.9443 -0.0369
  631MOL0     C85069   6.407   7.357   7.057 -0.5272 -0.8750  1.1075
  631MOL0     C85070   6.539   7.336   6.985 -0.1049  0.6314 -0.3178
  631MOL0     C85071   6.593   7.197   7.017 -1.3048  0.0552  0.0283
  631MOL0     C85072   6.615   7.184   7.173  0.0844  1.2193  0.5721
  631MOL0     C85073   6.521   7.089   7.252 -0.1920  0.6230  0.1781
  631MOL0     O85074   6.546   7.090   7.387 -0.7479 -0.2197 -0.2506
  631MOL0     C85075   6.457   7.149   7.473  0.5558  0.4485  0.5120
  631MOL0     C85076   6.362   7.253   7.437 -0.8135  0.3319 -0.3396
  631MOL0     C85077   6.264   7.305   7.525  0.3693  0.6080 -0.1917
  631MOL0     C85078   6.275   7.253   7.660  0.1395  0.6160  0.0629
  631MOL0     C85079   6.184   7.309   7.763  0.5899  0.2932  0.1225
  631MOL0     O85080   6.093   7.405   7.726 -0.0101  0.2325 -0.3257
  631MOL0     C85081   6.002   7.460   7.805 -0.2070 -0.0732  0.1415
  631MOL0     C85082   5.936   7.398   7.910  0.0739  0.5566 -0.9475
  631MOL0     C85083   5.842   7.459   7.988  0.2563 -0.0035  0.7497
  631MOL0     C85084   5.809   7.587   7.963 -0.5347  0.2315  0.1199
  631MOL0     O85085   5.708   7.635   8.037  0.2351 -0.2823  0.6215
  631MOL0     C85086   5.623   7.739   7.982 -0.2206 -0.9157  0.2986
  631MOL0     C85087   5.485   7.759   8.061  1.1598 -0.3892  0.0115
  631MOL0     C85088   5.513   7.788   8.212 -0.3572  0.1407 -0.1400
  631MOL0     C85089   5.379   7.822   8.281  0.4614  0.2000  0.4126
  631MOL0     C85090   5.367   7.775   8.420 -0.4014 -0.1560 -0.2844
  631MOL0     C85091   5.463   7.862   8.514 -0.5883  0.0025  0.5469
  631MOL0     C85092   5.457   7.800   8.658  0.6673 -0.7347  0.4593
  631MOL0     C85093   5.482   7.902   8.771 -0.1402 -0.6824 -0.6604
  631MOL0    Cl85094   5.649   7.938   8.811 -0.7202  0.1235 -0.4221
  631MOL0     C85095   5.851   7.646   7.845 -0.2653 -0.0679 -0.1017
  631MOL0     C85096   5.956   7.590   7.773  0.0043  0.9670  0.2677
  631MOL0     O85097   6.194   7.266   7.877 -0.1354 -0.7009  0.2370
  631MOL0     C85098   6.368   7.160   7.699 -0.2338 -0.4467 -0.2795
  631MOL0     C85099   6.460   7.106   7.610 -0.7782  0.8333 -0.1953
  631MOL0     N85100   6.293   7.291   7.028 -0.7198  0.6786 -0.3571
  631MOL0     N85101   6.203   7.361   7.085 -0.1231 -0.5071  0.6718
  631MOL0     C85102   6.391   7.587   6.406  0.0091  0.4648  0.1834
  631MOL0     C85103   6.472   7.539   6.308 -0.2272  0.2265 -0.3960
  631MOL0     C85104   6.702   7.542   5.910 -0.1775  0.0421  0.4235
  631MOL0     C85105   6.739   7.631   5.809 -0.5991  0.7631  1.1339
  631MOL0     C85106   6.841   7.590   5.717  0.8257  0.3922 -0.1122
  631MOL0     C85107   6.906   7.464   5.726 -0.1874 -0.8814  0.7059
  631MOL0     O85108   7.011   7.430   5.639  0.9552  0.2830  0.1648
  631MOL0     C85109   7.115   7.521   5.611  0.2730  0.4676 -0.0946
  631MOL0     C85110   7.208   7.549   5.737 -0.0765  0.6966 -0.7225
  631MOL0     C85111   7.298   7.429   5.774  0.0389 -0.1766  0.4896
  631MOL0     C85112   7.412   7.403   5.665  0.6399 -0.1559 -0.0430
  631MOL0     C85113   7.481   7.284   5.707 -0.0526  0.0285 -0.0747
  631MOL0     C85114   7.535   7.185   5.750  0.3441  0.3562  1.0478
  631MOL0     C85115   6.856   7.378   5.821 -0.2030  0.5815 -0.4419
  631MOL0     C85116   6.759   7.413   5.914 -0.0024  0.6107 -0.2663
  631MOL0     C85117   6.731   7.305   6.020 -0.0463 -0.8593 -0.1169
  631MOL0     H85118   6.293   7.652   6.037 -0.1865 -3.7413 -1.4900
  631MOL0     H85119   6.145   7.721   6.214 -0.9961  1.7065  3.3566
  631MOL0     H85120   6.081   7.838   6.377 -1.3214 -1.0963 -1.9357
  631MOL0     H85121   6.003   7.680   6.408  0.6150 -0.4926  0.8188
  631MOL0     H85122   5.895   7.848   6.550 -0.7563  0.5429 -1.1807
  631MOL0     H85123   6.050   7.914   6.601 -0.1457 -0.7512  1.0769
  631MOL0     H85124   6.106   7.737   6.734  0.7620  0.4963 -1.6843
  631MOL0     H85125   5.967   7.641   6.679 -0.4643  1.3295 -4.7463
  631MOL0     H85126   5.971   7.900   6.855  0.8321 -0.9261  2.3640
  631MOL0     H85127   5.821   7.840   6.793  0.0232 -2.4411 -1.2050
  631MOL0     H85128   5.864   7.769   7.021  0.9014 -1.3413  1.8002
  631MOL0     H85129   5.877   7.625   6.910 -1.2557  1.9080 -1.8974
  631MOL0     H85130   6.098   7.631   6.943 -1.0954  1.1659  1.0037
  631MOL0     H85131   6.098   7.791   7.033  3.1826  0.2140  0.4527
  631MOL0     H85132   5.967   7.536   7.136 -1.7287  0.3071  1.9519
  631MOL0     H85133   5.985   7.691   7.215 -0.0497  2.5593 -1.7096
  631MOL0     H85134   6.249   7.669   7.185 -0.1340 -0.9056 -0.5233
  631MOL0     H85135   6.180   7.573   7.313  2.8522 -0.6580  0.2080
  631MOL0     H85136   6.449   7.552   7.145 -1.2529  0.2888 -0.7198
  631MOL0     H85137   6.529   7.327   6.876  1.3754 -2.4170 -0.2963
  631MOL0     H85138   6.602   7.423   7.006  1.7800 -1.1692  2.0783
  631MOL0     H85139   6.516   7.125   6.987 -1.7989  1.1710 -1.5047
  631MOL0     H85140   6.682   7.177   6.957 -0.3921  2.0719  0.6157
  631MOL0     H85141   6.610   7.286   7.212 -1.7485  0.4913  2.3913
  631MOL0     H85142   6.721   7.155   7.178 -0.5949 -1.3423  1.6597
  631MOL0     H85143   6.541   6.987   7.215  2.2729  0.1159  2.5129
  631MOL0     H85144   6.414   7.096   7.232  0.1508  0.8237 -1.8141
  631MOL0     H85145   6.371   7.285   7.334  1.7276  1.3736  0.1152
  631MOL0     H85146   6.188   7.374   7.488 -1.4693  0.7056  3.3700
  631MOL0     H85147   5.960   7.298   7.946 -0.4766 -0.0843 -2.3145
  631MOL0     H85148   5.781   7.408   8.063 -1.1533 -0.5406 -0.7067
  631MOL0     H85149   5.672   7.837   7.979 -3.1107  0.7710 -4.6884
  631MOL0     H85150   5.605   7.721   7.876  0.8843 -1.6294  0.2196
  631MOL0     H85151   5.433   7.848   8.025 -1.8148 -0.6707  3.0730
  631MOL0     H85152   5.419   7.672   8.055 -0.2768  0.1782  4.3060
  631MOL0     H85153   5.561   7.703   8.260 -1.6846 -0.5598  0.0017
  631MOL0     H85154   5.576   7.876   8.222 -0.8984  0.4427  0.7024
  631MOL0     H85155   5.302   7.762   8.233  2.4534 -2.2061 -0.0318
  631MOL0     H85156   5.353   7.928   8.287 -1.0655 -0.1892  0.9524
  631MOL0     H85157   5.378   7.666   8.422 -1.5106 -0.3028 -1.1057
  631MOL0     H85158   5.265   7.798   8.450  0.1145  1.8362  0.0810
  631MOL0     H85159   5.566   7.864   8.478 -1.7838  3.9085 -3.6102
  631MOL0     H85160   5.439   7.969   8.508  0.2937  0.1283 -1.2063
  631MOL0     H85161   5.529   7.717   8.664 -1.2371 -2.6195 -1.2128
  631MOL0     H85162   5.355   7.762   8.665 -1.0343  2.9850 -1.3893
  631MOL0     H85163   5.425   7.995   8.758 -1.2580 -0.7310  2.8150
  631MOL0     H85164   5.453   7.852   8.864 -1.5162 -1.5473 -1.5138
  631MOL0     H85165   5.823   7.746   7.813 -4.4828 -0.6428  1.1220
  631MOL0     H85166   6.004   7.641   7.690  0.6963 -0.9871 -0.5966
  631MOL0     H85167   6.390   7.118   7.797  4.4089 -1.0477 -1.3541
  631MOL0     H85168   6.535   7.033   7.637 -2.1985 -1.1435 -1.2801
  631MOL0     H85169   6.411   7.558   6.508 -0.6720  0.1749  0.2389
  631MOL0     H85170   6.554   7.474   6.338  1.8386  1.7622 -2.3677
  631MOL0     H85171   6.694   7.729   5.795  2.7059  2.2119 -0.3034
  631MOL0     H85172   6.851   7.655   5.630 -0.6497  0.7307 -0.0600
  631MOL0     H85173   7.067   7.609   5.566 -2.1170 -1.7157 -2.1354
  631MOL0     H85174   7.172   7.472   5.531  0.3297 -1.7314  1.2101
  631MOL0     H85175   7.147   7.573   5.825  0.5209 -1.0474  0.2212
  631MOL0     H85176   7.261   7.644   5.728 -1.3619  1.7048  1.3920
  631MOL0     H85177   7.233   7.344   5.797 -1.9958  1.8844  2.9407
  631MOL0     H85178   7.347   7.454   5.869  0.0723  1.3937  0.0852
  631MOL0     H85179   7.364   7.380   5.570  0.3205  0.1212  0.0513
  631MOL0     H85180   7.473   7.494   5.655 -2.5462  2.2762  1.1612
  631MOL0     H85181   7.567   7.104   5.812 -1.0459  0.8497  2.4810
  631MOL0     H85182   6.901   7.281   5.836 -3.7956 -1.2534 -0.5612
  631MOL0     H85183   6.775   7.208   5.995  1.1849 -0.0140 -1.3839
  631MOL0     H85184   6.767   7.336   6.119 -1.9869 -0.2037  0.4352
  631MOL0     H85185   6.625   7.280   6.024 -1.6072  4.6582  1.7037
  632MOL0     O85186   9.281   1.749   2.537 -0.4513  0.2237 -0.3617
  632MOL0     C85187   9.252   1.787   2.426 -0.0815 -0.0423 -0.6762
  632MOL0     O85188   9.150   1.866   2.396 -0.1971  0.5478  0.6178
  632MOL0     C85189   9.102   1.937   2.504  0.0755  0.1630  0.2871
  632MOL0     C85190   9.187   2.034   2.572  0.5395 -0.2862  1.1478
  632MOL0     C85191   9.140   2.098   2.684 -0.3801  0.0726  0.2212
  632MOL0     C85192   9.008   2.086   2.734  0.2056  0.2472 -0.6777
  632MOL0     O85193   8.974   2.150   2.852 -0.1126 -0.5461 -1.1837
  632MOL0     C85194   8.836   2.198   2.863 -0.6276 -0.2590 -0.0050
  632MOL0     C85195   8.835   2.331   2.925  0.0608  1.4790 -0.3319
  632MOL0     C85196   8.910   2.440   2.843 -0.1036  1.2150 -0.0429
  632MOL0     C85197   8.872   2.575   2.901  0.5355 -0.2264  0.4772
  632MOL0     C85198   8.920   2.712   2.843 -0.0306  0.1183  0.7507
  632MOL0     C85199   8.865   2.734   2.699  0.5298 -0.7745  0.8927
  632MOL0     C85200   8.963   2.822   2.611 -0.7125  0.0509 -0.2904
  632MOL0     C85201   9.051   2.742   2.510 -0.7029 -0.2927  0.1393
  632MOL0     N85202   9.140   2.832   2.427  0.2087 -0.6856  0.2595
  632MOL0     C85203   9.275   2.871   2.460 -1.1878 -0.5858 -0.2836
  632MOL0     C85204   9.308   2.963   2.373  0.2889  0.5890  0.1074
  632MOL0     C85205   9.438   3.046   2.361 -0.2955 -0.6297  0.1757
  632MOL0     C85206   9.411   3.189   2.409 -0.8600 -0.0754  0.4251
  632MOL0     C85207   9.380   3.179   2.560  0.6816 -0.5754 -0.0716
  632MOL0     C85208   9.353   3.324   2.630  0.3123  0.6106 -0.3679
  632MOL0     O85209   9.300   3.290   2.757 -0.2538  0.0245  0.1451
  632MOL0     C85210   9.263   3.388   2.849  0.3332 -0.1089  0.1628
  632MOL0     C85211   9.159   3.354   2.937  0.3658 -0.6826  0.2084
  632MOL0     C85212   9.116   3.456   3.034 -0.9494 -1.2860 -0.0334
  632MOL0     C85213   9.178   3.582   3.041  0.5959  0.2487 -0.0485
  632MOL0     C85214   9.133   3.686   3.132 -0.3158  0.7021 -0.0731
  632MOL0     O85215   9.169   3.809   3.095 -0.0907 -0.1575  0.2469
  632MOL0     C85216   9.117   3.927   3.153  0.4751  0.5203  0.3726
  632MOL0     C85217   9.043   3.945   3.269 -0.6189  0.8157 -0.7257
  632MOL0     C85218   9.008   4.077   3.323 -0.1671 -0.4396  0.8084
  632MOL0     C85219   9.026   4.187   3.245 -0.3485  0.3115  0.2026
  632MOL0     O85220   8.962   4.307   3.271 -0.3166  0.5525 -0.4372
  632MOL0     C85221   8.866   4.325   3.377 -1.0327  0.3891  1.1246
  632MOL0     C85222   8.811   4.464   3.343 -1.0265  0.5708  0.2980
  632MOL0     C85223   8.911   4.578   3.350 -0.6989  0.1412 -0.1691
  632MOL0     C85224   8.956   4.601   3.500  0.1739 -0.4825  0.5380
  632MOL0     C85225   9.009   4.736   3.519  0.5868 -0.1334  0.5134
  632MOL0     C85226   9.164   4.736   3.501 -0.4220  0.2053  1.2802
  632MOL0     C85227   9.226   4.878   3.517  0.2009  0.7407  0.0142
  632MOL0     C85228   9.228   4.953   3.385 -0.4399 -0.1040  0.0933
  632MOL0    Cl85229   9.327   4.870   3.266 -0.0082 -0.3329 -0.1946
  632MOL0     C85230   9.076   4.164   3.113  0.4737 -0.8008 -0.6784
  632MOL0     C85231   9.124   4.037   3.071  0.3768 -1.1837  0.3287
  632MOL0     O85232   9.058   3.651   3.224  0.4092 -0.0168 -0.1336
  632MOL0     C85233   9.267   3.617   2.940 -0.1479  0.3106 -0.8466
  632MOL0     C85234   9.314   3.517   2.848  0.5873  0.4444 -0.1602
  632MOL0     N85235   9.197   2.999   2.300  0.1660  0.3355 -0.6624
  632MOL0     N85236   9.097   2.929   2.334 -0.1841  1.3623 -0.8500
  632MOL0     C85237   8.922   1.996   2.666 -0.2938 -0.3418 -0.6420
  632MOL0     C85238   8.973   1.916   2.555 -0.4038  1.0146  0.3814
  632MOL0     C85239   9.345   1.737   2.310  0.1499  0.3120  1.4733
  632MOL0     C85240   9.295   1.741   2.178 -0.0104 -0.0350  0.7334
  632MOL0     C85241   9.370   1.688   2.067 -0.4333  0.0063  0.5913
  632MOL0     C85242   9.493   1.632   2.091  0.4750 -0.2943 -0.6055
  632MOL0     O85243   9.561   1.557   2.003  0.3826 -0.7611 -0.4180
  632MOL0     C85244   9.506   1.436   1.971  0.4651  0.9599  1.1652
  632MOL0     C85245   9.495   1.413   1.823 -0.3928 -0.0130  0.9586
  632MOL0     C85246   9.626   1.436   1.731 -0.6110  0.1041  0.1306
  632MOL0     C85247   9.599   1.443   1.583  0.1458  0.7840 -0.3817
  632MOL0     C85248   9.549   1.312   1.532  0.6194 -0.7792  0.2581
  632MOL0     C85249   9.518   1.205   1.490 -0.2656 -0.7825  0.6114
  632MOL0     C85250   9.545   1.640   2.219  0.4474 -0.0858  0.4975
  632MOL0     C85251   9.479   1.694   2.325  0.0885 -0.3487  0.4098
  632MOL0     C85252   9.549   1.686   2.453  0.3838  0.9149 -0.8602
  632MOL0     H85253   9.288   2.047   2.535 -1.1028  0.7919 -3.6599
  632MOL0     H85254   9.212   2.157   2.740  0.3718 -1.8602  1.3944
  632MOL0     H85255   8.778   2.202   2.770 -0.1161 -1.0175 -0.3723
  632MOL0     H85256   8.785   2.128   2.929  0.0219  0.0669  0.8522
  632MOL0     H85257   8.878   2.307   3.022  0.0967 -0.3156 -0.7536
  632MOL0     H85258   8.732   2.358   2.952 -0.6528  1.5763 -2.8589
  632MOL0     H85259   8.880   2.451   2.739  1.8940  2.6864 -0.5222
  632MOL0     H85260   9.017   2.419   2.854 -0.1501 -0.1792 -1.8338
  632MOL0     H85261   8.763   2.580   2.893  0.5379 -2.1112 -1.2072
  632MOL0     H85262   8.918   2.574   3.000  2.0608  1.7675 -0.1343
  632MOL0     H85263   8.892   2.796   2.908 -2.3480 -0.6811  0.8657
  632MOL0     H85264   9.028   2.699   2.853  0.2805 -1.0287 -2.9098
  632MOL0     H85265   8.847   2.640   2.646 -1.0627  0.8221 -1.6341
  632MOL0     H85266   8.764   2.776   2.704  1.1914  1.2340 -0.6442
  632MOL0     H85267   9.034   2.879   2.671  1.6003 -0.7960 -2.0697
  632MOL0     H85268   8.906   2.897   2.556 -2.1984 -0.1929  0.8513
  632MOL0     H85269   9.114   2.668   2.562  1.1631  0.3935 -1.0192
  632MOL0     H85270   8.980   2.687   2.448  0.3681 -1.8414  0.2278
  632MOL0     H85271   9.339   2.833   2.539 -0.7697 -1.4022 -1.0014
  632MOL0     H85272   9.523   3.009   2.417  1.5749  2.6589 -0.1983
  632MOL0     H85273   9.471   3.058   2.257 -3.0787  0.4035 -0.7043
  632MOL0     H85274   9.501   3.244   2.378  0.6439 -3.6796 -2.2924
  632MOL0     H85275   9.324   3.219   2.351  1.1675 -0.6528 -3.2024
  632MOL0     H85276   9.454   3.118   2.611  1.6377  0.3696 -0.3064
  632MOL0     H85277   9.290   3.122   2.585  0.3507  0.5737  1.5188
  632MOL0     H85278   9.278   3.384   2.579  0.7512  1.5074  0.0306
  632MOL0     H85279   9.446   3.381   2.627  0.2880  0.8931  2.2049
  632MOL0     H85280   9.101   3.266   2.915  1.0499 -0.5905 -2.2086
  632MOL0     H85281   9.046   3.423   3.110 -0.9645  1.0466  1.0469
  632MOL0     H85282   9.039   3.858   3.334  1.6697 -0.8576 -2.6866
  632MOL0     H85283   8.960   4.089   3.419  1.4490  4.1062  1.3069
  632MOL0     H85284   8.782   4.257   3.359 -1.4102  1.2822 -0.8471
  632MOL0     H85285   8.911   4.313   3.476 -3.2388  1.0244  2.2621
  632MOL0     H85286   8.762   4.464   3.245  2.6038 -1.5678 -1.7525
  632MOL0     H85287   8.725   4.484   3.409 -0.9014 -0.7117  0.8788
  632MOL0     H85288   8.998   4.565   3.284 -1.4523  0.2655 -1.2218
  632MOL0     H85289   8.861   4.670   3.317  0.9259  1.5289  1.0467
  632MOL0     H85290   9.013   4.516   3.539  1.6003  0.5119  0.6883
  632MOL0     H85291   8.864   4.595   3.560  0.1392 -3.1281  0.3314
  632MOL0     H85292   8.993   4.773   3.621  3.7845 -2.6155  2.1167
  632MOL0     H85293   8.970   4.808   3.447 -2.8454  0.4705  2.7188
  632MOL0     H85294   9.195   4.679   3.589 -2.3857  0.9368  2.5046
  632MOL0     H85295   9.190   4.695   3.402  0.3407  0.4068  1.3903
  632MOL0     H85296   9.329   4.857   3.547  0.3101  0.5326 -0.5078
  632MOL0     H85297   9.175   4.950   3.583  1.9119  3.6895 -1.6434
  632MOL0     H85298   9.129   4.972   3.343 -0.3276  1.7142  0.5894
  632MOL0     H85299   9.277   5.050   3.399 -1.2713  0.2862  0.3615
  632MOL0     H85300   9.082   4.253   3.050 -0.8474 -1.4574 -1.7839
  632MOL0     H85301   9.171   4.025   2.974  2.2026 -0.6022  1.0885
  632MOL0     H85302   9.317   3.713   2.954 -2.2447  0.9788  5.1788
  632MOL0     H85303   9.390   3.552   2.778  2.9281 -0.5066  1.7449
  632MOL0     H85304   8.821   1.977   2.702 -1.1326 -0.2412 -2.8111
  632MOL0     H85305   8.900   1.846   2.515 -0.3755  1.3280 -0.2299
  632MOL0     H85306   9.194   1.777   2.158  0.0364 -1.2927 -2.1631
  632MOL0     H85307   9.339   1.698   1.963 -0.7253  3.0693  0.8713
  632MOL0     H85308   9.404   1.429   2.012  0.0605  2.5422  0.5044
  632MOL0     H85309   9.573   1.356   2.005 -0.0001 -0.3046 -0.7484
  632MOL0     H85310   9.423   1.477   1.772  1.5884  2.2556  0.8071
  632MOL0     H85311   9.461   1.310   1.807 -2.1066  1.0359 -3.6558
  632MOL0     H85312   9.700   1.360   1.756 -1.3985 -0.8351 -0.3516
  632MOL0     H85313   9.669   1.533   1.760  3.4539 -1.2068 -0.8823
  632MOL0     H85314   9.527   1.521   1.559  0.3177  2.6939  4.3418
  632MOL0     H85315   9.689   1.482   1.534 -0.7321  2.0544 -1.0058
  632MOL0     H85316   9.494   1.102   1.471 -0.3854 -0.5589 -0.5333
  632MOL0     H85317   9.646   1.600   2.225 -0.4055 -2.2725  1.5159
  632MOL0     H85318   9.497   1.621   2.524 -0.6236  2.1181 -0.4615
  632MOL0     H85319   9.656   1.665   2.443  0.1227  0.0960 -2.2707
  632MOL0     H85320   9.537   1.783   2.500 -1.5999  0.8942 -1.2375
  633MOL0     O85321   5.181   4.539   8.549  1.0626 -0.8548 -0.1740
  633MOL0     C85322   5.231   4.439   8.518 -0.2306  0.1827  0.2322
  633MOL0     O85323   5.215   4.365   8.413 -0.0304 -0.1813  0.3352
  633MOL0     C85324   5.146   4.414   8.300  0.7812  0.3840 -0.5659
  633MOL0     C85325   5.010   4.442   8.319  0.2681  0.5266  0.3082
  633MOL0     C85326   4.942   4.486   8.207  1.3820  1.3912  1.0777
  633MOL0     C85327   5.003   4.506   8.087 -0.3774  0.1616  0.2051
  633MOL0     O85328   4.940   4.541   7.971  0.0753  0.4660  0.2274
  633MOL0     C85329   4.866   4.656   7.970  0.8034  0.2190 -0.3827
  633MOL0     C85330   4.959   4.773   7.957  0.5058 -0.2232  0.1963
  633MOL0     C85331   4.915   4.905   8.015  0.1817  0.2316 -0.4825
  633MOL0     C85332   4.799   4.968   7.930 -0.8020  0.6968  0.2543
  633MOL0     C85333   4.729   5.089   7.999 -0.0596  0.1639 -0.0669
  633MOL0     C85334   4.597   5.117   7.924 -1.0709 -0.6098  0.4169
  633MOL0     C85335   4.519   5.225   8.004 -0.5425  1.3027  0.0308
  633MOL0     C85336   4.599   5.361   8.025  0.4734 -0.2544  1.1035
  633MOL0     N85337   4.525   5.464   8.098  0.0077  0.1412  0.4691
  633MOL0     C85338   4.418   5.537   8.048 -0.9368  0.2812 -0.7291
  633MOL0     C85339   4.385   5.630   8.144 -0.6277  0.4414  0.3432
  633MOL0     C85340   4.265   5.722   8.151  1.0470  1.0639  0.6712
  633MOL0     C85341   4.273   5.858   8.217 -0.8408  0.2185 -0.6295
  633MOL0     C85342   4.286   5.851   8.368 -0.4225 -0.3542 -0.1159
  633MOL0     C85343   4.243   5.973   8.440 -0.9791 -0.2134  0.2815
  633MOL0     O85344   4.289   5.986   8.574 -1.1949  0.4839 -0.3355
  633MOL0     C85345   4.232   6.077   8.651  0.1528 -0.1049  0.4845
  633MOL0     C85346   4.155   6.188   8.601 -0.3250  0.0905 -0.5701
  633MOL0     C85347   4.101   6.277   8.682 -0.1144 -0.0631 -0.2356
  633MOL0     C85348   4.132   6.267   8.819 -0.4324  0.3824 -0.1169
  633MOL0     C85349   4.073   6.374   8.915 -0.6194  0.3995  0.1861
  633MOL0     O85350   4.123   6.391   9.036  0.3265 -0.0709  0.3146
  633MOL0     C85351   4.109   6.510   9.103 -0.1689  0.3728  0.1343
  633MOL0     C85352   4.076   6.637   9.041 -0.1263 -1.2199 -0.2034
  633MOL0     C85353   4.076   6.751   9.120  0.3198  0.0308 -0.6456
  633MOL0     C85354   4.086   6.751   9.263 -0.4983  1.0062  0.4194
  633MOL0     O85355   4.098   6.873   9.328  0.4998  0.0115  0.5294
  633MOL0     C85356   4.108   6.873   9.470 -0.0338 -0.2936  0.3197
  633MOL0     C85357   4.156   7.013   9.523  0.1409  0.5950  0.1308
  633MOL0     C85358   4.129   7.031   9.675  1.2008 -0.0580 -0.3237
  633MOL0     C85359   3.999   7.103   9.716  0.8493  0.1020  0.8927
  633MOL0     C85360   3.988   7.156   9.873 -1.1498  1.4316  0.7594
  633MOL0     C85361   4.038   7.053   9.974  0.0168 -1.2934 -1.0264
  633MOL0     C85362   3.961   6.921   9.980  0.7609 -0.9394  0.8243
  633MOL0     C85363   4.059   6.806  10.011 -0.2852 -0.1773  0.3482
  633MOL0    Cl85364   4.129   6.839  10.179  0.3941 -0.0368 -0.1409
  633MOL0     C85365   4.106   6.623   9.320 -0.7645 -0.3497  0.9768
  633MOL0     C85366   4.126   6.507   9.241  0.4265  0.3427 -0.3314
  633MOL0     O85367   3.977   6.432   8.862  0.4528  0.1596  0.1694
  633MOL0     C85368   4.213   6.172   8.868 -0.8309 -0.0595 -0.3084
  633MOL0     C85369   4.264   6.072   8.787 -0.1338 -0.0605  0.6689
  633MOL0     N85370   4.487   5.616   8.244 -0.2351  0.6596 -0.4949
  633MOL0     N85371   4.567   5.524   8.214  0.9147  0.1589 -0.1307
  633MOL0     C85372   5.147   4.471   8.071  0.1798  0.2217  0.4467
  633MOL0     C85373   5.212   4.425   8.182  0.1000 -0.2912  1.2627
  633MOL0     C85374   5.300   4.361   8.618  0.2977 -0.4251  0.9202
  633MOL0     C85375   5.269   4.222   8.633  0.5469  0.5011  0.1574
  633MOL0     C85376   5.321   4.144   8.736  1.6337 -0.1010  0.8079
  633MOL0     C85377   5.413   4.197   8.823 -0.1758 -1.0566 -0.9995
  633MOL0     O85378   5.473   4.112   8.914  0.0912  0.4502 -0.3425
  633MOL0     C85379   5.571   4.164   9.003  0.5564  0.7704  0.4138
  633MOL0     C85380   5.606   4.058   9.104  0.2702  0.5672 -0.9232
  633MOL0     C85381   5.689   3.934   9.062  0.4014  0.4657  0.0152
  633MOL0     C85382   5.843   3.984   9.047  0.4298 -0.4266 -0.6694
  633MOL0     C85383   5.884   4.023   9.188  0.1905  0.0394  0.6631
  633MOL0     C85384   5.923   4.067   9.296 -0.0491 -0.1249  0.0965
  633MOL0     C85385   5.451   4.338   8.810 -0.5637 -0.4475 -0.5678
  633MOL0     C85386   5.389   4.416   8.711 -0.4445 -0.5677  0.1974
  633MOL0     C85387   5.444   4.555   8.683  0.7997  0.0514 -0.1228
  633MOL0     H85388   4.967   4.415   8.415  1.0977  0.8645  0.7933
  633MOL0     H85389   4.837   4.493   8.232  1.2468  2.5586  0.2896
  633MOL0     H85390   4.817   4.640   7.874  0.0340 -3.2780  0.4616
  633MOL0     H85391   4.799   4.657   8.057 -0.3534 -1.3716 -1.2028
  633MOL0     H85392   4.983   4.770   7.850  0.5873 -4.1289  0.1686
  633MOL0     H85393   5.053   4.751   8.009  0.3547  0.5484  0.7982
  633MOL0     H85394   5.006   4.965   8.006  1.6942 -1.6081  1.4338
  633MOL0     H85395   4.898   4.899   8.123 -0.6734 -1.5860 -0.6780
  633MOL0     H85396   4.823   4.979   7.824 -0.8359  1.0844  0.2865
  633MOL0     H85397   4.728   4.885   7.923 -0.2071  0.2695 -0.9744
  633MOL0     H85398   4.705   5.067   8.103  2.7493  2.3020  1.1786
  633MOL0     H85399   4.806   5.164   7.982  1.0083 -1.0952 -0.9776
  633MOL0     H85400   4.617   5.137   7.819 -1.3891 -2.1155  0.0378
  633MOL0     H85401   4.528   5.032   7.931 -2.2833  0.1662 -1.3815
  633MOL0     H85402   4.483   5.178   8.096  2.0298 -1.0897 -0.0563
  633MOL0     H85403   4.435   5.248   7.938  0.6820 -0.8782 -2.4815
  633MOL0     H85404   4.683   5.336   8.091 -0.7988 -3.7144  1.6022
  633MOL0     H85405   4.645   5.402   7.934  0.4900  1.4436  1.8368
  633MOL0     H85406   4.381   5.513   7.949  2.2221 -0.8729 -1.7643
  633MOL0     H85407   4.231   5.735   8.047  1.0519  1.4401  0.7129
  633MOL0     H85408   4.181   5.666   8.193 -0.1196  2.9835  1.0278
  633MOL0     H85409   4.350   5.919   8.169 -0.4244  0.5161  0.3954
  633MOL0     H85410   4.184   5.917   8.193 -1.1640 -0.1769 -0.4284
  633MOL0     H85411   4.389   5.821   8.392  0.0501  0.1280 -1.4436
  633MOL0     H85412   4.220   5.768   8.397 -1.9784  1.0145  0.4337
  633MOL0     H85413   4.135   5.987   8.438 -1.0954 -0.3320  2.8523
  633MOL0     H85414   4.292   6.057   8.390 -0.5207 -0.5217  0.2026
  633MOL0     H85415   4.132   6.187   8.495 -1.0708 -1.7213 -0.4329
  633MOL0     H85416   4.039   6.355   8.639 -0.6613  0.5356  1.5277
  633MOL0     H85417   4.069   6.643   8.933 -1.6521 -2.2705 -0.1963
  633MOL0     H85418   4.063   6.852   9.082  1.1354  0.4297  0.0925
  633MOL0     H85419   4.006   6.848   9.502  0.0047 -6.9827 -2.9642
  633MOL0     H85420   4.175   6.800   9.517 -1.4694 -2.8314 -1.3552
  633MOL0     H85421   4.263   7.026   9.503  0.1541 -1.2466 -1.2227
  633MOL0     H85422   4.099   7.081   9.459 -1.8400  0.4962  1.6897
  633MOL0     H85423   4.131   6.929   9.712 -4.5289 -0.6477 -0.7279
  633MOL0     H85424   4.210   7.091   9.716 -0.5438  1.7332  0.6923
  633MOL0     H85425   3.907   7.044   9.706  0.1730  1.2922 -0.2790
  633MOL0     H85426   3.974   7.182   9.644 -1.8681 -2.8625 -1.7153
  633MOL0     H85427   3.882   7.154   9.902 -1.3695  3.9452  0.3794
  633MOL0     H85428   4.028   7.254   9.900 -1.5501  2.2896 -1.5085
  633MOL0     H85429   4.142   7.028   9.949  1.7138 -0.3082  3.9207
  633MOL0     H85430   4.040   7.124  10.057  0.2176  0.2327 -2.2767
  633MOL0     H85431   3.928   6.891   9.880 -1.1981  2.1369  0.4005
  633MOL0     H85432   3.892   6.922  10.065  2.0872  2.4358  2.0471
  633MOL0     H85433   4.017   6.706   9.995  0.3316 -0.1637 -1.5942
  633MOL0     H85434   4.144   6.811   9.943  0.4981 -0.7139  1.2694
  633MOL0     H85435   4.106   6.616   9.428 -0.5666  2.5974  1.2554
  633MOL0     H85436   4.161   6.424   9.301  1.6033  0.1187 -1.3018
  633MOL0     H85437   4.235   6.164   8.974  3.0066 -2.6730 -1.0848
  633MOL0     H85438   4.341   6.001   8.816 -0.8346 -1.8473 -1.4940
  633MOL0     H85439   5.202   4.485   7.978  0.8695 -2.3248  0.4001
  633MOL0     H85440   5.318   4.402   8.182  1.4533  4.7677  1.4300
  633MOL0     H85441   5.204   4.172   8.561  1.1895 -0.4119  0.1865
  633MOL0     H85442   5.311   4.039   8.711 -4.0385 -0.1041  1.8228
  633MOL0     H85443   5.541   4.253   9.059 -0.9475 -0.3574  1.4886
  633MOL0     H85444   5.660   4.192   8.946 -1.0730  0.3858 -2.4910
  633MOL0     H85445   5.507   4.020   9.133  1.4004 -0.5188  1.9029
  633MOL0     H85446   5.654   4.111   9.187 -1.5722 -0.2932  0.7739
  633MOL0     H85447   5.652   3.893   8.968  3.0716 -0.7994 -0.6052
  633MOL0     H85448   5.678   3.848   9.129  0.3594 -0.3898 -1.0623
  633MOL0     H85449   5.899   3.910   8.989  0.0806 -1.2010 -0.0317
  633MOL0     H85450   5.850   4.071   8.982  1.7032 -0.4908 -0.6367
  633MOL0     H85451   5.959   4.098   9.392 -0.3660 -1.7739  0.7806
  633MOL0     H85452   5.522   4.388   8.874 -0.4887  0.4095 -1.3037
  633MOL0     H85453   5.548   4.564   8.714  1.4072 -0.3101 -1.9216
  633MOL0     H85454   5.452   4.590   8.579  1.6529 -0.8708 -0.3797
  633MOL0     H85455   5.369   4.625   8.721 -0.9894 -1.3008 -1.0426
  634MOL0     O85456   8.029  10.212   8.578 -0.4687  0.1621  0.0690
  634MOL0     C85457   8.063  10.149   8.472  1.0133 -0.4566 -1.6000
  634MOL0     O85458   8.034  10.012   8.466  0.1162  0.4216 -0.7661
  634MOL0     C85459   7.965   9.951   8.570  0.1575  0.8291 -1.3630
  634MOL0     C85460   7.827   9.990   8.581 -0.3592 -0.7233  0.0025
  634MOL0     C85461   7.747   9.928   8.684 -0.1532  0.7400  0.1131
  634MOL0     C85462   7.803   9.836   8.774 -0.4140  0.1577  0.7986
  634MOL0     O85463   7.712   9.762   8.850  0.3749  0.3299  0.1240
  634MOL0     C85464   7.760   9.714   8.969 -0.3200 -0.5051 -0.8979
  634MOL0     C85465   7.753   9.558   8.972 -0.7174  0.3331  0.2870
  634MOL0     C85466   7.829   9.513   9.091  0.6101  0.0674 -0.3088
  634MOL0     C85467   7.848   9.350   9.096  0.4927 -0.4479  0.2184
  634MOL0     C85468   7.897   9.298   9.239  0.4754 -0.2868  0.2587
  634MOL0     C85469   7.778   9.309   9.340 -0.7578 -0.4631 -0.8528
  634MOL0     C85470   7.830   9.325   9.481  0.4249  0.7689 -0.2368
  634MOL0     C85471   7.929   9.199   9.521  0.1850 -0.7023 -0.2186
  634MOL0     N85472   7.980   9.216   9.657  0.8317 -1.0660  0.3818
  634MOL0     C85473   7.936   9.139   9.754  0.1237  0.5451 -0.5372
  634MOL0     C85474   8.042   9.105   9.827  0.4171  0.3481  0.9418
  634MOL0     C85475   8.061   9.021   9.955  1.5227 -0.0231 -0.2915
  634MOL0     C85476   7.927   9.020  10.038  0.7611  0.5099 -0.1668
  634MOL0     C85477   7.813   8.923   9.986 -0.4568  0.5434 -0.9981
  634MOL0     C85478   7.684   8.929  10.078 -0.1173 -0.1183  0.3674
  634MOL0     O85479   7.713   8.938  10.220  0.6316 -0.1474 -0.1394
  634MOL0     C85480   7.607   8.930  10.313  0.2289 -0.1293  0.0596
  634MOL0     C85481   7.591   9.033  10.414  0.0364  0.3113  0.4182
  634MOL0     C85482   7.478   9.043  10.487 -0.0468  0.4876  0.2333
  634MOL0     C85483   7.373   8.943  10.476 -0.0812  0.6395 -0.5104
  634MOL0     C85484   7.264   8.932  10.566  0.2686  0.7132 -0.5206
  634MOL0     O85485   7.150   8.855  10.529  0.4836 -0.5032  0.2190
  634MOL0     C85486   7.044   8.866  10.610 -0.3404  0.1836 -0.8148
  634MOL0     C85487   6.959   8.969  10.585  0.6135  0.2343 -0.1398
  634MOL0     C85488   6.844   8.988  10.665 -0.2037 -0.9809 -0.5233
  634MOL0     C85489   6.822   8.893  10.771  0.4335 -0.4659  0.9179
  634MOL0     O85490   6.694   8.900  10.825 -0.9798  1.2190  0.0277
  634MOL0     C85491   6.662   8.794  10.917 -0.1027 -1.5807  0.4825
  634MOL0     C85492   6.533   8.838  10.989  0.4085 -0.0459 -0.3133
  634MOL0     C85493   6.508   8.754  11.106 -0.0017 -0.0578 -0.7026
  634MOL0     C85494   6.382   8.802  11.193 -0.0573  0.0631 -0.6882
  634MOL0     C85495   6.409   8.927  11.277  0.1737  0.9047 -0.2575
  634MOL0     C85496   6.293   8.978  11.367 -0.8511 -0.7428 -0.2245
  634MOL0     C85497   6.167   9.041  11.298  0.1957 -0.5509  0.7415
  634MOL0     C85498   6.182   9.192  11.287  0.2972  0.3935  0.3074
  634MOL0    Cl85499   6.099   9.273  11.436  0.5188  0.2826  0.0149
  634MOL0     C85500   6.909   8.788  10.794 -0.4846 -0.2380  0.2428
  634MOL0     C85501   7.020   8.779  10.716 -0.0174 -0.1098 -0.6182
  634MOL0     O85502   7.281   8.977  10.684  0.0427  0.4293  0.7631
  634MOL0     C85503   7.400   8.835  10.381 -0.2573 -0.0494  0.7254
  634MOL0     C85504   7.509   8.832  10.300 -0.1329  0.2497  0.3654
  634MOL0     N85505   8.152   9.168   9.771  0.8724  0.3002  0.1775
  634MOL0     N85506   8.112   9.240   9.672 -0.5981  0.3613  0.7279
  634MOL0     C85507   7.935   9.800   8.747 -0.8039  1.1051 -0.0764
  634MOL0     C85508   8.014   9.859   8.650  0.0026 -0.3278 -0.4018
  634MOL0     C85509   8.131  10.224   8.361 -0.6481 -0.1722 -0.3351
  634MOL0     C85510   8.138  10.364   8.370 -0.5858  0.9428 -0.9083
  634MOL0     C85511   8.200  10.446   8.269  0.1247  0.9012 -0.3526
  634MOL0     C85512   8.231  10.380   8.153 -0.3303 -0.3388 -0.1925
  634MOL0     O85513   8.287  10.452   8.056  0.3185 -0.4001 -0.6685
  634MOL0     C85514   8.236  10.414   7.920 -1.2550  0.2014 -0.0689
  634MOL0     C85515   8.264  10.518   7.811  0.7799  0.3043  0.2275
  634MOL0     C85516   8.234  10.463   7.676  0.5751  0.4746 -0.5792
  634MOL0     C85517   8.093  10.411   7.661 -0.4530 -0.0958  0.8083
  634MOL0     C85518   8.025  10.432   7.534  0.7152  0.1662 -0.0238
  634MOL0     C85519   7.972  10.456   7.432 -0.9264 -0.7342 -0.6703
  634MOL0     C85520   8.231  10.239   8.145  0.3001 -0.1549 -0.4684
  634MOL0     C85521   8.194  10.155   8.252 -0.1979 -0.5147 -0.3794
  634MOL0     C85522   8.214  10.008   8.235 -0.3558 -0.1715  0.3963
  634MOL0     H85523   7.767  10.048   8.512 -0.5236  1.2379  1.6921
  634MOL0     H85524   7.641   9.947   8.693 -0.2133  0.8094 -0.6053
  634MOL0     H85525   7.860   9.753   8.990 -0.5031  0.4543 -1.6967
  634MOL0     H85526   7.690   9.744   9.047 -0.9798  1.4413 -2.1683
  634MOL0     H85527   7.794   9.506   8.885 -3.3350  0.7699 -1.3229
  634MOL0     H85528   7.647   9.532   8.967 -0.4991 -0.3816 -1.3090
  634MOL0     H85529   7.783   9.540   9.187  0.5600  0.9434 -0.5653
  634MOL0     H85530   7.931   9.553   9.088  0.8202 -0.2510  1.4157
  634MOL0     H85531   7.745   9.319   9.076 -0.8970  1.9013  2.9760
  634MOL0     H85532   7.916   9.330   9.013  0.3094  1.8891 -0.5882
  634MOL0     H85533   7.915   9.191   9.225 -1.4139 -0.9455  2.2645
  634MOL0     H85534   7.997   9.332   9.267  1.5400 -0.2735 -3.1258
  634MOL0     H85535   7.710   9.393   9.321 -1.3059  0.4673  3.8968
  634MOL0     H85536   7.720   9.217   9.333 -2.0350  0.2200  0.2465
  634MOL0     H85537   7.748   9.329   9.553 -0.0332 -0.1334 -0.6857
  634MOL0     H85538   7.882   9.421   9.491  1.5307 -0.0548  2.7938
  634MOL0     H85539   7.880   9.102   9.514 -0.8498 -0.3036  0.9760
  634MOL0     H85540   8.017   9.203   9.457  2.3785 -0.1526  2.6061
  634MOL0     H85541   7.831   9.111   9.754  0.6879 -1.9025 -2.1579
  634MOL0     H85542   8.101   8.923   9.929  2.6955 -0.7458  3.6237
  634MOL0     H85543   8.141   9.078  10.004  1.1390 -1.3901  2.0747
  634MOL0     H85544   7.961   9.007  10.142  0.1445  5.1382  0.8320
  634MOL0     H85545   7.870   9.112  10.048 -0.9542 -0.5664  0.3834
  634MOL0     H85546   7.841   8.818   9.978 -1.6450  0.0112  1.0243
  634MOL0     H85547   7.790   8.948   9.882 -2.4604 -3.3497 -1.6522
  634MOL0     H85548   7.621   8.842  10.061 -2.3998  1.2444  1.3737
  634MOL0     H85549   7.617   9.012  10.051 -0.0854  0.0649  0.8449
  634MOL0     H85550   7.673   9.102  10.433  0.4221  0.0378 -0.2213
  634MOL0     H85551   7.464   9.118  10.565 -1.0077 -0.7877  1.3299
  634MOL0     H85552   6.965   9.023  10.492  0.2631  3.4422  1.5446
  634MOL0     H85553   6.766   9.051  10.623  3.3710  2.2057 -3.0704
  634MOL0     H85554   6.635   8.701  10.867 -2.4537 -1.7024  1.7930
  634MOL0     H85555   6.737   8.772  10.993 -0.1886  0.3852  1.2027
  634MOL0     H85556   6.541   8.944  11.012  1.6935 -0.4496  1.3100
  634MOL0     H85557   6.447   8.842  10.922  0.6076  2.3851 -0.5035
  634MOL0     H85558   6.509   8.646  11.088  0.4817 -1.1331  4.4088
  634MOL0     H85559   6.598   8.777  11.165 -0.0344 -0.1809 -0.6046
  634MOL0     H85560   6.374   8.716  11.260 -1.1877 -1.3868 -2.5769
  634MOL0     H85561   6.293   8.814  11.131  0.7658  2.1839 -1.5516
  634MOL0     H85562   6.447   9.011  11.218  0.4360  2.0442  1.4549
  634MOL0     H85563   6.483   8.895  11.351 -1.1538  1.8649  1.5857
  634MOL0     H85564   6.249   8.891  11.416 -0.3314 -0.5530  0.6118
  634MOL0     H85565   6.341   9.038  11.444 -0.1667 -0.1166 -1.1199
  634MOL0     H85566   6.067   9.019  11.339 -0.5294 -1.0706 -1.2215
  634MOL0     H85567   6.161   9.012  11.193  2.2920 -0.9796  0.7042
  634MOL0     H85568   6.287   9.222  11.277  1.7906 -3.6169  1.8947
  634MOL0     H85569   6.132   9.230  11.197 -0.7299 -2.1282 -0.2577
  634MOL0     H85570   6.892   8.701  10.857  1.5892 -1.5284 -0.8499
  634MOL0     H85571   7.079   8.689  10.731 -0.8752 -0.6384 -0.3658
  634MOL0     H85572   7.325   8.766  10.342  1.6794 -1.8065 -0.0366
  634MOL0     H85573   7.502   8.756  10.223 -1.0229  0.9819 -0.3002
  634MOL0     H85574   7.970   9.722   8.815  3.2993  3.0223  0.2921
  634MOL0     H85575   8.121   9.858   8.634  0.1185  2.0078 -0.0909
  634MOL0     H85576   8.106  10.425   8.454  4.2989  1.7804  0.6807
  634MOL0     H85577   8.195  10.554   8.269 -1.9052  0.8617  1.0507
  634MOL0     H85578   8.128  10.404   7.931 -1.5753  0.7107 -2.2646
  634MOL0     H85579   8.286  10.320   7.893  0.7105  0.3252  2.6348
  634MOL0     H85580   8.370  10.546   7.814  1.7180 -2.4830 -2.2849
  634MOL0     H85581   8.207  10.611   7.814  1.8777  1.0048 -0.0693
  634MOL0     H85582   8.304  10.383   7.651 -0.2801  0.0285 -1.6503
  634MOL0     H85583   8.254  10.535   7.597 -2.1169  1.6714 -0.3012
  634MOL0     H85584   8.098  10.303   7.675 -1.6094 -0.5340 -1.6384
  634MOL0     H85585   8.026  10.448   7.739 -1.0728  0.5673 -0.0135
  634MOL0     H85586   7.944  10.480   7.331 -1.3545  0.4641 -0.2782
  634MOL0     H85587   8.264  10.189   8.055  2.0006 -1.0083  0.5921
  634MOL0     H85588   8.145   9.966   8.160  0.1325 -1.5158  0.6793
  634MOL0     H85589   8.316  10.005   8.197  0.8728  3.4587  2.8613
  634MOL0     H85590   8.210   9.954   8.329  0.4954  1.0586  1.1662
  635MOL0     O85591   8.972   9.323  10.630  0.1679  0.3222 -1.2537
  635MOL0     C85592   8.939   9.225  10.688  0.1904 -0.5342 -1.2669
  635MOL0     O85593   8.864   9.124  10.636  0.1984 -0.0032 -0.8654
  635MOL0     C85594   8.813   9.121  10.509  0.4289 -0.3408  0.8465
  635MOL0     C85595   8.865   9.188  10.400  0.1704 -0.4878 -0.7083
  635MOL0     C85596   8.805   9.171  10.276  0.1017 -0.2399  0.0573
  635MOL0     C85597   8.698   9.089  10.262  0.2458  0.4083 -0.1674
  635MOL0     O85598   8.649   9.075  10.133 -0.2005  0.4015 -0.1336
  635MOL0     C85599   8.561   8.963  10.103  0.1941  0.4963  0.2898
  635MOL0     C85600   8.521   8.974   9.955 -0.6837 -0.4064 -0.2142
  635MOL0     C85601   8.648   8.987   9.865 -0.4063 -0.2607  0.2521
  635MOL0     C85602   8.630   9.080   9.742 -0.0204  0.5421  1.1224
  635MOL0     C85603   8.746   9.049   9.639 -0.2242 -0.6955  0.0296
  635MOL0     C85604   8.728   8.925   9.566  0.5822 -0.4735 -0.0007
  635MOL0     C85605   8.851   8.878   9.492  0.4322 -1.3053  0.5142
  635MOL0     C85606   8.835   8.752   9.391 -0.8599 -1.3375 -0.7247
  635MOL0     N85607   8.765   8.639   9.444  1.2383  1.0567  0.5361
  635MOL0     C85608   8.789   8.575   9.564 -0.1416  0.4038 -0.5480
  635MOL0     C85609   8.690   8.481   9.579 -0.3626 -0.5651 -0.7182
  635MOL0     C85610   8.686   8.373   9.687 -0.1531 -0.2752  0.5357
  635MOL0     C85611   8.688   8.444   9.826 -0.7864  0.4198 -0.2143
  635MOL0     C85612   8.550   8.520   9.853  0.5468  1.3767 -0.2091
  635MOL0     C85613   8.549   8.581   9.991 -0.3001 -1.0006  0.1882
  635MOL0     O85614   8.426   8.646  10.029 -0.0046  0.4988  0.0445
  635MOL0     C85615   8.312   8.571  10.069 -0.5630 -0.2487  0.3888
  635MOL0     C85616   8.288   8.431  10.066 -0.3100  0.4355  0.4347
  635MOL0     C85617   8.161   8.381  10.086 -0.2904 -0.2694  0.2842
  635MOL0     C85618   8.054   8.466  10.129 -0.5793 -0.1330  1.3754
  635MOL0     C85619   7.935   8.401  10.181 -0.8125 -0.3551 -0.4240
  635MOL0     O85620   7.940   8.271  10.184 -1.3171 -0.0678 -0.0258
  635MOL0     C85621   7.855   8.193  10.255 -0.2090 -0.7373 -0.6470
  635MOL0     C85622   7.823   8.066  10.203  0.3032 -0.1295 -1.2372
  635MOL0     C85623   7.734   7.972  10.268 -0.1741  0.0845  0.1605
  635MOL0     C85624   7.680   8.018  10.389  0.6728  0.0305  0.9190
  635MOL0     O85625   7.596   7.932  10.466  0.1032 -0.0440  0.1497
  635MOL0     C85626   7.557   7.805  10.414 -1.2990 -0.8124  0.7350
  635MOL0     C85627   7.430   7.754  10.498 -0.7708  0.3890  0.6099
  635MOL0     C85628   7.302   7.832  10.474  0.3209 -0.2032 -0.2879
  635MOL0     C85629   7.168   7.765  10.517 -0.0114  0.6398 -0.7154
  635MOL0     C85630   7.143   7.766  10.668 -0.4070  0.2728 -0.3481
  635MOL0     C85631   7.003   7.692  10.710  0.7431  0.2075  0.8042
  635MOL0     C85632   6.966   7.721  10.857 -0.1709 -0.0005  0.2046
  635MOL0     C85633   6.974   7.596  10.943  1.3929 -0.7726  1.1463
  635MOL0    Cl85634   6.840   7.471  10.892 -0.3658 -0.0639  0.3033
  635MOL0     C85635   7.728   8.133  10.446  0.0397  0.2671  0.1126
  635MOL0     C85636   7.803   8.226  10.379 -0.2117  0.6107 -0.2079
  635MOL0     O85637   7.847   8.474  10.220  0.4392  0.5951 -0.4028
  635MOL0     C85638   8.078   8.607  10.132  0.1085  0.2117 -0.2925
  635MOL0     C85639   8.205   8.659  10.108 -0.8423  0.3751  0.0083
  635MOL0     N85640   8.584   8.520   9.500 -0.2025  0.0844  0.0628
  635MOL0     N85641   8.634   8.596   9.404  0.6550  0.0053 -0.8537
  635MOL0     C85642   8.650   9.023  10.373 -0.4761 -0.2485  0.2993
  635MOL0     C85643   8.704   9.036  10.499 -1.0626 -0.2748 -0.6528
  635MOL0     C85644   9.016   9.210  10.821  0.3727  0.7028  0.1416
  635MOL0     C85645   9.022   9.079  10.875 -0.6087  0.2369 -0.1799
  635MOL0     C85646   9.078   9.054  11.000 -0.1114  0.8192 -0.1882
  635MOL0     C85647   9.127   9.158  11.080  0.6091 -0.4596 -0.3896
  635MOL0     O85648   9.195   9.121  11.198 -0.3751  0.2545  0.2791
  635MOL0     C85649   9.240   9.211  11.300 -0.0386  0.1418  0.0072
  635MOL0     C85650   9.298   9.125  11.412  0.1494 -0.6729  1.0013
  635MOL0     C85651   9.281   9.192  11.547 -0.5798 -0.8083  0.5472
  635MOL0     C85652   9.313   9.105  11.667 -0.0179 -1.1962  0.3850
  635MOL0     C85653   9.454   9.056  11.648  0.8947  0.4659 -0.0594
  635MOL0     C85654   9.562   9.010  11.625 -0.1306 -0.5550  0.3241
  635MOL0     C85655   9.109   9.288  11.035  0.2980 -0.0194  0.0815
  635MOL0     C85656   9.047   9.313  10.908  0.0556  0.2091  0.2322
  635MOL0     C85657   8.994   9.454  10.883  0.0952 -1.1556 -0.4502
  635MOL0     H85658   8.962   9.238  10.399  1.7042 -3.2235 -1.9412
  635MOL0     H85659   8.846   9.209  10.182 -0.5965 -0.1185 -0.2081
  635MOL0     H85660   8.618   8.871  10.118 -0.4023 -0.3135 -1.9356
  635MOL0     H85661   8.472   8.949  10.165  0.7859 -1.4422  0.7744
  635MOL0     H85662   8.461   9.064   9.938 -0.2104 -0.3200 -1.6071
  635MOL0     H85663   8.471   8.881   9.928  1.3590 -1.7444  0.3692
  635MOL0     H85664   8.674   8.886   9.832 -0.9604 -0.9345  1.7598
  635MOL0     H85665   8.731   9.030   9.921 -1.5627  1.4597  0.7240
  635MOL0     H85666   8.542   9.050   9.684  0.9413  0.1592 -0.1882
  635MOL0     H85667   8.630   9.186   9.765  0.6444  1.0198 -0.9083
  635MOL0     H85668   8.763   9.124   9.561  0.1726 -0.1018  0.6780
  635MOL0     H85669   8.835   9.043   9.703  1.2606  2.3245 -1.5130
  635MOL0     H85670   8.695   8.848   9.637  2.6616 -2.4144 -1.0134
  635MOL0     H85671   8.646   8.939   9.495  2.4818  0.1001 -2.2131
  635MOL0     H85672   8.921   8.859   9.574 -2.7442 -0.3767  3.6912
  635MOL0     H85673   8.883   8.955   9.421 -2.9603 -1.9328 -1.9871
  635MOL0     H85674   8.793   8.784   9.296 -1.1561 -3.0618 -1.2100
  635MOL0     H85675   8.940   8.728   9.369 -0.7496 -0.0485 -1.7042
  635MOL0     H85676   8.880   8.572   9.623  1.5476  3.0232 -2.7486
  635MOL0     H85677   8.595   8.314   9.683  0.3118 -0.9626 -1.7626
  635MOL0     H85678   8.762   8.298   9.660  0.6813  1.1387 -1.3201
  635MOL0     H85679   8.708   8.375   9.909 -2.2614  2.4460  1.9778
  635MOL0     H85680   8.757   8.529   9.834 -2.4689  2.1080 -2.4928
  635MOL0     H85681   8.460   8.462   9.830  2.1310 -1.4029  0.1193
  635MOL0     H85682   8.545   8.611   9.791  1.7832  1.5992 -0.0101
  635MOL0     H85683   8.634   8.650   9.989 -1.6126  0.6919  0.3993
  635MOL0     H85684   8.569   8.500  10.062 -0.0941 -2.5761 -1.5916
  635MOL0     H85685   8.375   8.370  10.046  1.4033  0.5151  5.9497
  635MOL0     H85686   8.163   8.273  10.077 -0.3175 -0.1628 -1.2704
  635MOL0     H85687   7.871   8.037  10.110  3.6085  0.5455  0.1200
  635MOL0     H85688   7.722   7.869  10.235  0.0323  0.4320 -1.0772
  635MOL0     H85689   7.526   7.797  10.309 -1.2870  0.1917  0.6442
  635MOL0     H85690   7.646   7.743  10.432 -1.7737 -0.9986  2.6491
  635MOL0     H85691   7.406   7.650  10.473 -1.5897  0.4625  1.0753
  635MOL0     H85692   7.463   7.758  10.603 -0.2488  1.7412  0.4115
  635MOL0     H85693   7.308   7.933  10.515 -1.2774 -0.2908  0.2202
  635MOL0     H85694   7.298   7.854  10.367  4.0753 -0.8627 -0.7039
  635MOL0     H85695   7.167   7.659  10.492  0.3942 -0.0134  1.7378
  635MOL0     H85696   7.081   7.815  10.474 -0.7200 -0.2823 -0.3743
  635MOL0     H85697   7.138   7.871  10.696  2.6078  0.5446 -0.4738
  635MOL0     H85698   7.223   7.721  10.728 -1.4327  0.2885  1.0855
  635MOL0     H85699   6.923   7.737  10.650  0.6492 -2.7541 -1.5333
  635MOL0     H85700   7.005   7.587  10.678 -0.7843  0.5923 -0.7354
  635MOL0     H85701   6.862   7.755  10.862 -0.5458 -1.2401  1.1329
  635MOL0     H85702   7.037   7.787  10.907 -2.2989  0.7214  2.4219
  635MOL0     H85703   7.071   7.548  10.928  0.9767 -1.0559 -0.9288
  635MOL0     H85704   6.950   7.609  11.049 -0.7787  0.9185  0.5104
  635MOL0     H85705   7.682   8.142  10.543 -0.0786  0.0903  0.0727
  635MOL0     H85706   7.824   8.324  10.422 -0.8604  0.8549 -0.4207
  635MOL0     H85707   7.998   8.680  10.139 -1.7632 -1.3965 -2.7850
  635MOL0     H85708   8.217   8.766  10.094 -1.6617  0.1583 -3.2057
  635MOL0     H85709   8.561   8.963  10.359 -1.8928  1.7730  0.1406
  635MOL0     H85710   8.665   8.976  10.581  1.2755 -2.3931 -1.0045
  635MOL0     H85711   8.981   9.010  10.801 -0.3392  1.3431 -1.4058
  635MOL0     H85712   9.098   8.953  11.032  1.6236  0.2575 -2.7375
  635MOL0     H85713   9.153   9.265  11.340 -0.4966  0.1853 -1.0149
  635MOL0     H85714   9.304   9.290  11.260 -3.2381  3.5528  1.0332
  635MOL0     H85715   9.404   9.102  11.397  0.1015 -0.4112  0.2045
  635MOL0     H85716   9.235   9.037  11.426 -0.3008 -0.2777  1.5080
  635MOL0     H85717   9.189   9.252  11.549  0.9458  1.6247  2.1920
  635MOL0     H85718   9.349   9.277  11.551 -0.2868 -0.8255 -1.9510
  635MOL0     H85719   9.293   9.167  11.755 -0.5668  0.3385 -0.7620
  635MOL0     H85720   9.238   9.025  11.670 -0.5128 -0.7339  0.5694
  635MOL0     H85721   9.656   8.963  11.602 -1.1591 -1.1046 -3.3018
  635MOL0     H85722   9.134   9.365  11.108 -1.0648  2.0205 -1.4587
  635MOL0     H85723   8.886   9.455  10.869 -0.0997  1.0491  0.7655
  635MOL0     H85724   9.018   9.511  10.973  1.2719 -3.1073  0.5263
  635MOL0     H85725   9.051   9.509  10.807  2.6000 -0.7008  1.6430
  636MOL0     O85726   3.097   6.533   8.351  0.6653  0.1182 -0.7769
  636MOL0     C85727   3.040   6.498   8.245  0.9767 -0.4599 -0.2483
  636MOL0     O85728   2.910   6.440   8.235  0.2324  0.6996 -0.2181
  636MOL0     C85729   2.827   6.467   8.345 -0.5404 -0.5797  0.7379
  636MOL0     C85730   2.784   6.357   8.423 -0.6755  0.4419  0.4605
  636MOL0     C85731   2.694   6.376   8.538 -0.0788 -0.7660  0.7389
  636MOL0     C85732   2.668   6.503   8.580 -0.1059  0.6739  0.2498
  636MOL0     O85733   2.612   6.497   8.705  0.7180  0.1363  0.1196
  636MOL0     C85734   2.629   6.612   8.798 -0.0838 -0.5786 -0.7808
  636MOL0     C85735   2.555   6.600   8.931  0.2851  0.5801 -1.0480
  636MOL0     C85736   2.551   6.728   9.010  0.3135  0.6645  0.4304
  636MOL0     C85737   2.425   6.723   9.101  0.8502  0.4642  0.4082
  636MOL0     C85738   2.412   6.852   9.188 -0.2898  0.1291 -0.0120
  636MOL0     C85739   2.279   6.847   9.267 -0.1655 -0.4007  0.3677
  636MOL0     C85740   2.273   6.941   9.390 -0.2985  0.3011 -0.2219
  636MOL0     C85741   2.263   7.092   9.361 -0.0807  0.3661 -0.3688
  636MOL0     N85742   2.308   7.161   9.488 -0.1231 -0.5264 -0.1790
  636MOL0     C85743   2.427   7.224   9.512  1.0072  0.0056  0.5652
  636MOL0     C85744   2.431   7.266   9.649  0.0837  0.3955 -0.4308
  636MOL0     C85745   2.536   7.351   9.699 -0.0344  0.0643 -0.3542
  636MOL0     C85746   2.472   7.449   9.810 -0.9526  0.5385 -0.1770
  636MOL0     C85747   2.393   7.567   9.754  0.3418  0.3761  1.4029
  636MOL0     C85748   2.319   7.631   9.864 -0.8970 -0.6718 -0.0605
  636MOL0     O85749   2.425   7.673   9.951  0.3257  0.2879  0.2916
  636MOL0     C85750   2.398   7.746  10.063 -0.7750 -0.8588  0.2491
  636MOL0     C85751   2.496   7.824  10.121  0.2112 -0.0779  0.2241
  636MOL0     C85752   2.476   7.886  10.245 -0.2053 -0.6098 -0.4222
  636MOL0     C85753   2.342   7.910  10.295  0.3064  0.3376  0.5569
  636MOL0     C85754   2.304   8.001  10.393  0.0485  0.1652  0.0860
  636MOL0     O85755   2.391   8.085  10.440 -0.9241  0.7381 -0.5321
  636MOL0     C85756   2.346   8.166  10.537 -1.0435 -0.2839  0.8107
  636MOL0     C85757   2.373   8.146  10.671 -0.1822 -1.0247  0.3090
  636MOL0     C85758   2.346   8.248  10.761  0.4860  0.0032 -0.4244
  636MOL0     C85759   2.266   8.359  10.722  1.5269  0.9995 -0.2399
  636MOL0     O85760   2.202   8.464  10.793 -0.9912  0.0563 -0.0592
  636MOL0     C85761   2.236   8.482  10.928 -0.8695 -0.0713  1.4476
  636MOL0     C85762   2.180   8.615  10.978  0.2981 -0.0445  0.5567
  636MOL0     C85763   2.030   8.634  10.998 -1.2599 -0.8620 -0.5513
  636MOL0     C85764   2.011   8.786  11.024  0.4055  0.5954 -0.4315
  636MOL0     C85765   1.861   8.810  11.044  0.2648  0.4864 -0.6443
  636MOL0     C85766   1.805   8.761  11.182 -0.7179  0.6868  0.4237
  636MOL0     C85767   1.841   8.840  11.300 -0.6234  0.1058 -0.1955
  636MOL0     C85768   1.796   8.989  11.287 -0.3541 -0.0085  0.1576
  636MOL0    Cl85769   1.845   9.057  11.445 -0.3478  0.1258  0.6000
  636MOL0     C85770   2.222   8.368  10.584 -1.1215 -0.7465 -0.2508
  636MOL0     C85771   2.274   8.276  10.491  0.0319 -0.8637 -0.2207
  636MOL0     O85772   2.188   7.990  10.432 -0.3774 -0.9214 -0.5223
  636MOL0     C85773   2.247   7.827  10.238 -0.7919  0.4776  0.0039
  636MOL0     C85774   2.274   7.735  10.133 -0.1359 -0.4487  0.4500
  636MOL0     N85775   2.305   7.235   9.697  0.3714 -0.4847 -0.4147
  636MOL0     N85776   2.234   7.168   9.605  0.1441  0.0537  0.5917
  636MOL0     C85777   2.707   6.616   8.496  0.2312  0.8849  0.4659
  636MOL0     C85778   2.777   6.591   8.380 -0.9886 -1.0860  0.1610
  636MOL0     C85779   3.112   6.552   8.124 -0.0071  0.5876 -0.4206
  636MOL0     C85780   3.043   6.637   8.038  0.5548  0.2056 -0.1407
  636MOL0     C85781   3.098   6.701   7.927  0.0024 -0.0431  0.8086
  636MOL0     C85782   3.233   6.682   7.899  0.3218 -0.4468 -0.6440
  636MOL0     O85783   3.301   6.725   7.791 -0.0932  0.1735 -0.1981
  636MOL0     C85784   3.247   6.796   7.676 -0.7507  0.4808 -0.4055
  636MOL0     C85785   3.365   6.822   7.576 -0.2439 -1.4676 -0.8642
  636MOL0     C85786   3.317   6.881   7.443 -0.9042  0.6407 -0.8049
  636MOL0     C85787   3.199   6.978   7.433 -0.5820 -0.0419  0.5909
  636MOL0     C85788   3.248   7.116   7.454  0.2295 -1.3128  0.2203
  636MOL0     C85789   3.278   7.232   7.489 -0.0155  0.9210 -0.1591
  636MOL0     C85790   3.310   6.610   7.993 -0.2624  0.3315  0.6782
  636MOL0     C85791   3.251   6.545   8.097 -0.0393 -0.0268 -1.1051
  636MOL0     C85792   3.337   6.476   8.197  0.1409 -0.1224  0.3633
  636MOL0     H85793   2.821   6.262   8.388  1.7268  2.5850 -3.6230
  636MOL0     H85794   2.655   6.290   8.591  1.2944  0.1006  3.3835
  636MOL0     H85795   2.737   6.626   8.810 -0.1455 -0.9860  0.3538
  636MOL0     H85796   2.599   6.708   8.753  2.5527  3.0387  4.2500
  636MOL0     H85797   2.603   6.519   8.987 -0.4990  1.6291  1.2551
  636MOL0     H85798   2.449   6.583   8.907 -0.3126 -0.1104  1.7874
  636MOL0     H85799   2.540   6.818   8.948  0.0825 -0.8596 -1.8514
  636MOL0     H85800   2.644   6.734   9.066  2.0047  1.4698 -2.2507
  636MOL0     H85801   2.332   6.716   9.044 -0.2299  1.9499  1.9325
  636MOL0     H85802   2.434   6.641   9.173 -0.9994 -1.2184 -1.1582
  636MOL0     H85803   2.507   6.857   9.243 -1.0042  2.3472  1.1060
  636MOL0     H85804   2.415   6.936   9.118 -0.8972 -0.5836 -0.9287
  636MOL0     H85805   2.192   6.865   9.203 -0.4596  1.4356  1.2399
  636MOL0     H85806   2.259   6.750   9.315 -1.1854  0.2646  1.3295
  636MOL0     H85807   2.366   6.934   9.446 -0.5843 -1.8523  0.0437
  636MOL0     H85808   2.190   6.920   9.459 -0.2694  0.0284 -0.2701
  636MOL0     H85809   2.332   7.123   9.283  0.1831  0.6228 -0.0385
  636MOL0     H85810   2.161   7.119   9.331 -0.9283 -0.3624  1.6289
  636MOL0     H85811   2.511   7.238   9.445  2.5887 -3.5531  1.5705
  636MOL0     H85812   2.611   7.287   9.746  1.9400  1.2983 -1.7170
  636MOL0     H85813   2.571   7.425   9.627  1.2419  0.9321  1.1036
  636MOL0     H85814   2.394   7.406   9.874  0.7170  1.3817  2.5776
  636MOL0     H85815   2.554   7.496   9.865 -0.0721  0.8131 -1.6638
  636MOL0     H85816   2.320   7.532   9.680  0.7610  1.3880  0.4845
  636MOL0     H85817   2.462   7.631   9.698 -0.7869  0.9608  0.6350
  636MOL0     H85818   2.250   7.560   9.911 -1.3265  0.0719  0.4558
  636MOL0     H85819   2.266   7.717   9.822 -0.2476  0.3472  1.1386
  636MOL0     H85820   2.595   7.823  10.077 -0.3124 -4.6703 -1.4813
  636MOL0     H85821   2.565   7.924  10.293  1.7092 -1.3314 -3.1647
  636MOL0     H85822   2.433   8.065  10.711  1.6647 -0.0155 -0.2445
  636MOL0     H85823   2.387   8.254  10.861 -1.2528  1.1926  0.2574
  636MOL0     H85824   2.200   8.394  10.982 -2.5063  0.0760  0.6614
  636MOL0     H85825   2.341   8.492  10.958 -1.0094  0.4242  1.7921
  636MOL0     H85826   2.247   8.656  11.054  2.1082 -0.4270 -0.7607
  636MOL0     H85827   2.212   8.680  10.896 -2.4718 -0.5311 -1.0666
  636MOL0     H85828   1.967   8.615  10.910 -1.6837  0.1069 -0.4739
  636MOL0     H85829   2.007   8.568  11.082  1.1352 -1.7455 -0.5303
  636MOL0     H85830   2.056   8.848  10.946  5.0662  1.2313  2.3690
  636MOL0     H85831   2.063   8.826  11.111  0.2200  1.4114 -0.6926
  636MOL0     H85832   1.806   8.755  10.968 -2.0722 -1.4117  2.1925
  636MOL0     H85833   1.841   8.917  11.035 -2.2289  0.0022 -1.6090
  636MOL0     H85834   1.698   8.752  11.165 -0.6218  2.5350 -1.5351
  636MOL0     H85835   1.831   8.655  11.193  0.1049  1.0140  2.0024
  636MOL0     H85836   1.948   8.823  11.316 -0.6048 -1.6720 -1.8739
  636MOL0     H85837   1.785   8.795  11.382 -2.0708  1.2949 -0.4789
  636MOL0     H85838   1.860   9.040  11.214 -1.7791  0.0265 -1.1071
  636MOL0     H85839   1.693   8.997  11.254 -0.0212 -0.0578 -0.9340
  636MOL0     H85840   2.157   8.451  10.558  0.3645  1.4533  2.5168
  636MOL0     H85841   2.254   8.291  10.385 -1.0151 -1.4070 -0.1057
  636MOL0     H85842   2.142   7.815  10.264 -1.4582 -1.2903 -2.9356
  636MOL0     H85843   2.196   7.667  10.100 -2.6290  1.0190  2.9747
  636MOL0     H85844   2.679   6.718   8.520  1.4252  1.9296 -2.1916
  636MOL0     H85845   2.800   6.679   8.320 -1.3746 -0.7733  0.4656
  636MOL0     H85846   2.938   6.655   8.059  0.6754  0.4598  0.2605
  636MOL0     H85847   3.027   6.760   7.869  1.8575  1.2967 -0.1777
  636MOL0     H85848   3.196   6.891   7.695  2.6910  2.4489 -0.2283
  636MOL0     H85849   3.172   6.728   7.635  0.0404 -1.2713  0.9230
  636MOL0     H85850   3.430   6.736   7.562  3.2172  0.2866  2.5116
  636MOL0     H85851   3.432   6.892   7.628 -0.5265  0.8227 -3.3595
  636MOL0     H85852   3.310   6.789   7.384  0.4893 -1.7795  2.4343
  636MOL0     H85853   3.398   6.938   7.397 -0.2363  1.1121  0.8708
  636MOL0     H85854   3.169   6.967   7.329 -0.4376 -1.9407  0.7024
  636MOL0     H85855   3.122   6.949   7.505  0.4638 -1.9741  0.9932
  636MOL0     H85856   3.288   7.335   7.517 -0.1672  0.7671  0.4678
  636MOL0     H85857   3.417   6.611   7.973  0.2106  0.8705  2.9460
  636MOL0     H85858   3.284   6.388   8.236 -1.0808  0.6925  0.6105
  636MOL0     H85859   3.427   6.439   8.148 -1.4589 -4.1953  0.0302
  636MOL0     H85860   3.365   6.546   8.276 -2.6352  0.7765  0.6661
  637MOL0     O85861  10.395   0.426  11.506  0.0158 -0.0481  0.1077
  637MOL0     C85862  10.457   0.418  11.401  0.1991 -0.2095  0.3328
  637MOL0     O85863  10.426   0.456  11.272  0.0875 -0.0719  0.0542
  637MOL0     C85864  10.296   0.494  11.240 -0.3717 -0.1157 -0.2270
  637MOL0     C85865  10.265   0.616  11.179 -0.0412  0.2492 -1.0283
  637MOL0     C85866  10.136   0.661  11.157 -0.3266 -0.7654 -0.6473
  637MOL0     C85867  10.032   0.584  11.216 -0.3672 -0.9056 -0.4721
  637MOL0     O85868   9.898   0.628  11.205  0.2191  0.0780 -0.1501
  637MOL0     C85869   9.813   0.574  11.097  0.1338 -0.1215 -0.1940
  637MOL0     C85870   9.743   0.443  11.143 -0.0174  0.1459 -0.3634
  637MOL0     C85871   9.652   0.475  11.260  0.4198  0.9128  0.6610
  637MOL0     C85872   9.562   0.364  11.293  0.8352  0.6658 -0.3168
  637MOL0     C85873   9.465   0.420  11.395 -0.8820  0.2046 -0.3897
  637MOL0     C85874   9.397   0.307  11.469 -0.1220  0.4105  0.2736
  637MOL0     C85875   9.300   0.226  11.387  0.6931 -0.4634  0.1197
  637MOL0     C85876   9.225   0.130  11.467  0.0689  0.0816  0.2859
  637MOL0     N85877   9.227  -0.009  11.420 -0.2658 -0.5194 -0.3814
  637MOL0     C85878   9.325  -0.101  11.439  0.6562 -0.4928  0.1812
  637MOL0     C85879   9.284  -0.212  11.376 -0.0831  0.7438  0.7091
  637MOL0     C85880   9.369  -0.336  11.356 -0.1665 -0.3836 -0.4766
  637MOL0     C85881   9.308  -0.443  11.449 -0.6940 -0.7551  0.2852
  637MOL0     C85882   9.349  -0.581  11.393 -0.2578 -0.1038  1.4000
  637MOL0     C85883   9.363  -0.700  11.488 -0.5273 -0.0059 -0.8941
  637MOL0     O85884   9.431  -0.659  11.605 -0.0112  0.0820 -0.9938
  637MOL0     C85885   9.419  -0.726  11.727  0.1083  0.5594  0.2199
  637MOL0     C85886   9.413  -0.870  11.741 -0.1482  0.6550 -1.0570
  637MOL0     C85887   9.409  -0.928  11.870  0.2667  0.6910  0.4370
  637MOL0     C85888   9.411  -0.852  11.977  0.2686  0.3338  0.0533
  637MOL0     C85889   9.400  -0.921  12.117 -0.7651 -1.0384  0.1615
  637MOL0     O85890   9.403  -0.837  12.222  0.0884  0.3633 -0.0113
  637MOL0     C85891   9.444  -0.879  12.345  1.3334  0.1464  0.2500
  637MOL0     C85892   9.376  -0.830  12.456  1.2596  0.9255  0.8400
  637MOL0     C85893   9.415  -0.868  12.581  0.1813  0.7326  0.7077
  637MOL0     C85894   9.531  -0.948  12.598  0.3585 -0.3659 -0.0098
  637MOL0     O85895   9.554  -0.976  12.731 -0.0387 -0.1063 -0.1293
  637MOL0     C85896   9.695  -0.947  12.770 -0.0981  0.1238 -0.9587
  637MOL0     C85897   9.702  -0.966  12.921  0.2727  0.0445 -0.1659
  637MOL0     C85898   9.605  -0.875  12.996 -0.1980 -0.3729 -0.5205
  637MOL0     C85899   9.599  -0.909  13.151 -0.1775 -0.2278 -0.1621
  637MOL0     C85900   9.502  -0.839  13.237 -0.2457  0.2023 -1.1946
  637MOL0     C85901   9.515  -0.888  13.381 -0.3198 -0.1862 -0.9306
  637MOL0     C85902   9.404  -0.813  13.466  0.5488  0.0254 -0.3060
  637MOL0     C85903   9.413  -0.876  13.607 -1.1096 -0.2364  0.1008
  637MOL0    Cl85904   9.577  -0.841  13.663 -0.5744  0.1357 -0.0798
  637MOL0     C85905   9.604  -0.996  12.486 -0.2412  0.2678 -0.9592
  637MOL0     C85906   9.561  -0.957  12.357  0.0800  0.4559  0.1191
  637MOL0     O85907   9.400  -1.043  12.128 -0.6931 -0.0525  0.4654
  637MOL0     C85908   9.419  -0.708  11.968 -0.3574 -0.1582 -0.3611
  637MOL0     C85909   9.435  -0.647  11.841 -0.0264  0.0333  0.3733
  637MOL0     N85910   9.162  -0.183  11.316 -0.1515 -1.5470 -0.4963
  637MOL0     N85911   9.124  -0.066  11.361  0.0400  0.9355 -0.0962
  637MOL0     C85912  10.062   0.461  11.276  0.6698  0.1480  0.4057
  637MOL0     C85913  10.188   0.409  11.281 -0.5569  0.4574 -0.1042
  637MOL0     C85914  10.594   0.371  11.426 -0.2180 -0.3387  0.3195
  637MOL0     C85915  10.656   0.307  11.319  0.0593  0.3804  0.5625
  637MOL0     C85916  10.792   0.270  11.329  0.3498 -0.2608  0.2547
  637MOL0     C85917  10.869   0.298  11.433  0.3756 -0.0159 -0.4587
  637MOL0     O85918  11.002   0.280  11.414 -0.3505  0.2787  0.4502
  637MOL0     C85919  11.084   0.278  11.525  0.2272 -0.5101 -0.2966
  637MOL0     C85920  11.081   0.145  11.598 -0.6792 -0.7475 -0.1881
  637MOL0     C85921  11.182   0.108  11.713  0.5618  0.2407 -0.0216
  637MOL0     C85922  11.170   0.183  11.838 -1.0627 -0.0415 -1.1799
  637MOL0     C85923  11.225   0.313  11.809  0.4049 -0.0637  0.7871
  637MOL0     C85924  11.276   0.420  11.808 -0.1476 -0.0220 -0.2397
  637MOL0     C85925  10.805   0.358  11.547  0.1163 -0.3401  0.3150
  637MOL0     C85926  10.669   0.395  11.544 -0.0233  0.3186  0.0622
  637MOL0     C85927  10.629   0.486  11.663  0.6749  0.5838  0.6982
  637MOL0     H85928  10.343   0.682  11.142  0.2145 -0.2449 -1.3767
  637MOL0     H85929  10.116   0.760  11.117 -0.9688 -0.6492 -0.0755
  637MOL0     H85930   9.737   0.648  11.070 -1.7940 -2.3489 -1.2203
  637MOL0     H85931   9.881   0.549  11.014 -2.1204 -1.0006 -1.8766
  637MOL0     H85932   9.813   0.366  11.177 -0.7584  0.1577  1.2901
  637MOL0     H85933   9.691   0.392  11.062  0.2439 -1.4138  0.4032
  637MOL0     H85934   9.589   0.561  11.234 -2.5642 -1.8926 -2.3585
  637MOL0     H85935   9.703   0.503  11.353  0.6818  0.6746  0.5912
  637MOL0     H85936   9.509   0.333  11.202  2.4554 -0.5620 -0.9017
  637MOL0     H85937   9.624   0.287  11.339 -0.6552  0.0689  0.7732
  637MOL0     H85938   9.525   0.475  11.469  1.3052  1.3137 -2.8239
  637MOL0     H85939   9.389   0.486  11.351  0.1131  3.4639  2.2987
  637MOL0     H85940   9.471   0.237  11.510 -2.9769 -2.0798  1.4940
  637MOL0     H85941   9.344   0.342  11.557  0.8545  0.7482  0.7472
  637MOL0     H85942   9.354   0.173  11.308  0.0982 -0.6819 -0.1491
  637MOL0     H85943   9.224   0.296  11.349  1.3336 -0.6169 -1.5271
  637MOL0     H85944   9.269   0.132  11.567 -0.7380  0.2209  0.6452
  637MOL0     H85945   9.118   0.152  11.470  0.4636  2.5135 -1.1995
  637MOL0     H85946   9.410  -0.070  11.499 -0.8423  1.4054  1.4925
  637MOL0     H85947   9.341  -0.353  11.251  1.7832 -0.7214 -0.9695
  637MOL0     H85948   9.478  -0.340  11.357 -0.0530 -3.7679 -3.9340
  637MOL0     H85949   9.328  -0.419  11.554 -1.3158  0.6410  0.1093
  637MOL0     H85950   9.203  -0.435  11.419 -0.8536  3.2340  1.2916
  637MOL0     H85951   9.442  -0.577  11.335  1.2673  1.3776  3.7658
  637MOL0     H85952   9.269  -0.608  11.324  3.3148 -2.5164 -2.2869
  637MOL0     H85953   9.404  -0.790  11.440 -1.6376 -1.1660  0.2510
  637MOL0     H85954   9.262  -0.731  11.515 -0.5983 -0.9404 -2.1593
  637MOL0     H85955   9.427  -0.933  11.653  2.5408 -1.5320  0.7398
  637MOL0     H85956   9.399  -1.036  11.875 -0.0907  0.7738  1.6650
  637MOL0     H85957   9.308  -0.749  12.434 -0.6459 -1.4091 -3.0269
  637MOL0     H85958   9.353  -0.840  12.665 -2.0535 -1.5050 -0.0693
  637MOL0     H85959   9.762  -1.012  12.712  0.9845  0.5429 -0.2248
  637MOL0     H85960   9.728  -0.845  12.750  1.2449  0.0377  0.5731
  637MOL0     H85961   9.687  -1.074  12.933 -0.0849  0.1909  0.8755
  637MOL0     H85962   9.801  -0.945  12.963 -0.3605 -2.4405  3.0046
  637MOL0     H85963   9.623  -0.769  12.974 -3.6872  0.6141  0.6460
  637MOL0     H85964   9.505  -0.893  12.955 -1.4435  1.0798  1.6189
  637MOL0     H85965   9.699  -0.901  13.193  0.7205 -0.6379 -2.0762
  637MOL0     H85966   9.570  -1.013  13.170  0.9824  0.0869  4.3129
  637MOL0     H85967   9.404  -0.861  13.193 -0.0385 -1.4973 -0.8653
  637MOL0     H85968   9.505  -0.730  13.230  0.0929  0.1238 -2.5007
  637MOL0     H85969   9.497  -0.996  13.394 -0.3400 -0.0365  0.5540
  637MOL0     H85970   9.614  -0.863  13.420 -0.3220 -2.9733  1.2203
  637MOL0     H85971   9.305  -0.845  13.431  2.3521 -3.8021 -2.6573
  637MOL0     H85972   9.419  -0.705  13.470 -0.5640  0.2413  5.2355
  637MOL0     H85973   9.346  -0.822  13.675  2.5828  0.2468  3.7557
  637MOL0     H85974   9.392  -0.983  13.608  0.1366 -0.5527  2.8604
  637MOL0     H85975   9.696  -1.052  12.497  0.6760  1.8024 -0.5508
  637MOL0     H85976   9.618  -0.997  12.274  0.5146 -4.6884  2.5302
  637MOL0     H85977   9.418  -0.656  12.064 -3.1177 -1.1072  0.2139
  637MOL0     H85978   9.453  -0.541  11.828 -1.2038  0.2139  0.0648
  637MOL0     H85979   9.980   0.397  11.307  1.0228 -1.9067 -2.4948
  637MOL0     H85980  10.201   0.310  11.324  3.5894  1.6652  2.0308
  637MOL0     H85981  10.601   0.293  11.226 -0.6462  1.7396  0.7506
  637MOL0     H85982  10.829   0.229  11.236  0.7845  0.3756  0.1417
  637MOL0     H85983  11.075   0.350  11.607  1.3667 -1.0914  0.3715
  637MOL0     H85984  11.185   0.305  11.492 -0.7208 -0.4242 -3.3789
  637MOL0     H85985  11.088   0.064  11.525  1.7574  0.0515 -0.9171
  637MOL0     H85986  10.983   0.149  11.647 -0.6065  2.4755 -0.1084
  637MOL0     H85987  11.280   0.106  11.665  0.3174 -0.5103 -0.4964
  637MOL0     H85988  11.186   0.003  11.741  0.5970  0.3434  0.3703
  637MOL0     H85989  11.066   0.204  11.863 -1.5241 -2.2410 -1.0737
  637MOL0     H85990  11.226   0.137  11.920 -0.4072 -0.4336 -1.8372
  637MOL0     H85991  11.311   0.521  11.795  2.0567 -0.5498  0.9463
  637MOL0     H85992  10.867   0.387  11.631 -1.2352 -2.4235  2.1611
  637MOL0     H85993  10.563   0.446  11.740 -2.0391  4.7972  0.8762
  637MOL0     H85994  10.715   0.533  11.712  1.6406  1.4373 -1.6557
  637MOL0     H85995  10.576   0.568  11.615 -2.6140 -2.1091 -0.7054
  638MOL0     O85996   4.621   7.109   8.490 -0.1593 -0.0450  0.1431
  638MOL0     C85997   4.737   7.150   8.512  0.0982 -0.1164 -0.3387
  638MOL0     O85998   4.852   7.105   8.444  0.2860  0.4561 -0.4171
  638MOL0     C85999   4.828   6.989   8.367  0.2031 -0.7058 -0.0744
  638MOL0     C86000   4.908   6.986   8.250 -0.1115  0.0303 -0.2588
  638MOL0     C86001   4.894   6.887   8.155  1.7625  0.5114 -1.1343
  638MOL0     C86002   4.810   6.776   8.191  0.3784  0.4270  0.4609
  638MOL0     O86003   4.809   6.661   8.113 -0.3818 -0.3125  0.6655
  638MOL0     C86004   4.755   6.701   7.984 -0.8821  0.8358 -0.0370
  638MOL0     C86005   4.787   6.590   7.886 -0.4653  0.2223  0.0753
  638MOL0     C86006   4.751   6.446   7.928  0.5232  1.0383 -0.6929
  638MOL0     C86007   4.814   6.326   7.843 -0.6368 -0.1469 -0.0289
  638MOL0     C86008   4.727   6.204   7.849  0.7898  0.9328 -0.0017
  638MOL0     C86009   4.728   6.144   7.991  0.2617  0.0740 -0.6035
  638MOL0     C86010   4.662   6.014   7.984 -0.1494  0.4475  0.7224
  638MOL0     C86011   4.627   5.952   8.115  0.1417  0.5651 -0.2113
  638MOL0     N86012   4.745   5.901   8.187 -0.1822 -0.0414 -0.6803
  638MOL0     C86013   4.752   5.880   8.326 -0.8475  0.5169 -0.9039
  638MOL0     C86014   4.877   5.837   8.343 -0.9904  0.1102  0.0659
  638MOL0     C86015   4.928   5.791   8.479 -0.4337 -0.0148  0.1780
  638MOL0     C86016   4.988   5.656   8.442 -0.3881  0.5732  0.4498
  638MOL0     C86017   5.007   5.566   8.572 -0.2037 -0.0840  0.3238
  638MOL0     C86018   5.007   5.413   8.541  0.1586 -0.7678 -0.0390
  638MOL0     O86019   4.867   5.376   8.520 -0.3416  0.7409 -0.1450
  638MOL0     C86020   4.827   5.252   8.491  0.2572 -0.8387 -0.4527
  638MOL0     C86021   4.904   5.143   8.446 -1.0028  0.4226  0.1624
  638MOL0     C86022   4.842   5.024   8.401 -0.3104  0.5159 -0.3387
  638MOL0     C86023   4.698   5.011   8.419 -0.6667  0.3420  0.6729
  638MOL0     C86024   4.647   4.879   8.374  0.0645 -1.4726 -0.2136
  638MOL0     O86025   4.716   4.759   8.397  0.2645  0.3765  0.5530
  638MOL0     C86026   4.651   4.642   8.384 -1.0471  0.5589  0.3057
  638MOL0     C86027   4.689   4.553   8.475  0.4603 -0.1608 -0.0751
  638MOL0     C86028   4.666   4.421   8.465  0.3588  0.4434  1.0961
  638MOL0     C86029   4.592   4.381   8.348  1.0748  0.4214  0.0060
  638MOL0     O86030   4.561   4.248   8.338 -0.1765  0.2439  0.3378
  638MOL0     C86031   4.426   4.224   8.311 -0.2014  0.0465  0.0120
  638MOL0     C86032   4.392   4.087   8.345 -0.0499  0.7042  0.1311
  638MOL0     C86033   4.253   4.048   8.287 -0.1447 -0.6979 -0.3553
  638MOL0     C86034   4.130   4.081   8.379 -0.0829  0.8522 -0.0102
  638MOL0     C86035   3.997   4.039   8.309  1.1323  0.1109  0.8352
  638MOL0     C86036   3.872   4.082   8.393 -0.7350  0.5164 -0.3962
  638MOL0     C86037   3.734   4.095   8.330  0.0197 -0.2355  0.3480
  638MOL0     C86038   3.630   4.199   8.389 -0.9361 -0.7216 -0.0124
  638MOL0    Cl86039   3.695   4.369   8.364 -0.3039  0.2593 -0.3451
  638MOL0     C86040   4.544   4.467   8.254 -0.2137 -0.5442  1.3419
  638MOL0     C86041   4.583   4.601   8.266 -0.1460 -0.8619  0.6675
  638MOL0     O86042   4.535   4.889   8.320 -0.1338  0.4399 -0.1625
  638MOL0     C86043   4.623   5.121   8.469  0.3714 -2.0943 -0.8706
  638MOL0     C86044   4.689   5.243   8.500  1.3307  0.7505  0.5014
  638MOL0     N86045   4.956   5.854   8.235 -0.7323 -0.0119  0.1114
  638MOL0     N86046   4.871   5.884   8.135  0.0456  0.2572  0.6462
  638MOL0     C86047   4.744   6.773   8.314  0.1184 -0.0820 -0.3625
  638MOL0     C86048   4.749   6.885   8.400 -0.0236 -0.0036  0.7725
  638MOL0     C86049   4.740   7.243   8.631 -0.2237 -0.2276 -0.5541
  638MOL0     C86050   4.843   7.241   8.728  0.6636  0.9803 -0.4404
  638MOL0     C86051   4.844   7.336   8.832  0.2892  0.4465  0.3410
  638MOL0     C86052   4.740   7.433   8.844  0.0020 -0.8000 -1.0861
  638MOL0     O86053   4.731   7.530   8.947 -0.5120  1.1665  0.5352
  638MOL0     C86054   4.809   7.502   9.072  0.1535 -0.2713  0.5723
  638MOL0     C86055   4.784   7.377   9.158  0.5935 -0.7846  0.3341
  638MOL0     C86056   4.754   7.404   9.307 -0.2669 -0.9279  0.0672
  638MOL0     C86057   4.606   7.436   9.333  0.3041  0.1841 -0.0908
  638MOL0     C86058   4.502   7.326   9.321 -0.3645  0.7067 -0.1080
  638MOL0     C86059   4.424   7.239   9.304  0.1772  0.7420  0.7632
  638MOL0     C86060   4.639   7.443   8.745 -0.0093 -0.0871 -0.6405
  638MOL0     C86061   4.632   7.348   8.638 -0.6074 -0.2145  0.2937
  638MOL0     C86062   4.517   7.364   8.537 -0.1919 -0.0483 -0.3607
  638MOL0     H86063   4.976   7.069   8.232  1.4026 -0.9415  0.6686
  638MOL0     H86064   4.954   6.894   8.065  6.0044 -0.4937  1.3424
  638MOL0     H86065   4.646   6.709   7.993 -1.4065 -2.2962 -1.9922
  638MOL0     H86066   4.785   6.799   7.946  1.0794  0.8197  1.3037
  638MOL0     H86067   4.894   6.598   7.868 -0.8679 -1.9980 -5.6115
  638MOL0     H86068   4.739   6.607   7.788 -1.9468 -4.1101 -0.1846
  638MOL0     H86069   4.643   6.431   7.939  0.7947 -1.7955 -1.1391
  638MOL0     H86070   4.781   6.431   8.032 -0.0211  0.0311 -0.6753
  638MOL0     H86071   4.819   6.343   7.735 -0.4535  1.6804  0.2301
  638MOL0     H86072   4.911   6.308   7.890 -1.2303  0.9531  1.7168
  638MOL0     H86073   4.627   6.231   7.816 -0.0024 -1.5260  0.2126
  638MOL0     H86074   4.747   6.119   7.782 -2.0391  1.3135 -1.4735
  638MOL0     H86075   4.830   6.135   8.030 -0.4611 -0.2575  1.2992
  638MOL0     H86076   4.688   6.215   8.063  2.0534 -0.6011  1.1651
  638MOL0     H86077   4.730   5.951   7.927  0.2102  1.4986 -0.0506
  638MOL0     H86078   4.579   6.017   7.913  0.1884 -3.2530 -0.0283
  638MOL0     H86079   4.570   6.026   8.173  0.4121  3.2367 -3.1183
  638MOL0     H86080   4.558   5.869   8.095 -0.6786  1.9329 -3.7462
  638MOL0     H86081   4.668   5.872   8.395 -1.1214  4.0342 -0.6785
  638MOL0     H86082   5.002   5.853   8.531 -0.6879  0.3514  0.1113
  638MOL0     H86083   4.847   5.789   8.553  0.4814 -0.4563  1.2030
  638MOL0     H86084   4.923   5.600   8.374  0.5871  0.8535 -0.7540
  638MOL0     H86085   5.075   5.681   8.381 -2.6556  2.6655 -2.2060
  638MOL0     H86086   4.935   5.586   8.653  0.0286 -0.0497  0.5244
  638MOL0     H86087   5.109   5.578   8.610  0.1860  0.8749 -0.9504
  638MOL0     H86088   5.042   5.364   8.632  3.6489 -3.5354 -2.5698
  638MOL0     H86089   5.077   5.387   8.461  0.7000 -1.2070  0.5717
  638MOL0     H86090   5.011   5.156   8.430 -1.1730  0.2329 -1.2917
  638MOL0     H86091   4.897   4.941   8.357 -0.4488 -0.0583  0.5577
  638MOL0     H86092   4.760   4.584   8.551 -0.2558  0.7968  0.2187
  638MOL0     H86093   4.704   4.347   8.535 -3.6415 -2.1610  0.8455
  638MOL0     H86094   4.361   4.295   8.363 -0.2856 -0.3566  0.4549
  638MOL0     H86095   4.419   4.240   8.203  2.7719  0.4320 -0.2169
  638MOL0     H86096   4.470   4.015   8.317  0.2566  0.2442  2.0390
  638MOL0     H86097   4.377   4.076   8.453  0.2893 -0.9984  0.0350
  638MOL0     H86098   4.237   4.100   8.192 -1.6341  1.0610  0.7875
  638MOL0     H86099   4.261   3.940   8.266  0.1904 -0.3527 -2.2128
  638MOL0     H86100   4.125   4.187   8.406 -1.1534  1.1467 -1.2903
  638MOL0     H86101   4.142   4.008   8.459 -0.6828 -2.0481 -2.4184
  638MOL0     H86102   3.984   3.932   8.296  0.7528  0.4140 -1.8110
  638MOL0     H86103   3.997   4.088   8.211 -1.7147 -1.7707 -0.2077
  638MOL0     H86104   3.855   4.006   8.469  1.2507 -1.0116 -1.3857
  638MOL0     H86105   3.896   4.182   8.429  0.5552  0.0252  0.1703
  638MOL0     H86106   3.691   3.997   8.306 -3.4912  0.2841  3.5118
  638MOL0     H86107   3.759   4.136   8.231 -1.2016  1.2100  0.5968
  638MOL0     H86108   3.528   4.185   8.353 -1.1629  1.4087 -0.3061
  638MOL0     H86109   3.637   4.171   8.494  1.2561 -2.0842 -0.4509
  638MOL0     H86110   4.473   4.435   8.179 -0.8282  0.7723  1.3399
  638MOL0     H86111   4.554   4.678   8.196 -0.2120 -0.6035  0.9737
  638MOL0     H86112   4.518   5.108   8.493  0.1807 -1.9357 -1.6105
  638MOL0     H86113   4.629   5.323   8.542 -0.7015 -1.4159  1.9308
  638MOL0     H86114   4.687   6.689   8.352 -0.9832  0.7115 -0.1740
  638MOL0     H86115   4.691   6.895   8.491 -0.7642  1.0352  0.2017
  638MOL0     H86116   4.931   7.184   8.702 -1.1818 -0.1876 -5.1879
  638MOL0     H86117   4.933   7.329   8.894  1.9190 -0.3462 -1.9274
  638MOL0     H86118   4.790   7.583   9.143  0.2841 -0.7705  1.1905
  638MOL0     H86119   4.916   7.510   9.051  0.2222 -0.7278  0.7259
  638MOL0     H86120   4.868   7.308   9.143 -0.2244 -2.4508  2.8466
  638MOL0     H86121   4.691   7.340   9.114  0.3257  0.8691 -0.5837
  638MOL0     H86122   4.803   7.492   9.351 -3.7151  2.0600 -1.5341
  638MOL0     H86123   4.791   7.320   9.367 -0.0780  0.1850  1.5592
  638MOL0     H86124   4.594   7.475   9.434 -0.5019 -3.1020  1.1860
  638MOL0     H86125   4.581   7.513   9.259 -0.5598  1.2190  1.2211
  638MOL0     H86126   4.358   7.160   9.273 -2.3435  2.6605  0.9222
  638MOL0     H86127   4.559   7.513   8.767 -0.1881 -0.8461  1.2299
  638MOL0     H86128   4.559   7.370   8.436  1.7839 -0.0012  0.4248
  638MOL0     H86129   4.455   7.274   8.544  1.7853 -1.4179  0.2722
  638MOL0     H86130   4.457   7.448   8.573  0.4969  0.1866  0.2591
  639MOL0     O86131   5.663   6.220   1.696 -0.2303 -0.1287  0.3121
  639MOL0     C86132   5.721   6.302   1.760  0.3856 -0.5158  0.6989
  639MOL0     O86133   5.852   6.334   1.730  1.1378 -0.3070 -0.0741
  639MOL0     C86134   5.918   6.274   1.626 -0.0480 -0.2653 -0.3034
  639MOL0     C86135   5.876   6.306   1.491 -0.2343  0.4657 -0.4891
  639MOL0     C86136   5.925   6.250   1.377  0.3869  0.4700  1.0525
  639MOL0     C86137   6.038   6.160   1.397  0.8497  0.6610  0.1101
  639MOL0     O86138   6.099   6.120   1.280 -0.2731  1.1923 -0.2266
  639MOL0     C86139   6.169   5.992   1.273 -0.2794 -0.1945 -0.0358
  639MOL0     C86140   6.316   6.017   1.278  0.0772 -1.4474 -0.0486
  639MOL0     C86141   6.377   6.049   1.135 -0.5358 -0.7921  0.3020
  639MOL0     C86142   6.318   6.165   1.062 -0.3474  0.0254 -0.3128
  639MOL0     C86143   6.331   6.299   1.144 -0.0978 -0.3172 -0.2553
  639MOL0     C86144   6.249   6.422   1.095 -0.0544  0.1856 -0.5696
  639MOL0     C86145   6.087   6.421   1.110 -1.3037 -0.8414  0.2637
  639MOL0     C86146   6.015   6.525   1.031  0.2079 -0.4527 -0.0806
  639MOL0     N86147   5.880   6.548   1.079 -0.8792 -0.3915 -0.3496
  639MOL0     C86148   5.842   6.633   1.179 -0.3898 -0.5659 -0.3916
  639MOL0     C86149   5.705   6.621   1.179  1.0714 -0.6510 -0.1454
  639MOL0     C86150   5.622   6.707   1.271 -0.9783 -0.2390  0.9133
  639MOL0     C86151   5.627   6.855   1.239  0.3077 -0.0345  0.6701
  639MOL0     C86152   5.578   6.890   1.090  0.6173  0.0561 -0.4737
  639MOL0     C86153   5.496   7.020   1.101 -0.1657 -0.7820 -0.4889
  639MOL0     O86154   5.582   7.122   1.160  0.5722 -0.0486 -0.1096
  639MOL0     C86155   5.528   7.200   1.263  0.3286 -0.6603  0.8289
  639MOL0     C86156   5.578   7.177   1.387 -0.8354  0.3920 -0.8001
  639MOL0     C86157   5.511   7.239   1.492 -0.0821  0.1537 -0.5037
  639MOL0     C86158   5.408   7.328   1.471  0.1790 -0.0496  0.6039
  639MOL0     C86159   5.344   7.402   1.583 -0.2737 -0.0911  0.2808
  639MOL0     O86160   5.413   7.395   1.700  0.4442  0.3685  0.0484
  639MOL0     C86161   5.352   7.449   1.810 -0.2035 -0.0824  0.1282
  639MOL0     C86162   5.320   7.585   1.835  0.2526  0.1232  0.7661
  639MOL0     C86163   5.295   7.629   1.956 -0.8791  0.8700 -0.0657
  639MOL0     C86164   5.293   7.548   2.067  0.4853 -1.0967 -0.8721
  639MOL0     O86165   5.256   7.580   2.192 -0.2045 -0.0202  0.1928
  639MOL0     C86166   5.216   7.715   2.220 -0.7199 -0.6388  0.7144
  639MOL0     C86167   5.188   7.731   2.365  0.2760 -0.4864 -0.6385
  639MOL0     C86168   5.300   7.688   2.456  0.0390 -0.3096  0.1940
  639MOL0     C86169   5.256   7.694   2.599  0.3570  1.4268  0.5458
  639MOL0     C86170   5.373   7.656   2.692  0.4382 -0.3061  0.7961
  639MOL0     C86171   5.351   7.642   2.850 -0.3964  0.7972  0.2161
  639MOL0     C86172   5.486   7.615   2.916  0.5413  0.3302 -0.2944
  639MOL0     C86173   5.485   7.576   3.057  0.8358  0.0627 -0.0291
  639MOL0    Cl86174   5.454   7.393   3.061  0.2787 -0.5434  0.5171
  639MOL0     C86175   5.323   7.411   2.047  0.3234 -0.0978  0.4542
  639MOL0     C86176   5.357   7.364   1.921  0.5398  0.3182  0.3457
  639MOL0     O86177   5.231   7.446   1.571 -0.3094 -0.8287  0.1111
  639MOL0     C86178   5.370   7.369   1.340 -0.3460 -1.0457 -0.8673
  639MOL0     C86179   5.431   7.304   1.234 -0.2178  0.4205  0.0408
  639MOL0     N86180   5.664   6.533   1.086 -0.1114  0.2181  0.1791
  639MOL0     N86181   5.774   6.500   1.013 -0.4724  0.2083  0.0879
  639MOL0     C86182   6.079   6.123   1.527  0.0408 -0.4484  0.8763
  639MOL0     C86183   6.020   6.181   1.642  0.1652  0.0496  0.0767
  639MOL0     C86184   5.644   6.366   1.862 -0.0691 -0.6516  0.4738
  639MOL0     C86185   5.508   6.377   1.850  0.3886 -1.1756 -0.0977
  639MOL0     C86186   5.428   6.456   1.931 -0.3660  0.5359  0.2994
  639MOL0     C86187   5.485   6.518   2.043 -0.2940 -0.3979 -0.9949
  639MOL0     O86188   5.415   6.601   2.131  0.2522  0.5345  0.4827
  639MOL0     C86189   5.338   6.533   2.240  0.2497  0.4176  0.4572
  639MOL0     C86190   5.279   6.638   2.330  1.3127 -0.2197 -0.6750
  639MOL0     C86191   5.388   6.717   2.406  0.4327 -0.4301  0.1230
  639MOL0     C86192   5.334   6.845   2.470  0.8863 -1.3222  0.3352
  639MOL0     C86193   5.246   6.828   2.589  0.0075 -1.0186 -0.4239
  639MOL0     C86194   5.180   6.802   2.694 -0.0921  0.2361  0.3280
  639MOL0     C86195   5.620   6.509   2.067  0.4165 -0.4605  0.0141
  639MOL0     C86196   5.698   6.430   1.975 -0.0524  0.6360  0.4873
  639MOL0     C86197   5.844   6.415   2.014  0.2152  0.1423 -0.2248
  639MOL0     H86198   5.799   6.381   1.476 -1.2869 -0.5917 -0.4796
  639MOL0     H86199   5.875   6.264   1.282 -1.3959 -0.1446  1.8560
  639MOL0     H86200   6.145   5.925   1.355  0.2043 -1.1149 -0.6292
  639MOL0     H86201   6.150   5.943   1.177 -0.0979  2.1860 -1.3818
  639MOL0     H86202   6.360   5.926   1.320  2.8849  0.2726  1.0346
  639MOL0     H86203   6.341   6.091   1.355 -0.0210 -1.6690  0.1981
  639MOL0     H86204   6.371   5.966   1.064 -0.2621 -1.6351  1.2373
  639MOL0     H86205   6.486   6.062   1.139 -0.7313  1.4200 -0.1989
  639MOL0     H86206   6.379   6.171   0.972  0.4927 -1.8653  0.0753
  639MOL0     H86207   6.213   6.151   1.035 -0.6088  1.4196 -0.1181
  639MOL0     H86208   6.282   6.268   1.237 -0.8491 -1.7678 -1.0938
  639MOL0     H86209   6.435   6.329   1.161 -0.1321 -0.9744  1.2951
  639MOL0     H86210   6.278   6.504   1.162  0.5745 -1.0056  0.6519
  639MOL0     H86211   6.284   6.449   0.994 -0.9539  0.2471 -0.8695
  639MOL0     H86212   6.071   6.425   1.218 -1.6382 -3.2630  0.3550
  639MOL0     H86213   6.041   6.328   1.078 -3.0955 -0.2088  0.8795
  639MOL0     H86214   6.064   6.622   1.020 -0.8263  0.2114  0.9384
  639MOL0     H86215   6.006   6.477   0.933 -1.8365 -0.9643  0.3102
  639MOL0     H86216   5.902   6.702   1.238 -0.3702 -0.4873 -0.5031
  639MOL0     H86217   5.520   6.668   1.275 -1.1609  0.3116  4.4514
  639MOL0     H86218   5.666   6.700   1.371  1.4113  1.1989  0.0526
  639MOL0     H86219   5.563   6.901   1.315 -1.9172 -2.3421  0.3489
  639MOL0     H86220   5.732   6.884   1.243 -0.3126  2.6083 -0.3085
  639MOL0     H86221   5.504   6.819   1.052  0.9326  0.3779 -1.7504
  639MOL0     H86222   5.664   6.899   1.023 -1.2343 -1.0012 -3.1460
  639MOL0     H86223   5.417   7.011   1.177  0.4103 -1.8343  0.0032
  639MOL0     H86224   5.465   7.060   1.004 -0.4160  0.0474 -0.0780
  639MOL0     H86225   5.663   7.110   1.397 -0.4199  0.9330 -0.6672
  639MOL0     H86226   5.548   7.229   1.594  1.7568 -0.5687 -1.2108
  639MOL0     H86227   5.321   7.649   1.747  1.9274  0.9134  1.3269
  639MOL0     H86228   5.267   7.734   1.968 -0.4385  0.8136  1.6351
  639MOL0     H86229   5.292   7.782   2.178 -1.5804 -2.4802 -4.6214
  639MOL0     H86230   5.123   7.744   2.169 -0.8952 -0.6623  1.0208
  639MOL0     H86231   5.165   7.837   2.374  0.7949 -0.5020  1.2227
  639MOL0     H86232   5.094   7.681   2.393 -0.0680  0.4174 -0.1449
  639MOL0     H86233   5.329   7.585   2.435  0.4609  0.0821 -1.2565
  639MOL0     H86234   5.382   7.760   2.449  0.7417 -0.7043  3.0165
  639MOL0     H86235   5.168   7.636   2.629 -1.1721  1.5399 -3.1741
  639MOL0     H86236   5.226   7.797   2.622 -1.0488  0.9622  0.9049
  639MOL0     H86237   5.455   7.727   2.674 -1.1338  2.0350  2.3035
  639MOL0     H86238   5.404   7.557   2.658 -1.8131 -2.8118  5.1864
  639MOL0     H86239   5.298   7.731   2.885 -1.6757 -0.3065  1.1790
  639MOL0     H86240   5.285   7.557   2.871  0.1252 -0.4492 -2.6192
  639MOL0     H86241   5.543   7.707   2.904 -0.9740  1.1850 -1.2211
  639MOL0     H86242   5.529   7.535   2.854 -2.1224 -0.1720 -1.6475
  639MOL0     H86243   5.586   7.590   3.097  0.0047  2.3100  1.4547
  639MOL0     H86244   5.414   7.628   3.122  0.2421 -0.2567 -0.4159
  639MOL0     H86245   5.322   7.345   2.134  5.2140 -0.9136  0.1947
  639MOL0     H86246   5.381   7.260   1.901  0.1702 -0.7844  4.5253
  639MOL0     H86247   5.288   7.438   1.321  0.0491 -0.4670 -0.4839
  639MOL0     H86248   5.401   7.332   1.134 -2.1441  1.7651  0.9217
  639MOL0     H86249   6.154   6.045   1.527  0.3629 -0.1379  0.7676
  639MOL0     H86250   6.060   6.163   1.741 -1.5549  7.5492  2.8321
  639MOL0     H86251   5.458   6.323   1.770  0.2179 -2.6568  0.9598
  639MOL0     H86252   5.322   6.453   1.909  0.0613  0.0287 -1.8528
  639MOL0     H86253   5.389   6.450   2.290 -0.1332 -0.7492 -1.0059
  639MOL0     H86254   5.255   6.485   2.187  1.6842 -1.7670  0.0778
  639MOL0     H86255   5.224   6.578   2.404  1.7261  0.6626  0.3684
  639MOL0     H86256   5.208   6.704   2.279  0.7672 -0.2529  0.0136
  639MOL0     H86257   5.463   6.725   2.327  2.1941  0.3782  1.7885
  639MOL0     H86258   5.431   6.663   2.491  1.7650  1.3108  0.6028
  639MOL0     H86259   5.423   6.904   2.493  1.3560 -0.7948 -2.4757
  639MOL0     H86260   5.280   6.890   2.386  1.5363 -4.2393 -1.8221
  639MOL0     H86261   5.115   6.797   2.779 -0.0244 -1.1363  0.3145
  639MOL0     H86262   5.661   6.543   2.162  1.1122 -1.3200  0.0338
  639MOL0     H86263   5.846   6.401   2.122  0.4906 -4.3647 -0.5822
  639MOL0     H86264   5.885   6.321   1.976  0.2945  0.5345 -1.1267
  639MOL0     H86265   5.900   6.499   1.974 -1.4472  0.9754 -0.9129
  640MOL0     O86266   6.645   0.982   4.086  0.9226  0.3494  1.0658
  640MOL0     C86267   6.730   0.900   4.058  0.2821  1.1301 -0.8863
  640MOL0     O86268   6.831   0.917   3.975 -0.1431  0.0520 -0.1821
  640MOL0     C86269   6.832   1.031   3.908 -0.3530  0.0229  0.9852
  640MOL0     C86270   6.930   1.121   3.937  0.1823  0.3166 -0.6957
  640MOL0     C86271   6.932   1.246   3.874  1.1310  0.3981 -0.6466
  640MOL0     C86272   6.839   1.274   3.771  0.7701  0.4649 -0.0901
  640MOL0     O86273   6.854   1.394   3.701 -0.3584  0.3715 -0.0465
  640MOL0     C86274   6.989   1.444   3.679  0.2630 -0.8959 -1.5154
  640MOL0     C86275   6.994   1.546   3.558  0.1121 -0.5681  0.1513
  640MOL0     C86276   6.941   1.475   3.428  0.1746 -0.2660  0.2002
  640MOL0     C86277   6.943   1.554   3.301 -0.4908 -0.0723 -0.4383
  640MOL0     C86278   6.927   1.467   3.174 -0.8118 -0.1052  0.7365
  640MOL0     C86279   7.030   1.506   3.073  0.0476  0.4512 -0.3167
  640MOL0     C86280   7.175   1.455   3.123  0.3132 -0.3309  0.9139
  640MOL0     C86281   7.283   1.497   3.016  0.0556 -0.5115 -0.2587
  640MOL0     N86282   7.309   1.641   3.021 -0.8175  0.1915 -0.4564
  640MOL0     C86283   7.231   1.745   2.952  0.1201 -0.5454  0.3136
  640MOL0     C86284   7.278   1.860   3.016 -1.0536  1.0704  1.1940
  640MOL0     C86285   7.248   2.002   2.987  0.2305 -0.3671  0.3517
  640MOL0     C86286   7.219   2.098   3.100 -0.4153  0.6209  1.0346
  640MOL0     C86287   7.347   2.147   3.163  0.1186 -0.3460 -0.3599
  640MOL0     C86288   7.332   2.241   3.295  0.4893  0.7982 -0.3593
  640MOL0     O86289   7.281   2.184   3.412 -0.0772  0.1496  0.3417
  640MOL0     C86290   7.336   2.068   3.449 -0.2717  0.7154 -0.3280
  640MOL0     C86291   7.246   1.979   3.523  0.3466 -0.4831  1.0588
  640MOL0     C86292   7.283   1.855   3.550  1.1488  0.5125 -0.2237
  640MOL0     C86293   7.417   1.810   3.538  0.0236 -0.0702 -0.4589
  640MOL0     C86294   7.451   1.680   3.596 -0.2772  0.7508  0.4786
  640MOL0     O86295   7.359   1.575   3.594  0.0749  0.5177  0.1036
  640MOL0     C86296   7.377   1.476   3.686  1.2600  0.6743  0.6389
  640MOL0     C86297   7.310   1.351   3.655  0.3438 -0.0296  0.3840
  640MOL0     C86298   7.300   1.255   3.752  0.6480  0.8780  0.5438
  640MOL0     C86299   7.373   1.259   3.869 -0.7660  0.0485 -0.1569
  640MOL0     O86300   7.361   1.165   3.962  0.3093  1.0148 -0.8144
  640MOL0     C86301   7.348   1.207   4.104  0.5612  0.0124  0.3788
  640MOL0     C86302   7.358   1.081   4.188 -0.2919 -0.3250 -0.6206
  640MOL0     C86303   7.297   1.078   4.328 -0.2398 -0.7134 -0.9865
  640MOL0     C86304   7.282   0.935   4.393  0.5510  0.6377 -0.2787
  640MOL0     C86305   7.212   0.957   4.533 -0.0071  0.9574  0.7407
  640MOL0     C86306   7.301   1.041   4.625 -0.2413  0.2506 -0.3019
  640MOL0     C86307   7.255   1.031   4.768 -0.8060  0.1690  0.0072
  640MOL0     C86308   7.360   1.076   4.871  0.1466  0.5889  0.5732
  640MOL0    Cl86309   7.322   1.249   4.917 -0.0408 -0.1630  0.3677
  640MOL0     C86310   7.464   1.368   3.888  0.1365 -0.8701 -0.6252
  640MOL0     C86311   7.454   1.481   3.804 -0.5980  0.0217  0.3383
  640MOL0     O86312   7.572   1.672   3.639  0.3548 -0.4925  0.6303
  640MOL0     C86313   7.510   1.892   3.474  0.1856 -0.3204  0.8653
  640MOL0     C86314   7.467   2.024   3.420 -0.4984 -0.0859 -0.9453
  640MOL0     N86315   7.377   1.830   3.107  0.2129 -0.1284  0.6083
  640MOL0     N86316   7.395   1.707   3.111 -0.1850 -0.2990  0.0515
  640MOL0     C86317   6.742   1.176   3.734  0.6156  0.4187 -0.7255
  640MOL0     C86318   6.737   1.062   3.808 -0.3316 -0.3788  1.3560
  640MOL0     C86319   6.717   0.764   4.119  0.4919  0.9171 -0.2630
  640MOL0     C86320   6.582   0.731   4.146  0.5584 -0.2753  0.6143
  640MOL0     C86321   6.547   0.598   4.180 -0.4005  0.7244 -0.3231
  640MOL0     C86322   6.646   0.498   4.200  0.2983  0.4085 -0.1823
  640MOL0     O86323   6.603   0.368   4.210  0.8839  0.9687 -0.0497
  640MOL0     C86324   6.659   0.275   4.108  0.2736  0.5902  0.6314
  640MOL0     C86325   6.568   0.156   4.073 -0.0789 -0.1987  0.2681
  640MOL0     C86326   6.443   0.195   3.981 -0.8597  0.2008  0.7042
  640MOL0     C86327   6.405   0.074   3.893  1.2071  0.3822 -0.6342
  640MOL0     C86328   6.371  -0.042   3.984  0.4494  0.4000  0.3448
  640MOL0     C86329   6.339  -0.139   4.055 -1.1768  0.5018  1.0424
  640MOL0     C86330   6.783   0.536   4.188  0.4749  0.4983  0.6166
  640MOL0     C86331   6.819   0.666   4.134 -0.9994  0.0392  0.6724
  640MOL0     C86332   6.965   0.689   4.093  0.2479 -0.6503 -0.2418
  640MOL0     H86333   7.008   1.094   4.008  1.4143 -0.6485 -2.3513
  640MOL0     H86334   7.001   1.324   3.905  1.4779 -0.1402 -0.0517
  640MOL0     H86335   7.018   1.504   3.766  0.5459 -0.7211 -1.7277
  640MOL0     H86336   7.065   1.365   3.674 -0.6718 -1.9946  0.4096
  640MOL0     H86337   7.091   1.593   3.539 -1.7250  1.9626 -4.6106
  640MOL0     H86338   6.927   1.629   3.582  1.3163  0.5146 -0.0858
  640MOL0     H86339   6.832   1.467   3.443 -0.3411  3.5028 -0.5834
  640MOL0     H86340   6.994   1.379   3.424 -0.3359 -0.6641  2.0008
  640MOL0     H86341   6.863   1.629   3.299  1.7168  2.4472 -0.6985
  640MOL0     H86342   7.035   1.613   3.293  0.1931 -1.1831 -0.9336
  640MOL0     H86343   6.936   1.359   3.194 -0.8110 -0.4387 -0.9334
  640MOL0     H86344   6.829   1.488   3.130  1.0111  1.9642 -2.6852
  640MOL0     H86345   6.986   1.460   2.984 -0.9115 -0.8129  0.7861
  640MOL0     H86346   7.041   1.615   3.060  1.4659  0.7315  2.5935
  640MOL0     H86347   7.171   1.346   3.128  1.3551 -0.6975 -2.7736
  640MOL0     H86348   7.200   1.498   3.220  1.6815 -0.3619  0.5988
  640MOL0     H86349   7.376   1.450   3.050  1.2803  0.9264 -1.4272
  640MOL0     H86350   7.249   1.468   2.916 -2.6734 -0.0581  0.4556
  640MOL0     H86351   7.152   1.748   2.878  0.9136  2.2312 -0.5297
  640MOL0     H86352   7.328   2.050   2.932 -1.1441  2.0858  0.3766
  640MOL0     H86353   7.162   1.995   2.920  1.0866 -1.2850 -0.6766
  640MOL0     H86354   7.181   2.194   3.066 -2.8273  0.2872  2.5955
  640MOL0     H86355   7.154   2.067   3.182 -0.4583  1.2751  1.2518
  640MOL0     H86356   7.404   2.211   3.094 -0.7924  2.5216  1.3601
  640MOL0     H86357   7.417   2.069   3.191  0.3863  0.8142  2.4651
  640MOL0     H86358   7.267   2.326   3.276 -3.5086 -0.5132  4.9627
  640MOL0     H86359   7.433   2.277   3.317  0.6282  0.4915 -0.4813
  640MOL0     H86360   7.146   2.021   3.536 -1.7071 -3.5870 -2.5050
  640MOL0     H86361   7.223   1.788   3.610  4.6714 -2.2437  0.5601
  640MOL0     H86362   7.248   1.343   3.567  0.4793 -0.3494  0.3162
  640MOL0     H86363   7.260   1.158   3.726  0.1504  0.8199  1.5074
  640MOL0     H86364   7.436   1.267   4.131  1.9634 -1.8088  0.0081
  640MOL0     H86365   7.258   1.267   4.123  1.5489  1.3321  1.0655
  640MOL0     H86366   7.308   1.002   4.131  0.5753 -0.4509 -1.2247
  640MOL0     H86367   7.467   1.068   4.186 -0.4141 -1.3920 -1.7877
  640MOL0     H86368   7.358   1.140   4.394  0.5921 -0.4639 -1.9701
  640MOL0     H86369   7.199   1.123   4.313  1.2706  3.7193  0.7029
  640MOL0     H86370   7.381   0.890   4.409  0.8590  1.9278  1.9533
  640MOL0     H86371   7.214   0.867   4.342 -3.0637  2.2150  2.0041
  640MOL0     H86372   7.188   0.864   4.584 -1.0353  0.0798 -1.2149
  640MOL0     H86373   7.116   1.007   4.520 -2.1668 -3.1270 -0.8398
  640MOL0     H86374   7.403   1.002   4.622 -0.2943 -0.3089  2.4928
  640MOL0     H86375   7.296   1.147   4.596 -2.3196 -0.2183 -1.8710
  640MOL0     H86376   7.221   0.930   4.791  1.7369 -1.0891 -1.2867
  640MOL0     H86377   7.171   1.102   4.767  0.8009  2.1614 -0.1090
  640MOL0     H86378   7.362   1.010   4.958  4.2739 -3.9450 -2.4777
  640MOL0     H86379   7.464   1.068   4.839 -0.1340  0.4555 -0.3343
  640MOL0     H86380   7.535   1.361   3.970 -2.2788 -1.4846  1.5519
  640MOL0     H86381   7.519   1.563   3.833 -1.5399  0.8838  0.0899
  640MOL0     H86382   7.610   1.856   3.454 -0.8491 -3.2330  0.5330
  640MOL0     H86383   7.548   2.083   3.378  0.0331 -0.6078 -0.6473
  640MOL0     H86384   6.669   1.195   3.656  0.7385  0.5478 -0.8109
  640MOL0     H86385   6.656   0.992   3.794 -1.7800  1.3969  0.5464
  640MOL0     H86386   6.504   0.805   4.128 -0.6647 -2.0831 -2.3111
  640MOL0     H86387   6.442   0.573   4.192  0.3437 -2.0874  1.1691
  640MOL0     H86388   6.751   0.235   4.150  2.6277  4.6809 -0.0188
  640MOL0     H86389   6.674   0.342   4.022 -0.6165  0.2821  0.2283
  640MOL0     H86390   6.537   0.121   4.172  1.7981  2.7643  2.0539
  640MOL0     H86391   6.632   0.087   4.017 -1.7458 -0.7761 -0.9736
  640MOL0     H86392   6.465   0.273   3.908  1.6223 -0.1056  1.0439
  640MOL0     H86393   6.356   0.229   4.037 -1.1742  2.3339 -0.9592
  640MOL0     H86394   6.307   0.100   3.853  0.2534  0.3547  1.5278
  640MOL0     H86395   6.476   0.048   3.814  0.3353  0.7573 -1.5502
  640MOL0     H86396   6.310  -0.235   4.095 -1.1060 -0.0914 -0.2842
  640MOL0     H86397   6.847   0.449   4.195 -3.8039 -2.9392  1.9101
  640MOL0     H86398   6.996   0.785   4.136  2.6566 -2.2198  1.8304
  640MOL0     H86399   7.038   0.614   4.125  0.7522  0.0780  0.3484
  640MOL0     H86400   6.975   0.691   3.984  0.8552  1.2585 -0.1867
  641MOL0     O86401   7.469   5.220   6.986 -0.1292 -0.0575 -0.0184
  641MOL0     C86402   7.398   5.117   6.981 -0.6461 -0.0495 -0.5916
  641MOL0     O86403   7.396   5.033   6.878 -0.2464 -0.0583  0.2547
  641MOL0     C86404   7.452   5.040   6.755 -0.1732  0.2206  0.4675
  641MOL0     C86405   7.380   5.004   6.644 -1.1119 -0.1908 -0.6736
  641MOL0     C86406   7.439   4.977   6.518 -0.7255 -0.1788 -0.2712
  641MOL0     C86407   7.578   5.016   6.497  0.5748  0.5257  0.5592
  641MOL0     O86408   7.630   4.984   6.374  0.4794  0.4358  0.4608
  641MOL0     C86409   7.761   5.040   6.351 -0.7898  0.7090 -0.6081
  641MOL0     C86410   7.795   5.001   6.202 -0.0907 -0.1485  0.3620
  641MOL0     C86411   7.805   4.843   6.186 -0.1708 -0.4264  0.2792
  641MOL0     C86412   7.898   4.771   6.284  0.5802  0.3031  0.8357
  641MOL0     C86413   7.945   4.645   6.227  0.3207 -0.3201  0.4009
  641MOL0     C86414   8.021   4.554   6.308  0.6658 -0.4539  1.1662
  641MOL0     C86415   8.082   4.434   6.237  0.7411  0.2405 -0.1091
  641MOL0     C86416   7.970   4.343   6.185 -0.2539  0.4132  1.2924
  641MOL0     N86417   8.030   4.220   6.136  0.2832 -0.0668 -0.1746
  641MOL0     C86418   8.045   4.174   6.011  0.4495 -0.0213  0.3299
  641MOL0     C86419   8.055   4.039   6.026 -0.1362  1.0919  0.0333
  641MOL0     C86420   8.080   3.941   5.919 -0.5320 -0.2956 -0.3414
  641MOL0     C86421   7.967   3.838   5.896 -0.6789  0.2442 -0.5910
  641MOL0     C86422   7.995   3.756   5.769  0.4837  0.8591 -0.1509
  641MOL0     C86423   7.899   3.636   5.772 -0.6983  0.4695  0.0170
  641MOL0     O86424   7.953   3.548   5.871  0.1056  0.9820  0.2339
  641MOL0     C86425   7.869   3.438   5.902  0.5597 -0.7480 -0.4998
  641MOL0     C86426   7.830   3.411   6.038  0.3566 -0.2491  0.0433
  641MOL0     C86427   7.764   3.295   6.077  0.0470 -0.1691 -0.1153
  641MOL0     C86428   7.706   3.214   5.984  0.1200 -0.1525  1.0002
  641MOL0     C86429   7.619   3.095   6.029 -0.2782  0.3130 -0.4571
  641MOL0     O86430   7.594   3.079   6.158 -0.3855 -0.0145 -0.8183
  641MOL0     C86431   7.567   2.956   6.216 -0.1007 -0.4413 -0.2575
  641MOL0     C86432   7.602   2.841   6.157 -0.3503 -0.1973  0.5363
  641MOL0     C86433   7.562   2.718   6.209  0.6787 -0.5220 -0.1429
  641MOL0     C86434   7.474   2.713   6.322  0.2784  0.5346  0.8228
  641MOL0     O86435   7.439   2.595   6.379  0.0699 -0.0633  0.3242
  641MOL0     C86436   7.544   2.508   6.403  0.3573 -0.1099 -0.0116
  641MOL0     C86437   7.505   2.406   6.511  0.1421  0.7477 -0.0602
  641MOL0     C86438   7.612   2.382   6.625 -0.5748  0.4862  1.0776
  641MOL0     C86439   7.687   2.503   6.691  0.0385 -0.1562 -0.3317
  641MOL0     C86440   7.578   2.582   6.770 -0.1512 -0.5070 -0.2238
  641MOL0     C86441   7.628   2.694   6.861  0.4968 -0.1411 -0.6883
  641MOL0     C86442   7.510   2.770   6.929  0.3120  0.1991  0.7620
  641MOL0     C86443   7.545   2.906   6.991  0.4874 -0.2045 -0.2070
  641MOL0    Cl86444   7.408   3.008   7.047  0.3508  0.2951  0.4224
  641MOL0     C86445   7.431   2.830   6.375 -0.0447 -0.0853 -0.1547
  641MOL0     C86446   7.478   2.948   6.321  0.0212  0.1742  0.6040
  641MOL0     O86447   7.577   3.015   5.940  0.4613 -0.2392 -0.2259
  641MOL0     C86448   7.746   3.234   5.851  0.1627 -0.2090 -0.2054
  641MOL0     C86449   7.821   3.348   5.805  0.3024 -0.6606 -0.1748
  641MOL0     N86450   8.054   4.009   6.162 -0.3500 -0.3110  0.0209
  641MOL0     N86451   8.031   4.118   6.228  0.4444 -1.1820 -0.4362
  641MOL0     C86452   7.652   5.072   6.607 -1.0502 -0.0101 -0.3631
  641MOL0     C86453   7.590   5.071   6.732  0.5796 -0.8046 -0.3201
  641MOL0     C86454   7.307   5.092   7.096 -0.6243 -0.2939  0.0327
  641MOL0     C86455   7.309   5.182   7.202 -0.6238  0.0499  0.0343
  641MOL0     C86456   7.222   5.169   7.309 -0.2142  0.4618  0.4239
  641MOL0     C86457   7.139   5.059   7.323  0.2608  0.1930 -0.0688
  641MOL0     O86458   7.074   5.035   7.441 -0.0659  0.9430  0.2713
  641MOL0     C86459   7.041   5.147   7.517 -0.8320 -0.5160  0.0914
  641MOL0     C86460   6.950   5.113   7.629  0.1179  0.6873  0.1149
  641MOL0     C86461   7.014   5.025   7.737 -0.7974  0.2002  0.2605
  641MOL0     C86462   6.911   4.934   7.797  0.2804  0.3456 -0.1085
  641MOL0     C86463   6.953   4.875   7.922  0.6330 -0.1410 -0.3742
  641MOL0     C86464   6.991   4.825   8.027 -0.7427 -0.2883 -0.0970
  641MOL0     C86465   7.131   4.965   7.220 -0.0273  0.8533 -0.6376
  641MOL0     C86466   7.209   4.985   7.104  0.9453  0.0125 -0.1263
  641MOL0     C86467   7.177   4.892   6.987  0.2887  0.0150  0.2435
  641MOL0     H86468   7.272   4.992   6.654 -0.9482 -1.6569 -0.3345
  641MOL0     H86469   7.363   4.945   6.448 -1.5798  1.1342  0.0192
  641MOL0     H86470   7.767   5.149   6.363 -1.4815  0.4643  3.2741
  641MOL0     H86471   7.827   4.986   6.419 -1.9355 -1.0630 -0.8488
  641MOL0     H86472   7.884   5.054   6.169  0.2776 -1.2210 -0.4337
  641MOL0     H86473   7.712   5.033   6.138 -1.6727 -1.0975  1.8524
  641MOL0     H86474   7.834   4.815   6.084  0.7202  2.0482 -0.2112
  641MOL0     H86475   7.702   4.808   6.175 -0.6364  0.1038  2.5037
  641MOL0     H86476   7.972   4.823   6.345  2.0706 -1.0589  0.2506
  641MOL0     H86477   7.831   4.736   6.363  2.7509 -0.2395  2.5464
  641MOL0     H86478   7.859   4.586   6.194  2.2370 -0.7804 -4.8154
  641MOL0     H86479   8.011   4.670   6.143  1.2400 -0.3141  1.1176
  641MOL0     H86480   8.098   4.610   6.362  0.6666  1.9494 -1.1480
  641MOL0     H86481   7.941   4.524   6.378 -1.5537 -1.0407 -1.4614
  641MOL0     H86482   8.144   4.383   6.311 -0.1772 -1.5817 -0.5347
  641MOL0     H86483   8.146   4.459   6.152  2.9432  1.8206  1.8961
  641MOL0     H86484   7.901   4.316   6.266 -1.1676 -0.5915  0.2319
  641MOL0     H86485   7.909   4.389   6.106  2.7956  1.2535 -0.7774
  641MOL0     H86486   8.045   4.224   5.915  0.9554 -2.3371 -0.9759
  641MOL0     H86487   8.080   3.991   5.822  0.6111 -0.4495 -0.4351
  641MOL0     H86488   8.180   3.896   5.926  0.1885  0.9597 -2.0359
  641MOL0     H86489   7.955   3.779   5.988  2.4773  1.4243  0.7016
  641MOL0     H86490   7.872   3.887   5.874 -1.5478 -1.4341 -0.7197
  641MOL0     H86491   8.095   3.720   5.743  0.0669 -2.8332  2.5561
  641MOL0     H86492   7.971   3.827   5.689  0.4778  3.2171  1.8587
  641MOL0     H86493   7.900   3.590   5.673 -1.0532 -1.7960  1.0047
  641MOL0     H86494   7.798   3.671   5.798 -0.1927 -0.0243  3.0172
  641MOL0     H86495   7.878   3.475   6.112  2.6386 -2.5452  0.7142
  641MOL0     H86496   7.757   3.281   6.184  1.6638  1.6345  0.2845
  641MOL0     H86497   7.672   2.833   6.074  0.4337 -0.3718  1.1972
  641MOL0     H86498   7.588   2.622   6.166  0.8781 -0.2538 -0.6323
  641MOL0     H86499   7.583   2.464   6.310 -1.3268 -0.9409 -0.3586
  641MOL0     H86500   7.627   2.573   6.433  0.9199  0.3645 -2.4106
  641MOL0     H86501   7.414   2.435   6.565 -0.7889 -2.1066  0.0711
  641MOL0     H86502   7.481   2.317   6.453  0.4894  1.3700 -1.1871
  641MOL0     H86503   7.568   2.325   6.708 -0.4680  0.4106  1.0831
  641MOL0     H86504   7.687   2.314   6.584  0.4700  2.0591  0.3114
  641MOL0     H86505   7.751   2.567   6.630 -2.3268  3.4930  0.6679
  641MOL0     H86506   7.760   2.473   6.767  2.1453 -2.1544 -2.9618
  641MOL0     H86507   7.530   2.504   6.829  2.8257 -2.4026 -0.0821
  641MOL0     H86508   7.508   2.627   6.700 -0.6682  0.7084  1.0341
  641MOL0     H86509   7.689   2.647   6.938  2.6705  2.9649 -0.3675
  641MOL0     H86510   7.693   2.769   6.816  2.4655 -2.0493 -1.1928
  641MOL0     H86511   7.462   2.716   7.011 -0.9523 -0.9408 -0.6552
  641MOL0     H86512   7.435   2.779   6.850 -3.1181 -0.9012  3.6071
  641MOL0     H86513   7.618   2.885   7.070 -2.4815  1.0485  3.1075
  641MOL0     H86514   7.583   2.979   6.919  0.1442  0.0795 -0.1002
  641MOL0     H86515   7.397   2.824   6.478  1.8733  1.2603  0.6131
  641MOL0     H86516   7.456   3.044   6.367 -0.0014 -0.3332  1.6681
  641MOL0     H86517   7.692   3.171   5.781  1.5130 -0.5568 -0.9657
  641MOL0     H86518   7.857   3.358   5.703 -1.7567 -0.8535 -0.9640
  641MOL0     H86519   7.754   5.096   6.581 -1.0703 -1.2665 -1.7631
  641MOL0     H86520   7.650   5.112   6.813 -0.1112  2.8806 -1.4833
  641MOL0     H86521   7.375   5.269   7.197 -0.8085  0.2571  1.0021
  641MOL0     H86522   7.229   5.248   7.382 -1.0284  0.4301  0.5430
  641MOL0     H86523   6.999   5.224   7.451  2.2480 -0.1464 -1.6249
  641MOL0     H86524   7.131   5.197   7.554 -0.2588 -1.9821  0.7377
  641MOL0     H86525   6.849   5.081   7.599  0.4635  0.3765 -0.7555
  641MOL0     H86526   6.915   5.207   7.673  0.5576  0.5385  0.7922
  641MOL0     H86527   7.052   5.096   7.811  3.0199  1.6892 -2.7598
  641MOL0     H86528   7.101   4.970   7.700 -1.8062 -1.6208  0.4994
  641MOL0     H86529   6.820   4.991   7.815  0.3227  1.6461 -3.3794
  641MOL0     H86530   6.881   4.861   7.721 -2.8168  2.1925 -0.8101
  641MOL0     H86531   7.035   4.784   8.116  0.1407  0.5318 -0.1397
  641MOL0     H86532   7.053   4.893   7.241  1.1443  0.2261  2.0380
  641MOL0     H86533   7.162   4.938   6.889 -1.8646  1.6495  1.2349
  641MOL0     H86534   7.254   4.816   6.974  2.5848  2.7185 -5.0618
  641MOL0     H86535   7.081   4.844   7.011  1.5339 -1.8775  1.8167
  642MOL0     O86536   3.058   6.368  11.542 -0.0207  0.4368  0.9919
  642MOL0     C86537   3.014   6.436  11.451  0.2207 -0.1174  1.0268
  642MOL0     O86538   3.085   6.529  11.376  0.4207 -0.2238 -0.2343
  642MOL0     C86539   3.207   6.584  11.409 -0.2335 -0.8798  0.1567
  642MOL0     C86540   3.311   6.533  11.480  0.0742 -0.9015  0.0457
  642MOL0     C86541   3.444   6.588  11.479  0.0199 -1.3880 -1.0922
  642MOL0     C86542   3.466   6.707  11.413 -0.3486  0.5487 -0.3693
  642MOL0     O86543   3.588   6.772  11.424 -0.7986 -0.2580  0.7399
  642MOL0     C86544   3.629   6.878  11.326 -0.2738 -0.2229 -0.0738
  642MOL0     C86545   3.776   6.878  11.314  0.0109 -0.7108 -0.0472
  642MOL0     C86546   3.834   6.757  11.247  0.3573  0.3904 -0.0017
  642MOL0     C86547   3.902   6.657  11.351 -0.2258 -0.1456  0.4366
  642MOL0     C86548   4.007   6.561  11.287  0.1544  0.1878  0.0175
  642MOL0     C86549   4.101   6.487  11.386 -0.6197 -0.2884  0.0638
  642MOL0     C86550   4.215   6.415  11.306 -0.2399 -0.5636  0.7635
  642MOL0     C86551   4.162   6.332  11.191 -0.3207 -0.1358 -0.9525
  642MOL0     N86552   4.050   6.245  11.233 -0.2957 -0.2266  0.7023
  642MOL0     C86553   3.921   6.229  11.191 -1.3132 -0.7980  0.7433
  642MOL0     C86554   3.868   6.117  11.243  0.4537 -0.4835 -0.6560
  642MOL0     C86555   3.721   6.075  11.210 -0.7757  0.5055 -0.6345
  642MOL0     C86556   3.706   5.969  11.094 -0.4031  0.6125  0.5610
  642MOL0     C86557   3.759   5.824  11.128 -0.0962  0.8469 -0.1909
  642MOL0     C86558   3.664   5.718  11.072  0.5149 -0.2512 -0.1968
  642MOL0     O86559   3.539   5.755  11.139 -0.2506 -0.5477  0.9110
  642MOL0     C86560   3.455   5.653  11.159  0.3874  0.1744 -1.2176
  642MOL0     C86561   3.386   5.635  11.281 -0.1518  0.2013 -0.3455
  642MOL0     C86562   3.286   5.536  11.292 -0.6443  0.7633  0.3077
  642MOL0     C86563   3.274   5.440  11.189 -0.7878 -0.0963  0.0800
  642MOL0     C86564   3.219   5.304  11.214  0.2321  0.5406 -0.2072
  642MOL0     O86565   3.191   5.258  11.346  0.4202 -0.2226  0.1701
  642MOL0     C86566   3.162   5.125  11.371  0.0398 -0.4217 -0.4976
  642MOL0     C86567   3.209   5.015  11.296  0.0418 -0.4609 -1.4543
  642MOL0     C86568   3.185   4.886  11.347 -0.8553  0.3495 -0.3262
  642MOL0     C86569   3.109   4.863  11.469  0.0453 -0.1037 -0.1249
  642MOL0     O86570   3.093   4.739  11.528  0.2357 -0.4989  0.1956
  642MOL0     C86571   3.118   4.622  11.453 -0.6877  0.3476 -0.3431
  642MOL0     C86572   3.078   4.491  11.525  0.5991 -0.2783  0.6662
  642MOL0     C86573   3.100   4.353  11.461 -0.0210 -0.2555 -0.5695
  642MOL0     C86574   3.027   4.250  11.551  0.2012  0.6747 -0.3478
  642MOL0     C86575   3.057   4.102  11.496 -0.1929 -0.5003 -0.1840
  642MOL0     C86576   3.189   4.044  11.534  0.4145 -0.0621 -0.4743
  642MOL0     C86577   3.216   3.914  11.459  0.5897  0.2775  0.0678
  642MOL0     C86578   3.358   3.871  11.459  0.1334 -0.3392 -0.0562
  642MOL0    Cl86579   3.373   3.743  11.332  0.0162 -0.0335 -0.1154
  642MOL0     C86580   3.068   4.976  11.544 -0.5298 -0.3889  1.1211
  642MOL0     C86581   3.095   5.105  11.495 -0.6043  0.1764  0.6411
  642MOL0     O86582   3.194   5.248  11.114 -0.2992 -0.2718  0.4051
  642MOL0     C86583   3.343   5.468  11.064  0.3153  0.3003  0.2211
  642MOL0     C86584   3.423   5.570  11.053 -0.5421 -0.1157  0.0735
  642MOL0     N86585   3.970   6.059  11.315  0.3844  0.4038  0.9410
  642MOL0     N86586   4.076   6.135  11.319  0.3677  0.0505 -0.1217
  642MOL0     C86587   3.363   6.757  11.345  0.7728  0.8335  1.1092
  642MOL0     C86588   3.229   6.705  11.344  0.0744  0.1743 -1.0026
  642MOL0     C86589   2.879   6.409  11.404  0.2353  0.1096  0.2753
  642MOL0     C86590   2.824   6.287  11.433 -0.6661  0.0597  0.4766
  642MOL0     C86591   2.696   6.245  11.403 -0.2485 -0.4058 -0.9805
  642MOL0     C86592   2.606   6.340  11.351 -0.2767  0.1277  0.4847
  642MOL0     O86593   2.483   6.296  11.312  0.0794  0.1258 -0.8885
  642MOL0     C86594   2.376   6.382  11.349  0.2310  0.0479 -1.5059
  642MOL0     C86595   2.372   6.382  11.501  0.2936  1.0179  0.5209
  642MOL0     C86596   2.246   6.457  11.556 -0.4339  0.6803  0.2372
  642MOL0     C86597   2.136   6.357  11.585  0.1628  0.2603 -0.1264
  642MOL0     C86598   2.024   6.417  11.663 -0.2707  0.4497  0.3052
  642MOL0     C86599   1.933   6.486  11.698 -0.2507  0.1203  1.0277
  642MOL0     C86600   2.656   6.470  11.317  0.0782  0.8778 -0.1107
  642MOL0     C86601   2.792   6.505  11.346  0.3838  0.7288  0.0586
  642MOL0     C86602   2.839   6.651  11.321 -0.0022  0.5424  0.1830
  642MOL0     H86603   3.287   6.445  11.539  2.2312 -0.8367  1.1394
  642MOL0     H86604   3.518   6.546  11.547 -1.3764 -1.2721  0.5986
  642MOL0     H86605   3.605   6.851  11.222  0.9094 -0.7631 -0.2213
  642MOL0     H86606   3.581   6.973  11.350  0.3779  0.2660 -0.6651
  642MOL0     H86607   3.820   6.900  11.411 -1.5282  0.3444  0.4505
  642MOL0     H86608   3.806   6.958  11.247  1.1257 -0.5970  0.5633
  642MOL0     H86609   3.907   6.796  11.175  0.1143  0.4740 -0.2011
  642MOL0     H86610   3.749   6.704  11.203 -0.7859  1.3230  1.0153
  642MOL0     H86611   3.952   6.712  11.431  4.8564 -0.9981 -1.8008
  642MOL0     H86612   3.826   6.598  11.403  3.1729 -2.1253  3.6346
  642MOL0     H86613   3.959   6.475  11.239  2.0618 -2.1256  1.9784
  642MOL0     H86614   4.083   6.611  11.226  0.3560  0.5083  0.5165
  642MOL0     H86615   4.152   6.551  11.458  0.6873 -0.5120 -0.6191
  642MOL0     H86616   4.050   6.402  11.432  0.5270 -2.1862 -1.9596
  642MOL0     H86617   4.268   6.350  11.376 -1.2472  0.0136  2.0968
  642MOL0     H86618   4.289   6.484  11.264  2.2241 -3.9319 -1.0163
  642MOL0     H86619   4.135   6.402  11.112 -1.9999  0.0095 -0.2951
  642MOL0     H86620   4.246   6.275  11.149  1.0485  2.0561 -1.3508
  642MOL0     H86621   3.874   6.304  11.128  2.6150  0.7903 -0.6393
  642MOL0     H86622   3.683   6.018  11.296 -0.2034 -2.0564 -1.9819
  642MOL0     H86623   3.662   6.163  11.182  1.6637  3.1154  1.8115
  642MOL0     H86624   3.600   5.973  11.066 -0.5824  0.1441  1.1470
  642MOL0     H86625   3.774   5.999  11.014  0.6175 -0.6329  0.9286
  642MOL0     H86626   3.768   5.820  11.237  2.0985 -1.9100 -0.3715
  642MOL0     H86627   3.859   5.811  11.086 -0.2011  2.1045 -0.8975
  642MOL0     H86628   3.703   5.618  11.092  2.2928  0.4248 -0.1343
  642MOL0     H86629   3.648   5.729  10.964  3.3060  1.8343 -0.5146
  642MOL0     H86630   3.388   5.709  11.360 -1.0342 -1.2790  1.1226
  642MOL0     H86631   3.225   5.526  11.381  1.6080 -2.2070  1.6734
  642MOL0     H86632   3.266   5.024  11.204  1.2596 -1.8399 -0.8782
  642MOL0     H86633   3.235   4.803  11.298  1.8749  1.3623  0.5614
  642MOL0     H86634   3.045   4.629  11.372  1.1654 -1.1955 -2.2686
  642MOL0     H86635   3.221   4.621  11.418 -0.6221  0.0418 -0.1461
  642MOL0     H86636   3.135   4.503  11.617 -1.5469  0.9558  1.9262
  642MOL0     H86637   2.973   4.500  11.556  0.7992  0.5406  1.1396
  642MOL0     H86638   3.066   4.365  11.358 -4.0577 -0.1187  0.6223
  642MOL0     H86639   3.209   4.344  11.462 -0.0370 -0.4970 -1.1122
  642MOL0     H86640   2.919   4.258  11.567  0.2277 -0.2665  0.4915
  642MOL0     H86641   3.067   4.251  11.653 -0.0848 -0.2977 -0.2060
  642MOL0     H86642   3.050   4.107  11.387  0.5349  1.3917 -0.1842
  642MOL0     H86643   2.986   4.030  11.538 -0.0207 -0.0052  0.9831
  642MOL0     H86644   3.267   4.116  11.506  1.0305 -0.0555  1.1269
  642MOL0     H86645   3.203   4.029  11.642  0.1418 -0.4882 -0.4949
  642MOL0     H86646   3.179   3.926  11.357 -0.8816 -1.2054  0.4042
  642MOL0     H86647   3.161   3.834  11.507 -1.7995  2.5164  1.3111
  642MOL0     H86648   3.416   3.960  11.430 -0.6104  0.1110 -0.1749
  642MOL0     H86649   3.394   3.830  11.554  0.6880  1.0378  0.3644
  642MOL0     H86650   3.036   4.954  11.645  2.9801 -2.1082  2.0022
  642MOL0     H86651   3.052   5.188  11.551 -2.6252 -2.1746  2.7977
  642MOL0     H86652   3.340   5.403  10.976  0.4916  1.0690 -0.3666
  642MOL0     H86653   3.475   5.579  10.958  4.0415 -1.5400  2.1515
  642MOL0     H86654   3.373   6.855  11.298 -2.0960  0.0812 -1.3268
  642MOL0     H86655   3.156   6.748  11.275  0.7360 -0.6235 -2.2498
  642MOL0     H86656   2.886   6.214  11.484  1.5913  0.5304 -1.4453
  642MOL0     H86657   2.677   6.139  11.413  3.8582 -1.1039  1.6909
  642MOL0     H86658   2.278   6.340  11.325 -1.1934  3.4539 -2.1779
  642MOL0     H86659   2.378   6.482  11.305 -2.9044  2.1939  2.5744
  642MOL0     H86660   2.451   6.441  11.548 -0.9366  1.9031  1.5691
  642MOL0     H86661   2.377   6.283  11.548 -1.2883  1.5469  1.9038
  642MOL0     H86662   2.212   6.524  11.476  1.5119 -1.0874 -2.2644
  642MOL0     H86663   2.270   6.519  11.643  0.8497  0.1288  0.2958
  642MOL0     H86664   2.093   6.326  11.490 -1.0902  1.0568  0.1604
  642MOL0     H86665   2.174   6.266  11.634 -1.7055 -1.2328 -1.3425
  642MOL0     H86666   1.858   6.547  11.743  1.7314  2.8279  0.9099
  642MOL0     H86667   2.588   6.549  11.286  0.0009  0.6516 -0.5194
  642MOL0     H86668   2.753   6.718  11.323 -0.7071 -0.3596  0.7414
  642MOL0     H86669   2.896   6.679  11.410  1.0462 -1.8335  0.3462
  642MOL0     H86670   2.896   6.665  11.228 -0.3703 -2.3730 -0.5834
  643MOL0     O86671   8.407   9.544   3.523  0.0241 -0.8184  0.3880
  643MOL0     C86672   8.310   9.602   3.580 -0.2023  0.4305  0.2877
  643MOL0     O86673   8.301   9.624   3.703 -0.3062 -0.4012 -0.2883
  643MOL0     C86674   8.414   9.585   3.777  0.9191  0.1302 -0.0179
  643MOL0     C86675   8.408   9.486   3.879  0.3519  0.0672 -0.2065
  643MOL0     C86676   8.512   9.466   3.972 -0.3441 -0.0521  0.4865
  643MOL0     C86677   8.633   9.532   3.942 -0.0090  0.0405 -0.3129
  643MOL0     O86678   8.747   9.500   4.004  0.8340  0.3851 -0.2807
  643MOL0     C86679   8.842   9.406   3.946 -0.1437 -0.0156  0.9191
  643MOL0     C86680   8.972   9.403   4.030 -0.5192 -0.4462  0.1715
  643MOL0     C86681   8.934   9.327   4.154  0.7358 -0.4268 -0.1231
  643MOL0     C86682   9.066   9.298   4.233 -0.1424  0.0813 -0.0805
  643MOL0     C86683   9.034   9.200   4.350  0.1183 -0.2694 -0.3817
  643MOL0     C86684   9.091   9.266   4.481  0.4400 -0.8663 -0.1197
  643MOL0     C86685   9.108   9.163   4.591  0.1100  0.1291 -0.1682
  643MOL0     C86686   8.989   9.070   4.611 -0.0312  0.1884  0.7796
  643MOL0     N86687   9.012   8.971   4.714  0.1889 -0.1723 -0.1536
  643MOL0     C86688   9.066   8.978   4.842  0.3425 -0.3374  0.2408
  643MOL0     C86689   9.095   8.852   4.874 -0.3076  0.0833  0.3847
  643MOL0     C86690   9.158   8.816   5.008 -0.6599 -0.3574  0.0863
  643MOL0     C86691   9.190   8.660   5.006 -0.0174 -0.1635 -0.7818
  643MOL0     C86692   9.285   8.623   5.115 -0.8706 -0.2153 -1.2778
  643MOL0     C86693   9.220   8.575   5.243  0.2811 -0.4288  1.3634
  643MOL0     O86694   9.319   8.520   5.323 -0.3656  0.3423  0.6650
  643MOL0     C86695   9.281   8.423   5.423  0.3622 -0.8476  0.2067
  643MOL0     C86696   9.388   8.364   5.487 -0.6721  1.2909 -0.8641
  643MOL0     C86697   9.371   8.269   5.594 -0.2866  0.3514 -0.1994
  643MOL0     C86698   9.246   8.245   5.647  0.4561  0.5101 -0.7456
  643MOL0     C86699   9.229   8.174   5.779 -0.8288  0.1094 -0.5103
  643MOL0     O86700   9.108   8.152   5.831  0.6276  0.1062  0.5569
  643MOL0     C86701   9.089   8.117   5.962 -0.1926 -0.1688  0.0065
  643MOL0     C86702   9.166   8.165   6.072  0.3099 -0.4341  0.7019
  643MOL0     C86703   9.133   8.127   6.203  0.3997  0.0912 -0.7526
  643MOL0     C86704   9.022   8.052   6.229 -0.1014  0.6320  0.1536
  643MOL0     O86705   8.977   8.016   6.356 -0.1668  0.9342  0.3191
  643MOL0     C86706   9.093   8.004   6.443  0.5703 -0.9158 -0.1480
  643MOL0     C86707   9.042   7.955   6.573 -0.0777 -0.0996  0.2335
  643MOL0     C86708   9.155   7.941   6.682  1.2069 -0.2799  0.0354
  643MOL0     C86709   9.196   7.795   6.691 -0.5140  0.0819  1.0716
  643MOL0     C86710   9.345   7.782   6.732  0.4055  0.6320 -0.0266
  643MOL0     C86711   9.459   7.830   6.637  0.1394 -0.3089 -0.0133
  643MOL0     C86712   9.581   7.751   6.662  0.4564  0.5740 -0.6899
  643MOL0     C86713   9.686   7.781   6.559 -0.8802 -0.0235  1.3111
  643MOL0    Cl86714   9.813   7.651   6.562 -0.1441  0.0697  0.2925
  643MOL0     C86715   8.935   8.026   6.120  0.7030  0.2878 -0.0389
  643MOL0     C86716   8.966   8.050   5.991  0.2204  0.1117 -0.4632
  643MOL0     O86717   9.334   8.132   5.830  0.1254  0.3529 -0.3682
  643MOL0     C86718   9.134   8.300   5.577  0.0662 -0.2152  0.7605
  643MOL0     C86719   9.156   8.389   5.473  0.6701 -0.1287  0.2023
  643MOL0     N86720   9.037   8.765   4.780  0.7529  0.0889 -0.2322
  643MOL0     N86721   8.999   8.835   4.680  0.1918  0.1421 -0.1612
  643MOL0     C86722   8.638   9.618   3.832  0.0873 -0.3416  0.4913
  643MOL0     C86723   8.522   9.662   3.765  0.1912  0.3000  0.1416
  643MOL0     C86724   8.197   9.663   3.490 -1.1833  0.0168 -0.1307
  643MOL0     C86725   8.196   9.629   3.355  0.4583 -0.1390  0.1824
  643MOL0     C86726   8.101   9.693   3.270 -0.0338  0.3604  1.3140
  643MOL0     C86727   8.001   9.783   3.312  0.0433  1.3707 -0.7076
  643MOL0     O86728   7.893   9.837   3.239  0.9494  0.2289  0.0615
  643MOL0     C86729   7.916   9.856   3.100 -0.4626  0.1154  0.1544
  643MOL0     C86730   7.865   9.998   3.061  0.5197  0.2506  0.1885
  643MOL0     C86731   7.944  10.101   3.142 -0.2114  0.1154 -0.2035
  643MOL0     C86732   8.098  10.104   3.115 -1.0098  0.6666  1.1944
  643MOL0     C86733   8.128  10.119   2.968  0.5372 -0.4144  0.1308
  643MOL0     C86734   8.146  10.121   2.847 -0.7150 -0.9693  0.1208
  643MOL0     C86735   8.006   9.815   3.449 -1.2646  0.5967  0.2313
  643MOL0     C86736   8.105   9.759   3.538 -0.3139  0.2165 -0.8941
  643MOL0     C86737   8.104   9.808   3.681 -0.6429 -0.3425 -0.2823
  643MOL0     H86738   8.310   9.442   3.892  1.0151 -1.2517  0.6551
  643MOL0     H86739   8.502   9.400   4.057  0.0431  0.2363  0.7594
  643MOL0     H86740   8.799   9.307   3.932 -1.5145  0.6346  0.2932
  643MOL0     H86741   8.852   9.438   3.841 -3.7148  1.2144  0.8087
  643MOL0     H86742   9.024   9.497   4.050 -0.9585 -0.2988  0.6531
  643MOL0     H86743   9.037   9.344   3.965 -0.9350 -0.6135 -0.0972
  643MOL0     H86744   8.883   9.233   4.133 -0.9446  0.5288 -0.4757
  643MOL0     H86745   8.856   9.388   4.200  0.1381  0.1018 -1.7674
  643MOL0     H86746   9.140   9.251   4.168  1.2489  0.7783  0.9474
  643MOL0     H86747   9.107   9.392   4.272 -2.7777  1.0481  0.5997
  643MOL0     H86748   8.928   9.173   4.360  1.1138 -4.2688  1.9021
  643MOL0     H86749   9.083   9.103   4.333 -3.8356 -2.2216 -1.9200
  643MOL0     H86750   9.189   9.310   4.459  0.1682 -0.3510 -0.3300
  643MOL0     H86751   9.022   9.346   4.511 -0.4971  0.1568 -4.3384
  643MOL0     H86752   9.116   9.216   4.687 -3.4501  0.7224 -0.0721
  643MOL0     H86753   9.199   9.103   4.584  1.0260  1.2878  1.2483
  643MOL0     H86754   8.904   9.129   4.648 -0.1553 -0.1435  1.0310
  643MOL0     H86755   8.955   9.022   4.519 -0.4619  1.8350  0.0488
  643MOL0     H86756   9.094   9.068   4.897  1.9622  1.1898 -2.8199
  643MOL0     H86757   9.255   8.865   5.026 -0.9568  0.8962 -1.4599
  643MOL0     H86758   9.088   8.851   5.084 -1.9365 -0.1684 -1.1485
  643MOL0     H86759   9.098   8.600   5.011  0.6681 -1.1488  0.7633
  643MOL0     H86760   9.237   8.639   4.910  0.4134  0.5901 -0.7413
  643MOL0     H86761   9.358   8.703   5.129  1.0173 -1.8097 -1.4581
  643MOL0     H86762   9.342   8.536   5.080 -0.6569  0.5108 -2.8365
  643MOL0     H86763   9.147   8.498   5.214  0.5014 -0.4112  0.7518
  643MOL0     H86764   9.173   8.663   5.289  1.1249  0.6715  0.1706
  643MOL0     H86765   9.491   8.391   5.467  0.2059  0.9676  2.6808
  643MOL0     H86766   9.466   8.232   5.632 -1.2587 -3.1376 -0.8226
  643MOL0     H86767   9.253   8.229   6.058  2.5577 -3.3067  0.4239
  643MOL0     H86768   9.192   8.167   6.285 -2.3301  1.2297  0.7610
  643MOL0     H86769   9.162   7.931   6.399 -2.1772 -3.1256 -1.0679
  643MOL0     H86770   9.163   8.085   6.462 -0.2281  1.3599 -5.2423
  643MOL0     H86771   8.960   8.021   6.600 -4.1439 -3.7670 -1.7829
  643MOL0     H86772   8.983   7.863   6.570 -0.0260 -0.2265  1.8944
  643MOL0     H86773   9.236   8.009   6.654  1.8335 -0.9540  0.1764
  643MOL0     H86774   9.110   7.971   6.777  2.1480  0.8473  0.1572
  643MOL0     H86775   9.185   7.745   6.594  0.3507  0.5336  0.7270
  643MOL0     H86776   9.133   7.746   6.765 -0.6793 -0.1801  0.7622
  643MOL0     H86777   9.370   7.679   6.759  3.7572  2.0442  3.0077
  643MOL0     H86778   9.342   7.834   6.829 -1.4648  0.0419  0.2785
  643MOL0     H86779   9.415   7.818   6.537  0.2226  4.6139 -0.8974
  643MOL0     H86780   9.480   7.937   6.646  2.2797 -0.7111  0.3286
  643MOL0     H86781   9.561   7.644   6.650  1.3371 -0.0029  2.2453
  643MOL0     H86782   9.625   7.771   6.760  2.2506 -1.0579 -1.0931
  643MOL0     H86783   9.648   7.777   6.457 -2.2431  1.3895  1.7193
  643MOL0     H86784   9.748   7.870   6.572 -0.9276  1.1900 -4.3203
  643MOL0     H86785   8.847   7.967   6.143 -0.1868  1.5785  0.0076
  643MOL0     H86786   8.895   8.013   5.918 -1.9881  1.8198  0.6881
  643MOL0     H86787   9.036   8.269   5.612  0.5468  2.0543  4.7382
  643MOL0     H86788   9.066   8.419   5.420 -0.9233  1.6881  3.6265
  643MOL0     H86789   8.728   9.675   3.810 -1.1368  1.4780 -0.0648
  643MOL0     H86790   8.534   9.740   3.691  2.5662  0.0695  0.1988
  643MOL0     H86791   8.267   9.552   3.325 -0.6635 -1.1797  0.1198
  643MOL0     H86792   8.111   9.655   3.169 -0.2572  0.6780  1.1701
  643MOL0     H86793   7.850   9.782   3.054 -1.8442  0.9026  0.8069
  643MOL0     H86794   8.020   9.845   3.069  0.4234 -1.3196  3.2088
  643MOL0     H86795   7.763  10.005   3.099  0.7788 -0.6849  1.1108
  643MOL0     H86796   7.876  10.017   2.954  1.6080 -1.3994 -0.0318
  643MOL0     H86797   7.928  10.098   3.250  0.7744  1.1189 -0.0083
  643MOL0     H86798   7.897  10.197   3.116 -2.0204 -0.3020  1.3144
  643MOL0     H86799   8.138  10.190   3.169 -0.8177  2.2820 -1.3252
  643MOL0     H86800   8.157  10.019   3.150 -0.7695  1.3882  2.6292
  643MOL0     H86801   8.156  10.127   2.741  1.3587  0.0057  0.3289
  643MOL0     H86802   7.937   9.892   3.481 -1.5436  2.3695 -3.8962
  643MOL0     H86803   8.035   9.891   3.700 -0.2312  0.3324 -1.5914
  643MOL0     H86804   8.082   9.725   3.749  2.6662 -1.5670 -0.4951
  643MOL0     H86805   8.203   9.851   3.701 -1.6117  1.0026  2.0088
  644MOL0     O86806   1.660   7.987   4.114  0.1634  0.1519  0.5697
  644MOL0     C86807   1.706   7.932   4.211 -0.4878 -0.1251 -0.0007
  644MOL0     O86808   1.794   7.992   4.301  0.1581  0.5547 -0.0479
  644MOL0     C86809   1.785   8.122   4.339 -0.8016  0.3023  0.5268
  644MOL0     C86810   1.846   8.219   4.257 -0.1906  0.8839 -0.4341
  644MOL0     C86811   1.861   8.348   4.301  0.1085 -0.6541 -0.9370
  644MOL0     C86812   1.796   8.399   4.421 -0.6652  0.9149  0.5172
  644MOL0     O86813   1.797   8.531   4.442  0.6076  0.4240  0.1059
  644MOL0     C86814   1.684   8.581   4.512 -0.1835  0.0952  0.0794
  644MOL0     C86815   1.706   8.735   4.494 -0.5755 -0.2067 -0.1916
  644MOL0     C86816   1.585   8.817   4.550 -0.2758 -0.1700 -0.3864
  644MOL0     C86817   1.630   8.960   4.588 -0.3627 -0.2299 -0.1913
  644MOL0     C86818   1.511   9.038   4.632 -1.1894 -0.6698  0.0733
  644MOL0     C86819   1.543   9.196   4.658 -0.7104  0.5741  0.4198
  644MOL0     C86820   1.434   9.286   4.705 -0.3023 -0.0874 -0.6203
  644MOL0     C86821   1.336   9.218   4.809 -1.1048 -0.7793 -0.7599
  644MOL0     N86822   1.225   9.147   4.751  0.2039  1.4069 -0.3823
  644MOL0     C86823   1.156   9.051   4.809  0.1919 -0.1335  0.5400
  644MOL0     C86824   1.088   8.983   4.715 -0.4418  0.3068  0.6499
  644MOL0     C86825   1.009   8.858   4.740  0.8052 -0.1542 -0.1165
  644MOL0     C86826   0.889   8.862   4.639 -0.4713  0.7396  0.5673
  644MOL0     C86827   0.773   8.960   4.685  0.1608  0.7448  0.4053
  644MOL0     C86828   0.661   8.938   4.586 -0.3837  0.0060 -0.9118
  644MOL0     O86829   0.606   8.809   4.587  0.0396 -0.0849 -0.6864
  644MOL0     C86830   0.622   8.740   4.471  0.6016 -0.4335  0.3513
  644MOL0     C86831   0.665   8.615   4.455 -0.2465  0.4895  0.3293
  644MOL0     C86832   0.682   8.552   4.329  0.0473  0.3163  0.7110
  644MOL0     C86833   0.642   8.607   4.212 -0.0407  0.4454 -0.2824
  644MOL0     C86834   0.652   8.541   4.078 -0.9904 -0.3267  0.4481
  644MOL0     O86835   0.647   8.404   4.072  0.4920 -0.6217 -0.6908
  644MOL0     C86836   0.661   8.345   3.955 -0.6089  0.2174  0.5215
  644MOL0     C86837   0.606   8.380   3.828 -0.2761 -0.1650 -0.0855
  644MOL0     C86838   0.658   8.336   3.704  1.3521 -0.2984 -0.4105
  644MOL0     C86839   0.761   8.246   3.712  0.4301 -0.2320  0.2009
  644MOL0     O86840   0.820   8.199   3.600  0.9508 -0.0257  0.0939
  644MOL0     C86841   0.875   8.067   3.585 -0.1928 -0.7163 -0.3532
  644MOL0     C86842   0.893   8.041   3.439 -0.1863  0.3034  0.7052
  644MOL0     C86843   0.938   7.900   3.401 -0.4273  0.0683 -0.0591
  644MOL0     C86844   0.903   7.889   3.252 -0.3536 -0.0567 -0.2436
  644MOL0     C86845   0.990   7.781   3.182  0.7155 -0.2336  0.0496
  644MOL0     C86846   1.118   7.840   3.121  0.5346 -0.1871 -0.0831
  644MOL0     C86847   1.177   7.744   3.011  0.3891  0.0454 -0.2770
  644MOL0     C86848   1.298   7.813   2.939 -0.4525 -0.6663  0.3501
  644MOL0    Cl86849   1.243   7.916   2.794 -0.5732 -0.0636 -0.2601
  644MOL0     C86850   0.803   8.202   3.838  0.0848  0.1454 -0.0616
  644MOL0     C86851   0.762   8.252   3.962  0.5192 -0.3215 -0.5303
  644MOL0     O86852   0.667   8.614   3.978 -0.7078 -0.3701 -0.4384
  644MOL0     C86853   0.584   8.734   4.225 -0.7938  0.1537 -0.4604
  644MOL0     C86854   0.580   8.798   4.353 -0.1195  0.5953  0.1163
  644MOL0     N86855   1.122   9.044   4.593  0.2552 -0.2280 -0.3183
  644MOL0     N86856   1.194   9.144   4.617 -0.4935  0.2479 -0.8447
  644MOL0     C86857   1.730   8.299   4.487  0.1028 -0.4818 -0.7509
  644MOL0     C86858   1.718   8.169   4.445  0.2052 -0.4477 -0.3561
  644MOL0     C86859   1.682   7.781   4.219 -0.2479 -0.8842 -0.2546
  644MOL0     C86860   1.549   7.736   4.192  0.6415 -0.3476  0.2070
  644MOL0     C86861   1.514   7.608   4.214 -0.1851  0.7642 -0.6369
  644MOL0     C86862   1.604   7.518   4.263  0.5706  0.2447 -0.8175
  644MOL0     O86863   1.550   7.389   4.275  0.0704 -0.4478  0.0514
  644MOL0     C86864   1.638   7.277   4.276 -0.0918  0.1687 -1.0755
  644MOL0     C86865   1.558   7.147   4.299  0.2661 -0.0138  0.5531
  644MOL0     C86866   1.608   7.008   4.264  0.7279  0.2275  0.1481
  644MOL0     C86867   1.734   6.944   4.331  0.8950  0.5443  0.0800
  644MOL0     C86868   1.713   6.953   4.473  0.5925 -0.3758 -0.2283
  644MOL0     C86869   1.694   6.960   4.592  0.0727 -0.6453  0.3010
  644MOL0     C86870   1.737   7.550   4.275  0.0566  0.2738 -0.5183
  644MOL0     C86871   1.776   7.684   4.251  0.7027 -0.3690  0.2566
  644MOL0     C86872   1.925   7.708   4.240  0.2218 -0.1236  0.0371
  644MOL0     H86873   1.890   8.187   4.164  1.4188  3.9842 -0.8710
  644MOL0     H86874   1.903   8.425   4.238  2.5787 -2.0007 -1.0443
  644MOL0     H86875   1.589   8.541   4.476  0.1975 -2.2462  1.4605
  644MOL0     H86876   1.690   8.550   4.617  0.2988  0.5819  0.2016
  644MOL0     H86877   1.712   8.763   4.389  0.3161  1.9128  0.3842
  644MOL0     H86878   1.803   8.761   4.537  0.4561 -3.2721 -0.4125
  644MOL0     H86879   1.554   8.766   4.642 -2.7949 -0.1504 -1.1779
  644MOL0     H86880   1.507   8.829   4.475 -0.2077 -2.5492 -0.9154
  644MOL0     H86881   1.702   8.961   4.670  0.7804 -0.4303 -1.1536
  644MOL0     H86882   1.672   9.013   4.502 -1.3671 -1.4905 -1.5142
  644MOL0     H86883   1.431   9.021   4.560  1.3875  1.1536 -3.4940
  644MOL0     H86884   1.467   9.001   4.726 -0.0125  2.1242  1.8702
  644MOL0     H86885   1.623   9.207   4.731 -2.1857 -1.4373  2.4637
  644MOL0     H86886   1.589   9.236   4.567 -0.1828 -3.2996 -1.2325
  644MOL0     H86887   1.375   9.315   4.618 -2.1078 -0.4160  0.4407
  644MOL0     H86888   1.473   9.378   4.749  0.1746 -0.2903 -0.6116
  644MOL0     H86889   1.393   9.154   4.877 -3.8526 -1.0139  1.5392
  644MOL0     H86890   1.298   9.308   4.860  1.3555  0.6251 -1.2614
  644MOL0     H86891   1.174   9.020   4.911 -0.4751 -3.8025 -0.3085
  644MOL0     H86892   1.071   8.769   4.751  0.4685 -0.1822  1.8953
  644MOL0     H86893   0.966   8.858   4.841  1.2596 -2.0803  0.1114
  644MOL0     H86894   0.933   8.884   4.541 -1.2753 -0.4067 -0.0757
  644MOL0     H86895   0.852   8.761   4.621  0.8737  0.0805  1.3574
  644MOL0     H86896   0.809   9.060   4.709  2.7086  0.0361 -0.1787
  644MOL0     H86897   0.734   8.914   4.777  2.2473 -1.0297  0.4881
  644MOL0     H86898   0.709   8.970   4.493  1.5098  1.1350  0.3774
  644MOL0     H86899   0.574   8.997   4.614 -1.3579 -2.2315  1.1235
  644MOL0     H86900   0.700   8.566   4.545 -1.1702 -0.4788  0.1916
  644MOL0     H86901   0.715   8.449   4.316 -1.1622 -0.2298  1.7439
  644MOL0     H86902   0.532   8.459   3.825  0.3651  0.5515  1.7210
  644MOL0     H86903   0.618   8.357   3.606  0.7777  1.7164  0.2076
  644MOL0     H86904   0.961   8.041   3.648 -1.0711 -2.2710  0.2642
  644MOL0     H86905   0.793   8.000   3.611 -2.9203  1.2741 -3.1107
  644MOL0     H86906   0.797   8.056   3.389 -1.4135 -3.8639  1.3930
  644MOL0     H86907   0.971   8.102   3.392  1.1857 -1.9029 -0.0569
  644MOL0     H86908   1.046   7.887   3.411 -0.7312 -5.0479 -0.4220
  644MOL0     H86909   0.886   7.829   3.467 -3.3868 -0.5555 -2.7900
  644MOL0     H86910   0.927   7.980   3.196 -2.9556  0.3280 -0.8590
  644MOL0     H86911   0.795   7.875   3.239  0.1538 -2.0372 -3.0672
  644MOL0     H86912   0.942   7.729   3.098  4.4791 -1.7382 -1.4285
  644MOL0     H86913   1.015   7.700   3.251 -1.4022 -1.3389 -0.3988
  644MOL0     H86914   1.082   7.932   3.074 -3.1424  1.0066  4.3638
  644MOL0     H86915   1.190   7.883   3.191  0.4946 -1.6033  0.8719
  644MOL0     H86916   1.090   7.726   2.948 -0.4444  0.5439  0.6992
  644MOL0     H86917   1.210   7.650   3.055 -1.2974 -0.8064 -0.7621
  644MOL0     H86918   1.356   7.868   3.014  0.7292 -0.3452 -0.7692
  644MOL0     H86919   1.360   7.732   2.900 -0.6941 -0.0962 -1.2935
  644MOL0     H86920   0.888   8.136   3.824  0.9035  1.4981 -1.8189
  644MOL0     H86921   0.815   8.219   4.051  1.3446  0.7014 -0.6186
  644MOL0     H86922   0.517   8.778   4.152 -0.5591  0.0017 -0.7725
  644MOL0     H86923   0.521   8.890   4.351 -0.0628  0.6254 -0.8314
  644MOL0     H86924   1.691   8.324   4.585 -0.6075 -1.4404 -0.7744
  644MOL0     H86925   1.676   8.092   4.509 -0.1373 -1.0372 -1.2556
  644MOL0     H86926   1.494   7.821   4.153 -0.3888 -1.3639 -0.6245
  644MOL0     H86927   1.412   7.571   4.209 -0.0142 -0.1315  1.4586
  644MOL0     H86928   1.716   7.283   4.353 -1.5067  0.0746  0.4112
  644MOL0     H86929   1.688   7.265   4.179  2.4300  2.8857 -0.2889
  644MOL0     H86930   1.472   7.174   4.237  0.1402 -2.5246 -0.5029
  644MOL0     H86931   1.535   7.155   4.406  1.1216  2.8123  0.6014
  644MOL0     H86932   1.628   6.993   4.157  2.7502 -0.4560  0.5899
  644MOL0     H86933   1.534   6.928   4.275  2.4045 -1.8381 -2.1524
  644MOL0     H86934   1.732   6.840   4.299 -3.2141  0.3257  0.4062
  644MOL0     H86935   1.827   6.994   4.302  2.6013 -2.6977 -0.4822
  644MOL0     H86936   1.689   6.962   4.699  0.8502  1.5569  0.3566
  644MOL0     H86937   1.811   7.471   4.286  2.2059  2.2303 -0.1751
  644MOL0     H86938   1.983   7.625   4.282  0.9671  1.3783  2.1605
  644MOL0     H86939   1.955   7.703   4.135  1.0752 -0.7420  0.2979
  644MOL0     H86940   1.953   7.803   4.287  1.4552 -0.5022  0.1095
  645MOL0     O86941   1.329   5.069   5.925  0.6010  0.5548  0.6290
  645MOL0     C86942   1.434   5.046   5.975 -0.1519 -0.8608  0.3943
  645MOL0     O86943   1.530   4.964   5.927  0.0204  0.0657 -0.1538
  645MOL0     C86944   1.488   4.853   5.857  0.0333  0.5063 -0.0748
  645MOL0     C86945   1.371   4.781   5.876  0.5367  1.2211  0.0630
  645MOL0     C86946   1.346   4.659   5.819 -0.1556  0.2590  0.1791
  645MOL0     C86947   1.461   4.594   5.761  0.4594  1.1040  0.0413
  645MOL0     O86948   1.451   4.461   5.715 -0.2618 -0.1521 -0.0965
  645MOL0     C86949   1.524   4.422   5.595  0.2591  1.0021  0.6259
  645MOL0     C86950   1.477   4.294   5.535 -0.2289 -0.4601 -0.4787
  645MOL0     C86951   1.510   4.176   5.637 -1.2201  0.8779 -0.2275
  645MOL0     C86952   1.495   4.054   5.551 -0.0812 -1.0675 -0.3050
  645MOL0     C86953   1.542   3.922   5.615 -0.7715  0.1237  0.0888
  645MOL0     C86954   1.438   3.874   5.713 -0.5066 -0.0149 -0.1868
  645MOL0     C86955   1.494   3.742   5.778 -0.6504  1.0856  0.4309
  645MOL0     C86956   1.419   3.725   5.916  0.4702 -0.1758  0.2716
  645MOL0     N86957   1.483   3.601   5.973  0.7107  0.6585 -0.2106
  645MOL0     C86958   1.522   3.577   6.096 -0.5619 -0.7702 -1.2627
  645MOL0     C86959   1.526   3.441   6.101 -0.4423 -0.1856  0.6057
  645MOL0     C86960   1.539   3.364   6.226 -0.0364 -0.3445 -0.1942
  645MOL0     C86961   1.682   3.339   6.270 -0.3657 -0.6508  0.7783
  645MOL0     C86962   1.732   3.211   6.197  0.5331 -0.5174  0.2803
  645MOL0     C86963   1.835   3.120   6.273  0.2932 -0.1607  0.3890
  645MOL0     O86964   1.886   3.007   6.202 -0.3972  0.0352 -0.8654
  645MOL0     C86965   1.995   2.938   6.266  0.3963 -0.6316  0.5823
  645MOL0     C86966   2.035   2.970   6.395  0.2323  0.4619 -0.7035
  645MOL0     C86967   2.140   2.896   6.454 -0.3560  0.0167  0.3178
  645MOL0     C86968   2.194   2.788   6.385  0.3440  0.1780  0.1764
  645MOL0     C86969   2.299   2.702   6.438  1.0777 -0.0936 -0.3436
  645MOL0     O86970   2.289   2.689   6.572  0.7789 -0.0744  0.7500
  645MOL0     C86971   2.391   2.623   6.635  0.8897  0.3862 -0.1832
  645MOL0     C86972   2.410   2.493   6.606 -1.2751  0.5102  0.0183
  645MOL0     C86973   2.497   2.420   6.682 -0.1357 -0.2062  0.3053
  645MOL0     C86974   2.581   2.486   6.784  0.3667 -0.5627 -0.1568
  645MOL0     O86975   2.683   2.425   6.856 -0.5981 -0.4996 -0.1464
  645MOL0     C86976   2.680   2.278   6.869  1.0111 -0.0584  0.5029
  645MOL0     C86977   2.781   2.241   6.976 -0.6814 -0.1423 -0.6105
  645MOL0     C86978   2.750   2.307   7.110 -0.0682  0.2265  0.1783
  645MOL0     C86979   2.605   2.297   7.168  0.2645  0.0721  0.9869
  645MOL0     C86980   2.570   2.158   7.230  0.2395  0.3963 -0.0291
  645MOL0     C86981   2.411   2.131   7.236 -1.1345  0.1809 -1.2625
  645MOL0     C86982   2.359   2.026   7.334  0.7352 -0.0854 -0.4871
  645MOL0     C86983   2.453   1.911   7.360 -0.0746  0.5572 -0.2759
  645MOL0    Cl86984   2.373   1.769   7.436 -0.0754  0.0552  0.0533
  645MOL0     C86985   2.561   2.624   6.807  0.0982  0.3784  0.8121
  645MOL0     C86986   2.466   2.687   6.730  0.1794  0.3837 -0.5234
  645MOL0     O86987   2.394   2.672   6.372 -0.2817 -0.5985 -1.4278
  645MOL0     C86988   2.167   2.766   6.250  1.1932  0.4217 -0.1467
  645MOL0     C86989   2.066   2.837   6.192  0.1608  0.1111  1.1791
  645MOL0     N86990   1.509   3.379   5.981  0.5109  0.4627 -0.1620
  645MOL0     N86991   1.487   3.482   5.909 -0.2690 -0.5186 -0.3110
  645MOL0     C86992   1.580   4.660   5.749 -0.4098  0.8767 -0.1771
  645MOL0     C86993   1.593   4.788   5.785 -1.0470 -0.9856  0.5638
  645MOL0     C86994   1.468   5.133   6.093 -0.5119 -0.1558  0.1348
  645MOL0     C86995   1.516   5.075   6.216 -0.2183  0.1704  0.9882
  645MOL0     C86996   1.533   5.143   6.337  0.2842  0.8047  0.0826
  645MOL0     C86997   1.512   5.275   6.337 -0.4327 -0.9931 -0.0698
  645MOL0     O86998   1.519   5.352   6.451 -0.3301 -0.4160 -0.4953
  645MOL0     C86999   1.646   5.365   6.503 -0.5201 -0.4678  0.4896
  645MOL0     C87000   1.640   5.446   6.635  0.6662  0.1804 -0.2920
  645MOL0     C87001   1.776   5.437   6.713 -0.7044 -0.5326  0.3299
  645MOL0     C87002   1.758   5.495   6.859 -0.0688  0.4984 -0.2474
  645MOL0     C87003   1.865   5.447   6.947 -0.4364  1.2427 -0.9469
  645MOL0     C87004   1.942   5.428   7.047  0.2474  0.5150  0.2166
  645MOL0     C87005   1.475   5.343   6.215  0.3284  0.9904 -0.7998
  645MOL0     C87006   1.446   5.272   6.094 -0.6031 -0.6261 -0.0120
  645MOL0     C87007   1.373   5.345   5.982 -0.2771 -0.9646  0.2768
  645MOL0     H87008   1.281   4.808   5.930  0.3599  2.0570 -0.6280
  645MOL0     H87009   1.259   4.595   5.830  0.9153 -1.6939 -1.8056
  645MOL0     H87010   1.508   4.499   5.518 -0.0379  0.2442 -0.0804
  645MOL0     H87011   1.630   4.415   5.624  0.7912  0.1326 -1.3908
  645MOL0     H87012   1.526   4.287   5.438  0.8056  0.8545 -0.0896
  645MOL0     H87013   1.369   4.305   5.523 -0.4506 -0.8860  0.9433
  645MOL0     H87014   1.440   4.173   5.721  0.6738 -1.1609  1.3702
  645MOL0     H87015   1.614   4.183   5.670  0.1222 -1.9698 -3.2443
  645MOL0     H87016   1.389   4.035   5.532 -0.2453  0.9350 -1.6298
  645MOL0     H87017   1.544   4.067   5.454 -1.9091 -0.3028 -1.1825
  645MOL0     H87018   1.556   3.840   5.544 -2.7223 -1.1713  1.1279
  645MOL0     H87019   1.628   3.941   5.679 -0.8529  1.6364 -0.2139
  645MOL0     H87020   1.405   3.949   5.785  0.5493 -1.2262  1.6790
  645MOL0     H87021   1.339   3.854   5.672 -1.9281  1.1614  2.4769
  645MOL0     H87022   1.600   3.741   5.804 -0.8050 -0.8794  1.1525
  645MOL0     H87023   1.468   3.660   5.712 -1.7387  2.2720 -0.6804
  645MOL0     H87024   1.445   3.814   5.974  0.1366  0.7508 -0.9416
  645MOL0     H87025   1.311   3.724   5.900  0.2017  1.7292  1.7148
  645MOL0     H87026   1.547   3.637   6.182  1.0202 -0.9864 -1.5425
  645MOL0     H87027   1.501   3.421   6.311  1.2430  0.3646 -0.0643
  645MOL0     H87028   1.488   3.267   6.226  2.3443 -1.8247 -3.6122
  645MOL0     H87029   1.748   3.425   6.254 -0.8041 -0.2261  1.2125
  645MOL0     H87030   1.685   3.318   6.377 -0.9732 -1.0450  0.7283
  645MOL0     H87031   1.783   3.247   6.107 -0.2274  0.1504  0.1031
  645MOL0     H87032   1.646   3.156   6.159  1.1193  0.1509 -2.2090
  645MOL0     H87033   1.790   3.085   6.366  1.2544  1.3977  1.4832
  645MOL0     H87034   1.912   3.192   6.300  3.3319 -0.2070 -6.2204
  645MOL0     H87035   2.010   3.063   6.445  1.4786 -1.3161  3.7066
  645MOL0     H87036   2.155   2.908   6.560 -2.0981 -0.3106  0.6269
  645MOL0     H87037   2.362   2.459   6.516  0.8470 -1.1563 -0.5723
  645MOL0     H87038   2.510   2.317   6.652  0.5549  0.1446 -0.6925
  645MOL0     H87039   2.583   2.235   6.896  0.9536 -0.3411 -0.1483
  645MOL0     H87040   2.706   2.233   6.773 -2.9421 -0.4308 -0.5543
  645MOL0     H87041   2.779   2.131   6.976 -2.5373 -0.1773  1.6059
  645MOL0     H87042   2.881   2.274   6.948 -0.9779 -1.4307 -3.6059
  645MOL0     H87043   2.819   2.276   7.189  0.6065  3.3182  0.9753
  645MOL0     H87044   2.766   2.414   7.094  1.8895  0.0372  0.6569
  645MOL0     H87045   2.547   2.313   7.077  1.8243  1.2854  0.1467
  645MOL0     H87046   2.608   2.382   7.237 -0.3453  0.5786  0.3999
  645MOL0     H87047   2.610   2.166   7.331  0.4150  0.1813 -0.0808
  645MOL0     H87048   2.619   2.075   7.178 -3.5141 -1.0384 -1.6959
  645MOL0     H87049   2.368   2.227   7.265  0.0688 -0.1887  2.1269
  645MOL0     H87050   2.380   2.108   7.133 -2.8256 -0.9833 -0.5302
  645MOL0     H87051   2.260   1.996   7.301  0.6525  1.3481 -1.6748
  645MOL0     H87052   2.342   2.080   7.427 -0.8373 -1.2654 -0.0440
  645MOL0     H87053   2.484   1.878   7.260  0.7645  1.6886 -0.4088
  645MOL0     H87054   2.539   1.933   7.423 -0.5230 -0.5608  0.7510
  645MOL0     H87055   2.630   2.669   6.877  1.2226 -1.1487  0.7478
  645MOL0     H87056   2.447   2.790   6.760 -2.1981 -0.5082  1.4032
  645MOL0     H87057   2.201   2.674   6.203 -0.2369 -1.3053  2.0023
  645MOL0     H87058   2.018   2.821   6.096 -2.8942  2.2653  2.1877
  645MOL0     H87059   1.664   4.625   5.690  0.1670  1.5494  0.2315
  645MOL0     H87060   1.680   4.843   5.748 -2.3581  1.7989  1.3864
  645MOL0     H87061   1.529   4.968   6.207  0.3512  0.3994 -1.6068
  645MOL0     H87062   1.550   5.084   6.426  1.1031 -1.5653 -1.5487
  645MOL0     H87063   1.713   5.418   6.434 -0.1954 -0.7274  0.6040
  645MOL0     H87064   1.689   5.265   6.517  1.9884  0.4522 -0.0114
  645MOL0     H87065   1.554   5.409   6.692 -1.1981 -0.5780 -3.3825
  645MOL0     H87066   1.620   5.550   6.611 -1.1156 -0.6255 -2.6145
  645MOL0     H87067   1.855   5.493   6.661  0.7637 -1.3649  1.6110
  645MOL0     H87068   1.813   5.334   6.715  1.4621  0.1612 -0.5566
  645MOL0     H87069   1.746   5.603   6.849 -2.2541  0.3305  0.1487
  645MOL0     H87070   1.668   5.462   6.911 -1.0114  0.8170 -1.6097
  645MOL0     H87071   2.022   5.407   7.114  1.1650  1.3476 -0.5699
  645MOL0     H87072   1.467   5.450   6.197 -0.1118  0.5340 -3.8133
  645MOL0     H87073   1.267   5.346   6.009 -0.6874  1.4461 -1.1263
  645MOL0     H87074   1.400   5.451   5.993 -1.6261 -0.3621 -1.6245
  645MOL0     H87075   1.403   5.304   5.885  0.0999 -0.0882  0.0089
  646MOL0     O87076   4.427   5.969   4.558  1.1852 -0.7854  0.3429
  646MOL0     C87077   4.455   5.962   4.672  0.4260  0.1488 -0.3232
  646MOL0     O87078   4.391   6.020   4.778 -0.3175  0.8129 -0.4447
  646MOL0     C87079   4.298   6.118   4.758 -0.0180  0.1704 -0.3239
  646MOL0     C87080   4.307   6.234   4.680  0.5885  0.0773 -1.1835
  646MOL0     C87081   4.192   6.322   4.659 -0.6995  0.1427  0.3410
  646MOL0     C87082   4.069   6.291   4.726  1.3273  0.1347  0.2359
  646MOL0     O87083   3.962   6.375   4.707 -0.1868 -0.0530  0.3382
  646MOL0     C87084   3.835   6.317   4.684  0.9390  0.6492 -0.1366
  646MOL0     C87085   3.733   6.429   4.656  0.1690 -1.0708 -0.3047
  646MOL0     C87086   3.701   6.525   4.777  0.1084  0.1784  0.2728
  646MOL0     C87087   3.576   6.610   4.747  0.1504  0.4518 -0.5877
  646MOL0     C87088   3.442   6.530   4.742 -0.0178 -0.2393  0.1068
  646MOL0     C87089   3.320   6.626   4.726 -0.1267  0.0146 -0.2707
  646MOL0     C87090   3.179   6.568   4.720  0.1315  0.1620  0.1338
  646MOL0     C87091   3.170   6.447   4.627 -0.1891 -0.0857  0.0780
  646MOL0     N87092   3.222   6.496   4.494 -0.7679  0.2303  0.5924
  646MOL0     C87093   3.145   6.553   4.404  0.5017 -0.3108  1.7057
  646MOL0     C87094   3.211   6.552   4.286  0.8410 -1.3191 -1.3931
  646MOL0     C87095   3.148   6.603   4.155  0.1392 -0.1218  0.3880
  646MOL0     C87096   3.274   6.643   4.069 -0.4654 -0.5373 -0.3807
  646MOL0     C87097   3.230   6.738   3.953 -1.0113 -0.5078  0.1178
  646MOL0     C87098   3.106   6.684   3.883  0.3841 -0.7718  0.1575
  646MOL0     O87099   3.085   6.762   3.765  0.4864  0.0249  0.6425
  646MOL0     C87100   3.173   6.744   3.660 -0.1857  0.4574 -0.3341
  646MOL0     C87101   3.154   6.827   3.552 -0.6039  0.0370 -0.0747
  646MOL0     C87102   3.222   6.816   3.432 -0.5163  0.2393  0.6873
  646MOL0     C87103   3.324   6.722   3.421 -0.7986  0.0172 -0.0593
  646MOL0     C87104   3.414   6.705   3.308 -0.3963 -0.3654 -0.3373
  646MOL0     O87105   3.420   6.805   3.212  0.0674 -0.1405  0.3180
  646MOL0     C87106   3.518   6.792   3.121  0.8826  0.4511  0.2882
  646MOL0     C87107   3.636   6.870   3.130 -0.6623  0.2211 -0.1375
  646MOL0     C87108   3.740   6.850   3.034  0.5693 -0.3687  0.1366
  646MOL0     C87109   3.722   6.753   2.931 -0.1065 -0.7264  0.3579
  646MOL0     O87110   3.829   6.744   2.855  0.4934  0.1254  0.6856
  646MOL0     C87111   3.813   6.772   2.719 -0.5724  0.1366  0.7626
  646MOL0     C87112   3.744   6.905   2.670 -0.0496  0.7324 -0.5167
  646MOL0     C87113   3.854   7.014   2.658 -0.0151 -1.2666 -0.1575
  646MOL0     C87114   3.807   7.153   2.624 -0.7676 -0.7181 -0.8260
  646MOL0     C87115   3.924   7.257   2.620  0.1680 -0.2618  0.5092
  646MOL0     C87116   3.882   7.391   2.567 -0.3649 -0.5681  0.3121
  646MOL0     C87117   3.781   7.404   2.449  0.1400  0.1982 -0.7212
  646MOL0     C87118   3.814   7.320   2.329  0.4317  1.5665 -0.3292
  646MOL0    Cl87119   3.974   7.333   2.252  0.2995  0.6290 -0.0169
  646MOL0     C87120   3.603   6.681   2.925 -0.9357 -0.2569 -0.2491
  646MOL0     C87121   3.496   6.697   3.014  0.5919 -0.4197 -0.3998
  646MOL0     O87122   3.480   6.606   3.310  0.1162  0.1833 -0.0979
  646MOL0     C87123   3.350   6.639   3.542  0.7166  0.2867  0.3829
  646MOL0     C87124   3.267   6.644   3.656 -1.2992 -0.8173  0.5617
  646MOL0     N87125   3.329   6.485   4.320 -0.3705 -0.2819  0.0656
  646MOL0     N87126   3.338   6.458   4.438  0.7873  0.3994  0.0843
  646MOL0     C87127   4.063   6.178   4.799 -0.3120  0.0621 -0.0633
  646MOL0     C87128   4.175   6.104   4.818 -0.7469 -0.3291  0.3415
  646MOL0     C87129   4.566   5.856   4.698  0.2863 -1.5479  0.5274
  646MOL0     C87130   4.574   5.823   4.836  0.2395 -0.2697 -0.6626
  646MOL0     C87131   4.674   5.738   4.884 -0.1459 -0.8208 -0.3711
  646MOL0     C87132   4.783   5.697   4.799  0.7775  0.1932  0.1016
  646MOL0     O87133   4.896   5.646   4.862 -0.2087 -0.4909  0.3158
  646MOL0     C87134   5.016   5.597   4.786  0.1867 -0.4440 -0.2193
  646MOL0     C87135   5.120   5.584   4.892 -0.0108 -0.5658 -0.3862
  646MOL0     C87136   5.242   5.502   4.841  0.9528 -0.4651 -0.1933
  646MOL0     C87137   5.320   5.596   4.739  0.7814 -0.6680  0.2420
  646MOL0     C87138   5.442   5.522   4.702  0.2223 -0.2980 -0.0025
  646MOL0     C87139   5.543   5.481   4.662  0.0860  0.2318 -0.4536
  646MOL0     C87140   4.769   5.728   4.662  0.0650  0.8777 -0.5379
  646MOL0     C87141   4.670   5.809   4.611  0.8557 -0.1929 -0.1226
  646MOL0     C87142   4.671   5.848   4.462 -0.2277 -0.8699  0.1075
  646MOL0     H87143   4.407   6.244   4.640  0.6001 -0.8701 -1.4213
  646MOL0     H87144   4.209   6.414   4.605  0.9050  0.6164  1.5737
  646MOL0     H87145   3.837   6.256   4.593  0.6084  0.5672 -0.0928
  646MOL0     H87146   3.799   6.256   4.767  0.8986  0.2053 -0.4739
  646MOL0     H87147   3.639   6.382   4.627  1.4348 -4.4166  0.5358
  646MOL0     H87148   3.772   6.500   4.582 -0.3459 -0.4189  0.0493
  646MOL0     H87149   3.787   6.590   4.794  0.3871 -0.2544  0.5445
  646MOL0     H87150   3.681   6.468   4.869  0.3686 -0.7797 -0.2494
  646MOL0     H87151   3.560   6.683   4.827  1.5025  0.1867 -0.0523
  646MOL0     H87152   3.590   6.654   4.648 -1.3331  2.8087  0.1569
  646MOL0     H87153   3.443   6.465   4.654  1.5162  0.4040 -0.3808
  646MOL0     H87154   3.445   6.466   4.830  3.4947 -0.6551 -0.1723
  646MOL0     H87155   3.332   6.689   4.814  2.6936 -0.5042 -0.1943
  646MOL0     H87156   3.341   6.696   4.644 -1.9299  1.4996  0.4542
  646MOL0     H87157   3.101   6.640   4.691  0.3866 -0.5426 -2.5709
  646MOL0     H87158   3.156   6.525   4.817 -2.1265 -1.3784 -0.9783
  646MOL0     H87159   3.232   6.367   4.668 -0.5237 -0.1899  0.3813
  646MOL0     H87160   3.064   6.419   4.627 -0.2706 -0.1416  3.2800
  646MOL0     H87161   3.050   6.595   4.435 -0.7835  1.3004 -3.3850
  646MOL0     H87162   3.086   6.520   4.120 -3.0004  2.0896  0.2317
  646MOL0     H87163   3.085   6.692   4.171  1.7555  0.6065  3.7748
  646MOL0     H87164   3.347   6.702   4.126 -1.0697  1.4755 -1.5950
  646MOL0     H87165   3.323   6.552   4.034  2.4560  0.1541  1.5397
  646MOL0     H87166   3.314   6.758   3.885 -2.0546 -0.8425 -1.3390
  646MOL0     H87167   3.214   6.834   4.003 -2.9300 -2.0869  2.8238
  646MOL0     H87168   3.015   6.703   3.941 -0.7039 -0.2048 -1.6316
  646MOL0     H87169   3.108   6.578   3.858  1.2177 -0.5373 -0.8145
  646MOL0     H87170   3.081   6.906   3.535 -1.7362 -1.2084 -1.3137
  646MOL0     H87171   3.198   6.879   3.347  2.0264  1.8445  1.0579
  646MOL0     H87172   3.653   6.945   3.206 -3.6345  2.8112 -1.8036
  646MOL0     H87173   3.839   6.896   3.040  1.3002 -1.9837  1.0755
  646MOL0     H87174   3.909   6.772   2.666 -0.7154  1.7032  0.4460
  646MOL0     H87175   3.755   6.688   2.680  2.0589 -0.2667 -2.7169
  646MOL0     H87176   3.702   6.898   2.569 -1.1382 -1.3273  0.0177
  646MOL0     H87177   3.667   6.936   2.741  1.4456  1.3820  0.8749
  646MOL0     H87178   3.903   7.023   2.756  1.1539  3.8702 -0.9129
  646MOL0     H87179   3.932   6.990   2.587 -0.5680  1.2180 -1.7449
  646MOL0     H87180   3.746   7.189   2.708  0.9632  0.0928  0.1464
  646MOL0     H87181   3.748   7.154   2.532 -1.2471 -2.7830 -0.5898
  646MOL0     H87182   3.995   7.218   2.546  0.0026  0.3975 -0.0107
  646MOL0     H87183   3.959   7.254   2.724 -3.1176 -4.2580  1.7984
  646MOL0     H87184   3.830   7.441   2.649 -2.0622 -1.7909  0.0199
  646MOL0     H87185   3.971   7.452   2.550 -0.4579 -0.3718  0.5110
  646MOL0     H87186   3.767   7.510   2.425 -1.7891 -0.5337 -3.2983
  646MOL0     H87187   3.690   7.353   2.481  1.0204 -1.2444 -0.4148
  646MOL0     H87188   3.803   7.213   2.348 -0.9667  1.6754 -0.4370
  646MOL0     H87189   3.736   7.337   2.254  0.6582 -2.8794 -1.8470
  646MOL0     H87190   3.597   6.616   2.838 -1.4656  0.8523 -1.0657
  646MOL0     H87191   3.400   6.649   3.001 -0.0484  0.2049  1.6303
  646MOL0     H87192   3.435   6.572   3.543 -2.2106 -4.1034 -3.2334
  646MOL0     H87193   3.296   6.582   3.740 -0.7036 -1.9429 -0.4365
  646MOL0     H87194   3.977   6.143   4.854 -1.9532  0.9427 -1.9299
  646MOL0     H87195   4.163   6.017   4.882 -2.8200  0.6663  1.3829
  646MOL0     H87196   4.518   5.870   4.916  2.4892  0.0308  0.8409
  646MOL0     H87197   4.682   5.707   4.987  0.1193  2.3760  0.6744
  646MOL0     H87198   5.042   5.676   4.715 -3.3241  0.3867 -0.7721
  646MOL0     H87199   5.000   5.500   4.738  0.1005 -0.2122 -0.6677
  646MOL0     H87200   5.084   5.524   4.976  1.7741 -2.3216 -0.7890
  646MOL0     H87201   5.137   5.686   4.925 -0.8249 -0.8726  1.0472
  646MOL0     H87202   5.222   5.407   4.791  0.1033 -0.8854  0.9052
  646MOL0     H87203   5.294   5.478   4.934  2.5026 -0.9499 -1.1540
  646MOL0     H87204   5.258   5.615   4.651 -0.0421  0.4380  1.0469
  646MOL0     H87205   5.341   5.693   4.783 -0.6147  0.2443 -1.0298
  646MOL0     H87206   5.634   5.440   4.625 -1.2019 -2.1528 -1.1958
  646MOL0     H87207   4.854   5.692   4.605  4.0866  2.5171  3.7719
  646MOL0     H87208   4.762   5.824   4.407  1.1710  1.7662  1.0848
  646MOL0     H87209   4.573   5.822   4.422  0.2182 -3.1241  0.3252
  646MOL0     H87210   4.675   5.957   4.449 -1.2198 -0.8345  0.0454
  647MOL0     O87211   2.030   9.335   5.638  0.2514 -0.1317  0.4994
  647MOL0     C87212   2.046   9.226   5.567 -0.2038 -0.5871 -0.6562
  647MOL0     O87213   2.070   9.214   5.432 -0.2464  0.1024 -0.3989
  647MOL0     C87214   2.073   9.326   5.351  0.4497  0.6367  0.7159
  647MOL0     C87215   1.982   9.431   5.359 -0.2810  0.7667 -0.8910
  647MOL0     C87216   1.990   9.540   5.268  0.6698 -0.7268 -0.2895
  647MOL0     C87217   2.077   9.535   5.153  0.0082 -0.1471  0.2067
  647MOL0     O87218   2.090   9.632   5.067 -0.2501  0.1101  0.0104
  647MOL0     C87219   2.129   9.759   5.112 -0.0102  1.0407  0.8313
  647MOL0     C87220   2.198   9.822   4.994 -0.3490 -0.8760 -1.3882
  647MOL0     C87221   2.178   9.971   4.979  0.2234 -0.3984  0.6355
  647MOL0     C87222   2.224  10.016   4.834 -0.3028  0.0035  0.1795
  647MOL0     C87223   2.211  10.169   4.810 -0.1908  0.2098 -1.2474
  647MOL0     C87224   2.259  10.206   4.672  0.1939  0.2336 -0.3960
  647MOL0     C87225   2.232  10.355   4.643  0.2567  0.2476 -0.7087
  647MOL0     C87226   2.208  10.374   4.491 -1.1016  0.0463 -0.2842
  647MOL0     N87227   2.216  10.511   4.445 -0.4311 -0.0616 -0.1194
  647MOL0     C87228   2.182  10.621   4.505 -0.6338  0.2584 -0.4495
  647MOL0     C87229   2.254  10.718   4.438 -0.5360  0.3422 -0.5474
  647MOL0     C87230   2.242  10.866   4.463 -0.2911 -0.0071 -0.1393
  647MOL0     C87231   2.347  10.924   4.560  0.1608 -0.5805 -0.2775
  647MOL0     C87232   2.474  10.963   4.490  0.3916  0.5980  0.0570
  647MOL0     C87233   2.587  11.030   4.572 -0.1105  0.1486  0.2278
  647MOL0     O87234   2.716  11.037   4.500 -1.2629 -0.4192  0.3600
  647MOL0     C87235   2.837  11.000   4.561  0.0432  0.1666  0.2743
  647MOL0     C87236   2.944  10.967   4.471  0.5645  0.5433 -0.6159
  647MOL0     C87237   3.064  10.899   4.508  0.7850  0.5558  0.3930
  647MOL0     C87238   3.073  10.864   4.647  0.2642 -0.6800 -0.6525
  647MOL0     C87239   3.199  10.805   4.688 -0.1798  0.5941 -0.2570
  647MOL0     O87240   3.301  10.791   4.593 -0.1182  0.3173 -0.5241
  647MOL0     C87241   3.387  10.683   4.614 -0.1623  0.2783  0.7365
  647MOL0     C87242   3.400  10.591   4.510  0.7124 -0.4745 -0.2888
  647MOL0     C87243   3.489  10.488   4.513 -0.7413  0.3495 -0.3332
  647MOL0     C87244   3.582  10.466   4.618  0.0109  0.2700  1.0406
  647MOL0     O87245   3.676  10.364   4.631 -0.8347 -0.6846  0.8370
  647MOL0     C87246   3.648  10.248   4.551  0.1921 -0.0070  0.2028
  647MOL0     C87247   3.617  10.140   4.651 -0.3876 -0.4724 -1.1343
  647MOL0     C87248   3.616  10.005   4.584  0.3056  0.3563  1.0242
  647MOL0     C87249   3.578   9.898   4.684  0.0836  0.8001  0.0407
  647MOL0     C87250   3.690   9.839   4.768  0.0590  0.2046 -0.9680
  647MOL0     C87251   3.621   9.745   4.874 -0.6993 -0.1148 -0.1038
  647MOL0     C87252   3.702   9.614   4.896 -0.2856 -0.3266  1.0363
  647MOL0     C87253   3.646   9.528   5.006 -0.0837  0.3027  0.7617
  647MOL0    Cl87254   3.614   9.362   4.935  0.0594  0.3926 -0.3973
  647MOL0     C87255   3.564  10.556   4.724  0.3132 -0.5854  0.2432
  647MOL0     C87256   3.466  10.658   4.726  0.1557 -0.1606  0.6214
  647MOL0     O87257   3.196  10.766   4.803  0.7393 -0.5792  0.2316
  647MOL0     C87258   2.977  10.908   4.745  1.5226 -0.7603 -0.0926
  647MOL0     C87259   2.859  10.972   4.702 -0.2448  0.7673 -0.3757
  647MOL0     N87260   2.325  10.661   4.335  0.0390 -0.2721 -0.2807
  647MOL0     N87261   2.296  10.540   4.333 -0.1558 -0.2938 -0.2456
  647MOL0     C87262   2.154   9.425   5.144 -0.6715 -0.6258  0.5634
  647MOL0     C87263   2.151   9.328   5.235  0.9129 -0.0977 -0.6732
  647MOL0     C87264   2.065   9.097   5.648  0.0732 -0.8083 -0.3809
  647MOL0     C87265   2.077   9.113   5.792 -0.6550  0.4903  0.3457
  647MOL0     C87266   2.099   9.003   5.881 -0.6411 -0.7833 -0.3916
  647MOL0     C87267   2.096   8.882   5.829 -0.1811  0.6806 -0.5510
  647MOL0     O87268   2.106   8.781   5.922  0.4648 -0.3169 -0.7680
  647MOL0     C87269   2.107   8.643   5.884 -0.3115  0.4417 -0.6186
  647MOL0     C87270   2.088   8.562   6.015 -0.0492  0.2514 -0.8316
  647MOL0     C87271   2.201   8.586   6.120  0.3417  1.5099  0.2033
  647MOL0     C87272   2.324   8.500   6.126  0.2546 -0.4775  0.7680
  647MOL0     C87273   2.412   8.539   6.014  0.0027  0.8799 -0.2274
  647MOL0     C87274   2.515   8.584   5.958 -0.0803 -0.0796  0.5634
  647MOL0     C87275   2.055   8.862   5.694 -0.2811  1.2385  0.9806
  647MOL0     C87276   2.043   8.972   5.600  0.1612  0.3114  0.4779
  647MOL0     C87277   2.008   8.928   5.465  0.0631 -0.1701 -0.8381
  647MOL0     H87278   1.912   9.440   5.441  1.1036  0.9607  0.3236
  647MOL0     H87279   1.918   9.620   5.285  0.1094 -1.2025 -0.3668
  647MOL0     H87280   2.040   9.809   5.151 -0.0736 -0.4340  2.7234
  647MOL0     H87281   2.205   9.747   5.190  1.0743  1.9042 -0.0620
  647MOL0     H87282   2.176   9.770   4.900  2.8080 -1.1207 -2.1105
  647MOL0     H87283   2.306   9.820   5.013 -0.4890  1.4394  0.0287
  647MOL0     H87284   2.230  10.027   5.057  2.0406  2.4600 -2.3594
  647MOL0     H87285   2.071   9.990   4.988 -0.0395 -1.5894  0.1953
  647MOL0     H87286   2.325   9.975   4.822 -1.8027 -3.7437 -1.3756
  647MOL0     H87287   2.163   9.966   4.758 -1.1522  0.1400  0.7547
  647MOL0     H87288   2.110  10.201   4.838  1.8649  4.6960  2.3338
  647MOL0     H87289   2.272  10.225   4.880 -0.1464 -0.8698 -0.3930
  647MOL0     H87290   2.358  10.161   4.660 -0.3365 -1.3490  0.8303
  647MOL0     H87291   2.197  10.154   4.599  0.6104 -1.1997  0.2437
  647MOL0     H87292   2.322  10.413   4.665  2.0368 -2.4593 -0.4675
  647MOL0     H87293   2.152  10.395   4.707 -0.8728 -4.2606  1.0693
  647MOL0     H87294   2.289  10.323   4.440  0.9117  0.2417  2.4727
  647MOL0     H87295   2.109  10.333   4.466 -2.1346  1.4152  1.3228
  647MOL0     H87296   2.140  10.635   4.604  1.0061  0.2631  0.2844
  647MOL0     H87297   2.237  10.921   4.369  0.1666  0.1881 -0.0550
  647MOL0     H87298   2.147  10.886   4.512  1.0683  1.9132  1.9167
  647MOL0     H87299   2.299  11.016   4.594 -1.5859 -0.3825 -2.9845
  647MOL0     H87300   2.361  10.845   4.635  2.4784 -1.4904 -1.6019
  647MOL0     H87301   2.446  11.035   4.412 -3.3738 -0.5581  0.1384
  647MOL0     H87302   2.507  10.866   4.452 -1.6445 -0.2277  0.2456
  647MOL0     H87303   2.603  10.990   4.672 -0.6683 -1.0224 -0.1311
  647MOL0     H87304   2.560  11.134   4.592 -2.8890 -0.6911  1.4056
  647MOL0     H87305   2.926  10.984   4.365 -0.0106  0.3267 -0.5587
  647MOL0     H87306   3.145  10.868   4.443 -0.8577 -0.1333 -1.4206
  647MOL0     H87307   3.344  10.598   4.418  0.3722 -4.6491 -0.5830
  647MOL0     H87308   3.496  10.438   4.417 -0.4698 -2.2505  0.9587
  647MOL0     H87309   3.556  10.245   4.493  0.9401 -1.6757 -0.9985
  647MOL0     H87310   3.740  10.211   4.505 -0.2359 -2.2477  0.9835
  647MOL0     H87311   3.699  10.136   4.723 -2.0295 -0.7893  0.8257
  647MOL0     H87312   3.531  10.161   4.716  1.9100  0.2871  1.8774
  647MOL0     H87313   3.541  10.006   4.504  0.0073 -1.0871  1.2529
  647MOL0     H87314   3.718   9.996   4.547 -0.3397 -0.3340 -0.7277
  647MOL0     H87315   3.529   9.813   4.636  1.1533 -1.2079  2.2852
  647MOL0     H87316   3.503   9.939   4.752 -0.4305 -0.3260  0.1770
  647MOL0     H87317   3.747   9.912   4.826 -0.7291 -1.4553  2.1174
  647MOL0     H87318   3.767   9.785   4.712  2.0742  1.1040  0.7754
  647MOL0     H87319   3.611   9.792   4.972 -2.7016 -0.4756 -0.0906
  647MOL0     H87320   3.519   9.718   4.846 -0.8619  1.9854 -1.8244
  647MOL0     H87321   3.805   9.639   4.923  0.1213  0.5684 -1.1129
  647MOL0     H87322   3.711   9.560   4.801 -1.2520  2.1877 -0.5829
  647MOL0     H87323   3.712   9.523   5.093  2.9527 -0.7584 -1.4363
  647MOL0     H87324   3.546   9.558   5.040 -0.2848  0.9099 -0.3297
  647MOL0     H87325   3.611  10.541   4.821 -2.0625 -0.7744  1.4351
  647MOL0     H87326   3.458  10.730   4.807 -2.8762  0.4286 -0.0820
  647MOL0     H87327   2.985  10.865   4.845 -0.4475 -2.1439 -0.4682
  647MOL0     H87328   2.775  10.992   4.767  0.2112 -1.3064  0.9488
  647MOL0     H87329   2.219   9.413   5.057  0.5759 -0.4957  1.4506
  647MOL0     H87330   2.205   9.239   5.203 -0.8193 -1.1588 -0.7875
  647MOL0     H87331   2.095   9.210   5.835  0.7263  0.5825 -0.3739
  647MOL0     H87332   2.123   9.014   5.987  1.0075 -0.0137 -0.8196
  647MOL0     H87333   2.206   8.611   5.851  1.4983  0.0788  4.3218
  647MOL0     H87334   2.036   8.622   5.804 -0.6077  2.8651 -1.0897
  647MOL0     H87335   2.090   8.456   5.986 -0.9966 -0.6318  1.9996
  647MOL0     H87336   1.987   8.578   6.053 -0.7457  0.1125 -2.5332
  647MOL0     H87337   2.151   8.571   6.216  1.3855 -0.1454  0.5282
  647MOL0     H87338   2.233   8.690   6.106  1.1771  1.7610  3.2844
  647MOL0     H87339   2.376   8.516   6.222  2.4166  0.8055 -0.5141
  647MOL0     H87340   2.295   8.396   6.112 -1.2574  0.1918 -1.7263
  647MOL0     H87341   2.604   8.621   5.912  0.6144 -4.5299 -2.2189
  647MOL0     H87342   2.035   8.765   5.650  0.0476  1.7361 -0.2887
  647MOL0     H87343   1.964   9.005   5.403  1.2794  0.1799 -1.2938
  647MOL0     H87344   2.093   8.893   5.405 -0.4697 -0.0996 -1.6497
  647MOL0     H87345   1.938   8.844   5.471  3.2010 -2.9025  2.1038
  648MOL0     O87346   6.455   7.772   8.826  0.3584  0.3298 -0.5688
  648MOL0     C87347   6.544   7.737   8.750 -0.5235 -0.4815  0.1421
  648MOL0     O87348   6.564   7.785   8.624  0.3832  0.5864  0.1130
  648MOL0     C87349   6.475   7.858   8.559  0.6783  0.3348 -0.9065
  648MOL0     C87350   6.410   7.973   8.614 -0.8275 -0.4922  0.2280
  648MOL0     C87351   6.298   8.034   8.554 -0.2983 -0.3795  0.2774
  648MOL0     C87352   6.266   7.993   8.427  0.1263 -0.9790 -0.5611
  648MOL0     O87353   6.164   8.030   8.352 -0.2263 -0.5770 -0.2783
  648MOL0     C87354   6.050   8.087   8.414 -0.7102 -0.0739  0.2205
  648MOL0     C87355   5.950   8.113   8.291 -0.4141 -0.5995 -0.3567
  648MOL0     C87356   5.802   8.108   8.328 -0.4013 -0.6293 -0.5387
  648MOL0     C87357   5.714   8.128   8.212 -0.4517 -0.6955  0.3638
  648MOL0     C87358   5.574   8.159   8.264  0.3346 -0.0448 -0.1032
  648MOL0     C87359   5.462   8.150   8.167  0.5298  0.1151 -0.0458
  648MOL0     C87360   5.453   8.270   8.077  0.2918  0.9053 -0.4567
  648MOL0     C87361   5.363   8.239   7.956 -0.2650  0.2462  0.0691
  648MOL0     N87362   5.419   8.144   7.858 -0.0243  0.3776 -0.5405
  648MOL0     C87363   5.355   8.107   7.737 -0.2766 -0.3737 -0.5523
  648MOL0     C87364   5.436   8.010   7.694  0.6823  0.2192  0.4889
  648MOL0     C87365   5.384   7.911   7.588 -0.0486  0.5023 -0.3197
  648MOL0     C87366   5.490   7.868   7.482 -0.2292  0.0235 -0.3040
  648MOL0     C87367   5.584   7.754   7.510  0.1649 -0.7713 -0.3409
  648MOL0     C87368   5.675   7.703   7.398  0.7262  0.2882  0.3020
  648MOL0     O87369   5.746   7.803   7.320  0.0527 -0.1339  0.5559
  648MOL0     C87370   5.870   7.844   7.367  0.5666 -0.0025  0.6639
  648MOL0     C87371   5.928   7.823   7.490 -0.3610  1.3389  0.6770
  648MOL0     C87372   6.042   7.893   7.534 -0.1195  0.0391 -0.2288
  648MOL0     C87373   6.097   7.990   7.458 -0.0812 -0.5477  0.2290
  648MOL0     C87374   6.239   8.035   7.495  0.2351  0.8282 -0.3489
  648MOL0     O87375   6.312   8.081   7.386 -0.7392  0.2594 -0.9351
  648MOL0     C87376   6.439   8.131   7.391 -0.3555  0.4463 -1.0555
  648MOL0     C87377   6.495   8.182   7.276  0.2469  0.2197  1.3466
  648MOL0     C87378   6.630   8.223   7.276  0.2275 -0.4112  0.1116
  648MOL0     C87379   6.703   8.238   7.395  0.6500  0.1444 -0.3901
  648MOL0     O87380   6.830   8.296   7.406  0.3446  0.6798  0.1271
  648MOL0     C87381   6.882   8.355   7.285 -0.5637 -0.3115  0.3636
  648MOL0     C87382   7.034   8.395   7.312 -0.0034  0.2828  0.3613
  648MOL0     C87383   7.051   8.504   7.427  0.5818  0.6573  0.2102
  648MOL0     C87384   7.201   8.490   7.463 -0.1879  0.9689  0.1838
  648MOL0     C87385   7.246   8.602   7.563 -0.0856  1.1744 -0.3549
  648MOL0     C87386   7.361   8.560   7.652  0.0322 -0.7643 -0.0877
  648MOL0     C87387   7.411   8.654   7.764 -0.2990  0.1382 -0.4058
  648MOL0     C87388   7.314   8.663   7.883 -0.3935 -0.5368 -0.0879
  648MOL0    Cl87389   7.324   8.501   7.971  0.4153 -0.0717  0.2652
  648MOL0     C87390   6.656   8.178   7.518  0.6081  0.6247 -0.6383
  648MOL0     C87391   6.525   8.131   7.510  0.2221 -0.8524 -0.9443
  648MOL0     O87392   6.278   8.025   7.612 -0.3323  0.0069  0.3990
  648MOL0     C87393   6.041   8.017   7.332 -0.3791  1.0936  0.2362
  648MOL0     C87394   5.927   7.944   7.289 -0.0597 -0.0909 -0.2389
  648MOL0     N87395   5.544   7.992   7.766 -0.3619  0.8435 -0.2356
  648MOL0     N87396   5.538   8.062   7.871  0.1864 -0.8107  0.2327
  648MOL0     C87397   6.346   7.899   8.361  0.4708 -0.3614 -0.6618
  648MOL0     C87398   6.446   7.829   8.428 -0.2784  0.7018 -0.6577
  648MOL0     C87399   6.658   7.671   8.823  0.5409  0.7554  0.9767
  648MOL0     C87400   6.749   7.614   8.736  0.2534 -0.4715  0.2539
  648MOL0     C87401   6.866   7.561   8.791 -0.2903 -0.3568  0.4474
  648MOL0     C87402   6.895   7.567   8.926 -0.2305 -0.0593  0.3525
  648MOL0     O87403   7.011   7.529   8.990  0.0191 -0.3241 -0.2638
  648MOL0     C87404   7.118   7.444   8.927  0.6110  0.3229 -0.7421
  648MOL0     C87405   7.249   7.482   9.003  0.8981 -0.0239 -0.1417
  648MOL0     C87406   7.218   7.474   9.158 -1.0923  0.7158 -0.1082
  648MOL0     C87407   7.350   7.463   9.235 -0.4246  0.5535 -0.1880
  648MOL0     C87408   7.316   7.436   9.373 -0.9273  0.1483 -0.1208
  648MOL0     C87409   7.299   7.407   9.487 -0.9368  0.0879  0.4628
  648MOL0     C87410   6.798   7.619   9.006 -0.2095  0.5542 -0.7863
  648MOL0     C87411   6.683   7.665   8.965  0.1805 -0.2435  0.1133
  648MOL0     C87412   6.578   7.686   9.067 -0.8588 -0.0080 -0.5884
  648MOL0     H87413   6.443   7.995   8.715  1.2624 -0.1777 -0.4749
  648MOL0     H87414   6.230   8.100   8.608 -1.4161 -0.7747 -0.6109
  648MOL0     H87415   6.017   8.009   8.483  0.7271 -1.2551 -0.3723
  648MOL0     H87416   6.073   8.175   8.474 -0.3798 -0.7193  1.0647
  648MOL0     H87417   5.963   8.036   8.214 -1.3145 -0.6081 -0.5198
  648MOL0     H87418   5.982   8.206   8.243 -2.4027  2.1100  3.1314
  648MOL0     H87419   5.785   8.191   8.398  1.4877 -1.0959  0.5358
  648MOL0     H87420   5.779   8.013   8.377  0.3019 -0.4595  0.1539
  648MOL0     H87421   5.740   8.221   8.160 -2.4616 -0.6207 -0.6129
  648MOL0     H87422   5.708   8.038   8.152 -0.0467 -0.1096 -0.5826
  648MOL0     H87423   5.549   8.091   8.346 -4.3508  0.6164 -0.6994
  648MOL0     H87424   5.585   8.254   8.317  0.3262  0.2176 -0.5678
  648MOL0     H87425   5.468   8.054   8.115 -0.1335  1.6673 -3.2351
  648MOL0     H87426   5.379   8.157   8.238  0.5471  3.3776 -0.1753
  648MOL0     H87427   5.558   8.296   8.059  1.1396 -0.0794  2.5577
  648MOL0     H87428   5.411   8.337   8.152  0.2245 -0.8190  1.1034
  648MOL0     H87429   5.261   8.212   7.985 -0.7184  2.7431  1.1112
  648MOL0     H87430   5.351   8.335   7.904 -0.5721  0.0044 -0.3100
  648MOL0     H87431   5.259   8.135   7.696  0.1920  2.6413  0.1864
  648MOL0     H87432   5.350   7.818   7.633  2.0506 -0.9127 -1.4540
  648MOL0     H87433   5.312   7.965   7.526 -0.3306 -0.7876 -1.1553
  648MOL0     H87434   5.434   7.839   7.392 -1.3224 -2.2820  1.0357
  648MOL0     H87435   5.557   7.952   7.463 -0.7095 -0.1221 -3.0323
  648MOL0     H87436   5.535   7.673   7.564  0.2225 -0.1566  0.6741
  648MOL0     H87437   5.655   7.800   7.580  2.9078 -4.0282 -0.7181
  648MOL0     H87438   5.596   7.661   7.335  1.0461 -1.2833  0.9000
  648MOL0     H87439   5.738   7.621   7.433 -0.0806  1.0020  3.8534
  648MOL0     H87440   5.872   7.764   7.561  2.0073 -2.9521 -0.6943
  648MOL0     H87441   6.070   7.868   7.636 -0.9483  0.2650  0.0632
  648MOL0     H87442   6.433   8.186   7.188 -0.8624 -0.3849  2.0786
  648MOL0     H87443   6.664   8.264   7.181  2.1290 -1.4638  0.2679
  648MOL0     H87444   6.890   8.291   7.197 -1.2461  1.4726 -1.0319
  648MOL0     H87445   6.824   8.442   7.254  1.1823  0.8141  0.1112
  648MOL0     H87446   7.066   8.299   7.353 -5.4425 -0.3626  4.0691
  648MOL0     H87447   7.091   8.422   7.222  0.8132 -0.0688  0.7619
  648MOL0     H87448   7.017   8.605   7.401 -3.0362  0.4213  3.2114
  648MOL0     H87449   6.988   8.472   7.511 -2.1717  0.6086 -1.7293
  648MOL0     H87450   7.269   8.497   7.377 -0.1419  2.4054  0.3242
  648MOL0     H87451   7.216   8.395   7.515 -0.1129  0.6190 -0.4543
  648MOL0     H87452   7.164   8.605   7.636 -1.4421 -2.9509 -1.4309
  648MOL0     H87453   7.258   8.700   7.515 -0.8638  3.0784  2.9969
  648MOL0     H87454   7.322   8.471   7.703  0.1895 -1.6404 -1.4220
  648MOL0     H87455   7.445   8.517   7.596  0.0817 -1.0427  0.1987
  648MOL0     H87456   7.416   8.753   7.718  3.1395 -0.0124 -0.5836
  648MOL0     H87457   7.508   8.622   7.802  0.6848  4.0685  0.7823
  648MOL0     H87458   7.328   8.747   7.953 -2.4811  2.0045 -2.5039
  648MOL0     H87459   7.212   8.689   7.854 -0.5230 -0.8513  0.0863
  648MOL0     H87460   6.711   8.176   7.611  1.0908 -1.1363 -0.9148
  648MOL0     H87461   6.489   8.096   7.606 -1.4740  3.2129  0.1236
  648MOL0     H87462   6.096   8.071   7.256 -0.4863 -0.8927 -1.3553
  648MOL0     H87463   5.870   7.973   7.201 -0.9436  0.2387  0.4240
  648MOL0     H87464   6.312   7.869   8.262 -1.7464 -0.2957  0.0289
  648MOL0     H87465   6.484   7.741   8.377 -0.6104 -2.0304  3.2978
  648MOL0     H87466   6.742   7.609   8.628 -0.2806 -1.6325  0.3275
  648MOL0     H87467   6.941   7.525   8.721  1.0280  0.0894  1.5862
  648MOL0     H87468   7.137   7.473   8.823  2.7496 -0.7909 -0.7271
  648MOL0     H87469   7.094   7.338   8.937  0.9070  0.3982  1.1564
  648MOL0     H87470   7.278   7.582   8.971 -0.3603  0.9245  1.5026
  648MOL0     H87471   7.323   7.405   8.980  0.4088 -0.2489 -0.9639
  648MOL0     H87472   7.156   7.385   9.166 -2.1880  1.2660 -1.9337
  648MOL0     H87473   7.172   7.564   9.201  0.4203  1.2321  0.5082
  648MOL0     H87474   7.413   7.384   9.194  0.0647 -0.8507  2.9490
  648MOL0     H87475   7.413   7.553   9.232  1.0099 -0.4285 -0.1217
  648MOL0     H87476   7.305   7.372   9.588 -0.9883  0.9939  0.7857
  648MOL0     H87477   6.825   7.602   9.110  1.9045 -0.3459 -1.4384
  648MOL0     H87478   6.566   7.791   9.094  0.0411 -0.3930  1.5424
  648MOL0     H87479   6.489   7.634   9.030  0.2834 -0.5882 -2.7425
  648MOL0     H87480   6.615   7.643   9.161  0.9895  1.0135 -0.7902
  649MOL0     O87481   8.220   1.681   0.493 -0.2591 -0.9414  0.2015
  649MOL0     C87482   8.135   1.735   0.423 -0.3613 -0.3613  0.3307
  649MOL0     O87483   8.152   1.854   0.360 -0.8981 -0.2854 -0.8370
  649MOL0     C87484   8.278   1.920   0.390  0.1586 -0.4111  0.3435
  649MOL0     C87485   8.277   2.023   0.480 -0.5274 -0.4995 -0.3635
  649MOL0     C87486   8.405   2.072   0.525  0.6544  0.1019  0.3141
  649MOL0     C87487   8.532   2.025   0.473  0.3842 -0.4559  0.3053
  649MOL0     O87488   8.646   2.090   0.507  0.3331 -0.8031 -0.1373
  649MOL0     C87489   8.762   2.023   0.545  0.0156 -0.0415  0.5180
  649MOL0     C87490   8.878   2.126   0.555 -0.0464 -0.9262  0.4045
  649MOL0     C87491   9.009   2.075   0.588  0.6203 -0.4439 -0.0827
  649MOL0     C87492   9.121   2.177   0.590 -0.2756  0.9866 -0.1645
  649MOL0     C87493   9.241   2.121   0.670 -0.4278 -0.3015  0.1905
  649MOL0     C87494   9.370   2.195   0.640 -0.2735 -0.3105  0.4322
  649MOL0     C87495   9.477   2.127   0.718 -0.4946 -0.1032 -0.1192
  649MOL0     C87496   9.616   2.195   0.682 -0.2834  0.3391 -0.1376
  649MOL0     N87497   9.649   2.311   0.751 -0.1619 -0.0944 -0.5463
  649MOL0     C87498   9.678   2.323   0.888  0.0001  0.5829  0.4415
  649MOL0     C87499   9.701   2.463   0.902  0.4478 -0.2683 -0.0195
  649MOL0     C87500   9.735   2.526   1.034 -0.3478  0.6233  1.0984
  649MOL0     C87501   9.654   2.468   1.147  0.3441  0.4564 -0.5735
  649MOL0     C87502   9.505   2.495   1.112 -0.6193 -0.2289  0.4889
  649MOL0     C87503   9.405   2.460   1.213  0.7378  0.4663 -0.7368
  649MOL0     O87504   9.435   2.333   1.277 -0.0909 -0.8373  0.0768
  649MOL0     C87505   9.365   2.227   1.241  0.0708  0.4366  0.4813
  649MOL0     C87506   9.264   2.215   1.140  0.4405  0.6278  0.5194
  649MOL0     C87507   9.175   2.104   1.132  1.3458 -0.0966  0.2376
  649MOL0     C87508   9.186   2.008   1.234 -0.1180 -0.9464  0.9011
  649MOL0     C87509   9.097   1.899   1.215 -0.4067 -0.6507 -0.6538
  649MOL0     O87510   9.078   1.870   1.084 -0.3335  0.2166 -1.4741
  649MOL0     C87511   9.027   1.750   1.066  0.9486  1.6074  0.8709
  649MOL0     C87512   8.892   1.720   1.044  0.1065 -0.6513 -0.1213
  649MOL0     C87513   8.836   1.597   1.020 -0.4151  0.2981 -0.0643
  649MOL0     C87514   8.917   1.480   1.019 -0.5042  0.5737  0.6588
  649MOL0     O87515   8.858   1.354   1.012 -1.0462  0.8761  0.9772
  649MOL0     C87516   8.930   1.246   0.939  0.0015  0.4545 -0.2718
  649MOL0     C87517   8.840   1.141   0.880  0.3342  0.8810 -0.4017
  649MOL0     C87518   8.760   1.194   0.770 -0.5030 -0.9695 -1.2564
  649MOL0     C87519   8.687   1.071   0.719  0.4553  0.1142 -0.2529
  649MOL0     C87520   8.562   1.103   0.630 -0.5606  0.1464  0.2912
  649MOL0     C87521   8.455   1.197   0.680 -0.2212  0.0950  0.7108
  649MOL0     C87522   8.373   1.155   0.806  0.2159 -0.3811 -0.7511
  649MOL0     C87523   8.279   1.039   0.788  0.0451 -0.1729  0.2857
  649MOL0    Cl87524   8.164   1.070   0.652  0.4364 -0.2366  0.4432
  649MOL0     C87525   9.057   1.510   1.023  0.7249  0.3443  0.2996
  649MOL0     C87526   9.104   1.634   1.045 -0.6948  0.4324 -0.1472
  649MOL0     O87527   9.068   1.836   1.316  0.1433  0.2252  0.2710
  649MOL0     C87528   9.289   2.016   1.329  1.1520 -0.1839  0.5874
  649MOL0     C87529   9.377   2.121   1.329  0.6854 -0.1190  0.1842
  649MOL0     N87530   9.703   2.526   0.778 -0.5129  0.2409  0.6906
  649MOL0     N87531   9.677   2.427   0.691 -0.2077 -0.2327 -0.1412
  649MOL0     C87532   8.527   1.923   0.372  0.8009  1.2118 -0.0705
  649MOL0     C87533   8.396   1.880   0.328 -0.1693  0.0631 -0.6071
  649MOL0     C87534   8.009   1.668   0.408 -0.1016 -0.1573  0.8211
  649MOL0     C87535   7.906   1.740   0.340  0.3750 -0.0816  0.8446
  649MOL0     C87536   7.776   1.701   0.331  0.0580  0.7566  1.3674
  649MOL0     C87537   7.742   1.580   0.401  0.1550  0.6565  0.7690
  649MOL0     O87538   7.615   1.544   0.414 -0.5310  0.9013  0.5604
  649MOL0     C87539   7.507   1.612   0.337 -1.0291  0.2087  0.0928
  649MOL0     C87540   7.382   1.530   0.351 -0.0926  0.5623  0.6456
  649MOL0     C87541   7.325   1.524   0.495 -0.0906  0.7972  1.1445
  649MOL0     C87542   7.381   1.409   0.578 -0.4736  0.5179 -0.6184
  649MOL0     C87543   7.303   1.288   0.556 -0.3104 -0.8883  0.6906
  649MOL0     C87544   7.239   1.188   0.555  0.5213  0.6564 -0.6500
  649MOL0     C87545   7.848   1.505   0.458  0.3815  0.5683 -0.7018
  649MOL0     C87546   7.980   1.544   0.465  0.6406  0.3245  1.1202
  649MOL0     C87547   8.067   1.449   0.534 -0.1172 -0.0567  0.4799
  649MOL0     H87548   8.205   2.067   0.548  0.0674  1.4399 -0.8921
  649MOL0     H87549   8.405   2.155   0.594 -0.2196  1.9492 -1.7960
  649MOL0     H87550   8.746   1.975   0.641 -0.6187 -0.3758  0.2495
  649MOL0     H87551   8.780   1.941   0.475 -1.2485 -0.2546  0.4180
  649MOL0     H87552   8.860   2.214   0.617 -0.1297  1.5987 -2.8888
  649MOL0     H87553   8.886   2.167   0.453  0.1105 -4.0291 -0.9466
  649MOL0     H87554   9.029   1.991   0.521  1.0263  1.9343 -3.1361
  649MOL0     H87555   8.990   2.039   0.690  0.7693 -0.0656  0.0792
  649MOL0     H87556   9.159   2.192   0.489 -1.0542 -0.7649 -0.7583
  649MOL0     H87557   9.084   2.270   0.635 -2.4277  0.3700 -0.5805
  649MOL0     H87558   9.230   2.122   0.779  1.4303  3.2068  0.4982
  649MOL0     H87559   9.262   2.022   0.630  1.8523  0.9315 -2.0049
  649MOL0     H87560   9.405   2.172   0.539  0.5879 -1.5501  0.9973
  649MOL0     H87561   9.349   2.297   0.674 -1.8136  0.4900 -2.5675
  649MOL0     H87562   9.476   2.020   0.696 -4.2598 -0.3119  0.4560
  649MOL0     H87563   9.452   2.143   0.824 -1.7779 -0.8447 -0.3056
  649MOL0     H87564   9.688   2.121   0.718  0.8703  0.2404 -2.5053
  649MOL0     H87565   9.640   2.195   0.576 -0.9965 -1.5451 -0.3319
  649MOL0     H87566   9.694   2.243   0.960 -0.2946 -0.8441 -1.0386
  649MOL0     H87567   9.838   2.504   1.063  0.6784  2.4549 -0.8875
  649MOL0     H87568   9.720   2.634   1.026 -0.2403  0.5045 -1.6666
  649MOL0     H87569   9.682   2.362   1.155  0.2654  0.4048 -0.9545
  649MOL0     H87570   9.681   2.517   1.241  0.1726  0.0491 -0.3076
  649MOL0     H87571   9.492   2.430   1.025 -0.1871  1.3276 -0.7798
  649MOL0     H87572   9.484   2.602   1.102 -2.4302 -0.6694 -0.8634
  649MOL0     H87573   9.304   2.451   1.174  0.3575 -0.5127  0.4145
  649MOL0     H87574   9.399   2.535   1.293 -1.8596  0.0388 -0.4383
  649MOL0     H87575   9.274   2.288   1.060  1.6300  0.0183  0.0848
  649MOL0     H87576   9.108   2.091   1.048 -0.6271 -2.3478  2.0200
  649MOL0     H87577   8.824   1.805   1.044  1.7397  0.9655  4.5424
  649MOL0     H87578   8.728   1.596   1.012 -0.2856 -0.9616 -3.3922
  649MOL0     H87579   8.978   1.285   0.849 -1.0753 -4.9078 -3.6450
  649MOL0     H87580   9.007   1.203   1.004 -1.2696 -0.4398  0.6996
  649MOL0     H87581   8.896   1.058   0.835 -1.7770 -0.1857 -1.1712
  649MOL0     H87582   8.782   1.084   0.953  1.6675 -0.0674 -0.0372
  649MOL0     H87583   8.690   1.274   0.795  2.5334  1.8101 -1.0581
  649MOL0     H87584   8.828   1.243   0.699 -0.0700 -0.5523 -0.5645
  649MOL0     H87585   8.641   1.008   0.796 -3.1038 -1.9267 -3.6611
  649MOL0     H87586   8.752   1.015   0.651 -0.1337 -0.2258 -0.5544
  649MOL0     H87587   8.506   1.016   0.594 -2.3041  2.1022 -1.9931
  649MOL0     H87588   8.606   1.138   0.536 -0.4408  3.3969  1.4419
  649MOL0     H87589   8.502   1.292   0.705  0.5674  0.0307 -0.4844
  649MOL0     H87590   8.387   1.222   0.599 -0.1507  0.8808  0.8869
  649MOL0     H87591   8.328   1.245   0.847  0.0420 -1.5112  1.7590
  649MOL0     H87592   8.438   1.140   0.893 -2.0111 -0.0544  1.0564
  649MOL0     H87593   8.337   0.947   0.778 -1.1337 -0.7053 -2.6868
  649MOL0     H87594   8.213   1.027   0.874  0.1757 -1.0712  0.2658
  649MOL0     H87595   9.131   1.435   0.998  1.7153  1.6497 -0.8364
  649MOL0     H87596   9.210   1.656   1.037 -1.1120  1.8797 -3.0150
  649MOL0     H87597   9.289   1.953   1.417 -0.7215  0.3022  0.9817
  649MOL0     H87598   9.445   2.136   1.412  1.9987  2.5117 -1.2337
  649MOL0     H87599   8.617   1.887   0.322 -1.7876 -4.3862 -1.4612
  649MOL0     H87600   8.392   1.806   0.249 -3.9171  3.0880 -3.6490
  649MOL0     H87601   7.930   1.833   0.288 -3.4122 -0.6518 -2.4022
  649MOL0     H87602   7.697   1.755   0.278  0.1222  0.1488  0.6438
  649MOL0     H87603   7.521   1.611   0.228  0.5522 -2.6475  0.2238
  649MOL0     H87604   7.476   1.706   0.383 -0.5756  1.1175 -1.3941
  649MOL0     H87605   7.412   1.430   0.316 -0.4205  0.6899  0.0026
  649MOL0     H87606   7.308   1.575   0.285  1.1105 -3.3444 -3.9301
  649MOL0     H87607   7.216   1.512   0.496 -0.0174 -0.9614 -1.5272
  649MOL0     H87608   7.356   1.612   0.553  0.5979  2.5506 -1.7001
  649MOL0     H87609   7.485   1.387   0.550 -0.5018  3.9251 -4.2009
  649MOL0     H87610   7.374   1.445   0.681 -1.6223  1.5610 -1.0416
  649MOL0     H87611   7.161   1.114   0.558 -2.6486  3.7243 -0.0717
  649MOL0     H87612   7.820   1.410   0.502 -2.3150  1.7073  0.2755
  649MOL0     H87613   8.154   1.441   0.469 -0.7217  1.1578 -0.5357
  649MOL0     H87614   8.087   1.484   0.636 -1.4735  2.6369 -0.0857
  649MOL0     H87615   8.011   1.355   0.534 -0.1708 -0.3209 -4.5279
  650MOL0     O87616   7.798   6.037   0.555 -0.5884 -0.9059 -0.2900
  650MOL0     C87617   7.704   6.087   0.500  1.7710  1.6658  0.0622
  650MOL0     O87618   7.631   6.193   0.533  0.3403 -0.9270  0.4390
  650MOL0     C87619   7.605   6.228   0.663 -0.3924  0.1429 -0.2034
  650MOL0     C87620   7.586   6.360   0.677  0.8145  0.1452  0.3245
  650MOL0     C87621   7.531   6.407   0.805 -0.4806 -0.2136 -0.1161
  650MOL0     C87622   7.524   6.324   0.913 -0.4524 -0.4129 -0.9213
  650MOL0     O87623   7.475   6.381   1.028  0.4523 -0.1030 -0.1176
  650MOL0     C87624   7.333   6.382   1.034 -0.4003 -0.7613  0.1732
  650MOL0     C87625   7.257   6.514   1.083  0.2155  0.4221 -0.8996
  650MOL0     C87626   7.104   6.531   1.071  0.2664  0.0339  0.0005
  650MOL0     C87627   7.042   6.413   1.162  0.4593 -0.5227 -0.0681
  650MOL0     C87628   6.894   6.444   1.198  0.3485  0.2109 -0.0510
  650MOL0     C87629   6.811   6.336   1.254  1.0198 -0.2659 -1.1341
  650MOL0     C87630   6.685   6.390   1.324 -0.5027  0.0663 -0.1007
  650MOL0     C87631   6.620   6.275   1.396  0.1460 -0.4047 -0.6202
  650MOL0     N87632   6.528   6.332   1.503  1.0483  0.3732 -0.1081
  650MOL0     C87633   6.426   6.410   1.468 -0.9519  1.3092  0.0866
  650MOL0     C87634   6.418   6.500   1.576 -0.2275 -0.1777 -0.1595
  650MOL0     C87635   6.319   6.612   1.578 -0.1969 -0.6865 -0.1555
  650MOL0     C87636   6.174   6.574   1.551 -0.1676 -0.3408  0.1256
  650MOL0     C87637   6.072   6.681   1.563 -0.6144 -0.1588 -0.7969
  650MOL0     C87638   5.934   6.644   1.529 -0.4391 -1.1013  0.1458
  650MOL0     O87639   5.854   6.757   1.523  0.4167 -0.6042 -0.3550
  650MOL0     C87640   5.795   6.803   1.638 -0.7789  0.3612  0.8400
  650MOL0     C87641   5.718   6.911   1.619 -0.7071 -0.0651  0.0158
  650MOL0     C87642   5.649   6.980   1.720  0.4992 -0.0901 -0.1545
  650MOL0     C87643   5.668   6.939   1.851  0.2707  1.1149  0.5227
  650MOL0     C87644   5.598   7.004   1.969  0.1141 -0.0720  0.3333
  650MOL0     O87645   5.637   6.974   2.098  1.0140  0.4747 -0.1383
  650MOL0     C87646   5.588   7.048   2.203 -0.7027  0.3663 -0.6078
  650MOL0     C87647   5.453   7.072   2.233  0.4935  0.6572 -0.2411
  650MOL0     C87648   5.404   7.142   2.341  0.8430 -0.1715 -1.4777
  650MOL0     C87649   5.506   7.190   2.434  0.9053  0.2024  0.2138
  650MOL0     O87650   5.473   7.251   2.548  0.2385  0.8000 -0.6181
  650MOL0     C87651   5.346   7.215   2.603 -0.1931  0.0967  0.5142
  650MOL0     C87652   5.330   7.253   2.745  0.4255 -0.1244 -0.1459
  650MOL0     C87653   5.188   7.274   2.805 -0.8417  1.1663  0.4315
  650MOL0     C87654   5.103   7.150   2.785  0.4944  0.0040  0.1061
  650MOL0     C87655   4.961   7.170   2.838  0.6886  0.0678 -0.3413
  650MOL0     C87656   4.892   7.040   2.817  0.2022  0.3617 -0.2880
  650MOL0     C87657   4.742   7.051   2.797  0.7998  0.8866 -0.3858
  650MOL0     C87658   4.675   6.919   2.766  0.4177 -0.3129  0.2347
  650MOL0    Cl87659   4.723   6.847   2.617  0.0416  0.1001 -0.6212
  650MOL0     C87660   5.644   7.160   2.414  1.1427 -0.0526  0.4116
  650MOL0     C87661   5.678   7.096   2.300 -0.9639 -0.3500  0.2767
  650MOL0     O87662   5.518   7.091   1.935  0.7919 -0.1351  0.0072
  650MOL0     C87663   5.756   6.817   1.880  0.5471 -0.5218 -0.3454
  650MOL0     C87664   5.819   6.760   1.771  0.0932  0.6163  0.4449
  650MOL0     N87665   6.520   6.468   1.662  0.6863  0.1433  0.3116
  650MOL0     N87666   6.587   6.370   1.620 -0.7711  0.0957  0.0818
  650MOL0     C87667   7.552   6.187   0.900 -0.9960 -0.8776 -0.7285
  650MOL0     C87668   7.589   6.139   0.774 -0.0190 -0.2434 -0.5692
  650MOL0     C87669   7.675   6.036   0.362  0.1455 -0.2256 -0.0998
  650MOL0     C87670   7.704   5.901   0.323 -0.1517 -1.0341  0.4203
  650MOL0     C87671   7.669   5.846   0.198  0.2963 -0.4892  0.3776
  650MOL0     C87672   7.615   5.930   0.093 -0.6781  0.1397 -0.4567
  650MOL0     O87673   7.586   5.881  -0.033 -0.2479 -0.8562 -0.8782
  650MOL0     C87674   7.643   5.957  -0.137  0.3479 -0.7205  0.8314
  650MOL0     C87675   7.602   5.885  -0.267 -0.2679 -0.3824 -0.4730
  650MOL0     C87676   7.696   5.760  -0.269 -0.0225  0.0303  0.3428
  650MOL0     C87677   7.646   5.641  -0.358  0.1797 -1.5103 -0.6483
  650MOL0     C87678   7.647   5.690  -0.495 -0.0144 -0.0635  0.5511
  650MOL0     C87679   7.658   5.716  -0.619 -0.8660  0.3082 -0.0742
  650MOL0     C87680   7.599   6.065   0.124  0.0816 -0.3937 -0.0286
  650MOL0     C87681   7.620   6.114   0.256 -0.2464  0.6393 -0.7350
  650MOL0     C87682   7.601   6.262   0.262 -0.5407 -0.3378 -0.5696
  650MOL0     H87683   7.610   6.429   0.597 -2.1684 -1.7694 -2.5100
  650MOL0     H87684   7.507   6.513   0.804 -1.2698 -0.3520 -2.4320
  650MOL0     H87685   7.292   6.357   0.936  0.4307  0.9123 -0.6442
  650MOL0     H87686   7.332   6.303   1.110  2.0128  1.2840  2.5338
  650MOL0     H87687   7.301   6.590   1.018  0.1203  1.7327  0.5265
  650MOL0     H87688   7.298   6.527   1.183  0.3953  0.7275 -1.0101
  650MOL0     H87689   7.068   6.506   0.971  0.5156  0.5986 -0.2354
  650MOL0     H87690   7.073   6.633   1.097  0.3201 -0.2865  1.3487
  650MOL0     H87691   7.050   6.318   1.108 -0.2042  0.8935 -2.8588
  650MOL0     H87692   7.098   6.404   1.256 -1.4310  0.4031  1.2044
  650MOL0     H87693   6.897   6.521   1.276 -0.6119 -1.3527  1.6229
  650MOL0     H87694   6.850   6.484   1.107  0.1836  0.8877  0.3210
  650MOL0     H87695   6.776   6.275   1.170 -2.7953 -1.2198  0.8924
  650MOL0     H87696   6.870   6.277   1.324 -0.6359 -1.0773 -0.3496
  650MOL0     H87697   6.606   6.420   1.255 -1.5798  1.6937  1.7369
  650MOL0     H87698   6.712   6.470   1.393 -0.9120 -0.4076  0.6138
  650MOL0     H87699   6.568   6.218   1.318 -1.9490 -0.2198  0.5742
  650MOL0     H87700   6.689   6.204   1.443 -1.3615 -0.0987  2.3275
  650MOL0     H87701   6.360   6.405   1.383  0.2391 -0.3231 -0.8141
  650MOL0     H87702   6.321   6.659   1.678 -1.8119 -0.2574 -0.2874
  650MOL0     H87703   6.362   6.687   1.512  2.7492 -0.6295  1.6455
  650MOL0     H87704   6.169   6.545   1.446 -0.2779  2.8285 -0.8553
  650MOL0     H87705   6.156   6.481   1.606 -0.7259  0.1785  0.8360
  650MOL0     H87706   6.102   6.764   1.498  0.2847  0.6236  0.5707
  650MOL0     H87707   6.078   6.719   1.665 -0.1526 -3.2358  0.4403
  650MOL0     H87708   5.899   6.569   1.601 -1.7190 -2.5456 -1.8591
  650MOL0     H87709   5.942   6.608   1.425  2.4265  1.6074 -0.7003
  650MOL0     H87710   5.708   6.949   1.518  1.3651  3.5481  0.9788
  650MOL0     H87711   5.590   7.063   1.681 -1.2781 -2.2149 -2.3194
  650MOL0     H87712   5.384   7.027   2.162 -0.4742 -0.2810  1.2384
  650MOL0     H87713   5.296   7.149   2.351  0.7290 -3.0600  0.6764
  650MOL0     H87714   5.264   7.266   2.552 -0.9578 -0.7293  0.8787
  650MOL0     H87715   5.325   7.108   2.605 -1.9616  0.2667  5.1878
  650MOL0     H87716   5.379   7.171   2.799  0.7423  0.9949  1.3219
  650MOL0     H87717   5.385   7.346   2.761  0.3780  0.0320 -0.8798
  650MOL0     H87718   5.189   7.296   2.913 -0.6902  0.8517  0.4949
  650MOL0     H87719   5.135   7.362   2.767  0.6388  2.0429  0.3512
  650MOL0     H87720   5.153   7.072   2.841  1.1536  0.5063  0.2197
  650MOL0     H87721   5.111   7.131   2.677  0.2509  0.7772 -0.0594
  650MOL0     H87722   4.907   7.249   2.786  1.1753 -0.0504 -1.0438
  650MOL0     H87723   4.972   7.195   2.944  0.0681 -2.1439  0.3012
  650MOL0     H87724   4.925   6.989   2.726 -0.9706  0.2556 -0.6704
  650MOL0     H87725   4.913   6.966   2.895  0.0782  3.4148  2.8553
  650MOL0     H87726   4.730   7.122   2.715 -4.2341  1.8355  0.8462
  650MOL0     H87727   4.698   7.095   2.887 -2.4084 -3.0930  0.3100
  650MOL0     H87728   4.699   6.848   2.845 -0.2297 -0.2733  0.4711
  650MOL0     H87729   4.566   6.921   2.756  0.4498 -1.2063 -0.5152
  650MOL0     H87730   5.716   7.197   2.486  2.1618  3.2905 -2.0438
  650MOL0     H87731   5.782   7.077   2.278 -1.4761  0.4100 -3.2872
  650MOL0     H87732   5.756   6.792   1.986 -0.5645  1.2195  0.1037
  650MOL0     H87733   5.890   6.680   1.789  0.9085  1.0810 -0.5851
  650MOL0     H87734   7.562   6.122   0.987 -0.8790  0.5013  0.3212
  650MOL0     H87735   7.609   6.032   0.774  0.5103 -0.2124  2.1713
  650MOL0     H87736   7.754   5.830   0.387 -0.6201 -0.4889  1.4178
  650MOL0     H87737   7.698   5.744   0.177  6.2033  0.4519  2.0638
  650MOL0     H87738   7.751   5.969  -0.130  0.2970  0.5697 -0.0478
  650MOL0     H87739   7.598   6.057  -0.140  0.8469 -0.4982 -1.4727
  650MOL0     H87740   7.611   5.935  -0.364 -0.8126  0.8687  0.1083
  650MOL0     H87741   7.496   5.855  -0.261 -0.9633  2.1264  3.0067
  650MOL0     H87742   7.703   5.721  -0.167 -0.0572  0.3425  0.4631
  650MOL0     H87743   7.796   5.788  -0.301  0.8494 -2.0334  1.0711
  650MOL0     H87744   7.707   5.550  -0.350 -0.2538 -1.7018  0.7390
  650MOL0     H87745   7.552   5.616  -0.307  1.4006  0.0606  2.6239
  650MOL0     H87746   7.687   5.753  -0.715  0.5633  1.1990  0.6682
  650MOL0     H87747   7.573   6.134   0.044 -0.0433  1.7057  1.7468
  650MOL0     H87748   7.645   6.324   0.341  0.4858 -0.8515 -0.7290
  650MOL0     H87749   7.641   6.306   0.170  0.6490  2.8781  1.3265
  650MOL0     H87750   7.494   6.288   0.268 -0.0773  1.3758  2.5184
  651MOL0     O87751   4.701   9.117   2.356  0.0729 -0.3503  0.4492
  651MOL0     C87752   4.658   9.091   2.466  0.6054 -1.0794  1.1078
  651MOL0     O87753   4.530   9.049   2.488  0.6646  0.2715  0.6689
  651MOL0     C87754   4.467   8.969   2.401  0.2328  0.1587  0.1684
  651MOL0     C87755   4.328   8.960   2.415 -1.3722 -0.7329 -0.4264
  651MOL0     C87756   4.254   8.883   2.321 -0.9006  0.5922  0.2221
  651MOL0     C87757   4.312   8.806   2.220  1.1870  0.0777 -0.2122
  651MOL0     O87758   4.243   8.733   2.124  0.2918  0.2193  0.3128
  651MOL0     C87759   4.107   8.714   2.139  0.0109 -0.0782 -0.0070
  651MOL0     C87760   4.074   8.618   2.256 -0.6932  0.1504  0.0737
  651MOL0     C87761   3.954   8.532   2.232  1.0618  0.1967 -0.0159
  651MOL0     C87762   3.885   8.472   2.356  0.6068 -0.2106  0.3435
  651MOL0     C87763   3.775   8.382   2.318  0.1124 -0.5574 -0.2678
  651MOL0     C87764   3.687   8.344   2.440  0.8309 -0.5386  0.3746
  651MOL0     C87765   3.578   8.245   2.404 -0.2827  0.2270 -0.4989
  651MOL0     C87766   3.617   8.112   2.340  0.2690 -0.4692 -0.1084
  651MOL0     N87767   3.708   8.032   2.437 -0.2602 -1.1632 -0.6596
  651MOL0     C87768   3.805   7.949   2.407 -0.0859  0.5547  0.0379
  651MOL0     C87769   3.822   7.878   2.521 -0.4126 -0.1652  0.4571
  651MOL0     C87770   3.918   7.764   2.538  0.1868  0.4524  0.0307
  651MOL0     C87771   3.975   7.749   2.687  0.2858 -0.4450  0.7719
  651MOL0     C87772   4.072   7.864   2.716 -0.2183  0.0915  0.2654
  651MOL0     C87773   4.015   8.008   2.724 -0.7625 -0.2398  0.4717
  651MOL0     O87774   4.112   8.099   2.769 -0.1891  0.3286  0.0461
  651MOL0     C87775   4.087   8.238   2.781 -0.3491  0.3941  0.1653
  651MOL0     C87776   4.165   8.317   2.865  0.5218  0.4765  0.4180
  651MOL0     C87777   4.123   8.449   2.897 -0.1311  0.5095  0.0209
  651MOL0     C87778   4.017   8.512   2.828 -0.5717  1.1063 -0.2959
  651MOL0     C87779   3.968   8.645   2.868  0.3345  0.4385 -0.5955
  651MOL0     O87780   3.981   8.686   2.994  0.8301 -0.0964 -0.4420
  651MOL0     C87781   3.959   8.810   3.040 -0.2457 -0.5839 -0.0320
  651MOL0     C87782   3.969   8.820   3.185  0.3021  0.8378  0.2665
  651MOL0     C87783   3.949   8.933   3.263  0.7755  0.3536 -0.1503
  651MOL0     C87784   3.913   9.045   3.185  0.2776 -0.7676  0.4838
  651MOL0     O87785   3.883   9.165   3.244  0.3210  0.1795 -0.2809
  651MOL0     C87786   3.746   9.198   3.242  0.3557 -1.1309  0.2617
  651MOL0     C87787   3.724   9.315   3.328  0.1460  0.0082  0.5293
  651MOL0     C87788   3.580   9.359   3.326 -0.4610  0.3300 -0.1805
  651MOL0     C87789   3.563   9.490   3.401 -0.2962  0.6711 -1.7191
  651MOL0     C87790   3.419   9.537   3.396  0.3574 -0.2330 -0.1413
  651MOL0     C87791   3.388   9.660   3.476  0.2853 -0.5567 -0.6244
  651MOL0     C87792   3.235   9.670   3.473 -0.1175  0.1279  0.3902
  651MOL0     C87793   3.197   9.809   3.527  0.0218  0.5027  0.7294
  651MOL0    Cl87794   3.025   9.857   3.539 -0.4303 -0.0271  0.0715
  651MOL0     C87795   3.891   9.043   3.050  0.8470  0.1404  0.5231
  651MOL0     C87796   3.926   8.930   2.973  0.2384 -0.4408 -0.8508
  651MOL0     O87797   3.913   8.708   2.780  0.4022  0.2611  0.2988
  651MOL0     C87798   3.960   8.434   2.720  0.5717  0.5465  0.1225
  651MOL0     C87799   3.987   8.293   2.708 -0.2546  0.0017  0.5034
  651MOL0     N87800   3.734   7.907   2.622 -0.2976  0.7509  0.2091
  651MOL0     N87801   3.661   8.002   2.567  1.3231  0.0080  0.6844
  651MOL0     C87802   4.452   8.808   2.206 -0.4208  0.3418  0.3891
  651MOL0     C87803   4.525   8.885   2.298  0.0135  0.3271  0.4227
  651MOL0     C87804   4.720   9.155   2.580 -0.4140 -0.2502  0.5340
  651MOL0     C87805   4.675   9.116   2.714 -0.0471  0.4117  0.3983
  651MOL0     C87806   4.741   9.158   2.825 -0.0693 -0.8854 -0.7520
  651MOL0     C87807   4.834   9.256   2.825 -0.9053 -0.6828  0.9296
  651MOL0     O87808   4.888   9.279   2.951  0.9587 -0.2195  0.7443
  651MOL0     C87809   5.032   9.307   2.964  0.6552  0.1058 -0.0096
  651MOL0     C87810   5.057   9.451   3.001  0.8657  0.2286  0.1973
  651MOL0     C87811   5.204   9.491   2.996 -1.6612  0.7255  0.0590
  651MOL0     C87812   5.267   9.515   2.862  0.1787 -0.3915 -0.1380
  651MOL0     C87813   5.248   9.417   2.751 -0.6399 -0.0862 -0.7532
  651MOL0     C87814   5.254   9.321   2.675  0.9227 -0.4871  0.4973
  651MOL0     C87815   4.889   9.294   2.693  0.8107 -1.0291 -0.8079
  651MOL0     C87816   4.829   9.251   2.575  0.7313 -0.3850  0.3167
  651MOL0     C87817   4.873   9.324   2.449 -0.1899 -0.1512  0.4760
  651MOL0     H87818   4.282   9.011   2.499  0.3325  0.0680  0.0737
  651MOL0     H87819   4.146   8.890   2.330 -1.1145  0.7461 -2.0267
  651MOL0     H87820   4.043   8.797   2.168 -1.2660 -0.7950 -0.6525
  651MOL0     H87821   4.070   8.680   2.041  0.1324  0.1500 -0.1325
  651MOL0     H87822   4.072   8.681   2.345 -4.6076  1.9225 -1.0874
  651MOL0     H87823   4.149   8.538   2.256 -2.4594 -1.6215 -1.2432
  651MOL0     H87824   3.968   8.449   2.162 -1.4465 -0.8007  0.5500
  651MOL0     H87825   3.879   8.596   2.184  0.3829 -0.5168  0.0664
  651MOL0     H87826   3.957   8.412   2.413 -0.1252 -0.5311  0.9521
  651MOL0     H87827   3.835   8.547   2.418 -2.3665  0.2013 -2.3429
  651MOL0     H87828   3.710   8.433   2.247 -1.9758 -3.6352 -0.7027
  651MOL0     H87829   3.826   8.295   2.276  1.1181  0.1185 -0.4819
  651MOL0     H87830   3.752   8.301   2.516  1.6305  2.4707  1.5305
  651MOL0     H87831   3.642   8.436   2.477 -2.0336 -0.6520 -2.3901
  651MOL0     H87832   3.496   8.290   2.345 -4.3048 -3.5134  1.6876
  651MOL0     H87833   3.529   8.225   2.499 -0.7420 -0.5884 -0.8973
  651MOL0     H87834   3.525   8.057   2.319  1.6686 -2.1149 -2.3049
  651MOL0     H87835   3.670   8.134   2.247  1.2133  0.8155  0.6938
  651MOL0     H87836   3.872   7.949   2.321 -2.8383 -2.9264 -2.4336
  651MOL0     H87837   3.873   7.665   2.533  2.2338 -1.0112  4.8677
  651MOL0     H87838   3.992   7.772   2.457  0.0197 -2.1655 -0.4532
  651MOL0     H87839   3.897   7.764   2.762  1.9284  5.5407  1.8500
  651MOL0     H87840   4.029   7.655   2.703 -0.2303 -0.9571 -0.4093
  651MOL0     H87841   4.143   7.859   2.632  2.3011 -3.2569  2.3305
  651MOL0     H87842   4.128   7.848   2.808 -0.6083  2.5305  1.0002
  651MOL0     H87843   3.925   7.994   2.784 -1.2875 -0.9108 -0.4604
  651MOL0     H87844   3.987   8.026   2.620 -0.8806  3.0957  0.9928
  651MOL0     H87845   4.245   8.261   2.913  0.9300 -1.8956 -2.6941
  651MOL0     H87846   4.184   8.509   2.964  3.1054 -2.3488 -0.0850
  651MOL0     H87847   4.009   8.733   3.236  0.3917 -0.7955 -2.4112
  651MOL0     H87848   3.953   8.930   3.371 -1.2940  0.1809 -0.0417
  651MOL0     H87849   3.722   9.219   3.137  3.2576 -1.3907 -0.5255
  651MOL0     H87850   3.687   9.109   3.266  2.6959 -1.9563  3.6423
  651MOL0     H87851   3.753   9.281   3.428  1.5226 -0.6980 -0.0893
  651MOL0     H87852   3.785   9.399   3.294  0.7106 -0.4549  0.3828
  651MOL0     H87853   3.543   9.370   3.224  2.4178 -0.3615 -1.4007
  651MOL0     H87854   3.515   9.290   3.380 -0.9686  2.4899  2.1955
  651MOL0     H87855   3.632   9.568   3.365  1.7944  0.0500  0.7011
  651MOL0     H87856   3.589   9.468   3.505 -1.1063 -0.4321 -1.7375
  651MOL0     H87857   3.361   9.459   3.445  0.3917 -1.3660 -1.8372
  651MOL0     H87858   3.387   9.547   3.292 -1.4803  0.6657  0.4716
  651MOL0     H87859   3.417   9.655   3.581 -1.8822  0.7172  0.1180
  651MOL0     H87860   3.440   9.749   3.439  2.0115 -0.3036  2.1756
  651MOL0     H87861   3.183   9.590   3.526 -0.8984 -0.2159 -0.8567
  651MOL0     H87862   3.202   9.670   3.369  3.1236 -0.0433 -0.7293
  651MOL0     H87863   3.234   9.837   3.626  0.2922  2.9734  0.0026
  651MOL0     H87864   3.251   9.873   3.456  1.2764 -1.3024 -0.0320
  651MOL0     H87865   3.878   9.134   2.992  0.6681 -0.0620  0.2411
  651MOL0     H87866   3.932   8.942   2.866  0.6877  2.0060 -0.6085
  651MOL0     H87867   3.874   8.470   2.665 -1.5974 -3.5822  0.4256
  651MOL0     H87868   3.930   8.232   2.639  1.3350 -1.5286  0.4776
  651MOL0     H87869   4.506   8.755   2.128  1.2446  1.7076  0.5668
  651MOL0     H87870   4.633   8.883   2.284 -0.2993 -0.9690 -2.7678
  651MOL0     H87871   4.592   9.047   2.728  0.1489 -0.7147 -3.0648
  651MOL0     H87872   4.718   9.114   2.922 -1.6671 -1.5755 -1.4083
  651MOL0     H87873   5.072   9.284   2.865  2.8760 -2.3889  1.3188
  651MOL0     H87874   5.086   9.237   3.030  0.8338 -0.7871 -1.0731
  651MOL0     H87875   5.018   9.474   3.100 -1.5604  1.7311 -1.0054
  651MOL0     H87876   5.007   9.521   2.933 -2.2662 -1.6002  0.3966
  651MOL0     H87877   5.267   9.413   3.041  1.5048  3.1337  0.1071
  651MOL0     H87878   5.214   9.582   3.055 -1.6402  0.7770 -0.0246
  651MOL0     H87879   5.239   9.612   2.820 -0.0586 -0.6766 -0.6468
  651MOL0     H87880   5.373   9.529   2.885 -0.7020  2.8288  2.7209
  651MOL0     H87881   5.276   9.245   2.602 -6.4552 -1.0493 -2.0620
  651MOL0     H87882   4.966   9.369   2.706 -3.0202  2.8054  3.5557
  651MOL0     H87883   4.964   9.384   2.460  1.9846 -2.7951 -1.6256
  651MOL0     H87884   4.909   9.253   2.375  1.3556  1.5918 -0.5249
  651MOL0     H87885   4.787   9.379   2.411  0.7611 -0.2211 -1.9532
  652MOL0     O87886   6.495   2.726   4.478 -0.1550  0.0919 -0.3685
  652MOL0     C87887   6.447   2.658   4.388  0.2919 -0.4840  0.8063
  652MOL0     O87888   6.421   2.707   4.259 -0.4296  0.1839  0.9543
  652MOL0     C87889   6.486   2.820   4.212  1.2146 -0.0086  0.9309
  652MOL0     C87890   6.452   2.952   4.255 -0.8552 -0.3725  0.6334
  652MOL0     C87891   6.495   3.067   4.185  0.1650  0.1752 -0.3227
  652MOL0     C87892   6.569   3.060   4.069 -0.7558 -0.0531  0.1547
  652MOL0     O87893   6.627   3.171   4.018 -0.2930 -0.5194  0.6831
  652MOL0     C87894   6.609   3.295   4.076  0.3747 -0.8548  0.5314
  652MOL0     C87895   6.731   3.376   4.030  0.9708  0.5591  0.5695
  652MOL0     C87896   6.724   3.426   3.884  0.1468 -0.1608 -0.2491
  652MOL0     C87897   6.831   3.527   3.839  0.1604 -0.3865 -0.4539
  652MOL0     C87898   6.845   3.662   3.907 -0.0719 -0.2284 -0.3353
  652MOL0     C87899   6.913   3.770   3.816 -1.2841  0.3927 -0.3473
  652MOL0     C87900   7.069   3.748   3.819 -0.2846  1.3821 -0.5045
  652MOL0     C87901   7.143   3.846   3.730  0.5458  1.0508  0.9392
  652MOL0     N87902   7.112   3.990   3.736 -0.3330  0.3430 -0.2811
  652MOL0     C87903   7.096   4.063   3.630  1.3214 -0.9735  0.1435
  652MOL0     C87904   7.056   4.170   3.691  0.0833 -0.7010 -0.3507
  652MOL0     C87905   7.021   4.283   3.595  0.6624 -0.5696  0.3873
  652MOL0     C87906   6.908   4.374   3.659  0.3816 -0.2316  0.0589
  652MOL0     C87907   6.778   4.360   3.580  0.4142 -0.2423  1.2108
  652MOL0     C87908   6.645   4.401   3.648 -0.3248 -0.6042 -0.2138
  652MOL0     O87909   6.524   4.354   3.582 -0.1469  0.4360  0.1238
  652MOL0     C87910   6.485   4.221   3.588 -0.2317  0.0055  0.2644
  652MOL0     C87911   6.390   4.184   3.492 -1.5635 -1.6314 -1.2925
  652MOL0     C87912   6.341   4.059   3.477 -0.3859 -0.2811  0.4452
  652MOL0     C87913   6.389   3.954   3.558 -0.3406  0.1460 -0.3220
  652MOL0     C87914   6.351   3.816   3.542  0.2874  0.8707 -0.2077
  652MOL0     O87915   6.262   3.790   3.439 -0.3186 -0.1959 -0.7803
  652MOL0     C87916   6.204   3.667   3.441 -0.2136 -0.3340  0.6736
  652MOL0     C87917   6.085   3.636   3.518 -0.6951 -0.1331  0.0938
  652MOL0     C87918   6.031   3.505   3.516 -0.2100 -0.6737 -1.1032
  652MOL0     C87919   6.108   3.402   3.464  0.0950  1.2200 -0.3483
  652MOL0     O87920   6.067   3.272   3.464 -0.1029 -0.3302 -1.0948
  652MOL0     C87921   5.945   3.224   3.533  0.2995  0.2321  0.2485
  652MOL0     C87922   5.954   3.079   3.578  0.9125  0.6403  0.4794
  652MOL0     C87923   5.820   3.009   3.633  0.1525 -0.9371  0.5143
  652MOL0     C87924   5.848   2.878   3.697  0.4264 -0.2900 -0.0491
  652MOL0     C87925   5.715   2.800   3.724 -0.8694 -0.5981 -0.7733
  652MOL0     C87926   5.741   2.660   3.677  0.0434  0.1221  0.2902
  652MOL0     C87927   5.610   2.573   3.713  0.1618 -0.3025 -1.2935
  652MOL0     C87928   5.606   2.451   3.612  1.3034 -0.1673 -0.5544
  652MOL0    Cl87929   5.485   2.330   3.664  0.0399 -0.3755  0.2051
  652MOL0     C87930   6.223   3.429   3.395  0.5150 -0.6171  0.5714
  652MOL0     C87931   6.265   3.559   3.369 -0.2497  1.2643 -1.0008
  652MOL0     O87932   6.386   3.732   3.631 -0.7585 -0.5300 -0.0925
  652MOL0     C87933   6.473   3.991   3.665  0.6946  0.1598 -0.0227
  652MOL0     C87934   6.535   4.114   3.674  1.2614 -0.3031  0.1475
  652MOL0     N87935   7.056   4.175   3.827 -0.0895  0.1683  0.9240
  652MOL0     N87936   7.092   4.053   3.856  0.6403  0.3696 -0.3318
  652MOL0     C87937   6.600   2.926   4.031  0.0739 -0.6068  0.3585
  652MOL0     C87938   6.556   2.813   4.100  1.2788  0.7753  0.5838
  652MOL0     C87939   6.385   2.522   4.418  1.4240 -1.1110 -0.1741
  652MOL0     C87940   6.251   2.510   4.376 -0.7993  0.0153 -0.3724
  652MOL0     C87941   6.186   2.388   4.396 -0.7694 -0.4056 -0.3709
  652MOL0     C87942   6.248   2.272   4.440 -0.4616  0.2062 -0.1108
  652MOL0     O87943   6.178   2.158   4.458 -0.7504  0.0009 -0.7944
  652MOL0     C87944   6.053   2.140   4.380  0.2700 -0.3382  0.2195
  652MOL0     C87945   6.039   1.994   4.342  0.2904  0.4564 -0.0453
  652MOL0     C87946   6.003   1.903   4.465  0.1520  0.2661 -0.1783
  652MOL0     C87947   5.980   1.755   4.424 -0.1252 -0.0759 -0.7077
  652MOL0     C87948   5.851   1.741   4.354 -0.5859  0.3159 -0.0365
  652MOL0     C87949   5.738   1.748   4.308  0.8965 -0.7431 -0.1654
  652MOL0     C87950   6.388   2.276   4.458 -0.0108 -0.4817 -0.2410
  652MOL0     C87951   6.455   2.403   4.459 -0.5356  0.4734  0.0667
  652MOL0     C87952   6.602   2.412   4.494 -1.2615  0.6350 -0.2304
  652MOL0     H87953   6.382   2.958   4.338 -2.2806  0.3605 -0.5661
  652MOL0     H87954   6.457   3.157   4.232  0.8141  0.1100  0.3557
  652MOL0     H87955   6.516   3.347   4.050  1.7885  1.1280 -0.8609
  652MOL0     H87956   6.603   3.280   4.185  3.3929 -3.5740  0.4602
  652MOL0     H87957   6.829   3.327   4.038  1.1117  0.3637 -1.7301
  652MOL0     H87958   6.742   3.468   4.089  0.7930  2.9485 -2.8124
  652MOL0     H87959   6.628   3.475   3.866  0.7240  0.1942 -2.6131
  652MOL0     H87960   6.723   3.342   3.813  2.0348 -1.9505  1.6869
  652MOL0     H87961   6.928   3.477   3.838  0.6992  0.6223 -1.0902
  652MOL0     H87962   6.800   3.544   3.736 -0.4790  1.7680  0.0389
  652MOL0     H87963   6.748   3.703   3.937 -0.2325 -0.2109 -0.8625
  652MOL0     H87964   6.902   3.638   3.997  0.6813 -2.0535 -1.2452
  652MOL0     H87965   6.873   3.761   3.714 -0.6619 -1.8891 -0.4286
  652MOL0     H87966   6.887   3.872   3.849 -1.1110 -0.0815  1.3593
  652MOL0     H87967   7.095   3.642   3.814  1.7145  1.7223  1.1880
  652MOL0     H87968   7.098   3.768   3.923 -1.1177  1.3128 -0.2524
  652MOL0     H87969   7.250   3.842   3.752  2.0717  4.1712 -4.2131
  652MOL0     H87970   7.114   3.814   3.630 -0.6552  1.6860  1.0640
  652MOL0     H87971   7.126   4.047   3.527  0.5470  0.3097 -0.3078
  652MOL0     H87972   7.106   4.349   3.580  0.9627 -1.3789 -1.7246
  652MOL0     H87973   6.998   4.247   3.495 -0.0068  1.8636 -0.4101
  652MOL0     H87974   6.903   4.346   3.765  2.5816 -0.0546  0.2524
  652MOL0     H87975   6.945   4.477   3.649  4.2714 -1.6763 -3.2477
  652MOL0     H87976   6.764   4.268   3.522  2.6570  0.7551 -1.1103
  652MOL0     H87977   6.793   4.436   3.502  2.3409  0.0642  1.8373
  652MOL0     H87978   6.638   4.509   3.661  3.9153 -0.2488  0.7219
  652MOL0     H87979   6.648   4.360   3.749  0.3600  2.3324  1.0410
  652MOL0     H87980   6.352   4.261   3.427 -1.2659  1.6792  2.1247
  652MOL0     H87981   6.267   4.041   3.400  0.1428  1.0158 -0.3859
  652MOL0     H87982   6.017   3.704   3.569 -0.8661 -0.9389  0.9796
  652MOL0     H87983   5.933   3.497   3.562 -1.7759 -0.4576 -4.1645
  652MOL0     H87984   5.908   3.288   3.613  2.1980  2.4408 -0.5530
  652MOL0     H87985   5.866   3.238   3.458 -0.7504  0.1608  1.3173
  652MOL0     H87986   5.995   3.016   3.498 -1.2959 -0.7383  0.3341
  652MOL0     H87987   6.028   3.091   3.658 -2.2927  4.1494  3.3066
  652MOL0     H87988   5.766   3.078   3.699 -0.0780 -0.0748 -0.5493
  652MOL0     H87989   5.764   2.999   3.539  2.2688 -1.7437 -0.7342
  652MOL0     H87990   5.893   2.898   3.794  0.3549  0.2388 -0.1208
  652MOL0     H87991   5.910   2.822   3.626 -4.4440 -1.9268 -3.5636
  652MOL0     H87992   5.632   2.837   3.664  0.7561 -0.1137 -2.8340
  652MOL0     H87993   5.690   2.790   3.830 -1.9027 -0.6268 -1.0102
  652MOL0     H87994   5.743   2.665   3.568 -0.8044  0.1311  0.2688
  652MOL0     H87995   5.830   2.629   3.733  0.3364  1.5223  0.6349
  652MOL0     H87996   5.518   2.628   3.691  2.1564  3.8730 -0.3770
  652MOL0     H87997   5.606   2.554   3.821 -2.5246  4.2928 -0.3025
  652MOL0     H87998   5.593   2.486   3.510 -0.3101 -0.0433 -0.3318
  652MOL0     H87999   5.705   2.404   3.624  1.4825  0.5361  1.0660
  652MOL0     H88000   6.276   3.348   3.346  0.5613 -0.2095 -0.0645
  652MOL0     H88001   6.358   3.585   3.319  0.9285  0.1447  0.5489
  652MOL0     H88002   6.492   3.922   3.746 -0.9389  0.4176  0.6227
  652MOL0     H88003   6.604   4.137   3.754  4.2801  3.4897 -3.1380
  652MOL0     H88004   6.668   2.910   3.947  0.4705  0.2966  0.4926
  652MOL0     H88005   6.576   2.711   4.067 -2.7762 -0.2296  0.6408
  652MOL0     H88006   6.213   2.602   4.333  2.0271  1.2379 -0.4667
  652MOL0     H88007   6.080   2.390   4.374 -0.8172  1.0700 -0.0955
  652MOL0     H88008   6.065   2.191   4.284 -1.1976 -1.2793 -0.4917
  652MOL0     H88009   5.963   2.179   4.426  1.5220 -0.2250  2.7394
  652MOL0     H88010   6.137   1.968   4.301  1.0076  2.8194  0.0109
  652MOL0     H88011   5.964   1.964   4.268  0.0255 -1.9461  1.1246
  652MOL0     H88012   5.909   1.934   4.514 -0.0041 -3.9184  2.6255
  652MOL0     H88013   6.083   1.931   4.533 -1.2745  0.6286  1.4326
  652MOL0     H88014   6.064   1.719   4.364  0.8957 -2.3611  1.9016
  652MOL0     H88015   5.969   1.697   4.515  1.6973  0.9542  0.2239
  652MOL0     H88016   5.636   1.744   4.276  0.4501  0.2533  1.0364
  652MOL0     H88017   6.451   2.193   4.487 -1.4654 -2.4233 -2.2860
  652MOL0     H88018   6.663   2.405   4.404 -0.6217 -1.8747  0.3332
  652MOL0     H88019   6.612   2.498   4.562  0.2468 -0.7846  1.4262
  652MOL0     H88020   6.642   2.330   4.555 -0.2297  0.6893 -0.8147
  653MOL0     O88021   4.376   4.838  11.336  0.7319 -0.5286 -0.4280
  653MOL0     C88022   4.297   4.742  11.323 -0.6262 -0.2840 -0.2330
  653MOL0     O88023   4.290   4.664  11.216  0.2658 -0.2308  0.2971
  653MOL0     C88024   4.397   4.668  11.139 -1.1304  1.3811  0.8975
  653MOL0     C88025   4.513   4.592  11.162 -0.6668 -0.6691 -0.5809
  653MOL0     C88026   4.620   4.603  11.073 -0.3205  0.2157  0.6721
  653MOL0     C88027   4.623   4.693  10.963  0.8376 -0.6581  0.0656
  653MOL0     O88028   4.736   4.729  10.886 -0.5541  0.2089  0.0855
  653MOL0     C88029   4.861   4.711  10.948 -1.1395  0.5131  0.5238
  653MOL0     C88030   4.973   4.764  10.857  0.1883  0.0303  0.5346
  653MOL0     C88031   4.983   4.682  10.719 -0.5308 -0.5392 -0.1749
  653MOL0     C88032   4.910   4.754  10.607 -0.2776  0.8754  0.1052
  653MOL0     C88033   4.912   4.685  10.474 -0.6788  0.2001  1.1222
  653MOL0     C88034   4.809   4.729  10.373 -0.0980 -0.0125  0.3983
  653MOL0     C88035   4.836   4.873  10.342 -0.5661 -1.1342  0.4766
  653MOL0     C88036   4.751   4.921  10.222  0.1772  0.4305  0.3320
  653MOL0     N88037   4.787   5.054  10.182  0.0909  0.0743 -0.1343
  653MOL0     C88038   4.736   5.169  10.213  0.4467 -0.7071  0.2964
  653MOL0     C88039   4.830   5.257  10.192 -0.5045 -0.4184 -0.0788
  653MOL0     C88040   4.816   5.405  10.218 -1.0661  0.4602 -0.0755
  653MOL0     C88041   4.945   5.482  10.198  0.0945  0.1733  0.5980
  653MOL0     C88042   4.969   5.564  10.322  0.4186 -0.4767 -0.2908
  653MOL0     C88043   5.053   5.478  10.417  1.2582 -0.9843  0.2855
  653MOL0     O88044   4.993   5.356  10.458  1.2140  0.1545 -0.3700
  653MOL0     C88045   5.060   5.283  10.549  0.6222  0.7805  0.2410
  653MOL0     C88046   5.088   5.323  10.679  0.1590  0.4935  0.1080
  653MOL0     C88047   5.161   5.245  10.769  0.3613  0.6391 -0.1424
  653MOL0     C88048   5.206   5.118  10.732 -0.0340 -0.8443  0.4163
  653MOL0     C88049   5.270   5.036  10.836 -0.1067 -0.4427 -0.4072
  653MOL0     O88050   5.333   4.921  10.782  0.9914  0.8682 -0.0898
  653MOL0     C88051   5.425   4.844  10.849  0.5720  0.2468  0.1392
  653MOL0     C88052   5.506   4.902  10.942 -0.1198  0.4965 -0.1611
  653MOL0     C88053   5.617   4.845  10.989  0.9267 -0.0906  0.1598
  653MOL0     C88054   5.649   4.707  10.953 -0.5808 -0.6257  0.3506
  653MOL0     O88055   5.757   4.659  11.016 -1.0860 -1.0006  0.4893
  653MOL0     C88056   5.757   4.515  11.038 -0.3505  0.4389  0.3478
  653MOL0     C88057   5.869   4.464  11.142  0.0377  0.0013  0.5290
  653MOL0     C88058   5.835   4.517  11.284 -0.6520  0.5810  0.4090
  653MOL0     C88059   5.938   4.491  11.386  0.0902  0.7479  0.9063
  653MOL0     C88060   5.895   4.554  11.513 -1.8397 -0.2300  0.4715
  653MOL0     C88061   6.001   4.553  11.634  0.0191  0.6072  0.2158
  653MOL0     C88062   5.936   4.604  11.759 -0.0944 -0.7492  1.0266
  653MOL0     C88063   6.035   4.659  11.855 -1.1395  1.0664  0.3219
  653MOL0    Cl88064   5.961   4.735  12.002  0.7757 -0.3124 -0.1485
  653MOL0     C88065   5.573   4.640  10.864  0.3804  0.3258 -0.2765
  653MOL0     C88066   5.465   4.714  10.799 -0.3898 -0.0320  0.2336
  653MOL0     O88067   5.256   5.063  10.954 -1.2255 -0.3095 -0.4591
  653MOL0     C88068   5.181   5.074  10.599  0.7767 -0.6636  0.9857
  653MOL0     C88069   5.117   5.160  10.505 -0.3088 -0.2932  0.0398
  653MOL0     N88070   4.951   5.192  10.149  0.0914  0.2702 -0.0658
  653MOL0     N88071   4.912   5.069  10.144  0.0577  0.2145  0.4801
  653MOL0     C88072   4.514   4.779  10.958  0.0848 -0.5614 -0.4065
  653MOL0     C88073   4.403   4.758  11.039  0.6057 -0.1986 -0.1271
  653MOL0     C88074   4.214   4.703  11.442 -1.3262 -0.0098  0.0175
  653MOL0     C88075   4.259   4.706  11.576  0.1424  0.3353  0.5227
  653MOL0     C88076   4.177   4.675  11.682  0.4427 -0.6580 -0.7135
  653MOL0     C88077   4.039   4.657  11.661 -0.1706 -0.1279  0.1941
  653MOL0     O88078   3.944   4.638  11.753 -0.2507  0.2814  0.5877
  653MOL0     C88079   3.974   4.672  11.883 -1.2031  0.2734 -0.3572
  653MOL0     C88080   3.848   4.689  11.978 -0.2893  0.3639  0.4444
  653MOL0     C88081   3.799   4.826  11.997  0.3708  0.2220 -0.0205
  653MOL0     C88082   3.741   4.891  11.871 -0.4312  0.1985 -0.3488
  653MOL0     C88083   3.838   4.947  11.779  0.1607 -0.2833 -0.3723
  653MOL0     C88084   3.918   5.010  11.711  0.5057  0.0622  0.2638
  653MOL0     C88085   3.998   4.651  11.526 -0.1567  0.3239  0.1232
  653MOL0     C88086   4.081   4.672  11.418  0.6951  0.4591 -0.8951
  653MOL0     C88087   4.013   4.661  11.289 -0.0605  0.3278  0.2663
  653MOL0     H88088   4.526   4.522  11.245  0.8410 -1.3352 -1.3359
  653MOL0     H88089   4.712   4.546  11.083  1.1222  1.9660 -1.5242
  653MOL0     H88090   4.866   4.759  11.046 -1.3894 -2.6064  2.2231
  653MOL0     H88091   4.886   4.605  10.964 -0.4905  0.0949 -2.7239
  653MOL0     H88092   5.072   4.760  10.905  0.2401  2.0456  0.6669
  653MOL0     H88093   4.958   4.868  10.828 -0.7448 -0.7019 -1.8050
  653MOL0     H88094   4.943   4.581  10.729  0.1571 -0.7281  0.9017
  653MOL0     H88095   5.090   4.670  10.698  0.1630 -1.6010  3.2658
  653MOL0     H88096   4.806   4.753  10.639 -0.5073 -1.2063 -0.5729
  653MOL0     H88097   4.949   4.856  10.594  1.2030  0.0764 -2.5382
  653MOL0     H88098   5.008   4.682  10.422 -1.6970  1.5706 -0.9634
  653MOL0     H88099   4.893   4.579  10.492 -0.3528  0.1097  0.9442
  653MOL0     H88100   4.825   4.676  10.278 -0.5344  1.0175 -0.2752
  653MOL0     H88101   4.707   4.715  10.410 -0.5236  1.3002 -0.2013
  653MOL0     H88102   4.941   4.893  10.315 -0.8728 -0.4943 -0.2816
  653MOL0     H88103   4.814   4.943  10.424  1.6339 -0.3734  0.4901
  653MOL0     H88104   4.750   4.855  10.135 -0.4811 -1.5879  1.8028
  653MOL0     H88105   4.645   4.925  10.250  0.0420 -1.1223  0.1297
  653MOL0     H88106   4.634   5.186  10.245  0.1130 -0.3897 -0.8636
  653MOL0     H88107   4.748   5.442  10.141 -0.9558  1.7947  0.4350
  653MOL0     H88108   4.777   5.430  10.317  2.2496 -0.0217  1.4923
  653MOL0     H88109   5.028   5.417  10.169 -2.2282 -1.7915 -2.3360
  653MOL0     H88110   4.934   5.542  10.107 -2.8866 -3.1158 -1.4960
  653MOL0     H88111   4.891   5.621  10.372  2.3814 -0.3854  2.9760
  653MOL0     H88112   5.039   5.644  10.295  0.5135  0.0572  1.4335
  653MOL0     H88113   5.060   5.536  10.509  1.9257  0.5181 -0.6795
  653MOL0     H88114   5.155   5.473  10.377  2.5561  3.7612  2.2861
  653MOL0     H88115   5.052   5.417  10.720 -0.9646 -0.1900  0.7245
  653MOL0     H88116   5.181   5.288  10.866 -1.0803 -1.7170  1.2881
  653MOL0     H88117   5.488   5.003  10.977  2.6175  0.6827  0.9329
  653MOL0     H88118   5.683   4.906  11.051 -0.1678  0.7195  0.5556
  653MOL0     H88119   5.664   4.473  11.077 -0.0220 -1.3877 -0.7333
  653MOL0     H88120   5.771   4.459  10.946  0.1607 -1.7903  1.6929
  653MOL0     H88121   5.860   4.355  11.143  0.5883 -0.1274 -1.9503
  653MOL0     H88122   5.969   4.491  11.108  0.2900 -2.3164 -0.8227
  653MOL0     H88123   5.813   4.624  11.286  1.3800  1.0526  3.1959
  653MOL0     H88124   5.744   4.468  11.319 -1.9099  0.6663 -2.4747
  653MOL0     H88125   6.032   4.537  11.353  1.0225 -0.9888  0.9978
  653MOL0     H88126   5.950   4.383  11.399 -0.0016  0.7818  1.2714
  653MOL0     H88127   5.804   4.504  11.546 -2.0921  0.6886  1.1887
  653MOL0     H88128   5.864   4.659  11.507 -1.9718 -0.2253  1.1455
  653MOL0     H88129   6.034   4.450  11.650  1.6501  1.1036  0.1962
  653MOL0     H88130   6.094   4.604  11.609  0.9961 -1.2786 -0.2188
  653MOL0     H88131   5.879   4.527  11.810  0.3600 -0.5036  1.9367
  653MOL0     H88132   5.867   4.682  11.725 -1.1127 -3.3970 -3.9367
  653MOL0     H88133   6.099   4.577  11.890 -0.4891  1.5641  0.3119
  653MOL0     H88134   6.109   4.719  11.802 -0.3400  1.1320  1.4758
  653MOL0     H88135   5.593   4.542  10.821  1.2973 -0.0336  0.9395
  653MOL0     H88136   5.416   4.690  10.706  1.1204  1.1507 -0.9231
  653MOL0     H88137   5.221   4.976  10.573  0.6424 -0.9803  1.9193
  653MOL0     H88138   5.085   5.112  10.413  1.6005 -3.6450  0.9496
  653MOL0     H88139   4.505   4.860  10.886 -1.4527 -2.0056 -1.9084
  653MOL0     H88140   4.311   4.816  11.029 -0.0447 -0.5244  2.7739
  653MOL0     H88141   4.354   4.741  11.615 -0.5490  0.9244  1.7474
  653MOL0     H88142   4.198   4.663  11.788 -1.8431  0.9029  0.0070
  653MOL0     H88143   4.026   4.768  11.874  0.0793 -0.1996  1.4739
  653MOL0     H88144   4.049   4.601  11.919  0.6833  1.3956 -1.9212
  653MOL0     H88145   3.872   4.654  12.079 -0.9596  2.0409  1.2273
  653MOL0     H88146   3.766   4.628  11.938  1.0674 -2.3485  1.5459
  653MOL0     H88147   3.881   4.893  12.023  0.5854 -0.2899  0.6684
  653MOL0     H88148   3.718   4.822  12.071  0.2249 -2.2583 -0.2452
  653MOL0     H88149   3.694   4.813  11.810 -2.0934  1.8729 -1.2844
  653MOL0     H88150   3.664   4.961  11.903  2.1309  2.1645  1.9798
  653MOL0     H88151   3.995   5.062  11.658  1.4316 -2.9797 -1.5899
  653MOL0     H88152   3.896   4.628  11.496  0.3836 -2.5419  0.1828
  653MOL0     H88153   3.905   4.649  11.301 -0.2106 -0.7834 -1.6557
  653MOL0     H88154   4.023   4.744  11.218  0.1632  1.4406  1.5651
  653MOL0     H88155   4.042   4.562  11.251  1.4679 -0.9653  4.3396
  654MOL0     O88156  11.148   6.495   9.201 -0.1395 -0.2238 -0.0146
  654MOL0     C88157  11.175   6.605   9.247  0.2868 -0.4728  0.1022
  654MOL0     O88158  11.128   6.652   9.363 -0.0424 -0.7725 -0.2453
  654MOL0     C88159  11.106   6.576   9.474 -0.4009 -0.6529  0.2676
  654MOL0     C88160  11.185   6.462   9.492 -0.0378  0.3402  0.4682
  654MOL0     C88161  11.163   6.382   9.603  1.0101  0.5961 -0.6585
  654MOL0     C88162  11.076   6.410   9.709  0.1997 -0.1486 -0.2594
  654MOL0     O88163  11.057   6.337   9.823  0.5925 -0.3229 -0.0923
  654MOL0     C88164  11.115   6.207   9.842  0.1317  0.2071 -0.1818
  654MOL0     C88165  10.990   6.106   9.831 -0.8558  0.5934  0.0760
  654MOL0     C88166  11.031   5.974   9.888 -0.4256  0.3907 -0.3555
  654MOL0     C88167  10.918   5.883   9.921 -0.7895  1.1494 -1.7094
  654MOL0     C88168  10.953   5.776  10.027  0.5532  0.5579  0.1204
  654MOL0     C88169  10.825   5.717  10.085 -0.5531  0.6587 -0.0389
  654MOL0     C88170  10.868   5.569  10.147  0.1532 -0.4334 -0.3211
  654MOL0     C88171  10.752   5.511  10.218  0.7966  0.6596 -0.3612
  654MOL0     N88172  10.769   5.376  10.276  0.1772 -0.0296 -0.4955
  654MOL0     C88173  10.842   5.338  10.391 -0.5838 -0.1856 -0.1054
  654MOL0     C88174  10.871   5.205  10.371  0.9817  0.8823 -0.3472
  654MOL0     C88175  10.956   5.107  10.450  0.4551 -0.5327 -0.1711
  654MOL0     C88176  11.102   5.093  10.397  0.5163  0.2248 -0.4073
  654MOL0     C88177  11.130   5.028  10.266 -0.1805 -0.2962 -1.0684
  654MOL0     C88178  11.068   4.885  10.244 -0.0186  0.3252 -0.0730
  654MOL0     O88179  11.096   4.797  10.350  0.5986  0.4738 -0.2880
  654MOL0     C88180  11.106   4.662  10.336 -0.4931 -0.2367 -0.5111
  654MOL0     C88181  11.029   4.592  10.245  0.9587  0.3581 -0.3160
  654MOL0     C88182  11.035   4.450  10.230  0.3261  0.4926  0.2258
  654MOL0     C88183  11.127   4.389  10.316 -0.1579 -0.5393 -1.0406
  654MOL0     C88184  11.150   4.242  10.299 -0.1375 -0.0601  0.1657
  654MOL0     O88185  11.069   4.182  10.208  0.4087 -0.3943 -0.1627
  654MOL0     C88186  11.106   4.053  10.178  0.4592 -1.1641  0.6058
  654MOL0     C88187  11.203   4.029  10.076 -1.0525  0.3146 -0.9336
  654MOL0     C88188  11.249   3.901  10.049  0.6103 -0.0739 -1.2164
  654MOL0     C88189  11.206   3.793  10.129 -0.2060  0.3498  0.3693
  654MOL0     O88190  11.271   3.678  10.103  0.5945 -0.2932  0.1520
  654MOL0     C88191  11.223   3.549  10.101  0.0496 -0.3508 -0.2408
  654MOL0     C88192  11.109   3.533  10.009  1.0214 -0.4386  0.9503
  654MOL0     C88193  11.145   3.581   9.869  0.6764 -0.0639 -0.1231
  654MOL0     C88194  11.028   3.548   9.773 -0.1432 -0.6789  0.3079
  654MOL0     C88195  11.041   3.614   9.630 -0.4592  0.0711  0.5829
  654MOL0     C88196  11.137   3.559   9.526 -0.3044 -0.5557 -0.6943
  654MOL0     C88197  11.094   3.575   9.380  0.0656  0.1055  0.6025
  654MOL0     C88198  11.224   3.591   9.290 -0.2245  0.1098 -0.3592
  654MOL0    Cl88199  11.163   3.598   9.125 -0.5434  0.3426 -0.0464
  654MOL0     C88200  11.108   3.816  10.223 -0.6881  0.1255 -0.5707
  654MOL0     C88201  11.056   3.943  10.246  0.1155  0.2743  0.3927
  654MOL0     O88202  11.243   4.186  10.360  0.4581 -0.4624 -0.3608
  654MOL0     C88203  11.183   4.457  10.426 -0.6028  1.0570  0.5232
  654MOL0     C88204  11.175   4.590  10.434 -0.5120 -0.3036 -0.4312
  654MOL0     N88205  10.801   5.163  10.259 -0.0021 -0.3716 -0.1400
  654MOL0     N88206  10.745   5.261  10.197  0.9137 -0.5919  0.7368
  654MOL0     C88207  10.996   6.527   9.691  0.0798  0.5482  0.2534
  654MOL0     C88208  11.011   6.611   9.581 -0.9657 -0.3448  0.1626
  654MOL0     C88209  11.236   6.706   9.157 -0.7758  0.2856  0.0846
  654MOL0     C88210  11.255   6.836   9.203 -1.0228  0.1293  0.6001
  654MOL0     C88211  11.307   6.943   9.123  0.4145 -0.1513  1.3830
  654MOL0     C88212  11.353   6.919   8.995  2.2956  0.8164 -0.7007
  654MOL0     O88213  11.384   7.025   8.920 -0.3888  0.6947 -0.5303
  654MOL0     C88214  11.399   7.010   8.776 -0.2341 -0.2874 -0.4113
  654MOL0     C88215  11.443   7.140   8.703 -0.3335 -0.0443  0.0359
  654MOL0     C88216  11.343   7.255   8.722  0.5872  1.4755  0.6324
  654MOL0     C88217  11.385   7.383   8.659 -0.3477  0.3804 -0.2028
  654MOL0     C88218  11.491   7.454   8.730  0.5387  0.2233 -0.6628
  654MOL0     C88219  11.575   7.510   8.807  0.0147  0.1261  0.8311
  654MOL0     C88220  11.333   6.785   8.950 -0.3676 -0.9728 -0.1757
  654MOL0     C88221  11.272   6.680   9.025  0.1817  0.4984  0.8875
  654MOL0     C88222  11.260   6.546   8.950  0.1576  0.4576 -0.5155
  654MOL0     H88223  11.261   6.436   9.419  0.8143 -1.3361  1.8660
  654MOL0     H88224  11.239   6.307   9.621 -0.0428  0.0388  1.8665
  654MOL0     H88225  11.190   6.189   9.765 -1.2212  0.4771 -1.6233
  654MOL0     H88226  11.153   6.199   9.944 -1.0852 -2.8810  0.1613
  654MOL0     H88227  10.965   6.107   9.724 -0.7223 -0.5592  0.0223
  654MOL0     H88228  10.905   6.147   9.887 -0.9558  2.2061 -1.1770
  654MOL0     H88229  11.101   5.987   9.971  3.0140 -2.2622 -2.5944
  654MOL0     H88230  11.090   5.919   9.815 -0.1864 -1.0794  0.8858
  654MOL0     H88231  10.838   5.948   9.957 -0.5353 -0.4970  2.3758
  654MOL0     H88232  10.893   5.825   9.832 -0.0095 -0.9087 -0.6612
  654MOL0     H88233  11.005   5.692   9.980 -1.0967 -1.4718  1.7005
  654MOL0     H88234  11.017   5.820  10.104  0.4192 -2.3882  2.0723
  654MOL0     H88235  10.781   5.784  10.159 -3.2465 -1.2351  0.2195
  654MOL0     H88236  10.748   5.694  10.010 -1.1096 -2.0016  1.2328
  654MOL0     H88237  10.959   5.574  10.207  0.2420 -1.5527 -0.3528
  654MOL0     H88238  10.905   5.507  10.065  4.6853  0.0541  1.0792
  654MOL0     H88239  10.726   5.575  10.303 -2.6797 -2.7437  1.4982
  654MOL0     H88240  10.668   5.511  10.148 -2.4561 -1.0656  3.1030
  654MOL0     H88241  10.895   5.403  10.460 -1.6019 -1.8762  2.4161
  654MOL0     H88242  10.958   5.145  10.553 -0.0425 -4.1523  1.3262
  654MOL0     H88243  10.900   5.013  10.457  1.7594 -1.4894 -1.9177
  654MOL0     H88244  11.151   5.191  10.403 -0.8939  0.8758  1.9332
  654MOL0     H88245  11.154   5.029  10.469  1.2864 -0.1224 -1.2510
  654MOL0     H88246  11.235   5.040  10.239  0.5481 -2.9347  0.2633
  654MOL0     H88247  11.072   5.076  10.186 -0.5763 -2.0002 -1.8525
  654MOL0     H88248  11.103   4.845  10.149  1.1621  1.9917 -0.3897
  654MOL0     H88249  10.960   4.903  10.249  0.6221  5.2762  2.0041
  654MOL0     H88250  10.958   4.649  10.187 -0.3829  0.1662  1.0852
  654MOL0     H88251  10.978   4.402  10.152  2.0188 -2.7084  0.7924
  654MOL0     H88252  11.237   4.120  10.028 -2.4277  1.7533  0.6437
  654MOL0     H88253  11.324   3.905   9.971  1.3172  1.5793 -0.5024
  654MOL0     H88254  11.303   3.484  10.065 -1.6026 -2.0769 -0.9431
  654MOL0     H88255  11.195   3.511  10.199 -0.0621 -3.5202 -1.3894
  654MOL0     H88256  11.082   3.427  10.002 -2.0292  0.2920  0.2156
  654MOL0     H88257  11.024   3.597  10.030  0.6117  0.6292 -3.1034
  654MOL0     H88258  11.154   3.690   9.874 -0.6872  0.0628 -0.0753
  654MOL0     H88259  11.242   3.542   9.836  0.7302  1.3266 -1.7229
  654MOL0     H88260  10.929   3.578   9.806 -2.5264 -5.1118 -1.9427
  654MOL0     H88261  11.032   3.440   9.759  0.9872 -0.4873 -1.0903
  654MOL0     H88262  11.048   3.723   9.634  3.3635 -0.0833  2.3609
  654MOL0     H88263  10.941   3.598   9.587  0.0252 -1.1115 -0.1367
  654MOL0     H88264  11.240   3.591   9.540 -0.1827  0.1994 -2.9894
  654MOL0     H88265  11.130   3.450   9.540 -3.9076 -0.4352 -0.5230
  654MOL0     H88266  11.021   3.656   9.377  0.2421  0.4357  3.1547
  654MOL0     H88267  11.040   3.484   9.351  1.2244 -0.7339  0.9642
  654MOL0     H88268  11.287   3.678   9.310 -2.3665  2.1352 -1.8521
  654MOL0     H88269  11.295   3.507   9.294 -1.5297 -0.9936  2.2894
  654MOL0     H88270  11.063   3.742  10.288  2.1410 -0.5784  0.7553
  654MOL0     H88271  10.978   3.941  10.322  1.9680  0.0283  2.4137
  654MOL0     H88272  11.235   4.403  10.505  1.6046  3.0321  0.5552
  654MOL0     H88273  11.209   4.642  10.523  2.0340 -2.0965 -0.2281
  654MOL0     H88274  10.929   6.548   9.774 -0.5536 -0.2291 -0.0371
  654MOL0     H88275  10.963   6.708   9.589 -0.5912 -0.0331 -1.1718
  654MOL0     H88276  11.215   6.865   9.299 -1.6962  0.2316  0.2882
  654MOL0     H88277  11.324   7.045   9.157  2.0454 -0.0285  0.2809
  654MOL0     H88278  11.304   6.975   8.733  1.1280 -4.6958 -0.3437
  654MOL0     H88279  11.478   6.934   8.770 -0.8345 -0.8311 -3.1396
  654MOL0     H88280  11.456   7.099   8.603  2.5283 -1.1664  0.7711
  654MOL0     H88281  11.539   7.168   8.746  1.0132  1.5170 -3.6726
  654MOL0     H88282  11.306   7.265   8.824 -0.0985 -1.2462  0.7146
  654MOL0     H88283  11.255   7.216   8.669  1.2374 -2.8627  2.3694
  654MOL0     H88284  11.420   7.353   8.560  4.2064 -2.3637  1.9472
  654MOL0     H88285  11.308   7.461   8.654  0.4027  1.0323 -3.2965
  654MOL0     H88286  11.650   7.560   8.865  1.1956  0.3411 -0.8109
  654MOL0     H88287  11.360   6.770   8.846 -0.8861 -1.0378 -0.3030
  654MOL0     H88288  11.319   6.536   8.859  1.5722 -0.6070  0.4741
  654MOL0     H88289  11.290   6.462   9.013 -0.1791  0.4210 -0.4017
  654MOL0     H88290  11.155   6.529   8.924 -1.6734  3.4776  3.6867
  655MOL0     O88291   6.989   9.778   8.487  0.5309 -0.3225 -0.0847
  655MOL0     C88292   6.951   9.854   8.389  0.3605 -0.1672 -0.4401
  655MOL0     O88293   7.033   9.886   8.284  0.8730 -1.2034  0.5950
  655MOL0     C88294   7.151   9.826   8.287 -0.5590  0.4254 -0.3253
  655MOL0     C88295   7.156   9.699   8.232 -0.0974 -0.2950 -0.4484
  655MOL0     C88296   7.264   9.613   8.236  0.2844  0.0538  1.0453
  655MOL0     C88297   7.382   9.654   8.300  0.8769  0.6099 -0.0155
  655MOL0     O88298   7.496   9.577   8.308  0.4944  0.1096 -0.7981
  655MOL0     C88299   7.469   9.436   8.345 -0.8183  0.4141 -0.6627
  655MOL0     C88300   7.619   9.375   8.357  0.4527 -0.5043 -0.3360
  655MOL0     C88301   7.612   9.219   8.364 -0.0938  1.1202  0.7083
  655MOL0     C88302   7.544   9.169   8.489 -0.2265  0.6653  0.2154
  655MOL0     C88303   7.554   9.011   8.503  1.0759 -0.1774 -0.3466
  655MOL0     C88304   7.686   8.936   8.492  0.3566  0.3247  0.5845
  655MOL0     C88305   7.793   8.999   8.594  0.3003  0.7918 -0.2199
  655MOL0     C88306   7.941   8.941   8.561 -0.3432 -0.1734  0.3733
  655MOL0     N88307   8.002   8.989   8.424  0.3874  0.2077 -0.1579
  655MOL0     C88308   8.007   9.118   8.396 -0.6185 -0.3742 -0.4362
  655MOL0     C88309   7.983   9.129   8.264 -0.3062  0.1716  0.7015
  655MOL0     C88310   7.980   9.257   8.189  0.2318  0.4281  0.3539
  655MOL0     C88311   8.121   9.309   8.169  0.0559  0.4479  0.0582
  655MOL0     C88312   8.204   9.215   8.079  0.3835  1.0001  0.2881
  655MOL0     C88313   8.340   9.278   8.052  0.4698 -0.0527  0.5857
  655MOL0     O88314   8.438   9.176   8.069  0.5672  0.5244  0.5438
  655MOL0     C88315   8.565   9.193   8.026  0.3779  0.6073 -0.3135
  655MOL0     C88316   8.660   9.095   8.033 -0.4397 -0.5196 -0.6933
  655MOL0     C88317   8.786   9.112   7.984  0.9258  0.0083  0.0820
  655MOL0     C88318   8.826   9.235   7.931  0.6373  0.5876  0.0210
  655MOL0     C88319   8.960   9.254   7.872 -0.1073 -0.1086 -0.5879
  655MOL0     O88320   9.039   9.145   7.847  0.3080 -0.1491 -0.2474
  655MOL0     C88321   9.173   9.167   7.820  1.0404 -0.5583  0.2221
  655MOL0     C88322   9.235   9.132   7.698  0.1760 -0.1274 -0.3926
  655MOL0     C88323   9.373   9.154   7.694  0.4381 -0.2513  0.0466
  655MOL0     C88324   9.457   9.200   7.792  0.7373 -0.2591  0.5498
  655MOL0     O88325   9.596   9.201   7.771 -0.5588 -0.1960 -0.2561
  655MOL0     C88326   9.674   9.186   7.895 -0.1617  0.2074  0.2935
  655MOL0     C88327   9.692   9.321   7.954 -0.2793 -0.5060 -0.2418
  655MOL0     C88328   9.798   9.315   8.068  0.1369 -0.0925  0.1550
  655MOL0     C88329   9.755   9.239   8.197 -0.2016  0.8361 -0.4246
  655MOL0     C88330   9.860   9.254   8.295  0.5561 -0.3207 -1.1880
  655MOL0     C88331   9.838   9.150   8.412 -1.0454 -0.4912 -0.9681
  655MOL0     C88332   9.748   9.207   8.523  0.9870  0.0001  0.2627
  655MOL0     C88333   9.627   9.120   8.535 -0.0092  0.6079 -0.8198
  655MOL0    Cl88334   9.666   8.946   8.577  0.6449 -0.3631  0.1586
  655MOL0     C88335   9.388   9.234   7.917 -0.0650  0.5458  0.6707
  655MOL0     C88336   9.249   9.205   7.929 -1.0089  0.5860  0.4175
  655MOL0     O88337   8.996   9.373   7.861  0.3677 -0.1268 -0.6070
  655MOL0     C88338   8.732   9.336   7.920  0.0483  0.0314 -0.6405
  655MOL0     C88339   8.605   9.314   7.970 -0.3883  0.7309  0.3071
  655MOL0     N88340   7.961   9.000   8.209  0.9290  0.4275 -0.3423
  655MOL0     N88341   7.967   8.915   8.313 -0.6989  0.4158  0.1300
  655MOL0     C88342   7.389   9.790   8.338  0.3960 -0.9565 -1.1110
  655MOL0     C88343   7.274   9.874   8.334  0.5083 -0.0571 -0.4601
  655MOL0     C88344   6.817   9.922   8.375  0.3082 -0.4402  0.3404
  655MOL0     C88345   6.792  10.024   8.280  0.9660 -0.4420 -0.0820
  655MOL0     C88346   6.671  10.062   8.249  0.8144 -0.1741  0.3409
  655MOL0     C88347   6.563  10.029   8.326 -0.2578  0.0133 -0.6556
  655MOL0     O88348   6.446  10.083   8.284 -0.5410 -0.4866 -0.1768
  655MOL0     C88349   6.321  10.034   8.351 -0.6042 -0.0301  0.1257
  655MOL0     C88350   6.192  10.089   8.296  0.2716 -0.0686  0.9684
  655MOL0     C88351   6.069  10.057   8.373 -0.0718  0.3376 -0.4786
  655MOL0     C88352   5.954  10.151   8.357 -0.4332  0.3201  0.3003
  655MOL0     C88353   5.836  10.086   8.416 -0.0905 -0.4165 -0.1637
  655MOL0     C88354   5.732  10.035   8.452 -0.1487  0.5482 -0.2022
  655MOL0     C88355   6.582   9.950   8.435  0.4248 -0.0090 -0.1326
  655MOL0     C88356   6.707   9.891   8.455 -0.7257 -0.3942 -0.0763
  655MOL0     C88357   6.713   9.786   8.573  1.4647 -0.1327  0.4439
  655MOL0     H88358   7.074   9.652   8.178  1.6927 -1.6818 -2.0776
  655MOL0     H88359   7.254   9.515   8.191  0.4376 -0.3263  1.8241
  655MOL0     H88360   7.424   9.425   8.444 -1.5526 -2.9497 -1.2420
  655MOL0     H88361   7.419   9.389   8.260  0.4623  0.8317 -1.6746
  655MOL0     H88362   7.684   9.401   8.441  3.3603 -2.3774 -1.8308
  655MOL0     H88363   7.663   9.407   8.262 -0.6396  0.5817 -0.4983
  655MOL0     H88364   7.714   9.179   8.356 -0.4884  0.4098 -1.4466
  655MOL0     H88365   7.550   9.174   8.286 -2.8304  0.8948  2.8594
  655MOL0     H88366   7.598   9.224   8.567  1.1477  2.5992 -1.9471
  655MOL0     H88367   7.439   9.199   8.492 -0.7584 -0.5574 -2.8054
  655MOL0     H88368   7.508   8.983   8.599 -1.6523  3.0537 -0.5411
  655MOL0     H88369   7.475   8.976   8.436  0.1236  0.7114  0.2926
  655MOL0     H88370   7.677   8.829   8.508 -2.9657  1.0573  6.5138
  655MOL0     H88371   7.722   8.948   8.390  1.2533  1.2668  0.9910
  655MOL0     H88372   7.768   8.968   8.696  1.4243 -2.0640 -0.7053
  655MOL0     H88373   7.788   9.107   8.582  4.6581  1.4785  2.2012
  655MOL0     H88374   7.998   8.973   8.648 -2.6196  2.6715  0.9814
  655MOL0     H88375   7.939   8.832   8.555  0.0348 -0.1027 -2.9428
  655MOL0     H88376   8.033   9.204   8.458  0.5068 -0.4764 -0.7375
  655MOL0     H88377   7.915   9.247   8.102 -0.5853 -1.2975  1.1105
  655MOL0     H88378   7.924   9.327   8.252 -2.2995 -0.4832 -0.7735
  655MOL0     H88379   8.116   9.405   8.116  0.9961 -0.1843 -1.1996
  655MOL0     H88380   8.178   9.310   8.263  1.9637 -4.6001 -0.7193
  655MOL0     H88381   8.154   9.205   7.983  3.2822 -1.0170 -1.1798
  655MOL0     H88382   8.205   9.110   8.111 -0.8233 -0.3863 -3.6327
  655MOL0     H88383   8.349   9.370   8.110 -0.3734  2.9410 -3.5782
  655MOL0     H88384   8.343   9.311   7.948 -1.3434  2.1822  1.1757
  655MOL0     H88385   8.631   8.999   8.076 -0.4678 -0.4594 -0.5782
  655MOL0     H88386   8.854   9.028   7.995 -1.2404 -2.3423 -2.8692
  655MOL0     H88387   9.166   9.084   7.629 -2.3852  0.5687  1.5265
  655MOL0     H88388   9.424   9.113   7.608 -1.8949 -0.2116 -1.4590
  655MOL0     H88389   9.620   9.122   7.964  2.1564 -1.2469  0.8419
  655MOL0     H88390   9.769   9.134   7.880  0.6448  1.8050 -0.3781
  655MOL0     H88391   9.728   9.392   7.878  0.7953  1.2208  1.7712
  655MOL0     H88392   9.595   9.361   7.986 -0.5922  3.0118 -4.5216
  655MOL0     H88393   9.876   9.252   8.026  1.1455  1.6866 -0.7722
  655MOL0     H88394   9.836   9.414   8.095  2.7384 -1.3183  1.3673
  655MOL0     H88395   9.731   9.133   8.186 -0.2641  0.3930  2.8966
  655MOL0     H88396   9.657   9.271   8.234 -0.1513 -2.2746  2.9595
  655MOL0     H88397   9.861   9.357   8.333  1.0936 -1.2425  1.4890
  655MOL0     H88398   9.962   9.249   8.255  1.2570  0.2626  0.4402
  655MOL0     H88399   9.803   9.053   8.378 -0.1980 -1.6010  1.0918
  655MOL0     H88400   9.933   9.125   8.462 -1.3228  2.2728  1.1835
  655MOL0     H88401   9.721   9.311   8.506 -1.7996 -0.5162  1.0313
  655MOL0     H88402   9.790   9.209   8.624 -0.5509  2.2230  0.9328
  655MOL0     H88403   9.564   9.154   8.617 -2.0579 -0.3555 -1.9153
  655MOL0     H88404   9.556   9.125   8.452 -3.1217  1.8094  1.7174
  655MOL0     H88405   9.431   9.260   8.013 -0.6550  0.0074  1.0833
  655MOL0     H88406   9.195   9.226   8.021  2.1581  2.2613  2.0751
  655MOL0     H88407   8.750   9.435   7.877 -5.9697  1.0272 -1.8423
  655MOL0     H88408   8.535   9.395   7.950 -0.7945  0.9226  2.3194
  655MOL0     H88409   7.481   9.825   8.385 -2.1961  1.5036  2.6816
  655MOL0     H88410   7.280   9.976   8.372 -0.0556  0.5206 -1.8601
  655MOL0     H88411   6.875  10.068   8.226  1.6581 -1.4001  0.1719
  655MOL0     H88412   6.651  10.141   8.178 -0.1422 -1.1466 -0.5065
  655MOL0     H88413   6.312  10.075   8.452 -0.6232  1.7381 -0.5566
  655MOL0     H88414   6.319   9.925   8.345  1.0584 -0.1783  1.4454
  655MOL0     H88415   6.174  10.055   8.194 -1.5080  3.4210 -0.0238
  655MOL0     H88416   6.204  10.197   8.283  0.6168 -0.3470 -1.3243
  655MOL0     H88417   6.084  10.036   8.480 -2.1797  3.9880  0.7037
  655MOL0     H88418   6.031   9.960   8.339 -2.5796  1.4057 -0.9652
  655MOL0     H88419   5.981  10.251   8.392 -0.2790 -0.6840  3.3515
  655MOL0     H88420   5.935  10.154   8.249  3.2137 -2.2244 -0.5997
  655MOL0     H88421   5.655   9.983   8.505 -0.2502  2.0905  1.2686
  655MOL0     H88422   6.500   9.931   8.504  1.8236 -2.9683  0.9287
  655MOL0     H88423   6.610   9.765   8.604  1.5606 -3.0314 -0.9424
  655MOL0     H88424   6.748   9.688   8.539  0.3217  0.6433 -3.4339
  655MOL0     H88425   6.759   9.831   8.662  0.7947 -1.1635  1.3375
  656MOL0     O88426   8.119   5.064   0.872  0.2259 -0.0705  0.4457
  656MOL0     C88427   8.007   5.086   0.835 -0.5754 -0.4584  0.0912
  656MOL0     O88428   7.915   5.161   0.905  0.3944  0.0700  0.4837
  656MOL0     C88429   7.939   5.263   0.994 -0.4288  0.8266 -0.0423
  656MOL0     C88430   8.036   5.361   0.984 -0.1748 -0.0028  0.0200
  656MOL0     C88431   8.042   5.462   1.084  0.2561 -0.3543 -0.0584
  656MOL0     C88432   7.966   5.456   1.196 -0.3097  0.2334  0.0762
  656MOL0     O88433   7.977   5.552   1.289 -0.1376 -0.9025 -0.1017
  656MOL0     C88434   7.945   5.530   1.427 -0.6087 -0.8957 -0.5351
  656MOL0     C88435   8.074   5.484   1.492 -0.2237 -0.2398 -0.1816
  656MOL0     C88436   8.177   5.588   1.480 -0.3867 -0.3357  0.7845
  656MOL0     C88437   8.292   5.553   1.567 -0.1713  0.6626  0.0004
  656MOL0     C88438   8.430   5.607   1.516  1.0660  0.9648  0.6009
  656MOL0     C88439   8.439   5.756   1.497 -0.8934 -0.9884 -0.2417
  656MOL0     C88440   8.388   5.840   1.618 -0.1954 -0.4375  0.5400
  656MOL0     C88441   8.422   5.987   1.622  0.3879  1.0383 -0.4005
  656MOL0     N88442   8.419   6.035   1.758  0.0914  0.6114 -0.1873
  656MOL0     C88443   8.304   6.056   1.831  0.3579  0.9146  0.5967
  656MOL0     C88444   8.354   6.092   1.954  0.1914 -0.9789  0.7174
  656MOL0     C88445   8.278   6.142   2.071  0.2355  0.4066 -0.0197
  656MOL0     C88446   8.316   6.291   2.095  0.5983 -0.1238  0.1463
  656MOL0     C88447   8.299   6.382   1.983 -0.8114  0.3302 -1.0332
  656MOL0     C88448   8.153   6.404   1.941 -0.7356  0.4862 -0.0013
  656MOL0     O88449   8.140   6.529   1.873  0.3929  0.6234 -0.0563
  656MOL0     C88450   8.020   6.556   1.805 -0.5692 -0.0068  0.1043
  656MOL0     C88451   8.006   6.669   1.723  0.1952 -0.1882  0.2762
  656MOL0     C88452   7.880   6.713   1.669  1.0772  0.3833 -0.5837
  656MOL0     C88453   7.764   6.647   1.717  0.3490 -0.4765  0.3388
  656MOL0     C88454   7.631   6.681   1.666  1.1368 -0.1589  0.4033
  656MOL0     O88455   7.612   6.799   1.600 -0.9942  0.6741 -0.1849
  656MOL0     C88456   7.479   6.831   1.578 -0.6662  0.1715 -0.3807
  656MOL0     C88457   7.412   6.812   1.458 -0.8269 -0.1140 -0.0233
  656MOL0     C88458   7.288   6.859   1.434  0.4544 -0.2035  0.8053
  656MOL0     C88459   7.231   6.937   1.531  0.3143  0.1783  0.3712
  656MOL0     O88460   7.118   7.007   1.500 -0.3002  0.2135  0.4371
  656MOL0     C88461   7.134   7.146   1.449 -0.3275  0.9871 -0.9038
  656MOL0     C88462   7.000   7.195   1.406  0.9583 -0.7105  0.3230
  656MOL0     C88463   6.986   7.342   1.366  0.0402 -0.2666 -1.5163
  656MOL0     C88464   6.862   7.374   1.278  0.7274 -0.0969 -1.2171
  656MOL0     C88465   6.876   7.507   1.202  0.2108  0.7177 -0.0179
  656MOL0     C88466   6.756   7.545   1.108  0.0291 -0.1785  0.3160
  656MOL0     C88467   6.797   7.667   1.023 -0.1911  0.4490 -0.2327
  656MOL0     C88468   6.716   7.679   0.902 -0.3974 -0.8920  1.2057
  656MOL0    Cl88469   6.550   7.713   0.945 -0.2908  0.2149  0.0236
  656MOL0     C88470   7.287   6.955   1.654 -1.6831 -0.2467 -0.0810
  656MOL0     C88471   7.417   6.905   1.676  0.2836  0.1839  0.8844
  656MOL0     O88472   7.536   6.606   1.701  0.1288  0.8590  0.3836
  656MOL0     C88473   7.781   6.536   1.810  0.6185 -0.1484  1.1813
  656MOL0     C88474   7.905   6.485   1.841  0.1690 -0.2442 -0.5727
  656MOL0     N88475   8.488   6.086   1.956 -0.0782 -0.1684  1.0906
  656MOL0     N88476   8.525   6.052   1.832 -0.1178  0.9069  0.7756
  656MOL0     C88477   7.870   5.356   1.211 -0.3338 -0.4837  0.2553
  656MOL0     C88478   7.860   5.253   1.113 -0.0395 -0.4820 -0.6234
  656MOL0     C88479   7.958   5.033   0.704 -0.7419 -0.7806  1.2388
  656MOL0     C88480   7.822   5.011   0.686  0.3259 -0.0442  0.9222
  656MOL0     C88481   7.764   4.961   0.569 -1.4269 -0.2208  0.2452
  656MOL0     C88482   7.845   4.918   0.473 -0.3466 -0.4533  0.5786
  656MOL0     O88483   7.795   4.855   0.363 -0.5319 -0.7262 -0.3029
  656MOL0     C88484   7.879   4.757   0.289  0.1549  0.1851  0.1074
  656MOL0     C88485   7.794   4.663   0.219 -0.0784 -0.0778  0.5411
  656MOL0     C88486   7.874   4.548   0.143  1.0632  0.2519  0.1624
  656MOL0     C88487   7.946   4.608   0.021  0.2271  0.6807 -0.3185
  656MOL0     C88488   7.986   4.503  -0.072  0.1531 -1.4364  0.9613
  656MOL0     C88489   8.018   4.433  -0.163 -0.4563  1.3967 -0.2155
  656MOL0     C88490   7.983   4.920   0.495 -0.1326 -0.7520  0.1789
  656MOL0     C88491   8.048   4.986   0.604  1.5973 -0.0277  0.4328
  656MOL0     C88492   8.195   4.997   0.594 -0.5805 -0.7468 -0.2684
  656MOL0     H88493   8.109   5.347   0.905  1.9229 -1.0071  2.0296
  656MOL0     H88494   8.124   5.532   1.075  0.0671 -0.1117  0.0847
  656MOL0     H88495   7.908   5.622   1.471  0.1309  0.3555 -2.4182
  656MOL0     H88496   7.862   5.459   1.442 -1.4839  0.4358  1.2705
  656MOL0     H88497   8.104   5.387   1.452 -0.1148 -0.5426  0.6026
  656MOL0     H88498   8.050   5.459   1.596  3.1490 -3.1912  0.0789
  656MOL0     H88499   8.138   5.690   1.493 -3.7854 -1.3123 -0.6368
  656MOL0     H88500   8.209   5.578   1.375 -0.2852 -1.3991  0.9130
  656MOL0     H88501   8.268   5.569   1.672 -0.9821 -4.0584  0.7862
  656MOL0     H88502   8.295   5.444   1.561 -1.9254  0.6413 -2.0072
  656MOL0     H88503   8.508   5.567   1.580  0.7176 -2.2694 -0.8289
  656MOL0     H88504   8.452   5.575   1.414  3.4034  1.0938  1.0065
  656MOL0     H88505   8.549   5.763   1.496 -0.9410 -0.1840 -0.8225
  656MOL0     H88506   8.401   5.789   1.400 -1.2866  1.8048  0.7563
  656MOL0     H88507   8.439   5.796   1.704  1.6185  0.6105  0.0606
  656MOL0     H88508   8.279   5.834   1.625 -0.4847  2.4954 -0.1578
  656MOL0     H88509   8.519   6.003   1.575  0.0141  0.0150 -1.5623
  656MOL0     H88510   8.350   6.049   1.567 -1.3610  0.4454  1.1010
  656MOL0     H88511   8.205   6.049   1.787  1.1771  1.0137 -1.3920
  656MOL0     H88512   8.172   6.133   2.046  0.2836 -3.5177  0.6368
  656MOL0     H88513   8.292   6.083   2.162 -2.1041 -2.9679 -1.6449
  656MOL0     H88514   8.262   6.336   2.179  0.5784  1.9534 -0.9146
  656MOL0     H88515   8.424   6.287   2.112  1.3168  4.2127 -2.1519
  656MOL0     H88516   8.371   6.362   1.903  2.8490 -0.5564  2.1909
  656MOL0     H88517   8.333   6.478   2.023 -0.8563  0.0056 -0.2098
  656MOL0     H88518   8.091   6.401   2.031 -0.9585  2.0324 -0.0795
  656MOL0     H88519   8.124   6.329   1.866 -1.8030  0.0202  0.8549
  656MOL0     H88520   8.100   6.706   1.684  0.4079 -3.2454 -2.5716
  656MOL0     H88521   7.873   6.796   1.600 -0.2233 -0.6062 -1.7085
  656MOL0     H88522   7.450   6.759   1.371 -0.3925 -1.1151  0.7621
  656MOL0     H88523   7.238   6.825   1.344  2.5967 -0.5984 -0.2951
  656MOL0     H88524   7.181   7.211   1.525 -2.7785  1.0517  0.6478
  656MOL0     H88525   7.198   7.134   1.361 -1.4280 -0.1984 -1.5740
  656MOL0     H88526   6.972   7.137   1.317 -1.2458 -1.6092  1.5211
  656MOL0     H88527   6.932   7.179   1.491  0.8660  0.1177  0.4108
  656MOL0     H88528   6.960   7.403   1.453 -1.4687 -1.4613 -1.0867
  656MOL0     H88529   7.086   7.361   1.326  1.2497 -0.1535  1.3421
  656MOL0     H88530   6.780   7.369   1.351 -0.8012 -0.0274 -2.8508
  656MOL0     H88531   6.859   7.292   1.206  1.2368  1.4712 -3.1467
  656MOL0     H88532   6.960   7.500   1.132 -1.8100  0.0187 -2.5385
  656MOL0     H88533   6.906   7.586   1.272  2.5526 -1.2624  1.4002
  656MOL0     H88534   6.733   7.468   1.033 -0.9276  0.7092 -0.3329
  656MOL0     H88535   6.662   7.554   1.163  1.0093 -0.5432  2.1359
  656MOL0     H88536   6.899   7.645   0.991  0.9414  2.3740  1.7918
  656MOL0     H88537   6.792   7.756   1.087 -0.9782  1.5057 -1.7050
  656MOL0     H88538   6.749   7.760   0.837 -0.9954  0.9870  3.1458
  656MOL0     H88539   6.724   7.589   0.840  0.3607  0.7725 -1.2810
  656MOL0     H88540   7.228   6.990   1.738  1.6482 -0.8294  2.7489
  656MOL0     H88541   7.469   6.925   1.769  3.8244 -3.2027 -0.0775
  656MOL0     H88542   7.690   6.495   1.853  1.2201 -0.8001  1.8579
  656MOL0     H88543   7.892   6.395   1.900  1.2164 -0.1801 -0.2178
  656MOL0     H88544   7.799   5.352   1.292 -0.5901  0.7413  0.1265
  656MOL0     H88545   7.788   5.174   1.133 -0.5222 -0.0222 -0.5391
  656MOL0     H88546   7.748   5.047   0.756 -0.0791  1.6173 -0.3038
  656MOL0     H88547   7.664   4.918   0.566  0.8997 -6.7144 -1.5752
  656MOL0     H88548   7.940   4.705   0.363 -0.8642 -1.6131 -0.2677
  656MOL0     H88549   7.944   4.810   0.219 -0.3545  1.3475  0.4874
  656MOL0     H88550   7.735   4.726   0.151 -1.1823  1.4764  2.8325
  656MOL0     H88551   7.721   4.622   0.289 -0.9576  2.0890  0.9750
  656MOL0     H88552   7.792   4.483   0.111 -0.6376  2.9695 -1.4184
  656MOL0     H88553   7.953   4.505   0.205 -0.0538 -0.1737  1.3343
  656MOL0     H88554   7.876   4.673  -0.032 -0.2609  0.8373  0.5067
  656MOL0     H88555   8.028   4.673   0.053 -0.9486  1.1857  1.8462
  656MOL0     H88556   8.050   4.366  -0.239  0.3662 -1.2748  2.2942
  656MOL0     H88557   8.061   4.870   0.439  0.9968  2.3207 -1.2105
  656MOL0     H88558   8.227   5.011   0.490  2.2667 -0.8346  0.5105
  656MOL0     H88559   8.206   5.089   0.652 -0.2873 -1.4155  0.7748
  656MOL0     H88560   8.233   4.901   0.630 -2.0045 -0.5422  1.9631
  657MOL0     O88561   8.095   4.873   7.201 -0.1100  0.7411  0.6101
  657MOL0     C88562   8.119   4.989   7.155 -0.6613  0.7471 -0.8655
  657MOL0     O88563   8.215   5.018   7.063  0.4478 -0.5617  0.2516
  657MOL0     C88564   8.318   4.932   7.055 -0.4701 -0.4759  0.3975
  657MOL0     C88565   8.304   4.805   6.991  0.4779  0.5873 -0.1372
  657MOL0     C88566   8.404   4.712   6.988  0.4819  0.2798  0.8685
  657MOL0     C88567   8.524   4.742   7.057  0.0887 -0.0311  1.1453
  657MOL0     O88568   8.626   4.645   7.040  0.6708  0.2417  0.1609
  657MOL0     C88569   8.742   4.646   7.135  0.3043 -0.1910  0.6444
  657MOL0     C88570   8.837   4.518   7.124  1.2960  1.0939 -0.3674
  657MOL0     C88571   8.922   4.502   7.003 -0.2005  0.3409 -0.0886
  657MOL0     C88572   8.845   4.475   6.872  0.0281  0.5275  0.3866
  657MOL0     C88573   8.920   4.382   6.774  0.4627  0.1929  0.6000
  657MOL0     C88574   8.826   4.342   6.652  0.2167 -0.1632 -0.6469
  657MOL0     C88575   8.900   4.307   6.525 -0.5268 -0.6639  0.2646
  657MOL0     C88576   8.816   4.293   6.399  1.0482  0.5917  0.2570
  657MOL0     N88577   8.895   4.276   6.290 -0.1168  0.6799  0.1756
  657MOL0     C88578   8.959   4.376   6.221  0.3380 -0.4045  0.7660
  657MOL0     C88579   8.998   4.320   6.109 -0.2510 -0.2795  0.1067
  657MOL0     C88580   9.039   4.391   5.990 -0.0022  0.1180  0.0295
  657MOL0     C88581   8.913   4.415   5.901  0.4660  0.9817  0.4019
  657MOL0     C88582   8.939   4.493   5.765 -0.8488  0.4056 -0.2157
  657MOL0     C88583   8.814   4.500   5.672 -0.5598 -0.7058 -0.1246
  657MOL0     O88584   8.786   4.364   5.635  0.1684  0.1032 -0.4308
  657MOL0     C88585   8.681   4.340   5.550  0.2532 -0.9080  0.8899
  657MOL0     C88586   8.695   4.219   5.479  0.7474  0.0690  0.2709
  657MOL0     C88587   8.597   4.169   5.396 -0.1247  0.3379 -0.4547
  657MOL0     C88588   8.486   4.243   5.368  0.5015 -0.7430 -0.3191
  657MOL0     C88589   8.383   4.195   5.276 -0.3038 -1.0943  0.0174
  657MOL0     O88590   8.278   4.279   5.253  0.1815  0.2035  0.1224
  657MOL0     C88591   8.167   4.226   5.198  0.5097 -0.1972  0.2536
  657MOL0     C88592   8.150   4.222   5.059 -0.2397  0.0641  0.2067
  657MOL0     C88593   8.043   4.164   5.005 -0.7094  0.1934 -0.4628
  657MOL0     C88594   7.947   4.093   5.086  0.1695 -0.2535 -0.3429
  657MOL0     O88595   7.838   4.029   5.031  0.5641 -0.1539 -0.7587
  657MOL0     C88596   7.789   4.082   4.903 -0.0873 -0.6361 -0.7466
  657MOL0     C88597   7.651   4.014   4.875 -0.2616  0.0737  0.2070
  657MOL0     C88598   7.670   3.858   4.864  0.6378  0.9148  0.9996
  657MOL0     C88599   7.551   3.785   4.935 -0.0069  0.1023  0.3456
  657MOL0     C88600   7.417   3.827   4.867  0.9864 -0.4942 -0.2409
  657MOL0     C88601   7.301   3.723   4.922 -0.2045  0.6931  0.1161
  657MOL0     C88602   7.153   3.776   4.913  0.8208  0.0169  0.0818
  657MOL0     C88603   7.121   3.882   4.806 -0.3306  1.3082  0.5760
  657MOL0    Cl88604   7.171   3.800   4.648  0.0823 -0.1285  0.2117
  657MOL0     C88605   7.954   4.098   5.223 -0.7506  1.4113 -0.9349
  657MOL0     C88606   8.066   4.162   5.280 -0.4978 -0.2487 -0.6140
  657MOL0     O88607   8.399   4.085   5.222 -0.1050 -0.1945  0.0747
  657MOL0     C88608   8.478   4.375   5.427  0.3518  0.5526 -0.2429
  657MOL0     C88609   8.572   4.417   5.521 -0.4206 -0.2793  0.6683
  657MOL0     N88610   8.945   4.187   6.111 -0.3726 -0.4126 -0.1123
  657MOL0     N88611   8.896   4.159   6.224 -0.7642 -1.5982 -0.5729
  657MOL0     C88612   8.544   4.870   7.113 -0.5764  0.1005 -0.2001
  657MOL0     C88613   8.440   4.969   7.108 -0.5435  0.2116 -0.0647
  657MOL0     C88614   8.027   5.094   7.192  0.1623  0.8147  0.1380
  657MOL0     C88615   8.077   5.206   7.274 -0.4192  0.2973 -0.1875
  657MOL0     C88616   7.997   5.325   7.282  0.2732  0.0966  0.8298
  657MOL0     C88617   7.862   5.319   7.244 -0.1215  0.3542 -0.6221
  657MOL0     O88618   7.785   5.428   7.283  0.8793  0.9864  0.1822
  657MOL0     C88619   7.676   5.406   7.368  0.5588  0.3180 -0.7936
  657MOL0     C88620   7.731   5.390   7.513  0.4875 -0.7955  1.0407
  657MOL0     C88621   7.802   5.524   7.557 -0.2380  0.8636 -0.0896
  657MOL0     C88622   7.829   5.496   7.707 -0.3873 -0.3757 -0.1800
  657MOL0     C88623   7.945   5.398   7.721  0.0606  0.3164 -0.0564
  657MOL0     C88624   8.045   5.332   7.726 -0.2934 -0.0981  0.0145
  657MOL0     C88625   7.810   5.207   7.191  0.4407 -0.8500  0.2420
  657MOL0     C88626   7.891   5.102   7.150 -0.8092  1.7119  0.4105
  657MOL0     C88627   7.825   4.990   7.068 -0.4706 -1.0397 -0.6458
  657MOL0     H88628   8.208   4.786   6.944  0.2836  0.8748  0.1403
  657MOL0     H88629   8.401   4.611   6.948  2.2576 -0.4208  2.3840
  657MOL0     H88630   8.806   4.732   7.111  1.7154 -1.0141  1.2971
  657MOL0     H88631   8.711   4.652   7.240 -0.1093 -0.4395  0.5337
  657MOL0     H88632   8.771   4.431   7.128  0.1919  1.9473  1.9042
  657MOL0     H88633   8.900   4.512   7.214  0.7489 -3.4137 -0.0478
  657MOL0     H88634   8.980   4.411   7.020 -0.1356  0.1188 -1.4033
  657MOL0     H88635   8.978   4.594   6.982 -1.4481  0.6504 -2.4395
  657MOL0     H88636   8.750   4.430   6.900  0.2793 -0.8022 -0.8047
  657MOL0     H88637   8.822   4.570   6.822  0.2212  0.2219 -0.2870
  657MOL0     H88638   9.009   4.436   6.741  0.6941 -0.7315 -0.3405
  657MOL0     H88639   8.957   4.286   6.810 -1.7554 -0.7306  0.5670
  657MOL0     H88640   8.775   4.257   6.698  2.5110 -1.9056 -1.1323
  657MOL0     H88641   8.754   4.424   6.640 -0.2269 -0.2339  1.2100
  657MOL0     H88642   8.955   4.213   6.534 -1.5794 -1.3459 -0.2490
  657MOL0     H88643   8.975   4.382   6.498 -0.2417 -1.1911 -0.4351
  657MOL0     H88644   8.754   4.205   6.417  0.6156  0.5257 -1.3876
  657MOL0     H88645   8.751   4.379   6.380 -1.0944 -0.8007  0.9229
  657MOL0     H88646   8.960   4.483   6.242 -0.6433  0.0660 -1.3051
  657MOL0     H88647   9.096   4.483   6.007 -3.0665  1.7929  2.1961
  657MOL0     H88648   9.104   4.322   5.935  2.9591  2.0478  0.8647
  657MOL0     H88649   8.864   4.320   5.881 -0.6103  1.4952  0.5509
  657MOL0     H88650   8.830   4.467   5.950 -2.0213 -1.2494 -1.1636
  657MOL0     H88651   9.018   4.444   5.708 -1.4904  3.1607 -3.8786
  657MOL0     H88652   8.973   4.596   5.778 -1.7252  0.4182  2.8029
  657MOL0     H88653   8.834   4.576   5.596  3.0473  0.9554  2.1983
  657MOL0     H88654   8.738   4.551   5.732  0.5818  3.5410 -1.9461
  657MOL0     H88655   8.775   4.152   5.510  0.0554 -2.6535 -3.1924
  657MOL0     H88656   8.595   4.068   5.356 -2.6333  1.5018 -3.8165
  657MOL0     H88657   8.235   4.264   5.006  1.1865 -0.3715  2.0425
  657MOL0     H88658   8.029   4.165   4.898 -0.8705 -0.7564 -0.4560
  657MOL0     H88659   7.769   4.189   4.913  0.7836 -0.4745 -0.6586
  657MOL0     H88660   7.852   4.066   4.815  0.0673  1.8305 -1.1465
  657MOL0     H88661   7.584   4.037   4.958 -2.5446 -3.7392 -0.3401
  657MOL0     H88662   7.607   4.039   4.778  0.2558 -0.2863 -0.1311
  657MOL0     H88663   7.687   3.823   4.762  0.0275  2.8015  0.2043
  657MOL0     H88664   7.760   3.831   4.921 -0.6766 -1.6903  1.9791
  657MOL0     H88665   7.561   3.808   5.041  2.7071  0.8483  0.0043
  657MOL0     H88666   7.565   3.677   4.917  2.2349  0.7206 -2.4192
  657MOL0     H88667   7.418   3.827   4.758 -1.7914  2.4753 -0.4220
  657MOL0     H88668   7.386   3.927   4.899  3.5885  0.0683  0.7509
  657MOL0     H88669   7.321   3.626   4.874  3.7142  1.3792  0.0417
  657MOL0     H88670   7.332   3.709   5.026 -2.3006 -0.7658  0.6195
  657MOL0     H88671   7.130   3.814   5.013 -0.3587  1.0671 -0.5551
  657MOL0     H88672   7.101   3.684   4.886  2.0826  0.0117 -2.6351
  657MOL0     H88673   7.015   3.906   4.811 -0.0451  4.0771 -2.7672
  657MOL0     H88674   7.177   3.975   4.823 -1.6504  1.9250  1.7218
  657MOL0     H88675   7.874   4.048   5.278  1.7757  2.9292  4.9196
  657MOL0     H88676   8.081   4.153   5.387  1.5189  2.0429 -0.6052
  657MOL0     H88677   8.385   4.431   5.423 -1.8256 -2.5355  2.2219
  657MOL0     H88678   8.561   4.509   5.577 -0.4558  0.6626 -0.8544
  657MOL0     H88679   8.640   4.892   7.160  1.1649  0.6242 -3.7105
  657MOL0     H88680   8.441   5.071   7.145  1.1093  0.5655 -0.9539
  657MOL0     H88681   8.184   5.201   7.295 -0.4767  1.6588  0.5693
  657MOL0     H88682   8.037   5.424   7.303  1.3174 -0.3129  0.8048
  657MOL0     H88683   7.614   5.318   7.349  0.8731 -0.1591  0.3284
  657MOL0     H88684   7.607   5.491   7.376 -1.0227 -0.9839 -0.0577
  657MOL0     H88685   7.802   5.306   7.511 -0.2927 -1.5648  3.2405
  657MOL0     H88686   7.644   5.377   7.577  0.0776  1.1765  0.9322
  657MOL0     H88687   7.744   5.615   7.536  0.5428  1.3176 -0.3226
  657MOL0     H88688   7.898   5.542   7.508 -0.5710  3.3391  0.0083
  657MOL0     H88689   7.865   5.592   7.747 -3.4310  0.8870 -0.2383
  657MOL0     H88690   7.743   5.483   7.774  1.1235  1.1272  2.2221
  657MOL0     H88691   8.143   5.289   7.732  0.4794  0.9684 -3.0784
  657MOL0     H88692   7.705   5.227   7.173 -0.3166 -1.7798  3.1573
  657MOL0     H88693   7.870   4.894   7.093  2.2454 -1.0929 -4.7322
  657MOL0     H88694   7.716   4.983   7.076 -0.3594 -2.7094 -0.4190
  657MOL0     H88695   7.856   5.004   6.964  1.0769  0.1116 -0.0771
  658MOL0     O88696   2.207   1.867   0.380 -0.3964  0.1944 -0.8797
  658MOL0     C88697   2.168   1.892   0.270  0.3035  1.2292 -0.1921
  658MOL0     O88698   2.060   1.832   0.213  0.2782 -0.8096 -0.1732
  658MOL0     C88699   2.000   1.733   0.292  0.3035  0.6217  0.5998
  658MOL0     C88700   1.945   1.754   0.418  0.1930  0.0003  1.3834
  658MOL0     C88701   1.895   1.651   0.496  0.0784  0.7015  0.3666
  658MOL0     C88702   1.903   1.517   0.461  0.3999  0.3896  0.8037
  658MOL0     O88703   1.842   1.426   0.537  0.3224 -0.3352 -0.1084
  658MOL0     C88704   1.850   1.286   0.508  0.3579 -0.4392  0.0646
  658MOL0     C88705   1.791   1.197   0.624 -0.2189  0.6465  1.0817
  658MOL0     C88706   1.833   1.246   0.766 -0.3290 -0.7609 -0.1138
  658MOL0     C88707   1.753   1.157   0.874 -0.3483  0.0456 -0.3834
  658MOL0     C88708   1.756   1.206   1.015 -0.1760  0.5719 -0.4241
  658MOL0     C88709   1.670   1.120   1.093 -0.1901  0.0354  0.2026
  658MOL0     C88710   1.708   1.116   1.236  0.4125 -0.3799 -0.7870
  658MOL0     C88711   1.620   1.046   1.325  0.8928  0.6826 -0.1790
  658MOL0     N88712   1.610   0.914   1.277  0.4762 -0.0978 -0.6568
  658MOL0     C88713   1.494   0.857   1.231 -0.2637  0.1961  0.2525
  658MOL0     C88714   1.534   0.736   1.185 -0.7127 -0.3528  0.4303
  658MOL0     C88715   1.465   0.630   1.110 -0.6082  0.6126 -0.0492
  658MOL0     C88716   1.489   0.648   0.954  0.1675  0.6904  0.4419
  658MOL0     C88717   1.412   0.549   0.877 -0.4713  0.3744  0.1033
  658MOL0     C88718   1.464   0.408   0.901 -0.2108  0.0657 -0.7535
  658MOL0     O88719   1.392   0.320   0.814 -0.2868 -0.1322 -0.3470
  658MOL0     C88720   1.291   0.250   0.873  0.9705  0.8459  0.0245
  658MOL0     C88721   1.234   0.146   0.787 -0.9016 -0.6285 -1.4560
  658MOL0     C88722   1.126   0.072   0.840  0.4888 -0.2337  0.4758
  658MOL0     C88723   1.080   0.077   0.974  0.0980 -0.2141  0.4912
  658MOL0     C88724   0.969   0.000   1.029  0.5258 -0.2568 -0.2412
  658MOL0     O88725   0.941  -0.112   0.955  0.1789  0.0754 -0.5945
  658MOL0     C88726   0.835  -0.196   0.982 -0.0729 -0.8520  0.7118
  658MOL0     C88727   0.810  -0.286   0.879 -0.2445  0.3427 -0.9667
  658MOL0     C88728   0.681  -0.337   0.867  0.1144  0.2389 -0.5029
  658MOL0     C88729   0.582  -0.334   0.965  0.0789 -0.7475 -0.7111
  658MOL0     O88730   0.453  -0.387   0.939 -0.5928 -0.0473  1.1827
  658MOL0     C88731   0.420  -0.515   0.864  0.4225 -0.6467 -0.9256
  658MOL0     C88732   0.268  -0.521   0.869  0.3225 -0.9090  0.3427
  658MOL0     C88733   0.223  -0.618   0.766 -0.6168  0.4240 -0.2665
  658MOL0     C88734   0.078  -0.664   0.789 -0.1433  0.2186  0.3388
  658MOL0     C88735   0.021  -0.759   0.678  0.8541 -0.0598 -0.0925
  658MOL0     C88736   0.104  -0.887   0.651 -0.4662  1.2083 -0.3693
  658MOL0     C88737   0.120  -0.896   0.494 -0.0456 -0.1663  0.4431
  658MOL0     C88738   0.102  -1.041   0.440 -0.4884  0.2344 -0.1119
  658MOL0    Cl88739  -0.070  -1.098   0.447 -0.1379  0.4468  0.6058
  658MOL0     C88740   0.610  -0.258   1.082 -0.0004 -0.3956  1.0089
  658MOL0     C88741   0.738  -0.185   1.082 -0.1093 -0.5843  1.1777
  658MOL0     O88742   0.941   0.022   1.148 -0.5001 -0.3416 -0.4058
  658MOL0     C88743   1.145   0.177   1.055  1.0945  0.2133 -0.7034
  658MOL0     C88744   1.243   0.257   1.003  0.2075 -0.3513 -0.4186
  658MOL0     N88745   1.664   0.727   1.220 -0.3889 -0.4461  0.1910
  658MOL0     N88746   1.711   0.829   1.274 -0.0007 -0.8354  0.1710
  658MOL0     C88747   1.953   1.491   0.330 -1.3135  0.2971  0.6664
  658MOL0     C88748   2.001   1.599   0.248 -0.2143 -0.5381  0.7319
  658MOL0     C88749   2.245   1.986   0.180  0.8696 -0.9957  1.0471
  658MOL0     C88750   2.243   1.969   0.042 -0.3379 -0.2368  0.1280
  658MOL0     C88751   2.318   2.055  -0.038 -0.9598  0.0068  0.9007
  658MOL0     C88752   2.409   2.156   0.008 -0.3296  0.4597 -0.7709
  658MOL0     O88753   2.484   2.222  -0.089 -0.9080 -0.6057 -0.2567
  658MOL0     C88754   2.577   2.331  -0.062  0.6432 -1.1742  0.0684
  658MOL0     C88755   2.507   2.466  -0.035  0.4970 -0.0843  0.2785
  658MOL0     C88756   2.415   2.498  -0.147 -0.0436  0.4792  0.3514
  658MOL0     C88757   2.324   2.623  -0.142 -0.0199  0.3122 -0.6752
  658MOL0     C88758   2.251   2.647  -0.264  0.1179 -0.4045 -0.3237
  658MOL0     C88759   2.204   2.684  -0.365 -1.2425  1.6601  0.4125
  658MOL0     C88760   2.399   2.181   0.142 -0.8242 -0.0694  0.4169
  658MOL0     C88761   2.309   2.099   0.224 -0.3976 -0.4006  0.3100
  658MOL0     C88762   2.295   2.158   0.364 -1.0320  0.3852 -0.2606
  658MOL0     H88763   1.941   1.853   0.462 -2.4411 -0.3145  2.0364
  658MOL0     H88764   1.855   1.676   0.594 -0.1074  0.4174  0.3655
  658MOL0     H88765   1.798   1.257   0.416  0.1806  1.1507 -0.3636
  658MOL0     H88766   1.958   1.270   0.495  1.0835  1.2607  2.9427
  658MOL0     H88767   1.817   1.092   0.609  0.3058  0.7853  0.9993
  658MOL0     H88768   1.683   1.199   0.611 -0.2371 -0.3605  1.0277
  658MOL0     H88769   1.797   1.349   0.777  1.4993  0.2270 -2.4455
  658MOL0     H88770   1.943   1.241   0.771 -0.2965  0.0039  0.1726
  658MOL0     H88771   1.649   1.150   0.840 -1.2050 -0.2097  2.0834
  658MOL0     H88772   1.784   1.052   0.866 -0.3146 -0.2711  2.6958
  658MOL0     H88773   1.860   1.192   1.045 -0.5487 -0.6287  0.3619
  658MOL0     H88774   1.720   1.310   1.021 -0.9010  0.2545  0.9651
  658MOL0     H88775   1.564   1.144   1.102 -1.0982 -3.1380 -0.7600
  658MOL0     H88776   1.694   1.019   1.060  1.0010  0.2916  0.2494
  658MOL0     H88777   1.704   1.215   1.282 -0.3301 -1.4594  1.6180
  658MOL0     H88778   1.805   1.068   1.252 -0.1309 -0.6312  2.4500
  658MOL0     H88779   1.667   1.043   1.423  3.3499 -1.9589 -1.3107
  658MOL0     H88780   1.520   1.090   1.333  0.2012 -0.5720 -1.4860
  658MOL0     H88781   1.394   0.899   1.219 -1.9022 -3.8669 -2.3107
  658MOL0     H88782   1.489   0.528   1.141 -0.8630 -0.1938 -2.3242
  658MOL0     H88783   1.357   0.638   1.126 -0.7498 -0.7715 -0.1816
  658MOL0     H88784   1.452   0.746   0.924  1.1955  1.5244  1.8172
  658MOL0     H88785   1.595   0.627   0.938  0.2429 -1.2988  2.9062
  658MOL0     H88786   1.433   0.577   0.773  0.7928 -0.9281 -0.0271
  658MOL0     H88787   1.304   0.548   0.896 -0.3132  0.9391  1.1310
  658MOL0     H88788   1.459   0.374   1.005 -0.6739 -3.2973 -1.7380
  658MOL0     H88789   1.571   0.399   0.881  0.8994 -2.3154  4.6783
  658MOL0     H88790   1.271   0.134   0.686 -1.2000 -1.1423 -1.5089
  658MOL0     H88791   1.072  -0.001   0.780 -0.8459 -0.6564  2.1022
  658MOL0     H88792   0.870  -0.277   0.789 -1.4978  1.9986 -1.6759
  658MOL0     H88793   0.664  -0.396   0.777  3.1951 -0.3960 -0.7730
  658MOL0     H88794   0.466  -0.516   0.765  3.7782 -0.9222  0.4755
  658MOL0     H88795   0.457  -0.605   0.914  1.7240  1.5708  2.4581
  658MOL0     H88796   0.234  -0.561   0.965 -1.5963 -1.0842 -0.3882
  658MOL0     H88797   0.220  -0.423   0.857  0.9150  0.0737  4.4666
  658MOL0     H88798   0.233  -0.572   0.667 -2.7741  1.8113  0.0921
  658MOL0     H88799   0.292  -0.703   0.773  0.7484  1.5771  0.9329
  658MOL0     H88800   0.004  -0.583   0.793 -0.8691 -0.1820 -2.7733
  658MOL0     H88801   0.090  -0.720   0.883  1.0207  1.1554  0.7726
  658MOL0     H88802   0.015  -0.693   0.590  0.7385 -1.9159 -1.5437
  658MOL0     H88803  -0.079  -0.793   0.707  1.5519  0.3791  3.1514
  658MOL0     H88804   0.201  -0.874   0.699 -0.6477 -0.3368  0.4694
  658MOL0     H88805   0.053  -0.974   0.693  0.3265 -0.8307 -3.3225
  658MOL0     H88806   0.222  -0.864   0.469 -0.1277  0.0546  0.3855
  658MOL0     H88807   0.061  -0.824   0.436  3.3416  0.8827 -2.0264
  658MOL0     H88808   0.145  -1.032   0.340  2.3439  0.6417  1.0234
  658MOL0     H88809   0.153  -1.124   0.492 -6.0615 -1.9468  2.6508
  658MOL0     H88810   0.539  -0.247   1.163 -1.2963 -1.3471  0.0510
  658MOL0     H88811   0.757  -0.107   1.155  0.1425  1.7681 -1.2721
  658MOL0     H88812   1.119   0.199   1.159 -1.5462 -0.7708 -1.0676
  658MOL0     H88813   1.285   0.330   1.072  1.3732 -2.6178  1.4045
  658MOL0     H88814   1.952   1.391   0.287 -0.6146  0.7013 -0.3404
  658MOL0     H88815   2.039   1.583   0.147 -1.2776  0.0047  0.2285
  658MOL0     H88816   2.187   1.900  -0.021 -0.7368  0.8865 -0.7710
  658MOL0     H88817   2.330   2.046  -0.146 -0.1298  1.5954  0.8298
  658MOL0     H88818   2.642   2.350  -0.148  2.1199  1.4417  1.6206
  658MOL0     H88819   2.648   2.298   0.014  2.9660  0.4299 -1.2414
  658MOL0     H88820   2.592   2.534  -0.024  0.7839 -0.7324  2.6152
  658MOL0     H88821   2.449   2.472   0.058  1.5185 -1.6971  1.0674
  658MOL0     H88822   2.344   2.416  -0.166 -0.9269  1.3071 -0.0220
  658MOL0     H88823   2.478   2.527  -0.231 -0.9013  3.7011  0.7042
  658MOL0     H88824   2.258   2.596  -0.060 -0.9880 -0.3180 -1.6294
  658MOL0     H88825   2.383   2.712  -0.117 -1.5516  0.8442  1.2074
  658MOL0     H88826   2.165   2.709  -0.462 -0.4067  0.1552 -0.3519
  658MOL0     H88827   2.447   2.271   0.178 -1.0411  1.6646 -3.2629
  658MOL0     H88828   2.269   2.264   0.359 -0.6345  0.5078  0.1827
  658MOL0     H88829   2.199   2.126   0.404 -2.0224  1.3577 -1.7641
  658MOL0     H88830   2.380   2.139   0.430 -0.5086 -2.9441 -1.7154
  659MOL0     O88831   5.371   4.871   7.992  0.1885 -0.2440 -0.2170
  659MOL0     C88832   5.344   4.980   8.036  0.2577 -1.3731 -0.5003
  659MOL0     O88833   5.312   5.093   7.968  0.1080  0.2020  0.3107
  659MOL0     C88834   5.312   5.082   7.834 -0.0768  0.5966  0.7240
  659MOL0     C88835   5.429   5.109   7.765 -0.5446 -0.0963  0.3297
  659MOL0     C88836   5.439   5.103   7.622 -0.0526 -0.4528 -0.3497
  659MOL0     C88837   5.315   5.070   7.552  0.8605 -0.0907  0.2758
  659MOL0     O88838   5.306   5.033   7.421  0.0945  0.6028 -0.2478
  659MOL0     C88839   5.398   5.083   7.322 -0.5204 -0.6705 -0.3265
  659MOL0     C88840   5.319   5.134   7.197  0.7109 -0.5204 -0.1632
  659MOL0     C88841   5.201   5.043   7.142  0.2027  0.1573 -2.3891
  659MOL0     C88842   5.245   4.897   7.128 -0.0101  0.6229 -0.2653
  659MOL0     C88843   5.139   4.802   7.064 -0.4357 -0.6712 -0.9312
  659MOL0     C88844   5.185   4.656   7.048 -0.2742 -0.9525  0.6643
  659MOL0     C88845   5.237   4.597   7.175  0.1842  0.1497  0.4956
  659MOL0     C88846   5.399   4.563   7.180 -0.2946  0.1260 -1.6085
  659MOL0     N88847   5.441   4.462   7.082  0.2547  0.0136  0.0373
  659MOL0     C88848   5.442   4.332   7.109  1.1423  0.1448  0.6036
  659MOL0     C88849   5.505   4.281   7.000 -0.0244  0.8562  1.2101
  659MOL0     C88850   5.534   4.136   6.961  1.1417 -0.7398  0.0245
  659MOL0     C88851   5.677   4.096   6.988  0.2926  0.0998 -0.4116
  659MOL0     C88852   5.688   4.066   7.133  0.0451  0.2051  0.2109
  659MOL0     C88853   5.836   4.022   7.169 -0.2840 -0.6198 -0.7798
  659MOL0     O88854   5.835   3.879   7.175 -0.1095  0.6381 -0.4029
  659MOL0     C88855   5.917   3.817   7.268 -0.3492  0.9720 -0.2922
  659MOL0     C88856   5.897   3.683   7.302  0.5093  0.9333 -0.4723
  659MOL0     C88857   5.983   3.602   7.385 -0.9714  0.3223 -0.7239
  659MOL0     C88858   6.104   3.654   7.421  0.5348  0.7175  0.0570
  659MOL0     C88859   6.217   3.575   7.469  0.3181  0.2288 -0.7991
  659MOL0     O88860   6.313   3.643   7.535 -0.1366 -0.3106 -0.1404
  659MOL0     C88861   6.440   3.586   7.549  0.1257  0.2660 -0.6804
  659MOL0     C88862   6.508   3.604   7.670  0.6993 -0.3549 -0.0880
  659MOL0     C88863   6.642   3.560   7.681 -0.6377 -0.3323  0.4983
  659MOL0     C88864   6.704   3.508   7.571 -0.1037  0.6708  0.9820
  659MOL0     O88865   6.831   3.483   7.597  0.7185  1.0411  0.8102
  659MOL0     C88866   6.915   3.427   7.502 -0.2505  0.1536 -0.2813
  659MOL0     C88867   7.057   3.414   7.553  0.5673  0.0347 -0.1472
  659MOL0     C88868   7.136   3.291   7.505  0.1818  0.2143 -0.0146
  659MOL0     C88869   7.234   3.235   7.603  0.8034 -0.0366 -0.1120
  659MOL0     C88870   7.337   3.138   7.533  0.0531  0.2094  0.3843
  659MOL0     C88871   7.255   3.040   7.440  0.6982 -1.3310  0.3910
  659MOL0     C88872   7.349   2.932   7.392 -0.8186 -0.4556 -0.0753
  659MOL0     C88873   7.277   2.812   7.321  1.0095 -0.5672 -0.0626
  659MOL0    Cl88874   7.387   2.688   7.276  0.3499  0.3641 -0.1378
  659MOL0     C88875   6.640   3.501   7.448 -0.1920 -0.5922 -0.2153
  659MOL0     C88876   6.505   3.537   7.436 -0.2563 -0.1482 -1.2365
  659MOL0     O88877   6.212   3.455   7.466 -0.4118 -0.2849  0.8934
  659MOL0     C88878   6.122   3.787   7.399  0.1296 -0.3889 -0.3040
  659MOL0     C88879   6.029   3.866   7.320 -0.8216  0.3121 -0.0917
  659MOL0     N88880   5.552   4.381   6.918 -0.2835 -1.1152 -0.2910
  659MOL0     N88881   5.528   4.502   6.977  0.0111  0.1846 -0.4429
  659MOL0     C88882   5.191   5.045   7.620  0.8940  0.0615  0.4781
  659MOL0     C88883   5.194   5.052   7.759  0.4013  0.3618  0.0433
  659MOL0     C88884   5.344   4.998   8.177 -0.2288  1.1935 -0.1166
  659MOL0     C88885   5.418   4.899   8.255  1.1076 -0.0865 -0.2737
  659MOL0     C88886   5.411   4.896   8.395 -0.3009 -1.0961  0.4487
  659MOL0     C88887   5.350   5.006   8.463 -0.7325  0.5239  0.1608
  659MOL0     O88888   5.362   5.029   8.601 -0.1632  0.6503 -0.2582
  659MOL0     C88889   5.488   5.000   8.668  0.1117 -0.3501  0.5304
  659MOL0     C88890   5.604   5.077   8.610 -0.3635  0.2501 -0.0278
  659MOL0     C88891   5.741   5.030   8.661  0.7593  0.5691 -0.1506
  659MOL0     C88892   5.749   5.004   8.816 -0.4405 -0.1877  0.1072
  659MOL0     C88893   5.727   5.134   8.879 -0.0050 -0.1018  0.7094
  659MOL0     C88894   5.710   5.249   8.919 -0.4256  0.5918 -0.4031
  659MOL0     C88895   5.289   5.105   8.390 -0.2278 -0.0887 -0.5050
  659MOL0     C88896   5.278   5.098   8.253 -0.2559  0.9498  0.7735
  659MOL0     C88897   5.188   5.198   8.197  0.3649 -0.8549 -0.5727
  659MOL0     H88898   5.521   5.120   7.823  0.3226 -0.2097 -0.9807
  659MOL0     H88899   5.532   5.107   7.567 -0.0557 -3.1477 -0.6470
  659MOL0     H88900   5.472   5.157   7.354 -0.3050 -1.0782  0.1256
  659MOL0     H88901   5.468   5.004   7.293  0.9589  0.2739  0.5252
  659MOL0     H88902   5.398   5.152   7.123  0.6936 -0.8637 -0.2645
  659MOL0     H88903   5.279   5.229   7.234  1.5639 -1.2328  2.8196
  659MOL0     H88904   5.160   5.074   7.045  1.3634  1.9960 -2.3500
  659MOL0     H88905   5.124   5.042   7.219  3.1085 -2.7295  0.8432
  659MOL0     H88906   5.335   4.893   7.065 -2.1645  1.8995 -3.7413
  659MOL0     H88907   5.270   4.858   7.227 -0.7721 -1.0037 -0.6751
  659MOL0     H88908   5.057   4.796   7.136  1.2417 -1.1015  1.0520
  659MOL0     H88909   5.105   4.841   6.968 -0.9480  0.2434 -0.3942
  659MOL0     H88910   5.098   4.597   7.018  0.5258 -1.4091 -0.8896
  659MOL0     H88911   5.267   4.644   6.976 -0.7204 -5.7460  0.5784
  659MOL0     H88912   5.175   4.509   7.194 -0.6016  1.2769  3.8663
  659MOL0     H88913   5.225   4.662   7.262  3.3986  1.3678  0.1857
  659MOL0     H88914   5.448   4.660   7.166  1.7244 -1.1761 -4.5446
  659MOL0     H88915   5.421   4.524   7.279  0.8994  2.2693 -0.9689
  659MOL0     H88916   5.398   4.270   7.187  0.7919 -2.1942 -1.3404
  659MOL0     H88917   5.465   4.066   7.009  1.8589  0.3546  2.8633
  659MOL0     H88918   5.516   4.133   6.853 -0.0432  0.6284  0.1544
  659MOL0     H88919   5.706   4.015   6.921 -3.0903 -0.8403 -0.9037
  659MOL0     H88920   5.735   4.185   6.965 -0.7661  0.3993 -2.0975
  659MOL0     H88921   5.611   3.993   7.160  1.5911 -0.6102  2.7108
  659MOL0     H88922   5.671   4.161   7.185 -1.7207 -1.0311  2.0435
  659MOL0     H88923   5.861   4.072   7.263 -1.1352  2.4226 -2.0515
  659MOL0     H88924   5.907   4.068   7.099 -1.6804  3.1432  0.0249
  659MOL0     H88925   5.815   3.623   7.263 -0.2297  0.7032  1.3071
  659MOL0     H88926   5.957   3.497   7.382  0.4986 -0.1084  0.7129
  659MOL0     H88927   6.464   3.655   7.755  0.5555  0.3871 -0.5927
  659MOL0     H88928   6.687   3.583   7.777  0.1164  0.0303  0.0669
  659MOL0     H88929   6.857   3.340   7.469 -1.0741  0.8051 -0.6013
  659MOL0     H88930   6.922   3.489   7.412 -0.1095 -1.2349 -1.2797
  659MOL0     H88931   7.115   3.499   7.515  3.2589 -2.5435 -2.2958
  659MOL0     H88932   7.058   3.400   7.662 -1.2298  0.6244 -0.0306
  659MOL0     H88933   7.062   3.219   7.471  0.4445 -0.1421  0.1576
  659MOL0     H88934   7.189   3.311   7.410  1.9954 -0.4714  0.7980
  659MOL0     H88935   7.189   3.172   7.680  2.8140  0.8542  1.9096
  659MOL0     H88936   7.286   3.319   7.649 -5.6317  2.9830  2.8831
  659MOL0     H88937   7.398   3.086   7.607  1.0892  2.6555  1.3523
  659MOL0     H88938   7.400   3.199   7.466 -0.4685 -0.7205 -0.9943
  659MOL0     H88939   7.179   2.986   7.497 -1.0892  2.9356  2.5836
  659MOL0     H88940   7.217   3.092   7.352 -3.2761 -2.8198  1.0251
  659MOL0     H88941   7.409   2.879   7.467 -2.1957 -1.9987 -0.0262
  659MOL0     H88942   7.411   2.981   7.316  1.3902 -1.4666  0.9655
  659MOL0     H88943   7.199   2.774   7.388  1.5207  0.7662  1.3790
  659MOL0     H88944   7.231   2.850   7.230 -1.8913  1.1922  1.9681
  659MOL0     H88945   6.698   3.486   7.357 -0.9537  0.0613 -0.8179
  659MOL0     H88946   6.444   3.534   7.346 -0.3946 -1.7449 -1.1165
  659MOL0     H88947   6.216   3.824   7.438  0.2051 -0.3179 -0.5480
  659MOL0     H88948   6.057   3.962   7.278  0.9027 -0.0645  0.0891
  659MOL0     H88949   5.104   5.014   7.563  0.2216 -0.9988  2.0276
  659MOL0     H88950   5.107   5.024   7.817  0.2288 -0.4714 -0.5915
  659MOL0     H88951   5.465   4.815   8.205 -1.6064 -0.5406 -2.2950
  659MOL0     H88952   5.461   4.823   8.458  0.6668  0.1310  1.1478
  659MOL0     H88953   5.503   4.892   8.663  0.0090 -0.4656  2.3126
  659MOL0     H88954   5.488   5.022   8.775 -0.3356  0.3075  0.3973
  659MOL0     H88955   5.591   5.185   8.622 -5.4366 -0.3938  2.9872
  659MOL0     H88956   5.614   5.056   8.503  4.5314 -3.0147  0.7383
  659MOL0     H88957   5.824   5.098   8.641  1.7095 -1.3092 -3.4280
  659MOL0     H88958   5.755   4.934   8.610 -0.9584  1.0624 -1.6689
  659MOL0     H88959   5.681   4.925   8.850  0.1865 -0.8180 -0.0602
  659MOL0     H88960   5.855   4.977   8.822 -0.2574 -0.4106 -2.8236
  659MOL0     H88961   5.707   5.346   8.965  1.4218  1.4713 -1.9568
  659MOL0     H88962   5.248   5.179   8.457  1.5977  0.6236 -0.1022
  659MOL0     H88963   5.117   5.171   8.119 -0.1951 -2.1103  0.3352
  659MOL0     H88964   5.132   5.261   8.267  0.8025  1.7263 -2.3797
  659MOL0     H88965   5.250   5.277   8.154 -0.1397 -0.6466 -0.9240
  660MOL0     O88966   1.900   4.872  11.200 -0.1453 -0.4989 -0.3577
  660MOL0     C88967   1.924   4.991  11.211 -0.1662  0.9235 -0.6284
  660MOL0     O88968   1.932   5.059  11.330  0.3291  0.3247  0.2913
  660MOL0     C88969   1.944   5.007  11.455 -1.0078  0.2951  0.5929
  660MOL0     C88970   2.057   4.925  11.484  0.5579 -0.3136  0.1533
  660MOL0     C88971   2.070   4.857  11.608 -0.3148  0.1036 -1.3620
  660MOL0     C88972   1.977   4.886  11.710  0.9260  0.2676 -0.6192
  660MOL0     O88973   1.979   4.813  11.825  0.0362  1.4651 -0.1448
  660MOL0     C88974   1.859   4.786  11.903 -0.0241  0.2421  0.2013
  660MOL0     C88975   1.756   4.691  11.831  0.2218  0.1537 -0.0779
  660MOL0     C88976   1.787   4.542  11.814 -0.4225 -0.6515 -0.1473
  660MOL0     C88977   1.883   4.525  11.694 -0.2044 -0.5368  0.7338
  660MOL0     C88978   1.918   4.373  11.680  0.0490  0.1585 -0.7890
  660MOL0     C88979   2.057   4.342  11.610  0.8245 -0.6488 -0.4026
  660MOL0     C88980   2.057   4.189  11.579  0.6389 -0.4626  0.9620
  660MOL0     C88981   2.199   4.134  11.537 -0.3731 -0.0894 -0.2059
  660MOL0     N88982   2.292   4.120  11.652  0.3888 -0.4993 -0.8143
  660MOL0     C88983   2.325   4.003  11.714  0.7437  0.7211 -0.8143
  660MOL0     C88984   2.371   4.023  11.839 -0.8902 -0.6772  1.3091
  660MOL0     C88985   2.424   3.926  11.947  0.0194  0.0454  0.0794
  660MOL0     C88986   2.528   3.831  11.891 -0.1433  0.4927 -0.9521
  660MOL0     C88987   2.555   3.713  11.998 -0.2091  0.3566  0.1454
  660MOL0     C88988   2.550   3.569  11.934 -0.1840  0.1358 -0.0717
  660MOL0     O88989   2.427   3.527  11.863  0.1670  0.2358 -0.5085
  660MOL0     C88990   2.430   3.419  11.781 -0.6132 -0.0599 -0.3473
  660MOL0     C88991   2.456   3.290  11.826 -0.1952  0.0097  0.1059
  660MOL0     C88992   2.457   3.172  11.753 -0.6504  0.1038 -0.6021
  660MOL0     C88993   2.448   3.176  11.621 -0.3105 -0.3982 -0.5149
  660MOL0     C88994   2.450   3.053  11.537  0.2371 -1.3308  0.5333
  660MOL0     O88995   2.438   3.073  11.402  0.1018  0.1771  0.1845
  660MOL0     C88996   2.465   2.976  11.305  0.1804 -0.2774  0.1938
  660MOL0     C88997   2.563   2.875  11.318  0.4860  0.8453 -0.2388
  660MOL0     C88998   2.599   2.786  11.213  1.2287 -0.3981  0.2354
  660MOL0     C88999   2.526   2.783  11.095  0.2384 -0.3298 -0.2527
  660MOL0     O89000   2.563   2.688  11.011  0.2352  0.5963  1.0602
  660MOL0     C89001   2.461   2.645  10.914 -0.7802 -0.7019 -0.1511
  660MOL0     C89002   2.492   2.510  10.857  0.4117  0.1660  0.4977
  660MOL0     C89003   2.476   2.403  10.968  0.2142  0.4221 -0.1584
  660MOL0     C89004   2.475   2.257  10.936  0.1183  0.5042  0.1332
  660MOL0     C89005   2.348   2.205  10.870  0.2366  0.9958 -0.2161
  660MOL0     C89006   2.336   2.044  10.871  0.1414 -0.5266  1.3386
  660MOL0     C89007   2.254   1.987  10.990 -0.3024  0.2027 -0.0082
  660MOL0     C89008   2.206   1.850  10.959 -0.1622  1.2125 -0.2070
  660MOL0    Cl89009   2.176   1.762  11.116  0.2676  0.0684 -0.1138
  660MOL0     C89010   2.428   2.889  11.082  0.4478  0.1310 -0.4021
  660MOL0     C89011   2.399   2.986  11.181 -1.0834 -0.3961 -0.3900
  660MOL0     O89012   2.436   2.943  11.592 -0.4215  0.5588 -0.4078
  660MOL0     C89013   2.423   3.304  11.562  0.1881 -0.2243 -0.8532
  660MOL0     C89014   2.407   3.424  11.642 -0.6871  0.5287 -0.6640
  660MOL0     N89015   2.380   4.163  11.840 -0.1470 -0.3227  0.1029
  660MOL0     N89016   2.341   4.224  11.731  0.5572  0.5479 -0.2900
  660MOL0     C89017   1.870   4.975  11.685 -0.8650 -0.5327  0.1258
  660MOL0     C89018   1.861   5.051  11.564 -0.5743 -0.9270 -0.0948
  660MOL0     C89019   1.926   5.084  11.086  0.4915  0.8424 -0.4662
  660MOL0     C89020   1.976   5.033  10.967  0.2324  0.0860  0.0872
  660MOL0     C89021   1.997   5.116  10.852  0.2440  0.5908 -0.0700
  660MOL0     C89022   1.983   5.251  10.870  0.4667  1.1539  1.3840
  660MOL0     O89023   2.011   5.334  10.758  0.0885 -0.0688 -0.8096
  660MOL0     C89024   2.159   5.348  10.757  0.0497 -0.3631  0.2600
  660MOL0     C89025   2.207   5.458  10.856 -0.2732  0.1663  0.2569
  660MOL0     C89026   2.117   5.592  10.848 -0.0579 -0.2321 -0.0724
  660MOL0     C89027   2.146   5.699  10.947  0.4473  0.9001  0.7807
  660MOL0     C89028   2.110   5.833  10.888 -0.7560 -1.0409 -0.1424
  660MOL0     C89029   2.074   5.943  10.846 -0.5354 -0.6644  0.4511
  660MOL0     C89030   1.925   5.298  10.986  0.0761  0.9279 -1.4267
  660MOL0     C89031   1.891   5.216  11.096  0.5966  0.0123  0.4594
  660MOL0     C89032   1.815   5.281  11.214  0.3015 -0.1396 -0.4877
  660MOL0     H89033   2.131   4.902  11.408  0.0548  1.2534 -0.8697
  660MOL0     H89034   2.139   4.776  11.631 -0.6641  0.7180  2.5620
  660MOL0     H89035   1.886   4.720  11.986  2.2087  0.3922 -0.3451
  660MOL0     H89036   1.822   4.879  11.947  0.1680  0.5550 -0.2856
  660MOL0     H89037   1.734   4.725  11.729  1.5844  2.8753  0.4238
  660MOL0     H89038   1.665   4.686  11.891  1.8090 -0.9145  2.3995
  660MOL0     H89039   1.689   4.498  11.798 -0.1929 -0.7788 -1.3195
  660MOL0     H89040   1.825   4.491  11.903 -2.2322 -1.0515  0.4317
  660MOL0     H89041   1.841   4.570  11.603 -1.3778  0.9001  1.9504
  660MOL0     H89042   1.972   4.581  11.724 -1.2581  0.3512  2.3113
  660MOL0     H89043   1.914   4.330  11.781 -1.8651  0.5858 -0.6414
  660MOL0     H89044   1.841   4.311  11.633 -0.3742 -1.9659  2.3856
  660MOL0     H89045   2.068   4.401  11.519  2.7660 -0.2625  0.0240
  660MOL0     H89046   2.139   4.375  11.674  0.4426  1.9538 -1.1495
  660MOL0     H89047   1.977   4.187  11.504 -0.1436  0.5112  1.7572
  660MOL0     H89048   2.026   4.128  11.664  2.1777 -2.1755  0.3590
  660MOL0     H89049   2.182   4.036  11.492 -4.8958 -0.6546  2.2193
  660MOL0     H89050   2.239   4.195  11.455 -1.0650 -0.0596 -0.5270
  660MOL0     H89051   2.306   3.905  11.672  2.5938 -0.3329  0.6320
  660MOL0     H89052   2.471   3.993  12.020  1.6391 -1.0129  0.0585
  660MOL0     H89053   2.333   3.883  11.990 -1.5372  0.9870 -2.0765
  660MOL0     H89054   2.491   3.788  11.797  1.3658  0.9455 -1.7868
  660MOL0     H89055   2.620   3.889  11.877  1.4753 -0.5059  3.7465
  660MOL0     H89056   2.481   3.717  12.078 -0.8007 -0.0238 -0.3701
  660MOL0     H89057   2.655   3.718  12.041  1.3813  0.0977 -3.1833
  660MOL0     H89058   2.569   3.497  12.015  0.4848 -0.0311 -0.3706
  660MOL0     H89059   2.640   3.565  11.871  0.6726 -1.2552  1.1484
  660MOL0     H89060   2.468   3.280  11.934 -3.0401 -0.6589  0.4390
  660MOL0     H89061   2.482   3.085  11.812  0.7329  0.0196 -1.2645
  660MOL0     H89062   2.617   2.876  11.412 -0.0942 -1.4128  0.1825
  660MOL0     H89063   2.675   2.712  11.237  0.8601 -1.2912 -1.2363
  660MOL0     H89064   2.361   2.645  10.957  1.0238  0.0551  4.6488
  660MOL0     H89065   2.463   2.722  10.836 -4.2529  0.4009  0.6675
  660MOL0     H89066   2.404   2.490  10.795  2.2287  0.0823 -2.2130
  660MOL0     H89067   2.581   2.494  10.794  0.2547  0.1391  0.2797
  660MOL0     H89068   2.565   2.422  11.029  0.4360  3.4700 -1.2621
  660MOL0     H89069   2.397   2.433  11.038  0.9163  0.6556  0.5533
  660MOL0     H89070   2.482   2.207  11.034 -2.8659  0.3766  0.3781
  660MOL0     H89071   2.561   2.236  10.872 -1.7077 -0.0701 -2.2546
  660MOL0     H89072   2.357   2.225  10.762 -0.8041  0.2892 -0.4429
  660MOL0     H89073   2.257   2.253  10.907  0.7366  2.8143 -1.1900
  660MOL0     H89074   2.294   2.009  10.777 -0.3632  2.6241  0.2620
  660MOL0     H89075   2.438   2.005  10.869  0.4563  0.2904  0.8083
  660MOL0     H89076   2.163   2.045  11.007 -0.8609 -0.1714 -1.5750
  660MOL0     H89077   2.322   1.991  11.076 -0.0372 -2.8672  0.0317
  660MOL0     H89078   2.119   1.843  10.893  0.2695 -1.5428 -0.6147
  660MOL0     H89079   2.281   1.793  10.903  0.8907  2.2432  0.1163
  660MOL0     H89080   2.370   2.899  10.991  0.4227  3.5180 -0.1106
  660MOL0     H89081   2.351   3.080  11.152  0.0062  0.1962 -0.3254
  660MOL0     H89082   2.398   3.312  11.457 -2.5976  2.6071 -0.1070
  660MOL0     H89083   2.373   3.517  11.598 -0.3989  2.5199  2.8858
  660MOL0     H89084   1.806   5.001  11.769 -0.7861  2.1269 -0.5529
  660MOL0     H89085   1.785   5.128  11.552 -1.3550 -1.6981 -0.1823
  660MOL0     H89086   2.010   4.930  10.966 -0.1515 -0.0496 -2.1518
  660MOL0     H89087   2.030   5.065  10.762 -3.3654  3.2997 -3.2406
  660MOL0     H89088   2.181   5.383  10.656 -0.0462 -3.9048 -1.1598
  660MOL0     H89089   2.210   5.254  10.783  0.9343  0.6330  2.3710
  660MOL0     H89090   2.309   5.496  10.841 -0.8716  1.2007 -1.5850
  660MOL0     H89091   2.207   5.411  10.955  3.7502  0.9254  0.8008
  660MOL0     H89092   2.013   5.560  10.851  0.3453 -1.5707  0.3225
  660MOL0     H89093   2.150   5.638  10.754 -0.4627 -1.2674 -0.7385
  660MOL0     H89094   2.090   5.674  11.039 -0.4858  0.3731  0.0952
  660MOL0     H89095   2.251   5.711  10.972  0.3643  2.6704  0.3782
  660MOL0     H89096   2.049   6.042  10.814 -2.1691 -1.2511 -0.1700
  660MOL0     H89097   1.900   5.404  10.993  1.2597  1.1843 -0.7841
  660MOL0     H89098   1.872   5.287  11.307  1.5213  1.4031 -1.2826
  660MOL0     H89099   1.778   5.379  11.185  2.3451  1.4122  1.7919
  660MOL0     H89100   1.724   5.231  11.249 -2.1865  3.6448 -1.0196
  661MOL0     O89101   5.467   9.230   9.076  0.8575  0.2216 -0.2825
  661MOL0     C89102   5.348   9.250   9.061 -0.1946  0.0795  0.5686
  661MOL0     O89103   5.243   9.167   9.106 -0.0762  0.3261 -0.6343
  661MOL0     C89104   5.244   9.151   9.242 -0.0667  0.0198 -0.4784
  661MOL0     C89105   5.173   9.051   9.295  0.7825  0.1454 -0.8589
  661MOL0     C89106   5.147   9.033   9.429 -0.4954 -0.0716 -0.2273
  661MOL0     C89107   5.222   9.113   9.520  1.0801  0.0860 -0.7375
  661MOL0     O89108   5.215   9.102   9.662  0.2323  0.2413 -1.0243
  661MOL0     C89109   5.176   8.984   9.720  0.9048  0.5520  0.8189
  661MOL0     C89110   5.188   9.017   9.864  0.3486 -0.0406 -0.5938
  661MOL0     C89111   5.340   9.028   9.900 -0.1434  0.5739 -0.1563
  661MOL0     C89112   5.358   8.981  10.056 -0.2334 -0.4639  0.2567
  661MOL0     C89113   5.503   9.023  10.093  1.3916 -0.0662  0.4940
  661MOL0     C89114   5.612   8.957  10.001 -0.0038 -0.4455 -0.7885
  661MOL0     C89115   5.761   9.008  10.018 -0.1075 -0.1337 -0.3503
  661MOL0     C89116   5.787   9.141   9.943 -0.1782  0.5954 -0.3154
  661MOL0     N89117   5.929   9.176   9.953 -0.4088 -0.4108  0.4865
  661MOL0     C89118   6.043   9.117   9.898  1.2041  0.4099  0.1119
  661MOL0     C89119   6.139   9.206   9.921  0.5743 -0.8944 -0.0053
  661MOL0     C89120   6.278   9.194   9.873 -0.1345  0.9427 -0.7729
  661MOL0     C89121   6.282   9.256   9.733  0.0068 -0.0810 -0.9801
  661MOL0     C89122   6.208   9.392   9.701  0.6189  0.7677  0.1783
  661MOL0     C89123   6.269   9.485   9.593 -0.8737  0.8878  0.5763
  661MOL0     O89124   6.165   9.577   9.556 -0.1393 -0.1531 -0.0843
  661MOL0     C89125   6.196   9.664   9.454  0.3063  0.5688  1.2965
  661MOL0     C89126   6.100   9.675   9.349  0.0106 -0.3814  0.7956
  661MOL0     C89127   6.131   9.745   9.228 -0.6091  0.1051  0.5859
  661MOL0     C89128   6.242   9.822   9.221 -0.8197  0.4073  0.3550
  661MOL0     C89129   6.277   9.894   9.096  0.4450  0.0475 -0.3037
  661MOL0     O89130   6.393   9.965   9.084  0.6506 -0.2730  0.7734
  661MOL0     C89131   6.411  10.032   8.967  0.3532  0.9378  0.5366
  661MOL0     C89132   6.327  10.125   8.921 -0.8532 -0.8849  0.0451
  661MOL0     C89133   6.366  10.205   8.815  0.5063  0.8402 -0.2253
  661MOL0     C89134   6.482  10.170   8.745  0.1694  0.0694 -0.2492
  661MOL0     O89135   6.526  10.247   8.639  0.7184  0.8620 -0.2314
  661MOL0     C89136   6.609  10.357   8.676  0.8750  0.4187  0.8244
  661MOL0     C89137   6.670  10.428   8.546  0.5133  0.3869 -0.5425
  661MOL0     C89138   6.567  10.459   8.433  0.1343  0.1278  0.3107
  661MOL0     C89139   6.433  10.510   8.489 -0.4488 -0.5827  0.7876
  661MOL0     C89140   6.350  10.566   8.372  0.9526  0.5295  0.4922
  661MOL0     C89141   6.402  10.702   8.322  0.6844 -0.6682 -0.1827
  661MOL0     C89142   6.294  10.784   8.254  0.4478  0.0146 -0.0971
  661MOL0     C89143   6.209  10.861   8.358 -0.2225 -0.5348  0.6792
  661MOL0    Cl89144   6.110  10.978   8.265  0.4479  0.2265 -0.4640
  661MOL0     C89145   6.548  10.055   8.782  0.1216  0.5341 -0.6296
  661MOL0     C89146   6.526   9.996   8.896  0.2903 -0.3993  0.0661
  661MOL0     O89147   6.183   9.900   9.013  0.3659 -0.5005 -0.1080
  661MOL0     C89148   6.340   9.812   9.329 -1.2348 -0.6900  1.0446
  661MOL0     C89149   6.318   9.734   9.444  0.1161  0.4588  0.4056
  661MOL0     N89150   6.089   9.305  10.005  0.2128 -0.2652 -0.1769
  661MOL0     N89151   5.965   9.294  10.014 -0.5242 -0.8448 -0.7829
  661MOL0     C89152   5.295   9.222   9.472  0.4747 -0.7568 -0.0227
  661MOL0     C89153   5.311   9.235   9.336 -0.0630  0.4318  0.4376
  661MOL0     C89154   5.313   9.360   8.963  0.6199  0.0412  0.3120
  661MOL0     C89155   5.178   9.398   8.957 -0.3219 -0.4552 -0.2744
  661MOL0     C89156   5.125   9.501   8.875 -0.4021  0.2990  0.2181
  661MOL0     C89157   5.223   9.566   8.787 -0.2136 -0.1228  1.0900
  661MOL0     O89158   5.197   9.659   8.686 -0.6709  0.0987 -0.4386
  661MOL0     C89159   5.077   9.728   8.679 -0.1143  0.9858 -0.6341
  661MOL0     C89160   5.084   9.839   8.777 -0.3975 -0.5949  0.2385
  661MOL0     C89161   5.117   9.979   8.729 -0.3035 -0.1300  0.7134
  661MOL0     C89162   5.121  10.091   8.836 -0.3732  0.7722 -0.9013
  661MOL0     C89163   5.185  10.051   8.969 -0.8163  1.1236  1.1120
  661MOL0     C89164   5.211   9.997   9.077  0.9858 -0.0553 -0.1519
  661MOL0     C89165   5.357   9.523   8.781 -0.3332 -0.7703 -0.5686
  661MOL0     C89166   5.402   9.423   8.869  0.5295 -0.2118 -0.0191
  661MOL0     C89167   5.545   9.374   8.847 -0.4607  0.0215 -0.4761
  661MOL0     H89168   5.128   8.985   9.221  2.5748 -0.6177 -1.3137
  661MOL0     H89169   5.093   8.953   9.479 -0.9185  1.7607  2.4756
  661MOL0     H89170   5.073   8.955   9.696  1.5883 -2.1928  0.8028
  661MOL0     H89171   5.252   8.907   9.704  1.5473  0.2746  4.4316
  661MOL0     H89172   5.131   8.943   9.921  1.7510  0.0119  0.9519
  661MOL0     H89173   5.139   9.114   9.879  0.5007  0.2056 -1.6342
  661MOL0     H89174   5.371   9.132   9.882 -1.0377  1.3565  2.3555
  661MOL0     H89175   5.390   8.956   9.835 -3.7341 -3.4713  1.1282
  661MOL0     H89176   5.279   9.019  10.121 -2.2411 -2.5961 -0.8107
  661MOL0     H89177   5.352   8.872  10.055 -1.5922 -0.5312 -4.0196
  661MOL0     H89178   5.507   9.132  10.080  0.7722 -0.0940  0.0338
  661MOL0     H89179   5.527   8.991  10.195  0.9263  0.5780  0.8128
  661MOL0     H89180   5.608   8.852  10.029 -1.9067 -0.4159 -0.8042
  661MOL0     H89181   5.587   8.956   9.895 -2.4701  0.6382 -0.2911
  661MOL0     H89182   5.823   8.932   9.969  0.1889  0.1166 -0.3656
  661MOL0     H89183   5.794   9.006  10.122 -1.0162  0.3210 -0.0423
  661MOL0     H89184   5.768   9.118   9.838 -1.6422  0.0115  0.0515
  661MOL0     H89185   5.725   9.228   9.967 -0.6895  0.3241 -0.6391
  661MOL0     H89186   6.037   9.020   9.850 -2.1283  1.5955 -2.2845
  661MOL0     H89187   6.340   9.257   9.938  0.2613 -1.2540  1.0947
  661MOL0     H89188   6.329   9.098   9.885 -1.1800  0.2806 -1.4488
  661MOL0     H89189   6.388   9.277   9.721 -0.2157  2.3985  0.4998
  661MOL0     H89190   6.239   9.180   9.667  1.0372 -2.2814  0.7533
  661MOL0     H89191   6.186   9.450   9.791  1.6694  2.1075 -0.3905
  661MOL0     H89192   6.107   9.365   9.668  1.1232  0.8477 -1.5376
  661MOL0     H89193   6.295   9.420   9.509 -1.1898 -0.1136  1.2348
  661MOL0     H89194   6.345   9.542   9.646 -1.0756 -0.2274  2.1531
  661MOL0     H89195   6.005   9.623   9.351 -0.1698 -0.1202 -0.3475
  661MOL0     H89196   6.054   9.757   9.153  1.0027  0.1987 -1.1287
  661MOL0     H89197   6.238  10.141   8.981 -0.4701  0.8236  0.2134
  661MOL0     H89198   6.317  10.299   8.788  1.9678  2.1562  1.4342
  661MOL0     H89199   6.574  10.428   8.751 -0.8834 -1.8994  2.3170
  661MOL0     H89200   6.701  10.320   8.723 -1.2595 -3.3459  2.4745
  661MOL0     H89201   6.724  10.519   8.575  0.4657 -0.1880  1.5100
  661MOL0     H89202   6.738  10.351   8.506 -1.7885 -2.2274  0.2662
  661MOL0     H89203   6.611  10.512   8.349  0.7279 -0.6195  0.1359
  661MOL0     H89204   6.562  10.363   8.379  1.7904  1.4213 -2.3507
  661MOL0     H89205   6.458  10.590   8.559  1.1595 -0.7826  0.4926
  661MOL0     H89206   6.378  10.428   8.535 -1.5686 -1.1172 -1.3527
  661MOL0     H89207   6.253  10.597   8.413 -0.1547  1.5569 -2.6774
  661MOL0     H89208   6.325  10.508   8.283  0.8715  2.9386 -1.1171
  661MOL0     H89209   6.451  10.751   8.406 -1.3411  1.7802 -0.3011
  661MOL0     H89210   6.475  10.669   8.248 -1.3733  0.0244 -2.6783
  661MOL0     H89211   6.229  10.718   8.195  1.5303 -0.6986 -0.5234
  661MOL0     H89212   6.346  10.846   8.180  1.5840 -1.8339 -0.9002
  661MOL0     H89213   6.143  10.800   8.422  1.7689 -1.2954  2.1007
  661MOL0     H89214   6.281  10.905   8.427 -0.2386 -1.6730  1.4503
  661MOL0     H89215   6.632  10.022   8.720  0.3158  0.4939 -0.3492
  661MOL0     H89216   6.592   9.924   8.944  0.7442  1.7992  2.9830
  661MOL0     H89217   6.442   9.844   9.314 -1.6411  0.4883  0.6456
  661MOL0     H89218   6.404   9.715   9.506  0.5398 -0.4617 -0.4405
  661MOL0     H89219   5.318   9.310   9.530 -2.8536 -0.1117  0.5180
  661MOL0     H89220   5.382   9.314   9.316  0.1159  0.8960  2.6666
  661MOL0     H89221   5.104   9.349   9.020 -0.4294  0.1202  0.0492
  661MOL0     H89222   5.020   9.521   8.858 -0.8313 -0.8448  1.3830
  661MOL0     H89223   4.990   9.666   8.704  1.5437 -0.7655  1.1819
  661MOL0     H89224   5.049   9.767   8.581  1.1837  3.4534 -0.0919
  661MOL0     H89225   5.148   9.814   8.862  0.4524  0.9416  0.0822
  661MOL0     H89226   4.985   9.861   8.817  0.8727  1.7842  2.3193
  661MOL0     H89227   5.048  10.013   8.652  1.8442  2.7606 -0.1181
  661MOL0     H89228   5.218   9.967   8.687 -0.2446  0.2105  0.7556
  661MOL0     H89229   5.183  10.170   8.793  1.3826 -0.7467 -1.3072
  661MOL0     H89230   5.018  10.125   8.851 -1.4305 -0.4466 -4.4740
  661MOL0     H89231   5.234   9.966   9.177 -5.5923  0.1692  1.8783
  661MOL0     H89232   5.427   9.579   8.721 -0.8000  0.1756 -0.2606
  661MOL0     H89233   5.568   9.410   8.746 -3.5835 -0.1270 -1.3622
  661MOL0     H89234   5.616   9.420   8.916  1.6105 -0.0155 -2.4905
  661MOL0     H89235   5.543   9.265   8.852  2.2276 -0.0434  1.3471
  662MOL0     O89236  10.340   6.526   0.688 -0.1799  0.0032 -0.4092
  662MOL0     C89237  10.245   6.592   0.649 -1.1937  0.8069 -0.1191
  662MOL0     O89238  10.222   6.718   0.689 -0.7417 -0.1910  0.0184
  662MOL0     C89239  10.327   6.798   0.755  0.3843  0.3658  0.5076
  662MOL0     C89240  10.371   6.912   0.695  0.2037 -0.6999 -0.2601
  662MOL0     C89241  10.479   6.985   0.743  0.1537 -0.1655 -0.1173
  662MOL0     C89242  10.546   6.939   0.859 -0.1204 -0.5513  0.0250
  662MOL0     O89243  10.652   7.005   0.924  0.3690  0.8721  0.3898
  662MOL0     C89244  10.732   7.098   0.864 -0.5338  0.4986  0.8515
  662MOL0     C89245  10.842   7.131   0.952  0.6107  0.1355  0.2329
  662MOL0     C89246  10.805   7.216   1.076 -0.0568  0.7341 -0.6500
  662MOL0     C89247  10.927   7.253   1.155 -0.6331  0.0525  0.6307
  662MOL0     C89248  10.914   7.256   1.307  0.4121 -0.1943 -0.6529
  662MOL0     C89249  10.848   7.120   1.365  0.2162 -1.0395 -0.5230
  662MOL0     C89250  10.858   7.113   1.522  1.2654  0.2157  0.1522
  662MOL0     C89251  10.990   7.074   1.594  0.1510  0.5702 -0.6944
  662MOL0     N89252  11.059   6.955   1.528  0.0356 -0.4495 -0.2063
  662MOL0     C89253  11.193   6.944   1.494  0.6104 -0.1311  0.6270
  662MOL0     C89254  11.210   6.831   1.432  0.6515 -0.1992  0.3497
  662MOL0     C89255  11.341   6.780   1.367 -0.0204  0.5410  0.9054
  662MOL0     C89256  11.441   6.702   1.453 -1.0151  0.5393 -0.9539
  662MOL0     C89257  11.401   6.561   1.495  1.1584  0.0926 -0.2012
  662MOL0     C89258  11.380   6.552   1.647  0.5293  0.5516  0.9930
  662MOL0     O89259  11.501   6.586   1.720  0.2068 -0.3435  0.4931
  662MOL0     C89260  11.496   6.581   1.855 -0.5223 -0.1242  0.3358
  662MOL0     C89261  11.599   6.649   1.927  0.0265  0.0252 -1.4743
  662MOL0     C89262  11.600   6.634   2.073  0.5023 -0.4096 -0.7366
  662MOL0     C89263  11.495   6.575   2.144 -0.5243  0.3904 -0.1713
  662MOL0     C89264  11.510   6.575   2.297  0.2962 -0.5374 -0.3160
  662MOL0     O89265  11.625   6.628   2.359 -0.3515 -0.4940  0.6169
  662MOL0     C89266  11.631   6.657   2.485 -0.1435  0.2318 -1.4373
  662MOL0     C89267  11.610   6.565   2.595  0.1115 -0.2099  0.5573
  662MOL0     C89268  11.625   6.606   2.728  0.0401  0.3739  0.0087
  662MOL0     C89269  11.657   6.740   2.761  0.4875  0.3843  0.1789
  662MOL0     O89270  11.662   6.771   2.893  0.6188  0.6589  0.6398
  662MOL0     C89271  11.621   6.906   2.928  0.1942 -0.5552  1.2580
  662MOL0     C89272  11.553   6.905   3.056  0.4925 -0.9679  0.1849
  662MOL0     C89273  11.490   7.050   3.075  1.2091 -0.2136  1.3167
  662MOL0     C89274  11.478   7.066   3.220 -0.4899  0.7173 -0.4549
  662MOL0     C89275  11.440   7.211   3.254  0.0955  0.4730  0.8226
  662MOL0     C89276  11.297   7.227   3.312  0.3245 -0.4767  0.2095
  662MOL0     C89277  11.279   7.357   3.393  0.4810  0.0796  0.1314
  662MOL0     C89278  11.320   7.495   3.326  0.7522  0.9862  0.0965
  662MOL0    Cl89279  11.232   7.517   3.177 -0.2628  0.3180  0.5206
  662MOL0     C89280  11.676   6.835   2.653  0.5896 -0.4816  0.1022
  662MOL0     C89281  11.662   6.791   2.522 -0.1582  0.4229 -0.0539
  662MOL0     O89282  11.414   6.529   2.357  0.0221  0.0865 -0.0592
  662MOL0     C89283  11.403   6.512   2.070  1.1513  0.9429  0.2927
  662MOL0     C89284  11.404   6.507   1.924  1.0380  0.2298 -1.0243
  662MOL0     N89285  11.088   6.769   1.415  0.2800 -0.0442  0.0378
  662MOL0     N89286  10.999   6.846   1.473 -0.7011  0.3371 -0.0933
  662MOL0     C89287  10.501   6.825   0.924 -0.3889 -0.3676  0.4043
  662MOL0     C89288  10.397   6.749   0.866  0.5187  0.0004 -0.3935
  662MOL0     C89289  10.140   6.510   0.582  0.2287 -0.0307 -0.4767
  662MOL0     C89290  10.181   6.400   0.503  0.8930 -0.2890  0.0798
  662MOL0     C89291  10.090   6.320   0.436 -0.9411 -0.7525  1.2025
  662MOL0     C89292   9.956   6.347   0.452  0.6472  0.8169  0.7979
  662MOL0     O89293   9.846   6.271   0.409  0.0789  0.0073  0.2016
  662MOL0     C89294   9.877   6.141   0.355  0.0102  0.4801  1.6143
  662MOL0     C89295   9.901   6.142   0.197 -0.5141 -0.1008  0.0443
  662MOL0     C89296   9.802   6.219   0.101  1.4826  0.8487 -0.3774
  662MOL0     C89297   9.656   6.147   0.102 -0.9265  0.0649  0.2006
  662MOL0     C89298   9.585   6.172   0.228 -0.2591 -0.3901 -0.2498
  662MOL0     C89299   9.496   6.185   0.311 -0.4677  0.1513 -0.4866
  662MOL0     C89300   9.918   6.451   0.536 -0.1707  0.4571  0.4271
  662MOL0     C89301  10.004   6.541   0.602  0.5381  0.3021  0.0842
  662MOL0     C89302   9.948   6.653   0.690  0.3729 -0.2682 -0.5216
  662MOL0     H89303  10.320   6.939   0.603 -0.1096  0.7521  0.3202
  662MOL0     H89304  10.502   7.077   0.692 -0.6323 -0.6356 -1.3688
  662MOL0     H89305  10.766   7.062   0.767 -1.4055 -0.8516  1.0190
  662MOL0     H89306  10.678   7.190   0.841  0.2112  0.7544  0.0601
  662MOL0     H89307  10.919   7.180   0.891  1.7934  1.1681  2.4398
  662MOL0     H89308  10.880   7.035   0.987 -3.7998 -2.1272 -0.4019
  662MOL0     H89309  10.728   7.162   1.131 -0.1581  0.9755 -0.5573
  662MOL0     H89310  10.757   7.310   1.049  1.7044  1.0019 -3.3818
  662MOL0     H89311  11.013   7.186   1.143  0.8975  2.1999 -1.2749
  662MOL0     H89312  10.971   7.347   1.119  3.2879 -1.5947  0.6473
  662MOL0     H89313  11.011   7.277   1.352 -0.2232  0.0479  0.6404
  662MOL0     H89314  10.847   7.339   1.331  1.1916  0.1940  0.2245
  662MOL0     H89315  10.744   7.114   1.331 -0.2997  2.8649 -0.0987
  662MOL0     H89316  10.898   7.032   1.323 -1.0328 -1.3090 -1.5160
  662MOL0     H89317  10.787   7.037   1.556 -0.9438  3.4826  3.7373
  662MOL0     H89318  10.829   7.205   1.573 -0.0785 -0.9845  1.6686
  662MOL0     H89319  11.055   7.162   1.596 -0.0455  0.7895 -2.3810
  662MOL0     H89320  10.972   7.042   1.697  1.3535 -0.1034 -0.6781
  662MOL0     H89321  11.267   7.023   1.506  1.7938 -1.3614  1.7125
  662MOL0     H89322  11.316   6.717   1.280 -0.3596  3.0013 -0.8999
  662MOL0     H89323  11.397   6.862   1.322 -1.8737  1.0752 -0.5991
  662MOL0     H89324  11.531   6.696   1.390 -1.0010 -2.8258 -0.7955
  662MOL0     H89325  11.469   6.762   1.540 -1.2599 -0.0847 -0.4396
  662MOL0     H89326  11.473   6.482   1.475  2.2628  0.2074  2.8676
  662MOL0     H89327  11.307   6.534   1.445  1.4123 -0.2890 -0.4831
  662MOL0     H89328  11.336   6.458   1.680 -3.1128  1.2325 -1.4293
  662MOL0     H89329  11.306   6.626   1.679 -2.6440 -2.8706  2.1680
  662MOL0     H89330  11.668   6.706   1.864 -1.4257  1.1169 -2.1314
  662MOL0     H89331  11.678   6.681   2.132  0.5543  1.8150 -2.4278
  662MOL0     H89332  11.590   6.460   2.576  0.2275  0.1033 -1.5933
  662MOL0     H89333  11.600   6.544   2.814 -2.3797  0.2223 -0.7234
  662MOL0     H89334  11.708   6.972   2.925 -1.0610  1.1356 -0.3764
  662MOL0     H89335  11.549   6.948   2.858  0.4579 -1.4779  0.4049
  662MOL0     H89336  11.463   6.843   3.057 -0.9511  1.0099  0.4274
  662MOL0     H89337  11.614   6.862   3.136 -2.3948 -0.9916  2.5704
  662MOL0     H89338  11.555   7.126   3.032  1.5547 -0.6652  1.0328
  662MOL0     H89339  11.388   7.062   3.036  0.7627 -0.5729  2.3503
  662MOL0     H89340  11.574   7.033   3.260 -0.4469  1.5388  0.1506
  662MOL0     H89341  11.409   7.000   3.275 -1.8073 -0.0937 -2.9197
  662MOL0     H89342  11.444   7.276   3.165 -3.9367  0.4222  0.4202
  662MOL0     H89343  11.512   7.248   3.328  2.1290 -0.9946 -0.3378
  662MOL0     H89344  11.223   7.221   3.232  3.1319 -0.8225 -2.5434
  662MOL0     H89345  11.271   7.138   3.371  1.0743 -0.8588 -0.0315
  662MOL0     H89346  11.328   7.346   3.490  0.1638 -1.6969  0.1280
  662MOL0     H89347  11.171   7.349   3.404  0.1481  0.7512 -2.1458
  662MOL0     H89348  11.292   7.576   3.394 -3.4037 -1.9191  2.2842
  662MOL0     H89349  11.428   7.500   3.311  1.0112 -0.1763  1.3915
  662MOL0     H89350  11.721   6.931   2.675 -0.6144  0.3700 -0.9831
  662MOL0     H89351  11.694   6.845   2.433  2.2028 -2.0254 -0.8264
  662MOL0     H89352  11.321   6.464   2.122  0.6428  1.9704  0.4607
  662MOL0     H89353  11.321   6.459   1.875 -1.6920  2.1862  1.3561
  662MOL0     H89354  10.560   6.784   1.006  1.4953  0.9250 -0.2350
  662MOL0     H89355  10.381   6.650   0.907 -1.1964  0.5589  0.3537
  662MOL0     H89356  10.286   6.375   0.509  1.0120 -0.1333 -1.0655
  662MOL0     H89357  10.123   6.241   0.370 -2.0704 -1.7779  1.8104
  662MOL0     H89358   9.795   6.074   0.381  0.3082 -0.3328  0.5511
  662MOL0     H89359   9.965   6.094   0.398  0.7194 -0.1262 -0.3769
  662MOL0     H89360   9.912   6.044   0.151  0.1023 -1.2446  2.4614
  662MOL0     H89361   9.999   6.189   0.182 -0.8675  0.7726  0.4207
  662MOL0     H89362   9.836   6.224  -0.003 -1.1112 -2.0436 -1.5147
  662MOL0     H89363   9.797   6.324   0.131  3.6770  0.3901  1.9375
  662MOL0     H89364   9.601   6.181   0.014  0.9414  0.9031 -0.7053
  662MOL0     H89365   9.668   6.039   0.091  2.0494  0.2636  0.8337
  662MOL0     H89366   9.427   6.195   0.392 -1.5939 -0.3568 -1.3557
  662MOL0     H89367   9.812   6.473   0.527 -0.1710 -0.2957 -2.4428
  662MOL0     H89368   9.969   6.634   0.796 -0.9036 -3.1941 -0.6787
  662MOL0     H89369   9.968   6.756   0.661 -2.0595  0.3762 -0.1355
  662MOL0     H89370   9.839   6.645   0.684  0.1036  2.9892 -2.3537
  663MOL0     O89371   6.902   8.112   9.006 -0.2437 -0.1636 -0.5821
  663MOL0     C89372   6.847   8.038   9.095 -0.1386  0.6058  0.0224
  663MOL0     O89373   6.912   7.948   9.179 -0.2557  0.2675 -0.2550
  663MOL0     C89374   7.057   7.959   9.172 -0.3909  0.4251  0.2525
  663MOL0     C89375   7.133   7.850   9.127  0.5757  0.2411 -0.2090
  663MOL0     C89376   7.271   7.841   9.144  0.0158 -0.2873 -0.5121
  663MOL0     C89377   7.344   7.952   9.195 -0.4070 -0.4673 -0.5717
  663MOL0     O89378   7.481   7.949   9.203  0.6880  0.0792  0.2994
  663MOL0     C89379   7.541   8.053   9.126 -0.3457  0.0562 -0.0857
  663MOL0     C89380   7.602   8.151   9.219 -0.6729 -0.1380 -0.0443
  663MOL0     C89381   7.629   8.291   9.160  0.2229  0.3164 -0.7630
  663MOL0     C89382   7.508   8.379   9.161  0.4041  0.1001  0.2653
  663MOL0     C89383   7.531   8.516   9.083  0.2360  0.1892 -0.0750
  663MOL0     C89384   7.409   8.605   9.084  0.1734  0.7763 -1.2798
  663MOL0     C89385   7.374   8.661   9.223 -0.7158  1.4137 -0.9096
  663MOL0     C89386   7.246   8.750   9.231  0.2337 -0.3588  0.1975
  663MOL0     N89387   7.287   8.894   9.228 -0.2052 -1.0232 -0.1552
  663MOL0     C89388   7.346   8.964   9.126 -0.5463 -0.3974  0.7591
  663MOL0     C89389   7.386   9.080   9.170 -0.5804  0.2732  0.1841
  663MOL0     C89390   7.459   9.175   9.088 -0.5132 -0.4806 -0.4372
  663MOL0     C89391   7.378   9.279   9.010  0.2226  0.6851  0.4783
  663MOL0     C89392   7.318   9.205   8.881  1.0751 -0.9722  0.2629
  663MOL0     C89393   7.265   9.283   8.759  0.0260 -0.0498  0.6219
  663MOL0     O89394   7.363   9.381   8.721 -0.7933  0.0475 -0.2721
  663MOL0     C89395   7.336   9.513   8.739  0.7216 -0.3687 -0.9887
  663MOL0     C89396   7.441   9.582   8.688  0.1880  0.6467 -0.2946
  663MOL0     C89397   7.432   9.718   8.669  0.3916  0.1786  1.0780
  663MOL0     C89398   7.323   9.786   8.689  0.4198 -0.4204  0.0233
  663MOL0     C89399   7.308   9.926   8.665 -1.0639  0.3113  0.8709
  663MOL0     O89400   7.181   9.980   8.669  0.6752  0.2742  0.0481
  663MOL0     C89401   7.158  10.114   8.661 -0.2913 -0.6330 -1.0862
  663MOL0     C89402   7.234  10.200   8.735  0.7499  1.5279 -0.7637
  663MOL0     C89403   7.219  10.344   8.733  0.0832  0.4320 -0.2788
  663MOL0     C89404   7.119  10.395   8.653  0.4523  0.2782 -0.2591
  663MOL0     O89405   7.111  10.534   8.633  0.4315  1.0452 -0.0261
  663MOL0     C89406   7.196  10.624   8.709 -0.7946 -0.4285 -0.6799
  663MOL0     C89407   7.142  10.760   8.670 -0.0452  0.5499  0.6197
  663MOL0     C89408   7.175  10.794   8.525 -0.4856  0.7612  0.7217
  663MOL0     C89409   7.313  10.856   8.498 -0.1763  0.3282 -0.6275
  663MOL0     C89410   7.311  10.939   8.371 -0.2190 -0.0446  0.4998
  663MOL0     C89411   7.455  10.979   8.339 -0.6816 -0.3504  0.2583
  663MOL0     C89412   7.462  11.071   8.223  0.0728  0.3707 -0.1106
  663MOL0     C89413   7.554  11.200   8.235  0.0634  0.5798 -0.4214
  663MOL0    Cl89414   7.484  11.324   8.338  0.0867 -0.8167 -0.0644
  663MOL0     C89415   7.025  10.312   8.596  0.1784 -0.6767 -0.1187
  663MOL0     C89416   7.041  10.171   8.603  1.1783  0.0613  0.0130
  663MOL0     O89417   7.410   9.985   8.651  0.0940 -0.0844 -0.4948
  663MOL0     C89418   7.218   9.720   8.746 -0.2161  0.3694 -0.0082
  663MOL0     C89419   7.219   9.578   8.769 -0.0333 -0.3316  0.0516
  663MOL0     N89420   7.346   9.082   9.305  0.0076 -0.4627  0.0559
  663MOL0     N89421   7.294   8.973   9.339 -0.1680  0.3129  1.1555
  663MOL0     C89422   7.271   8.065   9.231  0.1313 -0.1516  0.5888
  663MOL0     C89423   7.130   8.060   9.240  0.6143 -0.0551  0.9524
  663MOL0     C89424   6.706   8.058   9.131  0.0447  0.8528 -0.2309
  663MOL0     C89425   6.671   8.023   9.267  0.2740 -0.1168 -0.5163
  663MOL0     C89426   6.533   8.030   9.298  0.7343 -0.5050 -0.3477
  663MOL0     C89427   6.431   8.083   9.215 -0.3740 -0.0288  1.3212
  663MOL0     O89428   6.294   8.091   9.229 -0.0483 -0.1431  0.0809
  663MOL0     C89429   6.221   8.038   9.344 -0.8674 -0.5169 -0.9811
  663MOL0     C89430   6.235   7.893   9.360  1.6875 -0.3026 -0.3579
  663MOL0     C89431   6.195   7.810   9.239 -0.4986  0.6624  0.0458
  663MOL0     C89432   6.172   7.661   9.275 -0.1946 -0.2971  0.2444
  663MOL0     C89433   6.286   7.620   9.364  0.7914 -0.2966  0.4521
  663MOL0     C89434   6.383   7.601   9.429  0.0318  0.2219  0.0356
  663MOL0     C89435   6.471   8.132   9.084 -0.3651  0.2567 -0.3268
  663MOL0     C89436   6.610   8.117   9.046  1.4563  0.4688 -0.1055
  663MOL0     C89437   6.640   8.165   8.904  0.0504 -0.5039  0.2066
  663MOL0     H89438   7.069   7.769   9.092  3.3418 -1.5353 -1.4661
  663MOL0     H89439   7.322   7.746   9.137  2.3791  0.3721  3.9458
  663MOL0     H89440   7.608   8.008   9.052 -1.1566 -2.0571  0.4019
  663MOL0     H89441   7.462   8.102   9.068 -1.4780 -2.8784 -1.2163
  663MOL0     H89442   7.692   8.111   9.267 -2.5906 -0.5031  3.5204
  663MOL0     H89443   7.530   8.168   9.299  2.0439  0.7140  2.3920
  663MOL0     H89444   7.675   8.278   9.061  2.0103  3.0308 -0.3896
  663MOL0     H89445   7.702   8.359   9.205  0.8607  1.1238 -2.8809
  663MOL0     H89446   7.429   8.321   9.112  0.3226 -2.0540  2.7334
  663MOL0     H89447   7.476   8.408   9.262  0.4030 -1.1262  0.6278
  663MOL0     H89448   7.619   8.568   9.122 -0.0038  0.8704 -0.4297
  663MOL0     H89449   7.561   8.500   8.980  3.7609 -0.9527  0.9940
  663MOL0     H89450   7.443   8.685   9.017  2.0473  1.3660  0.2916
  663MOL0     H89451   7.319   8.555   9.049  1.2464 -0.9963 -1.5967
  663MOL0     H89452   7.460   8.719   9.257  0.0149 -0.3312  0.3703
  663MOL0     H89453   7.356   8.581   9.295  4.9018  1.5221  1.0505
  663MOL0     H89454   7.173   8.741   9.151  0.4004  1.8383 -0.2660
  663MOL0     H89455   7.191   8.724   9.322 -2.1720 -2.2150 -1.6633
  663MOL0     H89456   7.358   8.928   9.024  0.4420 -1.0477  1.0905
  663MOL0     H89457   7.521   9.230   9.160 -3.8315  3.8164 -0.5178
  663MOL0     H89458   7.533   9.131   9.020  0.9862 -0.2404  0.9777
  663MOL0     H89459   7.301   9.331   9.067 -1.1401  1.4155 -1.9190
  663MOL0     H89460   7.446   9.362   8.989  0.2306  1.0416  1.8263
  663MOL0     H89461   7.236   9.148   8.926  1.4020 -1.2242  0.5478
  663MOL0     H89462   7.394   9.138   8.840  1.5884  1.6497 -3.5182
  663MOL0     H89463   7.166   9.322   8.786 -0.3890  0.1418 -1.0663
  663MOL0     H89464   7.239   9.221   8.673 -0.0678  2.6469 -1.4343
  663MOL0     H89465   7.535   9.533   8.663 -0.4602  0.1145 -1.7656
  663MOL0     H89466   7.513   9.774   8.623 -1.4204  1.6349 -0.4797
  663MOL0     H89467   7.311  10.152   8.795 -0.1155  2.6344  1.3284
  663MOL0     H89468   7.297  10.404   8.779  2.4204 -1.3966 -1.6688
  663MOL0     H89469   7.183  10.615   8.817 -0.1981  0.1287 -0.5577
  663MOL0     H89470   7.304  10.618   8.695  0.1755  3.8486  2.7087
  663MOL0     H89471   7.034  10.766   8.681  0.0070 -0.6439  2.0519
  663MOL0     H89472   7.180  10.837   8.738  5.3468 -1.7427  0.7508
  663MOL0     H89473   7.177  10.710   8.455  4.0420  1.4542 -0.2864
  663MOL0     H89474   7.093  10.855   8.486 -0.9884 -0.9438 -1.0820
  663MOL0     H89475   7.382  10.771   8.490 -1.9483 -1.0151 -2.6917
  663MOL0     H89476   7.333  10.915   8.588 -1.3555 -0.9625  0.5385
  663MOL0     H89477   7.244  11.025   8.374 -0.3073 -0.0513  4.9288
  663MOL0     H89478   7.275  10.870   8.294 -0.6157  1.5930 -0.8528
  663MOL0     H89479   7.502  11.036   8.419  2.3814  1.4739 -2.5694
  663MOL0     H89480   7.518  10.891   8.320 -2.2249 -1.0615 -1.9542
  663MOL0     H89481   7.364  11.098   8.182  0.2951 -3.3009 -3.6394
  663MOL0     H89482   7.498  11.009   8.140  1.1372  1.8737 -0.8313
  663MOL0     H89483   7.648  11.172   8.285 -2.9734 -2.8328  4.3153
  663MOL0     H89484   7.579  11.240   8.137  1.3791  2.8843  0.7719
  663MOL0     H89485   6.958  10.362   8.528  0.5584  2.7866  1.8375
  663MOL0     H89486   6.972  10.107   8.550 -0.6676  2.5042 -0.7229
  663MOL0     H89487   7.124   9.774   8.758  0.6350  1.6461  1.1396
  663MOL0     H89488   7.132   9.516   8.787 -0.3987  0.0567 -0.3329
  663MOL0     H89489   7.314   8.158   9.268 -1.4945  2.0051 -2.4653
  663MOL0     H89490   7.081   8.135   9.301  2.1049  0.4445  1.5853
  663MOL0     H89491   6.742   7.977   9.336 -1.4333  0.1625  1.5045
  663MOL0     H89492   6.520   7.993   9.400  0.5738 -0.0052 -0.1843
  663MOL0     H89493   6.114   8.048   9.323 -0.6545 -0.6031 -2.1782
  663MOL0     H89494   6.246   8.097   9.432 -0.1469  1.8884 -2.6796
  663MOL0     H89495   6.167   7.874   9.443  1.1357 -0.0409 -0.7499
  663MOL0     H89496   6.336   7.873   9.399  1.9554  1.3247 -0.1336
  663MOL0     H89497   6.270   7.813   9.158 -2.8134  0.3689 -2.2278
  663MOL0     H89498   6.103   7.854   9.200  0.5281  3.8704  0.8869
  663MOL0     H89499   6.077   7.657   9.330 -0.5159 -2.5350 -0.3502
  663MOL0     H89500   6.162   7.601   9.184 -0.5811 -0.1022  0.1568
  663MOL0     H89501   6.463   7.566   9.491  0.4694  0.4303 -0.4063
  663MOL0     H89502   6.395   8.166   9.014 -2.5759 -1.9414  0.8299
  663MOL0     H89503   6.702   8.255   8.904  0.1289 -0.5429 -1.2742
  663MOL0     H89504   6.696   8.088   8.852  0.0904 -1.4258  1.5621
  663MOL0     H89505   6.557   8.191   8.838  0.9375  2.1797  0.0324
  664MOL0     O89506   5.823   7.157   3.219 -0.3026 -0.7905 -0.1874
  664MOL0     C89507   5.807   7.277   3.198  0.2749 -0.3224 -0.0227
  664MOL0     O89508   5.787   7.343   3.075  0.6773 -0.7782 -0.4186
  664MOL0     C89509   5.805   7.256   2.964 -0.1433 -1.2603 -0.8610
  664MOL0     C89510   5.696   7.222   2.877 -0.3183 -0.0446  0.1089
  664MOL0     C89511   5.715   7.142   2.767  0.1447 -0.4605  0.1032
  664MOL0     C89512   5.843   7.102   2.726  0.3284  0.3758 -1.0758
  664MOL0     O89513   5.866   7.017   2.626  0.4514 -0.2329 -0.3863
  664MOL0     C89514   5.802   6.885   2.641  0.5706 -0.2116  0.7492
  664MOL0     C89515   5.861   6.792   2.542 -0.8197 -0.5313  0.5925
  664MOL0     C89516   6.018   6.778   2.544 -0.0212 -0.5178  0.0916
  664MOL0     C89517   6.072   6.737   2.681 -0.0017 -0.2554 -0.4040
  664MOL0     C89518   6.232   6.736   2.703 -0.3104 -0.7121  0.3928
  664MOL0     C89519   6.282   6.703   2.844  0.9424 -0.2432 -0.0732
  664MOL0     C89520   6.437   6.726   2.852 -0.2412 -0.9919  1.3047
  664MOL0     C89521   6.472   6.853   2.931  0.0238 -0.6721  0.2037
  664MOL0     N89522   6.607   6.907   2.910 -0.7662  0.1547  0.1552
  664MOL0     C89523   6.692   6.969   3.002 -0.3813  0.1615  0.3566
  664MOL0     C89524   6.810   6.985   2.939  0.4359 -0.5398 -0.1215
  664MOL0     C89525   6.935   7.042   3.002 -0.0028 -1.0463 -0.3614
  664MOL0     C89526   6.962   7.191   2.951 -1.0509  0.3534  0.6303
  664MOL0     C89527   6.891   7.301   3.036 -1.5412 -0.6210  0.3170
  664MOL0     C89528   6.937   7.449   2.995  0.3888 -0.1635 -0.0296
  664MOL0     O89529   6.942   7.464   2.860  0.5762 -0.0903  0.4673
  664MOL0     C89530   6.827   7.503   2.796 -0.0973  0.1201  0.5351
  664MOL0     C89531   6.701   7.534   2.851  0.7405 -0.5046 -0.2029
  664MOL0     C89532   6.597   7.595   2.780 -0.9851  0.1587 -1.6454
  664MOL0     C89533   6.611   7.626   2.645 -0.0735 -0.0734  1.5652
  664MOL0     C89534   6.506   7.676   2.558  0.7801 -0.4729 -0.8486
  664MOL0     O89535   6.541   7.707   2.436 -0.4814 -0.2837  0.7972
  664MOL0     C89536   6.435   7.745   2.358 -0.7900  0.5135  1.3244
  664MOL0     C89537   6.324   7.669   2.330  0.9905 -0.0752 -0.6765
  664MOL0     C89538   6.208   7.724   2.278 -0.4901  0.8913  0.3596
  664MOL0     C89539   6.207   7.859   2.252  0.7104  1.0477  0.8071
  664MOL0     O89540   6.105   7.922   2.204  0.9164 -0.1034 -0.7592
  664MOL0     C89541   5.968   7.908   2.255  0.4827  0.1635 -0.2297
  664MOL0     C89542   5.910   8.054   2.237  0.2777  0.1956  0.3476
  664MOL0     C89543   5.983   8.162   2.302  0.6373 -0.3324  0.1371
  664MOL0     C89544   5.896   8.294   2.332  0.2596  0.9412 -0.0860
  664MOL0     C89545   5.986   8.402   2.376  0.4895  0.2618  0.0917
  664MOL0     C89546   5.912   8.516   2.436  0.7999  0.3125  1.0290
  664MOL0     C89547   6.002   8.626   2.460 -1.1627 -1.0730  0.0545
  664MOL0     C89548   5.910   8.732   2.534  0.4671  0.3418  0.0898
  664MOL0    Cl89549   6.016   8.863   2.597  0.6498  0.0720 -0.0804
  664MOL0     C89550   6.316   7.941   2.278 -1.2653 -0.6186  0.2302
  664MOL0     C89551   6.435   7.882   2.328  0.0764 -0.4858 -0.3354
  664MOL0     O89552   6.402   7.696   2.617  0.4973  0.2855  0.0964
  664MOL0     C89553   6.742   7.596   2.585 -0.2687  1.1300  0.0119
  664MOL0     C89554   6.850   7.541   2.664  0.2257 -0.0538 -0.4862
  664MOL0     N89555   6.806   6.944   2.805 -0.7192 -0.8642  0.7261
  664MOL0     N89556   6.680   6.919   2.784  0.1201 -0.3398 -0.1148
  664MOL0     C89557   5.956   7.155   2.800  0.8446 -0.2439  0.3832
  664MOL0     C89558   5.933   7.222   2.922  0.4046 -0.0731  0.8957
  664MOL0     C89559   5.826   7.362   3.311 -1.0010 -0.5131 -0.1151
  664MOL0     C89560   5.926   7.459   3.293  0.3902  0.4504 -0.1998
  664MOL0     C89561   5.935   7.561   3.386 -0.1033 -0.3946  0.0439
  664MOL0     C89562   5.864   7.565   3.506  0.3117 -0.8424 -0.0097
  664MOL0     O89563   5.867   7.663   3.601 -0.2410 -0.5976  0.2910
  664MOL0     C89564   5.956   7.785   3.577 -0.2784  0.2204  0.0641
  664MOL0     C89565   5.961   7.872   3.702  0.7665  0.7558 -0.7459
  664MOL0     C89566   5.824   7.901   3.779 -0.9643  0.4737  0.0250
  664MOL0     C89567   5.836   7.963   3.920 -0.5483  0.1792  0.6980
  664MOL0     C89568   5.723   8.042   3.957  0.8959 -0.1617  0.6528
  664MOL0     C89569   5.623   8.118   3.972 -0.7038  0.7692  0.4338
  664MOL0     C89570   5.771   7.460   3.520  0.3871  0.6068  0.3826
  664MOL0     C89571   5.743   7.365   3.420 -0.2391  0.7112 -0.6096
  664MOL0     C89572   5.645   7.264   3.451  0.6285  0.0647 -1.1406
  664MOL0     H89573   5.593   7.245   2.905 -0.9257  0.9017 -2.6636
  664MOL0     H89574   5.624   7.113   2.716 -0.7115  1.2957  0.5623
  664MOL0     H89575   5.807   6.844   2.742 -1.0145 -4.1714 -0.5562
  664MOL0     H89576   5.693   6.882   2.624  0.7226 -0.3793 -0.3079
  664MOL0     H89577   5.845   6.825   2.438  3.3777  0.6890  0.1391
  664MOL0     H89578   5.821   6.690   2.546  1.1372 -1.2758  2.1784
  664MOL0     H89579   6.060   6.877   2.526 -1.5742  0.0570 -0.5875
  664MOL0     H89580   6.047   6.705   2.467 -1.6680 -1.8845  0.7049
  664MOL0     H89581   6.044   6.819   2.747  0.3564 -0.1641 -0.3647
  664MOL0     H89582   6.035   6.638   2.708  0.7580 -1.1198 -2.3224
  664MOL0     H89583   6.272   6.663   2.631  0.1096 -3.8675  3.5662
  664MOL0     H89584   6.275   6.831   2.670 -2.6966  1.5685  3.2096
  664MOL0     H89585   6.230   6.767   2.915  1.3588  0.5758 -0.4843
  664MOL0     H89586   6.253   6.604   2.879 -0.4885  1.0848  2.8765
  664MOL0     H89587   6.485   6.737   2.754 -0.6020 -2.3600  0.9461
  664MOL0     H89588   6.487   6.644   2.906  1.1894 -1.6718 -0.8926
  664MOL0     H89589   6.404   6.927   2.887 -3.2595 -2.3140  2.1095
  664MOL0     H89590   6.464   6.847   3.040  2.1625 -1.2726  0.3870
  664MOL0     H89591   6.667   7.006   3.101 -1.2041  1.1254 -0.2024
  664MOL0     H89592   6.926   7.024   3.110  2.8653 -1.5684 -0.1364
  664MOL0     H89593   7.018   6.983   2.962  0.3594 -0.4974 -0.4239
  664MOL0     H89594   7.070   7.210   2.948 -0.9701 -0.2075 -0.6626
  664MOL0     H89595   6.941   7.192   2.844 -0.8200 -0.7549  0.5672
  664MOL0     H89596   6.912   7.291   3.143  0.5141 -1.2530 -0.1106
  664MOL0     H89597   6.782   7.300   3.023 -1.6341  4.0000 -1.0436
  664MOL0     H89598   7.037   7.454   3.041  2.2770  6.2019 -3.6379
  664MOL0     H89599   6.870   7.519   3.046 -1.9179 -2.0631 -0.2907
  664MOL0     H89600   6.680   7.510   2.955  2.0772 -2.8854 -0.3933
  664MOL0     H89601   6.510   7.611   2.843  0.3947  0.0508  0.4064
  664MOL0     H89602   6.313   7.572   2.377 -2.8785  0.6625  0.3233
  664MOL0     H89603   6.124   7.660   2.254  0.3544  0.0359 -0.3985
  664MOL0     H89604   5.903   7.829   2.215 -0.6302  1.6675 -1.4768
  664MOL0     H89605   5.968   7.890   2.363  3.3865  2.3195  0.2193
  664MOL0     H89606   5.906   8.071   2.129  1.9114 -1.1443  0.0383
  664MOL0     H89607   5.807   8.048   2.272  0.2326 -5.5213  0.1740
  664MOL0     H89608   6.005   8.122   2.401  0.4502 -2.1695 -0.5160
  664MOL0     H89609   6.077   8.190   2.255  1.8441  0.1993  2.7052
  664MOL0     H89610   5.823   8.268   2.410 -0.3461 -1.7038 -1.4226
  664MOL0     H89611   5.845   8.325   2.241 -1.2635  1.5881  0.9303
  664MOL0     H89612   6.043   8.427   2.286 -0.8235 -0.7017 -1.0386
  664MOL0     H89613   6.058   8.355   2.443  0.5162  0.2412  0.0479
  664MOL0     H89614   5.819   8.533   2.380 -0.1230 -0.2989  2.3233
  664MOL0     H89615   5.864   8.481   2.528 -0.5541  2.2423  1.1228
  664MOL0     H89616   6.041   8.662   2.364 -0.9722  0.8465  0.8048
  664MOL0     H89617   6.091   8.602   2.520 -1.0282 -0.3141  0.1672
  664MOL0     H89618   5.830   8.768   2.468 -0.6381 -0.2052  1.0992
  664MOL0     H89619   5.854   8.689   2.617 -0.7541  1.3277 -0.1981
  664MOL0     H89620   6.315   8.048   2.259 -0.5431 -0.2230  2.1203
  664MOL0     H89621   6.526   7.937   2.351 -1.2036  1.3484  0.5856
  664MOL0     H89622   6.769   7.603   2.481 -0.8972 -0.9849 -0.3504
  664MOL0     H89623   6.941   7.535   2.606  2.1383 -0.8609  2.4354
  664MOL0     H89624   6.057   7.124   2.773  0.2259 -1.3859 -0.7311
  664MOL0     H89625   6.026   7.250   2.970  0.0591 -0.5840  1.8861
  664MOL0     H89626   5.994   7.457   3.209  2.9598 -2.1410  1.7462
  664MOL0     H89627   6.009   7.636   3.358 -0.8159  0.1999 -0.2900
  664MOL0     H89628   5.912   7.840   3.494 -1.9034 -0.3369  0.5224
  664MOL0     H89629   6.058   7.751   3.554  0.8734  2.2064  1.8024
  664MOL0     H89630   6.004   7.970   3.679 -0.6063  1.2272 -1.4494
  664MOL0     H89631   6.031   7.811   3.761 -1.8135 -1.6335  0.0904
  664MOL0     H89632   5.765   7.808   3.777  2.6130 -1.9980 -1.1264
  664MOL0     H89633   5.772   7.978   3.721  0.5179  0.5043 -1.3434
  664MOL0     H89634   5.867   7.886   3.991  1.4922  0.3608  0.0825
  664MOL0     H89635   5.920   8.034   3.915  2.2385 -2.8947 -0.6207
  664MOL0     H89636   5.541   8.184   3.991 -1.3012  0.0758  0.3049
  664MOL0     H89637   5.711   7.453   3.610 -3.4710  1.3484 -1.9130
  664MOL0     H89638   5.566   7.248   3.377 -0.1752  3.0770 -1.0468
  664MOL0     H89639   5.689   7.163   3.457  1.2584  0.1331 -3.4409
  664MOL0     H89640   5.596   7.296   3.543 -1.3474 -1.8238 -1.4559
  665MOL0     O89641   8.922   9.020  11.360 -0.1068 -0.2092  0.0212
  665MOL0     C89642   8.824   9.002  11.433  0.4411  0.0550  0.7221
  665MOL0     O89643   8.688   8.992  11.405  0.0057 -0.0020  0.3909
  665MOL0     C89644   8.657   9.022  11.280 -0.2947  1.2211 -0.2813
  665MOL0     C89645   8.619   9.150  11.254  0.6146  0.6405 -0.1478
  665MOL0     C89646   8.593   9.188  11.124 -0.0583  0.1886  0.1364
  665MOL0     C89647   8.598   9.093  11.019  0.2253  0.1560 -1.0852
  665MOL0     O89648   8.552   9.114  10.890  0.7200  0.6724  0.7467
  665MOL0     C89649   8.453   9.215  10.872  0.1788  0.8850  0.2542
  665MOL0     C89650   8.416   9.221  10.728  0.4789 -0.3492 -0.4581
  665MOL0     C89651   8.312   9.328  10.702  0.1092 -0.4153 -0.4514
  665MOL0     C89652   8.189   9.322  10.793 -0.1517  0.3297  0.3433
  665MOL0     C89653   8.075   9.416  10.745  0.4478  0.1996 -0.5296
  665MOL0     C89654   8.112   9.566  10.760  0.1877  0.0808  0.0901
  665MOL0     C89655   7.998   9.663  10.777 -0.4427  0.0956  0.6156
  665MOL0     C89656   8.053   9.806  10.773 -0.7231 -0.8991  0.0715
  665MOL0     N89657   7.945   9.899  10.787 -0.2599 -0.4404 -0.1363
  665MOL0     C89658   7.861   9.898  10.894 -0.2584  0.0500  0.0913
  665MOL0     C89659   7.762   9.977  10.859  0.4037  0.3714 -0.6679
  665MOL0     C89660   7.651  10.050  10.938  0.3575  0.5674  0.5314
  665MOL0     C89661   7.557   9.946  11.000 -0.5117 -0.7609 -0.5279
  665MOL0     C89662   7.458  10.027  11.086  0.0677 -0.0074  0.7822
  665MOL0     C89663   7.313   9.990  11.091 -1.1848  0.5019  0.1573
  665MOL0     O89664   7.309   9.850  11.109  0.3280 -0.0706  0.1828
  665MOL0     C89665   7.353   9.790  11.225  0.8352 -0.2601 -0.4816
  665MOL0     C89666   7.305   9.834  11.347  0.1399 -0.2477 -0.2620
  665MOL0     C89667   7.331   9.762  11.463 -0.7961 -0.7054 -0.1972
  665MOL0     C89668   7.423   9.653  11.460  0.1424 -0.7095 -0.4648
  665MOL0     C89669   7.468   9.590  11.583 -0.1949 -0.5948  0.7207
  665MOL0     O89670   7.414   9.640  11.695 -0.0910  0.2005 -0.3305
  665MOL0     C89671   7.454   9.598  11.812  1.0250  0.5248  0.0155
  665MOL0     C89672   7.370   9.640  11.914  2.1067  1.5160 -0.7168
  665MOL0     C89673   7.407   9.611  12.044  0.8257 -0.3222  0.9031
  665MOL0     C89674   7.517   9.534  12.081  0.2254 -0.0914 -0.5971
  665MOL0     O89675   7.527   9.482  12.208  0.3962 -0.2135 -0.3257
  665MOL0     C89676   7.514   9.343  12.217 -0.2234  1.0050  0.2525
  665MOL0     C89677   7.658   9.297  12.252 -0.3356 -0.0572 -0.4693
  665MOL0     C89678   7.660   9.148  12.291 -0.3249 -0.3777  0.2242
  665MOL0     C89679   7.783   9.098  12.360  0.5908 -0.1923  0.2768
  665MOL0     C89680   7.779   9.121  12.508 -0.0069  0.3216 -0.8523
  665MOL0     C89681   7.921   9.153  12.562  0.0534 -0.0087 -0.5278
  665MOL0     C89682   7.936   9.127  12.709 -0.0629 -0.2432 -0.9672
  665MOL0     C89683   8.077   9.183  12.758  0.1724  0.0739  1.0156
  665MOL0    Cl89684   8.164   9.093  12.889  0.3233  0.7083 -0.0876
  665MOL0     C89685   7.599   9.501  11.974 -1.1085 -0.2241  0.3497
  665MOL0     C89686   7.574   9.537  11.840  0.8588  0.2143  0.3330
  665MOL0     O89687   7.525   9.485  11.575  0.4365 -0.7182  0.2801
  665MOL0     C89688   7.466   9.611  11.335  0.4239  0.8697 -0.6642
  665MOL0     C89689   7.421   9.664  11.220 -0.3919 -0.6667 -0.3933
  665MOL0     N89690   7.782  10.012  10.724  0.2914  0.4201  0.5012
  665MOL0     N89691   7.896   9.967  10.683 -0.1951 -0.5403 -0.3318
  665MOL0     C89692   8.630   8.952  11.050  0.3482 -0.2171 -0.1234
  665MOL0     C89693   8.654   8.916  11.181  0.2090 -0.2419 -0.0229
  665MOL0     C89694   8.868   8.976  11.581  0.1707  0.1529  0.5101
  665MOL0     C89695   8.968   8.884  11.608  0.3592 -0.0071 -0.0182
  665MOL0     C89696   9.004   8.857  11.741 -0.5186  0.2620 -0.1994
  665MOL0     C89697   8.945   8.931  11.852 -0.8887  1.4708 -0.2810
  665MOL0     O89698   8.986   8.908  11.985  0.0952 -0.3153 -0.1077
  665MOL0     C89699   9.018   8.780  12.047 -0.2435  0.1873 -0.0651
  665MOL0     C89700   8.985   8.779  12.197 -0.0636 -0.3779 -0.0355
  665MOL0     C89701   9.040   8.651  12.260  1.0302  0.4045 -0.1771
  665MOL0     C89702   8.965   8.524  12.226  0.0919 -0.5019  0.1596
  665MOL0     C89703   8.980   8.434  12.338  0.1948 -0.2034 -1.0025
  665MOL0     C89704   8.989   8.364  12.434 -0.2018  0.0273 -1.2436
  665MOL0     C89705   8.851   9.026  11.819 -0.0702  0.3442 -1.1115
  665MOL0     C89706   8.808   9.049  11.687  1.0481 -0.3072 -0.7731
  665MOL0     C89707   8.701   9.140  11.668 -0.5814 -0.0820 -0.6121
  665MOL0     H89708   8.611   9.210  11.344  0.0273 -0.8920  0.8559
  665MOL0     H89709   8.561   9.291  11.113 -1.9022 -0.3507  0.1006
  665MOL0     H89710   8.372   9.191  10.942  0.4619  0.7285  0.5350
  665MOL0     H89711   8.488   9.309  10.914 -0.7099  0.8952  1.0204
  665MOL0     H89712   8.380   9.124  10.691 -1.2210  0.2584 -0.4949
  665MOL0     H89713   8.512   9.244  10.682 -1.2811  2.2073 -3.1980
  665MOL0     H89714   8.288   9.306  10.598  2.0480 -0.8254 -0.8527
  665MOL0     H89715   8.362   9.425  10.705 -1.4940  0.4986 -2.0510
  665MOL0     H89716   8.161   9.216  10.796  0.6575  0.1348  1.4287
  665MOL0     H89717   8.211   9.356  10.894  0.3419  0.8242  0.0756
  665MOL0     H89718   8.028   9.406  10.647 -1.7947  0.1327  0.4959
  665MOL0     H89719   7.997   9.399  10.820  1.3682  0.6807  0.5717
  665MOL0     H89720   8.182   9.570  10.844  0.3590 -0.0852 -0.0413
  665MOL0     H89721   8.176   9.591  10.675  2.4230 -1.5601  1.1709
  665MOL0     H89722   7.965   9.637  10.878  0.4338  0.0483  0.9001
  665MOL0     H89723   7.928   9.650  10.694  0.2804 -2.5391  0.3252
  665MOL0     H89724   8.130   9.812  10.851 -0.6893 -0.5225  0.0120
  665MOL0     H89725   8.110   9.819  10.680 -1.4116 -1.2517 -0.4057
  665MOL0     H89726   7.880   9.866  10.996  0.6827 -0.2601 -0.1781
  665MOL0     H89727   7.683  10.117  11.018  0.0427  2.2051 -0.6505
  665MOL0     H89728   7.588  10.097  10.862 -1.4760 -1.9880  0.3259
  665MOL0     H89729   7.507   9.884  10.926 -2.3306  1.9720 -1.7434
  665MOL0     H89730   7.624   9.885  11.062 -0.7787 -3.2595 -2.5528
  665MOL0     H89731   7.467  10.131  11.052 -2.4809  0.3578  1.0769
  665MOL0     H89732   7.489  10.027  11.191  1.7104  0.1230  0.3336
  665MOL0     H89733   7.259  10.017  11.000 -0.1767  1.0481 -0.2971
  665MOL0     H89734   7.253  10.044  11.166 -0.2156  0.8942  0.6710
  665MOL0     H89735   7.251   9.928  11.353 -1.2918 -1.0520 -0.1325
  665MOL0     H89736   7.292   9.793  11.559 -1.5646 -3.0178  0.3015
  665MOL0     H89737   7.278   9.692  11.890  0.4978 -1.7133 -2.0769
  665MOL0     H89738   7.340   9.633  12.126 -0.4724 -3.0993  0.7116
  665MOL0     H89739   7.438   9.311  12.288 -0.5753 -1.1653 -1.0055
  665MOL0     H89740   7.485   9.308  12.117 -1.3641 -0.3906  1.0272
  665MOL0     H89741   7.724   9.318  12.167 -0.4035  0.7053 -0.3408
  665MOL0     H89742   7.688   9.358  12.338  0.0613  1.6031 -1.7258
  665MOL0     H89743   7.565   9.128  12.341  0.1875  0.5844  1.6424
  665MOL0     H89744   7.658   9.095  12.195  1.8239  1.9119 -1.2088
  665MOL0     H89745   7.871   9.155  12.330 -0.5129  2.7240  2.1084
  665MOL0     H89746   7.793   8.990  12.346 -0.7550 -0.3048  0.0892
  665MOL0     H89747   7.744   9.025  12.548  1.8557  0.4042  1.1408
  665MOL0     H89748   7.703   9.186  12.551  1.1685 -0.0561  2.0088
  665MOL0     H89749   8.000   9.107  12.503 -1.7418 -0.5850 -2.6155
  665MOL0     H89750   7.933   9.261  12.547  3.0363 -0.4816 -2.2562
  665MOL0     H89751   7.926   9.020  12.730  0.1999 -0.0530  0.1809
  665MOL0     H89752   7.855   9.176  12.764  2.2363 -0.9234  3.5136
  665MOL0     H89753   8.145   9.179  12.673  0.0958 -0.5716  0.9815
  665MOL0     H89754   8.065   9.289  12.779  1.6458  0.6096 -0.5760
  665MOL0     H89755   7.699   9.461  11.981 -1.0848 -0.4820 -1.1850
  665MOL0     H89756   7.646   9.540  11.759 -1.0257  1.8720 -1.3637
  665MOL0     H89757   7.533   9.526  11.324  0.9305  1.1423  0.2406
  665MOL0     H89758   7.466   9.632  11.126 -0.8718  0.9294 -1.2097
  665MOL0     H89759   8.643   8.869  10.982 -1.2992 -0.6008 -0.0090
  665MOL0     H89760   8.687   8.816  11.206  2.0375  0.4119  0.3708
  665MOL0     H89761   8.998   8.839  11.514 -2.7162  0.2145 -1.1906
  665MOL0     H89762   9.084   8.787  11.762 -0.3100  0.9977  1.6389
  665MOL0     H89763   9.126   8.764  12.040  0.6543  2.6551  4.4804
  665MOL0     H89764   8.970   8.700  11.990 -2.5423  1.8501 -0.5815
  665MOL0     H89765   8.876   8.791  12.209 -0.2447  0.0257 -1.8917
  665MOL0     H89766   9.031   8.871  12.235  0.2000 -0.1055 -1.0022
  665MOL0     H89767   9.038   8.680  12.365  4.0936 -0.3514  0.1781
  665MOL0     H89768   9.147   8.652  12.238  1.1321  1.7217  0.2724
  665MOL0     H89769   8.861   8.555  12.212  0.0768 -0.8024 -0.4370
  665MOL0     H89770   8.996   8.468  12.137  0.2461  1.5879 -1.1542
  665MOL0     H89771   9.014   8.320  12.529  2.7390  2.1583 -0.8937
  665MOL0     H89772   8.816   9.073  11.911  0.4689 -1.7556  0.2239
  665MOL0     H89773   8.721   9.213  11.589  4.2216  2.5544  2.5113
  665MOL0     H89774   8.611   9.082  11.644 -1.7236 -0.4487  3.7656
  665MOL0     H89775   8.677   9.192  11.761  1.4945 -2.1178  1.1891
  666MOL0     O89776   4.993   2.962   9.885  0.2309  0.2636 -0.1099
  666MOL0     C89777   5.112   2.992   9.884  1.4049 -0.5622  0.1260
  666MOL0     O89778   5.174   3.069   9.794 -0.9579 -0.0342  0.5562
  666MOL0     C89779   5.087   3.150   9.721 -0.4639 -0.3123  0.0911
  666MOL0     C89780   5.040   3.267   9.791 -1.0387 -0.6836  0.2278
  666MOL0     C89781   4.958   3.361   9.726  0.3076  0.8038  1.1147
  666MOL0     C89782   4.921   3.347   9.588 -1.0057  0.2570  0.7609
  666MOL0     O89783   4.829   3.413   9.514  0.7783 -0.1096 -1.2418
  666MOL0     C89784   4.724   3.482   9.576  0.3253 -0.1796 -1.0025
  666MOL0     C89785   4.751   3.627   9.589 -0.0514  0.5970 -1.1592
  666MOL0     C89786   4.681   3.718   9.490 -0.6458  0.4548 -0.1900
  666MOL0     C89787   4.742   3.856   9.494  0.6222 -0.0218 -0.6300
  666MOL0     C89788   4.671   3.966   9.404  1.1549 -0.0717  0.4595
  666MOL0     C89789   4.714   4.107   9.431 -0.5846 -0.2559  0.5253
  666MOL0     C89790   4.678   4.208   9.325  0.9690  0.0427 -0.1836
  666MOL0     C89791   4.697   4.358   9.391 -0.7281  0.7348 -0.2496
  666MOL0     N89792   4.577   4.410   9.451  0.3473 -0.3932  0.1965
  666MOL0     C89793   4.571   4.544   9.489  0.2324 -0.2200 -0.4178
  666MOL0     C89794   4.448   4.559   9.543  0.3161  0.3441  0.4302
  666MOL0     C89795   4.392   4.690   9.574  0.6740 -0.0511  0.2458
  666MOL0     C89796   4.263   4.684   9.663 -0.2375 -0.3924 -0.3943
  666MOL0     C89797   4.227   4.822   9.717 -0.0705 -0.0820 -0.8338
  666MOL0     C89798   4.085   4.814   9.744 -0.1208  0.4567 -0.0013
  666MOL0     O89799   4.040   4.950   9.741 -0.2730  0.7473 -0.5378
  666MOL0     C89800   3.906   4.977   9.742  0.7311  0.3102 -0.3301
  666MOL0     C89801   3.802   4.879   9.734  1.3673  0.0457  0.5123
  666MOL0     C89802   3.668   4.921   9.741  0.7898 -0.1222  1.0155
  666MOL0     C89803   3.631   5.054   9.756 -0.1349 -0.7765 -0.9560
  666MOL0     C89804   3.482   5.093   9.768  0.3923 -0.6448  0.3496
  666MOL0     O89805   3.389   4.991   9.773 -0.5006 -0.2570 -0.6758
  666MOL0     C89806   3.250   5.019   9.807  0.0362  0.7022 -0.2708
  666MOL0     C89807   3.164   5.096   9.731 -0.5220  0.0578  0.2265
  666MOL0     C89808   3.041   5.137   9.767  0.7760  0.7533  0.3930
  666MOL0     C89809   2.982   5.072   9.877  1.1030 -0.5155 -0.7387
  666MOL0     O89810   2.854   5.104   9.902  0.1426  0.3886 -0.0812
  666MOL0     C89811   2.767   4.988   9.895 -0.2210  0.2060  0.7016
  666MOL0     C89812   2.639   5.005   9.970  0.2573 -0.6122  0.6181
  666MOL0     C89813   2.567   4.877  10.002  0.0059 -0.2628 -0.0069
  666MOL0     C89814   2.445   4.913  10.096  0.6637  0.8102 -0.3407
  666MOL0     C89815   2.424   4.787  10.192 -0.3965 -0.1741 -0.4377
  666MOL0     C89816   2.377   4.665  10.120  0.3848  0.0470 -0.4660
  666MOL0     C89817   2.255   4.608  10.185  0.2537 -0.3932  0.1406
  666MOL0     C89818   2.161   4.530  10.086 -0.8185  0.2464  0.7121
  666MOL0    Cl89819   2.006   4.627  10.061  0.4214  0.2161  0.5047
  666MOL0     C89820   3.050   4.997   9.954 -0.3934 -0.3754 -0.1038
  666MOL0     C89821   3.186   4.964   9.914 -1.5684 -0.8544  0.2409
  666MOL0     O89822   3.442   5.212   9.768  0.0062 -0.2414 -0.0873
  666MOL0     C89823   3.731   5.157   9.756 -0.2981  0.0492  0.1385
  666MOL0     C89824   3.866   5.115   9.752  0.1852 -1.1576 -0.9459
  666MOL0     N89825   4.380   4.446   9.536 -0.5346  0.6668 -0.5271
  666MOL0     N89826   4.462   4.349   9.502  0.2463 -0.4448  0.4170
  666MOL0     C89827   4.970   3.230   9.516 -0.5319  0.0759 -0.6196
  666MOL0     C89828   5.053   3.134   9.578  0.3367 -0.5629  0.0533
  666MOL0     C89829   5.198   2.916   9.976  0.0288  0.7863 -0.3246
  666MOL0     C89830   5.201   2.777   9.972 -0.5765 -0.0562 -0.4317
  666MOL0     C89831   5.287   2.708  10.052  0.9443 -0.4159 -0.6571
  666MOL0     C89832   5.377   2.767  10.135  0.0645 -0.0961  1.2838
  666MOL0     O89833   5.455   2.675  10.202  0.1711  0.7293 -0.2298
  666MOL0     C89834   5.529   2.712  10.315 -0.3331  0.6710 -0.0055
  666MOL0     C89835   5.579   2.586  10.387  0.3056 -0.6327 -0.5248
  666MOL0     C89836   5.701   2.520  10.320  0.6168  0.7376  0.4835
  666MOL0     C89837   5.823   2.598  10.349  0.3740 -0.5107 -0.3503
  666MOL0     C89838   5.934   2.515  10.313  0.1939 -0.8497 -0.7369
  666MOL0     C89839   6.033   2.456  10.278  0.7983  0.6558  0.1025
  666MOL0     C89840   5.377   2.905  10.141  0.2128  0.2061  0.4909
  666MOL0     C89841   5.288   2.982  10.058 -0.7539  1.1270 -0.1301
  666MOL0     C89842   5.287   3.137  10.070  0.0969 -0.2577  0.3459
  666MOL0     H89843   5.063   3.276   9.896  0.7431 -0.5622 -0.1449
  666MOL0     H89844   4.905   3.441   9.777 -5.4065 -1.4019 -0.6168
  666MOL0     H89845   4.646   3.468   9.501 -1.3115 -0.4584  0.6804
  666MOL0     H89846   4.691   3.443   9.673 -0.2998 -0.2568 -1.2415
  666MOL0     H89847   4.859   3.643   9.581  0.7332 -0.9127  3.4042
  666MOL0     H89848   4.719   3.664   9.687 -0.0240  4.4555 -2.4256
  666MOL0     H89849   4.580   3.739   9.528 -0.6944  0.0637 -0.1028
  666MOL0     H89850   4.688   3.683   9.387 -0.9678  2.2373 -0.8602
  666MOL0     H89851   4.739   3.900   9.595  1.3200  0.8176 -0.9582
  666MOL0     H89852   4.851   3.856   9.486  0.7687 -1.6207  0.8794
  666MOL0     H89853   4.695   3.947   9.299 -3.9567  0.0528 -1.0173
  666MOL0     H89854   4.563   3.963   9.423  0.7215 -1.8604 -1.7772
  666MOL0     H89855   4.662   4.146   9.519  3.5442 -0.7997  3.5134
  666MOL0     H89856   4.823   4.096   9.443 -0.6629 -0.8881  0.7173
  666MOL0     H89857   4.581   4.196   9.276  1.6750  2.0268 -2.1997
  666MOL0     H89858   4.747   4.193   9.242  0.6544  4.5134 -1.5039
  666MOL0     H89859   4.787   4.374   9.451  2.7150 -0.1549 -4.6382
  666MOL0     H89860   4.709   4.425   9.305 -0.7789  0.2153 -0.6631
  666MOL0     H89861   4.651   4.615   9.471  0.5609 -0.7756 -1.1883
  666MOL0     H89862   4.471   4.752   9.617 -1.3023  1.6415  1.5684
  666MOL0     H89863   4.383   4.743   9.478  3.0231 -0.0453 -0.0450
  666MOL0     H89864   4.187   4.639   9.599 -0.3112 -2.6638  1.1665
  666MOL0     H89865   4.275   4.618   9.750  3.1267  0.4116 -0.0947
  666MOL0     H89866   4.248   4.896   9.638 -2.9792 -1.7196 -3.3570
  666MOL0     H89867   4.271   4.844   9.814  1.4920 -0.5796 -1.3967
  666MOL0     H89868   4.066   4.782   9.847 -0.9568  1.2056  0.0893
  666MOL0     H89869   4.033   4.761   9.664 -1.1494  0.2620  0.7755
  666MOL0     H89870   3.813   4.771   9.727 -0.7828 -0.1167 -3.6183
  666MOL0     H89871   3.590   4.846   9.738 -0.8029  1.4902 -2.3328
  666MOL0     H89872   3.215   5.130   9.642  0.5358  0.4353  0.9503
  666MOL0     H89873   2.976   5.188   9.696 -1.1159  0.4820  1.8579
  666MOL0     H89874   2.753   4.973   9.787  1.2187 -3.5604  0.8768
  666MOL0     H89875   2.814   4.896   9.933 -0.9294 -0.7836 -0.7210
  666MOL0     H89876   2.670   5.059  10.059  1.2425 -0.9613  0.5056
  666MOL0     H89877   2.575   5.078   9.920 -0.8661  0.0898  2.9309
  666MOL0     H89878   2.530   4.835   9.908  0.9535  1.5924 -1.2733
  666MOL0     H89879   2.636   4.803  10.043 -0.8489 -1.0617  0.0099
  666MOL0     H89880   2.361   4.939  10.031  1.3042 -2.2901 -2.6162
  666MOL0     H89881   2.468   4.998  10.162  0.7416  0.6945 -0.2191
  666MOL0     H89882   2.358   4.822  10.272 -0.6875 -0.6108 -0.4817
  666MOL0     H89883   2.522   4.761  10.232  0.2450  1.0401 -1.1736
  666MOL0     H89884   2.357   4.690  10.015 -2.1037 -2.6233 -0.7404
  666MOL0     H89885   2.459   4.592  10.120  0.9792  0.6941 -0.3343
  666MOL0     H89886   2.194   4.687  10.231 -0.3924 -1.4130  1.0951
  666MOL0     H89887   2.264   4.537  10.268 -0.2994  0.2299  0.7519
  666MOL0     H89888   2.210   4.525   9.989 -0.1360  4.8035  0.5864
  666MOL0     H89889   2.141   4.426  10.113 -2.9003  0.5102  0.4100
  666MOL0     H89890   3.007   4.947  10.040  0.1528 -1.6190 -0.5349
  666MOL0     H89891   3.235   4.892   9.979 -0.3430  0.0375  0.3515
  666MOL0     H89892   3.691   5.257   9.739  3.4981  1.8164  0.5308
  666MOL0     H89893   3.941   5.194   9.750  1.3788 -2.2087 -4.0608
  666MOL0     H89894   4.937   3.223   9.412  3.5526 -1.3461 -2.0158
  666MOL0     H89895   5.089   3.039   9.540 -1.0252 -1.1291  0.1196
  666MOL0     H89896   5.148   2.730   9.890 -0.4873 -0.6364 -0.1625
  666MOL0     H89897   5.292   2.600  10.045 -0.9092 -0.4497 -2.2084
  666MOL0     H89898   5.467   2.779  10.375  1.6406  2.8438 -0.2620
  666MOL0     H89899   5.614   2.774  10.284 -0.5859  0.6979 -0.6539
  666MOL0     H89900   5.501   2.512  10.370  3.0106 -3.2106 -2.6222
  666MOL0     H89901   5.589   2.606  10.494 -1.8781 -3.0228  0.2248
  666MOL0     H89902   5.692   2.514  10.212 -0.2990  2.6640  0.4099
  666MOL0     H89903   5.712   2.413  10.341 -0.2835 -0.1892 -3.1027
  666MOL0     H89904   5.813   2.686  10.285 -3.7277 -0.0346  0.6442
  666MOL0     H89905   5.828   2.628  10.454  1.4347 -0.2878 -0.4519
  666MOL0     H89906   6.128   2.407  10.270 -0.4186 -2.2702  2.0050
  666MOL0     H89907   5.457   2.955  10.194  0.7034 -0.9825  0.8856
  666MOL0     H89908   5.185   3.175  10.060  0.1469 -0.0504  0.6148
  666MOL0     H89909   5.334   3.169  10.163  2.6986 -2.8992  0.1002
  666MOL0     H89910   5.347   3.181   9.991 -1.2293 -1.8603 -1.6721
  667MOL0     O89911   0.647  11.326   7.881  0.5888  0.7310 -0.8680
  667MOL0     C89912   0.589  11.366   7.782  0.6124  0.8705  0.9610
  667MOL0     O89913   0.610  11.483   7.721  0.5539  0.6602 -0.0012
  667MOL0     C89914   0.714  11.548   7.775 -0.5452 -0.8251  0.8292
  667MOL0     C89915   0.834  11.522   7.712  0.3784 -0.2929  0.3478
  667MOL0     C89916   0.954  11.582   7.761  0.2103 -0.5564 -1.1914
  667MOL0     C89917   0.945  11.685   7.861  0.0829 -0.2505  0.0358
  667MOL0     O89918   1.063  11.757   7.893  0.1738  0.2859 -0.4524
  667MOL0     C89919   1.063  11.857   8.003 -0.1933  0.4350  0.1389
  667MOL0     C89920   1.201  11.890   8.043  0.1415 -0.0573  0.5803
  667MOL0     C89921   1.198  12.006   8.140 -0.0031 -0.1382 -0.2148
  667MOL0     C89922   1.333  12.028   8.210 -0.2780  0.1132  0.3421
  667MOL0     C89923   1.313  12.135   8.314  0.0576 -0.8695 -0.3919
  667MOL0     C89924   1.438  12.161   8.403 -1.2524 -0.7275 -0.7618
  667MOL0     C89925   1.556  12.228   8.319  0.6206 -0.3741  0.3767
  667MOL0     C89926   1.659  12.298   8.406 -0.1405  0.7966 -0.8132
  667MOL0     N89927   1.704  12.215   8.529  0.0452  0.5399  0.1318
  667MOL0     C89928   1.630  12.202   8.642  0.4023  0.8352  0.4090
  667MOL0     C89929   1.703  12.129   8.740 -0.0756 -1.1165  0.1995
  667MOL0     C89930   1.660  12.073   8.876  0.8926 -0.7205 -1.4386
  667MOL0     C89931   1.579  12.169   8.952 -0.2441 -0.2505  1.0264
  667MOL0     C89932   1.516  12.104   9.077  0.2522  0.3048  0.0550
  667MOL0     C89933   1.619  12.091   9.199  0.7025  0.5477 -1.1372
  667MOL0     O89934   1.543  12.021   9.300  0.0780  0.4282 -1.7807
  667MOL0     C89935   1.606  11.978   9.415 -0.5057  0.0210 -0.0816
  667MOL0     C89936   1.713  12.057   9.462 -0.1582 -0.0301  0.0191
  667MOL0     C89937   1.760  12.028   9.591  0.1520 -0.9340  1.2968
  667MOL0     C89938   1.719  11.917   9.664  1.7778  0.1811  0.1607
  667MOL0     C89939   1.770  11.897   9.806  0.7206  0.4731  0.7343
  667MOL0     O89940   1.759  11.769   9.849 -0.3770 -1.0778 -0.7194
  667MOL0     C89941   1.818  11.739   9.971 -0.2937 -0.7319 -1.2455
  667MOL0     C89942   1.737  11.706  10.080 -0.4658  0.0445 -0.7046
  667MOL0     C89943   1.802  11.672  10.196  0.6131  1.1633  0.1880
  667MOL0     C89944   1.941  11.672  10.215 -0.2646 -0.1218 -0.8402
  667MOL0     O89945   1.998  11.626  10.339  0.0076 -0.8383 -0.4750
  667MOL0     C89946   2.125  11.674  10.392  0.4821 -0.5505 -0.6528
  667MOL0     C89947   2.121  11.826  10.435 -1.3017  0.7359 -1.0960
  667MOL0     C89948   2.264  11.893  10.444 -0.3496  0.6500  0.5992
  667MOL0     C89949   2.321  11.874  10.583  0.0164  0.0072 -0.1842
  667MOL0     C89950   2.441  11.958  10.594  0.1462  0.3824  0.0242
  667MOL0     C89951   2.493  11.976  10.734  1.1534 -0.1989 -0.0661
  667MOL0     C89952   2.621  12.056  10.735  0.3686 -0.0716 -0.6477
  667MOL0     C89953   2.694  12.050  10.869 -1.0828  0.5165 -0.3047
  667MOL0    Cl89954   2.816  12.177  10.883  0.0531 -0.0834  0.1931
  667MOL0     C89955   2.017  11.719  10.111 -0.5816 -0.3581  0.5731
  667MOL0     C89956   1.961  11.754   9.987  0.5254  0.3906 -0.1314
  667MOL0     O89957   1.819  11.990   9.867  0.5814 -0.2235 -1.3533
  667MOL0     C89958   1.612  11.842   9.621 -0.2500 -0.0893  0.7433
  667MOL0     C89959   1.562  11.868   9.486 -0.2664  0.8498  0.3935
  667MOL0     N89960   1.823  12.110   8.676 -0.4259 -0.1841  0.6755
  667MOL0     N89961   1.829  12.167   8.557  0.1405 -0.2680 -0.2838
  667MOL0     C89962   0.822  11.711   7.919  1.0520 -0.5423  0.7764
  667MOL0     C89963   0.708  11.638   7.880 -1.3840  0.7022  0.2516
  667MOL0     C89964   0.480  11.285   7.715 -0.2563 -0.1826  0.6131
  667MOL0     C89965   0.383  11.354   7.631  0.0331  0.2405  0.1086
  667MOL0     C89966   0.287  11.290   7.561 -0.5320 -1.5066  0.4372
  667MOL0     C89967   0.277  11.147   7.562 -1.0233  0.3490 -0.1163
  667MOL0     O89968   0.186  11.089   7.485  1.4265 -0.0806  0.2580
  667MOL0     C89969   0.085  11.007   7.546 -0.3318 -0.4472  0.8469
  667MOL0     C89970   0.016  11.069   7.676 -0.3527  0.5289 -1.0774
  667MOL0     C89971  -0.101  10.966   7.709 -0.3964 -0.9319 -0.1971
  667MOL0     C89972  -0.199  11.044   7.790  0.6646  0.9525  0.3587
  667MOL0     C89973  -0.149  11.062   7.921 -0.6199 -0.4636 -0.1148
  667MOL0     C89974  -0.107  11.094   8.036  0.4874  0.6227 -0.1814
  667MOL0     C89975   0.374  11.079   7.635  0.4853 -0.1832 -0.4419
  667MOL0     C89976   0.470  11.150   7.715 -0.5372  0.7196  0.0150
  667MOL0     C89977   0.568  11.056   7.801 -0.9001 -0.3666 -0.4616
  667MOL0     H89978   0.831  11.460   7.623  2.4160 -0.6947  0.5156
  667MOL0     H89979   1.045  11.572   7.703 -0.0759 -1.5047 -1.4837
  667MOL0     H89980   1.018  11.948   7.964  1.5033  1.4023  0.3485
  667MOL0     H89981   1.006  11.813   8.086 -2.0516 -1.0835 -1.8347
  667MOL0     H89982   1.260  11.924   7.958 -1.1485 -0.1328 -0.3695
  667MOL0     H89983   1.259  11.806   8.081  0.2119 -0.1262  0.3234
  667MOL0     H89984   1.125  11.974   8.215  1.5962 -2.6771  0.3470
  667MOL0     H89985   1.166  12.094   8.083 -2.3214 -0.3796  0.6056
  667MOL0     H89986   1.352  11.936   8.267 -0.9060 -0.7278 -0.7696
  667MOL0     H89987   1.408  12.051   8.134 -1.1077  1.3544 -0.1347
  667MOL0     H89988   1.285  12.232   8.272  2.6153  0.7617  1.3657
  667MOL0     H89989   1.236  12.106   8.386 -0.3387  1.9116  0.4036
  667MOL0     H89990   1.404  12.220   8.489  2.5630  0.6314  0.0043
  667MOL0     H89991   1.472  12.066   8.446 -3.8803 -0.6923  1.7337
  667MOL0     H89992   1.518  12.300   8.246 -4.4242 -1.6072  1.4195
  667MOL0     H89993   1.597  12.144   8.263 -0.5444 -1.3109  0.8954
  667MOL0     H89994   1.750  12.312   8.347 -0.5356 -0.4531 -1.7625
  667MOL0     H89995   1.611  12.387   8.448  0.8488  0.9029  0.1108
  667MOL0     H89996   1.526  12.233   8.647 -0.4008 -1.1325 -2.0111
  667MOL0     H89997   1.600  11.985   8.851 -1.2471  0.3487 -0.3488
  667MOL0     H89998   1.747  12.049   8.938 -0.1485 -0.7703  0.0596
  667MOL0     H89999   1.639  12.254   8.986  4.0233 -2.2790 -0.6470
  667MOL0     H90000   1.499  12.202   8.885  0.7157  1.2710  0.5987
  667MOL0     H90001   1.491  12.004   9.043  2.2513  1.0730 -4.4456
  667MOL0     H90002   1.423  12.160   9.090 -0.6541 -0.9350 -0.9881
  667MOL0     H90003   1.651  12.191   9.230  1.4217 -0.0030 -0.0322
  667MOL0     H90004   1.709  12.032   9.184 -0.3800 -0.6972 -3.2544
  667MOL0     H90005   1.752  12.140   9.403 -0.8976  1.6563  1.7941
  667MOL0     H90006   1.839  12.096   9.622  1.4845 -1.9080  0.1839
  667MOL0     H90007   1.629  11.699  10.082 -0.4716 -0.2000 -1.4880
  667MOL0     H90008   1.741  11.639  10.279 -1.4990  1.8782 -0.9900
  667MOL0     H90009   2.157  11.619  10.481  1.6634 -2.6242 -2.2576
  667MOL0     H90010   2.199  11.669  10.311  0.6408  1.3380 -0.6678
  667MOL0     H90011   2.069  11.888  10.362 -0.9126  1.2448 -0.9489
  667MOL0     H90012   2.071  11.840  10.532  0.6584  3.7189 -0.3722
  667MOL0     H90013   2.329  11.849  10.368 -0.9675 -0.5752  0.7512
  667MOL0     H90014   2.251  12.001  10.432 -0.9695  0.3858 -1.5250
  667MOL0     H90015   2.352  11.769  10.590  3.5725  1.0135  1.2607
  667MOL0     H90016   2.257  11.891  10.670  2.4527  0.1519  1.6766
  667MOL0     H90017   2.423  12.055  10.547 -1.2213 -0.2887 -0.8971
  667MOL0     H90018   2.521  11.909  10.538  0.3966 -2.9825  2.9753
  667MOL0     H90019   2.423  12.033  10.796  0.1604 -0.3519 -1.0168
  667MOL0     H90020   2.502  11.886  10.795 -3.1817  1.1573  3.0145
  667MOL0     H90021   2.584  12.158  10.720  1.7290  0.1677 -2.7135
  667MOL0     H90022   2.685  12.025  10.652  1.3232  0.7776 -0.2349
  667MOL0     H90023   2.629  12.050  10.958  0.7594  1.4157  1.1071
  667MOL0     H90024   2.748  11.955  10.875  2.4027  2.0675 -3.2385
  667MOL0     H90025   2.121  11.748  10.125 -1.1481  1.5149  1.3025
  667MOL0     H90026   2.020  11.806   9.912  0.8952  0.6821  0.3502
  667MOL0     H90027   1.578  11.765   9.689  1.1410 -2.1117 -0.7313
  667MOL0     H90028   1.477  11.805   9.460  0.9121 -0.3456 -0.6983
  667MOL0     H90029   0.810  11.781   8.001 -0.5443  1.9295 -1.4285
  667MOL0     H90030   0.614  11.664   7.927  0.1168  0.5371  3.6372
  667MOL0     H90031   0.395  11.462   7.624  2.6340 -0.0286 -0.7671
  667MOL0     H90032   0.210  11.346   7.508  2.8177  2.0438 -1.1705
  667MOL0     H90033   0.132  10.912   7.575  1.5109  0.0949 -0.2073
  667MOL0     H90034   0.019  10.972   7.466  1.3912 -2.2876  0.1316
  667MOL0     H90035  -0.011  11.175   7.667  3.9593  2.1813  2.1485
  667MOL0     H90036   0.088  11.091   7.755 -1.7733  2.2776 -0.1866
  667MOL0     H90037  -0.061  10.871   7.746  1.7602 -1.2952 -3.0938
  667MOL0     H90038  -0.154  10.938   7.618 -2.3133 -0.4005  0.6956
  667MOL0     H90039  -0.238  11.129   7.733 -0.2093  1.1667  1.2394
  667MOL0     H90040  -0.288  10.979   7.797 -0.2274  1.7636 -2.1719
  667MOL0     H90041  -0.058  11.124   8.126 -2.3057  2.0853  0.9857
  667MOL0     H90042   0.378  10.971   7.637 -0.1044 -0.2027  0.8860
  667MOL0     H90043   0.539  10.955   7.770  1.5559 -0.3953 -3.1827
  667MOL0     H90044   0.676  11.065   7.783 -0.7264 -3.0313 -1.1356
  667MOL0     H90045   0.558  11.073   7.908  1.5759 -1.3670  0.0014
  668MOL0     O90046  11.212   6.883   8.004  0.4833  0.5078  0.1380
  668MOL0     C90047  11.130   6.962   7.953 -0.6288  0.5559  0.1801
  668MOL0     O90048  10.993   6.948   7.967  0.3953 -0.8472 -0.7199
  668MOL0     C90049  10.941   6.830   8.007 -0.9726 -0.1768 -0.3953
  668MOL0     C90050  10.828   6.838   8.090  0.5376  0.8060 -0.9882
  668MOL0     C90051  10.796   6.725   8.166  0.3307 -0.3875  0.4195
  668MOL0     C90052  10.858   6.602   8.138  0.2292 -0.2364 -0.6906
  668MOL0     O90053  10.800   6.507   8.210  0.2112 -0.1281  0.3028
  668MOL0     C90054  10.841   6.371   8.244 -0.1342  0.3756  1.0355
  668MOL0     C90055  10.970   6.369   8.331 -0.0927  0.5019  1.1013
  668MOL0     C90056  10.971   6.235   8.414 -0.1224 -0.1091  0.0181
  668MOL0     C90057  11.101   6.235   8.505  0.3429 -0.1252 -0.1291
  668MOL0     C90058  11.122   6.086   8.543  0.1889  0.4204  0.6261
  668MOL0     C90059  11.236   6.077   8.654  0.1296  0.3840  0.4687
  668MOL0     C90060  11.217   5.938   8.719  0.3106 -0.0567  0.0811
  668MOL0     C90061  11.317   5.917   8.839  0.2501 -0.6523  0.6878
  668MOL0     N90062  11.293   5.782   8.890  0.4078 -0.1841 -0.2548
  668MOL0     C90063  11.227   5.743   9.003  0.4154  0.0011 -0.1841
  668MOL0     C90064  11.280   5.627   9.049 -0.8796 -0.1476 -0.8755
  668MOL0     C90065  11.260   5.572   9.181 -0.8446  0.8058  0.5511
  668MOL0     C90066  11.371   5.473   9.235  0.4233  0.2341  0.7280
  668MOL0     C90067  11.328   5.325   9.227 -0.5887 -1.1474  0.3873
  668MOL0     C90068  11.208   5.296   9.309  0.3801  0.2065 -1.0836
  668MOL0     O90069  11.182   5.160   9.279  0.6641 -0.2438  0.1135
  668MOL0     C90070  11.054   5.126   9.303  0.1933 -0.1315 -0.8109
  668MOL0     C90071  11.022   5.055   9.421  0.6578 -0.2807 -0.6614
  668MOL0     C90072  10.885   5.013   9.439  0.6644 -0.4196  0.7383
  668MOL0     C90073  10.781   5.047   9.344  0.3513 -0.7251  0.6575
  668MOL0     C90074  10.639   5.043   9.373 -1.4528  0.7071 -0.0467
  668MOL0     O90075  10.555   5.080   9.267  0.2397 -0.7136 -0.2679
  668MOL0     C90076  10.419   5.074   9.285 -0.2016  0.0681  0.2530
  668MOL0     C90077  10.336   5.170   9.224 -0.0053  0.3020  0.4338
  668MOL0     C90078  10.196   5.162   9.215  0.7737  0.5197 -0.0951
  668MOL0     C90079  10.134   5.056   9.291 -0.0375  0.3698 -0.2258
  668MOL0     O90080  10.012   5.075   9.324  0.6462  0.5050  0.2592
  668MOL0     C90081   9.918   4.969   9.355 -0.3256 -0.1972 -0.0547
  668MOL0     C90082   9.790   5.002   9.268  0.1800  0.2362  0.1371
  668MOL0     C90083   9.734   5.148   9.295 -0.0362  0.6581 -0.2388
  668MOL0     C90084   9.584   5.144   9.281  0.5366 -0.6625  0.4499
  668MOL0     C90085   9.512   5.132   9.416  0.0619 -0.1548  0.5671
  668MOL0     C90086   9.405   5.231   9.445  0.1248 -0.3645 -0.2162
  668MOL0     C90087   9.297   5.233   9.342 -0.4462  0.3575 -0.3782
  668MOL0     C90088   9.187   5.342   9.367  0.1477 -0.8320 -1.0962
  668MOL0    Cl90089   9.119   5.332   9.527 -0.3684 -0.0789 -0.0149
  668MOL0     C90090  10.215   4.966   9.356  0.6543 -0.9621 -0.0169
  668MOL0     C90091  10.350   4.975   9.346  0.0367 -0.0286 -0.2735
  668MOL0     O90092  10.604   5.019   9.488 -0.2984  0.6647  0.7345
  668MOL0     C90093  10.821   5.111   9.227 -0.6926  0.1220 -0.5119
  668MOL0     C90094  10.959   5.142   9.209 -0.5232 -0.4483 -0.4681
  668MOL0     N90095  11.372   5.591   8.956 -0.1229 -0.3636  0.0552
  668MOL0     N90096  11.380   5.682   8.861 -0.7054  0.9970 -0.1490
  668MOL0     C90097  10.971   6.593   8.056  0.5501 -0.0798  0.0051
  668MOL0     C90098  11.014   6.709   7.981  0.3016 -0.0233  0.7838
  668MOL0     C90099  11.166   7.086   7.871  0.2448  1.6539  0.2100
  668MOL0     C90100  11.105   7.207   7.904  0.9115  1.3142  0.2431
  668MOL0     C90101  11.140   7.323   7.840  0.1746 -0.1732  0.3887
  668MOL0     C90102  11.244   7.334   7.745 -0.6816  0.3085  0.4804
  668MOL0     O90103  11.287   7.460   7.695 -0.9870  0.8161  0.1780
  668MOL0     C90104  11.345   7.444   7.562 -0.6933 -0.1239 -0.5390
  668MOL0     C90105  11.332   7.575   7.496  0.6517  0.2297 -0.1784
  668MOL0     C90106  11.381   7.560   7.349  0.1507 -0.8148  0.0564
  668MOL0     C90107  11.265   7.561   7.264  0.5579  0.7464  0.0521
  668MOL0     C90108  11.297   7.568   7.121  0.2967 -0.0733 -0.4563
  668MOL0     C90109  11.345   7.565   7.009  0.1575 -0.2398 -0.5275
  668MOL0     C90110  11.313   7.210   7.718  0.1250 -0.1368  0.6617
  668MOL0     C90111  11.277   7.087   7.775  0.8315 -0.1507 -0.8019
  668MOL0     C90112  11.357   6.957   7.752 -0.1295 -0.2088 -0.6888
  668MOL0     H90113  10.787   6.936   8.112 -3.0355 -0.2322 -2.3945
  668MOL0     H90114  10.699   6.738   8.214  0.0453  1.8173 -0.6346
  668MOL0     H90115  10.761   6.325   8.304  1.3295 -2.0938  1.2468
  668MOL0     H90116  10.862   6.312   8.154 -2.1076  1.5691 -0.2626
  668MOL0     H90117  10.969   6.447   8.407 -0.3755  4.1083 -2.2716
  668MOL0     H90118  11.057   6.379   8.266  2.6523  1.7671  4.6436
  668MOL0     H90119  10.979   6.150   8.346 -1.0898  1.9781 -2.8814
  668MOL0     H90120  10.880   6.223   8.474 -0.4128 -0.3973 -0.4828
  668MOL0     H90121  11.189   6.286   8.464 -1.2396 -0.0079 -3.7538
  668MOL0     H90122  11.088   6.289   8.599  1.3753  0.4797 -0.3198
  668MOL0     H90123  11.025   6.055   8.585 -0.7133  0.8438 -1.0762
  668MOL0     H90124  11.147   6.025   8.456  2.3196  1.4154  0.4773
  668MOL0     H90125  11.330   6.090   8.600 -2.1258 -0.7565 -4.2475
  668MOL0     H90126  11.228   6.168   8.715  0.0658  0.7718 -0.1084
  668MOL0     H90127  11.229   5.849   8.656  0.4581 -0.0039  0.0333
  668MOL0     H90128  11.114   5.939   8.755 -0.1587  3.0303 -1.1053
  668MOL0     H90129  11.415   5.907   8.792 -0.7241 -0.0971 -1.6082
  668MOL0     H90130  11.317   6.002   8.908  0.1475 -1.3888  1.6088
  668MOL0     H90131  11.162   5.807   9.060  2.5005  2.0511  0.0181
  668MOL0     H90132  11.264   5.654   9.254 -2.2531  2.4391 -1.1031
  668MOL0     H90133  11.159   5.531   9.173 -0.0845 -1.0083 -0.5643
  668MOL0     H90134  11.467   5.482   9.184  0.4012 -1.1460  0.4088
  668MOL0     H90135  11.392   5.499   9.340 -3.4245 -0.3352  1.8086
  668MOL0     H90136  11.413   5.257   9.237 -1.0361 -2.8677 -4.5463
  668MOL0     H90137  11.304   5.306   9.122 -1.1277 -3.0745  0.8214
  668MOL0     H90138  11.128   5.360   9.271 -0.5334  0.4001  1.0384
  668MOL0     H90139  11.219   5.315   9.416  0.4303  0.2403 -1.0946
  668MOL0     H90140  11.097   5.040   9.498 -0.3726  2.8388  1.1505
  668MOL0     H90141  10.855   4.967   9.532 -2.0125  2.0297  1.2391
  668MOL0     H90142  10.387   5.243   9.162 -1.8026  1.8088  0.6666
  668MOL0     H90143  10.135   5.236   9.166 -0.9838 -0.7298  0.0893
  668MOL0     H90144   9.959   4.870   9.331 -0.9133 -0.1525 -1.2812
  668MOL0     H90145   9.883   4.979   9.459  1.1453  0.0400  0.4369
  668MOL0     H90146   9.814   4.987   9.162  4.9069  0.8091  0.9095
  668MOL0     H90147   9.709   4.929   9.283 -2.3269  2.5458 -1.2875
  668MOL0     H90148   9.771   5.179   9.394  0.3245  1.2678 -0.5583
  668MOL0     H90149   9.787   5.215   9.228  1.5797  0.8351  1.1440
  668MOL0     H90150   9.543   5.071   9.210  4.6604 -1.2651 -1.6177
  668MOL0     H90151   9.573   5.244   9.239  1.1236 -1.4400 -1.7102
  668MOL0     H90152   9.590   5.145   9.493 -1.1602 -1.4660  2.0937
  668MOL0     H90153   9.486   5.027   9.427  2.9400 -1.5485 -3.6499
  668MOL0     H90154   9.357   5.217   9.542 -0.4001 -1.9890 -0.6838
  668MOL0     H90155   9.450   5.331   9.446  2.2644 -1.2640  0.4668
  668MOL0     H90156   9.264   5.131   9.320  1.4515 -0.2282 -0.6985
  668MOL0     H90157   9.343   5.266   9.249 -1.0184  1.8089 -0.1722
  668MOL0     H90158   9.227   5.443   9.359 -0.5562  0.0530  3.7207
  668MOL0     H90159   9.106   5.333   9.294  0.6255 -0.6347 -1.6572
  668MOL0     H90160  10.190   4.887   9.426 -0.1030 -0.0247  0.7908
  668MOL0     H90161  10.414   4.900   9.391  1.8680  0.0051 -2.6387
  668MOL0     H90162  10.751   5.129   9.145  0.3707  0.1712 -1.4367
  668MOL0     H90163  10.992   5.185   9.115  2.2244  0.6803  0.8945
  668MOL0     H90164  11.018   6.496   8.041  1.4135  0.7327 -3.4080
  668MOL0     H90165  11.099   6.708   7.913 -0.2315 -5.6493 -0.2690
  668MOL0     H90166  11.017   7.202   7.966  0.1735  1.8750 -0.7275
  668MOL0     H90167  11.092   7.414   7.876 -0.4889  0.5569 -2.0807
  668MOL0     H90168  11.291   7.373   7.499  1.6540  0.7966 -3.8886
  668MOL0     H90169  11.451   7.417   7.567 -0.6067  0.3480  0.3775
  668MOL0     H90170  11.407   7.640   7.542  0.2336  2.7400 -2.7550
  668MOL0     H90171  11.232   7.619   7.503  0.4878 -0.1529 -0.1035
  668MOL0     H90172  11.442   7.470   7.345  0.4087 -0.5981 -2.4667
  668MOL0     H90173  11.440   7.651   7.334 -1.1715  0.7037  3.0943
  668MOL0     H90174  11.210   7.469   7.284  0.6899  1.2162  3.0595
  668MOL0     H90175  11.199   7.645   7.290  0.1305  0.5002 -0.2236
  668MOL0     H90176  11.390   7.564   6.912 -1.7976 -0.4488 -1.4863
  668MOL0     H90177  11.396   7.217   7.648 -0.8214  4.4053 -0.3204
  668MOL0     H90178  11.448   6.969   7.693  0.3322 -0.9885 -0.1440
  668MOL0     H90179  11.385   6.902   7.842 -0.3675 -4.1676 -2.8271
  668MOL0     H90180  11.287   6.892   7.698 -2.5555  1.4967  0.2008
  669MOL0     O90181   1.987   7.829   0.229 -0.2244 -0.0983  1.2162
  669MOL0     C90182   2.076   7.907   0.199  0.6926  0.5460 -0.0579
  669MOL0     O90183   2.160   7.897   0.096 -0.4482  0.5632 -0.3128
  669MOL0     C90184   2.148   7.786   0.019 -0.8899  0.3202 -0.8350
  669MOL0     C90185   2.240   7.681   0.021  0.2431 -0.7167  0.9825
  669MOL0     C90186   2.239   7.575  -0.072  0.3928  0.3013 -0.0484
  669MOL0     C90187   2.142   7.560  -0.170 -0.9698 -1.0817  0.0516
  669MOL0     O90188   2.133   7.457  -0.255  0.2195 -0.6155 -0.3851
  669MOL0     C90189   2.258   7.411  -0.311 -0.9144  0.0548 -0.0435
  669MOL0     C90190   2.236   7.375  -0.457 -0.0149 -0.3156 -0.2714
  669MOL0     C90191   2.139   7.264  -0.468  0.1933  0.4629 -0.4884
  669MOL0     C90192   2.126   7.229  -0.616  0.5376  0.4712 -0.4626
  669MOL0     C90193   2.012   7.126  -0.633 -0.3800 -1.0878  0.3586
  669MOL0     C90194   1.983   7.105  -0.779  0.3032  0.6479  0.9456
  669MOL0     C90195   1.880   6.993  -0.791  0.1716 -0.5611 -1.1161
  669MOL0     C90196   1.859   6.967  -0.943 -0.3261  0.1233 -0.1252
  669MOL0     N90197   1.971   6.883  -1.005  0.4987  1.2534  0.6069
  669MOL0     C90198   1.948   6.748  -1.030 -0.2900  0.3789  0.1902
  669MOL0     C90199   2.056   6.713  -1.101  0.1459  0.5298 -0.8806
  669MOL0     C90200   2.057   6.581  -1.171  0.6859 -0.1061 -0.6845
  669MOL0     C90201   2.204   6.541  -1.199  0.4202 -0.2901  1.2263
  669MOL0     C90202   2.221   6.410  -1.297 -0.5048 -0.1738 -0.1648
  669MOL0     C90203   2.204   6.440  -1.435  0.0023  0.5807 -0.5700
  669MOL0     O90204   2.245   6.331  -1.523 -0.5183  0.0957  0.0293
  669MOL0     C90205   2.233   6.345  -1.657  1.2903  0.1827  0.1715
  669MOL0     C90206   2.104   6.375  -1.716  1.1601  0.2192 -0.2681
  669MOL0     C90207   2.076   6.359  -1.854 -0.7151 -0.3083  0.9795
  669MOL0     C90208   2.185   6.332  -1.945  0.4121 -0.0358  0.3860
  669MOL0     C90209   2.158   6.310  -2.087  0.9476 -0.0621  0.4493
  669MOL0     O90210   2.037   6.249  -2.110  0.4498  0.3930  0.5339
  669MOL0     C90211   1.991   6.228  -2.241  0.8810 -0.0070  0.0058
  669MOL0     C90212   2.071   6.188  -2.353 -0.1555 -0.2601  0.8248
  669MOL0     C90213   2.011   6.141  -2.474 -0.5701  0.2310 -0.7439
  669MOL0     C90214   1.876   6.134  -2.490  0.8378  0.2901  0.1342
  669MOL0     O90215   1.833   6.083  -2.606 -0.5622 -0.2364  0.1860
  669MOL0     C90216   1.842   5.937  -2.608  0.6019 -0.5786 -1.3256
  669MOL0     C90217   1.715   5.877  -2.657 -0.4996 -0.2803  0.1764
  669MOL0     C90218   1.688   5.748  -2.585  0.0591  0.0639  0.7535
  669MOL0     C90219   1.611   5.776  -2.447 -0.2836 -0.1896  0.3553
  669MOL0     C90220   1.471   5.822  -2.466  0.5628  0.9722  0.0556
  669MOL0     C90221   1.394   5.695  -2.506 -0.3000 -0.3404  0.2631
  669MOL0     C90222   1.247   5.720  -2.529  0.0372  0.2077 -0.2860
  669MOL0     C90223   1.163   5.584  -2.541 -0.9024 -0.1446  1.0074
  669MOL0    Cl90224   1.134   5.522  -2.373  0.4064  0.3920  0.0904
  669MOL0     C90225   1.792   6.157  -2.376 -0.6789 -0.2760  0.1372
  669MOL0     C90226   1.853   6.208  -2.249 -0.8768 -0.6146 -0.1439
  669MOL0     O90227   2.229   6.364  -2.173 -0.4091 -1.1055 -0.0850
  669MOL0     C90228   2.309   6.306  -1.891  0.0862 -0.1560  0.0661
  669MOL0     C90229   2.331   6.308  -1.745  0.7679 -0.0370 -0.4309
  669MOL0     N90230   2.144   6.816  -1.097 -0.6540 -0.7822 -0.1279
  669MOL0     N90231   2.088   6.928  -1.044  0.6391 -0.1419 -0.3927
  669MOL0     C90232   2.049   7.666  -0.172 -0.1178  0.2340  0.3148
  669MOL0     C90233   2.052   7.774  -0.080  0.0928 -0.6428 -1.1891
  669MOL0     C90234   2.071   8.039   0.262  0.6190 -0.4565 -0.3490
  669MOL0     C90235   2.181   8.080   0.338 -0.5499 -0.6552  0.3365
  669MOL0     C90236   2.185   8.211   0.396 -0.1436 -0.2628  0.3755
  669MOL0     C90237   2.079   8.304   0.383 -0.4986 -0.2315  0.1207
  669MOL0     O90238   2.081   8.423   0.454 -0.4595 -0.1520  0.4445
  669MOL0     C90239   1.978   8.520   0.426  0.6915  0.5234  0.6914
  669MOL0     C90240   1.853   8.487   0.500  0.0156  0.3424  0.5936
  669MOL0     C90241   1.730   8.542   0.432 -0.9391 -0.7698  0.0610
  669MOL0     C90242   1.620   8.555   0.531 -1.1023 -0.3254 -0.8166
  669MOL0     C90243   1.493   8.562   0.448 -0.7075  0.7511 -0.1636
  669MOL0     C90244   1.386   8.569   0.396 -0.4746  0.7427 -0.2322
  669MOL0     C90245   1.972   8.255   0.294  0.7640  0.1141 -0.7882
  669MOL0     C90246   1.966   8.128   0.238 -0.2529  0.5593 -0.8278
  669MOL0     C90247   1.856   8.098   0.141  0.8672  0.0926  0.4510
  669MOL0     H90248   2.306   7.684   0.107  1.0717 -0.7933  0.3616
  669MOL0     H90249   2.307   7.490  -0.076 -0.9365 -0.8664  1.1952
  669MOL0     H90250   2.337   7.488  -0.307 -1.3776  0.5121  0.5277
  669MOL0     H90251   2.284   7.317  -0.262  1.3407  0.6149 -0.0675
  669MOL0     H90252   2.334   7.344  -0.493  1.4219  3.1570  0.2631
  669MOL0     H90253   2.201   7.467  -0.505  3.1940  0.7569 -0.7577
  669MOL0     H90254   2.039   7.284  -0.429  0.2461  3.0981 -1.5220
  669MOL0     H90255   2.172   7.171  -0.420 -2.4279 -0.8662 -1.0551
  669MOL0     H90256   2.093   7.323  -0.661 -2.5184  0.5986  1.6938
  669MOL0     H90257   2.218   7.192  -0.662  2.0593  3.1503  0.2226
  669MOL0     H90258   2.048   7.035  -0.585 -0.0748 -1.8780 -1.2874
  669MOL0     H90259   1.922   7.154  -0.578  0.1542  1.6639 -0.0288
  669MOL0     H90260   1.945   7.202  -0.814 -1.8519 -0.2958  0.5100
  669MOL0     H90261   2.073   7.078  -0.834  0.0112  1.0884  0.2307
  669MOL0     H90262   1.781   7.016  -0.748  0.4835  0.2479 -0.8055
  669MOL0     H90263   1.909   6.901  -0.741 -0.0825 -0.3251 -0.5176
  669MOL0     H90264   1.771   6.908  -0.970  0.3425 -1.2450  0.5573
  669MOL0     H90265   1.853   7.068  -0.984 -1.0610  0.3537  0.5382
  669MOL0     H90266   1.857   6.690  -1.025 -0.1560  0.1058 -0.5274
  669MOL0     H90267   1.995   6.505  -1.122 -0.9696 -0.3581 -2.9932
  669MOL0     H90268   2.007   6.603  -1.266 -0.6501 -0.7384 -0.1614
  669MOL0     H90269   2.255   6.628  -1.239 -1.1548  0.8586  1.6155
  669MOL0     H90270   2.257   6.520  -1.106  2.0826  0.5755  0.5071
  669MOL0     H90271   2.156   6.325  -1.272 -3.4582  1.5225 -1.5336
  669MOL0     H90272   2.325   6.381  -1.277  0.0342  0.4162 -1.9735
  669MOL0     H90273   2.250   6.535  -1.461  0.2984  1.1918  1.8849
  669MOL0     H90274   2.101   6.471  -1.455 -0.5590  0.5728  1.9665
  669MOL0     H90275   2.021   6.405  -1.654  1.7095 -0.9921  1.1377
  669MOL0     H90276   1.975   6.369  -1.893 -0.6251  2.1866  1.2069
  669MOL0     H90277   2.177   6.182  -2.331  0.1558  3.1773  0.9006
  669MOL0     H90278   2.075   6.091  -2.546 -2.2352 -1.0339 -1.4270
  669MOL0     H90279   1.935   5.910  -2.657  1.4756 -1.0339  0.5053
  669MOL0     H90280   1.849   5.907  -2.503  0.4575  1.7087 -0.6010
  669MOL0     H90281   1.630   5.946  -2.657  1.1123  1.8008  0.9552
  669MOL0     H90282   1.742   5.857  -2.762  1.5634  0.3196  0.5448
  669MOL0     H90283   1.625   5.695  -2.657  0.9351 -1.9677  1.4264
  669MOL0     H90284   1.779   5.691  -2.562 -0.0348 -0.8823 -1.0411
  669MOL0     H90285   1.668   5.853  -2.394 -0.4822 -0.4539  0.9509
  669MOL0     H90286   1.610   5.685  -2.387  2.6942 -1.2410 -1.0035
  669MOL0     H90287   1.455   5.900  -2.541  0.1907 -0.0123 -0.9179
  669MOL0     H90288   1.423   5.863  -2.376  0.0028  0.7694 -0.1467
  669MOL0     H90289   1.419   5.656  -2.605  0.9849 -0.0113  0.4432
  669MOL0     H90290   1.393   5.617  -2.429 -0.7310  0.7205  1.3626
  669MOL0     H90291   1.243   5.778  -2.622  1.2952  0.1136 -0.4206
  669MOL0     H90292   1.205   5.786  -2.453 -3.5607 -0.8606 -1.1391
  669MOL0     H90293   1.068   5.591  -2.594 -1.1538  0.4823  1.5196
  669MOL0     H90294   1.219   5.514  -2.603  1.3354  2.0793  0.3645
  669MOL0     H90295   1.684   6.153  -2.386 -1.0067  1.7934  1.9806
  669MOL0     H90296   1.796   6.228  -2.158  2.3243 -3.8277  2.8820
  669MOL0     H90297   2.391   6.267  -1.950  0.9488  1.4694  0.1197
  669MOL0     H90298   2.419   6.258  -1.705 -0.8904 -1.5853  1.5412
  669MOL0     H90299   1.968   7.667  -0.244  1.1004  2.8121 -1.1353
  669MOL0     H90300   1.970   7.845  -0.085  0.8030  0.2966 -0.1306
  669MOL0     H90301   2.268   8.020   0.364  0.5586 -0.1740 -1.9971
  669MOL0     H90302   2.267   8.244   0.458 -1.3369  0.7902  1.4708
  669MOL0     H90303   1.956   8.527   0.319 -3.1273 -2.6449  1.0042
  669MOL0     H90304   2.017   8.617   0.457  1.0240  0.3267  0.8939
  669MOL0     H90305   1.866   8.542   0.594  2.0257 -1.5326  1.4913
  669MOL0     H90306   1.844   8.380   0.519 -0.1086 -0.6897 -4.2316
  669MOL0     H90307   1.705   8.469   0.354 -2.0882  0.3997 -0.7031
  669MOL0     H90308   1.747   8.636   0.380  1.3159 -1.7054 -1.0090
  669MOL0     H90309   1.618   8.466   0.594  3.6204 -0.4176 -0.3888
  669MOL0     H90310   1.631   8.636   0.603  0.0652 -1.2457  0.0912
  669MOL0     H90311   1.295   8.581   0.340 -1.4262 -1.2720  0.7615
  669MOL0     H90312   1.883   8.314   0.274  0.0920 -1.0982 -1.5007
  669MOL0     H90313   1.769   8.163   0.152  1.1784  0.2673  2.0574
  669MOL0     H90314   1.879   8.110   0.034 -1.4709 -0.4827 -0.1799
  669MOL0     H90315   1.810   7.999   0.154 -0.8440  0.7170 -0.4391
  670MOL0     O90316   2.976   0.517   9.821 -0.1367 -0.0974  0.4629
  670MOL0     C90317   3.066   0.537   9.903  0.2828 -0.3764 -0.3950
  670MOL0     O90318   3.171   0.457   9.926  0.4193 -0.1685  0.1305
  670MOL0     C90319   3.205   0.344   9.854  0.2367 -0.5795  0.2085
  670MOL0     C90320   3.133   0.284   9.740  0.6817 -0.6598  0.4393
  670MOL0     C90321   3.182   0.172   9.676 -0.5580 -0.3317 -0.0819
  670MOL0     C90322   3.297   0.107   9.726  0.0158  0.0186  0.3996
  670MOL0     O90323   3.353  -0.020   9.687  0.6869  0.0280  0.3506
  670MOL0     C90324   3.254  -0.117   9.667  0.6183  0.4867 -0.3532
  670MOL0     C90325   3.315  -0.246   9.615 -0.0493  0.0319 -1.1127
  670MOL0     C90326   3.211  -0.353   9.557 -1.5624 -0.7207  0.1301
  670MOL0     C90327   3.154  -0.314   9.420 -0.3688  0.1540 -0.3052
  670MOL0     C90328   3.088  -0.437   9.356  1.1277 -1.1115 -0.7118
  670MOL0     C90329   3.187  -0.526   9.283 -0.1929 -0.7847  0.0269
  670MOL0     C90330   3.123  -0.644   9.201  0.1668  0.6078  0.7381
  670MOL0     C90331   3.224  -0.752   9.163  0.1949 -0.8414  0.7353
  670MOL0     N90332   3.175  -0.834   9.057  0.8345 -0.5604 -0.2322
  670MOL0     C90333   3.189  -0.838   8.921  0.9242  0.1445  0.9491
  670MOL0     C90334   3.112  -0.946   8.878 -0.2488  0.7163  0.0639
  670MOL0     C90335   3.097  -0.986   8.733  0.3188 -0.1719 -1.1073
  670MOL0     C90336   3.230  -1.039   8.669  0.3084 -1.1945 -0.2903
  670MOL0     C90337   3.295  -0.931   8.574 -0.3238 -0.4317 -0.6868
  670MOL0     C90338   3.401  -0.988   8.487  0.1598  0.1132  0.1902
  670MOL0     O90339   3.506  -1.049   8.566  0.0420  0.5551  0.2056
  670MOL0     C90340   3.570  -1.146   8.495 -0.3446  0.4664 -0.0498
  670MOL0     C90341   3.556  -1.273   8.550  0.7320  0.1678 -0.1294
  670MOL0     C90342   3.618  -1.382   8.494  0.0758 -0.5448  0.0877
  670MOL0     C90343   3.703  -1.369   8.382  0.7408 -0.2755  0.8176
  670MOL0     C90344   3.785  -1.476   8.330 -0.1526 -0.8829 -0.0117
  670MOL0     O90345   3.781  -1.495   8.195 -0.1691 -0.8843  0.0878
  670MOL0     C90346   3.851  -1.595   8.133 -0.5263  0.2444  0.1520
  670MOL0     C90347   3.790  -1.719   8.103  0.2865  0.1798 -0.1411
  670MOL0     C90348   3.875  -1.822   8.061  0.4058 -0.2524 -0.5830
  670MOL0     C90349   4.011  -1.791   8.032  0.2674 -0.2408  0.6622
  670MOL0     O90350   4.088  -1.888   7.982 -0.1572 -0.7703  0.1809
  670MOL0     C90351   4.234  -1.890   7.977 -0.1382 -0.5499  0.7628
  670MOL0     C90352   4.281  -2.031   7.967 -0.0981  0.5257  0.6542
  670MOL0     C90353   4.242  -2.099   7.836  0.0409 -0.0278 -0.3208
  670MOL0     C90354   4.354  -2.090   7.737  0.3527  0.2570 -0.3935
  670MOL0     C90355   4.335  -2.172   7.608  0.5089 -0.9060  0.2616
  670MOL0     C90356   4.460  -2.215   7.536 -1.0820  0.7261 -0.6651
  670MOL0     C90357   4.529  -2.096   7.470  1.0733 -0.1296 -0.2434
  670MOL0     C90358   4.668  -2.121   7.419  0.4437  0.4008  0.1110
  670MOL0    Cl90359   4.734  -1.978   7.343 -0.8439 -0.1332  0.2100
  670MOL0     C90360   4.069  -1.663   8.060 -0.2453 -0.3522 -0.8910
  670MOL0     C90361   3.985  -1.563   8.111 -0.5998 -0.2389  0.5828
  670MOL0     O90362   3.860  -1.539   8.410 -0.0460 -0.6999 -0.7766
  670MOL0     C90363   3.704  -1.240   8.317 -0.4260 -0.0114  0.3022
  670MOL0     C90364   3.646  -1.128   8.372 -0.1256  0.9738 -0.3260
  670MOL0     N90365   3.072  -1.006   8.989 -0.3287 -0.3781 -0.4330
  670MOL0     N90366   3.097  -0.942   9.098  0.4694  1.4822  1.0377
  670MOL0     C90367   3.379   0.173   9.812  0.1415 -0.3098 -0.4465
  670MOL0     C90368   3.322   0.287   9.884 -0.7552  1.0416 -0.8071
  670MOL0     C90369   3.054   0.668   9.968 -0.3137 -0.3095 -1.1220
  670MOL0     C90370   3.176   0.704  10.032  1.1000  0.3479  0.4709
  670MOL0     C90371   3.191   0.834  10.091  0.6090  0.5161 -0.0330
  670MOL0     C90372   3.084   0.929  10.084 -0.0476  0.2071 -0.7232
  670MOL0     O90373   3.100   1.039  10.162 -0.3533  1.0790 -0.6450
  670MOL0     C90374   3.002   1.117  10.233  1.1650  1.0031  0.0428
  670MOL0     C90375   2.991   1.049  10.367 -0.8748  0.3081 -0.1433
  670MOL0     C90376   2.911   1.129  10.459 -0.1231 -0.2732 -0.5632
  670MOL0     C90377   2.941   1.080  10.602 -0.2640 -0.4802  0.3879
  670MOL0     C90378   2.861   0.966  10.633  0.1364  0.1668 -0.3521
  670MOL0     C90379   2.788   0.868  10.648 -0.5695 -0.1371  0.1863
  670MOL0     C90380   2.967   0.893  10.023 -0.0869  0.0713  0.6477
  670MOL0     C90381   2.956   0.763   9.965  1.0194 -0.5537 -0.4481
  670MOL0     C90382   2.823   0.743   9.890  0.6760  0.3973  0.3825
  670MOL0     H90383   3.045   0.341   9.711 -0.9706 -1.6779  3.0303
  670MOL0     H90384   3.122   0.128   9.598  0.3229  0.9999 -1.5684
  670MOL0     H90385   3.207  -0.142   9.763 -0.5878 -1.1084 -1.3204
  670MOL0     H90386   3.171  -0.088   9.602  1.0585  0.5130 -0.9130
  670MOL0     H90387   3.363  -0.297   9.698 -0.0065 -0.4937 -1.4548
  670MOL0     H90388   3.390  -0.230   9.537 -1.0587 -3.0841 -2.9106
  670MOL0     H90389   3.129  -0.353   9.630 -0.2090 -1.3835  1.6878
  670MOL0     H90390   3.251  -0.455   9.560  1.8510  0.5287  2.1057
  670MOL0     H90391   3.090  -0.226   9.431 -2.1906 -0.5626 -3.8926
  670MOL0     H90392   3.231  -0.286   9.348  1.4247  0.3212  1.5704
  670MOL0     H90393   3.025  -0.494   9.426  0.6133  0.4138  0.1211
  670MOL0     H90394   3.020  -0.407   9.275  0.6283 -3.0007 -1.0629
  670MOL0     H90395   3.256  -0.469   9.220 -0.9725 -1.5167 -1.5329
  670MOL0     H90396   3.242  -0.572   9.365  1.6472 -2.1604 -1.8767
  670MOL0     H90397   3.061  -0.626   9.113 -1.0551  1.2104  1.6846
  670MOL0     H90398   3.045  -0.687   9.265  0.2034  1.7450  1.5785
  670MOL0     H90399   3.317  -0.704   9.132 -0.3938 -0.3877 -0.3893
  670MOL0     H90400   3.243  -0.822   9.245  1.7028 -3.5444 -1.7318
  670MOL0     H90401   3.239  -0.770   8.852  1.2481 -1.2013 -0.2023
  670MOL0     H90402   3.015  -1.059   8.724 -0.6806  1.0612 -2.5191
  670MOL0     H90403   3.044  -0.912   8.673 -0.5677  0.0165 -0.1251
  670MOL0     H90404   3.303  -1.068   8.745  1.7917 -0.7748 -1.4958
  670MOL0     H90405   3.209  -1.127   8.608  1.1284 -0.6448 -1.4010
  670MOL0     H90406   3.340  -0.853   8.636 -0.2054  1.1056 -2.6007
  670MOL0     H90407   3.210  -0.889   8.519 -1.2262  0.6943  1.4257
  670MOL0     H90408   3.446  -0.909   8.425  1.9939 -3.3940 -3.4520
  670MOL0     H90409   3.353  -1.063   8.424 -0.0326 -1.6658  2.3763
  670MOL0     H90410   3.484  -1.299   8.627 -2.0705 -0.0528 -2.6528
  670MOL0     H90411   3.603  -1.478   8.541  1.0958 -1.4979 -1.4309
  670MOL0     H90412   3.682  -1.727   8.115 -0.4175  3.5118 -2.5911
  670MOL0     H90413   3.836  -1.919   8.036  2.8295 -2.1950  2.3678
  670MOL0     H90414   4.273  -1.843   7.886  0.7605 -2.8976 -0.1301
  670MOL0     H90415   4.284  -1.854   8.067 -0.9808 -1.3489  1.5621
  670MOL0     H90416   4.388  -2.048   7.983  0.3104 -2.7932 -3.7809
  670MOL0     H90417   4.231  -2.084   8.049 -0.9035  1.5961  0.8766
  670MOL0     H90418   4.217  -2.203   7.857 -0.2194  0.1376  0.2176
  670MOL0     H90419   4.151  -2.056   7.795 -0.3795 -1.3569 -0.8203
  670MOL0     H90420   4.450  -2.114   7.785  0.3580 -2.3199 -1.5165
  670MOL0     H90421   4.369  -1.989   7.697  1.2342 -0.9272 -3.3239
  670MOL0     H90422   4.264  -2.131   7.536 -0.2176 -0.3068  1.2828
  670MOL0     H90423   4.279  -2.265   7.624 -2.3330  0.5590 -0.4002
  670MOL0     H90424   4.530  -2.264   7.604  1.8451  3.8481 -1.1483
  670MOL0     H90425   4.444  -2.286   7.454  2.2633  0.3331 -1.1402
  670MOL0     H90426   4.548  -2.013   7.539 -1.9011  1.0226 -0.6232
  670MOL0     H90427   4.462  -2.052   7.395  0.2724 -1.3534 -0.2754
  670MOL0     H90428   4.747  -2.142   7.492 -0.0821  1.2116  0.9409
  670MOL0     H90429   4.665  -2.200   7.344 -2.3661  0.9799 -0.4825
  670MOL0     H90430   4.175  -1.644   8.043 -0.3681  1.8369  0.4132
  670MOL0     H90431   4.009  -1.459   8.134  1.0566 -0.3741 -0.3509
  670MOL0     H90432   3.766  -1.232   8.228 -1.1824  2.0136 -0.0915
  670MOL0     H90433   3.659  -1.033   8.322  2.4930  0.0813 -1.5528
  670MOL0     H90434   3.483   0.152   9.837  0.8313  3.8537  1.0342
  670MOL0     H90435   3.378   0.336   9.963  2.0467 -0.3453 -1.8045
  670MOL0     H90436   3.253   0.629  10.048  0.4378 -0.0040  2.1982
  670MOL0     H90437   3.288   0.865  10.130  0.0217 -0.5993  2.5304
  670MOL0     H90438   2.899   1.119  10.197 -1.0149 -1.9984  5.0459
  670MOL0     H90439   3.040   1.217  10.258 -1.7236  2.5183 -1.2284
  670MOL0     H90440   3.090   1.035  10.412 -0.4010  0.8442 -0.9997
  670MOL0     H90441   2.947   0.951  10.348  0.3535 -0.6463  1.5461
  670MOL0     H90442   2.806   1.124  10.429 -0.0981  1.4028 -0.9838
  670MOL0     H90443   2.949   1.231  10.455  3.5241 -1.3729  1.5345
  670MOL0     H90444   3.048   1.070  10.620  0.1969 -0.4599 -2.0132
  670MOL0     H90445   2.913   1.164  10.666  0.0684  1.9123 -2.3978
  670MOL0     H90446   2.719   0.786  10.643  0.6566 -1.2081  0.2662
  670MOL0     H90447   2.877   0.953  10.035 -0.2740 -0.6379  4.1384
  670MOL0     H90448   2.775   0.654   9.932  3.6450 -1.9179 -0.8369
  670MOL0     H90449   2.767   0.837   9.902  1.3208  0.4714  3.7333
  670MOL0     H90450   2.833   0.728   9.782 -1.5279  0.7704  0.0654
  671MOL0     O90451   2.085   8.031   5.911  0.9922  0.0737 -1.2676
  671MOL0     C90452   2.027   8.103   5.833  0.3041  0.5351  0.0654
  671MOL0     O90453   1.894   8.090   5.806  0.4520 -0.7083 -0.4286
  671MOL0     C90454   1.820   7.980   5.848 -0.7281  0.2843 -0.0662
  671MOL0     C90455   1.850   7.851   5.804 -0.0238 -0.1330  0.0612
  671MOL0     C90456   1.770   7.738   5.836 -0.7978  0.0741 -0.0499
  671MOL0     C90457   1.658   7.740   5.918  0.1702 -0.3671 -0.3592
  671MOL0     O90458   1.597   7.629   5.963  0.7131 -1.5634 -0.1217
  671MOL0     C90459   1.493   7.641   6.058 -0.1307 -0.5076  0.6750
  671MOL0     C90460   1.432   7.503   6.043  0.5504  1.2298 -0.4128
  671MOL0     C90461   1.338   7.447   6.166  0.0754  0.0136  0.0106
  671MOL0     C90462   1.191   7.426   6.131 -0.8802  0.7081  0.3662
  671MOL0     C90463   1.102   7.364   6.244 -0.3090  0.4562  0.2771
  671MOL0     C90464   0.960   7.338   6.204  1.1754  0.1843  0.6704
  671MOL0     C90465   0.873   7.468   6.176 -0.4000 -0.3341 -0.2893
  671MOL0     C90466   0.729   7.462   6.234  0.6510  0.2969 -0.3818
  671MOL0     N90467   0.702   7.544   6.349  0.6374  0.4901  0.6088
  671MOL0     C90468   0.664   7.506   6.471 -0.1747 -0.0632  0.5136
  671MOL0     C90469   0.667   7.618   6.548  0.3348 -0.7293  0.4152
  671MOL0     C90470   0.664   7.630   6.701 -0.5267  0.8591 -0.0966
  671MOL0     C90471   0.585   7.739   6.756  0.5425 -1.4798  0.4536
  671MOL0     C90472   0.671   7.867   6.759 -0.5193  0.5947  0.1770
  671MOL0     C90473   0.615   7.981   6.851 -0.8295 -0.5098  0.3702
  671MOL0     O90474   0.471   7.984   6.861  0.7664 -0.5575 -0.6656
  671MOL0     C90475   0.417   8.097   6.919  0.5622 -1.3941 -0.3087
  671MOL0     C90476   0.493   8.182   7.000  0.2087  0.5343 -0.0633
  671MOL0     C90477   0.443   8.295   7.073 -0.0913  0.0691  0.1552
  671MOL0     C90478   0.318   8.333   7.037  0.5616 -0.7640 -0.1989
  671MOL0     C90479   0.260   8.456   7.097 -0.0921 -0.2777  0.1578
  671MOL0     O90480   0.134   8.480   7.050  0.2356 -0.1619  0.3230
  671MOL0     C90481   0.073   8.599   7.072 -0.0791  0.2784 -0.6779
  671MOL0     C90482  -0.002   8.631   7.183 -0.5696 -0.0217  0.2618
  671MOL0     C90483  -0.083   8.748   7.188  0.6466 -0.1061  0.7237
  671MOL0     C90484  -0.092   8.830   7.073 -0.1523 -1.3680 -1.2291
  671MOL0     O90485  -0.173   8.940   7.077 -0.3136  0.6167 -0.2024
  671MOL0     C90486  -0.145   9.041   7.176  0.5251 -0.6657 -0.2094
  671MOL0     C90487  -0.227   9.172   7.157 -0.3324  0.4323 -0.3393
  671MOL0     C90488  -0.162   9.288   7.233  0.1304  0.0942  1.3291
  671MOL0     C90489  -0.223   9.297   7.373  0.2747  0.6013 -0.4023
  671MOL0     C90490  -0.251   9.431   7.423  0.3061  0.1976  0.1834
  671MOL0     C90491  -0.124   9.487   7.492 -0.1613 -0.1770  1.2536
  671MOL0     C90492  -0.095   9.435   7.633 -0.1126  0.2595 -0.0252
  671MOL0     C90493  -0.031   9.538   7.714 -0.1268 -0.3908  0.4882
  671MOL0    Cl90494   0.025   9.484   7.879  0.6240 -0.3395  0.0868
  671MOL0     C90495  -0.009   8.807   6.964 -0.1784 -1.2125  0.2787
  671MOL0     C90496   0.069   8.695   6.978  0.0465  0.2988  1.1969
  671MOL0     O90497   0.325   8.537   7.165 -0.3607  0.1952 -0.3820
  671MOL0     C90498   0.229   8.252   6.949  0.1038 -0.3215 -0.8343
  671MOL0     C90499   0.285   8.130   6.896  0.1823 -0.3525 -0.6523
  671MOL0     N90500   0.696   7.726   6.474 -0.2690 -0.3144  0.2107
  671MOL0     N90501   0.710   7.682   6.351 -0.5898 -0.0828 -0.3927
  671MOL0     C90502   1.623   7.873   5.954  0.1155 -0.1744 -0.2934
  671MOL0     C90503   1.700   7.991   5.920  1.0523 -0.2192  1.0936
  671MOL0     C90504   2.100   8.212   5.762  0.2815 -0.1333  0.3452
  671MOL0     C90505   2.035   8.292   5.665  0.2921 -0.4421  0.3590
  671MOL0     C90506   2.094   8.394   5.591  0.6870  0.6457 -0.2656
  671MOL0     C90507   2.236   8.412   5.598 -0.3685 -0.1990 -0.7362
  671MOL0     O90508   2.314   8.485   5.510  0.4818  0.8761 -0.4632
  671MOL0     C90509   2.329   8.630   5.524 -0.3861  0.3837 -0.1887
  671MOL0     C90510   2.455   8.689   5.453 -0.5721 -0.2450 -0.0255
  671MOL0     C90511   2.488   8.841   5.469 -0.5098  0.6403  0.6463
  671MOL0     C90512   2.405   8.939   5.382 -0.0152 -0.0520 -1.5517
  671MOL0     C90513   2.465   9.073   5.381 -0.4239 -1.4598 -0.2871
  671MOL0     C90514   2.514   9.184   5.370 -0.4037 -2.3753  0.6316
  671MOL0     C90515   2.304   8.337   5.697  0.0168 -0.0954 -0.1534
  671MOL0     C90516   2.234   8.242   5.780 -0.7544  0.8336 -0.5707
  671MOL0     C90517   2.319   8.191   5.891 -0.0982  0.0481  0.0247
  671MOL0     H90518   1.932   7.836   5.735 -0.7083  2.7507 -1.5550
  671MOL0     H90519   1.793   7.643   5.788 -0.7796  0.1264 -0.1446
  671MOL0     H90520   1.535   7.655   6.158 -1.2441  1.0788  0.9607
  671MOL0     H90521   1.414   7.713   6.037 -2.5567 -3.3438 -0.7054
  671MOL0     H90522   1.516   7.434   6.040  0.2357  0.6604  2.1944
  671MOL0     H90523   1.367   7.488   5.956  1.4857 -2.3099 -0.6410
  671MOL0     H90524   1.351   7.525   6.240 -0.5229 -0.6976  0.8879
  671MOL0     H90525   1.367   7.350   6.208  1.3783  0.6562  0.6649
  671MOL0     H90526   1.156   7.520   6.089  1.9217  0.8451 -1.9225
  671MOL0     H90527   1.196   7.357   6.046  0.4911  1.5501 -0.2648
  671MOL0     H90528   1.128   7.264   6.280 -1.0753 -0.3722 -1.3469
  671MOL0     H90529   1.093   7.430   6.330 -2.9328  1.4656 -0.6804
  671MOL0     H90530   0.970   7.286   6.108  2.3018 -1.8815  1.8245
  671MOL0     H90531   0.911   7.275   6.279  2.3158 -1.5412  0.0504
  671MOL0     H90532   0.884   7.475   6.067  2.5254 -0.3665 -0.0733
  671MOL0     H90533   0.918   7.551   6.230  0.6066 -1.8048  1.2262
  671MOL0     H90534   0.652   7.486   6.162  3.1762 -0.2682 -3.4926
  671MOL0     H90535   0.699   7.361   6.261  1.7575 -1.2331 -4.2181
  671MOL0     H90536   0.667   7.402   6.502  1.5460 -1.0198 -2.4329
  671MOL0     H90537   0.614   7.538   6.732 -0.8705  0.8492 -0.6633
  671MOL0     H90538   0.764   7.635   6.746 -1.4205  0.3826  2.0724
  671MOL0     H90539   0.490   7.754   6.704  0.1745  1.4837  1.7404
  671MOL0     H90540   0.569   7.715   6.862  1.0577 -0.2444  0.8301
  671MOL0     H90541   0.691   7.904   6.658 -1.5982  0.3094 -0.1482
  671MOL0     H90542   0.769   7.838   6.799  0.8491  3.8144 -0.5108
  671MOL0     H90543   0.648   8.079   6.814  2.5387 -0.7156  2.3707
  671MOL0     H90544   0.669   7.963   6.945  0.3726 -0.9582 -0.3738
  671MOL0     H90545   0.599   8.162   7.014 -0.6492 -5.3204  0.3857
  671MOL0     H90546   0.515   8.349   7.134  0.2531  1.6997 -1.5752
  671MOL0     H90547   0.014   8.554   7.258  1.2998 -0.7200 -0.7849
  671MOL0     H90548  -0.133   8.769   7.282  1.1834 -2.5332  1.6245
  671MOL0     H90549  -0.154   9.002   7.278 -0.1469 -2.0171 -0.7548
  671MOL0     H90550  -0.041   9.072   7.166  1.8163 -4.3490  0.2952
  671MOL0     H90551  -0.213   9.191   7.050  3.2771 -3.4506 -0.8205
  671MOL0     H90552  -0.323   9.149   7.203 -0.6702  2.7570  0.2130
  671MOL0     H90553  -0.052   9.284   7.235  0.2306 -0.5879 -1.3455
  671MOL0     H90554  -0.182   9.385   7.185  0.7148  0.3325  1.5579
  671MOL0     H90555  -0.168   9.234   7.444  0.3244  0.7031 -0.3495
  671MOL0     H90556  -0.323   9.252   7.370 -0.5055  2.3147 -2.6483
  671MOL0     H90557  -0.328   9.427   7.501  0.8883  0.1216  0.7603
  671MOL0     H90558  -0.287   9.490   7.338  0.7241 -0.8674 -0.7551
  671MOL0     H90559  -0.036   9.467   7.430 -0.1285  1.5356  0.6728
  671MOL0     H90560  -0.133   9.596   7.498 -2.1472 -0.2214  0.0624
  671MOL0     H90561  -0.030   9.347   7.629  1.5820  1.4351  0.5672
  671MOL0     H90562  -0.190   9.408   7.681  1.1901 -2.5435  1.2099
  671MOL0     H90563   0.051   9.573   7.651 -0.5580 -0.1174  0.0742
  671MOL0     H90564  -0.106   9.617   7.722 -1.6429 -1.8942  2.1599
  671MOL0     H90565  -0.016   8.863   6.871  3.8190 -2.6744 -1.1020
  671MOL0     H90566   0.132   8.672   6.893  0.5662  1.1442  1.3402
  671MOL0     H90567   0.124   8.275   6.935 -0.0379  0.4256  1.1721
  671MOL0     H90568   0.227   8.059   6.837  0.4150 -1.2618  0.1731
  671MOL0     H90569   1.532   7.878   6.013 -0.9021 -3.2596 -1.3739
  671MOL0     H90570   1.653   8.086   5.945  1.3043  0.0622  0.5149
  671MOL0     H90571   1.930   8.269   5.646  0.3720 -3.9588  3.0667
  671MOL0     H90572   2.047   8.457   5.516 -1.2113 -0.5414 -0.1622
  671MOL0     H90573   2.337   8.658   5.630 -0.0587 -0.7359  0.0985
  671MOL0     H90574   2.240   8.667   5.472 -2.1582 -0.1904  2.2294
  671MOL0     H90575   2.429   8.674   5.348  2.9268  1.1122 -1.2530
  671MOL0     H90576   2.551   8.641   5.476 -0.9755 -1.1830 -0.2432
  671MOL0     H90577   2.593   8.847   5.441 -0.2469 -3.5914  0.0958
  671MOL0     H90578   2.481   8.878   5.572  3.8470 -0.7781  1.6744
  671MOL0     H90579   2.382   8.901   5.282 -2.6404  1.7218 -1.7174
  671MOL0     H90580   2.309   8.944   5.435  1.0057 -2.5121  0.8072
  671MOL0     H90581   2.549   9.284   5.383 -1.5015 -1.1566 -3.9184
  671MOL0     H90582   2.409   8.353   5.720  0.2482 -1.8972  0.2087
  671MOL0     H90583   2.343   8.085   5.878 -0.4837 -0.6008  3.6448
  671MOL0     H90584   2.411   8.248   5.910 -0.6179  0.6520  0.8010
  671MOL0     H90585   2.266   8.197   5.986  1.6469  1.0613  0.9969
  672MOL0     O90586   0.337   9.104   6.116  0.1539 -0.4149  0.6886
  672MOL0     C90587   0.307   9.223   6.096 -0.2621 -0.6594  0.3358
  672MOL0     O90588   0.242   9.306   6.190  0.3595  0.9260  0.2905
  672MOL0     C90589   0.195   9.230   6.296  0.1412  0.3606 -0.2563
  672MOL0     C90590   0.260   9.176   6.401 -0.1973  0.7572  0.3956
  672MOL0     C90591   0.207   9.086   6.490  0.3471  0.0716  0.7319
  672MOL0     C90592   0.077   9.049   6.480 -0.8556  0.5158  1.3526
  672MOL0     O90593   0.013   8.972   6.569  0.8350  0.3409 -0.9871
  672MOL0     C90594   0.081   8.844   6.607 -0.3021  0.3482  0.0284
  672MOL0     C90595  -0.000   8.735   6.553 -0.3366  1.2850  0.7276
  672MOL0     C90596   0.057   8.597   6.603 -0.2702  0.8163  0.7050
  672MOL0     C90597   0.207   8.568   6.579 -0.1144  0.0774  0.8656
  672MOL0     C90598   0.259   8.435   6.630 -0.3368  0.8729 -0.1014
  672MOL0     C90599   0.395   8.399   6.573 -0.8632 -0.1655 -0.8997
  672MOL0     C90600   0.511   8.489   6.629  0.2189  0.3182  0.4968
  672MOL0     C90601   0.541   8.429   6.768 -0.1191  0.1891 -0.2456
  672MOL0     N90602   0.652   8.501   6.832  0.5699  0.1303  0.7338
  672MOL0     C90603   0.637   8.591   6.935 -0.1463  0.9150 -0.3428
  672MOL0     C90604   0.760   8.605   6.985 -0.3434 -0.1048  0.7550
  672MOL0     C90605   0.782   8.678   7.111 -0.4834  0.1127  0.6993
  672MOL0     C90606   0.888   8.775   7.101  0.4283  0.6913 -0.1614
  672MOL0     C90607   1.034   8.727   7.114  0.3940  0.9760  0.0250
  672MOL0     C90608   1.140   8.824   7.066 -0.8031  0.1704 -0.0716
  672MOL0     O90609   1.175   8.920   7.173 -0.3621 -0.2459  0.2206
  672MOL0     C90610   1.261   9.022   7.133 -0.1094 -0.2733  0.4122
  672MOL0     C90611   1.368   9.002   7.040 -0.3767  0.1371  1.2724
  672MOL0     C90612   1.433   9.112   6.980  0.8288  1.1297  0.4968
  672MOL0     C90613   1.411   9.243   7.014  0.4213 -0.4687 -0.9744
  672MOL0     C90614   1.482   9.348   6.940 -0.4606  0.3504  0.0698
  672MOL0     O90615   1.412   9.462   6.939  0.7103  0.4412  0.0400
  672MOL0     C90616   1.468   9.571   6.880  1.4205  0.8654 -0.4311
  672MOL0     C90617   1.550   9.587   6.776 -0.4856  0.3940  0.1093
  672MOL0     C90618   1.608   9.720   6.746 -0.3970  0.3692 -0.5879
  672MOL0     C90619   1.562   9.836   6.818  0.3612  0.2852  0.1681
  672MOL0     O90620   1.608   9.956   6.768  0.4738  0.1378  0.2832
  672MOL0     C90621   1.653  10.049   6.872  0.4774 -0.2450  0.6350
  672MOL0     C90622   1.600  10.181   6.850  0.2280 -0.5611  0.7868
  672MOL0     C90623   1.449  10.206   6.893 -0.7295  0.6120 -0.7700
  672MOL0     C90624   1.357  10.255   6.781  0.1085  0.0901  0.5610
  672MOL0     C90625   1.246  10.338   6.831  1.2037 -1.0094  0.1603
  672MOL0     C90626   1.149  10.270   6.923  0.7579 -0.1091 -0.5642
  672MOL0     C90627   1.045  10.364   6.983 -0.3108 -0.1244 -0.2191
  672MOL0     C90628   1.100  10.464   7.079  0.2123 -0.9584  0.8134
  672MOL0    Cl90629   1.196  10.401   7.213  0.5253  0.0191 -0.3212
  672MOL0     C90630   1.465   9.815   6.918 -1.4023 -1.1196  0.4057
  672MOL0     C90631   1.418   9.687   6.940 -0.3522 -0.5864  0.5669
  672MOL0     O90632   1.588   9.325   6.881 -0.6258 -0.3532  0.1153
  672MOL0     C90633   1.310   9.268   7.107  0.2530  0.5034 -0.0649
  672MOL0     C90634   1.237   9.156   7.162  1.3594 -0.3112  0.1883
  672MOL0     N90635   0.851   8.535   6.908  0.2736 -0.4592  1.2726
  672MOL0     N90636   0.788   8.475   6.809  0.6306 -0.4339 -0.7834
  672MOL0     C90637   0.003   9.111   6.388  0.8780 -0.5606 -0.0400
  672MOL0     C90638   0.067   9.195   6.294  0.0768 -1.3860  0.0606
  672MOL0     C90639   0.359   9.271   5.960  0.0686 -0.1131 -0.6156
  672MOL0     C90640   0.419   9.174   5.872  0.2125  0.6239  1.1806
  672MOL0     C90641   0.476   9.224   5.752  0.0159 -0.1266  0.1709
  672MOL0     C90642   0.477   9.358   5.712 -0.1397 -0.0308  0.7743
  672MOL0     O90643   0.550   9.389   5.593  0.2940  0.1348  0.0792
  672MOL0     C90644   0.563   9.525   5.544 -0.3089 -0.5394  0.2401
  672MOL0     C90645   0.671   9.527   5.433  0.6290  0.3694  0.4722
  672MOL0     C90646   0.678   9.665   5.366 -0.0019  0.4231  0.7198
  672MOL0     C90647   0.790   9.663   5.253 -0.2437 -0.4125 -0.7183
  672MOL0     C90648   0.853   9.796   5.224  0.2655 -0.2700  0.1749
  672MOL0     C90649   0.886   9.911   5.202  0.8429 -0.6792 -0.2896
  672MOL0     C90650   0.399   9.441   5.792 -0.8830 -0.7283 -0.9164
  672MOL0     C90651   0.337   9.400   5.907  0.0744 -0.1921 -0.5829
  672MOL0     C90652   0.297   9.511   5.998  0.1513 -0.3282  0.7147
  672MOL0     H90653   0.365   9.203   6.399 -0.1407  0.5196 -1.2456
  672MOL0     H90654   0.267   9.063   6.577  0.0902 -3.1367  0.1634
  672MOL0     H90655   0.188   8.835   6.586 -0.5351 -1.1213 -0.6978
  672MOL0     H90656   0.069   8.840   6.715  1.8491  3.0236  0.4811
  672MOL0     H90657   0.013   8.758   6.447 -0.1976 -4.0898 -0.6764
  672MOL0     H90658  -0.107   8.731   6.577 -1.2314 -3.8187 -2.6438
  672MOL0     H90659   0.019   8.517   6.539  3.7780 -1.4748  0.8305
  672MOL0     H90660   0.026   8.572   6.705 -2.8318  1.6419  0.2156
  672MOL0     H90661   0.233   8.564   6.473  2.4513 -0.3180  1.4311
  672MOL0     H90662   0.266   8.655   6.611 -1.2938  2.1484 -2.1038
  672MOL0     H90663   0.254   8.430   6.739 -2.7222  0.5665 -0.1614
  672MOL0     H90664   0.189   8.356   6.598  0.3251 -1.7888  4.2384
  672MOL0     H90665   0.415   8.293   6.591 -0.1879  0.1874  0.5756
  672MOL0     H90666   0.399   8.411   6.464  0.8506 -1.0375 -0.9688
  672MOL0     H90667   0.477   8.592   6.623 -2.0591 -0.3164  1.2910
  672MOL0     H90668   0.600   8.477   6.568 -1.2642 -0.6894 -1.5967
  672MOL0     H90669   0.444   8.441   6.818 -0.2809  1.6822 -0.8498
  672MOL0     H90670   0.564   8.323   6.754  1.8320  0.5225  0.1465
  672MOL0     H90671   0.539   8.623   6.969  0.3924  0.0286  2.2564
  672MOL0     H90672   0.695   8.739   7.137 -0.2917  0.0165  1.5940
  672MOL0     H90673   0.816   8.606   7.186  1.0574 -0.2682 -0.3180
  672MOL0     H90674   0.875   8.840   7.014  1.0077  1.4243  0.2862
  672MOL0     H90675   0.885   8.844   7.186  1.8979  0.3068  0.2308
  672MOL0     H90676   1.042   8.634   7.057 -1.7017 -1.0349  2.7339
  672MOL0     H90677   1.037   8.705   7.221  1.3097 -0.7304 -0.3151
  672MOL0     H90678   1.099   8.882   6.983 -2.3939  1.4544  1.5273
  672MOL0     H90679   1.238   8.779   7.046  0.4601  1.9067  1.7750
  672MOL0     H90680   1.394   8.902   7.006 -0.0827  0.3500  0.8710
  672MOL0     H90681   1.515   9.096   6.912 -1.4311  0.3541 -2.2505
  672MOL0     H90682   1.588   9.500   6.723 -1.7851  1.0614 -2.0724
  672MOL0     H90683   1.683   9.729   6.668  3.0353  0.5094  2.4710
  672MOL0     H90684   1.604  10.016   6.964 -1.5705 -0.2579 -0.4046
  672MOL0     H90685   1.762  10.054   6.873  0.8522 -3.3746 -2.9350
  672MOL0     H90686   1.657  10.253   6.909  2.3256 -1.7711  0.3398
  672MOL0     H90687   1.599  10.194   6.741 -2.4036 -0.1117  0.7982
  672MOL0     H90688   1.414  10.115   6.943  1.3413 -0.7599 -1.6546
  672MOL0     H90689   1.456  10.295   6.956 -1.0538  1.8363 -2.3950
  672MOL0     H90690   1.317  10.166   6.733  0.3806  0.2043  0.1181
  672MOL0     H90691   1.409  10.321   6.710 -1.3290  0.1174 -0.5010
  672MOL0     H90692   1.197  10.376   6.741  4.2626  1.7734 -0.5640
  672MOL0     H90693   1.291  10.421   6.887 -1.8561  1.0332 -0.1747
  672MOL0     H90694   1.099  10.191   6.865  2.5714 -1.9905  0.2737
  672MOL0     H90695   1.195  10.216   7.006 -0.3578 -1.2869 -0.6876
  672MOL0     H90696   0.964  10.307   7.029  2.8900 -3.1144  2.1691
  672MOL0     H90697   0.996  10.408   6.895  1.3332 -1.4977 -1.8987
  672MOL0     H90698   1.163  10.523   7.012 -2.3852  0.5191 -0.5326
  672MOL0     H90699   1.024  10.536   7.111  1.1367  0.8743 -0.8803
  672MOL0     H90700   1.417   9.904   6.956 -2.6804 -1.6715  0.1442
  672MOL0     H90701   1.337   9.674   7.010 -5.3043 -0.5552 -4.4111
  672MOL0     H90702   1.275   9.370   7.119 -0.3868  0.5962 -2.1961
  672MOL0     H90703   1.147   9.190   7.213  0.6301  0.4759 -1.5079
  672MOL0     H90704  -0.103   9.087   6.379  0.6257  0.9706 -1.7171
  672MOL0     H90705   0.008   9.240   6.214 -0.3109  0.7268  1.4457
  672MOL0     H90706   0.422   9.068   5.898 -3.3352  0.6925  2.3253
  672MOL0     H90707   0.520   9.150   5.686  0.5950 -0.1209  0.5470
  672MOL0     H90708   0.579   9.610   5.611  0.1931  1.3041 -2.0507
  672MOL0     H90709   0.472   9.546   5.486 -1.1755 -2.0184  1.0118
  672MOL0     H90710   0.640   9.448   5.363 -0.7327  1.3067 -0.0244
  672MOL0     H90711   0.769   9.490   5.464  2.1188  0.1486 -3.8325
  672MOL0     H90712   0.707   9.742   5.439  0.4909  2.2551 -1.3196
  672MOL0     H90713   0.582   9.698   5.325  2.2460  0.7995 -5.0981
  672MOL0     H90714   0.869   9.592   5.281 -0.6733 -0.4316  0.4829
  672MOL0     H90715   0.749   9.621   5.161  0.1171  0.4312 -1.2776
  672MOL0     H90716   0.911  10.015   5.189  2.4387 -1.2174 -2.0077
  672MOL0     H90717   0.399   9.546   5.761 -1.6884 -0.4538 -0.0218
  672MOL0     H90718   0.354   9.519   6.091 -0.0259  0.1076  0.7893
  672MOL0     H90719   0.313   9.605   5.946 -2.4295 -1.2324 -2.0297
  672MOL0     H90720   0.190   9.499   6.017 -0.9962  3.8652 -1.9605
  673MOL0     O90721  10.029   0.031   8.686  0.3291  0.2921  0.1868
  673MOL0     C90722  10.129   0.014   8.765 -0.5410  1.2318  0.8702
  673MOL0     O90723  10.259  -0.012   8.728 -0.6283 -0.1842  0.5584
  673MOL0     C90724  10.285  -0.035   8.591 -0.2881 -0.4470 -0.9045
  673MOL0     C90725  10.340   0.066   8.516 -0.6698 -0.5971 -0.0113
  673MOL0     C90726  10.369   0.043   8.380 -0.3561  0.0481  1.0478
  673MOL0     C90727  10.344  -0.075   8.317  0.5004  0.6140  0.6896
  673MOL0     O90728  10.386  -0.092   8.188  0.8394  0.7448  0.0335
  673MOL0     C90729  10.318  -0.195   8.103  0.4606 -0.2224  0.1874
  673MOL0     C90730  10.346  -0.163   7.956 -0.8008  0.6983 -0.8714
  673MOL0     C90731  10.291  -0.025   7.922 -0.8126  0.0386 -0.4822
  673MOL0     C90732  10.270   0.007   7.780  0.1622 -0.3289  0.1403
  673MOL0     C90733  10.150  -0.075   7.719  0.0953 -0.3975  0.4480
  673MOL0     C90734  10.127  -0.020   7.574  0.5882 -0.1079  0.2387
  673MOL0     C90735   9.993   0.063   7.560 -0.1207  0.0826 -0.2707
  673MOL0     C90736  10.000   0.206   7.612 -0.3966  0.2173 -0.1357
  673MOL0     N90737   9.906   0.293   7.547  0.3372 -0.6130 -0.4969
  673MOL0     C90738   9.769   0.311   7.572 -0.1145 -0.4497 -0.3938
  673MOL0     C90739   9.723   0.402   7.479 -0.1261 -0.2914 -0.5078
  673MOL0     C90740   9.589   0.472   7.470 -1.2324  0.4870  0.2485
  673MOL0     C90741   9.589   0.598   7.562  0.3279 -1.0800  0.0496
  673MOL0     C90742   9.456   0.674   7.521 -1.3396 -0.8190  0.0557
  673MOL0     C90743   9.445   0.800   7.611 -0.3041  0.1117 -0.1074
  673MOL0     O90744   9.432   0.758   7.747  0.3424 -0.0632 -0.2604
  673MOL0     C90745   9.450   0.844   7.858 -0.5007 -1.1020 -0.0818
  673MOL0     C90746   9.530   0.804   7.965  0.3256 -1.0696  0.2190
  673MOL0     C90747   9.546   0.894   8.073  0.4869 -0.3803 -0.7474
  673MOL0     C90748   9.489   1.023   8.072  1.0575  0.2675 -1.0127
  673MOL0     C90749   9.493   1.117   8.189  0.3454 -0.2055 -0.5230
  673MOL0     O90750   9.469   1.241   8.158  0.0532  0.7349 -0.1567
  673MOL0     C90751   9.440   1.333   8.257  0.2193  0.3103  0.2382
  673MOL0     C90752   9.476   1.469   8.242 -0.3596 -0.6126 -0.1849
  673MOL0     C90753   9.440   1.565   8.333  0.2240  0.2653  0.8611
  673MOL0     C90754   9.366   1.537   8.441  0.2832 -1.2112 -0.4643
  673MOL0     O90755   9.347   1.643   8.529 -0.7433 -0.2906 -0.2669
  673MOL0     C90756   9.227   1.649   8.611 -0.7662 -0.3163 -0.2823
  673MOL0     C90757   9.255   1.719   8.740 -0.4542 -0.5526  0.1078
  673MOL0     C90758   9.288   1.873   8.723  0.7634 -0.5184 -0.1346
  673MOL0     C90759   9.320   1.937   8.866 -0.0163 -0.5732 -0.8408
  673MOL0     C90760   9.192   1.988   8.942  0.6388  0.2269  0.7360
  673MOL0     C90761   9.226   2.006   9.095  0.3735  0.0121 -0.8688
  673MOL0     C90762   9.115   2.066   9.178  0.4775  0.9334 -0.5807
  673MOL0     C90763   9.044   1.962   9.266 -0.0249 -0.8871  0.1739
  673MOL0    Cl90764   8.896   2.043   9.346  0.5026 -0.3429 -0.0502
  673MOL0     C90765   9.324   1.400   8.465 -0.0504 -0.0079 -0.5495
  673MOL0     C90766   9.366   1.306   8.371 -1.3060 -0.7279 -0.5117
  673MOL0     O90767   9.515   1.068   8.303 -0.2707 -1.1615  0.2737
  673MOL0     C90768   9.418   1.060   7.960  0.2062 -0.2629  0.1768
  673MOL0     C90769   9.388   0.968   7.860  0.0027  0.3749  0.0695
  673MOL0     N90770   9.830   0.431   7.401 -0.9994  0.4199 -0.9302
  673MOL0     N90771   9.942   0.380   7.449  0.2347 -0.2473 -0.4898
  673MOL0     C90772  10.284  -0.175   8.394 -0.0879 -0.6906 -0.5953
  673MOL0     C90773  10.259  -0.153   8.536 -0.3253  0.0889  0.5072
  673MOL0     C90774  10.097   0.025   8.912 -0.7292 -1.3484 -0.6822
  673MOL0     C90775  10.179   0.089   9.005 -0.3981 -0.6503 -0.1301
  673MOL0     C90776  10.148   0.089   9.136 -0.4331 -0.1755 -1.2049
  673MOL0     C90777  10.027   0.057   9.190 -0.5336  0.3384  0.0869
  673MOL0     O90778  10.009   0.084   9.324  0.1393  0.3221  0.3706
  673MOL0     C90779   9.882   0.080   9.374  0.0143 -0.3238 -0.1712
  673MOL0     C90780   9.900   0.131   9.525  0.2883 -0.1579 -0.3217
  673MOL0     C90781   9.962   0.273   9.537  0.3333 -0.5141 -0.4761
  673MOL0     C90782   9.940   0.326   9.681 -0.9138  0.1382 -0.5915
  673MOL0     C90783  10.044   0.273   9.773  0.9785  0.5233  0.0229
  673MOL0     C90784  10.137   0.257   9.849 -0.0889  0.0189  0.4726
  673MOL0     C90785   9.930   0.006   9.099  0.1632 -0.6513 -0.1802
  673MOL0     C90786   9.970  -0.008   8.968  0.6430  0.0519  0.1973
  673MOL0     C90787   9.861  -0.094   8.888 -0.4130  0.3613 -0.1529
  673MOL0     H90788  10.365   0.158   8.569 -0.8442 -1.1110  0.9907
  673MOL0     H90789  10.422   0.118   8.321 -0.2411 -0.7378  0.1233
  673MOL0     H90790  10.332  -0.302   8.125  1.2567 -0.4121 -1.1362
  673MOL0     H90791  10.210  -0.190   8.121  0.4029 -0.8310  0.0363
  673MOL0     H90792  10.299  -0.233   7.886 -1.0924  0.5290 -0.5094
  673MOL0     H90793  10.453  -0.184   7.954 -1.1365 -2.8297  3.0868
  673MOL0     H90794  10.366   0.045   7.959  0.3447 -0.8497 -1.1112
  673MOL0     H90795  10.193  -0.014   7.970 -0.1083 -0.0780  1.0359
  673MOL0     H90796  10.248   0.114   7.776 -3.4641 -0.8807  1.0646
  673MOL0     H90797  10.366  -0.014   7.732 -1.2113 -2.1946 -1.9766
  673MOL0     H90798  10.178  -0.180   7.705  0.9867  0.1108 -2.2618
  673MOL0     H90799  10.061  -0.081   7.781  1.9369  2.4179  3.7095
  673MOL0     H90800  10.212   0.040   7.541 -0.2749  1.0869  0.0994
  673MOL0     H90801  10.122  -0.106   7.507 -0.8725  0.5859 -0.6070
  673MOL0     H90802   9.904   0.020   7.607  0.5185 -0.9962 -0.0105
  673MOL0     H90803   9.960   0.058   7.455  0.6799  0.9353 -0.5754
  673MOL0     H90804   9.981   0.196   7.719  1.5165  0.5892  0.2754
  673MOL0     H90805  10.096   0.259   7.607 -0.0609 -0.3452  0.2195
  673MOL0     H90806   9.722   0.262   7.657 -0.1423 -0.4484 -0.4089
  673MOL0     H90807   9.575   0.503   7.366 -4.1849 -1.6731 -0.1113
  673MOL0     H90808   9.515   0.393   7.480 -1.6232 -0.2071 -4.9421
  673MOL0     H90809   9.577   0.568   7.666  1.8780  1.6900  1.1344
  673MOL0     H90810   9.685   0.642   7.534  1.0972 -0.9144  2.7320
  673MOL0     H90811   9.362   0.620   7.516 -2.9967  1.9444 -0.8732
  673MOL0     H90812   9.460   0.711   7.418  0.1949  1.5683  0.9005
  673MOL0     H90813   9.354   0.850   7.577 -0.2525 -0.0709 -0.5201
  673MOL0     H90814   9.531   0.868   7.608  1.5116 -2.0892 -1.4756
  673MOL0     H90815   9.584   0.710   7.959  0.2496 -1.0418 -1.6064
  673MOL0     H90816   9.613   0.857   8.150 -0.9685  0.2888  0.8996
  673MOL0     H90817   9.534   1.506   8.158  1.5562  3.6830  2.6614
  673MOL0     H90818   9.482   1.663   8.315  1.7535 -0.4411  0.4063
  673MOL0     H90819   9.152   1.701   8.550 -1.7440  0.7049  1.7185
  673MOL0     H90820   9.187   1.553   8.642 -4.4816  0.4810 -2.0127
  673MOL0     H90821   9.163   1.711   8.799 -0.9611 -0.8747 -0.7129
  673MOL0     H90822   9.337   1.657   8.777 -0.4659  0.4619  1.9536
  673MOL0     H90823   9.384   1.883   8.671 -0.7093 -0.1944 -2.9672
  673MOL0     H90824   9.213   1.922   8.661  0.2387  1.3635  1.8624
  673MOL0     H90825   9.381   2.028   8.853 -3.6777  2.2203 -0.1433
  673MOL0     H90826   9.385   1.865   8.916 -2.1962 -1.8431  0.2998
  673MOL0     H90827   9.108   1.920   8.926  1.8470 -1.3074  0.6085
  673MOL0     H90828   9.172   2.089   8.907  2.0594  1.4138  3.0928
  673MOL0     H90829   9.263   1.909   9.129 -2.6892 -1.9775 -2.7483
  673MOL0     H90830   9.305   2.081   9.102  0.3195  0.0108 -0.0442
  673MOL0     H90831   9.041   2.113   9.113  0.4835  0.9423 -0.5800
  673MOL0     H90832   9.159   2.130   9.255  1.3235 -0.4507  0.1302
  673MOL0     H90833   9.007   1.877   9.208 -2.0868 -2.0700  2.9947
  673MOL0     H90834   9.112   1.924   9.343  0.4021  0.1619  0.3257
  673MOL0     H90835   9.252   1.370   8.540  0.7432  2.5882  1.4135
  673MOL0     H90836   9.332   1.208   8.403  2.3065 -2.1979 -0.6819
  673MOL0     H90837   9.368   1.156   7.950  1.4806  0.2522 -2.0195
  673MOL0     H90838   9.318   0.975   7.777 -0.0029 -3.3289 -0.4104
  673MOL0     H90839  10.260  -0.271   8.351 -1.5740 -0.5005 -0.2160
  673MOL0     H90840  10.220  -0.228   8.604  0.0485  0.7660  1.4817
  673MOL0     H90841  10.279   0.125   8.983  0.5547 -1.4580  2.5257
  673MOL0     H90842  10.227   0.129   9.199 -0.7596 -1.1384 -0.1748
  673MOL0     H90843   9.850  -0.025   9.375  1.9273 -0.9374  0.1539
  673MOL0     H90844   9.824   0.143   9.306  2.5145 -1.2649 -3.4424
  673MOL0     H90845   9.945   0.061   9.596 -0.0568  1.3059  1.4207
  673MOL0     H90846   9.794   0.136   9.550  0.3656  0.7498 -0.1477
  673MOL0     H90847   9.902   0.344   9.479 -0.7587  1.0225  2.3701
  673MOL0     H90848  10.068   0.275   9.510  0.3460 -0.2268 -0.3955
  673MOL0     H90849   9.968   0.431   9.672  2.6987 -0.4234  1.8522
  673MOL0     H90850   9.841   0.301   9.719  0.8655 -5.4078  1.5099
  673MOL0     H90851  10.218   0.226   9.913  0.5329 -0.1129 -0.3573
  673MOL0     H90852   9.829  -0.014   9.132  0.5561  0.5744  1.9257
  673MOL0     H90853   9.803  -0.161   8.953  0.6529 -0.0127  0.4219
  673MOL0     H90854   9.793  -0.032   8.829 -0.3154 -0.6588 -1.3832
  673MOL0     H90855   9.906  -0.158   8.812 -1.4050 -1.4205  0.6953
  674MOL0     O90856   4.611   7.556  10.098  0.8427 -0.8693  0.7971
  674MOL0     C90857   4.730   7.561  10.055  0.8380  0.8562  0.0089
  674MOL0     O90858   4.767   7.627   9.946  0.9006 -0.6185  0.1951
  674MOL0     C90859   4.667   7.705   9.878 -1.3689  1.0013 -0.3907
  674MOL0     C90860   4.622   7.825   9.918 -0.1489  0.3887 -0.1827
  674MOL0     C90861   4.510   7.895   9.865  0.0601  1.3166  0.0761
  674MOL0     C90862   4.457   7.848   9.741 -0.2888  0.3411  0.5292
  674MOL0     O90863   4.354   7.893   9.663  0.4158 -0.6512  0.5251
  674MOL0     C90864   4.307   8.033   9.684 -0.1077  1.2491  0.2833
  674MOL0     C90865   4.168   8.051   9.618  0.7901 -0.2635  0.3926
  674MOL0     C90866   4.075   7.929   9.645 -0.0872  0.0157 -0.1361
  674MOL0     C90867   3.933   7.956   9.611 -0.0783  0.7745 -0.6830
  674MOL0     C90868   3.822   7.851   9.657  0.3292 -0.1163 -1.0259
  674MOL0     C90869   3.850   7.706   9.620 -0.3578  0.5979  0.3679
  674MOL0     C90870   3.753   7.619   9.695  0.3269  0.3003  0.2293
  674MOL0     C90871   3.802   7.477   9.653 -0.5306  0.2588 -0.7791
  674MOL0     N90872   3.721   7.373   9.724 -0.0214 -1.3622  0.8082
  674MOL0     C90873   3.689   7.385   9.851  0.0162  0.0594 -0.8316
  674MOL0     C90874   3.626   7.266   9.883 -0.1135  0.1001 -0.3991
  674MOL0     C90875   3.590   7.199  10.016 -0.4153  0.2210  0.8664
  674MOL0     C90876   3.459   7.248  10.078 -0.5574 -0.1609 -0.2405
  674MOL0     C90877   3.345   7.151  10.061  0.4012  1.1904  0.4897
  674MOL0     C90878   3.295   7.134   9.922  0.5743 -0.3983 -0.2847
  674MOL0     O90879   3.232   7.250   9.876 -0.2093  0.1018 -0.1686
  674MOL0     C90880   3.144   7.234   9.765 -0.7123 -1.0804  0.0224
  674MOL0     C90881   3.053   7.331   9.733 -0.4292  0.0364 -0.9120
  674MOL0     C90882   2.953   7.308   9.640 -0.2136 -0.3813  1.4868
  674MOL0     C90883   2.948   7.195   9.563  1.3863  0.1805  0.3438
  674MOL0     C90884   2.832   7.168   9.465 -1.0350  0.0578  0.4139
  674MOL0     O90885   2.843   7.089   9.358 -0.7032 -0.6519 -1.3138
  674MOL0     C90886   2.782   7.126   9.243  1.2281 -0.2764  0.6844
  674MOL0     C90887   2.638   7.124   9.218 -0.1099  0.2516 -0.5776
  674MOL0     C90888   2.572   7.182   9.118 -0.6563 -0.6335  0.4941
  674MOL0     C90889   2.653   7.259   9.022 -0.7787  0.0007  0.5928
  674MOL0     O90890   2.607   7.336   8.915 -0.3617  0.0221 -0.2563
  674MOL0     C90891   2.470   7.336   8.889  0.1622  1.3074  1.2232
  674MOL0     C90892   2.439   7.459   8.815 -0.6916 -0.1582  0.6913
  674MOL0     C90893   2.297   7.461   8.768 -0.1870 -0.1558 -0.1408
  674MOL0     C90894   2.202   7.514   8.867  0.1326  0.2664 -0.8032
  674MOL0     C90895   2.078   7.571   8.790 -0.2263  0.3511  0.1160
  674MOL0     C90896   1.961   7.622   8.870  0.2595 -0.0404  0.0704
  674MOL0     C90897   1.998   7.733   8.962  0.2150 -0.3071  0.1621
  674MOL0     C90898   1.877   7.805   9.019 -0.2186 -0.5554  0.3270
  674MOL0    Cl90899   1.946   7.943   9.110  0.4540  0.0413  0.0828
  674MOL0     C90900   2.790   7.268   9.043 -0.2804  0.3573  0.2167
  674MOL0     C90901   2.857   7.194   9.141 -0.3414 -0.0022  0.2164
  674MOL0     O90902   2.733   7.240   9.484  0.8985  0.4552 -0.2639
  674MOL0     C90903   3.052   7.103   9.578  0.9811 -1.0011 -0.7584
  674MOL0     C90904   3.153   7.124   9.677  0.4829 -0.4078  1.0611
  674MOL0     N90905   3.638   7.189   9.765 -0.3852 -0.2326 -0.6507
  674MOL0     N90906   3.700   7.249   9.675  0.0466  0.3704  0.4794
  674MOL0     C90907   4.513   7.724   9.690  0.1395 -0.0377 -0.1774
  674MOL0     C90908   4.618   7.657   9.758 -0.3747 -0.4821 -0.0246
  674MOL0     C90909   4.826   7.487  10.136 -0.3423 -0.8634  0.9851
  674MOL0     C90910   4.946   7.470  10.069  0.2293 -0.1427  0.6986
  674MOL0     C90911   5.045   7.392  10.129  0.1541 -0.4924 -0.6495
  674MOL0     C90912   5.033   7.335  10.259 -0.3024 -0.0269  0.1002
  674MOL0     O90913   5.130   7.260  10.324 -0.5058  0.0669 -0.7794
  674MOL0     C90914   5.230   7.205  10.236 -0.7361 -1.4151  0.3198
  674MOL0     C90915   5.309   7.111  10.324 -0.2887  0.5427  0.2298
  674MOL0     C90916   5.399   7.012  10.248  0.5948 -0.4271 -0.5118
  674MOL0     C90917   5.310   6.906  10.185 -1.3019  0.8724  0.2761
  674MOL0     C90918   5.373   6.845  10.073 -0.4035  0.3111  0.6825
  674MOL0     C90919   5.413   6.796   9.970  0.7299  1.0344 -1.0228
  674MOL0     C90920   4.906   7.356  10.327 -0.3306  0.4697  0.9453
  674MOL0     C90921   4.801   7.430  10.264 -0.0654 -0.1106 -0.1581
  674MOL0     C90922   4.679   7.452  10.356  0.3675 -1.2281 -0.1308
  674MOL0     H90923   4.661   7.868  10.010 -1.1229  0.6719  0.1144
  674MOL0     H90924   4.458   7.979   9.911 -0.0073  0.6005  1.3472
  674MOL0     H90925   4.298   8.052   9.792  2.6154  0.9206  0.6404
  674MOL0     H90926   4.378   8.104   9.642 -0.6633  1.5374 -0.1838
  674MOL0     H90927   4.189   8.059   9.511 -0.5846 -0.0920  0.1104
  674MOL0     H90928   4.120   8.145   9.649 -1.5932 -0.1955 -3.0185
  674MOL0     H90929   4.078   7.905   9.752  2.4795  0.3553 -0.0710
  674MOL0     H90930   4.116   7.840   9.596  2.8570 -0.1278  2.2716
  674MOL0     H90931   3.909   8.054   9.654 -0.9775 -0.2606  1.3346
  674MOL0     H90932   3.930   7.958   9.502 -1.8497 -4.0523 -0.9877
  674MOL0     H90933   3.833   7.853   9.766 -0.5626 -1.1650 -0.9088
  674MOL0     H90934   3.721   7.889   9.637 -0.6673 -0.7270  2.2312
  674MOL0     H90935   3.836   7.676   9.516 -2.5265 -1.6741  1.2052
  674MOL0     H90936   3.956   7.691   9.645 -0.9671 -0.8817  2.4040
  674MOL0     H90937   3.657   7.636   9.646  2.1765  2.8551 -2.9309
  674MOL0     H90938   3.753   7.644   9.801 -2.8821  0.9287  0.1693
  674MOL0     H90939   3.803   7.461   9.545  0.5519 -0.9539 -0.6093
  674MOL0     H90940   3.896   7.463   9.706 -1.7331  3.4904  2.6346
  674MOL0     H90941   3.701   7.474   9.912 -1.9007 -0.5593  0.5373
  674MOL0     H90942   3.605   7.092   9.998  2.3333  0.8068 -0.9753
  674MOL0     H90943   3.688   7.206  10.063  1.9881 -1.2885 -3.3728
  674MOL0     H90944   3.481   7.270  10.183  1.9262  1.8012 -1.0629
  674MOL0     H90945   3.415   7.339  10.036 -2.3021 -0.9290 -0.1882
  674MOL0     H90946   3.263   7.177  10.128 -0.1327 -0.9670  0.7691
  674MOL0     H90947   3.370   7.052  10.101 -3.4323 -1.9660 -3.8143
  674MOL0     H90948   3.217   7.058   9.916 -0.0693  0.2862 -5.5679
  674MOL0     H90949   3.372   7.096   9.854  1.7888  3.1981 -1.1085
  674MOL0     H90950   3.037   7.421   9.792 -5.0738 -0.7373 -0.6086
  674MOL0     H90951   2.879   7.386   9.622  0.9448  0.1287 -1.5816
  674MOL0     H90952   2.576   7.086   9.299 -2.0042  0.0163 -2.0538
  674MOL0     H90953   2.465   7.172   9.103 -0.9711 -1.4579  2.8350
  674MOL0     H90954   2.451   7.254   8.819  0.1064  1.7097  0.7632
  674MOL0     H90955   2.402   7.319   8.973  0.2018  1.1814  1.2290
  674MOL0     H90956   2.457   7.549   8.875 -0.3637  1.3548 -1.5128
  674MOL0     H90957   2.504   7.463   8.727 -2.7557  2.1478 -0.8579
  674MOL0     H90958   2.304   7.521   8.677  3.1363  1.8634  1.2490
  674MOL0     H90959   2.259   7.361   8.743 -2.7627  1.0005 -1.2491
  674MOL0     H90960   2.236   7.600   8.925 -2.3182  0.2998  0.7248
  674MOL0     H90961   2.178   7.439   8.942  0.5202  0.2576 -0.6837
  674MOL0     H90962   2.035   7.490   8.730 -1.3526  2.2268 -1.7342
  674MOL0     H90963   2.111   7.655   8.728 -1.4994  2.7947  2.4985
  674MOL0     H90964   1.896   7.665   8.793 -1.1511  1.0423  1.7787
  674MOL0     H90965   1.910   7.544   8.929  1.5850 -0.9026  0.1062
  674MOL0     H90966   2.063   7.799   8.904  2.9219 -2.1601  0.8929
  674MOL0     H90967   2.052   7.709   9.054  0.7812  2.3310  0.5981
  674MOL0     H90968   1.814   7.833   8.934  0.1569 -0.7159 -0.0066
  674MOL0     H90969   1.826   7.747   9.096 -0.3880 -1.8191 -0.7048
  674MOL0     H90970   2.844   7.321   8.966 -0.9484  1.8388  0.7340
  674MOL0     H90971   2.963   7.212   9.154 -0.2800  2.4682 -2.6765
  674MOL0     H90972   3.058   7.006   9.530  2.5734 -1.0728 -0.4629
  674MOL0     H90973   3.226   7.045   9.690  0.1432 -0.5690  2.0991
  674MOL0     H90974   4.479   7.694   9.591 -1.6594  2.3080 -0.3655
  674MOL0     H90975   4.672   7.568   9.728 -0.4364 -1.0641  1.5114
  674MOL0     H90976   4.987   7.511   9.978  1.2990 -1.2982  0.6370
  674MOL0     H90977   5.143   7.395  10.081  0.0323  1.5816 -0.8663
  674MOL0     H90978   5.293   7.285  10.198 -1.8269 -0.0179  1.3267
  674MOL0     H90979   5.178   7.164  10.149 -3.4709  0.3412  0.9898
  674MOL0     H90980   5.255   7.051  10.398 -1.1096  2.2009  1.0388
  674MOL0     H90981   5.375   7.170  10.388  0.2382 -2.2905  2.4633
  674MOL0     H90982   5.474   6.971  10.316 -0.1753 -1.6835 -0.3851
  674MOL0     H90983   5.448   7.068  10.168 -1.5332  1.0190 -0.8930
  674MOL0     H90984   5.280   6.836  10.264 -3.7517 -0.9878 -2.1240
  674MOL0     H90985   5.216   6.945  10.146 -0.9031 -0.6863 -2.4878
  674MOL0     H90986   5.455   6.761   9.878 -2.5731  0.5083 -2.4804
  674MOL0     H90987   4.890   7.315  10.426 -2.9779  1.2606  0.9250
  674MOL0     H90988   4.699   7.421  10.460  0.4845 -2.1682 -0.4216
  674MOL0     H90989   4.643   7.554  10.344  0.4910 -1.2660 -0.8734
  674MOL0     H90990   4.594   7.394  10.319  0.6503 -0.9074 -1.3201
  675MOL0     O90991   9.010  11.044   8.965 -0.1370  0.0125  0.2986
  675MOL0     C90992   9.117  10.977   8.964 -0.2458 -0.4156  1.2778
  675MOL0     O90993   9.237  11.030   8.928  0.6049  0.8054 -0.1441
  675MOL0     C90994   9.260  11.164   8.887 -0.5089  0.7575 -1.1137
  675MOL0     C90995   9.211  11.216   8.768  0.2637 -0.5898 -0.1622
  675MOL0     C90996   9.277  11.327   8.716  0.1900 -0.4277  0.9701
  675MOL0     C90997   9.384  11.394   8.782 -0.0741 -1.0252  0.7324
  675MOL0     O90998   9.443  11.511   8.738 -0.6783  1.4190  0.3810
  675MOL0     C90999   9.370  11.604   8.654  0.2208 -0.0696  0.1863
  675MOL0     C91000   9.406  11.750   8.683  0.2043 -0.1459  0.0179
  675MOL0     C91001   9.330  11.809   8.806 -0.0247 -0.8543  1.1852
  675MOL0     C91002   9.419  11.858   8.912 -0.1294  0.0278 -0.0198
  675MOL0     C91003   9.346  11.923   9.031  0.6783 -0.5069 -1.0590
  675MOL0     C91004   9.320  12.072   9.009  0.2580 -1.2436  0.4748
  675MOL0     C91005   9.239  12.136   9.128 -0.6334  0.4706 -0.1213
  675MOL0     C91006   9.228  12.281   9.107 -0.3766  0.3961  0.5030
  675MOL0     N91007   9.156  12.352   9.214 -0.2709  0.5505  0.0301
  675MOL0     C91008   9.205  12.408   9.329  0.5749 -0.7664 -0.0585
  675MOL0     C91009   9.093  12.446   9.397  0.4077 -0.0435 -0.7802
  675MOL0     C91010   9.094  12.523   9.521  0.4684  0.5420 -0.6077
  675MOL0     C91011   9.071  12.425   9.643 -0.2538 -0.8299  0.3684
  675MOL0     C91012   9.061  12.499   9.779  0.5546 -0.1393 -0.4024
  675MOL0     C91013   9.140  12.626   9.810 -0.0542  1.0514  1.1090
  675MOL0     O91014   9.043  12.730   9.794  0.6353  0.2141  1.2394
  675MOL0     C91015   9.059  12.858   9.844 -0.2752  0.4091  0.3748
  675MOL0     C91016   9.177  12.922   9.893  0.6620  0.4690  0.2861
  675MOL0     C91017   9.161  13.047   9.952 -0.1144  0.3587  0.1633
  675MOL0     C91018   9.041  13.125   9.940  0.0455 -0.2194  0.1092
  675MOL0     C91019   9.033  13.260   9.989 -1.3827  1.4104 -0.9323
  675MOL0     O91020   8.914  13.322   9.974 -0.2527 -0.2114 -0.1150
  675MOL0     C91021   8.915  13.450  10.016 -0.0090 -0.1538 -0.1933
  675MOL0     C91022   8.875  13.466  10.151  0.4947  0.1906  0.7137
  675MOL0     C91023   8.864  13.586  10.215  0.5049  1.0088  0.1503
  675MOL0     C91024   8.874  13.703  10.146  0.1172 -0.1603 -0.0662
  675MOL0     O91025   8.863  13.822  10.214  0.9148  0.3055  0.1138
  675MOL0     C91026   8.777  13.929  10.156 -0.1286  0.7107 -0.2734
  675MOL0     C91027   8.701  14.003  10.262  0.3140  0.3305 -0.8589
  675MOL0     C91028   8.779  14.091  10.357  0.2776 -0.4581 -0.1895
  675MOL0     C91029   8.696  14.183  10.434 -0.1691  1.1861  1.1224
  675MOL0     C91030   8.774  14.254  10.540 -0.3561 -0.8479 -0.4291
  675MOL0     C91031   8.882  14.366  10.499  0.3903  1.3229 -0.1869
  675MOL0     C91032   8.942  14.446  10.617  0.5131 -0.2735 -0.4248
  675MOL0     C91033   9.011  14.367  10.734  0.3848 -0.3710  0.1299
  675MOL0    Cl91034   8.905  14.387  10.886 -0.1058  0.2719  0.1275
  675MOL0     C91035   8.898  13.692  10.008 -0.7546 -0.2704  0.1377
  675MOL0     C91036   8.930  13.567   9.940 -0.7801 -0.5114  0.2853
  675MOL0     O91037   9.138  13.302  10.041 -0.9503  0.0509 -0.4082
  675MOL0     C91038   8.925  13.058   9.884 -0.0760 -0.0285  0.2170
  675MOL0     C91039   8.944  12.925   9.844 -0.0575  0.0760 -0.1244
  675MOL0     N91040   8.977  12.423   9.325  0.9480 -0.6749 -0.9639
  675MOL0     N91041   9.019  12.370   9.217  0.5482  0.4199  0.1919
  675MOL0     C91042   9.419  11.350   8.909  0.3907 -0.9465  0.2273
  675MOL0     C91043   9.354  11.240   8.963  0.8771  0.5320 -0.1859
  675MOL0     C91044   9.098  10.829   8.949 -0.5617 -0.1394 -0.1879
  675MOL0     C91045   9.215  10.748   8.906 -0.6048  0.0655 -0.5841
  675MOL0     C91046   9.191  10.623   8.848 -0.1829 -0.7313  0.0641
  675MOL0     C91047   9.059  10.578   8.832 -0.3054  0.0997 -0.2120
  675MOL0     O91048   9.021  10.458   8.775 -0.3196 -0.1638 -0.7053
  675MOL0     C91049   9.100  10.379   8.687 -0.5833 -0.9524  0.3610
  675MOL0     C91050   9.202  10.287   8.758  0.3316 -0.1529  0.5549
  675MOL0     C91051   9.298  10.223   8.662 -0.2214  0.5599 -0.1166
  675MOL0     C91052   9.420  10.160   8.742  0.5772 -0.4766 -0.5578
  675MOL0     C91053   9.512  10.078   8.660  0.4657 -0.2253 -0.8572
  675MOL0     C91054   9.601  10.019   8.598  0.5069 -0.1095  0.1412
  675MOL0     C91055   8.954  10.653   8.873  0.2221 -0.8772 -0.4457
  675MOL0     C91056   8.976  10.770   8.947  1.3040  0.1950  1.1884
  675MOL0     C91057   8.858  10.812   9.026  0.0184  0.1875  0.6264
  675MOL0     H91058   9.129  11.176   8.710 -0.3454 -1.6555  1.3729
  675MOL0     H91059   9.235  11.374   8.627 -0.3211  0.4394  1.6453
  675MOL0     H91060   9.384  11.583   8.547  4.0506  0.8217  0.3422
  675MOL0     H91061   9.261  11.603   8.665  0.2646 -1.3056  0.6439
  675MOL0     H91062   9.393  11.809   8.592 -1.0123 -1.5775 -0.7740
  675MOL0     H91063   9.514  11.758   8.704 -0.0459  0.1462  1.2643
  675MOL0     H91064   9.268  11.733   8.855  0.9256 -0.7901  2.5336
  675MOL0     H91065   9.285  11.903   8.773  2.1478 -0.1135  0.1653
  675MOL0     H91066   9.488  11.778   8.942  1.2998  1.2218  0.0172
  675MOL0     H91067   9.478  11.938   8.865 -2.3267  1.7182 -0.0761
  675MOL0     H91068   9.253  11.870   9.054  0.5376  0.7956  1.9630
  675MOL0     H91069   9.404  11.930   9.124  0.0143  0.4275 -0.6932
  675MOL0     H91070   9.414  12.122   8.986  0.0478 -1.0984 -0.0999
  675MOL0     H91071   9.262  12.083   8.916 -0.1865 -0.1590  0.8597
  675MOL0     H91072   9.299  12.133   9.219  0.5477 -0.5836 -0.9002
  675MOL0     H91073   9.142  12.086   9.134 -0.8189  0.9649  2.1119
  675MOL0     H91074   9.333  12.309   9.121 -0.0499 -0.2958 -0.4599
  675MOL0     H91075   9.190  12.304   9.007  2.0940  0.8039 -0.4189
  675MOL0     H91076   9.309  12.412   9.360 -0.0233 -1.9733  2.3660
  675MOL0     H91077   9.193  12.570   9.528 -0.9905  3.8330 -0.3429
  675MOL0     H91078   9.015  12.598   9.515  0.0239  0.1203 -0.1219
  675MOL0     H91079   8.989  12.353   9.637 -1.5847  0.6373  0.2391
  675MOL0     H91080   9.166  12.370   9.641  1.0859  1.3798 -1.0670
  675MOL0     H91081   9.083  12.435   9.865  0.7092  0.2080 -0.1827
  675MOL0     H91082   8.954  12.508   9.799  0.7065 -4.0133  4.0430
  675MOL0     H91083   9.217  12.635   9.733 -0.9828  3.5022  0.3723
  675MOL0     H91084   9.176  12.611   9.912  0.1903 -2.5474  0.6113
  675MOL0     H91085   9.272  12.870   9.895  1.3922  1.3980 -2.9599
  675MOL0     H91086   9.246  13.098   9.996  1.4543 -1.8789 -0.1351
  675MOL0     H91087   8.852  13.384  10.218 -1.6046 -0.3608 -0.5779
  675MOL0     H91088   8.847  13.587  10.322 -3.2762 -1.3567 -0.2538
  675MOL0     H91089   8.837  14.009  10.112  2.4698  0.7172  2.8781
  675MOL0     H91090   8.714  13.869  10.090 -0.9770 -0.6382  1.6602
  675MOL0     H91091   8.626  14.069  10.215 -0.5054  0.8415  1.0629
  675MOL0     H91092   8.647  13.932  10.325  1.2674  0.4487  0.1231
  675MOL0     H91093   8.836  14.022  10.420 -1.5339  0.1625  2.2706
  675MOL0     H91094   8.849  14.152  10.299 -0.6784 -0.1761 -1.0603
  675MOL0     H91095   8.616  14.118  10.472  1.2098 -1.2133  0.1283
  675MOL0     H91096   8.652  14.261  10.371 -4.4173 -1.0433  0.9976
  675MOL0     H91097   8.815  14.190  10.618  0.9182  2.2524  1.6735
  675MOL0     H91098   8.701  14.309  10.601  0.8500 -2.2221  2.4698
  675MOL0     H91099   8.963  14.309  10.451  0.4655 -0.6466  2.1088
  675MOL0     H91100   8.838  14.445  10.437  1.2734  1.4334 -0.6930
  675MOL0     H91101   8.858  14.502  10.659 -0.6644 -2.1206 -0.1630
  675MOL0     H91102   9.005  14.519  10.567 -2.2775  2.2259 -0.5488
  675MOL0     H91103   9.014  14.262  10.705 -0.7469  0.7464 -5.0386
  675MOL0     H91104   9.111  14.398  10.765 -1.0859  1.8932  3.1089
  675MOL0     H91105   8.914  13.779   9.945 -1.5626  1.8583  2.7082
  675MOL0     H91106   8.939  13.548   9.833  1.9362  3.1336 -0.3257
  675MOL0     H91107   8.825  13.099   9.874 -0.2107 -0.1003  1.2091
  675MOL0     H91108   8.862  12.868   9.801  1.3258 -3.1112  1.1777
  675MOL0     H91109   9.495  11.395   8.973  0.4754 -0.1321 -0.4212
  675MOL0     H91110   9.399  11.203   9.055  0.1734 -3.1497 -1.1571
  675MOL0     H91111   9.312  10.790   8.930 -0.9398 -0.3647  1.8454
  675MOL0     H91112   9.280  10.564   8.828  1.7641  2.2373 -0.6755
  675MOL0     H91113   9.154  10.439   8.613 -0.5846 -2.7181 -1.1601
  675MOL0     H91114   9.035  10.313   8.629 -1.4502  1.3427 -1.4326
  675MOL0     H91115   9.152  10.201   8.803  1.2205 -1.8157 -1.4855
  675MOL0     H91116   9.246  10.353   8.834 -0.4479 -0.8759  1.6647
  675MOL0     H91117   9.329  10.300   8.591  0.7134  1.5715  1.3411
  675MOL0     H91118   9.243  10.141   8.615 -1.4254  1.5419 -0.4918
  675MOL0     H91119   9.475  10.241   8.790 -1.1773  1.3692 -1.5104
  675MOL0     H91120   9.378  10.101   8.825 -0.8026  1.5126  0.2224
  675MOL0     H91121   9.679   9.971   8.543 -3.3152 -0.4125 -5.8932
  675MOL0     H91122   8.853  10.616   8.861 -1.3959  1.6362  3.2756
  675MOL0     H91123   8.897  10.832   9.127  1.6848  2.4780 -0.3899
  675MOL0     H91124   8.818  10.911   9.001 -0.8577  0.0329  1.3291
  675MOL0     H91125   8.776  10.740   9.015  0.9521 -1.1682  2.1348
  676MOL0     O91126   2.714   6.224   1.667 -0.8171 -0.2988  0.5633
  676MOL0     C91127   2.656   6.248   1.563 -0.0019 -0.1895 -1.0436
  676MOL0     O91128   2.576   6.159   1.504  0.1513 -0.2588 -0.0695
  676MOL0     C91129   2.574   6.025   1.528 -0.4512 -0.7948 -0.1346
  676MOL0     C91130   2.672   5.943   1.476 -0.6177  0.5118 -0.9700
  676MOL0     C91131   2.655   5.801   1.492  0.0328  0.2189 -0.3715
  676MOL0     C91132   2.534   5.763   1.541  0.3729 -0.0175  0.6430
  676MOL0     O91133   2.500   5.629   1.550 -0.4973  0.1285 -0.2763
  676MOL0     C91134   2.611   5.539   1.595 -0.0177 -0.8776  0.2236
  676MOL0     C91135   2.542   5.403   1.631  0.0373 -0.8228 -0.5166
  676MOL0     C91136   2.489   5.396   1.772  0.0879 -1.0231 -0.1981
  676MOL0     C91137   2.445   5.253   1.805 -0.2165 -0.4287 -0.0131
  676MOL0     C91138   2.362   5.266   1.933  0.2447 -0.7999  1.3048
  676MOL0     C91139   2.437   5.268   2.061 -0.1680 -0.3181 -0.4419
  676MOL0     C91140   2.352   5.282   2.184  0.5622 -0.2217  0.1589
  676MOL0     C91141   2.439   5.295   2.309  0.2973  0.4903 -1.0704
  676MOL0     N91142   2.546   5.393   2.310  0.2765 -0.0140 -1.1384
  676MOL0     C91143   2.517   5.526   2.308 -0.3571 -1.2053  0.9326
  676MOL0     C91144   2.641   5.589   2.301 -0.2481 -0.7449  0.1539
  676MOL0     C91145   2.667   5.732   2.293  0.7998 -1.2708  0.2388
  676MOL0     C91146   2.695   5.793   2.158 -0.2608 -0.4448  0.7454
  676MOL0     C91147   2.621   5.714   2.047  0.5042  0.6221  0.6530
  676MOL0     C91148   2.656   5.770   1.909  0.2603  0.0493 -0.1364
  676MOL0     O91149   2.780   5.709   1.885  0.8034 -0.3900 -0.0652
  676MOL0     C91150   2.864   5.792   1.826 -0.0700 -0.5989 -0.2796
  676MOL0     C91151   2.996   5.756   1.856 -0.0693  0.2711 -0.0361
  676MOL0     C91152   3.104   5.825   1.801  0.3531 -0.3770  0.4195
  676MOL0     C91153   3.089   5.943   1.735  0.4326  0.5447 -0.4568
  676MOL0     C91154   3.198   6.031   1.679 -0.2146  1.3159  0.4322
  676MOL0     O91155   3.195   6.160   1.684  0.5356 -0.5348 -0.2440
  676MOL0     C91156   3.310   6.235   1.655 -0.6024 -0.3200 -0.7689
  676MOL0     C91157   3.408   6.257   1.758  0.0337 -0.6526  0.6265
  676MOL0     C91158   3.521   6.339   1.726 -0.6747 -0.2264  0.2848
  676MOL0     C91159   3.549   6.363   1.581 -0.6709  0.7744  0.9248
  676MOL0     O91160   3.665   6.425   1.544 -0.4898  0.4473 -0.8494
  676MOL0     C91161   3.781   6.382   1.621 -0.5593 -0.3501 -0.7398
  676MOL0     C91162   3.901   6.424   1.536  0.3247  0.8974  0.6834
  676MOL0     C91163   4.037   6.380   1.606 -0.3853 -0.4722  0.0326
  676MOL0     C91164   4.077   6.456   1.735 -0.2083  0.2036  0.1726
  676MOL0     C91165   4.181   6.396   1.820 -1.2488 -0.1662 -0.8964
  676MOL0     C91166   4.110   6.383   1.960  0.2777  0.8501  0.4262
  676MOL0     C91167   4.071   6.521   2.029 -0.7002  0.3140  0.5249
  676MOL0     C91168   3.981   6.495   2.152 -0.0883  0.4574  0.8232
  676MOL0    Cl91169   3.926   6.645   2.237 -0.2694 -0.1045  0.4803
  676MOL0     C91170   3.461   6.327   1.486 -0.9527  0.7378 -0.1942
  676MOL0     C91171   3.345   6.262   1.518 -0.0212 -0.0457  0.4139
  676MOL0     O91172   3.293   5.964   1.643  0.0837 -0.1161  0.3500
  676MOL0     C91173   2.963   5.994   1.715 -0.1978  0.5897  0.6803
  676MOL0     C91174   2.846   5.909   1.751 -0.4356  0.9212  0.3154
  676MOL0     N91175   2.737   5.489   2.270 -0.6175 -0.6814 -0.4584
  676MOL0     N91176   2.674   5.368   2.280  0.6566 -0.7226 -0.9517
  676MOL0     C91177   2.440   5.848   1.595 -0.0874  0.5594  0.4234
  676MOL0     C91178   2.459   5.984   1.575 -0.7479  0.0192 -0.6261
  676MOL0     C91179   2.696   6.373   1.496 -0.6074  0.5960 -0.9235
  676MOL0     C91180   2.613   6.482   1.511 -0.2353 -0.8520 -0.5818
  676MOL0     C91181   2.650   6.606   1.445  0.8634  0.1107 -0.4276
  676MOL0     C91182   2.766   6.622   1.379 -0.3757 -0.2683  1.0468
  676MOL0     O91183   2.782   6.755   1.344  0.1800 -1.0835 -0.1268
  676MOL0     C91184   2.887   6.778   1.243  0.8487 -0.5693 -0.9234
  676MOL0     C91185   2.917   6.929   1.250  0.0648  0.7118  0.1395
  676MOL0     C91186   3.031   6.975   1.161 -0.9546 -0.4146  0.5797
  676MOL0     C91187   3.160   6.901   1.175  0.2911 -0.0998  0.2031
  676MOL0     C91188   3.247   6.935   1.068 -0.1204 -0.6043 -0.0700
  676MOL0     C91189   3.322   6.972   0.978 -0.6690  0.2752 -0.9356
  676MOL0     C91190   2.850   6.511   1.360  0.0943 -0.9478  1.1683
  676MOL0     C91191   2.812   6.386   1.416  0.5593  0.1272 -0.3512
  676MOL0     C91192   2.901   6.275   1.400 -0.1577  1.1364 -0.0896
  676MOL0     H91193   2.752   5.991   1.422  2.3978 -0.8558  1.8793
  676MOL0     H91194   2.725   5.736   1.440 -0.1745  0.7539 -1.3479
  676MOL0     H91195   2.674   5.523   1.507  0.4992  1.8888 -0.0016
  676MOL0     H91196   2.672   5.584   1.674  0.8760  1.0241 -1.4590
  676MOL0     H91197   2.630   5.337   1.634 -0.8742 -2.0772  2.0442
  676MOL0     H91198   2.463   5.371   1.562 -0.6325  1.5300 -0.9035
  676MOL0     H91199   2.406   5.468   1.779  0.1570 -0.5849 -2.8372
  676MOL0     H91200   2.568   5.430   1.839  0.1108 -0.9909 -0.2407
  676MOL0     H91201   2.385   5.197   1.733 -0.9129 -2.9550  2.3475
  676MOL0     H91202   2.535   5.193   1.821  2.0431  2.7802  0.4341
  676MOL0     H91203   2.302   5.357   1.926 -0.8868 -1.6210 -1.1455
  676MOL0     H91204   2.285   5.189   1.942 -1.0136  0.5181  2.1734
  676MOL0     H91205   2.488   5.173   2.076 -1.3315 -0.4278  5.1685
  676MOL0     H91206   2.518   5.340   2.042  0.3882 -1.5326 -3.0774
  676MOL0     H91207   2.279   5.205   2.207 -2.2288  1.5287 -2.0986
  676MOL0     H91208   2.289   5.371   2.170 -0.7635 -1.5273 -2.9811
  676MOL0     H91209   2.368   5.324   2.387  2.5896 -1.2115  1.8584
  676MOL0     H91210   2.485   5.200   2.339 -3.8110 -1.3113  0.1925
  676MOL0     H91211   2.421   5.577   2.316 -0.3176 -1.0831  0.6573
  676MOL0     H91212   2.583   5.779   2.345  0.0612 -0.8414 -1.2856
  676MOL0     H91213   2.752   5.755   2.358 -0.2992 -1.2914  1.7224
  676MOL0     H91214   2.663   5.897   2.158  1.4904  0.1285  0.3967
  676MOL0     H91215   2.803   5.787   2.140 -0.0318 -2.2306  2.4427
  676MOL0     H91216   2.513   5.718   2.060  0.0630 -2.0744 -1.4117
  676MOL0     H91217   2.639   5.606   2.048  1.5159  0.7787  0.5786
  676MOL0     H91218   2.660   5.879   1.914 -3.2260  0.2488  0.6964
  676MOL0     H91219   2.577   5.747   1.837 -2.9658 -0.0199  3.1407
  676MOL0     H91220   3.003   5.661   1.908 -2.0458  0.5786  0.8823
  676MOL0     H91221   3.202   5.783   1.822  0.4689 -0.0114  0.6333
  676MOL0     H91222   3.398   6.227   1.862  2.0400  0.6555  1.2629
  676MOL0     H91223   3.587   6.373   1.805 -0.4188  0.7926 -0.3413
  676MOL0     H91224   3.800   6.425   1.720 -0.5241 -1.7965 -0.0945
  676MOL0     H91225   3.773   6.274   1.636 -1.4928 -0.4193 -1.6557
  676MOL0     H91226   3.890   6.360   1.448 -3.8266  1.4595  0.6064
  676MOL0     H91227   3.892   6.531   1.517 -1.6559  0.9640  1.7150
  676MOL0     H91228   4.034   6.273   1.626  1.7573 -0.2197  2.0912
  676MOL0     H91229   4.114   6.394   1.529 -1.3054 -1.1618 -1.0605
  676MOL0     H91230   3.985   6.482   1.787 -0.3837  0.8996 -0.4772
  676MOL0     H91231   4.122   6.550   1.704 -1.4712 -0.3043 -3.6959
  676MOL0     H91232   4.273   6.455   1.826 -0.0491 -1.9642 -1.0802
  676MOL0     H91233   4.219   6.296   1.799  3.0213  1.0437  0.1906
  676MOL0     H91234   4.036   6.302   1.959  2.3327 -1.3072  3.4737
  676MOL0     H91235   4.177   6.338   2.034 -2.5112 -0.1667  2.5345
  676MOL0     H91236   4.027   6.595   1.962  3.1783  1.3005 -1.2492
  676MOL0     H91237   4.160   6.572   2.066  0.2719 -3.2215  3.6804
  676MOL0     H91238   3.896   6.438   2.112 -1.1980  2.3775  0.3371
  676MOL0     H91239   4.037   6.419   2.208 -0.0675 -2.6256 -2.9195
  676MOL0     H91240   3.474   6.354   1.381  0.5128  4.1606  0.7115
  676MOL0     H91241   3.268   6.236   1.446  3.0980 -2.1651 -2.4428
  676MOL0     H91242   2.936   6.088   1.669 -1.8464 -1.0136 -1.8972
  676MOL0     H91243   2.749   5.956   1.739 -0.0402  2.2486  1.9399
  676MOL0     H91244   2.343   5.820   1.635  0.2629  0.7318  1.3986
  676MOL0     H91245   2.390   6.053   1.624  1.7752  1.5742  0.9466
  676MOL0     H91246   2.525   6.475   1.573  2.5810 -3.0915  3.6825
  676MOL0     H91247   2.588   6.694   1.456  1.1022  0.5318 -2.1673
  676MOL0     H91248   2.855   6.759   1.140 -1.1425  0.6852 -0.5873
  676MOL0     H91249   2.976   6.725   1.277  0.8098  0.1806  0.3839
  676MOL0     H91250   2.949   6.951   1.353 -0.0357 -0.4255  0.4325
  676MOL0     H91251   2.830   6.989   1.224  0.0278 -0.0502 -1.6132
  676MOL0     H91252   3.047   7.083   1.165 -0.5995 -0.4889  1.4185
  676MOL0     H91253   3.003   6.962   1.056  1.1220  0.5711 -0.1631
  676MOL0     H91254   3.210   6.932   1.267  2.8693 -1.0671 -0.7759
  676MOL0     H91255   3.150   6.792   1.174  5.1969 -0.7612 -0.3076
  676MOL0     H91256   3.382   6.997   0.894 -0.9013 -1.1548 -1.5608
  676MOL0     H91257   2.953   6.518   1.325 -0.1057 -3.6920 -0.2380
  676MOL0     H91258   2.941   6.213   1.481  2.1580 -0.2878 -2.1699
  676MOL0     H91259   2.848   6.204   1.335  0.7278  0.5290 -0.1691
  676MOL0     H91260   2.992   6.309   1.349 -0.2702  0.5541 -0.7028
  677MOL0     O91261   4.157   8.422   5.019  0.3656 -0.0908 -0.1742
  677MOL0     C91262   4.215   8.483   5.105 -0.4805 -0.6084 -0.9449
  677MOL0     O91263   4.305   8.581   5.090  0.3936  0.1360 -0.1494
  677MOL0     C91264   4.317   8.640   4.966  0.1839 -0.7013 -0.1018
  677MOL0     C91265   4.365   8.575   4.853 -1.1680 -0.1843 -0.3749
  677MOL0     C91266   4.384   8.643   4.732  0.3943  0.0023  0.3551
  677MOL0     C91267   4.329   8.775   4.719 -0.2930 -0.3941 -0.0108
  677MOL0     O91268   4.344   8.830   4.592  0.0057 -0.2182  0.2052
  677MOL0     C91269   4.366   8.968   4.570 -0.0796  0.1188 -0.2001
  677MOL0     C91270   4.389   9.002   4.423 -0.3297  0.3447  1.2525
  677MOL0     C91271   4.536   8.990   4.382 -0.4495  0.8553  0.0160
  677MOL0     C91272   4.555   9.008   4.228  1.2743  0.1435  0.6164
  677MOL0     C91273   4.698   8.977   4.186 -0.2105  0.2715  0.2511
  677MOL0     C91274   4.808   9.060   4.245 -0.6022 -0.5089 -0.9632
  677MOL0     C91275   4.937   9.034   4.180  0.2862  0.2790  0.8619
  677MOL0     C91276   5.059   9.074   4.262  0.2456  0.2772  1.3922
  677MOL0     N91277   5.093   8.997   4.377 -0.2893 -0.1872 -0.2438
  677MOL0     C91278   5.141   9.059   4.495 -0.4323  0.4363  0.1083
  677MOL0     C91279   5.185   8.943   4.561 -0.1896  0.0217  0.4351
  677MOL0     C91280   5.264   8.942   4.687 -0.7318  0.2934 -0.1375
  677MOL0     C91281   5.187   8.885   4.811  1.2634  0.2892  0.4306
  677MOL0     C91282   5.193   8.733   4.796 -0.7347 -0.0560  0.2434
  677MOL0     C91283   5.127   8.675   4.916 -0.5758  1.2098 -0.3327
  677MOL0     O91284   5.183   8.715   5.046 -0.2271 -1.0980 -0.3737
  677MOL0     C91285   5.118   8.666   5.155 -0.7243  0.2364  0.8304
  677MOL0     C91286   4.995   8.719   5.195  0.1135  0.6936  0.6836
  677MOL0     C91287   4.920   8.664   5.303  0.0249  0.5362 -0.0178
  677MOL0     C91288   4.981   8.555   5.373  1.0439 -0.4392  0.0251
  677MOL0     C91289   4.893   8.490   5.473  0.4046 -0.1277  0.0740
  677MOL0     O91290   4.776   8.538   5.490 -0.3774 -0.7036 -0.5518
  677MOL0     C91291   4.712   8.536   5.622 -0.1993  0.4515  0.6531
  677MOL0     C91292   4.599   8.610   5.632 -0.0543 -0.2192 -0.4540
  677MOL0     C91293   4.515   8.607   5.741 -0.6625  0.8898 -0.5173
  677MOL0     C91294   4.545   8.518   5.844 -0.5058 -0.6569  0.0037
  677MOL0     O91295   4.472   8.503   5.957 -0.4050  0.5853  0.1939
  677MOL0     C91296   4.423   8.625   6.014 -0.6533 -0.2947  1.1203
  677MOL0     C91297   4.383   8.622   6.167 -0.9154  1.0675  0.6254
  677MOL0     C91298   4.269   8.519   6.191 -0.4710 -0.3189 -0.3741
  677MOL0     C91299   4.315   8.394   6.265  0.6707  0.0257  0.5502
  677MOL0     C91300   4.211   8.312   6.337 -0.4995 -0.7509  0.7580
  677MOL0     C91301   4.085   8.275   6.266  0.0396  0.2352 -0.1961
  677MOL0     C91302   3.998   8.205   6.364  0.2368 -0.0038 -0.3918
  677MOL0     C91303   3.860   8.159   6.307  0.2759  0.5743 -0.8001
  677MOL0    Cl91304   3.869   8.016   6.199 -0.5271 -0.1921  0.0244
  677MOL0     C91305   4.658   8.448   5.838  0.6043  0.1732 -0.4677
  677MOL0     C91306   4.754   8.461   5.738 -0.4858 -1.0755  1.0774
  677MOL0     O91307   4.939   8.395   5.532 -0.6216 -0.1990 -0.6772
  677MOL0     C91308   5.108   8.507   5.338 -0.3202 -0.6900  0.3974
  677MOL0     C91309   5.181   8.558   5.225 -0.3604 -0.3720 -0.1181
  677MOL0     N91310   5.144   8.827   4.491 -0.6510 -0.2667 -0.6204
  677MOL0     N91311   5.089   8.867   4.386  0.6008  0.0914 -0.1653
  677MOL0     C91312   4.291   8.842   4.834  0.3220 -0.1239 -0.1888
  677MOL0     C91313   4.284   8.773   4.959 -0.4086  1.1144  0.0951
  677MOL0     C91314   4.202   8.442   5.244 -0.9879 -0.9828  0.3001
  677MOL0     C91315   4.067   8.414   5.294  0.1940 -0.0336  0.4954
  677MOL0     C91316   4.038   8.401   5.433  0.0496  0.5026  0.5955
  677MOL0     C91317   4.133   8.412   5.526 -0.6925 -0.8535  0.8297
  677MOL0     O91318   4.127   8.397   5.664  0.2782  0.4076 -0.0006
  677MOL0     C91319   4.006   8.443   5.734 -0.4229 -0.7973  0.2885
  677MOL0     C91320   4.035   8.494   5.877  0.2056  0.5001 -0.2117
  677MOL0     C91321   3.920   8.579   5.938  1.1806  0.0931 -1.0101
  677MOL0     C91322   3.794   8.491   5.954  1.0776 -0.4218 -0.5160
  677MOL0     C91323   3.683   8.578   5.992 -0.8662 -0.2350  0.5983
  677MOL0     C91324   3.577   8.631   6.026 -0.9206 -0.4080 -0.2506
  677MOL0     C91325   4.265   8.438   5.484 -0.0215 -0.3712  0.4543
  677MOL0     C91326   4.305   8.454   5.344 -0.4465  0.3112  0.2125
  677MOL0     C91327   4.448   8.489   5.321  0.0128  0.1408  0.9451
  677MOL0     H91328   4.391   8.471   4.870  0.2884  0.2762  0.3596
  677MOL0     H91329   4.421   8.594   4.642 -2.5283 -1.2068 -0.3080
  677MOL0     H91330   4.276   9.022   4.603  0.7683  1.1565  0.4845
  677MOL0     H91331   4.453   9.010   4.622  1.4714 -1.2905 -1.5333
  677MOL0     H91332   4.358   9.106   4.412  2.3897  1.0584 -0.4917
  677MOL0     H91333   4.332   8.941   4.353  3.6899  0.8971 -2.9660
  677MOL0     H91334   4.568   8.892   4.417  0.5891  1.4905  0.9109
  677MOL0     H91335   4.600   9.060   4.437  0.0983 -0.2257  0.8004
  677MOL0     H91336   4.490   8.930   4.185  3.5626 -3.8561  3.7046
  677MOL0     H91337   4.537   9.112   4.202 -0.0233 -0.7091 -2.3040
  677MOL0     H91338   4.711   8.872   4.215  2.9217 -0.4791 -3.1296
  677MOL0     H91339   4.702   8.980   4.077 -1.7957  2.7987  0.1903
  677MOL0     H91340   4.799   9.169   4.243  1.0028 -0.0920  3.3132
  677MOL0     H91341   4.815   9.043   4.353 -2.3339  4.3327  0.1308
  677MOL0     H91342   4.931   9.086   4.084 -0.6698 -0.6928  0.3664
  677MOL0     H91343   4.958   8.931   4.150 -0.1939  0.6549 -0.9242
  677MOL0     H91344   5.150   9.079   4.201  0.5203 -1.7761  1.5611
  677MOL0     H91345   5.042   9.176   4.298 -0.3301 -0.7379  4.2256
  677MOL0     H91346   5.155   9.165   4.515  2.9737 -0.1053  1.2847
  677MOL0     H91347   5.351   8.882   4.659 -0.6552 -0.6380  1.9416
  677MOL0     H91348   5.314   9.036   4.710  1.1193 -0.6254 -0.2139
  677MOL0     H91349   5.242   8.930   4.894  2.2563  1.1079 -0.6335
  677MOL0     H91350   5.083   8.919   4.815  0.9038 -0.1727 -2.8039
  677MOL0     H91351   5.297   8.702   4.788 -1.3500 -1.8338 -1.6531
  677MOL0     H91352   5.142   8.695   4.707  0.5014  1.3518 -1.1166
  677MOL0     H91353   5.151   8.569   4.912 -1.3361  0.9863  0.6129
  677MOL0     H91354   5.018   8.687   4.915 -0.6923  0.1944 -0.4541
  677MOL0     H91355   4.939   8.784   5.128 -1.4918 -1.8156 -0.5894
  677MOL0     H91356   4.823   8.701   5.334 -0.4012 -1.5853  1.3322
  677MOL0     H91357   4.572   8.674   5.549  1.0822  1.3771  0.3428
  677MOL0     H91358   4.438   8.683   5.742 -0.4758  1.0809  0.3487
  677MOL0     H91359   4.511   8.689   6.006  0.7575 -2.3429 -1.4651
  677MOL0     H91360   4.338   8.666   5.960  0.2458 -2.9872 -2.7364
  677MOL0     H91361   4.475   8.586   6.215 -0.1985  0.7507 -0.9326
  677MOL0     H91362   4.363   8.718   6.216  2.8717  1.4028  1.8634
  677MOL0     H91363   4.211   8.575   6.265 -0.1922 -3.6974  2.6438
  677MOL0     H91364   4.210   8.505   6.100 -1.0674 -2.0776  0.2474
  677MOL0     H91365   4.400   8.419   6.329  1.7660 -1.1306 -0.4027
  677MOL0     H91366   4.348   8.319   6.192 -0.5354 -0.1193  0.1219
  677MOL0     H91367   4.191   8.377   6.423 -1.5710  1.7818 -1.2787
  677MOL0     H91368   4.251   8.216   6.370 -0.2683 -0.0668  2.5955
  677MOL0     H91369   4.035   8.369   6.238 -0.0369  0.1216 -0.4519
  677MOL0     H91370   4.118   8.218   6.179  1.3641  2.0967 -0.9782
  677MOL0     H91371   3.969   8.277   6.441  0.3794  1.6105 -1.7918
  677MOL0     H91372   4.049   8.119   6.408 -0.0265 -0.4167 -0.8847
  677MOL0     H91373   3.800   8.127   6.392  0.4824  0.2117 -0.7869
  677MOL0     H91374   3.807   8.238   6.253 -2.4925 -0.6230 -0.0069
  677MOL0     H91375   4.676   8.380   5.920  1.9472  0.1478 -0.7654
  677MOL0     H91376   4.852   8.416   5.731 -0.0616  0.0461 -1.7127
  677MOL0     H91377   5.158   8.427   5.391  0.3345  0.3879  1.4813
  677MOL0     H91378   5.283   8.530   5.202  0.0566  1.2408 -0.3698
  677MOL0     H91379   4.266   8.948   4.839 -0.5522 -0.3776  2.0322
  677MOL0     H91380   4.234   8.823   5.041 -3.0035  1.7804 -1.7831
  677MOL0     H91381   3.981   8.401   5.228 -1.1934  2.8635  1.5479
  677MOL0     H91382   3.937   8.372   5.460 -1.1877  0.8577 -3.0739
  677MOL0     H91383   3.936   8.359   5.740 -0.2510 -0.8161  2.8980
  677MOL0     H91384   3.966   8.528   5.678  0.0563 -1.3488 -0.9312
  677MOL0     H91385   4.127   8.553   5.878  1.7485 -1.7271  2.3001
  677MOL0     H91386   4.049   8.408   5.944  3.4801 -0.1576 -1.5455
  677MOL0     H91387   3.899   8.669   5.880  0.8654 -1.3604 -3.2674
  677MOL0     H91388   3.960   8.606   6.036 -1.6855  2.0999 -0.2821
  677MOL0     H91389   3.772   8.430   5.866  1.4286 -0.7986 -0.3445
  677MOL0     H91390   3.806   8.417   6.034  0.0920  1.1207  1.1365
  677MOL0     H91391   3.493   8.690   6.056  1.4161  2.6918  0.8007
  677MOL0     H91392   4.347   8.448   5.554  0.4313  1.4941 -0.2707
  677MOL0     H91393   4.479   8.477   5.217 -3.0857 -2.7414  0.1887
  677MOL0     H91394   4.445   8.597   5.335 -3.0437  0.5595 -1.7279
  677MOL0     H91395   4.513   8.429   5.386  0.6184 -1.2732 -0.8870
  678MOL0     O91396   9.158   8.677   3.134  0.1392  0.5502  0.3905
  678MOL0     C91397   9.178   8.643   3.011  0.1053 -0.6491 -1.1497
  678MOL0     O91398   9.076   8.628   2.921  0.7762 -0.8834 -0.4191
  678MOL0     C91399   8.947   8.669   2.953 -1.0012 -0.5310  0.5852
  678MOL0     C91400   8.842   8.572   2.934 -0.1509 -0.9903 -0.2219
  678MOL0     C91401   8.707   8.603   2.951  0.3535 -0.4179 -0.4846
  678MOL0     C91402   8.675   8.732   2.983 -0.4249  0.2889  0.2438
  678MOL0     O91403   8.541   8.766   3.003 -0.2096  0.1988 -0.0526
  678MOL0     C91404   8.504   8.902   3.034  0.2075  0.1639  0.1631
  678MOL0     C91405   8.361   8.912   3.085  0.3269 -0.5628 -0.5421
  678MOL0     C91406   8.329   9.049   3.152 -0.0438  0.2871 -0.5375
  678MOL0     C91407   8.174   9.061   3.192  0.8401 -0.1536 -0.2512
  678MOL0     C91408   8.127   9.188   3.262 -0.1448 -0.8369 -0.9680
  678MOL0     C91409   7.984   9.184   3.323  0.2141  0.3924  0.1119
  678MOL0     C91410   7.911   9.322   3.333 -0.1683  0.7992  0.8885
  678MOL0     C91411   7.872   9.384   3.192 -0.1915 -0.1374 -0.0785
  678MOL0     N91412   7.769   9.295   3.138  0.5254  0.5323 -0.3596
  678MOL0     C91413   7.653   9.268   3.210 -0.5316  0.2586  0.2191
  678MOL0     C91414   7.576   9.192   3.134  0.9404  1.5210  0.6006
  678MOL0     C91415   7.436   9.143   3.167  0.5671 -0.3288  0.1710
  678MOL0     C91416   7.330   9.238   3.092 -0.3008  0.6047 -0.1182
  678MOL0     C91417   7.186   9.193   3.095 -0.6952  0.6592  0.0994
  678MOL0     C91418   7.106   9.143   3.211  0.1940  0.7655 -0.1526
  678MOL0     O91419   7.086   9.256   3.293  0.7405  1.3892 -0.0591
  678MOL0     C91420   7.017   9.240   3.412 -1.2933 -0.5244 -0.7178
  678MOL0     C91421   6.987   9.119   3.471  1.6384 -0.1797 -0.5937
  678MOL0     C91422   6.916   9.112   3.594  0.7589  0.6669  1.1141
  678MOL0     C91423   6.861   9.233   3.660 -0.2009 -0.0514 -0.6247
  678MOL0     C91424   6.772   9.207   3.776 -0.6049  0.0839 -0.1540
  678MOL0     O91425   6.725   9.321   3.833 -0.4349  0.7637  0.2438
  678MOL0     C91426   6.618   9.334   3.911 -0.0251 -0.2554 -0.2785
  678MOL0     C91427   6.495   9.272   3.898  0.5741  0.1179 -0.6812
  678MOL0     C91428   6.400   9.293   3.998 -0.3165  0.3573  0.0451
  678MOL0     C91429   6.428   9.363   4.122  1.1160  0.6710  0.6339
  678MOL0     O91430   6.340   9.373   4.237  0.5113 -0.0223 -0.4612
  678MOL0     C91431   6.272   9.494   4.247 -0.6836 -0.0541 -0.1134
  678MOL0     C91432   6.217   9.491   4.391  0.0073 -0.3971  0.2134
  678MOL0     C91433   6.125   9.370   4.430 -0.1853  0.3865 -0.0865
  678MOL0     C91434   5.992   9.427   4.490 -0.5448  0.7593  0.1823
  678MOL0     C91435   5.889   9.320   4.531  0.4716  0.2025 -0.1542
  678MOL0     C91436   5.939   9.210   4.632  0.6271 -0.0750  0.2038
  678MOL0     C91437   5.837   9.107   4.677 -0.5599 -0.1031 -0.3751
  678MOL0     C91438   5.884   9.023   4.800  0.4550 -0.2390  0.2811
  678MOL0    Cl91439   6.024   8.937   4.769  0.2967 -0.6131  0.1074
  678MOL0     C91440   6.549   9.425   4.135 -0.2553 -0.2340  0.2847
  678MOL0     C91441   6.642   9.408   4.032  0.0515 -0.4313 -0.0899
  678MOL0     O91442   6.733   9.096   3.803 -0.2026  0.0100  0.4272
  678MOL0     C91443   6.907   9.355   3.603  0.4863 -0.5241  0.0337
  678MOL0     C91444   6.979   9.355   3.482  0.7057 -0.1102  0.2397
  678MOL0     N91445   7.632   9.184   3.005 -0.9625 -0.9708 -0.8900
  678MOL0     N91446   7.747   9.246   3.021  0.6409 -0.0323 -0.2890
  678MOL0     C91447   8.779   8.826   3.001  0.8938 -0.0047  0.0503
  678MOL0     C91448   8.906   8.798   2.990 -0.6623 -0.1450  0.7047
  678MOL0     C91449   9.315   8.600   2.979 -0.4629  0.1650 -0.1939
  678MOL0     C91450   9.422   8.586   3.076  0.6303 -0.2260 -0.3818
  678MOL0     C91451   9.550   8.549   3.047  0.0568  0.6339 -0.5583
  678MOL0     C91452   9.585   8.520   2.918 -0.3346  0.5367  0.3270
  678MOL0     O91453   9.712   8.475   2.880  0.6734 -0.0609  0.1686
  678MOL0     C91454   9.823   8.513   2.967 -0.4090  0.0186 -0.1663
  678MOL0     C91455   9.953   8.539   2.884 -0.7276  0.3028 -0.0752
  678MOL0     C91456   9.989   8.420   2.779  0.6173 -0.0292 -0.6431
  678MOL0     C91457  10.048   8.304   2.865  0.0245 -0.1935 -0.0129
  678MOL0     C91458  10.175   8.342   2.921 -0.8940  0.2562 -0.9042
  678MOL0     C91459  10.277   8.383   2.984  0.3906  0.3669  0.3863
  678MOL0     C91460   9.488   8.524   2.822 -0.4569  0.1246 -0.2870
  678MOL0     C91461   9.355   8.562   2.842  0.1704  0.8159 -0.2538
  678MOL0     C91462   9.280   8.587   2.716 -0.2832  0.3529 -0.4609
  678MOL0     H91463   8.865   8.473   2.895  0.0052 -0.0681 -2.6363
  678MOL0     H91464   8.635   8.526   2.925 -0.8932  1.2634 -2.2300
  678MOL0     H91465   8.577   8.940   3.107  3.2219 -2.0413 -1.4610
  678MOL0     H91466   8.512   8.974   2.952 -1.0318 -5.0610 -5.1854
  678MOL0     H91467   8.336   8.831   3.154  0.4239 -0.8654 -0.8565
  678MOL0     H91468   8.288   8.887   3.008 -1.5402 -3.3833  1.8946
  678MOL0     H91469   8.344   9.133   3.084 -0.0530  1.8512  1.3138
  678MOL0     H91470   8.383   9.072   3.244 -0.1530  0.5827 -0.5445
  678MOL0     H91471   8.130   9.072   3.092 -0.5138 -1.7312  0.1303
  678MOL0     H91472   8.139   8.976   3.251 -0.8680  1.8992  1.8804
  678MOL0     H91473   8.183   9.221   3.350  2.5757 -2.8669 -1.7976
  678MOL0     H91474   8.137   9.272   3.192  0.3053  0.8421  0.9944
  678MOL0     H91475   7.927   9.119   3.256 -3.0694  1.8214  1.3022
  678MOL0     H91476   7.974   9.127   3.416 -0.9270 -1.5950 -1.1375
  678MOL0     H91477   7.985   9.385   3.382  0.5940  1.0166 -0.4860
  678MOL0     H91478   7.826   9.321   3.402  0.7015 -1.3444  2.0430
  678MOL0     H91479   7.833   9.485   3.206 -1.3996 -0.3681 -1.5724
  678MOL0     H91480   7.958   9.399   3.126  0.3360  0.8889  0.7993
  678MOL0     H91481   7.635   9.288   3.315  0.3554  1.6089  0.1423
  678MOL0     H91482   7.433   9.049   3.111  0.3294 -0.5264  0.5128
  678MOL0     H91483   7.419   9.134   3.274 -1.8906 -3.6826 -0.3387
  678MOL0     H91484   7.348   9.325   3.156  2.1897 -0.0409  0.1487
  678MOL0     H91485   7.364   9.262   2.991  2.2853  4.5096  1.4277
  678MOL0     H91486   7.172   9.115   3.020  0.5637  0.8627 -0.3594
  678MOL0     H91487   7.138   9.285   3.061  1.2030  2.9818  3.2361
  678MOL0     H91488   7.151   9.068   3.276 -0.8244  1.0926  0.9686
  678MOL0     H91489   7.008   9.104   3.181  0.4906 -1.2673  1.3319
  678MOL0     H91490   7.014   9.027   3.421  3.5878 -0.7767  1.3579
  678MOL0     H91491   6.899   9.007   3.617  0.1926 -0.1857 -2.5895
  678MOL0     H91492   6.462   9.203   3.821 -1.6234  2.5159 -2.0452
  678MOL0     H91493   6.310   9.235   3.983  0.2271 -0.8169  1.1725
  678MOL0     H91494   6.337   9.581   4.251 -1.0652  0.3300 -1.6213
  678MOL0     H91495   6.196   9.498   4.168 -1.8059 -1.9106  0.7803
  678MOL0     H91496   6.309   9.491   4.450 -1.4265 -3.7809  2.8689
  678MOL0     H91497   6.171   9.587   4.415  2.8269  0.3007  3.6222
  678MOL0     H91498   6.112   9.296   4.351  1.3466  1.4408 -1.3895
  678MOL0     H91499   6.182   9.314   4.506  0.0557 -2.2988 -2.0864
  678MOL0     H91500   5.953   9.504   4.422  0.5402 -0.6614 -2.2052
  678MOL0     H91501   6.021   9.480   4.581 -1.2526  0.8956  0.3283
  678MOL0     H91502   5.840   9.277   4.443 -0.0653 -0.7841  0.6037
  678MOL0     H91503   5.822   9.371   4.601 -0.6184 -0.1635 -0.9061
  678MOL0     H91504   6.009   9.147   4.577 -1.6420 -0.6385 -2.2498
  678MOL0     H91505   5.978   9.259   4.722  1.0933 -1.6050  0.8736
  678MOL0     H91506   5.805   9.050   4.589 -0.4909  0.9697 -1.1133
  678MOL0     H91507   5.741   9.149   4.706 -0.8047  2.2889 -3.9978
  678MOL0     H91508   5.913   9.084   4.886 -2.3728  0.5272  0.7916
  678MOL0     H91509   5.794   8.968   4.830  0.6201 -0.4610  0.3700
  678MOL0     H91510   6.576   9.478   4.226  0.2764  1.4830 -0.8194
  678MOL0     H91511   6.742   9.449   4.043 -0.4688  0.3349  2.4162
  678MOL0     H91512   6.883   9.453   3.641  2.9614  1.4623 -3.0238
  678MOL0     H91513   7.005   9.449   3.434  3.1401 -0.6319  0.4500
  678MOL0     H91514   8.762   8.928   3.036  0.6407 -0.3691  1.0487
  678MOL0     H91515   8.978   8.876   3.015  0.5591 -1.0131 -0.0156
  678MOL0     H91516   9.402   8.613   3.179  0.9477 -1.2031 -0.0481
  678MOL0     H91517   9.622   8.554   3.128 -2.5842  1.0826  1.8995
  678MOL0     H91518   9.859   8.436   3.036 -1.5800 -0.9943 -0.6594
  678MOL0     H91519   9.815   8.608   3.020  0.7105 -0.1820  0.3879
  678MOL0     H91520  10.044   8.560   2.941  1.9253 -4.7793 -1.8061
  678MOL0     H91521   9.941   8.622   2.814  3.2383 -0.4611 -1.9530
  678MOL0     H91522  10.052   8.471   2.706 -1.5519  1.7884 -1.3773
  678MOL0     H91523   9.904   8.380   2.722  1.9421  1.4141 -3.8666
  678MOL0     H91524   9.989   8.268   2.949  0.0446  0.4833  0.2974
  678MOL0     H91525  10.050   8.225   2.790 -1.8045  2.2067 -2.8029
  678MOL0     H91526  10.350   8.413   3.056  0.0859 -1.3368  1.4801
  678MOL0     H91527   9.513   8.481   2.726 -2.1680  0.8246 -1.0895
  678MOL0     H91528   9.236   8.492   2.683 -1.3287  1.0859 -1.2707
  678MOL0     H91529   9.201   8.662   2.725 -0.7291 -0.1556 -0.0608
  678MOL0     H91530   9.350   8.619   2.638 -0.1085  1.2676  0.0544
  679MOL0     O91531   0.522  10.982   3.620 -0.9691 -0.0160 -0.2028
  679MOL0     C91532   0.640  11.023   3.629  0.7723 -0.5629  0.3060
  679MOL0     O91533   0.749  10.934   3.637 -0.3897  0.0042 -0.6438
  679MOL0     C91534   0.736  10.807   3.685  0.4869  0.3209  1.1003
  679MOL0     C91535   0.819  10.714   3.622 -0.0873  0.2786  0.2432
  679MOL0     C91536   0.814  10.583   3.675 -0.2753 -0.2317  1.0242
  679MOL0     C91537   0.726  10.538   3.764 -0.0642 -1.0571 -0.5288
  679MOL0     O91538   0.718  10.402   3.783  0.1068  0.4456 -0.4000
  679MOL0     C91539   0.760  10.360   3.912  0.2785 -0.2344 -0.2534
  679MOL0     C91540   0.703  10.218   3.936 -0.3777  0.0078  0.1767
  679MOL0     C91541   0.557  10.224   3.982  0.2022  0.0165 -0.3837
  679MOL0     C91542   0.488  10.094   4.037  0.3476  0.7301 -0.5652
  679MOL0     C91543   0.345  10.113   4.092  1.8069 -0.6747  0.6349
  679MOL0     C91544   0.290   9.981   4.154  0.8479  0.9964  0.5428
  679MOL0     C91545   0.157  10.004   4.234  0.1722  0.1939  0.4836
  679MOL0     C91546   0.175  10.081   4.374 -0.7323 -0.3199 -0.1468
  679MOL0     N91547   0.188   9.997   4.499  0.8133 -0.7538  0.1374
  679MOL0     C91548   0.088   9.937   4.573  0.7698 -0.1189 -0.3257
  679MOL0     C91549   0.154   9.914   4.692  0.2247  0.2461 -0.5659
  679MOL0     C91550   0.081   9.855   4.808 -0.6396  0.8122  0.0308
  679MOL0     C91551   0.136   9.725   4.866  0.7683 -0.4069  0.4976
  679MOL0     C91552   0.158   9.620   4.755  0.0288  0.3282  1.1562
  679MOL0     C91553   0.028   9.544   4.713  0.1957  0.5056 -0.1592
  679MOL0     O91554  -0.072   9.634   4.676 -0.7017 -0.0615  0.8142
  679MOL0     C91555  -0.201   9.588   4.658 -0.9911 -0.7982  0.5664
  679MOL0     C91556  -0.282   9.667   4.580  0.0020  0.2241 -0.5793
  679MOL0     C91557  -0.407   9.610   4.533  0.6726  0.1729  0.6109
  679MOL0     C91558  -0.456   9.484   4.566 -0.1057  0.1873 -0.4355
  679MOL0     C91559  -0.581   9.428   4.519 -0.0664 -0.0635 -0.2176
  679MOL0     O91560  -0.679   9.517   4.474 -0.7417  0.2798  0.0936
  679MOL0     C91561  -0.786   9.468   4.399 -0.1738  0.4702 -0.7681
  679MOL0     C91562  -0.882   9.373   4.446  0.3882 -0.5486 -0.1055
  679MOL0     C91563  -0.992   9.340   4.370  0.0821 -0.8841 -0.2638
  679MOL0     C91564  -1.008   9.379   4.234 -0.9213  0.0164 -0.1783
  679MOL0     O91565  -1.105   9.328   4.155 -0.3886  0.1736  0.1062
  679MOL0     C91566  -1.075   9.284   4.016  0.7192  0.0670 -0.2490
  679MOL0     C91567  -1.171   9.172   3.978 -0.3600  0.2702  0.4375
  679MOL0     C91568  -1.157   9.053   4.074 -0.8238 -0.2823  0.0617
  679MOL0     C91569  -1.263   8.955   4.029  0.0678  1.0092 -0.2793
  679MOL0     C91570  -1.237   8.810   4.089  0.1395 -0.1709  0.2167
  679MOL0     C91571  -1.368   8.727   4.082 -0.1025 -0.2390  0.0444
  679MOL0     C91572  -1.386   8.667   3.955  0.5928  0.2546  0.9968
  679MOL0     C91573  -1.511   8.583   3.956  0.1046 -0.0336 -0.1208
  679MOL0    Cl91574  -1.559   8.512   3.788  0.1275 -0.0650 -0.4543
  679MOL0     C91575  -0.919   9.475   4.194  0.2439 -0.1657 -0.0869
  679MOL0     C91576  -0.808   9.516   4.270 -1.3626 -0.5778 -0.2315
  679MOL0     O91577  -0.579   9.305   4.514 -0.0477 -0.0913 -1.1714
  679MOL0     C91578  -0.377   9.419   4.672  0.4917 -0.5486  0.7017
  679MOL0     C91579  -0.251   9.462   4.713  0.8930 -0.4074 -0.5155
  679MOL0     N91580   0.283   9.951   4.681  0.3312  0.3515 -0.1130
  679MOL0     N91581   0.309  10.001   4.567 -0.2037  0.4501 -0.6146
  679MOL0     C91582   0.638  10.624   3.823  0.3145 -0.2320 -1.0012
  679MOL0     C91583   0.647  10.762   3.791  0.6530  0.1253  0.2058
  679MOL0     C91584   0.664  11.167   3.606 -0.6220  0.1739  0.1566
  679MOL0     C91585   0.766  11.208   3.520  0.4372 -0.9819 -0.0759
  679MOL0     C91586   0.817  11.342   3.514  1.3011  0.2439  0.8229
  679MOL0     C91587   0.749  11.435   3.584  0.2839 -0.7193 -0.0628
  679MOL0     O91588   0.806  11.562   3.574 -0.1962 -0.0000 -0.1033
  679MOL0     C91589   0.745  11.670   3.651  0.0114 -0.0996  0.8296
  679MOL0     C91590   0.857  11.777   3.663  0.8754  0.6483 -0.0403
  679MOL0     C91591   0.816  11.902   3.733 -0.6555 -0.2919 -0.3586
  679MOL0     C91592   0.723  11.985   3.647  0.3572 -0.7661 -0.3063
  679MOL0     C91593   0.808  12.072   3.571  0.0119 -0.0659 -0.1165
  679MOL0     C91594   0.884  12.154   3.530 -0.4384 -0.4056  0.6019
  679MOL0     C91595   0.642  11.395   3.670 -0.2063 -0.7048  0.5948
  679MOL0     C91596   0.595  11.261   3.678 -0.5552 -1.0473  1.1868
  679MOL0     C91597   0.478  11.232   3.766 -0.1947 -0.5673 -0.1697
  679MOL0     H91598   0.875  10.732   3.531 -2.7324  1.4140 -1.2773
  679MOL0     H91599   0.894  10.523   3.633  2.1356  3.0178  0.5365
  679MOL0     H91600   0.869  10.367   3.905  0.2542  1.3230  0.4355
  679MOL0     H91601   0.729  10.432   3.989 -2.5239  0.8086 -2.1815
  679MOL0     H91602   0.768  10.172   4.011  0.7193 -0.7303 -1.1784
  679MOL0     H91603   0.698  10.164   3.841  0.0761  0.0313  0.1387
  679MOL0     H91604   0.500  10.256   3.894 -1.4637 -0.9965  0.2700
  679MOL0     H91605   0.537  10.304   4.055  1.2687 -1.5863  1.7667
  679MOL0     H91606   0.486  10.022   3.955 -1.1609  1.5271 -1.2737
  679MOL0     H91607   0.544  10.053   4.121 -0.2704 -0.1875 -0.5842
  679MOL0     H91608   0.346  10.201   4.157  0.7969 -1.6754  2.0451
  679MOL0     H91609   0.284  10.134   4.004 -0.0185 -2.3542  1.4324
  679MOL0     H91610   0.261   9.909   4.078  0.3747  1.4157  0.3152
  679MOL0     H91611   0.361   9.932   4.220  0.9659  0.4190 -0.0052
  679MOL0     H91612   0.111   9.907   4.256 -2.6094  1.1528 -0.6392
  679MOL0     H91613   0.097  10.064   4.165  0.3031 -0.5501 -0.2998
  679MOL0     H91614   0.252  10.155   4.350 -1.8293 -0.3297 -4.4464
  679MOL0     H91615   0.082  10.138   4.383 -0.1013  0.4906  1.8113
  679MOL0     H91616  -0.013   9.924   4.536  0.5205  1.5948 -0.3447
  679MOL0     H91617   0.092   9.932   4.885  0.0326  0.8123 -0.0605
  679MOL0     H91618  -0.025   9.841   4.784 -1.0138  2.5435  0.4718
  679MOL0     H91619   0.233   9.748   4.911  0.0541  0.8511  1.4530
  679MOL0     H91620   0.080   9.686   4.951  1.0792  1.2652  1.5182
  679MOL0     H91621   0.221   9.533   4.774 -1.6177 -1.6808 -1.7185
  679MOL0     H91622   0.204   9.671   4.670  2.6367  1.8330  3.3395
  679MOL0     H91623   0.005   9.482   4.800  0.2012  0.5963 -0.0932
  679MOL0     H91624   0.050   9.480   4.627 -2.2951 -4.2843  2.3696
  679MOL0     H91625  -0.261   9.771   4.558  0.3533  0.4289  0.6523
  679MOL0     H91626  -0.473   9.655   4.459 -0.5600 -1.1399  0.8669
  679MOL0     H91627  -0.891   9.356   4.553 -2.3744  1.3303  0.0804
  679MOL0     H91628  -1.060   9.264   4.405  2.8026 -4.8097 -2.6002
  679MOL0     H91629  -1.088   9.365   3.944 -0.2324  0.5141  0.4000
  679MOL0     H91630  -0.976   9.242   3.996  0.0049 -2.0983  0.4625
  679MOL0     H91631  -1.272   9.214   3.986 -0.3867 -0.1545  3.0025
  679MOL0     H91632  -1.161   9.134   3.876 -3.5614 -0.2059  0.1970
  679MOL0     H91633  -1.058   9.010   4.061 -0.4800  0.4081  0.3333
  679MOL0     H91634  -1.174   9.081   4.179 -1.8988 -2.9718  0.6861
  679MOL0     H91635  -1.260   8.947   3.920 -0.7081  0.3684 -0.2618
  679MOL0     H91636  -1.361   8.990   4.063  0.4803  1.1030  0.8415
  679MOL0     H91637  -1.214   8.816   4.196 -3.0176 -0.8502  1.0198
  679MOL0     H91638  -1.157   8.764   4.030 -0.9516  0.1283 -1.5295
  679MOL0     H91639  -1.363   8.646   4.155 -0.0249 -0.6819 -0.4527
  679MOL0     H91640  -1.451   8.795   4.104 -0.8551 -0.8282 -0.9106
  679MOL0     H91641  -1.303   8.599   3.934  0.2747  1.0563 -3.7256
  679MOL0     H91642  -1.395   8.745   3.880  2.7011  0.3395  0.7742
  679MOL0     H91643  -1.493   8.493   4.014  2.8433  0.7164  0.3177
  679MOL0     H91644  -1.589   8.649   3.995  2.2050  2.9844 -0.7184
  679MOL0     H91645  -0.925   9.508   4.090  1.4245  0.5673  0.0621
  679MOL0     H91646  -0.743   9.591   4.227 -2.2523  0.5997  0.4261
  679MOL0     H91647  -0.421   9.333   4.721 -0.0330  1.1642  3.4761
  679MOL0     H91648  -0.198   9.412   4.793  2.0355 -1.0977 -1.6629
  679MOL0     H91649   0.561  10.595   3.894  0.6518 -3.0696 -1.6458
  679MOL0     H91650   0.578  10.838   3.826  0.9746  1.9568 -2.7273
  679MOL0     H91651   0.813  11.130   3.461  2.5626  0.3549 -0.2774
  679MOL0     H91652   0.903  11.360   3.450  0.6661  1.4550  0.2870
  679MOL0     H91653   0.714  11.629   3.748  0.3141  1.6639  1.7269
  679MOL0     H91654   0.658  11.717   3.606 -0.2303 -1.8430 -0.6038
  679MOL0     H91655   0.900  11.799   3.565 -0.1820 -2.1003 -1.2095
  679MOL0     H91656   0.940  11.741   3.725  1.3836  0.3481 -0.8866
  679MOL0     H91657   0.904  11.955   3.770 -1.9083  2.6064 -1.2084
  679MOL0     H91658   0.755  11.874   3.819 -0.3278  1.6241  0.5303
  679MOL0     H91659   0.656  11.930   3.580 -1.9280  0.6210  0.7128
  679MOL0     H91660   0.671  12.048   3.720 -0.6436  0.2368 -1.8258
  679MOL0     H91661   0.951  12.226   3.488 -2.1438  1.4395  0.9150
  679MOL0     H91662   0.590  11.468   3.732 -1.2024 -2.6653  2.1812
  679MOL0     H91663   0.388  11.226   3.705  0.6028  1.8984 -1.7419
  679MOL0     H91664   0.500  11.141   3.823 -0.7652 -1.5659 -1.4884
  679MOL0     H91665   0.458  11.309   3.842 -1.9215 -1.5618  0.4472
  680MOL0     O91666   6.248   3.332  10.456  0.1994  0.3845  1.0499
  680MOL0     C91667   6.211   3.429  10.390  0.2940  0.7022 -0.0533
  680MOL0     O91668   6.107   3.506  10.433  0.7623  0.4326 -0.4038
  680MOL0     C91669   6.067   3.500  10.565  0.7812 -0.4609  0.0860
  680MOL0     C91670   5.931   3.502  10.595  0.4584  0.3173  0.7808
  680MOL0     C91671   5.877   3.502  10.716 -0.6647 -0.3993 -1.5896
  680MOL0     C91672   5.963   3.515  10.830  0.3700  0.6370 -0.4701
  680MOL0     O91673   5.903   3.545  10.956  0.1401  0.1546  0.2072
  680MOL0     C91674   5.981   3.532  11.066  0.1865  0.1437 -0.4667
  680MOL0     C91675   5.896   3.560  11.186 -0.0859  0.6924 -1.0942
  680MOL0     C91676   5.987   3.583  11.311  0.1210  0.0831  0.0204
  680MOL0     C91677   6.058   3.460  11.368 -0.5239  0.4514 -0.4554
  680MOL0     C91678   6.115   3.498  11.511  1.3428 -0.1743 -0.2014
  680MOL0     C91679   6.177   3.387  11.603  0.4441 -0.4685  0.7857
  680MOL0     C91680   6.232   3.433  11.734 -0.6309 -0.2437 -0.4247
  680MOL0     C91681   6.113   3.453  11.833  0.2897 -0.2764  0.3307
  680MOL0     N91682   6.161   3.539  11.945 -0.6148 -0.3649 -0.0877
  680MOL0     C91683   6.257   3.502  12.038  0.6274 -0.9214 -0.7349
  680MOL0     C91684   6.265   3.616  12.116  0.1525  0.7335 -0.3173
  680MOL0     C91685   6.351   3.635  12.234 -0.1408  0.0490 -0.0224
  680MOL0     C91686   6.291   3.666  12.373 -0.3118  0.1663 -0.0106
  680MOL0     C91687   6.259   3.808  12.389 -0.0311 -0.6629  0.6507
  680MOL0     C91688   6.122   3.848  12.333  0.8361  0.1455 -0.2837
  680MOL0     O91689   6.045   3.939  12.419  0.1068  0.4865  0.9762
  680MOL0     C91690   5.942   3.872  12.484 -0.7107  0.1321 -0.6258
  680MOL0     C91691   5.816   3.910  12.460  0.3159  0.2142 -0.2593
  680MOL0     C91692   5.709   3.846  12.520 -0.2207  0.1276 -0.0534
  680MOL0     C91693   5.726   3.741  12.608 -0.5322 -0.1816  0.5550
  680MOL0     C91694   5.614   3.674  12.686 -0.3098 -0.3824  0.0485
  680MOL0     O91695   5.648   3.579  12.779 -0.1946  0.1559 -0.7296
  680MOL0     C91696   5.565   3.500  12.856 -0.2520 -0.4921  0.0642
  680MOL0     C91697   5.444   3.459  12.811 -0.3947  0.3894  0.6790
  680MOL0     C91698   5.361   3.374  12.892  0.1002 -0.0934  0.0110
  680MOL0     C91699   5.395   3.360  13.026 -0.8270 -1.0972 -0.1370
  680MOL0     O91700   5.312   3.285  13.105  0.5186  0.1578 -0.4452
  680MOL0     C91701   5.175   3.251  13.061  0.5482 -0.0605  1.1401
  680MOL0     C91702   5.083   3.188  13.160 -1.5290  0.4073  0.3855
  680MOL0     C91703   5.073   3.269  13.298 -0.0014  0.8300  0.3830
  680MOL0     C91704   4.928   3.270  13.348 -0.4880 -0.0669 -0.1667
  680MOL0     C91705   4.922   3.354  13.473  0.2588 -0.5645 -0.4206
  680MOL0     C91706   4.781   3.338  13.527  0.5918 -0.5605 -0.4442
  680MOL0     C91707   4.773   3.418  13.659 -0.4791 -0.8241 -0.1095
  680MOL0     C91708   4.648   3.401  13.739  0.4383 -0.5313 -0.2058
  680MOL0    Cl91709   4.503   3.449  13.645  0.1347 -0.3543  0.0557
  680MOL0     C91710   5.518   3.410  13.081  0.8630  0.1246  0.0791
  680MOL0     C91711   5.599   3.492  12.987  0.5113  0.4731 -0.1348
  680MOL0     O91712   5.496   3.711  12.659 -0.3864  0.1205 -0.4809
  680MOL0     C91713   5.864   3.699  12.625 -0.0523  0.1929  0.2168
  680MOL0     C91714   5.966   3.761  12.563  0.4151  0.3262  0.5241
  680MOL0     N91715   6.176   3.704  12.076  0.3128 -0.2674  1.3166
  680MOL0     N91716   6.106   3.657  11.973  0.2379 -0.0815 -0.5282
  680MOL0     C91717   6.101   3.506  10.804 -0.5256  0.4655  0.5374
  680MOL0     C91718   6.155   3.510  10.675 -1.2681  0.7560  0.1104
  680MOL0     C91719   6.265   3.449  10.257 -0.9374  0.6499 -0.5911
  680MOL0     C91720   6.400   3.430  10.238 -0.1634  0.3822  0.6761
  680MOL0     C91721   6.465   3.448  10.114  0.6368  0.0074  1.2127
  680MOL0     C91722   6.389   3.500  10.005  0.1427 -0.4174 -0.1227
  680MOL0     O91723   6.441   3.560   9.896 -0.3234 -0.0343  0.0459
  680MOL0     C91724   6.547   3.499   9.825 -0.1595  0.8591 -0.3256
  680MOL0     C91725   6.498   3.384   9.739 -0.0191  0.6864 -1.3752
  680MOL0     C91726   6.357   3.379   9.669  0.4340 -0.1543 -0.1109
  680MOL0     C91727   6.328   3.506   9.590  0.7223 -0.5421  0.4081
  680MOL0     C91728   6.381   3.498   9.454 -0.8134 -0.4524  0.1421
  680MOL0     C91729   6.443   3.490   9.349  0.4906 -0.2433  0.1648
  680MOL0     C91730   6.246   3.512  10.015 -1.0291  0.7872  0.2848
  680MOL0     C91731   6.183   3.482  10.142  0.1779 -0.7152  0.1732
  680MOL0     C91732   6.032   3.491  10.149  0.0914 -0.2108  0.9470
  680MOL0     H91733   5.867   3.503  10.507  1.4695  3.1581 -0.0675
  680MOL0     H91734   5.770   3.500  10.736 -0.3211  2.1190  1.2697
  680MOL0     H91735   6.017   3.431  11.088  0.7057 -0.0945 -2.2307
  680MOL0     H91736   6.073   3.591  11.061  0.8354 -0.7512  0.4145
  680MOL0     H91737   5.828   3.478  11.210  0.8764  0.3583  0.7199
  680MOL0     H91738   5.833   3.648  11.170 -2.8778 -0.7103  1.1792
  680MOL0     H91739   5.918   3.634  11.380 -0.1634  0.6132 -0.6486
  680MOL0     H91740   6.068   3.654  11.293  0.0930 -0.2340 -1.4858
  680MOL0     H91741   5.983   3.384  11.393 -0.7549  1.8406  3.9734
  680MOL0     H91742   6.131   3.426  11.294  0.5627  3.0703 -0.6883
  680MOL0     H91743   6.197   3.565  11.487  0.0598  1.3382 -0.5603
  680MOL0     H91744   6.031   3.554  11.555 -0.4529 -1.6738 -1.5286
  680MOL0     H91745   6.107   3.309  11.631  0.2502 -0.1925  1.0829
  680MOL0     H91746   6.254   3.339  11.541  1.3450  0.5904  1.0319
  680MOL0     H91747   6.289   3.526  11.730  0.9200 -1.1087  0.6305
  680MOL0     H91748   6.298   3.353  11.769  0.8126  0.7286 -0.7982
  680MOL0     H91749   6.030   3.509  11.789  1.0191  0.0968 -0.6035
  680MOL0     H91750   6.067   3.359  11.866 -0.2359 -0.3846 -0.6596
  680MOL0     H91751   6.309   3.408  12.049 -0.6685 -1.5445  0.2638
  680MOL0     H91752   6.398   3.537  12.249 -1.7559 -0.4469  2.2229
  680MOL0     H91753   6.432   3.706  12.213 -1.1382  2.7560  4.1600
  680MOL0     H91754   6.212   3.601  12.413 -0.7905  1.6587  1.5876
  680MOL0     H91755   6.375   3.640  12.438  0.8482  0.4362 -1.3704
  680MOL0     H91756   6.331   3.872  12.337 -2.8646  1.6323 -0.7393
  680MOL0     H91757   6.251   3.847  12.491 -1.2014 -2.5837  1.3517
  680MOL0     H91758   6.076   3.750  12.313  0.4396  0.5514 -1.4404
  680MOL0     H91759   6.123   3.905  12.240 -2.2797  1.9529  0.6556
  680MOL0     H91760   5.788   4.003  12.410 -0.8065  0.9714  1.6363
  680MOL0     H91761   5.614   3.874  12.477  0.5644  2.4395 -0.4620
  680MOL0     H91762   5.414   3.479  12.709 -0.4423 -0.0613  0.6015
  680MOL0     H91763   5.267   3.340  12.849 -0.4942  2.4616 -0.8753
  680MOL0     H91764   5.137   3.341  13.013  0.6977  0.2548  1.6101
  680MOL0     H91765   5.187   3.178  12.980 -1.5108 -1.5338  2.0525
  680MOL0     H91766   4.987   3.158  13.116 -0.1783 -1.3957 -1.5190
  680MOL0     H91767   5.129   3.093  13.191 -1.4348 -0.2462 -1.6469
  680MOL0     H91768   5.141   3.227  13.372  2.9745 -2.4363 -3.7453
  680MOL0     H91769   5.100   3.373  13.281  0.0045  0.9595  1.1541
  680MOL0     H91770   4.891   3.168  13.362 -1.1092  0.2263  0.3726
  680MOL0     H91771   4.865   3.318  13.272  1.4194  3.1547  0.1140
  680MOL0     H91772   4.937   3.459  13.446  1.9767 -1.0565 -1.5281
  680MOL0     H91773   4.991   3.320  13.550 -0.7414  1.4706  1.4991
  680MOL0     H91774   4.710   3.359  13.446  0.2822 -3.0010 -0.8815
  680MOL0     H91775   4.763   3.233  13.552 -1.3786 -0.2039 -0.2054
  680MOL0     H91776   4.792   3.521  13.631 -0.8817 -0.0008  2.3722
  680MOL0     H91777   4.857   3.402  13.727  0.3947 -1.2073 -1.2584
  680MOL0     H91778   4.641   3.298  13.775  0.3651  0.1479  1.8122
  680MOL0     H91779   4.649   3.464  13.828  1.9398 -1.1556  0.2393
  680MOL0     H91780   5.530   3.410  13.189 -4.8440 -1.6912  1.0423
  680MOL0     H91781   5.691   3.537  13.022  0.8506  0.0677 -0.4947
  680MOL0     H91782   5.895   3.622  12.694 -1.7910  0.7665  1.7085
  680MOL0     H91783   6.068   3.731  12.583  1.1887  0.0291 -3.2015
  680MOL0     H91784   6.166   3.518  10.890  0.0240 -0.5895  0.2957
  680MOL0     H91785   6.262   3.517  10.662 -1.2189 -0.7323 -0.4766
  680MOL0     H91786   6.466   3.399  10.319  1.0629 -3.5724 -1.5443
  680MOL0     H91787   6.572   3.438  10.099  0.2975 -0.7677 -1.0617
  680MOL0     H91788   6.622   3.483   9.902 -1.9143  0.1756  1.3327
  680MOL0     H91789   6.592   3.569   9.754  0.7083  1.2392  0.5852
  680MOL0     H91790   6.517   3.291   9.794 -1.8493  0.4972 -1.0195
  680MOL0     H91791   6.567   3.379   9.654  1.7909 -0.9131  0.0995
  680MOL0     H91792   6.272   3.370   9.736 -0.0733  1.2008 -0.5417
  680MOL0     H91793   6.351   3.290   9.604  0.4064  0.6125 -1.1923
  680MOL0     H91794   6.220   3.513   9.571  1.0519 -0.7510 -1.9286
  680MOL0     H91795   6.361   3.594   9.644  0.4864  0.7456 -1.4328
  680MOL0     H91796   6.494   3.480   9.256 -0.2804  2.5925 -0.6389
  680MOL0     H91797   6.209   3.557   9.923  1.7781 -2.0076 -2.4533
  680MOL0     H91798   5.998   3.571  10.216 -1.2224  3.6791 -3.7541
  680MOL0     H91799   6.001   3.522  10.048  1.8743  2.0268  0.9861
  680MOL0     H91800   5.989   3.393  10.171  1.8913 -1.2594  0.0324
  681MOL0     O91801   9.646   7.002   8.689  0.6176  0.6387 -0.8525
  681MOL0     C91802   9.613   7.102   8.757  0.1294  1.1124 -0.4859
  681MOL0     O91803   9.599   7.230   8.703 -0.4462  0.8176  0.1733
  681MOL0     C91804   9.646   7.254   8.572 -0.6155 -0.2746  0.6304
  681MOL0     C91805   9.776   7.252   8.527  0.0374  0.2586  0.4491
  681MOL0     C91806   9.822   7.270   8.397  0.9570 -0.0246  0.3583
  681MOL0     C91807   9.724   7.291   8.296 -0.2491 -0.1737  0.3468
  681MOL0     O91808   9.759   7.298   8.161 -0.3010 -0.0437 -0.7865
  681MOL0     C91809   9.892   7.331   8.108  0.3751  0.3681  0.6270
  681MOL0     C91810   9.912   7.286   7.965  0.7820  0.5621  0.3897
  681MOL0     C91811   9.920   7.132   7.946 -0.2914  0.6583  0.5768
  681MOL0     C91812   9.910   7.082   7.807 -0.5312  0.1713 -0.3769
  681MOL0     C91813   9.823   6.959   7.813 -1.1684  0.1366  0.7400
  681MOL0     C91814   9.801   6.920   7.668 -0.7150 -0.1213 -0.5215
  681MOL0     C91815   9.679   6.989   7.609  0.3568 -0.2023  0.0007
  681MOL0     C91816   9.697   7.011   7.460 -0.3465  0.0632 -0.5148
  681MOL0     N91817   9.577   7.057   7.389  0.2359 -0.4771 -0.2134
  681MOL0     C91818   9.444   7.071   7.433  0.3377  0.2980  0.1592
  681MOL0     C91819   9.379   7.106   7.325 -0.5463  0.2410 -0.3063
  681MOL0     C91820   9.230   7.148   7.304 -0.7247 -0.5024  0.2666
  681MOL0     C91821   9.247   7.302   7.290  0.4406 -0.5623  0.7927
  681MOL0     C91822   9.278   7.374   7.420  0.3550 -0.4919 -0.9799
  681MOL0     C91823   9.163   7.470   7.469  0.4806 -0.0327  0.2302
  681MOL0     O91824   9.172   7.584   7.374 -0.2311  0.5403 -0.4701
  681MOL0     C91825   9.061   7.657   7.376 -0.3575  0.0799 -0.6935
  681MOL0     C91826   9.060   7.782   7.446 -0.1072  0.2205  1.4052
  681MOL0     C91827   8.938   7.851   7.467  1.0209  0.2377 -0.1457
  681MOL0     C91828   8.819   7.804   7.413  0.2157  0.4412  0.2614
  681MOL0     C91829   8.697   7.879   7.433  0.1261  1.0156  0.3479
  681MOL0     O91830   8.710   7.998   7.519  0.7784  0.6611 -0.1425
  681MOL0     C91831   8.600   8.059   7.557  0.4691 -0.3211 -0.2272
  681MOL0     C91832   8.606   8.196   7.563 -0.4400 -0.3662 -0.6138
  681MOL0     C91833   8.503   8.275   7.607 -0.0223  0.4615 -0.2332
  681MOL0     C91834   8.372   8.216   7.639  0.0275  0.1325  0.8859
  681MOL0     O91835   8.259   8.286   7.674  0.1892 -0.1151  0.3527
  681MOL0     C91836   8.248   8.428   7.625 -0.1697 -0.6115  0.2425
  681MOL0     C91837   8.108   8.489   7.645 -0.6597  0.0954  0.6398
  681MOL0     C91838   8.055   8.481   7.791 -0.8216  0.1301 -0.4659
  681MOL0     C91839   7.918   8.539   7.783  0.6444  0.3197 -0.3812
  681MOL0     C91840   7.904   8.693   7.782  0.2721 -0.4849 -0.5033
  681MOL0     C91841   7.974   8.762   7.899  0.1910 -0.2678 -0.0031
  681MOL0     C91842   7.943   8.702   8.039 -0.1166 -1.1293 -1.0436
  681MOL0     C91843   7.809   8.754   8.093  0.0270 -0.6867  0.2293
  681MOL0    Cl91844   7.680   8.655   8.029  0.2392  0.6026 -0.3286
  681MOL0     C91845   8.359   8.073   7.624 -1.1340  0.0729  0.1926
  681MOL0     C91846   8.477   8.007   7.589 -0.0854  1.3452 -0.2073
  681MOL0     O91847   8.593   7.834   7.386 -0.7976  0.6342 -0.3002
  681MOL0     C91848   8.828   7.680   7.343  0.7599  0.1780  0.8093
  681MOL0     C91849   8.939   7.602   7.342 -0.0174 -0.7288  0.6458
  681MOL0     N91850   9.465   7.109   7.224  0.3012  0.8455 -0.5347
  681MOL0     N91851   9.585   7.079   7.257  0.9912  0.0070 -0.0386
  681MOL0     C91852   9.584   7.297   8.333  0.5653  0.2572  1.0371
  681MOL0     C91853   9.551   7.275   8.473  0.3348  0.7884 -0.6882
  681MOL0     C91854   9.572   7.098   8.903 -0.8582  0.1044  0.6728
  681MOL0     C91855   9.585   7.215   8.980 -0.7146  0.5560 -0.5130
  681MOL0     C91856   9.527   7.234   9.104  0.3656  0.2126 -0.5694
  681MOL0     C91857   9.460   7.123   9.169 -0.9763  0.0827 -0.2906
  681MOL0     O91858   9.397   7.130   9.285 -0.0531 -1.2753  0.5191
  681MOL0     C91859   9.461   7.208   9.382  0.6100 -0.2509 -0.1388
  681MOL0     C91860   9.419   7.365   9.385 -0.7617  0.5520 -0.5210
  681MOL0     C91861   9.274   7.383   9.331  0.6140  1.1335 -0.0690
  681MOL0     C91862   9.229   7.517   9.281  0.0742 -0.2513  0.4044
  681MOL0     C91863   9.098   7.517   9.217 -0.6936  0.0123 -0.2840
  681MOL0     C91864   9.000   7.509   9.153 -0.4125  0.7262  0.1855
  681MOL0     C91865   9.436   7.002   9.086 -0.0677 -0.7648 -0.1444
  681MOL0     C91866   9.492   6.998   8.958 -0.7390 -0.2860 -0.2442
  681MOL0     C91867   9.465   6.876   8.885  0.1879  0.1243 -0.1389
  681MOL0     H91868   9.846   7.241   8.610 -0.3605  1.2033  0.9234
  681MOL0     H91869   9.929   7.263   8.378  1.1321 -0.0742  1.3208
  681MOL0     H91870   9.882   7.440   8.109 -1.2931  0.2546  1.3785
  681MOL0     H91871   9.973   7.291   8.169  1.1344  0.3019 -0.4189
  681MOL0     H91872  10.008   7.323   7.929 -0.8588  2.9860 -1.8404
  681MOL0     H91873   9.826   7.332   7.915  2.6633  0.9691 -2.7312
  681MOL0     H91874   9.848   7.092   8.018  1.0613  3.8885  4.0372
  681MOL0     H91875  10.016   7.096   7.984  0.4626 -2.0728 -3.2972
  681MOL0     H91876   9.863   7.156   7.741 -0.9964 -1.5957 -2.1210
  681MOL0     H91877  10.017   7.071   7.788  0.3038  3.4148  1.5973
  681MOL0     H91878   9.879   6.873   7.851 -0.8591 -1.0730 -2.2024
  681MOL0     H91879   9.741   6.970   7.884 -1.3303  1.7100  0.3308
  681MOL0     H91880   9.889   6.935   7.605  1.1635  2.5630  2.4439
  681MOL0     H91881   9.776   6.813   7.669  3.7315 -1.3896  2.2556
  681MOL0     H91882   9.652   7.088   7.647 -0.1005 -0.2545 -0.1731
  681MOL0     H91883   9.593   6.923   7.625 -0.1155  0.5470  0.6672
  681MOL0     H91884   9.778   7.085   7.457 -1.5016  1.3477 -2.5836
  681MOL0     H91885   9.733   6.918   7.416 -0.7596 -0.3006 -0.0848
  681MOL0     H91886   9.398   7.050   7.529 -4.6100  0.1928 -1.9411
  681MOL0     H91887   9.186   7.111   7.211 -0.0590 -1.1529  0.2043
  681MOL0     H91888   9.163   7.119   7.385 -0.5010  0.0867  0.6662
  681MOL0     H91889   9.322   7.333   7.216 -0.9067 -0.8523 -0.7464
  681MOL0     H91890   9.155   7.348   7.252  2.2249  2.5544 -0.1975
  681MOL0     H91891   9.372   7.431   7.419  1.7403 -2.6659 -1.9799
  681MOL0     H91892   9.291   7.296   7.496 -3.0474 -0.1519  0.1129
  681MOL0     H91893   9.189   7.497   7.572  2.0555 -1.3604  0.2176
  681MOL0     H91894   9.078   7.403   7.454  2.8794 -3.6099  1.3383
  681MOL0     H91895   9.159   7.823   7.466  0.7032  0.6829 -2.7409
  681MOL0     H91896   8.946   7.942   7.525 -1.3170  0.3733  0.0359
  681MOL0     H91897   8.686   8.256   7.521 -0.6433  0.5268  0.2268
  681MOL0     H91898   8.526   8.381   7.606  2.0068  0.0650 -1.3202
  681MOL0     H91899   8.322   8.491   7.675 -1.9123  1.8700 -0.1253
  681MOL0     H91900   8.268   8.441   7.519  0.3908  0.2897  0.4494
  681MOL0     H91901   8.115   8.592   7.611 -2.0473  0.0328  0.1071
  681MOL0     H91902   8.040   8.435   7.579  1.0416 -2.5696  0.9095
  681MOL0     H91903   8.040   8.378   7.827 -0.6709  0.7568  1.4812
  681MOL0     H91904   8.119   8.526   7.867 -0.2434 -1.0267 -0.2498
  681MOL0     H91905   7.862   8.498   7.868  0.9397  1.1893  0.2390
  681MOL0     H91906   7.865   8.498   7.696 -3.4504  1.5163  1.2893
  681MOL0     H91907   7.797   8.714   7.776  0.1740 -1.2257 -2.3104
  681MOL0     H91908   7.955   8.732   7.693 -0.2849  0.7487 -0.2877
  681MOL0     H91909   8.078   8.728   7.889 -0.5649 -3.4392  1.5750
  681MOL0     H91910   7.959   8.870   7.893 -2.2956 -0.5877 -0.3873
  681MOL0     H91911   8.022   8.751   8.096 -1.0694 -0.1394 -0.5254
  681MOL0     H91912   7.951   8.593   8.037 -0.2451 -1.1725  0.2147
  681MOL0     H91913   7.805   8.741   8.201 -0.5610 -0.7233  0.2068
  681MOL0     H91914   7.790   8.859   8.066  4.3736 -0.5975 -3.8173
  681MOL0     H91915   8.271   8.011   7.637  1.4688 -4.2070 -0.5345
  681MOL0     H91916   8.472   7.898   7.590  0.3094  1.3124 -0.8487
  681MOL0     H91917   8.739   7.643   7.294  1.7144 -0.0342 -0.8450
  681MOL0     H91918   8.942   7.503   7.300  0.5016 -1.7932  3.0072
  681MOL0     H91919   9.500   7.302   8.264  1.5216 -0.7738 -0.2596
  681MOL0     H91920   9.449   7.286   8.509  0.3096  3.4903 -1.3966
  681MOL0     H91921   9.640   7.305   8.954 -0.5006  0.7841  0.6392
  681MOL0     H91922   9.547   7.332   9.147 -1.2935  0.0040  0.8117
  681MOL0     H91923   9.570   7.202   9.380  0.6729 -2.3107  2.8027
  681MOL0     H91924   9.447   7.156   9.478 -1.3628  1.5061  0.5932
  681MOL0     H91925   9.484   7.428   9.324  0.8730  0.6227  1.1751
  681MOL0     H91926   9.415   7.395   9.491 -0.2678 -0.5843 -0.1660
  681MOL0     H91927   9.208   7.358   9.415 -0.0989 -0.7449 -1.1414
  681MOL0     H91928   9.252   7.311   9.253 -0.9018  1.9884 -0.4734
  681MOL0     H91929   9.218   7.593   9.359 -1.6458 -0.5178  0.4758
  681MOL0     H91930   9.303   7.563   9.215 -2.2195  2.3580 -0.5465
  681MOL0     H91931   8.909   7.515   9.097  0.4584  0.6785 -1.2815
  681MOL0     H91932   9.373   6.928   9.133  2.8003 -2.6321  1.0058
  681MOL0     H91933   9.414   6.902   8.792 -1.0231 -1.3859  0.0511
  681MOL0     H91934   9.554   6.815   8.866  0.5305  0.9530 -1.2825
  681MOL0     H91935   9.393   6.817   8.943 -2.0212  1.4981 -1.3497
  682MOL0     O91936   2.177   2.003   1.853 -0.0039 -0.4377  0.3837
  682MOL0     C91937   2.085   2.001   1.930 -1.0243  0.5302  1.3347
  682MOL0     O91938   2.070   1.911   2.034 -0.6255 -0.6169 -0.0698
  682MOL0     C91939   2.131   1.789   2.018 -0.0924 -0.7484 -0.1886
  682MOL0     C91940   2.267   1.770   2.033 -0.5605  0.2773  0.4796
  682MOL0     C91941   2.322   1.644   2.019 -0.3224  0.8623 -0.4997
  682MOL0     C91942   2.248   1.538   1.995  0.3341  0.2188 -0.0542
  682MOL0     O91943   2.291   1.408   1.969 -0.0442 -0.1402  0.4359
  682MOL0     C91944   2.389   1.398   1.855 -0.8656 -0.2108  0.2281
  682MOL0     C91945   2.422   1.246   1.812 -0.7210 -0.3226 -0.2836
  682MOL0     C91946   2.534   1.234   1.709  0.5317  1.1179  1.5005
  682MOL0     C91947   2.475   1.216   1.565 -0.0247  1.0582  0.3176
  682MOL0     C91948   2.569   1.158   1.463 -0.0106  0.0408 -0.5339
  682MOL0     C91949   2.692   1.250   1.447 -0.7822  0.2188 -1.0133
  682MOL0     C91950   2.653   1.378   1.368  0.1190  0.0273  0.0409
  682MOL0     C91951   2.779   1.446   1.310  0.9308  0.4235  0.1008
  682MOL0     N91952   2.884   1.491   1.408 -0.8229  0.2405  0.8463
  682MOL0     C91953   2.873   1.545   1.530 -0.2603  1.0075 -0.1026
  682MOL0     C91954   2.992   1.604   1.572  0.4509  0.0267  0.0857
  682MOL0     C91955   3.025   1.659   1.702 -0.4625  0.6040  0.3569
  682MOL0     C91956   3.000   1.811   1.710 -0.4414 -0.1640 -0.1812
  682MOL0     C91957   3.054   1.886   1.841 -0.4168  0.1002  0.0652
  682MOL0     C91958   3.047   1.801   1.978 -1.0809 -0.0176  0.2715
  682MOL0     O91959   2.907   1.776   2.001 -1.0352  0.3134  0.7114
  682MOL0     C91960   2.879   1.671   2.085 -0.9094  0.4831  0.5974
  682MOL0     C91961   2.820   1.554   2.035 -0.4795  0.0721  0.6782
  682MOL0     C91962   2.783   1.446   2.106  0.4105 -0.3321 -0.4417
  682MOL0     C91963   2.817   1.442   2.244  0.1358 -0.3089 -0.1319
  682MOL0     C91964   2.799   1.313   2.334 -0.4317 -0.2692 -0.2889
  682MOL0     O91965   2.766   1.200   2.269  0.2350 -0.1486 -0.8824
  682MOL0     C91966   2.751   1.091   2.342  0.7741  0.7661  0.0161
  682MOL0     C91967   2.819   0.975   2.299  0.2382 -0.4428 -0.6113
  682MOL0     C91968   2.802   0.853   2.368  0.6318 -0.2328  0.0513
  682MOL0     C91969   2.717   0.839   2.469  0.1121  0.6232  0.2445
  682MOL0     O91970   2.688   0.734   2.557 -0.1053  0.7983 -0.2865
  682MOL0     C91971   2.769   0.615   2.531  0.0600  0.1997  0.4682
  682MOL0     C91972   2.699   0.498   2.592  0.3730  0.0995 -0.7609
  682MOL0     C91973   2.566   0.470   2.525  1.0449  0.1344  0.5200
  682MOL0     C91974   2.464   0.381   2.601  0.4732 -0.0905  0.3462
  682MOL0     C91975   2.527   0.251   2.655 -0.0341  0.3651 -0.2117
  682MOL0     C91976   2.449   0.200   2.778 -0.6650 -0.3034  0.5260
  682MOL0     C91977   2.303   0.158   2.754  0.5424  0.6027 -0.4194
  682MOL0     C91978   2.230   0.104   2.882  0.1114 -0.0486  0.4551
  682MOL0    Cl91979   2.147   0.236   2.956 -0.1846  0.2044  0.3960
  682MOL0     C91980   2.646   0.954   2.514  0.9908 -0.6485 -0.2002
  682MOL0     C91981   2.669   1.081   2.459  0.1601  0.5422 -0.0263
  682MOL0     O91982   2.823   1.327   2.450 -0.0560 -0.1674 -0.1185
  682MOL0     C91983   2.871   1.554   2.299 -0.5484  0.3700  1.0399
  682MOL0     C91984   2.906   1.666   2.221 -0.3934 -0.4784 -0.0627
  682MOL0     N91985   3.082   1.582   1.472 -0.1437  0.0668  0.0657
  682MOL0     N91986   3.017   1.510   1.380 -0.2017 -0.2473 -0.3398
  682MOL0     C91987   2.104   1.549   1.986  0.6296  0.0598  0.4902
  682MOL0     C91988   2.049   1.677   2.005 -0.1964  0.4493 -0.7914
  682MOL0     C91989   1.971   2.089   1.897 -0.5052  0.2747  0.4366
  682MOL0     C91990   1.958   2.129   1.759  1.0002  1.5359 -0.4013
  682MOL0     C91991   1.856   2.213   1.719 -0.2680 -0.2021  0.2003
  682MOL0     C91992   1.762   2.267   1.812 -0.5159 -0.8723  1.1889
  682MOL0     O91993   1.662   2.362   1.782 -0.2482  0.1667  0.1557
  682MOL0     C91994   1.664   2.430   1.656 -0.6863 -0.1106  0.6902
  682MOL0     C91995   1.773   2.532   1.635 -0.2271 -0.4864  0.3215
  682MOL0     C91996   1.814   2.556   1.489 -0.1999  0.8000 -0.2250
  682MOL0     C91997   1.743   2.670   1.415  0.3350 -0.0105  0.7721
  682MOL0     C91998   1.792   2.811   1.442  0.7198 -0.1135 -1.0433
  682MOL0     C91999   1.842   2.922   1.468  0.2719 -0.3457 -0.9567
  682MOL0     C92000   1.775   2.222   1.941 -0.0284  0.7167  0.5834
  682MOL0     C92001   1.873   2.135   1.986  0.4271 -0.0370 -0.4838
  682MOL0     C92002   1.890   2.127   2.133 -0.5006  0.1897 -0.3568
  682MOL0     H92003   2.329   1.855   2.057  1.0652 -0.1344 -1.9382
  682MOL0     H92004   2.429   1.637   2.030 -0.3091  0.4425 -0.8853
  682MOL0     H92005   2.341   1.442   1.768 -1.0671 -1.0080 -0.0712
  682MOL0     H92006   2.482   1.455   1.861  0.6975 -2.5756 -0.0565
  682MOL0     H92007   2.334   1.195   1.772 -0.5171 -1.8159  1.0473
  682MOL0     H92008   2.431   1.187   1.903 -1.6546  1.1527  0.8121
  682MOL0     H92009   2.585   1.141   1.737 -2.7041 -0.9174  1.1442
  682MOL0     H92010   2.599   1.322   1.704  1.8028  0.1289 -0.9086
  682MOL0     H92011   2.383   1.157   1.563 -0.7732  2.1348  1.4112
  682MOL0     H92012   2.450   1.314   1.522  1.8478  1.6850  0.5634
  682MOL0     H92013   2.598   1.058   1.497  1.1600  0.9058  1.1476
  682MOL0     H92014   2.514   1.147   1.369 -2.1818 -2.7577  0.9091
  682MOL0     H92015   2.753   1.276   1.534 -2.5009  1.9633 -0.2650
  682MOL0     H92016   2.762   1.189   1.389 -0.2110  0.2071 -0.3329
  682MOL0     H92017   2.606   1.451   1.435  1.6456  3.5630 -2.4167
  682MOL0     H92018   2.589   1.357   1.283  1.1306 -0.1254 -0.7069
  682MOL0     H92019   2.824   1.374   1.241 -0.4559  0.5157 -0.9409
  682MOL0     H92020   2.759   1.529   1.243  2.0284  2.3972  2.0810
  682MOL0     H92021   2.783   1.540   1.592 -1.0227 -0.0919 -1.2462
  682MOL0     H92022   2.971   1.596   1.773  1.3552 -3.3316 -1.4525
  682MOL0     H92023   3.131   1.637   1.718 -0.7041 -0.2161  0.9030
  682MOL0     H92024   3.059   1.851   1.627  0.4472  2.2549  1.4951
  682MOL0     H92025   2.895   1.841   1.706 -0.7926 -0.8601  2.0501
  682MOL0     H92026   3.024   1.990   1.858 -1.4472  0.0561 -1.2808
  682MOL0     H92027   3.158   1.908   1.818  0.0195  0.3173  2.0695
  682MOL0     H92028   3.097   1.852   2.061  0.2149  1.6378 -1.4249
  682MOL0     H92029   3.100   1.709   1.955 -3.0056 -0.3966 -3.5789
  682MOL0     H92030   2.786   1.556   1.932  0.3244  1.3958  0.4131
  682MOL0     H92031   2.742   1.358   2.058  0.4281 -0.1135 -0.8628
  682MOL0     H92032   2.899   0.986   2.226 -0.2909  2.9553 -0.8737
  682MOL0     H92033   2.870   0.774   2.336  0.7440  0.4120 -1.4105
  682MOL0     H92034   2.769   0.606   2.422 -2.7096  1.8135  0.2287
  682MOL0     H92035   2.873   0.631   2.558  0.0724  6.0639 -1.5673
  682MOL0     H92036   2.765   0.412   2.581  3.0265  1.9500 -0.3619
  682MOL0     H92037   2.693   0.526   2.698  3.6223 -0.4542 -0.3181
  682MOL0     H92038   2.510   0.559   2.493 -0.8203 -1.5082 -1.0799
  682MOL0     H92039   2.588   0.415   2.433 -1.3464  0.8443 -0.5630
  682MOL0     H92040   2.388   0.349   2.529  2.8776 -2.7702 -1.2208
  682MOL0     H92041   2.429   0.437   2.689  2.1087  0.3478  0.7544
  682MOL0     H92042   2.627   0.266   2.696 -0.9021 -0.8707  2.5391
  682MOL0     H92043   2.540   0.172   2.581  0.9239 -1.2395  1.5865
  682MOL0     H92044   2.488   0.107   2.820 -4.7030 -1.9788  1.0939
  682MOL0     H92045   2.460   0.278   2.854  2.4813 -1.9227  1.9292
  682MOL0     H92046   2.312   0.078   2.680  1.4680  0.6678 -0.3952
  682MOL0     H92047   2.250   0.244   2.712 -1.6645  0.3259  1.5877
  682MOL0     H92048   2.152   0.031   2.859  0.4690 -0.3351  0.1285
  682MOL0     H92049   2.295   0.059   2.957 -2.4277 -1.8868  1.6661
  682MOL0     H92050   2.573   0.924   2.588  1.1432 -2.7008 -0.8345
  682MOL0     H92051   2.614   1.169   2.489 -0.4063  0.0319  0.4664
  682MOL0     H92052   2.914   1.547   2.398  1.3883 -0.3419  0.2157
  682MOL0     H92053   2.959   1.743   2.275 -1.6348 -0.9588  1.9506
  682MOL0     H92054   2.047   1.457   1.974  0.6232 -0.3792  3.2593
  682MOL0     H92055   1.941   1.686   2.010 -0.5066 -2.6059 -0.0450
  682MOL0     H92056   2.023   2.088   1.682  4.7981  1.4448  2.5474
  682MOL0     H92057   1.863   2.244   1.615 -1.0067  0.6899  0.4002
  682MOL0     H92058   1.567   2.481   1.655  0.5026  2.5341  3.6376
  682MOL0     H92059   1.661   2.354   1.577 -0.0606 -0.3958  0.9394
  682MOL0     H92060   1.859   2.488   1.686  0.2562  0.2562  0.1615
  682MOL0     H92061   1.742   2.623   1.687  2.3734 -1.4994  4.0452
  682MOL0     H92062   1.789   2.465   1.434  2.1813 -0.2522  0.3428
  682MOL0     H92063   1.922   2.571   1.487 -0.4042  2.3508 -1.6034
  682MOL0     H92064   1.755   2.637   1.311 -1.9140  0.2578  0.3634
  682MOL0     H92065   1.637   2.676   1.441 -0.2385 -0.6289 -1.2609
  682MOL0     H92066   1.877   3.023   1.468 -1.1037  0.1692 -2.2243
  682MOL0     H92067   1.696   2.250   2.010 -1.8239 -2.0337 -0.1873
  682MOL0     H92068   1.988   2.171   2.152 -0.4756 -0.1386  0.2957
  682MOL0     H92069   1.811   2.185   2.182  0.5158  1.9003 -0.6306
  682MOL0     H92070   1.885   2.025   2.170  2.5891  0.7565  1.9955
  683MOL0     O92071   3.811   2.647   2.634 -0.0898 -0.4604 -0.4631
  683MOL0     C92072   3.801   2.714   2.736  0.6174 -1.1620 -0.1451
  683MOL0     O92073   3.900   2.795   2.790  0.3180 -0.7459 -0.0582
  683MOL0     C92074   4.035   2.777   2.764  0.1233 -0.3547 -0.5103
  683MOL0     C92075   4.101   2.672   2.697  0.4167 -0.2238 -0.5601
  683MOL0     C92076   4.237   2.665   2.714 -0.7787 -0.0940  0.0515
  683MOL0     C92077   4.315   2.763   2.773  0.3865  0.3041 -0.3799
  683MOL0     O92078   4.452   2.752   2.785 -0.6325  1.1768  0.4393
  683MOL0     C92079   4.512   2.742   2.654 -0.2855  0.3279  0.2899
  683MOL0     C92080   4.654   2.792   2.672  0.3565  0.6522  0.0216
  683MOL0     C92081   4.737   2.748   2.548 -1.2229  0.8088 -0.0868
  683MOL0     C92082   4.885   2.709   2.577 -0.1102  0.6445 -0.6152
  683MOL0     C92083   4.951   2.639   2.462  0.0176 -0.3943  0.0557
  683MOL0     C92084   5.100   2.638   2.490  0.6778 -0.2001 -1.1447
  683MOL0     C92085   5.166   2.574   2.370 -0.1609  0.0737 -0.3797
  683MOL0     C92086   5.315   2.547   2.392 -0.5967  0.4346 -0.2815
  683MOL0     N92087   5.394   2.663   2.438  0.5605  0.2949  0.6111
  683MOL0     C92088   5.396   2.785   2.371 -0.6899  1.3423 -0.6561
  683MOL0     C92089   5.487   2.860   2.448  0.4959  0.2727  0.5102
  683MOL0     C92090   5.539   2.987   2.398  0.3089  0.2040 -0.6160
  683MOL0     C92091   5.595   2.975   2.255  0.6146  0.0476  0.4099
  683MOL0     C92092   5.734   2.898   2.262 -0.6464  0.6084  1.4255
  683MOL0     C92093   5.739   2.796   2.145 -0.0334 -0.6768 -0.2015
  683MOL0     O92094   5.640   2.693   2.154  0.0747  0.7897 -0.6306
  683MOL0     C92095   5.606   2.622   2.049  0.4033 -0.5830  0.2622
  683MOL0     C92096   5.696   2.562   1.955 -0.5853  0.9745  0.5870
  683MOL0     C92097   5.649   2.489   1.851 -0.6061 -0.8442  1.6959
  683MOL0     C92098   5.515   2.469   1.830 -0.4046 -0.1735 -0.1313
  683MOL0     C92099   5.476   2.391   1.715  0.0508  0.6735  0.2193
  683MOL0     O92100   5.356   2.323   1.730  0.2825 -0.4308 -0.2745
  683MOL0     C92101   5.307   2.238   1.631 -0.8253 -0.5063 -0.5268
  683MOL0     C92102   5.362   2.111   1.603  0.8969 -0.2325 -1.0439
  683MOL0     C92103   5.310   2.029   1.496  0.2610 -0.4253  0.2939
  683MOL0     C92104   5.203   2.078   1.423 -0.0498  0.1765 -0.6268
  683MOL0     O92105   5.148   2.030   1.308 -0.2877 -0.6703  0.1224
  683MOL0     C92106   5.206   1.908   1.250 -0.0958 -0.0421 -1.0104
  683MOL0     C92107   5.121   1.868   1.132  0.1156 -0.0294  0.4334
  683MOL0     C92108   5.184   1.749   1.058  0.3680  0.3321  0.3137
  683MOL0     C92109   5.172   1.738   0.900 -0.7206 -0.8800 -0.5174
  683MOL0     C92110   5.262   1.635   0.839 -0.2416 -0.3033  0.4017
  683MOL0     C92111   5.242   1.628   0.687 -0.0888 -0.0271  0.8723
  683MOL0     C92112   5.303   1.497   0.626 -0.4137 -0.5605 -1.0385
  683MOL0     C92113   5.269   1.478   0.485  0.5462  0.6533 -0.1791
  683MOL0    Cl92114   5.099   1.461   0.467  0.1353  0.3289 -0.2821
  683MOL0     C92115   5.150   2.209   1.449 -0.7050  0.0570 -0.7252
  683MOL0     C92116   5.211   2.286   1.548 -0.1483  0.0795  0.1185
  683MOL0     O92117   5.543   2.384   1.611  0.4681 -0.3055 -0.3514
  683MOL0     C92118   5.413   2.521   1.924 -0.1200  0.0413  1.0128
  683MOL0     C92119   5.465   2.597   2.029  0.5782  0.4108 -0.0267
  683MOL0     N92120   5.527   2.778   2.556  0.9462 -0.5480  0.3509
  683MOL0     N92121   5.472   2.659   2.544 -0.2671  0.9737 -0.4816
  683MOL0     C92122   4.244   2.861   2.841 -0.6992  0.2612  0.4874
  683MOL0     C92123   4.107   2.877   2.831 -0.4009 -0.0552  1.6171
  683MOL0     C92124   3.670   2.709   2.800  0.8235  0.0818 -0.0971
  683MOL0     C92125   3.557   2.681   2.720  0.3454 -0.2249 -0.1934
  683MOL0     C92126   3.426   2.667   2.774 -0.1591 -0.8532  0.5398
  683MOL0     C92127   3.408   2.686   2.908 -0.6025  0.4996 -1.0183
  683MOL0     O92128   3.282   2.668   2.972  0.1884 -0.1811 -0.1002
  683MOL0     C92129   3.169   2.613   2.905 -0.2954  0.6109 -0.4986
  683MOL0     C92130   3.107   2.685   2.784  0.0173  0.0554  0.6690
  683MOL0     C92131   3.124   2.840   2.787  0.5230  0.0593 -0.0924
  683MOL0     C92132   3.049   2.925   2.902 -0.0459 -0.3128  0.1522
  683MOL0     C92133   2.914   2.870   2.935  0.4711 -0.3476  0.2888
  683MOL0     C92134   2.798   2.842   2.960  0.1807 -0.0834  0.4209
  683MOL0     C92135   3.517   2.725   2.992 -0.1895 -0.1518 -0.3175
  683MOL0     C92136   3.650   2.733   2.936 -0.3159  0.8879 -0.3133
  683MOL0     C92137   3.760   2.770   3.027 -1.0036 -0.4197  0.6390
  683MOL0     H92138   4.049   2.585   2.659  1.8015 -2.0593  1.4661
  683MOL0     H92139   4.297   2.589   2.666 -0.1111  1.7592 -2.2370
  683MOL0     H92140   4.512   2.634   2.636  3.7545  0.3409 -0.6625
  683MOL0     H92141   4.463   2.802   2.576  2.0482  1.8472 -0.1134
  683MOL0     H92142   4.688   2.754   2.768  1.4831  0.0782 -0.5792
  683MOL0     H92143   4.652   2.898   2.697 -1.9539  0.7225 -0.2518
  683MOL0     H92144   4.735   2.822   2.467 -0.6171  1.9316  0.9039
  683MOL0     H92145   4.687   2.659   2.507 -2.0811  1.0855  0.3514
  683MOL0     H92146   4.940   2.801   2.597  0.3121  0.3268 -0.2856
  683MOL0     H92147   4.893   2.656   2.673  0.5855  0.5488 -0.7202
  683MOL0     H92148   4.922   2.535   2.439  1.5304 -0.7771 -0.2423
  683MOL0     H92149   4.938   2.703   2.374 -1.7371 -0.0045  0.5713
  683MOL0     H92150   5.142   2.737   2.512  1.5565 -1.0495  1.4906
  683MOL0     H92151   5.124   2.580   2.580 -1.1476 -3.4147 -2.6074
  683MOL0     H92152   5.146   2.642   2.287 -1.3940  2.1347  1.4884
  683MOL0     H92153   5.121   2.475   2.358  2.7141 -1.7987  2.5544
  683MOL0     H92154   5.314   2.479   2.478 -4.1009 -1.2382 -1.4636
  683MOL0     H92155   5.366   2.507   2.304  2.8249 -0.3404  1.8704
  683MOL0     H92156   5.338   2.805   2.281 -2.1408 -1.3908 -0.4159
  683MOL0     H92157   5.454   3.056   2.408  0.9384  0.6879  2.4635
  683MOL0     H92158   5.601   3.044   2.468  0.8219 -2.9644  1.7221
  683MOL0     H92159   5.512   2.939   2.193 -0.4998  0.9275  1.3320
  683MOL0     H92160   5.624   3.073   2.217  1.9954 -1.5043 -2.9332
  683MOL0     H92161   5.764   2.845   2.353  3.1467  0.0647  0.0429
  683MOL0     H92162   5.816   2.971   2.257 -0.8857  0.8593  1.1018
  683MOL0     H92163   5.839   2.755   2.131  0.0848  0.5046 -3.9770
  683MOL0     H92164   5.709   2.855   2.057 -0.6057 -0.8551 -0.1270
  683MOL0     H92165   5.801   2.587   1.963 -0.5511  0.6254  1.3071
  683MOL0     H92166   5.721   2.451   1.779 -0.9567 -2.6537  2.2339
  683MOL0     H92167   5.426   2.071   1.681  0.8168  1.6232  0.0296
  683MOL0     H92168   5.349   1.928   1.504 -1.8836 -1.3661 -0.2366
  683MOL0     H92169   5.308   1.937   1.224  0.8138  1.8481  3.6139
  683MOL0     H92170   5.213   1.827   1.323 -0.1517  0.1056 -0.8392
  683MOL0     H92171   5.022   1.840   1.168 -0.1955  0.7952  0.2502
  683MOL0     H92172   5.107   1.967   1.087  0.6699  1.8186  3.9680
  683MOL0     H92173   5.292   1.757   1.077  0.4863  2.5264 -0.8986
  683MOL0     H92174   5.156   1.649   1.092  1.9114 -0.7655 -1.3918
  683MOL0     H92175   5.211   1.838   0.877 -0.8294 -0.4854  0.9477
  683MOL0     H92176   5.066   1.720   0.879 -0.9506 -2.5048  1.7495
  683MOL0     H92177   5.244   1.537   0.885  0.5921 -0.5540  0.2134
  683MOL0     H92178   5.361   1.671   0.870 -1.3640  1.2438  2.4526
  683MOL0     H92179   5.134   1.630   0.671  0.1476  1.1169 -0.8435
  683MOL0     H92180   5.293   1.713   0.639  0.4503 -0.0685  1.3561
  683MOL0     H92181   5.266   1.413   0.686 -0.7171 -0.3818 -0.9720
  683MOL0     H92182   5.412   1.487   0.638 -0.1184  1.4436 -1.6374
  683MOL0     H92183   5.310   1.561   0.428  3.4036  0.3504  1.2852
  683MOL0     H92184   5.323   1.385   0.465  1.9034  1.5608 -0.8241
  683MOL0     H92185   5.071   2.260   1.394 -3.4047 -3.9424 -0.9645
  683MOL0     H92186   5.170   2.385   1.566 -3.3916 -1.7579  5.0194
  683MOL0     H92187   5.306   2.511   1.912 -0.2835  1.9574  0.4901
  683MOL0     H92188   5.393   2.636   2.100  0.1476 -1.3268  0.5468
  683MOL0     H92189   4.292   2.940   2.898 -3.8639  0.8651  2.5945
  683MOL0     H92190   4.076   2.960   2.893  1.8229 -1.1534  4.4148
  683MOL0     H92191   3.567   2.668   2.613  0.5689 -1.3237 -0.0581
  683MOL0     H92192   3.348   2.648   2.701  2.7903 -2.6038 -2.4163
  683MOL0     H92193   3.094   2.605   2.984  1.3035 -1.5489  0.9462
  683MOL0     H92194   3.184   2.508   2.879  1.5167  0.2707  1.6030
  683MOL0     H92195   3.000   2.666   2.796 -0.2817  1.6094  0.6348
  683MOL0     H92196   3.143   2.640   2.691 -2.5036 -1.6274  0.4275
  683MOL0     H92197   3.087   2.887   2.696 -0.9173  1.0325  0.9587
  683MOL0     H92198   3.231   2.862   2.783  0.9482 -1.4484  1.6198
  683MOL0     H92199   3.117   2.933   2.987 -0.1123  2.7779  0.0339
  683MOL0     H92200   3.026   3.027   2.871 -0.2004  0.3475  2.2970
  683MOL0     H92201   2.695   2.822   2.983  0.4269  2.7299  5.4417
  683MOL0     H92202   3.491   2.759   3.092  0.7644  0.2523 -0.2035
  683MOL0     H92203   3.725   2.814   3.120  0.6125  2.4633  0.0127
  683MOL0     H92204   3.823   2.683   3.045  1.7036  1.9341  3.6819
  683MOL0     H92205   3.819   2.855   2.991  0.0517 -0.6898  1.6835
  684MOL0     O92206   1.111  10.444   7.844  0.2109 -0.6868 -0.8047
  684MOL0     C92207   1.147  10.330   7.854 -1.1477 -0.4099 -0.3333
  684MOL0     O92208   1.074  10.223   7.821  1.3894  0.2401  0.3486
  684MOL0     C92209   0.937  10.229   7.806  0.7085  0.3231  0.0800
  684MOL0     C92210   0.890  10.252   7.673  0.6301  0.2576 -0.6317
  684MOL0     C92211   0.749  10.253   7.656  0.4066  1.2471  0.2553
  684MOL0     C92212   0.666  10.251   7.769  0.6261  0.3955  0.9615
  684MOL0     O92213   0.530  10.255   7.762 -0.2577  0.2342  0.6317
  684MOL0     C92214   0.487  10.355   7.661 -0.3564 -0.6845 -0.0747
  684MOL0     C92215   0.338  10.390   7.687 -1.5170  0.1233  0.4502
  684MOL0     C92216   0.232  10.277   7.649 -0.1274 -0.5941 -0.5049
  684MOL0     C92217   0.127  10.327   7.544  0.1610  0.0688 -0.4404
  684MOL0     C92218   0.187  10.295   7.406 -0.1783 -0.2725 -0.0753
  684MOL0     C92219   0.101  10.338   7.291 -0.4560 -0.8148  0.0862
  684MOL0     C92220   0.150  10.273   7.160 -0.2340 -0.6933  0.4583
  684MOL0     C92221   0.045  10.293   7.049 -0.5642 -0.2115 -0.5803
  684MOL0     N92222   0.121  10.292   6.924 -0.7066 -0.4731 -0.4949
  684MOL0     C92223   0.082  10.245   6.799  0.2243 -0.5721  0.4477
  684MOL0     C92224   0.161  10.311   6.715 -0.9743  0.2830  0.0789
  684MOL0     C92225   0.176  10.293   6.568 -0.2351  0.1525 -0.6012
  684MOL0     C92226   0.187  10.435   6.514 -0.2971 -0.0652  0.0392
  684MOL0     C92227   0.176  10.433   6.364 -1.2325 -0.3709  0.0311
  684MOL0     C92228   0.224  10.566   6.294 -0.1138  0.2473  0.8328
  684MOL0     O92229   0.120  10.662   6.304 -0.0675 -1.0792 -0.5494
  684MOL0     C92230   0.148  10.788   6.261 -0.3197  0.2231  1.1282
  684MOL0     C92231   0.264  10.836   6.198 -0.3936 -0.7541  0.1477
  684MOL0     C92232   0.283  10.972   6.169  0.2765  0.5583 -1.0535
  684MOL0     C92233   0.195  11.068   6.212  0.6122  0.8354  0.3634
  684MOL0     C92234   0.214  11.213   6.176 -0.3951 -0.5718  1.5744
  684MOL0     O92235   0.327  11.230   6.098 -0.3954  0.4642 -0.1733
  684MOL0     C92236   0.370  11.352   6.049 -0.6098  0.4103 -1.0892
  684MOL0     C92237   0.358  11.472   6.112 -0.5891 -1.1961 -0.5067
  684MOL0     C92238   0.418  11.591   6.059  0.7462  0.4748  0.3351
  684MOL0     C92239   0.507  11.588   5.953  0.6493  0.1003  1.0180
  684MOL0     O92240   0.576  11.687   5.888 -0.0064 -0.2518 -0.1073
  684MOL0     C92241   0.584  11.811   5.950 -0.6461 -0.1866  0.2495
  684MOL0     C92242   0.667  11.901   5.858 -0.0126  0.1686 -0.2425
  684MOL0     C92243   0.651  12.044   5.921 -0.4803  0.1720 -0.4630
  684MOL0     C92244   0.724  12.057   6.058  0.2219  0.0427 -0.2661
  684MOL0     C92245   0.739  12.199   6.116 -0.4488  0.5131  0.3990
  684MOL0     C92246   0.613  12.274   6.134 -0.5941 -0.4055  0.3692
  684MOL0     C92247   0.520  12.222   6.258  0.5215  0.2966 -0.7658
  684MOL0     C92248   0.391  12.317   6.257  0.2189  0.6885 -0.2539
  684MOL0    Cl92249   0.299  12.303   6.413 -0.0701  0.3975  0.5491
  684MOL0     C92250   0.510  11.464   5.879 -1.0738 -0.3225  0.4073
  684MOL0     C92251   0.449  11.351   5.936  0.1980  0.1986  0.4261
  684MOL0     O92252   0.134  11.302   6.215 -0.3184 -0.0294  0.9756
  684MOL0     C92253   0.078  11.018   6.274  0.0885  0.1755 -0.3807
  684MOL0     C92254   0.052  10.879   6.286  0.0934 -1.1020 -0.1921
  684MOL0     N92255   0.261  10.378   6.783 -1.1885 -0.3092 -0.4025
  684MOL0     N92256   0.233  10.365   6.905  0.0317 -1.3294  0.4002
  684MOL0     C92257   0.719  10.225   7.896 -0.3682 -0.2706 -0.5127
  684MOL0     C92258   0.853  10.207   7.909 -0.4680 -0.3505 -0.0129
  684MOL0     C92259   1.287  10.303   7.895 -0.0476  0.5788  0.4045
  684MOL0     C92260   1.307  10.273   8.028 -0.4729  0.0084 -0.5058
  684MOL0     C92261   1.432  10.241   8.081 -0.1106 -1.3144  0.7909
  684MOL0     C92262   1.535  10.214   7.998  0.0393  0.6254  0.1875
  684MOL0     O92263   1.650  10.172   8.055  0.0152  0.3740  0.1018
  684MOL0     C92264   1.754  10.131   7.971  0.5163  0.2525 -0.7804
  684MOL0     C92265   1.850  10.051   8.056  0.6133 -0.2854 -0.2893
  684MOL0     C92266   1.790   9.921   8.111  0.0624  0.5163 -0.4490
  684MOL0     C92267   1.896   9.814   8.118  0.0653 -0.8222 -0.9576
  684MOL0     C92268   1.832   9.687   8.147  0.4318 -0.2226  0.0872
  684MOL0     C92269   1.797   9.572   8.167 -0.7420 -0.2363  0.5315
  684MOL0     C92270   1.521  10.249   7.859 -0.4083 -0.0902 -0.0420
  684MOL0     C92271   1.396  10.275   7.804  0.4639 -0.8178  0.1470
  684MOL0     C92272   1.381  10.288   7.658 -0.1061  0.0054 -0.2466
  684MOL0     H92273   0.965  10.269   7.596  1.1521  0.6480 -0.0433
  684MOL0     H92274   0.708  10.266   7.557 -1.5068  3.9111  1.2801
  684MOL0     H92275   0.544  10.446   7.677  0.1125 -1.4308  2.9864
  684MOL0     H92276   0.506  10.332   7.555 -0.3430  0.1393 -0.2587
  684MOL0     H92277   0.311  10.478   7.629 -5.4028 -1.4680 -0.5347
  684MOL0     H92278   0.316  10.422   7.789 -0.6356 -0.3960  0.8124
  684MOL0     H92279   0.179  10.256   7.742 -0.5676 -3.2089 -1.2405
  684MOL0     H92280   0.280  10.183   7.618  0.7651 -0.6914  1.0376
  684MOL0     H92281   0.036  10.268   7.558  0.7458 -0.3998  1.7003
  684MOL0     H92282   0.105  10.434   7.551  1.2245  0.3002 -0.5012
  684MOL0     H92283   0.278  10.356   7.401 -0.0386 -0.5715 -1.6909
  684MOL0     H92284   0.216  10.192   7.384 -1.5428 -0.6296 -0.2508
  684MOL0     H92285  -0.001  10.304   7.309  0.0551 -2.6344 -0.2461
  684MOL0     H92286   0.091  10.446   7.279 -2.3381 -1.0849 -1.2594
  684MOL0     H92287   0.150  10.164   7.175 -0.9030 -0.8252 -0.3794
  684MOL0     H92288   0.254  10.298   7.137 -0.1352 -3.1357 -2.3765
  684MOL0     H92289  -0.021  10.206   7.043 -1.6715  0.3505  2.2463
  684MOL0     H92290  -0.006  10.389   7.060 -3.2726 -1.5698 -0.3803
  684MOL0     H92291   0.002  10.175   6.781  2.0702 -2.0024 -3.5005
  684MOL0     H92292   0.260  10.228   6.539 -0.5244 -2.0118  2.8026
  684MOL0     H92293   0.082  10.244   6.542 -0.3496  0.7629 -1.4004
  684MOL0     H92294   0.114  10.505   6.556 -1.7968 -0.8232 -1.2050
  684MOL0     H92295   0.282  10.481   6.542 -1.2265  2.4363 -0.6453
  684MOL0     H92296   0.070  10.421   6.338 -1.1603  0.5730 -0.7432
  684MOL0     H92297   0.241  10.355   6.322  0.7022  2.3241 -2.4012
  684MOL0     H92298   0.265  10.550   6.194  2.5963  0.6107  1.7972
  684MOL0     H92299   0.316  10.579   6.351  0.3036 -3.7006  1.3371
  684MOL0     H92300   0.342  10.770   6.161  1.2053  0.6594  0.8401
  684MOL0     H92301   0.372  11.000   6.113  1.5469 -0.5809  0.3067
  684MOL0     H92302   0.315  11.466   6.211  0.8541  0.5691  0.2902
  684MOL0     H92303   0.395  11.678   6.119  0.1694  0.0577  0.7258
  684MOL0     H92304   0.482  11.847   5.963 -2.2658 -3.7301 -1.2870
  684MOL0     H92305   0.654  11.789   6.032  1.2116 -0.7899 -1.4198
  684MOL0     H92306   0.767  11.858   5.848  0.6902  2.0288 -1.7047
  684MOL0     H92307   0.615  11.905   5.762 -2.0306 -0.0271  0.7721
  684MOL0     H92308   0.682  12.115   5.843  0.2499 -2.0819 -2.3367
  684MOL0     H92309   0.548  12.070   5.949 -0.4640 -0.1941 -0.0653
  684MOL0     H92310   0.824  12.013   6.059  1.8334  3.4347  0.1933
  684MOL0     H92311   0.657  12.013   6.133 -0.9351  1.6752 -0.2734
  684MOL0     H92312   0.802  12.245   6.040  0.2365 -4.5890 -2.6092
  684MOL0     H92313   0.788  12.199   6.214 -0.5312  0.5298  0.4408
  684MOL0     H92314   0.626  12.381   6.152  1.2099 -0.7060  1.0951
  684MOL0     H92315   0.551  12.259   6.045 -1.7875 -0.9606  1.2800
  684MOL0     H92316   0.561  12.236   6.359  1.5825 -3.0256 -0.6239
  684MOL0     H92317   0.486  12.119   6.251 -0.2922  0.5989 -1.3214
  684MOL0     H92318   0.429  12.419   6.249  0.1918  0.7468  0.3735
  684MOL0     H92319   0.325  12.301   6.171  0.8749  1.2768 -0.8857
  684MOL0     H92320   0.591  11.458   5.807 -0.8337  1.3157  0.4946
  684MOL0     H92321   0.465  11.253   5.893  2.0888  0.1136  1.2122
  684MOL0     H92322  -0.000  11.087   6.305 -0.6928 -1.2265  0.9616
  684MOL0     H92323  -0.040  10.840   6.329  1.9686 -2.1753  3.2303
  684MOL0     H92324   0.654  10.208   7.981 -1.1831  0.7878 -0.9069
  684MOL0     H92325   0.900  10.196   8.006  2.2229  0.2846 -1.1542
  684MOL0     H92326   1.224  10.288   8.096  1.0328  2.1485  1.0086
  684MOL0     H92327   1.449  10.228   8.187 -2.0281 -0.8729  1.1817
  684MOL0     H92328   1.813  10.216   7.934  2.9068 -0.5051  1.0185
  684MOL0     H92329   1.704  10.081   7.887  1.7489 -0.7833 -0.9176
  684MOL0     H92330   1.880  10.115   8.139 -2.9476  2.1566 -0.6536
  684MOL0     H92331   1.939  10.034   7.995 -0.3626 -1.0593 -1.5549
  684MOL0     H92332   1.721   9.874   8.040  0.2183  0.0994 -0.3304
  684MOL0     H92333   1.731   9.944   8.200 -2.5135  0.4240 -2.0121
  684MOL0     H92334   1.955   9.807   8.026  0.1936 -0.3037 -0.9181
  684MOL0     H92335   1.967   9.839   8.197  0.7354  0.2128 -1.8560
  684MOL0     H92336   1.807   9.466   8.177  1.5997 -0.2276 -0.9416
  684MOL0     H92337   1.605  10.236   7.791  1.8339  0.5403  2.4347
  684MOL0     H92338   1.291  10.249   7.609 -0.4656  2.0834 -1.3623
  684MOL0     H92339   1.396  10.386   7.610 -1.1150  0.1804 -0.2356
  684MOL0     H92340   1.464  10.233   7.612 -1.9923 -0.3469 -3.6022
  685MOL0     O92341   4.624   2.536   3.935  0.1132  0.4801 -0.3177
  685MOL0     C92342   4.507   2.521   3.919 -0.2194  0.0960  0.1059
  685MOL0     O92343   4.416   2.565   4.002 -0.2128 -0.4429  0.4241
  685MOL0     C92344   4.459   2.597   4.124  1.7034  0.4978  0.2900
  685MOL0     C92345   4.470   2.487   4.220  0.5972 -0.4474 -0.1376
  685MOL0     C92346   4.503   2.504   4.353 -0.9447  0.2350 -0.4754
  685MOL0     C92347   4.543   2.635   4.403  0.5862  0.7361 -0.0550
  685MOL0     O92348   4.584   2.662   4.525  0.0364  0.0253 -0.9799
  685MOL0     C92349   4.546   2.571   4.630 -0.5326  0.1885 -0.6050
  685MOL0     C92350   4.645   2.602   4.741 -0.8600  0.3724  0.8276
  685MOL0     C92351   4.604   2.529   4.875 -0.1817  0.3358  0.0926
  685MOL0     C92352   4.723   2.493   4.953 -0.3913  0.4971 -0.4477
  685MOL0     C92353   4.673   2.405   5.067  0.3681 -0.2201  0.1781
  685MOL0     C92354   4.792   2.398   5.165  0.5908 -0.4905  0.9096
  685MOL0     C92355   4.765   2.281   5.266 -0.7150 -0.2255  0.7850
  685MOL0     C92356   4.812   2.151   5.186 -0.4354  0.6243  0.7576
  685MOL0     N92357   4.750   2.036   5.243  0.2409 -0.3418  0.6981
  685MOL0     C92358   4.745   2.020   5.378 -0.1893  0.5057 -0.4455
  685MOL0     C92359   4.698   1.894   5.404 -0.0794 -0.7519 -0.6908
  685MOL0     C92360   4.650   1.834   5.534 -0.1396  0.1338  0.1048
  685MOL0     C92361   4.758   1.816   5.651 -0.2081  0.3790  0.4635
  685MOL0     C92362   4.685   1.771   5.767 -0.4399  0.4857 -1.1804
  685MOL0     C92363   4.784   1.760   5.881 -0.2101 -0.2265 -0.0512
  685MOL0     O92364   4.745   1.699   6.006  0.6361  0.2854 -0.3190
  685MOL0     C92365   4.714   1.561   6.009 -0.2763  0.1742  0.9007
  685MOL0     C92366   4.632   1.516   6.115 -0.3436  0.9605 -0.4374
  685MOL0     C92367   4.559   1.403   6.094 -0.5378 -0.3802  0.1872
  685MOL0     C92368   4.585   1.310   5.983  0.2734 -0.8101 -0.7264
  685MOL0     C92369   4.517   1.185   5.952 -0.2748 -0.5462  0.4103
  685MOL0     O92370   4.547   1.130   5.825 -0.0968 -0.3539  0.6952
  685MOL0     C92371   4.484   1.020   5.783  0.1651  0.8576  0.6529
  685MOL0     C92372   4.370   1.037   5.704 -0.3889 -0.4069 -0.1328
  685MOL0     C92373   4.293   0.938   5.664  0.4901  0.0739  0.1364
  685MOL0     C92374   4.313   0.804   5.695 -0.0162  0.5956  0.4275
  685MOL0     O92375   4.255   0.691   5.645  0.5723  1.1676 -0.2246
  685MOL0     C92376   4.141   0.713   5.563 -0.4072 -0.4633  0.0484
  685MOL0     C92377   4.070   0.584   5.513  0.1542 -0.0220 -0.7183
  685MOL0     C92378   3.936   0.609   5.439 -1.1119 -0.8604 -0.8709
  685MOL0     C92379   3.864   0.481   5.413  0.0560 -0.2988 -0.1901
  685MOL0     C92380   3.948   0.376   5.334  0.1220 -0.4162  0.3612
  685MOL0     C92381   3.891   0.233   5.354 -0.1953 -0.4471  0.2943
  685MOL0     C92382   3.989   0.152   5.437  0.1310  0.0629 -0.7564
  685MOL0     C92383   3.952  -0.000   5.441  0.1073 -0.7843  0.0078
  685MOL0    Cl92384   3.786  -0.008   5.521  0.0583  0.1721  0.0225
  685MOL0     C92385   4.427   0.776   5.779 -0.2962  0.1127 -0.2457
  685MOL0     C92386   4.508   0.883   5.820 -0.5359 -0.5803  1.0208
  685MOL0     O92387   4.429   1.149   6.024 -0.2505  0.5399 -1.1922
  685MOL0     C92388   4.676   1.358   5.890 -1.1272 -0.3226  0.4266
  685MOL0     C92389   4.743   1.482   5.901 -0.1116  0.2329 -0.4674
  685MOL0     N92390   4.687   1.835   5.277  0.0741 -0.0038 -0.0966
  685MOL0     N92391   4.694   1.921   5.186  0.0790 -1.0652 -0.3900
  685MOL0     C92392   4.539   2.741   4.308 -1.0183 -0.7880 -0.0176
  685MOL0     C92393   4.493   2.728   4.175 -0.1722 -0.5674  0.5807
  685MOL0     C92394   4.456   2.465   3.787  0.4559 -1.0191  0.0506
  685MOL0     C92395   4.332   2.519   3.737 -0.1992  0.7834 -0.1393
  685MOL0     C92396   4.258   2.458   3.636 -0.6681 -0.1447  0.6608
  685MOL0     C92397   4.324   2.364   3.558 -0.2845  0.2888 -0.1284
  685MOL0     O92398   4.264   2.315   3.438 -0.0654  0.1947 -0.2246
  685MOL0     C92399   4.137   2.245   3.460 -0.3255 -0.1526  0.4915
  685MOL0     C92400   4.163   2.104   3.499 -0.3063  0.0462  0.2640
  685MOL0     C92401   4.229   2.036   3.384 -0.7783  0.3764  0.5352
  685MOL0     C92402   4.159   2.024   3.251 -0.5244 -0.0021 -0.6746
  685MOL0     C92403   4.168   1.888   3.193 -0.0023 -0.5249  0.0709
  685MOL0     C92404   4.171   1.779   3.138  0.3229 -0.2208 -0.5471
  685MOL0     C92405   4.445   2.315   3.599 -0.1016  0.2719  0.8135
  685MOL0     C92406   4.516   2.360   3.712 -0.3798  0.1283  0.2948
  685MOL0     C92407   4.652   2.308   3.744  0.2799 -0.7431 -0.1361
  685MOL0     H92408   4.461   2.387   4.179  3.2229 -0.8962  0.2085
  685MOL0     H92409   4.484   2.420   4.419 -3.6313  1.4653  0.4576
  685MOL0     H92410   4.441   2.593   4.652 -1.3990 -4.4897  1.2413
  685MOL0     H92411   4.569   2.468   4.603  2.9611  0.6897 -0.0517
  685MOL0     H92412   4.655   2.711   4.750 -2.9008  0.7527 -0.7114
  685MOL0     H92413   4.740   2.554   4.717 -2.0758 -0.5191 -2.8938
  685MOL0     H92414   4.551   2.435   4.855  2.0196 -1.8090  3.5017
  685MOL0     H92415   4.545   2.595   4.940  0.3286 -0.2605  1.1792
  685MOL0     H92416   4.786   2.431   4.889  0.1369  2.3274 -1.8041
  685MOL0     H92417   4.757   2.591   4.990 -1.5941  0.0985  1.9300
  685MOL0     H92418   4.587   2.451   5.115 -0.9764 -0.1788 -2.1177
  685MOL0     H92419   4.639   2.307   5.032  1.3588 -1.3845  2.2655
  685MOL0     H92420   4.890   2.393   5.117  1.1615  0.7884  1.8614
  685MOL0     H92421   4.802   2.495   5.216  0.3710 -0.4868  0.9481
  685MOL0     H92422   4.660   2.291   5.297 -0.9073 -1.0755  0.4387
  685MOL0     H92423   4.831   2.304   5.350 -0.5010  1.5107  0.1920
  685MOL0     H92424   4.770   2.150   5.085 -4.0373 -2.0457  2.0625
  685MOL0     H92425   4.920   2.138   5.202 -0.2783 -0.3146 -0.9029
  685MOL0     H92426   4.770   2.087   5.460  0.0895 -0.5265  0.3332
  685MOL0     H92427   4.553   1.873   5.568  0.3108  0.7520  0.7115
  685MOL0     H92428   4.618   1.735   5.499  0.8479 -0.3297  0.4793
  685MOL0     H92429   4.827   1.736   5.623  0.6134  1.0796  0.4489
  685MOL0     H92430   4.818   1.908   5.655 -0.3731  0.5201 -0.1584
  685MOL0     H92431   4.647   1.671   5.743 -0.7267  0.6088 -1.2388
  685MOL0     H92432   4.605   1.834   5.807 -0.2292 -0.2324  0.4456
  685MOL0     H92433   4.814   1.858   5.917  0.6228 -0.3064 -0.4984
  685MOL0     H92434   4.878   1.717   5.844  0.3294  0.6646  0.2533
  685MOL0     H92435   4.595   1.578   6.196  1.1562  0.6699  0.4972
  685MOL0     H92436   4.485   1.371   6.166 -0.7197 -0.2480  0.0585
  685MOL0     H92437   4.357   1.139   5.669  1.8412  0.1727  0.5475
  685MOL0     H92438   4.217   0.952   5.588  1.7140 -0.5297 -1.2423
  685MOL0     H92439   4.069   0.783   5.607  2.3942  1.2966  2.1028
  685MOL0     H92440   4.179   0.756   5.470 -1.3673 -0.3161 -0.2934
  685MOL0     H92441   4.141   0.542   5.441 -1.8583  1.4069 -3.7521
  685MOL0     H92442   4.050   0.512   5.592  1.1860 -1.2647 -1.5414
  685MOL0     H92443   3.886   0.678   5.508  0.6095 -1.2090  0.8011
  685MOL0     H92444   3.954   0.659   5.343  1.4842  1.7229  0.7966
  685MOL0     H92445   3.780   0.503   5.347 -1.5574 -0.5825  1.7010
  685MOL0     H92446   3.818   0.438   5.503  1.3586 -1.0490  0.1502
  685MOL0     H92447   4.049   0.369   5.375  0.3813 -1.1430 -0.3922
  685MOL0     H92448   3.954   0.410   5.230 -0.3891  3.0896  1.3308
  685MOL0     H92449   3.793   0.234   5.402  0.7711  0.5389  2.3771
  685MOL0     H92450   3.879   0.184   5.257  0.2191  0.2204 -0.1035
  685MOL0     H92451   3.992   0.198   5.536  1.7345 -0.3788 -0.5612
  685MOL0     H92452   4.095   0.158   5.411  0.6144 -1.8571  0.5045
  685MOL0     H92453   3.965  -0.054   5.346  0.3131 -1.6377  0.5081
  685MOL0     H92454   4.020  -0.046   5.513  2.3711  2.8619  0.4306
  685MOL0     H92455   4.437   0.674   5.815 -1.0889  0.1536  0.1255
  685MOL0     H92456   4.601   0.855   5.869  0.1548 -0.2131 -0.0226
  685MOL0     H92457   4.710   1.300   5.805  0.4752 -0.1497  0.9245
  685MOL0     H92458   4.819   1.510   5.828  2.6773  3.7772  3.2856
  685MOL0     H92459   4.585   2.838   4.322  0.8719 -0.9598 -3.8177
  685MOL0     H92460   4.481   2.811   4.107 -1.3661 -1.2943 -0.1239
  685MOL0     H92461   4.280   2.593   3.797 -1.2406 -0.2308  0.2495
  685MOL0     H92462   4.156   2.494   3.625 -0.3536  1.9917  3.4956
  685MOL0     H92463   4.088   2.253   3.362  0.4067  2.7751  0.2752
  685MOL0     H92464   4.061   2.297   3.520  1.0719 -2.0159  4.1649
  685MOL0     H92465   4.076   2.052   3.539  1.5727  0.1017  4.9712
  685MOL0     H92466   4.244   2.097   3.572 -1.2162 -0.0059  1.2781
  685MOL0     H92467   4.247   1.935   3.423  1.9874  0.8048  0.5610
  685MOL0     H92468   4.327   2.078   3.359 -1.1163 -0.0048 -1.6454
  685MOL0     H92469   4.051   2.023   3.270 -0.2877 -1.8076  0.8850
  685MOL0     H92470   4.189   2.106   3.185  2.0578  0.6969  1.1880
  685MOL0     H92471   4.172   1.684   3.088  1.1193 -0.1378 -0.7052
  685MOL0     H92472   4.485   2.236   3.536  0.9225  1.0521  0.4653
  685MOL0     H92473   4.643   2.268   3.846  0.9917 -0.6924 -0.0489
  685MOL0     H92474   4.697   2.225   3.688 -0.0088 -1.8718  1.2289
  685MOL0     H92475   4.729   2.385   3.733 -1.6762  0.9587 -2.7993
  686MOL0     O92476   3.488   2.618   6.625  0.7665 -0.1230 -0.6604
  686MOL0     C92477   3.499   2.569   6.733 -0.7473  0.4544  0.2774
  686MOL0     O92478   3.406   2.533   6.820  0.5705 -1.1775  0.0276
  686MOL0     C92479   3.284   2.605   6.817 -0.2046  0.0408  0.5882
  686MOL0     C92480   3.164   2.542   6.784  0.4997 -0.1523  0.3847
  686MOL0     C92481   3.038   2.616   6.790  0.4472  0.6521 -0.6019
  686MOL0     C92482   3.046   2.748   6.824 -0.3928 -0.2460 -0.4074
  686MOL0     O92483   2.934   2.820   6.849 -0.2247 -0.2700 -0.2438
  686MOL0     C92484   2.852   2.863   6.740 -0.5370  0.4545 -0.2655
  686MOL0     C92485   2.917   2.969   6.641 -0.6368  0.6788 -0.1939
  686MOL0     C92486   2.834   2.991   6.517 -0.0720 -0.4427  0.0549
  686MOL0     C92487   2.742   3.103   6.560 -0.2043  0.0329 -0.7210
  686MOL0     C92488   2.658   3.129   6.436 -0.8545 -0.0125 -0.1109
  686MOL0     C92489   2.578   3.250   6.477 -0.7723 -0.1458 -0.8103
  686MOL0     C92490   2.478   3.288   6.368 -0.1918 -0.2387 -0.4027
  686MOL0     C92491   2.360   3.186   6.374  0.2130 -0.1939  0.0984
  686MOL0     N92492   2.242   3.252   6.323  0.0836 -0.0646 -0.0651
  686MOL0     C92493   2.237   3.306   6.208 -0.4815 -0.2965  0.0168
  686MOL0     C92494   2.131   3.392   6.218  0.1611 -0.6022  0.5742
  686MOL0     C92495   2.099   3.493   6.106  0.0771  0.4417  0.6864
  686MOL0     C92496   1.997   3.439   6.009 -0.1304  0.5887  0.6202
  686MOL0     C92497   2.057   3.309   5.942  0.3069  0.1450  0.6906
  686MOL0     C92498   1.978   3.249   5.829  0.2524  0.2102  0.6453
  686MOL0     O92499   1.852   3.203   5.873 -0.0813 -0.1750 -0.4720
  686MOL0     C92500   1.784   3.128   5.776 -0.0399 -0.4297  0.2025
  686MOL0     C92501   1.655   3.097   5.809  0.1768  1.0356 -0.5804
  686MOL0     C92502   1.561   3.047   5.727  0.3859  0.2701 -0.3693
  686MOL0     C92503   1.596   3.017   5.600 -0.5062 -0.8782 -0.0642
  686MOL0     C92504   1.491   2.946   5.516 -0.0010 -0.3150 -0.0236
  686MOL0     O92505   1.536   2.886   5.404  0.0810 -0.2262 -0.0748
  686MOL0     C92506   1.452   2.796   5.346  0.1419  0.2030  1.2537
  686MOL0     C92507   1.337   2.843   5.279  0.0106 -1.2479  0.6352
  686MOL0     C92508   1.248   2.761   5.221 -0.2489 -0.0082  0.8504
  686MOL0     C92509   1.253   2.620   5.239  0.3022 -0.7362  0.7163
  686MOL0     O92510   1.148   2.547   5.185  0.2293  0.1303 -0.2754
  686MOL0     C92511   1.148   2.404   5.199 -0.2661  0.6619  0.7765
  686MOL0     C92512   1.001   2.369   5.166 -1.0400  0.5974 -0.0959
  686MOL0     C92513   0.941   2.408   5.031  0.4753  1.1349  0.5650
  686MOL0     C92514   0.786   2.397   5.014  0.9247  0.0267  0.1481
  686MOL0     C92515   0.722   2.495   5.116  0.4985  0.0396  0.8038
  686MOL0     C92516   0.571   2.489   5.100  0.0890  0.2879 -0.0988
  686MOL0     C92517   0.485   2.597   5.170 -1.2504 -0.4722  0.5379
  686MOL0     C92518   0.344   2.591   5.100 -0.2126 -0.3980  0.7829
  686MOL0    Cl92519   0.253   2.736   5.157 -0.1655  0.1865  0.1471
  686MOL0     C92520   1.359   2.576   5.317 -0.7403  0.5087 -0.4700
  686MOL0     C92521   1.463   2.660   5.365  0.0095 -0.4476 -1.0411
  686MOL0     O92522   1.373   2.946   5.561 -0.8605 -0.4884 -0.5706
  686MOL0     C92523   1.720   3.048   5.547 -1.2486 -0.4014 -0.3643
  686MOL0     C92524   1.818   3.099   5.636  0.6063 -0.0891  0.1892
  686MOL0     N92525   2.065   3.379   6.342 -0.0213 -0.8811  0.0799
  686MOL0     N92526   2.139   3.297   6.403 -0.3789 -0.2762  0.4515
  686MOL0     C92527   3.173   2.810   6.834 -0.5760 -0.4996  1.3489
  686MOL0     C92528   3.289   2.745   6.825 -0.1554  1.1486  0.3168
  686MOL0     C92529   3.644   2.534   6.757  0.1203  0.0885 -0.1371
  686MOL0     C92530   3.729   2.457   6.674  0.2379  1.0480  1.6239
  686MOL0     C92531   3.864   2.424   6.705 -0.3156  0.8687 -0.6687
  686MOL0     C92532   3.918   2.472   6.830 -0.6287 -0.5796  0.7923
  686MOL0     O92533   4.038   2.436   6.876 -0.3283  0.7217  0.6457
  686MOL0     C92534   4.148   2.396   6.790 -0.6762 -0.4558  0.2389
  686MOL0     C92535   4.277   2.394   6.869  0.2182 -0.4221 -0.7173
  686MOL0     C92536   4.330   2.527   6.929 -1.0474  0.4913  0.0322
  686MOL0     C92537   4.431   2.498   7.051 -0.7485  0.8476 -0.1391
  686MOL0     C92538   4.505   2.618   7.076  0.1709  0.6564 -0.1143
  686MOL0     C92539   4.571   2.722   7.098  0.5340  0.7576  0.0054
  686MOL0     C92540   3.844   2.548   6.905 -0.1092 -0.0861 -0.8217
  686MOL0     C92541   3.717   2.585   6.869  0.6812  0.2735  0.3559
  686MOL0     C92542   3.650   2.696   6.958  0.0867  1.4275  0.6364
  686MOL0     H92543   3.168   2.434   6.771 -1.0028 -0.1478 -0.2061
  686MOL0     H92544   2.942   2.566   6.786  2.3556 -3.9149  2.5046
  686MOL0     H92545   2.804   2.776   6.692  3.5541 -1.1918 -1.8319
  686MOL0     H92546   2.774   2.917   6.794 -0.1846  0.1200  0.5986
  686MOL0     H92547   3.013   2.940   6.599  0.3780  1.2993  1.5900
  686MOL0     H92548   2.926   3.053   6.712 -0.3662  1.8775 -1.5975
  686MOL0     H92549   2.777   2.902   6.489 -1.2075  0.6554 -1.3512
  686MOL0     H92550   2.887   3.035   6.432  2.1867 -1.0960  1.0681
  686MOL0     H92551   2.678   3.072   6.644 -0.5208  1.0403 -0.5774
  686MOL0     H92552   2.802   3.188   6.592  4.2583 -2.9857 -0.0838
  686MOL0     H92553   2.730   3.144   6.355  1.8486  1.6883  2.3837
  686MOL0     H92554   2.607   3.034   6.420  3.9196 -2.5825 -1.8043
  686MOL0     H92555   2.538   3.233   6.577  1.9830 -3.1774 -0.0651
  686MOL0     H92556   2.641   3.340   6.481 -2.2130  0.8651  1.8167
  686MOL0     H92557   2.537   3.301   6.276  0.4440  0.9870  0.1480
  686MOL0     H92558   2.455   3.390   6.398  3.3486  0.0174  2.1047
  686MOL0     H92559   2.388   3.097   6.318  1.1279 -1.4832  2.4564
  686MOL0     H92560   2.343   3.157   6.478 -1.7121 -0.1442 -0.1700
  686MOL0     H92561   2.305   3.298   6.124 -2.5832 -1.9487 -1.6371
  686MOL0     H92562   2.085   3.593   6.147 -2.0985  0.4430  0.0577
  686MOL0     H92563   2.196   3.517   6.061  0.8714  0.8387  2.5478
  686MOL0     H92564   1.898   3.429   6.054 -0.6906  1.9724 -0.2078
  686MOL0     H92565   1.991   3.522   5.937  0.5220 -0.7456 -1.0363
  686MOL0     H92566   2.069   3.226   6.012  0.6250  1.0575  1.7336
  686MOL0     H92567   2.157   3.336   5.907 -0.0218  1.0476  0.4064
  686MOL0     H92568   2.038   3.163   5.797 -1.0520 -0.3336 -0.4517
  686MOL0     H92569   1.969   3.322   5.749 -0.3564  0.3957  0.8772
  686MOL0     H92570   1.639   3.120   5.914  0.6356 -1.4869  0.1312
  686MOL0     H92571   1.461   3.025   5.764  0.0257  3.0022  0.4941
  686MOL0     H92572   1.317   2.950   5.276  2.3755 -0.6290  2.8276
  686MOL0     H92573   1.161   2.803   5.170  1.5314  2.1560 -0.5618
  686MOL0     H92574   1.219   2.364   5.126  0.4217  3.1732 -0.0473
  686MOL0     H92575   1.165   2.369   5.301  0.4751 -2.0900 -0.2021
  686MOL0     H92576   0.998   2.260   5.166  1.9765  0.4033 -1.8375
  686MOL0     H92577   0.933   2.402   5.245  1.0093  1.3817  1.4517
  686MOL0     H92578   0.971   2.507   4.996  0.0451  1.0014 -0.2060
  686MOL0     H92579   0.983   2.337   4.960 -0.2915 -0.0702  1.2784
  686MOL0     H92580   0.766   2.299   5.058  0.3575  0.5200  1.0264
  686MOL0     H92581   0.739   2.409   4.915 -0.0266  0.7109  0.6652
  686MOL0     H92582   0.750   2.598   5.093 -2.4366  0.7653  0.0908
  686MOL0     H92583   0.742   2.481   5.223  1.6255  2.7085  1.0223
  686MOL0     H92584   0.550   2.485   4.993 -1.1019 -0.8703  0.1604
  686MOL0     H92585   0.537   2.396   5.147 -4.0530  0.9548 -1.3626
  686MOL0     H92586   0.522   2.700   5.162 -1.8761 -0.2043  1.0862
  686MOL0     H92587   0.481   2.579   5.277  2.2649 -0.9620  0.7305
  686MOL0     H92588   0.359   2.603   4.992  0.3130 -1.6663  0.7011
  686MOL0     H92589   0.286   2.500   5.120  0.0734 -1.7066 -3.4557
  686MOL0     H92590   1.381   2.472   5.338 -0.2270  0.5592 -0.7517
  686MOL0     H92591   1.541   2.634   5.436 -0.0293  3.4938  0.7331
  686MOL0     H92592   1.729   3.031   5.441 -2.3834  1.4781 -0.8041
  686MOL0     H92593   1.918   3.111   5.597  0.5507 -1.3011 -0.3762
  686MOL0     H92594   3.184   2.915   6.858 -0.5237 -0.5240  1.4312
  686MOL0     H92595   3.381   2.801   6.830  1.2422 -1.0502  0.6924
  686MOL0     H92596   3.692   2.432   6.575  0.3060 -0.0027  1.8522
  686MOL0     H92597   3.917   2.348   6.648 -0.6850 -1.1899  1.5697
  686MOL0     H92598   4.178   2.464   6.710  2.5052 -1.1342  0.7159
  686MOL0     H92599   4.124   2.298   6.747 -2.1171  0.1440 -0.4069
  686MOL0     H92600   4.344   2.359   6.790 -1.0203  2.8310 -3.4615
  686MOL0     H92601   4.273   2.315   6.945 -1.6986 -0.1264 -0.4493
  686MOL0     H92602   4.249   2.589   6.968  0.0852  4.9375 -3.7924
  686MOL0     H92603   4.372   2.577   6.841 -0.9094  2.8871  1.3768
  686MOL0     H92604   4.373   2.463   7.136  3.1368  0.3481  2.5297
  686MOL0     H92605   4.510   2.433   7.012  1.2348  1.8159  2.0488
  686MOL0     H92606   4.612   2.819   7.117  0.3868  1.5203 -3.0456
  686MOL0     H92607   3.882   2.577   7.002 -0.0184  1.4639 -1.2900
  686MOL0     H92608   3.560   2.647   6.997  0.1465 -2.2192 -3.0937
  686MOL0     H92609   3.705   2.721   7.049 -0.2520  3.5314  0.3128
  686MOL0     H92610   3.633   2.791   6.907 -0.6665  1.2274  0.4982
  687MOL0     O92611   0.207  11.349   2.619  0.4472  0.2982  0.7029
  687MOL0     C92612   0.280  11.255   2.615 -0.9728 -0.2284 -0.4143
  687MOL0     O92613   0.374  11.239   2.511 -0.1483 -0.1851 -0.9483
  687MOL0     C92614   0.396  11.351   2.429 -0.2894  0.2287  0.0910
  687MOL0     C92615   0.387  11.492   2.463  0.1839 -0.0285  0.4316
  687MOL0     C92616   0.384  11.581   2.359  0.0918 -0.4614 -0.3224
  687MOL0     C92617   0.398  11.530   2.225 -0.2182 -0.1231 -0.6840
  687MOL0     O92618   0.392  11.621   2.125 -0.1595 -0.0362  0.3058
  687MOL0     C92619   0.334  11.578   2.006  0.1067  0.2574 -1.2740
  687MOL0     C92620   0.277  11.699   1.952  0.6263  0.3701 -0.4618
  687MOL0     C92621   0.388  11.785   1.879 -0.1774  0.0983 -0.1931
  687MOL0     C92622   0.361  11.929   1.914 -0.2294  0.5461 -0.5044
  687MOL0     C92623   0.468  12.022   1.863 -0.2591 -0.7659  0.2823
  687MOL0     C92624   0.428  12.169   1.900 -0.1305 -0.8755 -1.4136
  687MOL0     C92625   0.544  12.270   1.875  0.9824 -0.1054 -0.0123
  687MOL0     C92626   0.513  12.413   1.921 -0.0046 -0.2929 -0.3569
  687MOL0     N92627   0.443  12.489   1.814  0.0874 -0.4981  0.0702
  687MOL0     C92628   0.306  12.490   1.774  0.1254  0.0825 -0.0244
  687MOL0     C92629   0.295  12.593   1.685 -0.4808  0.2002  0.2101
  687MOL0     C92630   0.171  12.643   1.615  0.1017  0.1693 -1.1777
  687MOL0     C92631   0.204  12.703   1.477 -0.5069  0.0924  0.7962
  687MOL0     C92632   0.072  12.733   1.396  0.0092  0.1181  0.3956
  687MOL0     C92633  -0.007  12.851   1.446 -0.2680  0.1467 -0.4305
  687MOL0     O92634  -0.110  12.879   1.348 -0.0309  0.6243  0.3749
  687MOL0     C92635  -0.203  12.985   1.356 -0.2727  0.2767 -0.7237
  687MOL0     C92636  -0.258  13.041   1.235  0.5983  0.2645 -0.3548
  687MOL0     C92637  -0.337  13.152   1.248 -0.3699 -0.1865  0.3840
  687MOL0     C92638  -0.360  13.210   1.375  1.3425  0.1914 -0.9168
  687MOL0     C92639  -0.457  13.321   1.388 -0.2566 -0.8149 -0.5053
  687MOL0     O92640  -0.439  13.390   1.510 -0.0719  0.3113 -0.1795
  687MOL0     C92641  -0.520  13.500   1.542  1.0544 -0.0444 -0.0221
  687MOL0     C92642  -0.627  13.550   1.469 -1.0081 -0.3939 -0.0719
  687MOL0     C92643  -0.709  13.653   1.514 -0.8629  0.7345  0.3920
  687MOL0     C92644  -0.688  13.698   1.646 -0.6973 -0.2559  0.7143
  687MOL0     O92645  -0.756  13.803   1.709  1.0294 -0.6240  0.7739
  687MOL0     C92646  -0.896  13.821   1.684  0.6427  0.4368  0.2494
  687MOL0     C92647  -0.989  13.743   1.783 -1.0881 -0.8686  0.3080
  687MOL0     C92648  -0.979  13.592   1.780  0.0155  0.3278  0.4606
  687MOL0     C92649  -1.064  13.525   1.892 -0.0902 -0.2318  0.2188
  687MOL0     C92650  -1.095  13.374   1.886 -0.7074  0.0947 -0.0412
  687MOL0     C92651  -1.176  13.325   2.004  0.5381 -0.9943 -0.8217
  687MOL0     C92652  -1.195  13.176   1.997 -0.7025  0.4548 -0.5447
  687MOL0     C92653  -1.072  13.086   2.004  0.9768 -0.9291  0.3880
  687MOL0    Cl92654  -1.128  12.917   2.010  0.0454 -0.2351  0.3525
  687MOL0     C92655  -0.588  13.635   1.727  0.3314 -0.2881  0.2641
  687MOL0     C92656  -0.509  13.534   1.675  0.6872  0.0056  0.4375
  687MOL0     O92657  -0.519  13.362   1.283 -0.2129 -0.4644 -0.0477
  687MOL0     C92658  -0.293  13.160   1.484  0.0263  0.4487 -0.6903
  687MOL0     C92659  -0.221  13.039   1.481  0.8116 -1.0802 -0.0633
  687MOL0     N92660   0.422  12.658   1.681  0.6797  0.0513 -0.0629
  687MOL0     N92661   0.498  12.596   1.759  0.0619 -1.2240 -0.0364
  687MOL0     C92662   0.428  11.397   2.201 -1.0333  0.2493  0.2517
  687MOL0     C92663   0.425  11.310   2.303 -0.0808  0.4372 -0.6295
  687MOL0     C92664   0.269  11.149   2.718 -0.1325  0.8566 -0.6710
  687MOL0     C92665   0.152  11.136   2.795  0.1518 -0.5611 -0.5113
  687MOL0     C92666   0.128  11.036   2.892  0.3375  0.6059  0.4620
  687MOL0     C92667   0.232  10.951   2.928  0.2532 -0.0549 -0.9763
  687MOL0     O92668   0.230  10.848   3.014 -0.5402  0.1615 -0.8139
  687MOL0     C92669   0.160  10.875   3.138 -0.4564  0.3986 -0.3836
  687MOL0     C92670   0.012  10.838   3.137  0.2433  0.3521 -0.1294
  687MOL0     C92671  -0.016  10.685   3.134 -0.6558 -0.2299 -0.4232
  687MOL0     C92672   0.003  10.623   2.992 -0.8967 -0.1006  0.2701
  687MOL0     C92673  -0.086  10.681   2.893 -0.4707 -0.1834  0.0432
  687MOL0     C92674  -0.146  10.746   2.810 -0.9101 -1.0313  0.2017
  687MOL0     C92675   0.352  10.961   2.858  0.5719 -0.8184  0.5424
  687MOL0     C92676   0.375  11.055   2.755  0.5725 -0.0348  0.0317
  687MOL0     C92677   0.513  11.065   2.703  0.5751 -0.7642  0.4332
  687MOL0     H92678   0.373  11.523   2.566 -2.4726 -0.0044  0.1518
  687MOL0     H92679   0.354  11.684   2.375  1.5560 -0.1102  0.2659
  687MOL0     H92680   0.403  11.534   1.935  2.2114  0.6101  0.4351
  687MOL0     H92681   0.255  11.505   2.025  0.7209 -0.0997  0.0647
  687MOL0     H92682   0.218  11.747   2.030  1.5844  3.0989 -1.2959
  687MOL0     H92683   0.203  11.671   1.876  0.8760  0.2071 -0.6482
  687MOL0     H92684   0.391  11.764   1.772  2.9038  1.9185 -0.5883
  687MOL0     H92685   0.488  11.756   1.914 -0.5424  0.7638  1.4943
  687MOL0     H92686   0.270  11.974   1.874 -0.7036  0.7382  0.7302
  687MOL0     H92687   0.355  11.936   2.023  0.7523 -0.8810 -0.3280
  687MOL0     H92688   0.560  11.994   1.915  0.3476  1.3629  0.4664
  687MOL0     H92689   0.483  12.014   1.755  3.3616  0.0005  0.5817
  687MOL0     H92690   0.340  12.199   1.842 -1.6341 -1.4184  0.4967
  687MOL0     H92691   0.394  12.168   2.003 -1.4394 -1.2815 -1.8358
  687MOL0     H92692   0.568  12.259   1.769 -0.4965 -0.7491 -0.3113
  687MOL0     H92693   0.628  12.230   1.932  0.8590  0.9058  0.9163
  687MOL0     H92694   0.454  12.408   2.014  1.6056  0.2947  0.7393
  687MOL0     H92695   0.600  12.474   1.947 -1.1163  1.6846 -1.0457
  687MOL0     H92696   0.230  12.422   1.811  0.6443 -1.2662 -1.3195
  687MOL0     H92697   0.116  12.551   1.593 -1.2578  0.5045  0.5789
  687MOL0     H92698   0.134  12.706   1.697  2.7286 -0.1564  0.3807
  687MOL0     H92699   0.265  12.793   1.474  1.6545 -1.2760 -2.1176
  687MOL0     H92700   0.275  12.635   1.428  0.0800  1.5969 -0.5514
  687MOL0     H92701   0.007  12.646   1.385 -1.5630  1.5152 -2.2127
  687MOL0     H92702   0.106  12.758   1.295 -0.4825  4.2863  1.1005
  687MOL0     H92703   0.050  12.944   1.450  1.8516 -1.1270  0.5835
  687MOL0     H92704  -0.058  12.836   1.542 -0.0239  1.9284  0.0234
  687MOL0     H92705  -0.235  12.996   1.139  2.2367  0.5484 -0.1237
  687MOL0     H92706  -0.373  13.204   1.160  0.9857  1.5008  0.7814
  687MOL0     H92707  -0.642  13.522   1.365  1.5272 -0.6392 -0.4287
  687MOL0     H92708  -0.768  13.703   1.438  0.2572 -0.7289 -1.5140
  687MOL0     H92709  -0.926  13.925   1.704 -0.1224  0.0041  1.5025
  687MOL0     H92710  -0.928  13.793   1.583 -0.1138  0.3359  0.5048
  687MOL0     H92711  -0.981  13.778   1.886 -1.6676 -3.4350  1.3059
  687MOL0     H92712  -1.094  13.766   1.760 -0.2363 -0.3892 -3.8334
  687MOL0     H92713  -1.011  13.556   1.682  1.5375  1.0645 -0.3403
  687MOL0     H92714  -0.878  13.551   1.783 -0.7901 -1.9079 -0.1852
  687MOL0     H92715  -1.166  13.564   1.895 -1.9206 -4.3495 -0.8342
  687MOL0     H92716  -1.028  13.547   1.993 -1.7683 -1.7400  1.2018
  687MOL0     H92717  -0.998  13.322   1.884 -0.0333  1.3111 -2.3463
  687MOL0     H92718  -1.150  13.373   1.791  0.3522 -0.2517 -0.6681
  687MOL0     H92719  -1.135  13.359   2.100 -4.8537  3.2262  0.5564
  687MOL0     H92720  -1.273  13.376   2.000  0.5707 -0.8619 -0.0710
  687MOL0     H92721  -1.235  13.153   1.898  0.9197  0.6918 -1.2999
  687MOL0     H92722  -1.264  13.157   2.080 -2.4065 -2.2931 -2.4069
  687MOL0     H92723  -1.002  13.100   1.922 -3.3914  1.2519 -3.3992
  687MOL0     H92724  -1.017  13.104   2.097  2.6852 -0.4904 -0.6574
  687MOL0     H92725  -0.577  13.666   1.830  1.8652  0.2530 -0.0312
  687MOL0     H92726  -0.439  13.474   1.732  0.6091 -2.7171 -2.0937
  687MOL0     H92727  -0.291  13.210   1.580  0.0750  2.1277 -1.5430
  687MOL0     H92728  -0.174  12.998   1.570  1.3803  0.9759  0.6223
  687MOL0     H92729   0.423  11.356   2.101  2.6983  1.9317 -0.8174
  687MOL0     H92730   0.432  11.206   2.271  0.3677 -0.4627  2.1594
  687MOL0     H92731   0.068  11.203   2.778 -2.0759 -2.7617  0.9948
  687MOL0     H92732   0.026  11.026   2.929  1.1534  1.7616  3.2907
  687MOL0     H92733   0.161  10.982   3.160 -2.4870  0.4333 -0.2967
  687MOL0     H92734   0.208  10.810   3.213 -0.7368  0.8957  0.2379
  687MOL0     H92735  -0.051  10.884   3.061 -0.4780 -0.6930 -0.1872
  687MOL0     H92736  -0.040  10.870   3.227  0.3694 -2.5963  1.1275
  687MOL0     H92737  -0.120  10.683   3.168  0.1875 -0.4425  2.3896
  687MOL0     H92738   0.038  10.617   3.199 -1.7702  0.2941  1.1224
  687MOL0     H92739   0.105  10.637   2.955 -1.4346 -0.4172 -1.4040
  687MOL0     H92740  -0.027  10.518   2.989 -5.5648  1.0437 -3.0940
  687MOL0     H92741  -0.201  10.779   2.724  0.6080  2.0166  0.2564
  687MOL0     H92742   0.429  10.897   2.899 -0.9652 -1.9006  1.8880
  687MOL0     H92743   0.560  11.155   2.743  0.7755 -1.0521  0.8517
  687MOL0     H92744   0.579  10.985   2.737 -0.5879 -0.5027  3.6542
  687MOL0     H92745   0.507  11.072   2.594 -1.4365 -2.4179  0.3716
  688MOL0     O92746   3.888   1.953   4.684  0.5582  0.0786  0.5772
  688MOL0     C92747   4.003   1.941   4.739  0.0350  0.7740  0.1145
  688MOL0     O92748   4.024   1.911   4.871 -0.0659  0.6009  0.6401
  688MOL0     C92749   3.917   1.900   4.957 -0.1365 -1.1432 -0.4484
  688MOL0     C92750   3.955   1.920   5.081 -0.5833 -1.0038  0.1993
  688MOL0     C92751   3.861   1.921   5.190 -0.1404  0.5701 -0.5515
  688MOL0     C92752   3.728   1.889   5.168 -0.2801  0.3914  0.9440
  688MOL0     O92753   3.629   1.905   5.262  0.0712 -0.1609  0.6088
  688MOL0     C92754   3.543   2.025   5.238  0.9796 -0.0308 -0.5997
  688MOL0     C92755   3.425   2.008   5.335  0.5671 -0.0088  0.1346
  688MOL0     C92756   3.461   2.021   5.485  0.8574 -0.6614 -0.2610
  688MOL0     C92757   3.514   1.896   5.561 -0.5253 -0.2117  0.9725
  688MOL0     C92758   3.434   1.864   5.691  0.2281 -1.0402 -1.1087
  688MOL0     C92759   3.481   1.735   5.744  0.2229  0.7736 -0.2696
  688MOL0     C92760   3.386   1.683   5.847  0.2241 -0.3118 -0.4722
  688MOL0     C92761   3.454   1.576   5.938  0.0948  0.2999  0.2194
  688MOL0     N92762   3.376   1.543   6.052 -0.9311  0.5307 -1.5997
  688MOL0     C92763   3.343   1.629   6.157 -0.1464 -0.3932 -0.1889
  688MOL0     C92764   3.243   1.563   6.233  0.1667 -0.2511 -0.1751
  688MOL0     C92765   3.172   1.634   6.348  0.1469 -0.2018  0.0752
  688MOL0     C92766   3.212   1.578   6.483  0.5326 -0.0700  0.1984
  688MOL0     C92767   3.360   1.586   6.524  0.0536  0.5912  0.0647
  688MOL0     C92768   3.431   1.721   6.513  0.7484  0.5362  0.0226
  688MOL0     O92769   3.562   1.684   6.509 -0.0731  0.7768 -0.2257
  688MOL0     C92770   3.621   1.705   6.388  0.5631 -0.1277 -0.6815
  688MOL0     C92771   3.660   1.601   6.307 -0.3451  0.6199  0.2250
  688MOL0     C92772   3.713   1.625   6.176 -0.3220  0.3026 -0.0082
  688MOL0     C92773   3.741   1.761   6.142  0.4646  0.2888  0.2445
  688MOL0     C92774   3.818   1.790   6.012  0.8756  0.1942 -0.1187
  688MOL0     O92775   3.854   1.920   5.986  0.3958 -0.1699  0.3363
  688MOL0     C92776   3.911   1.940   5.864 -0.4605  0.1273 -0.8789
  688MOL0     C92777   3.838   1.967   5.742 -0.6328 -0.9440 -0.1206
  688MOL0     C92778   3.911   1.970   5.619  0.1458  0.2840 -0.1595
  688MOL0     C92779   4.051   1.947   5.620 -0.2601  0.0375 -0.5466
  688MOL0     O92780   4.118   1.942   5.498 -0.5341 -0.0396 -0.3607
  688MOL0     C92781   4.195   2.060   5.477  0.3319 -0.1312  0.0969
  688MOL0     C92782   4.265   2.028   5.340  0.8599  0.1463 -0.2539
  688MOL0     C92783   4.363   2.135   5.278 -0.0510 -1.5399 -0.3510
  688MOL0     C92784   4.413   2.114   5.136 -0.1110 -0.2678  0.0586
  688MOL0     C92785   4.350   2.207   5.036 -0.9098 -0.9435 -0.1570
  688MOL0     C92786   4.202   2.177   5.003 -0.1707  0.3046  0.1813
  688MOL0     C92787   4.129   2.297   4.943  0.2757  0.4189  0.0753
  688MOL0     C92788   4.173   2.305   4.798 -0.2824  0.0581 -1.4090
  688MOL0    Cl92789   4.061   2.410   4.713 -0.0223  0.0179  0.2165
  688MOL0     C92790   4.120   1.922   5.742 -1.2731 -0.0412 -1.0367
  688MOL0     C92791   4.049   1.917   5.864 -0.3302  0.2227  1.1068
  688MOL0     O92792   3.841   1.691   5.940  0.0078  0.9597 -0.3983
  688MOL0     C92793   3.703   1.856   6.231  0.5087  0.7861  0.9103
  688MOL0     C92794   3.631   1.829   6.340  0.4717 -0.8315  0.7644
  688MOL0     N92795   3.228   1.438   6.174 -0.4917  0.4303 -0.2052
  688MOL0     N92796   3.311   1.426   6.075  0.0574 -1.2711 -0.4883
  688MOL0     C92797   3.692   1.834   5.047 -0.8687  0.1841  0.5664
  688MOL0     C92798   3.783   1.854   4.931  0.0265 -1.2293 -0.1108
  688MOL0     C92799   4.125   1.952   4.653 -0.2527 -0.4530 -0.1050
  688MOL0     C92800   4.244   1.907   4.711 -0.1484  0.7095 -0.3421
  688MOL0     C92801   4.360   1.941   4.649 -0.0956 -0.0387 -0.3706
  688MOL0     C92802   4.368   2.008   4.525 -0.1182  0.3455  0.3046
  688MOL0     O92803   4.488   2.048   4.469 -0.0431 -0.5293  0.7168
  688MOL0     C92804   4.567   2.139   4.552  1.0802  0.5796 -0.0143
  688MOL0     C92805   4.690   2.075   4.586 -0.1155 -0.5616 -0.4678
  688MOL0     C92806   4.785   2.171   4.671  0.3479  0.7304  0.2394
  688MOL0     C92807   4.935   2.130   4.678 -0.2114  0.4307 -0.8979
  688MOL0     C92808   4.993   2.150   4.811  0.7517 -0.3346 -0.4507
  688MOL0     C92809   5.053   2.170   4.916  0.2746  0.0638 -0.7095
  688MOL0     C92810   4.249   2.031   4.461  0.0720  0.5263  0.3867
  688MOL0     C92811   4.122   1.997   4.522 -1.1005 -0.5393  0.3302
  688MOL0     C92812   3.995   2.003   4.443  0.2897 -0.4985  0.0448
  688MOL0     H92813   4.052   1.955   5.114 -0.7630  0.2123 -0.4959
  688MOL0     H92814   3.886   1.954   5.291  0.4504  0.3899 -0.6355
  688MOL0     H92815   3.586   2.123   5.258  1.0928 -0.8028  3.9282
  688MOL0     H92816   3.507   2.025   5.134 -1.5892 -0.8679  0.2207
  688MOL0     H92817   3.364   1.923   5.303  0.6763  0.9303 -2.8882
  688MOL0     H92818   3.357   2.091   5.317  1.0142  2.1165  5.9578
  688MOL0     H92819   3.363   2.050   5.523  0.9893  4.4851 -2.9339
  688MOL0     H92820   3.531   2.104   5.502  0.1824 -0.4349  1.5252
  688MOL0     H92821   3.505   1.815   5.488 -1.5696  0.4926  0.2925
  688MOL0     H92822   3.619   1.901   5.589 -0.7785 -1.0091  2.1541
  688MOL0     H92823   3.457   1.945   5.761  1.0686 -0.7101 -1.7465
  688MOL0     H92824   3.327   1.862   5.667  0.1352 -1.2407 -0.6859
  688MOL0     H92825   3.488   1.660   5.665  1.5239  1.6093 -0.9859
  688MOL0     H92826   3.579   1.743   5.793 -0.1882  3.4042  0.2957
  688MOL0     H92827   3.290   1.648   5.810 -1.2082  1.5725  1.2147
  688MOL0     H92828   3.365   1.768   5.913  2.3833  2.5324 -3.1446
  688MOL0     H92829   3.475   1.487   5.878 -0.7140 -0.2487  0.7259
  688MOL0     H92830   3.546   1.630   5.964  0.1323 -0.0947  0.9222
  688MOL0     H92831   3.373   1.733   6.170 -0.2346  0.4373 -5.0807
  688MOL0     H92832   3.179   1.742   6.340 -1.3510 -0.0406  0.5486
  688MOL0     H92833   3.064   1.619   6.335 -0.0630 -0.2180  1.6042
  688MOL0     H92834   3.158   1.637   6.557  1.2308  2.6230 -1.3021
  688MOL0     H92835   3.176   1.474   6.489 -1.3412  0.5414  0.0794
  688MOL0     H92836   3.417   1.507   6.475 -0.5882  0.4312 -0.4364
  688MOL0     H92837   3.382   1.559   6.628  1.7029  0.6721 -0.2243
  688MOL0     H92838   3.416   1.776   6.606 -0.3271  0.0004  0.1878
  688MOL0     H92839   3.391   1.783   6.432  0.7190  0.6118  0.0955
  688MOL0     H92840   3.658   1.500   6.345  3.2502  0.8383  1.3472
  688MOL0     H92841   3.750   1.542   6.116 -1.7459 -1.7273  1.7887
  688MOL0     H92842   3.731   1.980   5.744 -0.7449 -1.8412  1.4578
  688MOL0     H92843   3.860   2.000   5.528 -4.9831 -1.2267  1.8406
  688MOL0     H92844   4.127   2.145   5.492  0.2597 -0.1632 -0.0398
  688MOL0     H92845   4.281   2.073   5.543  0.4943  0.2835 -0.1912
  688MOL0     H92846   4.333   1.943   5.350  0.5761 -0.0010  0.4932
  688MOL0     H92847   4.185   2.015   5.266  2.0433  2.7252 -2.1617
  688MOL0     H92848   4.318   2.234   5.279 -1.5491 -2.1889  0.5509
  688MOL0     H92849   4.454   2.135   5.339 -0.4159 -1.0960  0.2035
  688MOL0     H92850   4.394   2.018   5.088  1.8508  0.7325 -3.0317
  688MOL0     H92851   4.521   2.125   5.132 -0.0006 -0.5634  1.6691
  688MOL0     H92852   4.404   2.183   4.944 -1.9944 -0.5860 -0.8990
  688MOL0     H92853   4.368   2.312   5.061  0.1742 -1.4695  1.4927
  688MOL0     H92854   4.183   2.083   4.951  1.1897  0.2215 -0.1985
  688MOL0     H92855   4.165   2.169   5.106  1.7545 -0.4977  0.8613
  688MOL0     H92856   4.150   2.394   4.989  1.6391 -0.2081  0.8568
  688MOL0     H92857   4.028   2.258   4.958  0.8104 -1.1320 -0.0851
  688MOL0     H92858   4.276   2.339   4.789 -0.8153  1.4795 -2.7468
  688MOL0     H92859   4.166   2.206   4.753  4.5319  0.1575 -2.9270
  688MOL0     H92860   4.227   1.906   5.750 -0.3671  4.7561 -0.5040
  688MOL0     H92861   4.107   1.888   5.951  1.3760  1.7750  0.5464
  688MOL0     H92862   3.722   1.956   6.194  1.1004 -0.0130 -1.0826
  688MOL0     H92863   3.592   1.903   6.409 -1.0239 -2.0027  1.2458
  688MOL0     H92864   3.602   1.774   5.036 -0.6228  0.1010 -1.2577
  688MOL0     H92865   3.761   1.815   4.833 -0.9134  0.3578 -0.5626
  688MOL0     H92866   4.243   1.863   4.810 -2.7976 -0.0282 -0.6078
  688MOL0     H92867   4.453   1.903   4.690  0.5005  0.7968 -0.9061
  688MOL0     H92868   4.508   2.173   4.638  3.9156  1.1512  1.8439
  688MOL0     H92869   4.601   2.229   4.501  0.2793  0.4673 -0.7655
  688MOL0     H92870   4.730   2.030   4.495 -0.0999  0.0734 -0.7795
  688MOL0     H92871   4.664   2.005   4.666 -0.8346  2.3768  2.1122
  688MOL0     H92872   4.760   2.167   4.777 -0.0468 -2.4047  0.1145
  688MOL0     H92873   4.776   2.273   4.632 -1.5033  1.2924  1.9413
  688MOL0     H92874   4.944   2.023   4.655  0.4915  0.2542  0.1241
  688MOL0     H92875   4.998   2.184   4.607  2.5757 -2.0432 -0.5029
  688MOL0     H92876   5.099   2.195   5.010  0.2844 -0.0673 -0.6787
  688MOL0     H92877   4.267   2.086   4.369  1.0996 -0.2061  0.1311
  688MOL0     H92878   4.021   2.027   4.339 -3.7573 -0.3125 -1.0603
  688MOL0     H92879   3.940   1.909   4.445  0.9413 -0.8655  1.9749
  688MOL0     H92880   3.927   2.083   4.475 -0.0699 -1.0738  0.7315
  689MOL0     O92881   8.261   3.932   2.337  0.7803 -0.1547  0.0762
  689MOL0     C92882   8.359   3.935   2.410  0.4946 -0.6043 -0.2677
  689MOL0     O92883   8.345   3.915   2.539  0.3372  0.5502 -0.0010
  689MOL0     C92884   8.216   3.920   2.592 -0.5587  0.2855  0.3522
  689MOL0     C92885   8.126   3.812   2.590  0.1524  0.2393  0.0779
  689MOL0     C92886   8.005   3.827   2.654 -0.4387 -0.0575  0.2004
  689MOL0     C92887   7.976   3.949   2.719  0.3284 -0.3355  0.5748
  689MOL0     O92888   7.861   3.969   2.792  0.5930 -0.1692 -0.0535
  689MOL0     C92889   7.860   3.934   2.931  0.4588  0.3820  0.8680
  689MOL0     C92890   7.743   3.835   2.960 -0.5914  0.3648  0.7906
  689MOL0     C92891   7.747   3.705   2.873  0.1491 -0.3266  0.1923
  689MOL0     C92892   7.658   3.593   2.934 -0.3362  0.7716 -0.2184
  689MOL0     C92893   7.601   3.512   2.830  0.5545 -0.9195  0.2256
  689MOL0     C92894   7.516   3.393   2.900 -0.0505  0.7806  0.8761
  689MOL0     C92895   7.477   3.297   2.802  0.3425  0.0552  0.5414
  689MOL0     C92896   7.439   3.157   2.851  0.1065  0.1319  0.4259
  689MOL0     N92897   7.332   3.165   2.956 -0.2619  0.0804  0.0707
  689MOL0     C92898   7.199   3.179   2.927  0.2172 -0.5284 -0.2042
  689MOL0     C92899   7.145   3.160   3.051 -0.0310  0.2806 -0.4929
  689MOL0     C92900   7.004   3.142   3.088 -0.5485 -0.1889 -0.5205
  689MOL0     C92901   6.955   2.996   3.068 -0.2627 -0.1975  1.0927
  689MOL0     C92902   7.029   2.909   3.172  0.7928  0.2540 -0.0250
  689MOL0     C92903   6.969   2.770   3.153 -0.3132  0.8245 -0.2522
  689MOL0     O92904   7.026   2.669   3.237 -0.6808 -0.2355 -0.0798
  689MOL0     C92905   6.978   2.636   3.364  0.4719 -0.2773  0.4756
  689MOL0     C92906   7.054   2.536   3.424  0.5938  1.0313 -0.5695
  689MOL0     C92907   6.997   2.463   3.540 -0.1326 -0.2826  0.2912
  689MOL0     C92908   6.866   2.499   3.582  0.0148 -0.0620 -0.5867
  689MOL0     C92909   6.800   2.427   3.687  0.6774  0.1227  0.5245
  689MOL0     O92910   6.664   2.464   3.700 -0.3774  0.4762  0.0700
  689MOL0     C92911   6.594   2.397   3.791 -0.7784 -0.3163 -0.1830
  689MOL0     C92912   6.567   2.463   3.911  0.0394 -0.0911  0.1374
  689MOL0     C92913   6.485   2.401   4.003 -0.2339 -0.0918  0.7309
  689MOL0     C92914   6.440   2.267   3.991 -0.7756  0.9809 -0.3184
  689MOL0     O92915   6.370   2.204   4.094  0.3306 -0.0614 -0.5931
  689MOL0     C92916   6.341   2.064   4.091  0.1903  0.0716 -0.5233
  689MOL0     C92917   6.210   2.042   4.011  0.1325  0.4697 -0.9510
  689MOL0     C92918   6.183   1.891   4.007  0.4862 -1.1727  0.7052
  689MOL0     C92919   6.098   1.861   3.880  0.4170  0.1438 -0.6255
  689MOL0     C92920   6.082   1.708   3.867  0.0194 -0.1798 -0.0203
  689MOL0     C92921   6.031   1.665   3.733  0.1793 -0.5730  0.5519
  689MOL0     C92922   5.894   1.716   3.694 -0.2771  1.1613  0.1727
  689MOL0     C92923   5.855   1.678   3.554 -0.0226  0.5324 -0.2838
  689MOL0    Cl92924   5.684   1.664   3.549  0.1024  0.4034  0.1874
  689MOL0     C92925   6.466   2.204   3.862 -0.3674  0.2314  0.5311
  689MOL0     C92926   6.548   2.268   3.767 -0.3714  0.9191  0.3440
  689MOL0     O92927   6.857   2.340   3.746  0.0036 -0.2548 -0.8764
  689MOL0     C92928   6.794   2.591   3.508 -0.5770 -0.5294  0.3233
  689MOL0     C92929   6.857   2.664   3.407  0.1949  0.1603 -0.1723
  689MOL0     N92930   7.249   3.155   3.144 -1.1760 -0.5567 -0.0847
  689MOL0     N92931   7.359   3.152   3.085 -0.0372 -0.4127  0.7624
  689MOL0     C92932   8.060   4.057   2.710 -0.6019 -1.0876  0.0660
  689MOL0     C92933   8.180   4.044   2.643 -0.1413 -0.3635  0.6888
  689MOL0     C92934   8.494   3.955   2.360  0.0093 -0.0067  0.4792
  689MOL0     C92935   8.505   4.024   2.237 -0.1763 -0.0027  0.3790
  689MOL0     C92936   8.619   4.066   2.181 -0.8511  0.0893  0.0043
  689MOL0     C92937   8.737   4.039   2.248 -0.8912  0.0346  0.0902
  689MOL0     O92938   8.861   4.074   2.206 -0.0069 -0.1811  0.3148
  689MOL0     C92939   8.883   4.169   2.100 -0.1929 -0.5909  0.0146
  689MOL0     C92940   9.023   4.226   2.109  0.5288 -0.6425 -1.3487
  689MOL0     C92941   9.119   4.122   2.048  1.1368 -0.0215 -0.6279
  689MOL0     C92942   9.259   4.179   2.048 -0.6928  0.8385 -0.9280
  689MOL0     C92943   9.271   4.268   1.941  0.5588 -0.1601 -0.0362
  689MOL0     C92944   9.296   4.336   1.842  0.3715  0.3759 -0.8711
  689MOL0     C92945   8.729   3.962   2.367  0.9082 -0.8694  0.6983
  689MOL0     C92946   8.612   3.923   2.422 -0.2708 -1.0294 -0.1908
  689MOL0     C92947   8.620   3.834   2.546  0.2069 -0.9846  0.0229
  689MOL0     H92948   8.146   3.713   2.550 -1.3005 -1.6905  3.6812
  689MOL0     H92949   7.938   3.742   2.649  0.5605 -0.8176 -1.6233
  689MOL0     H92950   7.954   3.881   2.950  0.6162 -0.3231 -1.6384
  689MOL0     H92951   7.863   4.019   3.000 -3.4565 -0.0160  1.7175
  689MOL0     H92952   7.649   3.890   2.946  0.5819  1.9555 -1.2414
  689MOL0     H92953   7.754   3.819   3.068 -1.6329 -2.2318  0.6034
  689MOL0     H92954   7.846   3.660   2.869  1.1761  1.9062 -0.7156
  689MOL0     H92955   7.716   3.727   2.771  0.0280  0.3364  0.3655
  689MOL0     H92956   7.728   3.528   2.987 -1.5974  1.6231  2.6739
  689MOL0     H92957   7.578   3.635   2.995 -1.7160  1.4828 -2.3849
  689MOL0     H92958   7.533   3.579   2.777  0.7775 -0.4028  0.5857
  689MOL0     H92959   7.677   3.464   2.767  0.2118 -1.1885  0.0113
  689MOL0     H92960   7.563   3.338   2.982  1.5735  1.7192  0.6073
  689MOL0     H92961   7.421   3.440   2.927 -0.9376  0.0535 -0.7747
  689MOL0     H92962   7.555   3.289   2.726  1.7531 -2.9720  2.1804
  689MOL0     H92963   7.389   3.333   2.747 -0.0753 -0.8693  0.5962
  689MOL0     H92964   7.396   3.094   2.772  1.4438  0.6014 -0.7129
  689MOL0     H92965   7.530   3.116   2.896  0.8837  2.4108  1.0621
  689MOL0     H92966   7.145   3.191   2.834  0.3082  0.3995 -0.1379
  689MOL0     H92967   6.989   3.185   3.188  1.8871  1.2058 -0.6860
  689MOL0     H92968   6.946   3.221   3.039 -0.3958  1.3223  1.5797
  689MOL0     H92969   6.846   2.988   3.067 -0.3891  1.2288  1.2796
  689MOL0     H92970   6.991   2.963   2.970  3.4820 -0.3277  2.3418
  689MOL0     H92971   7.016   2.940   3.276 -2.8494  3.1507 -1.1564
  689MOL0     H92972   7.137   2.903   3.156  0.5773  1.7919 -2.5533
  689MOL0     H92973   6.991   2.728   3.054 -1.6535  0.0760 -0.2585
  689MOL0     H92974   6.860   2.774   3.157 -0.3875 -1.2312  1.3344
  689MOL0     H92975   7.152   2.506   3.390  0.5870  1.9655 -1.4690
  689MOL0     H92976   7.063   2.396   3.594  2.9850  2.7646  0.6142
  689MOL0     H92977   6.617   2.559   3.918 -0.9883  0.3921  1.2188
  689MOL0     H92978   6.476   2.454   4.097  0.8552 -1.1043  1.4414
  689MOL0     H92979   6.418   2.006   4.038  1.7096 -0.7497  2.3473
  689MOL0     H92980   6.346   2.030   4.195  4.6453  2.7231  0.3971
  689MOL0     H92981   6.129   2.090   4.067 -0.3381  1.6420 -2.5475
  689MOL0     H92982   6.207   2.096   3.916  0.3679  2.3381  0.0546
  689MOL0     H92983   6.268   1.822   4.011 -0.5376 -2.4675  0.5537
  689MOL0     H92984   6.133   1.864   4.100 -0.2065  0.2002  0.7526
  689MOL0     H92985   6.147   1.902   3.791 -1.1378 -0.4125 -1.8070
  689MOL0     H92986   6.007   1.921   3.892  0.8606  0.7094 -0.1031
  689MOL0     H92987   6.019   1.673   3.949  0.0768  3.0572  1.5574
  689MOL0     H92988   6.180   1.661   3.870 -0.1800 -0.5571  2.0483
  689MOL0     H92989   6.098   1.703   3.656 -1.9120  0.4852 -0.8523
  689MOL0     H92990   6.027   1.556   3.734  2.1292 -0.7423 -1.9531
  689MOL0     H92991   5.906   1.824   3.689  0.2548  1.2439  2.2445
  689MOL0     H92992   5.813   1.683   3.760 -1.3309 -1.3993 -2.2004
  689MOL0     H92993   5.885   1.744   3.472 -2.0931 -0.0521 -1.5796
  689MOL0     H92994   5.904   1.584   3.527 -0.3277  0.4244 -0.4651
  689MOL0     H92995   6.428   2.107   3.830  3.4930 -0.1757 -3.9499
  689MOL0     H92996   6.560   2.228   3.666 -0.3740  1.0388  0.2958
  689MOL0     H92997   6.690   2.610   3.531 -0.5658 -1.0874  0.8484
  689MOL0     H92998   6.801   2.746   3.362 -0.0985 -0.7722 -1.5655
  689MOL0     H92999   8.024   4.142   2.768 -0.1645 -0.4477 -0.5685
  689MOL0     H93000   8.248   4.127   2.628 -0.2635 -0.4286 -0.3074
  689MOL0     H93001   8.418   4.062   2.185  0.7555  2.6914  0.6208
  689MOL0     H93002   8.614   4.112   2.083 -0.4882  0.3130  0.0937
  689MOL0     H93003   8.822   4.258   2.118  2.9056  1.4970  0.9224
  689MOL0     H93004   8.858   4.135   1.999  1.8500  2.5948 -1.7283
  689MOL0     H93005   9.051   4.245   2.213 -0.5542  2.2303 -1.4735
  689MOL0     H93006   9.028   4.325   2.063 -4.0437  0.7007  0.4376
  689MOL0     H93007   9.098   4.089   1.946 -1.9914  0.8339 -0.3648
  689MOL0     H93008   9.102   4.033   2.110 -2.4856  1.4132  0.6874
  689MOL0     H93009   9.289   4.222   2.144 -0.5056 -3.6432  1.2733
  689MOL0     H93010   9.331   4.099   2.032 -1.9522  0.0151 -2.7986
  689MOL0     H93011   9.325   4.387   1.752 -2.5641 -0.6667 -2.5611
  689MOL0     H93012   8.825   3.945   2.414  1.4323 -1.7391 -0.6195
  689MOL0     H93013   8.537   3.762   2.537  1.2722 -2.2718  0.1605
  689MOL0     H93014   8.712   3.776   2.549  1.4098  0.8631  0.1553
  689MOL0     H93015   8.619   3.889   2.640  1.3733  2.1760 -1.6970
  690MOL0     O93016  10.287   7.228   2.015  0.3065  0.4318  0.5315
  690MOL0     C93017  10.391   7.197   1.962 -0.3733  0.3629 -0.3698
  690MOL0     O93018  10.401   7.107   1.859 -0.1038  0.6410 -0.6263
  690MOL0     C93019  10.280   7.055   1.814 -0.6415  0.2582  0.1507
  690MOL0     C93020  10.238   6.937   1.860 -0.2475  1.2117 -0.3638
  690MOL0     C93021  10.121   6.886   1.813 -0.5513  1.5408  0.2879
  690MOL0     C93022  10.051   6.940   1.700 -0.2322 -0.5954 -0.1374
  690MOL0     O93023   9.933   6.890   1.645  0.3639  0.4343  0.2418
  690MOL0     C93024   9.823   6.902   1.739  0.1772 -0.0524 -0.4900
  690MOL0     C93025   9.761   7.053   1.740 -1.0175 -0.5581  0.3819
  690MOL0     C93026   9.720   7.108   1.609  1.0113 -0.5039  0.9177
  690MOL0     C93027   9.635   7.240   1.642 -0.2350 -0.6896  0.0993
  690MOL0     C93028   9.584   7.325   1.521 -0.5649  0.4888  0.1966
  690MOL0     C93029   9.473   7.436   1.549 -0.2408  0.5791 -0.4241
  690MOL0     C93030   9.389   7.429   1.681 -0.0628  0.2307  0.5977
  690MOL0     C93031   9.273   7.529   1.681 -0.6823  0.1132 -0.1198
  690MOL0     N93032   9.159   7.498   1.597 -0.3938  0.4704  0.4367
  690MOL0     C93033   9.134   7.554   1.472  0.5365  0.8781  0.7777
  690MOL0     C93034   9.001   7.516   1.447  0.6451  0.6120 -0.2229
  690MOL0     C93035   8.929   7.558   1.326 -0.3835 -0.2670 -0.0785
  690MOL0     C93036   8.777   7.537   1.345  0.7138 -0.1685 -0.0570
  690MOL0     C93037   8.694   7.624   1.268  1.3120  0.8044  0.4444
  690MOL0     C93038   8.543   7.613   1.305  0.3550 -0.5762  0.4472
  690MOL0     O93039   8.473   7.726   1.230  0.6029  0.9710  0.4642
  690MOL0     C93040   8.404   7.704   1.114  0.8102  0.1103  0.2132
  690MOL0     C93041   8.406   7.590   1.037 -1.0130  0.4324 -0.0810
  690MOL0     C93042   8.344   7.587   0.909  0.7263  0.8515 -0.1529
  690MOL0     C93043   8.275   7.695   0.856 -0.2021  0.4743  0.2603
  690MOL0     C93044   8.222   7.699   0.716 -1.3350 -0.5029 -1.2223
  690MOL0     O93045   8.294   7.627   0.623  0.1560  0.3103 -0.4235
  690MOL0     C93046   8.293   7.671   0.494 -0.2445 -0.3937  1.2926
  690MOL0     C93047   8.392   7.752   0.440  0.3786  0.2867 -0.2425
  690MOL0     C93048   8.389   7.805   0.314  0.6801 -0.0698  0.2919
  690MOL0     C93049   8.282   7.760   0.221 -0.1294  0.1209 -0.3128
  690MOL0     O93050   8.261   7.793   0.092  0.0661 -0.1592 -0.4462
  690MOL0     C93051   8.377   7.834   0.022 -0.0783 -0.2408 -0.1675
  690MOL0     C93052   8.324   7.847  -0.122 -0.6085 -0.2422  0.4284
  690MOL0     C93053   8.426   7.872  -0.237 -0.3838 -0.0587  0.6362
  690MOL0     C93054   8.370   7.917  -0.378 -0.0747 -0.4217 -0.1222
  690MOL0     C93055   8.362   8.066  -0.388  0.5775 -0.4440  0.3662
  690MOL0     C93056   8.278   8.118  -0.510 -0.4686 -0.4973  0.5123
  690MOL0     C93057   8.126   8.083  -0.493  0.0813 -0.2280  0.5324
  690MOL0     C93058   8.036   8.196  -0.549  0.0394  1.0632 -0.3270
  690MOL0    Cl93059   8.078   8.251  -0.707  0.1629 -0.1369 -0.1169
  690MOL0     C93060   8.179   7.679   0.277  0.4033 -0.6628 -0.0816
  690MOL0     C93061   8.189   7.630   0.407  0.5942  0.1904 -0.5207
  690MOL0     O93062   8.131   7.778   0.693  0.9603  0.0556 -0.8890
  690MOL0     C93063   8.266   7.810   0.937 -0.0806  0.8129 -0.3583
  690MOL0     C93064   8.341   7.811   1.061 -0.0544 -0.1367  1.5173
  690MOL0     N93065   8.951   7.434   1.551  0.0818 -1.2889 -0.5912
  690MOL0     N93066   9.050   7.432   1.646 -0.3742 -0.4097  0.1504
  690MOL0     C93067  10.100   7.061   1.656  0.4174 -0.3503  0.7152
  690MOL0     C93068  10.212   7.117   1.713  0.7196  0.6356 -0.3378
  690MOL0     C93069  10.520   7.255   2.016  0.1631  0.9240 -0.7711
  690MOL0     C93070  10.524   7.288   2.147 -1.2058  0.3209  0.1444
  690MOL0     C93071  10.640   7.321   2.203  0.5439 -0.5848  0.0245
  690MOL0     C93072  10.752   7.343   2.129  0.3328  0.4045  0.2086
  690MOL0     O93073  10.869   7.366   2.193 -0.4236 -0.3341  0.4332
  690MOL0     C93074  10.920   7.255   2.263 -0.3915 -0.6791 -0.3919
  690MOL0     C93075  10.972   7.134   2.174  0.9311 -0.6183 -0.5454
  690MOL0     C93076  11.076   7.175   2.070  0.5142 -0.3165  0.5550
  690MOL0     C93077  11.169   7.065   2.037 -0.5327 -0.0010  0.6210
  690MOL0     C93078  11.246   7.085   1.917 -0.4926  0.3564  1.0565
  690MOL0     C93079  11.294   7.102   1.800 -1.1117 -0.6986  0.2752
  690MOL0     C93080  10.737   7.341   1.994  0.1037  0.5241  1.4874
  690MOL0     C93081  10.628   7.294   1.938  0.4162 -0.2414 -0.3667
  690MOL0     C93082  10.638   7.250   1.789 -0.0721 -1.5464  0.3908
  690MOL0     H93083  10.285   6.886   1.944 -0.5117 -0.1029 -0.9955
  690MOL0     H93084  10.071   6.806   1.866 -0.5708 -0.0021 -1.9151
  690MOL0     H93085   9.737   6.838   1.716 -1.4533  1.1856  1.8147
  690MOL0     H93086   9.858   6.873   1.839 -0.6789  0.0106 -0.1686
  690MOL0     H93087   9.845   7.109   1.782 -1.5258  0.0081  0.6510
  690MOL0     H93088   9.677   7.068   1.809 -0.1740  0.5981  1.1902
  690MOL0     H93089   9.663   7.035   1.551 -0.2638  0.1801  1.2745
  690MOL0     H93090   9.803   7.141   1.544 -0.6331  2.4572  0.1150
  690MOL0     H93091   9.544   7.207   1.693 -0.6340  2.8017  1.9303
  690MOL0     H93092   9.683   7.312   1.708 -0.0759  0.0049 -0.7623
  690MOL0     H93093   9.664   7.391   1.487 -1.6172  1.7353  0.0411
  690MOL0     H93094   9.553   7.267   1.433 -0.3238 -2.0300  1.6945
  690MOL0     H93095   9.517   7.535   1.538  0.4333  0.5411  1.4397
  690MOL0     H93096   9.407   7.431   1.462 -0.2373  0.2583 -0.4093
  690MOL0     H93097   9.451   7.447   1.770  0.5150 -0.3602  0.3295
  690MOL0     H93098   9.358   7.324   1.688 -0.9368  0.4094 -0.3864
  690MOL0     H93099   9.232   7.537   1.782 -2.2234 -2.0926 -0.5116
  690MOL0     H93100   9.316   7.625   1.650  0.3380  0.4075  2.0372
  690MOL0     H93101   9.200   7.620   1.417 -0.5282  2.4085  1.2942
  690MOL0     H93102   8.942   7.666   1.314 -3.8092 -0.0958 -4.8321
  690MOL0     H93103   8.972   7.511   1.237  2.7814 -0.3601  1.3479
  690MOL0     H93104   8.763   7.430   1.327  1.2813 -0.0110 -1.5372
  690MOL0     H93105   8.736   7.560   1.444 -1.9341  2.2507 -1.5683
  690MOL0     H93106   8.706   7.600   1.162  0.2017 -2.0588  0.8736
  690MOL0     H93107   8.736   7.723   1.284  2.3294  0.2296  1.4486
  690MOL0     H93108   8.540   7.626   1.414 -1.1818 -2.3083  0.6677
  690MOL0     H93109   8.503   7.512   1.293 -0.9519  0.1657 -2.1037
  690MOL0     H93110   8.455   7.502   1.075 -0.3651  0.3367 -1.0916
  690MOL0     H93111   8.341   7.494   0.852 -3.3340 -0.1673  1.3823
  690MOL0     H93112   8.476   7.790   0.498 -0.0134  2.1134 -0.7951
  690MOL0     H93113   8.451   7.884   0.272 -3.5852  3.5106 -0.0688
  690MOL0     H93114   8.400   7.937   0.051 -1.1694  0.1156 -0.5083
  690MOL0     H93115   8.453   7.756   0.016  0.7598  0.6783 -2.5249
  690MOL0     H93116   8.250   7.772  -0.152 -0.4949 -0.6837  1.2249
  690MOL0     H93117   8.260   7.935  -0.119 -0.6478 -0.2896  3.3669
  690MOL0     H93118   8.493   7.949  -0.200  0.9521 -1.8177  2.0520
  690MOL0     H93119   8.476   7.777  -0.258 -2.5102 -0.5955 -2.9906
  690MOL0     H93120   8.274   7.869  -0.400  0.4257 -1.8681  0.7407
  690MOL0     H93121   8.445   7.891  -0.453 -1.8347 -1.3057 -1.6483
  690MOL0     H93122   8.463   8.101  -0.411  0.2524 -0.1467 -0.6495
  690MOL0     H93123   8.323   8.101  -0.292  0.4818 -1.2109  0.6094
  690MOL0     H93124   8.283   8.226  -0.522 -0.4998 -0.7677 -2.6181
  690MOL0     H93125   8.309   8.082  -0.608 -3.1410  2.9586 -1.8160
  690MOL0     H93126   8.106   8.082  -0.385 -3.5389 -0.7099 -0.0021
  690MOL0     H93127   8.087   7.989  -0.534 -2.8213  1.6320 -1.3618
  690MOL0     H93128   7.932   8.162  -0.545 -0.7825  3.4546  0.7679
  690MOL0     H93129   8.031   8.283  -0.483 -2.6229  2.1672 -1.7880
  690MOL0     H93130   8.090   7.663   0.217 -0.3917  1.1155  0.5594
  690MOL0     H93131   8.114   7.566   0.450  2.1556 -1.3305  0.0391
  690MOL0     H93132   8.208   7.896   0.906 -1.4743  0.6761  1.6751
  690MOL0     H93133   8.345   7.906   1.114 -1.9462  0.5121  0.6101
  690MOL0     H93134  10.054   7.120   1.577 -1.0497 -3.9800 -1.4339
  690MOL0     H93135  10.251   7.215   1.684 -2.0813  1.9498  0.0104
  690MOL0     H93136  10.425   7.282   2.192 -1.4667  0.3960 -0.4074
  690MOL0     H93137  10.658   7.338   2.308 -2.2524 -2.5812  0.9394
  690MOL0     H93138  10.856   7.217   2.343  1.6130 -1.1352  1.0774
  690MOL0     H93139  11.000   7.308   2.316 -0.8101  2.3759 -2.5353
  690MOL0     H93140  10.888   7.090   2.118  1.1163  1.0563 -2.2614
  690MOL0     H93141  11.007   7.053   2.238 -2.4246 -2.8900 -1.3385
  690MOL0     H93142  11.135   7.254   2.118  1.5113 -0.8202  0.1630
  690MOL0     H93143  11.037   7.217   1.977  0.7643  0.7918  0.9319
  690MOL0     H93144  11.239   7.027   2.112 -0.2035 -1.0002 -0.1553
  690MOL0     H93145  11.105   6.982   2.003 -1.0543 -0.1540  1.9272
  690MOL0     H93146  11.344   7.131   1.709 -0.7750 -0.3232  0.5768
  690MOL0     H93147  10.823   7.363   1.932 -1.6064 -0.0821 -1.2836
  690MOL0     H93148  10.539   7.266   1.745  0.6891  4.0931 -0.0128
  690MOL0     H93149  10.695   7.318   1.726 -3.2705  0.0170 -1.0729
  690MOL0     H93150  10.675   7.148   1.775  2.1495 -0.6874 -0.3363
  691MOL0     O93151   7.635   5.054   8.258 -0.1088 -0.1511 -0.3529
  691MOL0     C93152   7.744   5.018   8.305 -0.0339  0.5370 -0.3766
  691MOL0     O93153   7.826   4.939   8.241 -0.5025  0.6035  0.5253
  691MOL0     C93154   7.804   4.886   8.116  0.4914 -0.2130 -0.1143
  691MOL0     C93155   7.839   4.968   8.013 -0.3857  0.3805  0.9232
  691MOL0     C93156   7.833   4.919   7.881  0.6842 -0.2773  0.0696
  691MOL0     C93157   7.764   4.796   7.858 -0.7807 -0.1174 -0.6321
  691MOL0     O93158   7.757   4.755   7.728 -0.3012 -0.6845 -0.6555
  691MOL0     C93159   7.687   4.640   7.676 -1.1672  0.0897  0.0521
  691MOL0     C93160   7.539   4.657   7.708  0.3585 -1.4404  0.5350
  691MOL0     C93161   7.440   4.562   7.655 -0.8736  0.5822  0.4364
  691MOL0     C93162   7.498   4.469   7.538  0.7274  0.8547 -0.4542
  691MOL0     C93163   7.400   4.385   7.458 -0.3485 -1.1155  1.1854
  691MOL0     C93164   7.317   4.285   7.538  0.9300 -0.2331  0.3777
  691MOL0     C93165   7.257   4.183   7.452 -1.2338  0.6833  0.3862
  691MOL0     C93166   7.149   4.095   7.510  0.4155  0.4686 -0.1569
  691MOL0     N93167   7.124   3.991   7.416 -0.1950 -0.8709  0.5982
  691MOL0     C93168   7.213   3.901   7.362 -1.0227 -0.8157 -0.3613
  691MOL0     C93169   7.134   3.803   7.298  1.5722  0.5876 -0.4678
  691MOL0     C93170   7.175   3.691   7.217  0.3360  0.6937 -0.1808
  691MOL0     C93171   7.060   3.645   7.123 -0.2248 -0.4461  0.0953
  691MOL0     C93172   7.111   3.541   7.019  0.4372 -0.6755 -0.3056
  691MOL0     C93173   7.105   3.397   7.072  1.0138 -1.2935  0.5709
  691MOL0     O93174   7.130   3.292   6.981  0.5030 -0.6556  0.2596
  691MOL0     C93175   7.250   3.284   6.912 -0.6183 -1.0239  0.6283
  691MOL0     C93176   7.373   3.349   6.943 -0.7984  0.4838 -0.2439
  691MOL0     C93177   7.491   3.340   6.867  0.1576  0.5776 -0.5397
  691MOL0     C93178   7.477   3.261   6.754 -0.1289  0.1984  0.6839
  691MOL0     C93179   7.592   3.252   6.657  0.8940 -0.6300 -0.7126
  691MOL0     O93180   7.716   3.292   6.699 -0.2351  0.2030  0.6518
  691MOL0     C93181   7.828   3.289   6.620 -0.6655 -0.3714 -0.0148
  691MOL0     C93182   7.928   3.379   6.668  0.0353 -1.4587 -0.1740
  691MOL0     C93183   8.052   3.394   6.606 -0.7485  0.6635  0.0130
  691MOL0     C93184   8.092   3.304   6.507 -0.0218  0.5911  0.9657
  691MOL0     O93185   8.204   3.312   6.433 -0.5189  0.8222  1.0064
  691MOL0     C93186   8.239   3.447   6.397 -0.8277 -0.0483 -0.0050
  691MOL0     C93187   8.336   3.439   6.286 -0.3003  1.0670  0.6882
  691MOL0     C93188   8.470   3.392   6.331 -0.9948  0.1263 -0.5370
  691MOL0     C93189   8.582   3.405   6.229 -0.2513 -0.9194  0.0646
  691MOL0     C93190   8.705   3.359   6.302 -0.3562  0.1467 -0.0616
  691MOL0     C93191   8.834   3.436   6.256  0.4994 -0.7767 -0.3149
  691MOL0     C93192   8.854   3.429   6.100 -1.0549 -0.4515  0.6261
  691MOL0     C93193   8.860   3.296   6.030 -0.2362 -0.0700  0.3303
  691MOL0    Cl93194   8.876   3.324   5.852 -0.0265 -0.2472  0.2128
  691MOL0     C93195   7.996   3.210   6.465 -0.7657  1.1837 -0.0520
  691MOL0     C93196   7.867   3.202   6.513 -0.6264 -0.3080  1.4715
  691MOL0     O93197   7.560   3.214   6.544 -0.5198 -0.1420  0.0146
  691MOL0     C93198   7.354   3.192   6.711 -0.1671  0.1441  0.5386
  691MOL0     C93199   7.243   3.210   6.790 -0.5944 -1.0298  0.2306
  691MOL0     N93200   6.997   3.840   7.332 -0.1993  0.0768  1.6465
  691MOL0     N93201   7.004   3.941   7.404  0.7697  0.0621  0.3410
  691MOL0     C93202   7.725   4.714   7.965  0.0252 -0.4015 -0.3240
  691MOL0     C93203   7.749   4.758   8.100 -0.5497 -0.3613  0.1936
  691MOL0     C93204   7.778   5.057   8.444 -0.0063  0.1654  0.2640
  691MOL0     C93205   7.892   4.993   8.505 -0.1062 -0.3423 -0.1665
  691MOL0     C93206   7.912   4.990   8.643  0.2190 -1.0885 -0.0137
  691MOL0     C93207   7.828   5.073   8.723 -0.7519 -0.0754 -0.6282
  691MOL0     O93208   7.840   5.085   8.863  0.9813 -0.3759 -1.0709
  691MOL0     C93209   7.909   4.991   8.947  1.1685  0.2759  0.9102
  691MOL0     C93210   7.814   4.873   8.988 -0.2539  0.1924 -1.1044
  691MOL0     C93211   7.869   4.783   9.104 -0.7004  0.3040  0.2317
  691MOL0     C93212   7.774   4.666   9.126  0.0081  0.2608 -0.1962
  691MOL0     C93213   7.828   4.558   9.211  0.1867  1.1116 -0.0283
  691MOL0     C93214   7.868   4.456   9.265 -0.5964 -0.0219  0.6679
  691MOL0     C93215   7.740   5.155   8.666 -0.2508 -1.0615  0.6568
  691MOL0     C93216   7.710   5.153   8.522 -0.2413  0.1677  0.6470
  691MOL0     C93217   7.595   5.238   8.480  0.6506 -0.0647  0.3693
  691MOL0     H93218   7.878   5.067   8.036  0.4478  0.9120 -2.1737
  691MOL0     H93219   7.846   4.977   7.790 -0.4335  2.1635  1.3406
  691MOL0     H93220   7.710   4.630   7.570 -0.6775  1.7579 -0.0254
  691MOL0     H93221   7.737   4.552   7.718 -1.4198 -0.3738 -0.6178
  691MOL0     H93222   7.500   4.742   7.650  1.4042 -3.0181 -2.7286
  691MOL0     H93223   7.525   4.670   7.816  2.6833 -1.5855  0.9092
  691MOL0     H93224   7.351   4.615   7.619 -2.2718 -2.0002 -0.1879
  691MOL0     H93225   7.405   4.487   7.727  2.7840 -3.4238 -1.4908
  691MOL0     H93226   7.552   4.538   7.473 -0.6628  3.2313  0.7729
  691MOL0     H93227   7.562   4.394   7.586 -1.5843 -0.6619  0.4298
  691MOL0     H93228   7.326   4.449   7.408  1.8001  0.4241 -0.1885
  691MOL0     H93229   7.454   4.308   7.401  0.7670  0.1050  0.5327
  691MOL0     H93230   7.388   4.241   7.608  0.7605 -0.3637  0.4676
  691MOL0     H93231   7.245   4.340   7.600  0.5626  0.0282 -0.2676
  691MOL0     H93232   7.343   4.122   7.422 -2.0868  0.8373 -2.7383
  691MOL0     H93233   7.226   4.238   7.363  0.2500  2.3557  0.8330
  691MOL0     H93234   7.180   4.040   7.599  1.4364 -2.1618 -1.9818
  691MOL0     H93235   7.059   4.156   7.523  2.5910  3.8928 -0.0883
  691MOL0     H93236   7.319   3.911   7.384 -1.5418 -2.4011  3.6343
  691MOL0     H93237   7.268   3.721   7.168  2.3473 -4.6287 -0.3615
  691MOL0     H93238   7.203   3.602   7.274 -2.0609 -1.0550 -1.5076
  691MOL0     H93239   6.984   3.601   7.188  0.7686 -3.3365 -0.5638
  691MOL0     H93240   7.020   3.733   7.072 -1.5527  0.6858  2.8886
  691MOL0     H93241   7.216   3.563   6.998  0.9656 -0.9868  1.7835
  691MOL0     H93242   7.055   3.551   6.925 -0.7546  1.8562  0.5897
  691MOL0     H93243   7.002   3.384   7.105  0.2326 -0.2267 -1.3279
  691MOL0     H93244   7.182   3.382   7.149  1.2207 -1.9448  0.2444
  691MOL0     H93245   7.376   3.419   7.026 -1.3051  1.8637 -1.3394
  691MOL0     H93246   7.582   3.394   6.890 -0.3830  2.2570 -2.1013
  691MOL0     H93247   7.903   3.446   6.750  2.5737  1.7859 -1.7998
  691MOL0     H93248   8.118   3.478   6.624 -0.7304  1.1717 -2.1576
  691MOL0     H93249   8.148   3.489   6.352  0.7229 -0.8265 -4.3982
  691MOL0     H93250   8.281   3.514   6.472 -0.7460  2.1459 -1.9084
  691MOL0     H93251   8.290   3.376   6.209  1.5160 -2.6889  2.4154
  691MOL0     H93252   8.349   3.541   6.248  2.6919  0.7494  0.6078
  691MOL0     H93253   8.511   3.435   6.423  2.9396 -2.5120 -0.7817
  691MOL0     H93254   8.458   3.286   6.354 -1.0763 -0.1501 -1.8328
  691MOL0     H93255   8.595   3.512   6.209  2.0096 -1.4510 -1.5367
  691MOL0     H93256   8.554   3.360   6.134 -1.6091  1.2939 -0.6606
  691MOL0     H93257   8.717   3.258   6.260 -2.3201  0.1844 -0.7779
  691MOL0     H93258   8.717   3.344   6.410  6.4538  0.5254 -0.2876
  691MOL0     H93259   8.826   3.544   6.275  0.4936 -0.5829 -1.3325
  691MOL0     H93260   8.923   3.400   6.307  2.3457  1.5500 -1.6960
  691MOL0     H93261   8.946   3.484   6.081 -1.2306 -1.0330 -2.3376
  691MOL0     H93262   8.769   3.485   6.059 -0.1024  1.0056  0.5641
  691MOL0     H93263   8.951   3.241   6.055  1.1700  0.4056 -3.1737
  691MOL0     H93264   8.776   3.231   6.057 -0.3205 -1.5826 -3.0677
  691MOL0     H93265   8.022   3.142   6.384 -2.5997  1.1476 -0.6607
  691MOL0     H93266   7.807   3.122   6.471  0.8086 -0.4290 -0.5201
  691MOL0     H93267   7.342   3.137   6.618  2.5797 -1.3328  0.9675
  691MOL0     H93268   7.142   3.176   6.768 -2.4644  3.1510  1.3098
  691MOL0     H93269   7.682   4.615   7.950 -3.5084  1.1664 -1.5489
  691MOL0     H93270   7.724   4.707   8.193 -0.7964  1.0659  0.9531
  691MOL0     H93271   7.959   4.940   8.438  0.8231  0.4982  0.0703
  691MOL0     H93272   7.987   4.927   8.690  2.8225  1.3147 -0.6532
  691MOL0     H93273   7.926   5.057   9.033  2.0674  0.7879  0.3591
  691MOL0     H93274   8.007   4.969   8.903  0.2074 -0.6451 -0.8384
  691MOL0     H93275   7.799   4.814   8.897  0.0860  0.7266 -1.5155
  691MOL0     H93276   7.714   4.915   9.005 -0.8213 -1.1135 -1.0753
  691MOL0     H93277   7.890   4.837   9.197  1.6317  1.3335 -0.7972
  691MOL0     H93278   7.967   4.750   9.068 -0.7124  0.1607  0.3279
  691MOL0     H93279   7.679   4.702   9.166 -0.1696 -1.0040  0.5660
  691MOL0     H93280   7.751   4.631   9.025  0.3905  2.2840 -1.0399
  691MOL0     H93281   7.910   4.372   9.316  1.4485 -0.9015 -2.2184
  691MOL0     H93282   7.702   5.227   8.738 -0.1033  1.6965 -1.8014
  691MOL0     H93283   7.622   5.305   8.398 -0.0476 -0.5526 -0.2844
  691MOL0     H93284   7.508   5.181   8.445  1.1277 -0.1215 -0.7711
  691MOL0     H93285   7.553   5.289   8.566  1.7036 -2.8187  2.6820
  692MOL0     O93286   1.123   6.936  10.835  0.0108  0.3507 -0.9719
  692MOL0     C93287   1.111   7.004  10.936  0.0203  0.2542 -0.1761
  692MOL0     O93288   1.219   7.075  10.985 -0.6116 -0.1259  0.6818
  692MOL0     C93289   1.310   7.104  10.882  0.2116 -0.1821 -1.0492
  692MOL0     C93290   1.412   7.020  10.835  0.0035 -0.1329 -0.4849
  692MOL0     C93291   1.499   7.069  10.735  0.2021  0.4786 -0.2254
  692MOL0     C93292   1.492   7.197  10.682  0.5249 -0.0863  0.3377
  692MOL0     O93293   1.587   7.235  10.584 -0.6331 -0.0700 -1.8929
  692MOL0     C93294   1.575   7.361  10.526  0.0756  0.5182  0.3118
  692MOL0     C93295   1.669   7.367  10.403  0.2319  0.3196  0.3004
  692MOL0     C93296   1.815   7.416  10.430  0.2863  0.0588 -0.0395
  692MOL0     C93297   1.820   7.565  10.478 -0.7265 -0.2483 -0.4266
  692MOL0     C93298   1.956   7.584  10.551  1.1123 -0.1948 -0.6100
  692MOL0     C93299   2.008   7.725  10.536  0.3238  0.6628 -0.0797
  692MOL0     C93300   2.129   7.751  10.627  0.0535  0.7850  0.4902
  692MOL0     C93301   2.261   7.697  10.573  0.2871  0.3917  0.0939
  692MOL0     N93302   2.386   7.709  10.654  0.0768  0.2802  0.4029
  692MOL0     C93303   2.393   7.667  10.794  0.3234 -0.0812  0.5309
  692MOL0     C93304   2.516   7.704  10.841  0.3288 -0.1031  0.6421
  692MOL0     C93305   2.547   7.716  10.991 -0.4919 -0.0176 -0.7538
  692MOL0     C93306   2.443   7.811  11.067 -0.0746  0.5691 -0.8017
  692MOL0     C93307   2.486   7.828  11.208 -0.9565 -0.0303 -0.6136
  692MOL0     C93308   2.389   7.916  11.286  0.2105 -0.2522  1.1449
  692MOL0     O93309   2.397   8.055  11.247 -0.5470  0.2090 -0.3864
  692MOL0     C93310   2.324   8.152  11.302  0.3841 -0.8532  0.1840
  692MOL0     C93311   2.238   8.137  11.405  0.0353 -0.1003  0.2081
  692MOL0     C93312   2.160   8.244  11.460 -0.1997  0.2523  0.2452
  692MOL0     C93313   2.173   8.369  11.398 -0.4878 -0.8043 -1.1292
  692MOL0     C93314   2.099   8.482  11.453 -0.2749  0.3640  0.1110
  692MOL0     O93315   2.008   8.463  11.555  0.0605  0.9713 -0.5486
  692MOL0     C93316   1.911   8.555  11.585 -0.2208 -0.5207 -0.5479
  692MOL0     C93317   1.932   8.689  11.612 -0.2931 -0.2849 -0.8577
  692MOL0     C93318   1.820   8.771  11.646 -0.2205 -0.8118  0.3186
  692MOL0     C93319   1.695   8.715  11.661 -0.4653 -0.1753  0.4629
  692MOL0     O93320   1.582   8.788  11.689 -0.1274 -0.2971  0.1654
  692MOL0     C93321   1.565   8.926  11.662 -0.9110 -0.1504  0.4743
  692MOL0     C93322   1.417   8.963  11.654  0.0266  0.1324  0.5583
  692MOL0     C93323   1.358   8.955  11.804 -0.0089  0.0851  0.0633
  692MOL0     C93324   1.210   9.001  11.817 -0.2920  0.0519 -0.5884
  692MOL0     C93325   1.200   9.154  11.808 -1.3553 -0.4296  0.3668
  692MOL0     C93326   1.069   9.187  11.725  0.1001 -0.8226 -0.5531
  692MOL0     C93327   1.056   9.337  11.696  0.3324 -0.7100 -0.6654
  692MOL0     C93328   1.073   9.347  11.540  0.5633 -0.0699 -0.7744
  692MOL0    Cl93329   1.253   9.323  11.499 -0.7164 -0.2793  0.4205
  692MOL0     C93330   1.674   8.588  11.636 -0.0610 -0.0098  1.3513
  692MOL0     C93331   1.782   8.506  11.607 -0.2261  0.0436  0.0873
  692MOL0     O93332   2.122   8.600  11.405 -0.1480  0.7838  0.0570
  692MOL0     C93333   2.258   8.388  11.291  0.2900  0.4776  0.0658
  692MOL0     C93334   2.337   8.276  11.248  0.1547 -0.5632  0.3382
  692MOL0     N93335   2.573   7.781  10.734  0.6066  0.2648  0.1298
  692MOL0     N93336   2.495   7.782  10.626 -0.0214  0.7019  0.2482
  692MOL0     C93337   1.401   7.289  10.742 -0.4809  1.2004  0.6316
  692MOL0     C93338   1.315   7.235  10.836 -0.6350 -0.8833 -0.6862
  692MOL0     C93339   0.989   6.989  11.020 -0.7855  0.0246 -1.1983
  692MOL0     C93340   0.904   6.880  11.011  0.5718 -0.0012 -0.0663
  692MOL0     C93341   0.799   6.877  11.102  0.8621 -0.3196  0.1742
  692MOL0     C93342   0.758   6.969  11.201 -0.6782  0.9820  1.1197
  692MOL0     O93343   0.648   6.955  11.289  0.0219 -0.6175  0.4435
  692MOL0     C93344   0.605   6.820  11.323  0.0345  0.0146  0.4005
  692MOL0     C93345   0.485   6.853  11.410  0.1660  0.1997  0.1662
  692MOL0     C93346   0.501   6.956  11.521  0.1589 -0.1780 -0.5352
  692MOL0     C93347   0.377   6.976  11.603  0.4052  0.2703  0.3528
  692MOL0     C93348   0.372   7.078  11.705 -0.2581  0.4330  0.1927
  692MOL0     C93349   0.360   7.180  11.780  0.4501  0.6648  0.2646
  692MOL0     C93350   0.846   7.086  11.212 -0.3943  0.2117 -1.1394
  692MOL0     C93351   0.953   7.095  11.119 -0.0892  0.6937 -0.2692
  692MOL0     C93352   1.036   7.225  11.132  0.7988  0.1840  1.2532
  692MOL0     H93353   1.416   6.914  10.860 -1.1041  0.2190  1.4296
  692MOL0     H93354   1.559   6.991  10.689 -0.1670 -1.6088  2.5737
  692MOL0     H93355   1.474   7.378  10.488  0.4962  0.1181 -1.0417
  692MOL0     H93356   1.601   7.441  10.596 -1.7354  0.6922  0.8287
  692MOL0     H93357   1.616   7.428  10.329  0.0392  1.9804  1.7389
  692MOL0     H93358   1.666   7.272  10.349 -2.0994  0.1885  0.5488
  692MOL0     H93359   1.856   7.414  10.329 -2.4244  1.4967 -1.2911
  692MOL0     H93360   1.853   7.345  10.505 -4.0432 -2.0401  0.5182
  692MOL0     H93361   1.814   7.621  10.384 -0.3270  0.8727  0.1985
  692MOL0     H93362   1.737   7.594  10.543  0.3744  2.1439  0.0271
  692MOL0     H93363   1.938   7.547  10.652 -0.7020 -0.1355 -0.8876
  692MOL0     H93364   2.029   7.516  10.505  0.0124 -1.8471  0.0047
  692MOL0     H93365   2.038   7.742  10.433  3.3819  1.4670  0.8291
  692MOL0     H93366   1.925   7.785  10.574  0.2592  0.9428 -0.6634
  692MOL0     H93367   2.095   7.713  10.724 -3.0630 -0.7763 -1.0398
  692MOL0     H93368   2.137   7.860  10.622 -0.5346  0.8174  0.0629
  692MOL0     H93369   2.255   7.591  10.547  1.7378 -0.4670  2.8685
  692MOL0     H93370   2.281   7.761  10.487 -1.1426  3.7043  2.0505
  692MOL0     H93371   2.310   7.626  10.851 -1.8941 -1.0341 -3.0759
  692MOL0     H93372   2.558   7.618  11.038 -1.3349  0.0249 -0.4535
  692MOL0     H93373   2.650   7.751  11.000 -1.1332  1.7530  0.2256
  692MOL0     H93374   2.432   7.913  11.031 -0.6726  0.9840  0.5013
  692MOL0     H93375   2.340   7.777  11.075 -0.7433  2.8709  1.5623
  692MOL0     H93376   2.592   7.853  11.213 -0.7990 -0.7750 -0.0163
  692MOL0     H93377   2.478   7.736  11.268  0.0597  0.0010 -0.4223
  692MOL0     H93378   2.394   7.895  11.394  1.1531 -0.4849  1.0585
  692MOL0     H93379   2.286   7.890  11.260  0.4293  0.7519 -0.9072
  692MOL0     H93380   2.223   8.040  11.451 -1.9763  1.0372  2.1448
  692MOL0     H93381   2.099   8.228  11.548  1.9080 -2.3669  1.3954
  692MOL0     H93382   2.035   8.721  11.615  0.1141 -1.5601 -0.8106
  692MOL0     H93383   1.823   8.876  11.672  2.3047 -1.0026  1.0549
  692MOL0     H93384   1.614   8.995  11.731 -0.5437 -1.3357  1.4182
  692MOL0     H93385   1.616   8.937  11.566 -1.0049  0.9542  0.5320
  692MOL0     H93386   1.406   9.058  11.601 -0.4578 -0.2821 -0.1100
  692MOL0     H93387   1.386   8.890  11.578  0.3858 -0.3363  0.8589
  692MOL0     H93388   1.362   8.848  11.827 -1.8886  0.5043  2.9742
  692MOL0     H93389   1.431   8.999  11.872 -0.8371 -1.0314  1.7744
  692MOL0     H93390   1.150   8.959  11.899  2.4985 -2.2242  0.4742
  692MOL0     H93391   1.156   8.963  11.730  1.0889  3.2909 -3.0512
  692MOL0     H93392   1.279   9.197  11.748  0.7409 -2.4837  1.4883
  692MOL0     H93393   1.196   9.194  11.910  2.6903  2.6542 -0.4423
  692MOL0     H93394   1.070   9.122  11.637 -1.4596  1.5548 -2.4615
  692MOL0     H93395   0.983   9.156  11.785 -2.2107  2.2671 -1.9731
  692MOL0     H93396   1.131   9.399  11.745 -0.1046  0.0916 -1.0013
  692MOL0     H93397   0.956   9.370  11.726  0.6039 -2.9673  3.4631
  692MOL0     H93398   1.009   9.274  11.490 -2.5171  0.5131  2.0365
  692MOL0     H93399   1.040   9.440  11.493 -0.4119 -0.3099 -0.5742
  692MOL0     H93400   1.575   8.545  11.624  0.1340 -0.2526  0.5081
  692MOL0     H93401   1.757   8.401  11.596 -0.8090  0.1983 -0.1112
  692MOL0     H93402   2.268   8.486  11.245  2.9502  0.0075 -0.5403
  692MOL0     H93403   2.401   8.291  11.162  0.7254 -1.4092  0.6112
  692MOL0     H93404   1.388   7.391  10.709 -1.2530  0.7969 -0.3529
  692MOL0     H93405   1.246   7.302  10.887  0.6358  0.3727 -0.5866
  692MOL0     H93406   0.922   6.804  10.936  3.7788  1.8508 -1.3514
  692MOL0     H93407   0.715   6.809  11.095  0.4826  0.2757 -1.3948
  692MOL0     H93408   0.684   6.760  11.367 -1.3077 -2.8942 -0.9275
  692MOL0     H93409   0.569   6.757  11.242  0.6119 -0.5362  0.5675
  692MOL0     H93410   0.443   6.757  11.440  1.9088 -0.8929 -0.7349
  692MOL0     H93411   0.416   6.905  11.343 -0.3184  3.4934  2.9041
  692MOL0     H93412   0.526   7.056  11.484  1.7408 -0.9081 -1.5785
  692MOL0     H93413   0.595   6.931  11.571  1.1340  2.1264 -1.0423
  692MOL0     H93414   0.288   7.005  11.546  0.0734  0.1528  0.8078
  692MOL0     H93415   0.347   6.884  11.654  3.2055 -0.5327  0.6881
  692MOL0     H93416   0.357   7.276  11.825 -2.8795  0.2370  1.1571
  692MOL0     H93417   0.825   7.165  11.283 -1.2224 -0.0661 -1.0583
  692MOL0     H93418   1.082   7.257  11.038  0.2488 -0.5672  0.7096
  692MOL0     H93419   0.977   7.307  11.173  0.8536  1.9886 -1.9575
  692MOL0     H93420   1.109   7.187  11.204 -1.3520 -5.4907  0.9799
  693MOL0     O93421  10.919   7.158   4.448 -0.5316  0.3745  0.3332
  693MOL0     C93422  10.973   7.254   4.503  0.4250 -0.5465 -0.8313
  693MOL0     O93423  11.060   7.344   4.438 -0.2379 -0.9750 -0.3136
  693MOL0     C93424  11.126   7.311   4.328 -0.5642  0.3434 -0.3617
  693MOL0     C93425  11.254   7.339   4.332 -0.2647  0.0487  0.6172
  693MOL0     C93426  11.338   7.325   4.216  0.4332 -0.1250 -0.5324
  693MOL0     C93427  11.283   7.286   4.098  0.0917  1.0024  0.0079
  693MOL0     O93428  11.373   7.266   3.993  0.0020 -0.2473 -1.0042
  693MOL0     C93429  11.307   7.284   3.863 -0.3921 -0.0657  0.5250
  693MOL0     C93430  11.272   7.146   3.790  0.4328 -0.0914 -0.7082
  693MOL0     C93431  11.388   7.052   3.758  1.0706 -0.0611  0.6953
  693MOL0     C93432  11.333   6.937   3.662 -0.9583 -0.0717 -0.6390
  693MOL0     C93433  11.433   6.859   3.571 -1.1010 -0.3748 -1.2484
  693MOL0     C93434  11.584   6.842   3.626  0.4382  0.4781 -1.0107
  693MOL0     C93435  11.673   6.786   3.510 -1.4469  0.2656 -0.5331
  693MOL0     C93436  11.800   6.731   3.570  0.9479  1.3989 -0.3889
  693MOL0     N93437  11.894   6.828   3.626 -0.1040 -0.2275  0.2065
  693MOL0     C93438  11.900   6.892   3.741  0.0830 -0.1426 -0.0627
  693MOL0     C93439  12.017   6.958   3.735  0.2124  0.2793 -0.5902
  693MOL0     C93440  12.077   7.033   3.849 -0.9574 -0.0381  0.3223
  693MOL0     C93441  12.202   6.953   3.912 -0.3469 -0.7290 -0.3029
  693MOL0     C93442  12.149   6.851   4.020  0.3131  0.6768  0.7915
  693MOL0     C93443  12.256   6.759   4.091 -0.1180 -0.0631 -0.5806
  693MOL0     O93444  12.188   6.679   4.197  0.0468  1.0140  0.7271
  693MOL0     C93445  12.261   6.567   4.226 -0.8965  0.5748  0.4278
  693MOL0     C93446  12.221   6.445   4.186  0.8693  0.4804  0.1162
  693MOL0     C93447  12.297   6.332   4.206  0.7370 -0.3890 -0.6943
  693MOL0     C93448  12.411   6.342   4.275 -0.4271  0.1394  0.1752
  693MOL0     C93449  12.480   6.218   4.310 -0.0500  0.0528  0.9258
  693MOL0     O93450  12.407   6.109   4.286 -0.5723  0.0306  0.1955
  693MOL0     C93451  12.468   5.988   4.313  0.0513 -1.2781  0.3068
  693MOL0     C93452  12.592   5.941   4.264 -0.2032 -0.2750 -0.4755
  693MOL0     C93453  12.644   5.815   4.304 -1.0998 -1.1389  0.2214
  693MOL0     C93454  12.587   5.744   4.407  0.0555  0.3228 -0.9942
  693MOL0     O93455  12.641   5.639   4.474  1.2429  0.2806 -0.1276
  693MOL0     C93456  12.758   5.577   4.435  0.2888  0.1788 -0.2823
  693MOL0     C93457  12.746   5.438   4.487  0.4778 -0.0864 -0.3118
  693MOL0     C93458  12.722   5.436   4.642 -0.4086 -0.2773 -0.7448
  693MOL0     C93459  12.688   5.301   4.691 -1.1264 -0.0899  0.5003
  693MOL0     C93460  12.676   5.284   4.846  0.2387 -0.0198 -0.2486
  693MOL0     C93461  12.659   5.133   4.854 -0.1083 -0.0828 -0.1330
  693MOL0     C93462  12.637   5.085   4.991 -0.1497 -0.7613 -0.9040
  693MOL0     C93463  12.710   4.946   5.018 -0.6037 -1.1824  0.7255
  693MOL0    Cl93464  12.610   4.805   4.969 -0.0344 -0.4201 -0.0174
  693MOL0     C93465  12.463   5.780   4.443  0.2727 -0.5570  0.9544
  693MOL0     C93466  12.398   5.894   4.392 -0.1350 -0.6060  0.2985
  693MOL0     O93467  12.605   6.231   4.328 -0.1797 -0.3060  0.3233
  693MOL0     C93468  12.464   6.470   4.313  0.9324 -0.0825  0.4544
  693MOL0     C93469  12.379   6.584   4.290 -0.1519  0.3817  0.1896
  693MOL0     N93470  12.062   6.954   3.605 -0.6982  0.8946 -0.5296
  693MOL0     N93471  11.991   6.875   3.545 -0.4031  0.1258 -0.0318
  693MOL0     C93472  11.148   7.264   4.095  1.0971 -0.2511  1.2166
  693MOL0     C93473  11.064   7.282   4.204 -0.3293  0.0294  0.5376
  693MOL0     C93474  10.954   7.286   4.646 -0.1596 -0.0818 -0.7075
  693MOL0     C93475  11.001   7.407   4.694  0.9329 -1.4643 -0.4510
  693MOL0     C93476  10.954   7.458   4.814 -0.4675  0.0745  0.3604
  693MOL0     C93477  10.897   7.380   4.907  0.0178  1.3821  0.4048
  693MOL0     O93478  10.859   7.420   5.033  0.5858 -0.5608  0.5808
  693MOL0     C93479  10.847   7.564   5.056  0.0510  0.5145 -0.3110
  693MOL0     C93480  10.831   7.576   5.205  1.1331  0.4990  0.3427
  693MOL0     C93481  10.681   7.553   5.257 -0.1977 -0.3784 -0.1196
  693MOL0     C93482  10.679   7.528   5.408 -0.7306  0.0936  0.3196
  693MOL0     C93483  10.769   7.620   5.476 -0.2538  0.0350 -0.8064
  693MOL0     C93484  10.842   7.703   5.537 -0.7929 -0.4889 -0.3262
  693MOL0     C93485  10.857   7.256   4.871 -0.1041  0.1445 -1.1854
  693MOL0     C93486  10.885   7.208   4.741  0.1314  0.2607 -0.1917
  693MOL0     C93487  10.843   7.069   4.719 -0.3157 -0.0135 -0.1006
  693MOL0     H93488  11.280   7.384   4.428 -1.3156  0.0274  0.9295
  693MOL0     H93489  11.445   7.328   4.232  0.1120 -1.8010  3.0022
  693MOL0     H93490  11.221   7.350   3.870  1.8881  2.9578  3.2219
  693MOL0     H93491  11.369   7.334   3.789 -1.9901  1.3354  0.0780
  693MOL0     H93492  11.212   7.160   3.699 -0.5598  0.7862  0.0604
  693MOL0     H93493  11.204   7.089   3.854  0.8564  0.8051  0.5859
  693MOL0     H93494  11.427   7.009   3.850  0.3967 -1.7927  0.1948
  693MOL0     H93495  11.465   7.110   3.705  0.2259  0.8554  0.4255
  693MOL0     H93496  11.277   6.871   3.729 -0.8978  1.7939  1.3366
  693MOL0     H93497  11.259   6.975   3.590 -2.1948 -2.4471 -0.7262
  693MOL0     H93498  11.380   6.764   3.557 -2.3184 -0.2354  1.7340
  693MOL0     H93499  11.430   6.899   3.469 -1.6137 -0.1446 -1.1440
  693MOL0     H93500  11.630   6.932   3.666 -1.1902  0.6085  0.6601
  693MOL0     H93501  11.577   6.778   3.715  1.0849  1.2969 -0.3617
  693MOL0     H93502  11.687   6.860   3.430  0.7799  1.1159  0.5541
  693MOL0     H93503  11.621   6.699   3.470  2.5968 -2.9041  0.4081
  693MOL0     H93504  11.764   6.673   3.655 -2.3692 -0.0867 -2.5934
  693MOL0     H93505  11.857   6.666   3.503  1.7199  0.8602  0.7551
  693MOL0     H93506  11.829   6.884   3.822 -0.6618 -1.5959 -0.8316
  693MOL0     H93507  12.126   7.120   3.804 -1.4781 -0.2960 -0.7588
  693MOL0     H93508  12.008   7.055   3.931  0.0156 -2.6053  1.9340
  693MOL0     H93509  12.254   6.899   3.832  2.6651  4.0473 -1.9810
  693MOL0     H93510  12.275   7.017   3.962  0.0042  1.1668 -3.0018
  693MOL0     H93511  12.078   6.781   3.974  2.3746  1.1578 -3.6175
  693MOL0     H93512  12.091   6.909   4.093  0.5466  1.4154  0.3996
  693MOL0     H93513  12.345   6.811   4.126  1.6926 -1.5547 -2.6163
  693MOL0     H93514  12.307   6.682   4.032  1.6850 -1.0066  2.0394
  693MOL0     H93515  12.126   6.444   4.133  0.2746 -1.4603  1.1228
  693MOL0     H93516  12.271   6.237   4.160  5.2029 -1.7901 -0.8461
  693MOL0     H93517  12.644   6.003   4.191 -1.6194  0.8851 -0.5310
  693MOL0     H93518  12.728   5.775   4.248 -1.9045  0.2648 -2.1501
  693MOL0     H93519  12.778   5.574   4.327 -0.7751 -3.4559 -0.5007
  693MOL0     H93520  12.851   5.621   4.472 -0.5654  0.5385  1.5744
  693MOL0     H93521  12.662   5.392   4.434 -0.9708 -0.4216  2.0814
  693MOL0     H93522  12.833   5.376   4.463  1.3813  0.6116  1.0034
  693MOL0     H93523  12.808   5.481   4.692 -0.0505  0.1341 -1.7208
  693MOL0     H93524  12.632   5.493   4.666  1.6534  2.7752  0.3007
  693MOL0     H93525  12.773   5.241   4.660 -0.3031  1.4181 -0.2675
  693MOL0     H93526  12.605   5.270   4.627  0.0386  3.9726 -3.5208
  693MOL0     H93527  12.592   5.340   4.887  0.4448  0.0062  0.1503
  693MOL0     H93528  12.771   5.322   4.883  0.8009 -0.9405 -0.7001
  693MOL0     H93529  12.573   5.092   4.799  2.1651 -0.9016 -3.3412
  693MOL0     H93530  12.749   5.094   4.805  0.5143  1.4553 -0.2689
  693MOL0     H93531  12.531   5.075   5.015 -0.1699 -0.8533 -1.0287
  693MOL0     H93532  12.675   5.157   5.064  0.9645 -2.2197  0.0155
  693MOL0     H93533  12.808   4.941   4.970 -0.8656 -3.0778  0.3097
  693MOL0     H93534  12.728   4.948   5.126  1.1777  2.1249  0.5168
  693MOL0     H93535  12.411   5.723   4.520 -1.4674  1.6872  1.5470
  693MOL0     H93536  12.296   5.909   4.427 -0.5249 -4.7350  1.4205
  693MOL0     H93537  12.550   6.483   4.377  2.3069 -0.2570 -1.2581
  693MOL0     H93538  12.408   6.686   4.316 -1.1568  1.1504 -1.5372
  693MOL0     H93539  11.095   7.246   4.001  4.3967 -4.5284 -0.1265
  693MOL0     H93540  10.957   7.268   4.194 -0.4441  2.3099 -3.7852
  693MOL0     H93541  11.051   7.477   4.627 -3.4114  1.3065 -1.2544
  693MOL0     H93542  10.986   7.559   4.839 -3.4923  1.7728 -1.9679
  693MOL0     H93543  10.763   7.605   5.000 -0.4899 -0.2104 -0.0480
  693MOL0     H93544  10.927   7.626   5.015 -0.0760 -0.9142 -2.9233
  693MOL0     H93545  10.851   7.680   5.232 -2.4795  1.5830 -0.6098
  693MOL0     H93546  10.892   7.504   5.260 -1.0016 -2.0084 -0.3912
  693MOL0     H93547  10.643   7.468   5.199 -0.7786 -0.1482 -0.0826
  693MOL0     H93548  10.620   7.642   5.237  0.0604 -0.3341 -0.7344
  693MOL0     H93549  10.580   7.548   5.449 -0.1506  4.0879  0.1981
  693MOL0     H93550  10.716   7.427   5.429  3.1007  1.2674  0.0653
  693MOL0     H93551  10.897   7.778   5.590 -1.9587 -0.7912  1.3833
  693MOL0     H93552  10.814   7.202   4.955  0.0269  2.1659  0.2595
  693MOL0     H93553  10.927   7.012   4.678  1.0426  1.1592  0.9224
  693MOL0     H93554  10.808   7.032   4.816  1.0498  0.1004  0.4602
  693MOL0     H93555  10.760   7.054   4.650 -1.4044  2.2844  0.6173
  694MOL0     O93556   3.440   4.531   9.446  0.2689 -0.4810  1.0138
  694MOL0     C93557   3.447   4.577   9.555 -0.4628  0.0285  0.1602
  694MOL0     O93558   3.564   4.590   9.632  0.0668 -0.3047 -0.1757
  694MOL0     C93559   3.675   4.561   9.579 -0.8870 -0.1395  0.0710
  694MOL0     C93560   3.729   4.437   9.576 -0.0176  0.0480 -0.4613
  694MOL0     C93561   3.836   4.415   9.491  0.3674  0.2558 -0.1537
  694MOL0     C93562   3.900   4.508   9.412 -0.7903 -0.3110  0.1289
  694MOL0     O93563   4.004   4.457   9.330 -0.5769  0.1777 -1.0051
  694MOL0     C93564   4.113   4.532   9.306  0.5354 -0.7084 -0.0757
  694MOL0     C93565   4.161   4.483   9.168 -0.6552 -0.6644 -0.2815
  694MOL0     C93566   4.049   4.523   9.067 -0.1152 -0.8298 -1.3340
  694MOL0     C93567   4.071   4.449   8.942 -0.2538  0.1994 -0.3115
  694MOL0     C93568   4.200   4.460   8.860 -1.4170 -0.0193  0.3148
  694MOL0     C93569   4.190   4.556   8.745  0.0072  0.5536 -0.1862
  694MOL0     C93570   4.112   4.504   8.619  0.6263  0.3422 -0.0978
  694MOL0     C93571   4.143   4.598   8.501  0.7357 -0.4187  0.5999
  694MOL0     N93572   4.109   4.523   8.373 -0.9514 -0.7520  0.3158
  694MOL0     C93573   3.996   4.547   8.298 -0.0899  0.0854 -0.2795
  694MOL0     C93574   4.018   4.498   8.178 -0.0899  1.3713  0.0443
  694MOL0     C93575   3.928   4.497   8.059  0.4461 -1.2902 -0.3260
  694MOL0     C93576   3.876   4.362   8.035 -0.1996  0.1984 -0.1387
  694MOL0     C93577   3.774   4.348   7.917 -0.0655  0.0091 -1.2372
  694MOL0     C93578   3.664   4.451   7.928  0.1261  0.5659  0.1399
  694MOL0     O93579   3.707   4.568   7.867 -0.2195  0.6722 -0.2145
  694MOL0     C93580   3.686   4.693   7.929  0.4434  0.5263  0.1513
  694MOL0     C93581   3.731   4.802   7.861  0.1898 -0.3967  0.1007
  694MOL0     C93582   3.708   4.934   7.904 -0.1898 -0.3977 -0.2434
  694MOL0     C93583   3.650   4.961   8.034 -0.1735  0.8572 -0.1350
  694MOL0     C93584   3.639   5.095   8.095 -0.6227  0.1818 -0.7365
  694MOL0     O93585   3.686   5.200   8.026  0.8057  0.0407 -0.0119
  694MOL0     C93586   3.713   5.321   8.086  0.8180 -1.4499 -0.1433
  694MOL0     C93587   3.846   5.359   8.097  0.5789 -1.0448 -0.8462
  694MOL0     C93588   3.871   5.477   8.162  0.1509  0.8798  0.9635
  694MOL0     C93589   3.776   5.562   8.213  0.8688  0.3822  0.0578
  694MOL0     O93590   3.829   5.677   8.260 -0.3130  0.2795 -0.2407
  694MOL0     C93591   3.778   5.805   8.216 -1.1189 -0.5786  0.8145
  694MOL0     C93592   3.902   5.893   8.251 -0.6385 -0.0692  0.4401
  694MOL0     C93593   3.860   6.035   8.235 -0.1658  0.4041  0.0280
  694MOL0     C93594   3.832   6.077   8.082 -1.3145  0.1526 -0.4010
  694MOL0     C93595   3.785   6.223   8.079 -0.0018  0.1205 -0.1345
  694MOL0     C93596   3.742   6.255   7.934 -0.2233 -0.2170 -0.2495
  694MOL0     C93597   3.734   6.412   7.917  0.5448 -0.1566 -0.7087
  694MOL0     C93598   3.697   6.450   7.772  0.2171  0.1871 -0.2676
  694MOL0    Cl93599   3.621   6.608   7.744  0.2802  0.1921  0.2574
  694MOL0     C93600   3.643   5.531   8.196  0.3073 -0.3215  0.1571
  694MOL0     C93601   3.611   5.405   8.146  0.2098  0.8512  0.2658
  694MOL0     O93602   3.603   5.100   8.213 -0.0320  0.0658  0.2202
  694MOL0     C93603   3.608   4.850   8.103  0.0264  0.5716  0.7179
  694MOL0     C93604   3.613   4.722   8.048 -0.2994 -0.3013  0.8802
  694MOL0     N93605   4.147   4.440   8.174  1.4896  0.4214 -0.4564
  694MOL0     N93606   4.203   4.467   8.288  0.9363 -0.6470 -0.9168
  694MOL0     C93607   3.857   4.639   9.425 -0.4253  0.1081  0.6619
  694MOL0     C93608   3.735   4.661   9.497  0.1941  0.5308  0.2273
  694MOL0     C93609   3.323   4.607   9.600 -0.0153  0.1236 -0.8396
  694MOL0     C93610   3.273   4.550   9.717 -0.4929  0.6650  0.0261
  694MOL0     C93611   3.148   4.582   9.778  0.6187  0.0501 -0.4828
  694MOL0     C93612   3.059   4.664   9.710 -0.4434 -0.5287  0.1685
  694MOL0     O93613   2.944   4.707   9.762 -0.4179 -0.9769 -0.0395
  694MOL0     C93614   2.844   4.611   9.788  0.5426  0.6019 -0.0246
  694MOL0     C93615   2.718   4.615   9.702  0.4005  0.5194  0.4695
  694MOL0     C93616   2.598   4.547   9.782  0.0608 -0.8626  0.2738
  694MOL0     C93617   2.616   4.398   9.791 -0.6612  0.3992 -0.3307
  694MOL0     C93618   2.505   4.336   9.871 -0.7849 -0.9242 -0.8836
  694MOL0     C93619   2.421   4.277   9.940  0.2763  0.2463 -1.3537
  694MOL0     C93620   3.106   4.719   9.592 -0.2218  0.2225 -0.0490
  694MOL0     C93621   3.229   4.694   9.533  0.3767  0.2212  0.7387
  694MOL0     C93622   3.270   4.774   9.411 -0.3553 -0.5319 -0.5640
  694MOL0     H93623   3.687   4.362   9.642  1.6418 -0.2866  0.2567
  694MOL0     H93624   3.895   4.325   9.495  2.6648  1.6561 -0.6190
  694MOL0     H93625   4.101   4.640   9.306 -0.3838 -0.7945 -1.0612
  694MOL0     H93626   4.191   4.509   9.379 -1.6724  1.5134  3.2026
  694MOL0     H93627   4.162   4.375   9.187 -1.6387 -0.6875 -0.2851
  694MOL0     H93628   4.254   4.530   9.136 -1.3119  0.2457 -0.8924
  694MOL0     H93629   4.036   4.630   9.050 -3.0092 -0.5598  1.5214
  694MOL0     H93630   3.955   4.489   9.113  2.1959 -1.1567  3.7840
  694MOL0     H93631   4.051   4.345   8.969  1.1846 -0.0676 -0.1729
  694MOL0     H93632   3.982   4.475   8.885 -3.0785 -0.5011  3.3848
  694MOL0     H93633   4.285   4.500   8.916 -0.2667 -0.4195 -1.0954
  694MOL0     H93634   4.239   4.365   8.823 -1.1859 -1.1274  3.1320
  694MOL0     H93635   4.149   4.649   8.784  3.1311  2.5844 -1.3742
  694MOL0     H93636   4.296   4.574   8.722  0.3733  1.7627  2.0869
  694MOL0     H93637   4.006   4.506   8.648  1.0379  1.2055  1.4845
  694MOL0     H93638   4.136   4.402   8.590 -1.5323  0.1166 -1.3214
  694MOL0     H93639   4.093   4.695   8.506  0.5471 -0.5579  1.6912
  694MOL0     H93640   4.248   4.627   8.500  0.2963  1.4195  1.7838
  694MOL0     H93641   3.909   4.607   8.323  0.0989  0.7411 -1.1422
  694MOL0     H93642   3.846   4.564   8.086 -0.3072 -2.0758 -0.5994
  694MOL0     H93643   3.979   4.533   7.969  0.5412 -0.0779  0.2007
  694MOL0     H93644   3.960   4.295   8.010 -2.3521 -3.8279  2.3489
  694MOL0     H93645   3.831   4.324   8.127 -2.0627 -0.1180 -1.1261
  694MOL0     H93646   3.717   4.260   7.946 -0.1117  0.2128 -0.6862
  694MOL0     H93647   3.821   4.347   7.819 -0.5211 -0.3703 -1.4559
  694MOL0     H93648   3.617   4.460   8.026  1.4312  1.5009  0.7100
  694MOL0     H93649   3.585   4.412   7.863  1.4400 -2.3860  0.1745
  694MOL0     H93650   3.786   4.786   7.769  1.9099 -1.9198  1.3021
  694MOL0     H93651   3.750   5.018   7.849  2.7274 -1.7263 -0.2408
  694MOL0     H93652   3.917   5.299   8.042  0.1972  0.3510 -2.9689
  694MOL0     H93653   3.974   5.511   8.170  0.2265  1.8416 -2.5509
  694MOL0     H93654   3.767   5.813   8.108  1.9142 -1.1195  0.4037
  694MOL0     H93655   3.684   5.845   8.257 -3.2835 -2.9678 -1.3955
  694MOL0     H93656   3.940   5.868   8.350  2.0403 -1.5664 -0.8780
  694MOL0     H93657   3.979   5.856   8.183 -1.3416 -0.3537 -0.2244
  694MOL0     H93658   3.771   6.063   8.292 -0.3723 -0.6104  0.2081
  694MOL0     H93659   3.954   6.085   8.263  3.4949 -1.7028 -6.2907
  694MOL0     H93660   3.754   6.011   8.043 -4.6153  3.1846  0.4959
  694MOL0     H93661   3.920   6.055   8.022 -2.0354 -0.4463 -1.2663
  694MOL0     H93662   3.865   6.293   8.106  2.0040 -1.7084 -1.0344
  694MOL0     H93663   3.700   6.237   8.146  0.4543 -1.0626  0.7332
  694MOL0     H93664   3.813   6.205   7.868  2.5389  1.7850  1.0262
  694MOL0     H93665   3.648   6.208   7.902 -0.3167  0.9896 -1.8366
  694MOL0     H93666   3.832   6.449   7.949  0.1377  1.1244 -0.8716
  694MOL0     H93667   3.664   6.466   7.981  2.3558  0.5933  0.7554
  694MOL0     H93668   3.784   6.443   7.707  0.3380 -0.4548 -0.0441
  694MOL0     H93669   3.622   6.375   7.743 -0.7543  1.5765 -1.4731
  694MOL0     H93670   3.568   5.602   8.229  0.7720 -0.3262  1.2717
  694MOL0     H93671   3.507   5.376   8.139  1.4738 -4.1959 -0.9052
  694MOL0     H93672   3.565   4.864   8.202  0.9041 -1.1879  1.3907
  694MOL0     H93673   3.569   4.637   8.099  3.2638 -3.9018 -1.4265
  694MOL0     H93674   3.897   4.723   9.369  0.8650 -1.4963 -0.9284
  694MOL0     H93675   3.682   4.756   9.498  0.5097  0.7051  1.1775
  694MOL0     H93676   3.347   4.485   9.764 -0.4884  1.2922  0.9086
  694MOL0     H93677   3.134   4.542   9.878  1.0098  0.8886 -0.0860
  694MOL0     H93678   2.807   4.619   9.890  4.4054  3.6301  1.3723
  694MOL0     H93679   2.872   4.506   9.776 -2.9290 -0.1443 -3.2736
  694MOL0     H93680   2.740   4.570   9.605 -0.4123  0.4290  0.3212
  694MOL0     H93681   2.697   4.722   9.686  0.3348  0.3097 -1.0032
  694MOL0     H93682   2.503   4.572   9.733  0.2834 -2.3321 -0.9706
  694MOL0     H93683   2.596   4.588   9.884 -2.0701  3.1991 -1.1710
  694MOL0     H93684   2.617   4.347   9.694 -4.5152 -0.9328  0.1286
  694MOL0     H93685   2.712   4.377   9.838 -1.3043 -1.0793  0.4108
  694MOL0     H93686   2.323   4.255   9.977 -0.5094  1.2328 -2.7378
  694MOL0     H93687   3.032   4.788   9.553 -1.2535  0.4608  2.1373
  694MOL0     H93688   3.284   4.710   9.323 -0.5113  3.5737 -3.8610
  694MOL0     H93689   3.193   4.849   9.394 -1.1976 -1.6106 -1.6328
  694MOL0     H93690   3.369   4.819   9.421 -0.2870 -0.5751 -1.0655
  695MOL0     O93691   9.878   8.114   3.136 -0.8331 -0.1207 -0.0516
  695MOL0     C93692   9.896   8.164   3.250 -0.2088  0.2990 -0.4379
  695MOL0     O93693  10.003   8.148   3.327 -0.8286  0.1019 -0.3977
  695MOL0     C93694  10.097   8.069   3.274  0.2777 -0.0349 -0.2974
  695MOL0     C93695  10.095   7.934   3.303  0.8945  0.0879 -0.4335
  695MOL0     C93696  10.197   7.857   3.250  0.3001  0.5906 -1.3206
  695MOL0     C93697  10.306   7.912   3.182  0.5182 -0.1367 -0.2237
  695MOL0     O93698  10.414   7.855   3.129 -0.2112 -0.1393  0.3302
  695MOL0     C93699  10.468   7.734   3.166 -0.0684  0.4092 -0.2254
  695MOL0     C93700  10.621   7.732   3.116 -0.4978  1.2670 -0.2876
  695MOL0     C93701  10.710   7.833   3.184  0.3819  0.6151  0.4905
  695MOL0     C93702  10.783   7.926   3.075  0.0705  0.4718 -0.2477
  695MOL0     C93703  10.881   7.848   2.993  0.1267  0.7247  0.5783
  695MOL0     C93704  10.927   7.942   2.886  0.1403 -1.0944  1.3113
  695MOL0     C93705  10.831   7.988   2.776 -0.5517  0.3390  0.1363
  695MOL0     C93706  10.898   8.035   2.643 -0.7237  0.5364  0.5284
  695MOL0     N93707  10.947   7.928   2.557 -0.7370 -0.0191  0.3056
  695MOL0     C93708  11.084   7.890   2.555 -0.5937  0.2892  0.4050
  695MOL0     C93709  11.083   7.787   2.472 -0.2025  0.0962  1.0767
  695MOL0     C93710  11.211   7.713   2.448 -0.4983  0.3984 -0.0398
  695MOL0     C93711  11.227   7.698   2.293  0.4566 -0.8817  0.4779
  695MOL0     C93712  11.375   7.706   2.251 -0.3886  0.4166  0.6240
  695MOL0     C93713  11.404   7.668   2.109 -0.0718  0.3534  0.1585
  695MOL0     O93714  11.327   7.745   2.016 -0.1302  0.1488  0.7422
  695MOL0     C93715  11.225   7.690   1.937  0.5094  0.1463 -0.5728
  695MOL0     C93716  11.217   7.547   1.897 -0.0380 -0.3912 -0.1034
  695MOL0     C93717  11.129   7.495   1.797  0.2417  0.1486 -0.6719
  695MOL0     C93718  11.020   7.580   1.763  0.0726  0.7205  0.3996
  695MOL0     C93719  10.904   7.542   1.685  0.1910 -0.1262  0.6983
  695MOL0     O93720  10.797   7.621   1.672  0.2111  0.1596 -0.4006
  695MOL0     C93721  10.683   7.598   1.595 -0.2242  0.5751  0.0993
  695MOL0     C93722  10.684   7.615   1.453  0.3575  0.3981  0.7091
  695MOL0     C93723  10.562   7.603   1.373  1.1278  0.7069 -0.0463
  695MOL0     C93724  10.436   7.571   1.433 -0.1044  0.7779 -0.4881
  695MOL0     O93725  10.320   7.571   1.374 -0.1204 -0.4148  0.5715
  695MOL0     C93726  10.299   7.654   1.257  0.1273 -1.5684  0.3485
  695MOL0     C93727  10.152   7.686   1.244 -0.4611 -0.5124 -0.2077
  695MOL0     C93728  10.121   7.733   1.092 -0.7921  0.4298 -0.8263
  695MOL0     C93729   9.965   7.720   1.074  0.4826 -0.2639 -0.9437
  695MOL0     C93730   9.913   7.782   0.938 -0.0463 -1.5546 -0.0006
  695MOL0     C93731   9.760   7.745   0.913 -0.8986  0.2553 -0.8853
  695MOL0     C93732   9.726   7.762   0.770 -0.1479  0.8876 -0.0115
  695MOL0     C93733   9.579   7.746   0.725  0.2417 -0.3631 -0.3100
  695MOL0    Cl93734   9.529   7.576   0.772 -0.1095 -0.2995  0.6880
  695MOL0     C93735  10.439   7.547   1.576 -0.5385  0.5543  0.2795
  695MOL0     C93736  10.557   7.559   1.647 -0.1139 -0.0385 -0.4536
  695MOL0     O93737  10.921   7.441   1.624 -0.4623 -0.0851 -0.7437
  695MOL0     C93738  11.030   7.715   1.801 -0.2311  0.5464 -0.5825
  695MOL0     C93739  11.126   7.765   1.885 -0.3843  0.1685  0.5975
  695MOL0     N93740  10.960   7.770   2.423 -0.4483  0.3844 -0.3651
  695MOL0     N93741  10.868   7.840   2.479 -0.3759  0.6771  0.5380
  695MOL0     C93742  10.321   8.052   3.180 -0.6237  0.6177  0.1603
  695MOL0     C93743  10.216   8.132   3.226 -0.3074  0.2337  0.0538
  695MOL0     C93744   9.786   8.250   3.292  0.1670 -0.2316 -0.9199
  695MOL0     C93745   9.822   8.376   3.350 -0.5385  0.4230  0.2153
  695MOL0     C93746   9.730   8.476   3.387  0.1941 -0.6023  0.3427
  695MOL0     C93747   9.599   8.459   3.360  0.7272 -0.9101  0.2688
  695MOL0     O93748   9.515   8.561   3.405  0.3582 -0.4133 -0.0367
  695MOL0     C93749   9.406   8.523   3.489 -1.6335 -0.9750  0.4711
  695MOL0     C93750   9.303   8.634   3.474  0.1904 -0.2970 -0.0787
  695MOL0     C93751   9.193   8.623   3.565 -0.6329 -0.7833  0.1717
  695MOL0     C93752   9.087   8.722   3.542  0.4794  0.5183  0.1544
  695MOL0     C93753   8.982   8.718   3.650  0.8807 -0.4090  0.2406
  695MOL0     C93754   8.897   8.722   3.737 -0.1916 -0.0495 -0.7639
  695MOL0     C93755   9.559   8.335   3.305 -0.2342  0.2358 -0.2893
  695MOL0     C93756   9.653   8.238   3.259 -0.1565 -0.8166  0.4259
  695MOL0     C93757   9.590   8.115   3.213 -0.3188 -0.5229  1.0210
  695MOL0     H93758  10.009   7.887   3.350  1.1759  0.4329  0.4444
  695MOL0     H93759  10.193   7.749   3.254  1.4171  0.5763  0.6716
  695MOL0     H93760  10.472   7.713   3.273 -0.4612 -1.8850 -0.6069
  695MOL0     H93761  10.411   7.653   3.119  4.0105 -3.0997  0.2657
  695MOL0     H93762  10.612   7.741   3.008  2.4556  2.7437 -0.5203
  695MOL0     H93763  10.674   7.637   3.130  0.2966  1.5420 -1.3385
  695MOL0     H93764  10.782   7.782   3.249 -1.1928 -2.3027  0.1358
  695MOL0     H93765  10.646   7.894   3.249  2.2610  3.5046 -0.1932
  695MOL0     H93766  10.705   7.975   3.015 -1.1276 -0.2264  0.6890
  695MOL0     H93767  10.833   8.001   3.138 -1.7313 -0.4920  2.5086
  695MOL0     H93768  10.972   7.816   3.045 -0.1956 -0.4474  0.4433
  695MOL0     H93769  10.847   7.756   2.944 -1.1514  0.9252  1.0759
  695MOL0     H93770  10.960   8.030   2.941  1.3545 -1.7467  1.6707
  695MOL0     H93771  11.024   7.908   2.847  1.1521  0.9262  1.8919
  695MOL0     H93772  10.782   8.079   2.812  1.1156  0.8874  1.1495
  695MOL0     H93773  10.761   7.909   2.747 -0.3271  0.1717  0.0460
  695MOL0     H93774  10.820   8.091   2.589 -0.7091 -0.3446 -0.4312
  695MOL0     H93775  10.975   8.107   2.672 -0.2736  0.4825 -0.4864
  695MOL0     H93776  11.164   7.929   2.617  0.0539  0.8068 -0.7327
  695MOL0     H93777  11.294   7.774   2.484  2.1371 -2.1267 -1.3892
  695MOL0     H93778  11.214   7.620   2.506  0.1945  1.1388  1.1333
  695MOL0     H93779  11.185   7.601   2.266 -1.1221 -0.0770 -0.0934
  695MOL0     H93780  11.169   7.776   2.244  1.1156 -0.4614  0.3479
  695MOL0     H93781  11.420   7.637   2.324  0.3913  0.6757  0.3957
  695MOL0     H93782  11.400   7.811   2.268 -2.4342  0.9752  0.5019
  695MOL0     H93783  11.402   7.561   2.086  2.1583  0.2069  0.4845
  695MOL0     H93784  11.510   7.686   2.093 -0.4217  2.3936 -0.1144
  695MOL0     H93785  11.306   7.491   1.920  2.1469  2.9860  0.4225
  695MOL0     H93786  11.132   7.391   1.767 -0.4138 -0.6875  1.9241
  695MOL0     H93787  10.772   7.644   1.397 -0.9702 -0.9871 -2.3671
  695MOL0     H93788  10.573   7.625   1.268  3.1492  1.2941  0.2440
  695MOL0     H93789  10.354   7.748   1.249 -2.8075  0.1902 -0.7676
  695MOL0     H93790  10.327   7.594   1.170  0.3204 -0.2289 -0.5441
  695MOL0     H93791  10.084   7.602   1.260 -1.3031  0.0441 -0.8107
  695MOL0     H93792  10.128   7.769   1.310  0.4375 -1.2016  1.0211
  695MOL0     H93793  10.139   7.838   1.068 -0.2674  0.9105  1.4792
  695MOL0     H93794  10.164   7.668   1.016  0.1790 -0.4489  0.4377
  695MOL0     H93795   9.912   7.777   1.150  1.9823  1.6492 -1.2732
  695MOL0     H93796   9.945   7.612   1.082 -1.9507  0.0440 -1.9380
  695MOL0     H93797   9.972   7.739   0.857  0.4376 -2.2629  0.7143
  695MOL0     H93798   9.915   7.891   0.939 -0.6629 -1.3816  4.4858
  695MOL0     H93799   9.754   7.638   0.937  0.9253  0.8160  2.8999
  695MOL0     H93800   9.692   7.791   0.985  3.0150 -1.3617  4.5492
  695MOL0     H93801   9.774   7.680   0.716  0.7652  0.8997  0.7566
  695MOL0     H93802   9.762   7.860   0.735  2.0741 -0.4358 -1.7550
  695MOL0     H93803   9.526   7.827   0.776 -0.6010  0.4183 -2.3248
  695MOL0     H93804   9.550   7.761   0.621 -2.7274  0.6076  0.5455
  695MOL0     H93805  10.349   7.533   1.635 -2.4423 -0.0395 -2.5802
  695MOL0     H93806  10.560   7.548   1.755  3.4363 -1.2826 -0.5490
  695MOL0     H93807  10.953   7.787   1.777  1.6499  2.1449 -2.2103
  695MOL0     H93808  11.123   7.873   1.899 -0.0418  0.5689 -1.9082
  695MOL0     H93809  10.414   8.090   3.140 -1.4986  3.1248  0.2972
  695MOL0     H93810  10.219   8.241   3.221 -2.0079  0.3992  1.5348
  695MOL0     H93811   9.925   8.404   3.370 -0.4157  1.9223 -2.0623
  695MOL0     H93812   9.771   8.570   3.422  1.2286  0.0029 -2.2572
  695MOL0     H93813   9.434   8.509   3.594 -4.3461 -0.3443  1.3627
  695MOL0     H93814   9.358   8.429   3.459  0.6698 -2.4348  1.0983
  695MOL0     H93815   9.258   8.615   3.377 -1.4711 -3.1010  1.1449
  695MOL0     H93816   9.345   8.735   3.468 -1.6377  0.4709 -0.4418
  695MOL0     H93817   9.240   8.648   3.661  2.2459  0.9206 -1.5651
  695MOL0     H93818   9.158   8.519   3.571  0.6102 -1.1708  1.1062
  695MOL0     H93819   9.120   8.822   3.514 -0.3898  0.9305  0.5754
  695MOL0     H93820   9.030   8.696   3.452 -2.1053  1.6407  1.4024
  695MOL0     H93821   8.808   8.723   3.798 -2.1059  2.6537 -3.2886
  695MOL0     H93822   9.452   8.314   3.303  0.1108 -1.6372 -1.7727
  695MOL0     H93823   9.481   8.108   3.224 -0.5914 -2.8241 -1.8134
  695MOL0     H93824   9.597   8.106   3.104 -0.4746  2.1507  0.7265
  695MOL0     H93825   9.639   8.028   3.257 -0.8101 -0.3578  1.9089
  696MOL0     O93826   9.074   7.775   0.129  1.0232 -0.3481 -0.6024
  696MOL0     C93827   9.058   7.651   0.135 -1.2940  0.5064 -0.2693
  696MOL0     O93828   9.163   7.565   0.132  0.1189 -1.1161  0.2005
  696MOL0     C93829   9.297   7.603   0.155  0.2090  0.3091 -0.1631
  696MOL0     C93830   9.370   7.503   0.218  0.1131 -0.0827  0.2567
  696MOL0     C93831   9.502   7.527   0.261 -0.2362  0.0153 -0.7216
  696MOL0     C93832   9.568   7.645   0.233  0.0921 -0.6271  0.6967
  696MOL0     O93833   9.693   7.673   0.283  0.4892  0.1002 -0.1713
  696MOL0     C93834   9.764   7.584   0.362 -0.6507  0.3532 -0.3982
  696MOL0     C93835   9.903   7.641   0.353  0.6519  0.1090 -0.1817
  696MOL0     C93836  10.000   7.570   0.432  0.0360 -0.9006  0.6135
  696MOL0     C93837  10.127   7.653   0.440 -0.3767  0.2314 -0.6594
  696MOL0     C93838  10.247   7.582   0.516  0.1399  0.4788  0.1296
  696MOL0     C93839  10.370   7.668   0.526  0.0253  0.3118  1.1119
  696MOL0     C93840  10.367   7.779   0.626  0.0019  1.1869 -0.2684
  696MOL0     C93841  10.370   7.916   0.550  0.3900 -0.7196  0.9833
  696MOL0     N93842  10.508   7.953   0.516  0.8852  0.2356 -0.2279
  696MOL0     C93843  10.615   7.989   0.604  0.3772  0.7627 -0.3705
  696MOL0     C93844  10.712   8.034   0.523  0.1466 -0.4136 -0.0944
  696MOL0     C93845  10.850   8.094   0.544  0.4741  0.1431 -1.1547
  696MOL0     C93846  10.969   8.044   0.460 -0.1430 -0.0574 -0.1503
  696MOL0     C93847  11.011   7.902   0.502  0.1867  0.9583 -0.4579
  696MOL0     C93848  11.000   7.804   0.383 -1.0070  0.3045 -0.8950
  696MOL0     O93849  10.867   7.799   0.331  0.1864 -0.0280  0.2508
  696MOL0     C93850  10.795   7.689   0.366  0.3184  0.1449 -0.1533
  696MOL0     C93851  10.719   7.635   0.262 -0.6491  0.6883  0.3205
  696MOL0     C93852  10.654   7.515   0.262 -0.6268  0.0219  0.4772
  696MOL0     C93853  10.642   7.464   0.390 -0.6184  0.2518  0.1105
  696MOL0     C93854  10.553   7.347   0.404 -0.1407  0.0735  0.1636
  696MOL0     O93855  10.457   7.328   0.305  0.2470  0.4339 -0.6760
  696MOL0     C93856  10.358   7.232   0.314 -0.1029  0.5056 -1.6520
  696MOL0     C93857  10.326   7.163   0.188 -0.2180 -0.7715  0.3980
  696MOL0     C93858  10.230   7.063   0.174 -0.5709  0.0695 -0.1195
  696MOL0     C93859  10.169   7.022   0.291  1.1323 -1.2802  0.7319
  696MOL0     O93860  10.083   6.923   0.281 -0.4147 -0.3418  0.4419
  696MOL0     C93861   9.950   6.929   0.329 -0.3992  0.0996  0.1479
  696MOL0     C93862   9.873   6.814   0.285 -0.2803 -0.1492 -0.4272
  696MOL0     C93863   9.740   6.802   0.368 -0.4129  0.1250  1.1085
  696MOL0     C93864   9.668   6.674   0.325 -0.1019 -0.2079  0.3964
  696MOL0     C93865   9.538   6.655   0.418 -0.1377  1.4299  0.9619
  696MOL0     C93866   9.425   6.716   0.338 -0.5610 -0.6346  0.0470
  696MOL0     C93867   9.294   6.699   0.410  0.9970 -0.3478  0.3555
  696MOL0     C93868   9.170   6.751   0.332 -0.0564  0.3844  0.2721
  696MOL0    Cl93869   9.142   6.648   0.191 -0.3770 -0.6379 -0.5680
  696MOL0     C93870  10.198   7.076   0.418 -0.0134 -0.3430 -0.1142
  696MOL0     C93871  10.291   7.189   0.431 -0.5322  0.4753  0.3535
  696MOL0     O93872  10.577   7.272   0.498  0.3761 -0.6467 -0.3417
  696MOL0     C93873  10.715   7.516   0.499  0.1612 -0.2921  0.5625
  696MOL0     C93874  10.793   7.623   0.488 -1.6393 -0.4506  0.7221
  696MOL0     N93875  10.666   8.051   0.390  0.2015  0.6638  0.3721
  696MOL0     N93876  10.549   7.998   0.389  0.7531  0.3350 -0.1506
  696MOL0     C93877   9.497   7.741   0.157 -1.4990  0.7181  0.3068
  696MOL0     C93878   9.368   7.720   0.117  0.8325 -0.7490  1.0184
  696MOL0     C93879   8.934   7.589   0.118  0.5348  0.5057  0.3976
  696MOL0     C93880   8.929   7.467   0.048 -0.4313  0.6967 -0.3022
  696MOL0     C93881   8.812   7.396   0.029 -0.1951 -0.1610 -0.0041
  696MOL0     C93882   8.689   7.449   0.081  1.2670 -0.2241  0.3112
  696MOL0     O93883   8.566   7.378   0.058 -0.4638 -0.3561 -0.0662
  696MOL0     C93884   8.450   7.458   0.017  0.9457 -0.1833 -0.1601
  696MOL0     C93885   8.329   7.367  -0.002  0.3267 -0.2688 -0.3352
  696MOL0     C93886   8.196   7.425  -0.044  1.0278  0.7334 -0.0249
  696MOL0     C93887   8.071   7.348   0.001 -0.7902 -0.1081  0.1136
  696MOL0     C93888   8.048   7.349   0.144 -0.3451 -0.6193  0.1280
  696MOL0     C93889   8.033   7.343   0.265 -0.7001  0.8331 -0.1596
  696MOL0     C93890   8.691   7.581   0.130  0.8054 -0.2938  0.0745
  696MOL0     C93891   8.811   7.662   0.141  0.1461  0.1967 -0.1210
  696MOL0     C93892   8.793   7.780   0.232  0.1360 -0.7526 -0.0852
  696MOL0     H93893   9.312   7.421   0.260  0.1302 -0.5755 -0.6540
  696MOL0     H93894   9.548   7.448   0.319 -0.3111 -0.2564 -1.0323
  696MOL0     H93895   9.727   7.589   0.465 -3.2517 -3.0488 -0.9915
  696MOL0     H93896   9.770   7.483   0.321 -0.5703  0.1480  0.1052
  696MOL0     H93897   9.893   7.746   0.382 -2.2727 -0.1030 -0.0946
  696MOL0     H93898   9.931   7.627   0.248 -2.3031  2.0055 -1.3418
  696MOL0     H93899  10.041   7.481   0.383  1.7133  1.0244 -1.7594
  696MOL0     H93900   9.965   7.540   0.531  0.2635 -2.2325  0.3160
  696MOL0     H93901  10.160   7.690   0.342 -2.0638  5.1509  0.3312
  696MOL0     H93902  10.091   7.738   0.498  1.4121  1.6511 -1.5249
  696MOL0     H93903  10.219   7.534   0.610  0.3204 -2.8260 -1.3675
  696MOL0     H93904  10.277   7.496   0.454  1.3135  1.3407 -0.5510
  696MOL0     H93905  10.449   7.593   0.535 -1.5441 -2.0916 -2.7293
  696MOL0     H93906  10.403   7.710   0.431 -0.0014 -0.5667  0.7084
  696MOL0     H93907  10.449   7.759   0.695 -0.9547 -2.1755  0.0476
  696MOL0     H93908  10.282   7.779   0.694  1.0299  4.0771  1.2275
  696MOL0     H93909  10.309   7.904   0.460 -3.7854  4.0692  2.7016
  696MOL0     H93910  10.328   8.002   0.602 -2.7832 -0.2635 -1.9725
  696MOL0     H93911  10.620   7.977   0.711  3.1666 -0.0146 -0.5027
  696MOL0     H93912  10.846   8.203   0.536  0.0533  0.2013 -0.2767
  696MOL0     H93913  10.877   8.086   0.650 -0.5058  1.8244 -0.7428
  696MOL0     H93914  10.941   8.052   0.354 -1.7157 -1.6399  0.0936
  696MOL0     H93915  11.054   8.108   0.482  0.3042 -1.2740  1.9174
  696MOL0     H93916  10.939   7.865   0.575 -1.6863  0.3261 -2.5457
  696MOL0     H93917  11.110   7.890   0.548  1.2909 -1.6674 -3.2109
  696MOL0     H93918  11.030   7.705   0.419 -1.9688  0.0596 -0.7277
  696MOL0     H93919  11.068   7.836   0.304 -0.8056  0.3668 -0.6959
  696MOL0     H93920  10.718   7.685   0.166 -0.0497  2.2866  1.1090
  696MOL0     H93921  10.601   7.475   0.177  0.1057  3.2825 -1.6585
  696MOL0     H93922  10.386   7.188   0.101  1.8703 -5.9294 -0.0465
  696MOL0     H93923  10.209   7.008   0.083 -1.5266  1.7544 -0.9856
  696MOL0     H93924   9.957   6.932   0.438 -0.8584 -2.0546  0.2742
  696MOL0     H93925   9.905   7.018   0.283 -1.0178 -1.9631 -3.5671
  696MOL0     H93926   9.838   6.829   0.182 -3.4467 -0.6165  0.4799
  696MOL0     H93927   9.923   6.719   0.305 -2.6144 -1.6536 -1.3395
  696MOL0     H93928   9.782   6.798   0.469 -0.6492  3.3245  1.4101
  696MOL0     H93929   9.683   6.893   0.350  0.8710  0.6375 -0.6336
  696MOL0     H93930   9.743   6.595   0.338  2.0251  1.9284  2.0435
  696MOL0     H93931   9.636   6.693   0.222 -4.1662  6.7947  2.3050
  696MOL0     H93932   9.555   6.702   0.515 -0.8334  0.6027  1.5030
  696MOL0     H93933   9.503   6.554   0.443 -0.4687  1.1187 -0.6430
  696MOL0     H93934   9.448   6.815   0.299  0.7992 -0.1057  2.0561
  696MOL0     H93935   9.419   6.649   0.251 -0.5055 -3.4701  2.0756
  696MOL0     H93936   9.294   6.753   0.505 -1.6914  0.8936 -0.2657
  696MOL0     H93937   9.282   6.591   0.424  2.4572 -0.4064  1.4685
  696MOL0     H93938   9.080   6.757   0.395  2.0802 -2.2809  3.9705
  696MOL0     H93939   9.200   6.853   0.307  0.3205  0.4387  0.9107
  696MOL0     H93940  10.159   7.022   0.503  2.0915 -1.7779  0.0028
  696MOL0     H93941  10.316   7.232   0.527  0.9555  1.4680 -0.4333
  696MOL0     H93942  10.722   7.472   0.598  2.0458  1.6206  1.3486
  696MOL0     H93943  10.861   7.653   0.568 -0.8783  2.3861 -0.8517
  696MOL0     H93944   9.553   7.833   0.144  0.3512 -0.3382  0.4744
  696MOL0     H93945   9.311   7.791   0.057 -1.1109 -3.5391 -0.7032
  696MOL0     H93946   9.013   7.406   0.016 -2.8629 -2.1073 -1.7767
  696MOL0     H93947   8.817   7.295  -0.010  1.3664 -0.6982  1.4573
  696MOL0     H93948   8.471   7.508  -0.078  3.0896 -1.5268 -0.4737
  696MOL0     H93949   8.418   7.533   0.090 -0.2743 -0.7674 -0.0595
  696MOL0     H93950   8.325   7.313   0.093  2.6920 -0.9351 -0.5604
  696MOL0     H93951   8.339   7.281  -0.069 -1.1774 -0.2672 -0.6043
  696MOL0     H93952   8.193   7.451  -0.150  0.1289  3.7820  0.6560
  696MOL0     H93953   8.196   7.525   0.000  0.2558  1.6747 -2.0093
  696MOL0     H93954   7.977   7.386  -0.040  0.3384  2.4446 -0.2983
  696MOL0     H93955   8.068   7.249  -0.046  0.7637  0.6034 -1.5583
  696MOL0     H93956   8.033   7.328   0.371 -1.6642  0.0046 -0.2551
  696MOL0     H93957   8.597   7.625   0.160  0.5781  1.4120 -2.7776
  696MOL0     H93958   8.842   7.863   0.180  0.2850 -1.8863 -1.8175
  696MOL0     H93959   8.690   7.815   0.247  0.4722  0.8729 -1.2920
  696MOL0     H93960   8.852   7.784   0.324 -0.1566 -0.1380  0.0877
  697MOL0     O93961   5.211   4.458   0.591 -0.2557 -0.1427  0.2506
  697MOL0     C93962   5.299   4.510   0.521  0.5625 -0.0249  1.4419
  697MOL0     O93963   5.366   4.443   0.418  0.4593 -0.2274 -0.8443
  697MOL0     C93964   5.365   4.307   0.429  0.1149 -0.6224 -1.0549
  697MOL0     C93965   5.309   4.227   0.330  0.5074  0.3738 -0.5984
  697MOL0     C93966   5.315   4.088   0.328 -0.0622  0.5426  0.1747
  697MOL0     C93967   5.384   4.026   0.430 -0.0584 -0.3951 -0.1772
  697MOL0     O93968   5.391   3.890   0.417 -0.8706 -0.4769  0.7382
  697MOL0     C93969   5.515   3.829   0.427 -0.0740  0.2666 -0.8781
  697MOL0     C93970   5.534   3.772   0.567  0.8826 -0.3843 -0.9257
  697MOL0     C93971   5.630   3.650   0.565  0.4898  0.2868  0.4102
  697MOL0     C93972   5.636   3.580   0.705  0.1538 -0.2580 -0.2982
  697MOL0     C93973   5.775   3.543   0.764  1.3477 -0.3946  0.5313
  697MOL0     C93974   5.781   3.408   0.843 -0.9215 -0.6481  0.3777
  697MOL0     C93975   5.930   3.375   0.893 -0.1874 -0.3110 -1.2175
  697MOL0     C93976   6.018   3.310   0.781 -0.0700 -0.7635  0.6632
  697MOL0     N93977   5.949   3.199   0.717 -0.1543 -0.0056 -0.1242
  697MOL0     C93978   5.911   3.086   0.788 -0.8409  0.2826 -0.4211
  697MOL0     C93979   5.848   3.007   0.698  0.0037  0.5993 -0.0226
  697MOL0     C93980   5.787   2.873   0.719  0.7776  0.6384  1.1424
  697MOL0     C93981   5.870   2.754   0.651  0.2272  0.0943  0.0708
  697MOL0     C93982   5.819   2.620   0.683 -0.4119 -0.7083  0.5507
  697MOL0     C93983   5.866   2.520   0.589  0.4422  0.2743 -0.0038
  697MOL0     O93984   6.004   2.507   0.619  0.3870  0.0859 -0.2930
  697MOL0     C93985   6.033   2.401   0.704 -0.2996 -0.3711  0.2681
  697MOL0     C93986   5.939   2.348   0.796 -0.3745  0.0388  0.7064
  697MOL0     C93987   5.991   2.275   0.905  0.5003  0.1369  0.0388
  697MOL0     C93988   6.129   2.254   0.923  0.2384 -0.4422  0.0601
  697MOL0     C93989   6.183   2.199   1.050 -0.4987  0.2356  0.1775
  697MOL0     O93990   6.089   2.169   1.145 -0.4277 -0.7071  0.5566
  697MOL0     C93991   6.139   2.124   1.272 -0.3631 -0.9690  0.6953
  697MOL0     C93992   6.088   2.001   1.321 -0.6831 -0.7741 -0.3328
  697MOL0     C93993   6.152   1.933   1.420 -0.7891  0.2804 -0.2882
  697MOL0     C93994   6.261   1.994   1.494  0.1694 -0.0567  0.2759
  697MOL0     O93995   6.315   1.945   1.609  0.5048 -1.0532  0.0447
  697MOL0     C93996   6.299   1.804   1.643 -0.2218 -0.8149  0.4568
  697MOL0     C93997   6.365   1.779   1.780  0.8991 -0.1971 -0.1543
  697MOL0     C93998   6.303   1.874   1.887 -0.2601 -0.3009  0.1988
  697MOL0     C93999   6.147   1.887   1.899  0.5691 -0.0793  0.3689
  697MOL0     C94000   6.065   1.761   1.929 -0.0295 -0.5649 -0.0483
  697MOL0     C94001   6.111   1.676   2.042 -0.2112  0.6366  0.1517
  697MOL0     C94002   5.993   1.607   2.103 -0.0969  0.1082  0.4954
  697MOL0     C94003   6.016   1.555   2.240 -1.0482 -0.5841  0.0123
  697MOL0    Cl94004   6.163   1.455   2.222 -0.3079  0.6600  0.1561
  697MOL0     C94005   6.310   2.115   1.449  0.6626  0.3487 -0.9574
  697MOL0     C94006   6.249   2.179   1.342  0.7849 -0.0745  0.7415
  697MOL0     O94007   6.309   2.185   1.057 -0.3243  0.0463 -0.3088
  697MOL0     C94008   6.219   2.303   0.836  0.6275 -0.0957 -0.0513
  697MOL0     C94009   6.166   2.366   0.725  0.2970  0.2491  0.4366
  697MOL0     N94010   5.840   3.074   0.570  0.1466 -0.3821  0.2526
  697MOL0     N94011   5.903   3.186   0.590  0.0844  0.2444 -0.8174
  697MOL0     C94012   5.451   4.110   0.519 -0.5891  0.4943 -1.5069
  697MOL0     C94013   5.445   4.245   0.524 -0.6635 -0.8238 -0.6978
  697MOL0     C94014   5.340   4.652   0.545  0.0317 -0.6736 -0.5069
  697MOL0     C94015   5.245   4.730   0.606 -0.0705 -0.3267 -0.3848
  697MOL0     C94016   5.278   4.848   0.675  0.3334  0.2502 -0.3032
  697MOL0     C94017   5.405   4.903   0.666 -0.4198  0.1828 -0.2023
  697MOL0     O94018   5.447   5.009   0.734 -0.6134 -0.0999  0.5004
  697MOL0     C94019   5.367   5.062   0.839 -0.6673  0.1285  0.1236
  697MOL0     C94020   5.438   5.180   0.914  0.1989  1.2683  1.1939
  697MOL0     C94021   5.356   5.260   1.006  0.7503 -0.2454 -0.3553
  697MOL0     C94022   5.432   5.376   1.069 -0.4087  0.0803 -0.1553
  697MOL0     C94023   5.547   5.338   1.148  0.1731 -0.5089  0.1444
  697MOL0     C94024   5.642   5.308   1.216 -0.0300  0.3295 -0.6279
  697MOL0     C94025   5.501   4.840   0.591  0.4491 -0.7315  0.5275
  697MOL0     C94026   5.469   4.709   0.534 -0.3296  0.0293 -0.6250
  697MOL0     C94027   5.576   4.635   0.464  0.3119  0.0144  0.2620
  697MOL0     H94028   5.259   4.269   0.243  3.7348 -2.0860 -4.0049
  697MOL0     H94029   5.265   4.036   0.246 -1.1601  2.7257 -0.6477
  697MOL0     H94030   5.525   3.748   0.354  0.7992 -2.1764  1.7708
  697MOL0     H94031   5.596   3.898   0.401 -2.5172  3.8999  0.2903
  697MOL0     H94032   5.433   3.747   0.600  0.0382  1.4981 -1.9476
  697MOL0     H94033   5.580   3.852   0.627 -0.1441 -0.3638 -0.1371
  697MOL0     H94034   5.730   3.676   0.530 -0.1499  4.2273  1.0514
  697MOL0     H94035   5.589   3.586   0.486  0.7296  0.7973 -0.1387
  697MOL0     H94036   5.588   3.644   0.778  4.0706  1.5730  0.9448
  697MOL0     H94037   5.579   3.487   0.701 -1.4851  0.5465  2.2593
  697MOL0     H94038   5.846   3.518   0.684  3.6367 -5.0108  3.5917
  697MOL0     H94039   5.808   3.631   0.821 -0.7647  1.7300 -1.3451
  697MOL0     H94040   5.729   3.434   0.936  1.7455  4.2264  0.8381
  697MOL0     H94041   5.741   3.320   0.791  3.2835 -1.6473 -1.6144
  697MOL0     H94042   5.932   3.303   0.975  1.7242  0.8592 -0.1523
  697MOL0     H94043   5.976   3.458   0.947  1.7403 -0.1842 -2.9077
  697MOL0     H94044   6.038   3.391   0.709  1.2977  0.1267  1.9643
  697MOL0     H94045   6.115   3.277   0.818  0.0461 -0.3810  0.7038
  697MOL0     H94046   5.912   3.068   0.895 -1.2922 -1.4270 -0.6747
  697MOL0     H94047   5.787   2.853   0.826 -0.6597 -1.8964  0.7463
  697MOL0     H94048   5.688   2.888   0.676  1.6187  3.7059  0.0086
  697MOL0     H94049   5.873   2.764   0.542 -1.6478  2.2939  0.1359
  697MOL0     H94050   5.975   2.758   0.681  0.6703 -1.6224 -1.1098
  697MOL0     H94051   5.709   2.617   0.677 -0.5112  1.3130  0.3855
  697MOL0     H94052   5.854   2.604   0.786 -0.2534  1.1690  0.8295
  697MOL0     H94053   5.850   2.549   0.484 -2.0274  1.0055  0.5128
  697MOL0     H94054   5.810   2.426   0.589  1.5721 -0.5387 -3.4350
  697MOL0     H94055   5.833   2.372   0.798 -0.3115  0.2814  2.1988
  697MOL0     H94056   5.928   2.234   0.982  2.5381  0.0188  1.7282
  697MOL0     H94057   5.998   1.966   1.273 -0.6470 -1.4838  0.0971
  697MOL0     H94058   6.113   1.835   1.446  3.3769 -1.3581  0.6690
  697MOL0     H94059   6.191   1.785   1.645 -0.7280  1.7290  1.0512
  697MOL0     H94060   6.348   1.745   1.565  1.4217  2.0320 -0.8670
  697MOL0     H94061   6.365   1.671   1.794  1.6828 -0.3722 -1.3938
  697MOL0     H94062   6.472   1.797   1.768  0.9256  0.0079  0.3462
  697MOL0     H94063   6.315   1.826   1.984  2.8963  0.2990  0.2113
  697MOL0     H94064   6.339   1.977   1.881 -2.3141  0.5541  1.3477
  697MOL0     H94065   6.088   1.939   1.823  0.3808 -0.3921  0.3008
  697MOL0     H94066   6.130   1.957   1.982 -0.5773 -0.3916  0.4181
  697MOL0     H94067   6.060   1.699   1.839  2.1221  0.1331 -0.7013
  697MOL0     H94068   5.970   1.809   1.954  0.2679  0.2732 -0.5096
  697MOL0     H94069   6.184   1.598   2.019 -2.7609 -1.0915 -3.0861
  697MOL0     H94070   6.154   1.741   2.119  1.6594  0.5419 -0.7613
  697MOL0     H94071   5.969   1.522   2.037 -2.1892  1.0357 -0.0338
  697MOL0     H94072   5.910   1.677   2.109  1.5106  2.2933 -1.1532
  697MOL0     H94073   6.019   1.641   2.308 -1.0177 -0.6401  0.0819
  697MOL0     H94074   5.928   1.501   2.274 -3.0737  0.7924 -2.6658
  697MOL0     H94075   6.393   2.146   1.512  0.6194  1.3856 -1.3885
  697MOL0     H94076   6.283   2.276   1.307 -2.0689  2.1144  3.4427
  697MOL0     H94077   6.328   2.307   0.836  0.6307  0.0695  1.1476
  697MOL0     H94078   6.226   2.403   0.643 -0.1976  1.0987  0.4530
  697MOL0     H94079   5.513   4.061   0.593 -0.4807  3.2875  0.4023
  697MOL0     H94080   5.508   4.296   0.596  0.9180 -2.7783 -0.6073
  697MOL0     H94081   5.144   4.694   0.622 -0.8420  0.9981 -2.0781
  697MOL0     H94082   5.191   4.896   0.720 -2.0448 -2.9817 -1.0551
  697MOL0     H94083   5.357   4.973   0.903 -0.7704 -0.1697 -0.3029
  697MOL0     H94084   5.276   5.106   0.799 -0.2765 -0.9502 -2.0970
  697MOL0     H94085   5.474   5.251   0.838 -2.5648 -1.3536 -3.0159
  697MOL0     H94086   5.519   5.135   0.972 -0.4647  0.4089  1.4827
  697MOL0     H94087   5.319   5.192   1.083  1.0633  1.7298  1.6352
  697MOL0     H94088   5.275   5.309   0.950 -0.5548 -2.0291 -0.1123
  697MOL0     H94089   5.462   5.450   0.994 -0.4619  1.2330  0.9146
  697MOL0     H94090   5.364   5.427   1.138  3.4897  2.1381  2.6116
  697MOL0     H94091   5.724   5.290   1.282 -1.0769 -1.0776  0.3389
  697MOL0     H94092   5.594   4.894   0.576 -0.4064  0.2518 -1.6182
  697MOL0     H94093   5.675   4.682   0.468  0.3499  0.4809 -3.1766
  697MOL0     H94094   5.576   4.532   0.500  0.9483  0.4301  1.5041
  697MOL0     H94095   5.557   4.622   0.357 -1.9920  2.0747  0.3360
  698MOL0     O94096   1.720   4.264  11.187  0.7108 -0.1617 -0.1427
  698MOL0     C94097   1.783   4.168  11.227  0.2474  0.0613 -0.1233
  698MOL0     O94098   1.919   4.159  11.239 -0.2636 -0.4160  0.0679
  698MOL0     C94099   1.998   4.269  11.230 -0.8731 -0.6518 -0.3606
  698MOL0     C94100   2.124   4.228  11.190 -0.7105 -0.6870 -0.2287
  698MOL0     C94101   2.219   4.329  11.187  0.8470 -0.1765  1.2880
  698MOL0     C94102   2.194   4.458  11.224  0.7525 -0.1688 -0.1021
  698MOL0     O94103   2.297   4.544  11.226  0.6771  0.8048 -0.2918
  698MOL0     C94104   2.299   4.647  11.122  0.5640 -1.1409 -0.1636
  698MOL0     C94105   2.327   4.776  11.198  0.3648 -0.6039  0.3980
  698MOL0     C94106   2.329   4.890  11.108  0.6849  0.1997 -0.2150
  698MOL0     C94107   2.343   5.018  11.180 -0.2787  0.0696  0.3492
  698MOL0     C94108   2.342   5.133  11.086 -0.1865 -0.0540  0.3058
  698MOL0     C94109   2.355   5.262  11.162  0.2001 -0.3769 -0.7284
  698MOL0     C94110   2.227   5.314  11.225  0.2239 -0.2288 -0.2481
  698MOL0     C94111   2.263   5.420  11.327  0.3901  0.1165  0.1849
  698MOL0     N94112   2.129   5.459  11.385 -0.3724  0.3552 -0.9992
  698MOL0     C94113   2.073   5.402  11.495 -0.8295  0.7291 -0.5164
  698MOL0     C94114   1.972   5.489  11.525  0.2358 -0.2713  0.7295
  698MOL0     C94115   1.868   5.466  11.630 -0.1526  0.6874 -0.8561
  698MOL0     C94116   1.914   5.549  11.759 -0.1715  0.2826 -0.8675
  698MOL0     C94117   1.814   5.527  11.874 -0.2818  0.3974 -0.1587
  698MOL0     C94118   1.839   5.400  11.954  0.6828  0.6423 -0.0541
  698MOL0     O94119   1.956   5.422  12.022  0.2692  0.0223  0.3829
  698MOL0     C94120   2.009   5.323  12.098  0.4141  0.2349  0.1373
  698MOL0     C94121   1.976   5.192  12.090  1.1330 -0.2614  0.4830
  698MOL0     C94122   2.031   5.090  12.168  0.4378  0.2684  0.0749
  698MOL0     C94123   2.110   5.137  12.277 -0.1996 -0.2025  0.6007
  698MOL0     C94124   2.152   5.048  12.390  0.6014 -0.5612  0.2379
  698MOL0     O94125   2.117   4.916  12.392 -0.1127  0.1918  0.2901
  698MOL0     C94126   2.210   4.819  12.421 -0.4034 -1.0404  0.3898
  698MOL0     C94127   2.346   4.835  12.440 -0.0951  0.2706 -0.9163
  698MOL0     C94128   2.418   4.716  12.470  0.4385 -0.2305 -0.1028
  698MOL0     C94129   2.365   4.591  12.460 -0.7385 -0.7641 -0.0095
  698MOL0     O94130   2.470   4.496  12.458  0.7227 -0.0155 -0.2717
  698MOL0     C94131   2.475   4.410  12.352  0.2658 -0.3070  0.2651
  698MOL0     C94132   2.618   4.377  12.309 -0.4097  0.2083 -0.2051
  698MOL0     C94133   2.614   4.264  12.196  1.7274  0.6870 -0.5080
  698MOL0     C94134   2.730   4.265  12.103 -0.1962  0.2623  0.0705
  698MOL0     C94135   2.729   4.138  12.008 -0.4066  0.1315  0.1247
  698MOL0     C94136   2.866   4.142  11.935  0.4601  0.4473 -1.1824
  698MOL0     C94137   2.983   4.102  12.038  0.4820 -0.3030  0.4042
  698MOL0     C94138   3.114   4.117  11.968  0.8874  0.8775  1.1137
  698MOL0    Cl94139   3.239   4.085  12.093 -0.2122 -0.2418  0.1510
  698MOL0     C94140   2.228   4.573  12.438  0.6836  0.2695  0.0952
  698MOL0     C94141   2.161   4.690  12.425 -0.4902  0.7669 -0.2293
  698MOL0     O94142   2.225   5.101  12.470 -0.5295 -0.2348  0.0848
  698MOL0     C94143   2.172   5.270  12.267 -0.5378  0.0622 -0.1084
  698MOL0     C94144   2.122   5.369  12.177 -0.3149  0.1491 -0.5050
  698MOL0     N94145   1.973   5.600  11.441 -0.5945  0.0137 -0.3984
  698MOL0     N94146   2.075   5.577  11.356 -1.4169  0.4120 -0.4961
  698MOL0     C94147   2.073   4.495  11.270  0.2920 -0.0475 -0.0310
  698MOL0     C94148   1.967   4.404  11.263 -0.3552  0.3428 -0.4852
  698MOL0     C94149   1.706   4.049  11.247 -0.5688 -0.5667 -0.2779
  698MOL0     C94150   1.714   3.954  11.141  0.6506  1.1364 -0.2254
  698MOL0     C94151   1.645   3.835  11.141  0.2406 -0.6061 -0.0982
  698MOL0     C94152   1.571   3.798  11.258  0.1038  0.4720 -0.0524
  698MOL0     O94153   1.517   3.666  11.278 -0.6556  0.8468  0.1741
  698MOL0     C94154   1.374   3.658  11.283  0.8703 -0.6943 -0.7501
  698MOL0     C94155   1.322   3.631  11.141 -0.3633 -0.2613  0.5299
  698MOL0     C94156   1.365   3.489  11.092  0.5239  0.4825  0.2241
  698MOL0     C94157   1.298   3.445  10.963 -0.3167 -0.4052 -0.9002
  698MOL0     C94158   1.306   3.304  10.932 -0.3978 -0.3718 -0.7823
  698MOL0     C94159   1.314   3.184  10.897 -0.0707 -0.6259  0.0001
  698MOL0     C94160   1.581   3.883  11.373  0.0599 -0.5136  0.5590
  698MOL0     C94161   1.641   4.009  11.361  0.0678  0.1604  0.1351
  698MOL0     C94162   1.642   4.103  11.480  0.2083  1.0702 -0.5855
  698MOL0     H94163   2.153   4.124  11.179 -0.3732 -0.6387  0.1667
  698MOL0     H94164   2.319   4.293  11.166 -0.1836 -1.6175 -1.7465
  698MOL0     H94165   2.373   4.636  11.043  0.5391  0.1197 -0.3859
  698MOL0     H94166   2.200   4.660  11.077 -0.5239 -0.2322  2.2704
  698MOL0     H94167   2.424   4.767  11.248  0.8958  0.2964 -0.4385
  698MOL0     H94168   2.248   4.790  11.272  3.0394  0.4219  3.2874
  698MOL0     H94169   2.229   4.885  11.062  0.8895  0.6492 -0.7324
  698MOL0     H94170   2.413   4.891  11.038  0.1629  0.5874 -0.8577
  698MOL0     H94171   2.263   5.027  11.255 -2.3197 -1.7716 -1.4442
  698MOL0     H94172   2.436   5.027  11.237 -0.5732  1.1543  0.6795
  698MOL0     H94173   2.428   5.122  11.020  0.8971 -0.4393  1.7084
  698MOL0     H94174   2.250   5.134  11.026  0.6683 -2.5561 -1.2161
  698MOL0     H94175   2.426   5.240  11.242 -0.5947  2.3437  0.8532
  698MOL0     H94176   2.396   5.333  11.090  2.4792  0.1411  0.9804
  698MOL0     H94177   2.179   5.238  11.287  0.4275  0.3709  0.6496
  698MOL0     H94178   2.147   5.344  11.156 -0.9253 -1.8754  0.3160
  698MOL0     H94179   2.333   5.377  11.400  1.2452 -0.3457 -0.8802
  698MOL0     H94180   2.321   5.501  11.282  1.5175 -0.8765 -0.2156
  698MOL0     H94181   2.087   5.304  11.539 -1.8865 -0.6472 -3.0363
  698MOL0     H94182   1.764   5.490  11.603 -0.6803 -0.0575  0.3871
  698MOL0     H94183   1.876   5.359  11.649 -2.8613  0.3511 -1.1318
  698MOL0     H94184   2.020   5.535  11.785 -0.1902  1.3906 -0.1241
  698MOL0     H94185   1.911   5.655  11.734  1.2283  0.8258  0.9730
  698MOL0     H94186   1.711   5.523  11.839 -0.1115  0.8733 -0.7459
  698MOL0     H94187   1.837   5.608  11.944 -0.0752 -0.6224  0.9956
  698MOL0     H94188   1.847   5.308  11.895 -1.5919 -0.6202  1.4277
  698MOL0     H94189   1.759   5.387  12.027  0.5789  1.1790 -0.0728
  698MOL0     H94190   1.902   5.172  12.013  1.9455  2.1118 -1.0145
  698MOL0     H94191   1.995   4.987  12.159 -2.6527  1.2382  0.0742
  698MOL0     H94192   2.404   4.926  12.451  0.0139  0.2629 -1.3970
  698MOL0     H94193   2.524   4.729  12.484  0.6157 -2.1960  0.7273
  698MOL0     H94194   2.423   4.315  12.371  1.1483 -1.2794 -1.8435
  698MOL0     H94195   2.428   4.456  12.264  0.0646  0.3863  0.7229
  698MOL0     H94196   2.668   4.467  12.273  1.6107 -1.8961 -3.0467
  698MOL0     H94197   2.681   4.341  12.391 -0.0825 -1.4262 -1.1298
  698MOL0     H94198   2.597   4.169  12.247  2.8986  0.4340 -0.5706
  698MOL0     H94199   2.527   4.259  12.130  1.1929 -0.3399  0.2328
  698MOL0     H94200   2.808   4.261  12.180  0.1262 -0.4435 -0.2874
  698MOL0     H94201   2.744   4.361  12.051 -1.4291  1.1262  1.2437
  698MOL0     H94202   2.644   4.142  11.940  0.3415  0.2225 -0.8191
  698MOL0     H94203   2.718   4.044  12.062  2.7172 -1.7168 -2.1478
  698MOL0     H94204   2.864   4.058  11.865 -1.5610  2.0582 -3.2112
  698MOL0     H94205   2.875   4.239  11.884 -0.2301  1.4197  0.4704
  698MOL0     H94206   2.973   3.994  12.055  1.7203 -0.5271 -0.1534
  698MOL0     H94207   2.972   4.155  12.132 -1.6264  0.4141 -0.1971
  698MOL0     H94208   3.114   4.048  11.884 -1.2581  2.5779 -0.4114
  698MOL0     H94209   3.128   4.211  11.914 -2.8266  1.7879  1.4491
  698MOL0     H94210   2.184   4.474  12.424  2.7267 -0.6997  0.2515
  698MOL0     H94211   2.054   4.673  12.418 -0.7975  2.3188  0.3815
  698MOL0     H94212   2.225   5.303  12.356 -1.6074 -1.6276  1.2257
  698MOL0     H94213   2.158   5.471  12.185 -0.0407 -0.1112  3.0813
  698MOL0     H94214   2.053   4.594  11.308 -1.5902  0.2804 -1.6808
  698MOL0     H94215   1.866   4.431  11.292 -0.0885 -1.0418  2.0494
  698MOL0     H94216   1.772   3.971  11.051 -0.0116 -1.9364 -1.3630
  698MOL0     H94217   1.655   3.765  11.059  0.6571 -0.3497 -0.2754
  698MOL0     H94218   1.342   3.760  11.307  3.3883  0.6644 -2.7256
  698MOL0     H94219   1.325   3.592  11.355 -0.7405  1.7109  0.4988
  698MOL0     H94220   1.360   3.709  11.075  0.3720  0.6616  1.9893
  698MOL0     H94221   1.215   3.641  11.122 -0.6004 -0.6401  1.5617
  698MOL0     H94222   1.326   3.417  11.164 -0.9778  1.7833  0.7668
  698MOL0     H94223   1.474   3.488  11.083  0.4786  0.9851 -0.4857
  698MOL0     H94224   1.195   3.482  10.975  0.1458  0.6981 -0.0601
  698MOL0     H94225   1.331   3.519  10.890  1.2127  0.4072  0.5194
  698MOL0     H94226   1.336   3.084  10.866  2.3090  0.1297 -1.0640
  698MOL0     H94227   1.538   3.837  11.461 -2.3936 -1.2605 -0.9349
  698MOL0     H94228   1.624   4.208  11.452  2.2741  1.0474 -2.2453
  698MOL0     H94229   1.574   4.063  11.555  5.2599 -2.9415  2.5672
  698MOL0     H94230   1.742   4.105  11.525  0.0364  2.2912 -0.2157
  699MOL0     O94231   5.059   4.414   0.142  0.2904 -0.2819 -0.1558
  699MOL0     C94232   4.984   4.451   0.230  0.0658 -0.7142  0.0304
  699MOL0     O94233   4.889   4.376   0.295 -0.6510 -0.0018  0.4904
  699MOL0     C94234   4.893   4.244   0.278  0.3211 -0.1126  0.7113
  699MOL0     C94235   4.980   4.176   0.365  0.1989 -0.0691  0.5108
  699MOL0     C94236   4.989   4.035   0.373 -0.1782 -0.4674 -0.3013
  699MOL0     C94237   4.906   3.957   0.288 -0.0539 -0.0164 -0.3002
  699MOL0     O94238   4.907   3.819   0.282 -0.2483  0.2782 -0.2585
  699MOL0     C94239   4.976   3.743   0.379 -0.3684  0.2464 -0.0103
  699MOL0     C94240   4.905   3.608   0.385 -0.7538  1.3091  0.3161
  699MOL0     C94241   4.760   3.618   0.437  0.4101  0.7360 -0.3436
  699MOL0     C94242   4.752   3.669   0.580 -0.7807  0.2257 -0.1606
  699MOL0     C94243   4.605   3.680   0.630 -0.1453  0.2551 -0.1778
  699MOL0     C94244   4.531   3.550   0.685  0.0862 -0.5168 -0.2523
  699MOL0     C94245   4.606   3.485   0.809  0.3777  0.1865 -0.4844
  699MOL0     C94246   4.550   3.347   0.822 -0.1792 -0.4091 -0.4812
  699MOL0     N94247   4.628   3.251   0.748 -0.2149  0.3340  0.0133
  699MOL0     C94248   4.616   3.196   0.624  0.3937  0.4210 -0.1279
  699MOL0     C94249   4.728   3.117   0.608 -0.4089  0.1478 -0.0630
  699MOL0     C94250   4.770   3.027   0.487  0.1064  0.3937  0.4617
  699MOL0     C94251   4.736   3.094   0.348 -0.2807 -0.9909 -0.1262
  699MOL0     C94252   4.822   3.224   0.343 -0.1058 -0.4791 -0.3680
  699MOL0     C94253   4.837   3.275   0.201  0.8207  0.2948 -0.1444
  699MOL0     O94254   4.966   3.340   0.190  1.0271  0.1462  0.2756
  699MOL0     C94255   5.011   3.369   0.067 -0.3881 -0.8987 -0.2439
  699MOL0     C94256   5.058   3.264  -0.018 -0.1235  0.5617 -0.7420
  699MOL0     C94257   5.115   3.292  -0.134 -1.0350 -0.5075  0.3441
  699MOL0     C94258   5.126   3.430  -0.177  0.9290  0.1544  0.0820
  699MOL0     C94259   5.193   3.470  -0.306  0.0003  0.2678  0.0116
  699MOL0     O94260   5.204   3.606  -0.338  0.3293  0.4480  0.3156
  699MOL0     C94261   5.287   3.657  -0.426  0.1504 -0.5174  0.4680
  699MOL0     C94262   5.233   3.752  -0.511 -0.6177 -0.4860  0.0160
  699MOL0     C94263   5.325   3.816  -0.603 -0.0133 -0.8549  0.3306
  699MOL0     C94264   5.460   3.779  -0.625  1.0367  0.2126  0.1653
  699MOL0     O94265   5.543   3.851  -0.715  0.4973 -0.3411 -0.6926
  699MOL0     C94266   5.660   3.783  -0.757  0.9186 -0.0268 -0.0549
  699MOL0     C94267   5.724   3.852  -0.889  0.2365  0.4872  0.3133
  699MOL0     C94268   5.619   3.846  -0.994  0.5797 -0.5094  0.3172
  699MOL0     C94269   5.630   3.702  -1.073 -0.1865 -0.0855 -0.4102
  699MOL0     C94270   5.499   3.657  -1.146  0.4820  0.2272 -0.2357
  699MOL0     C94271   5.385   3.590  -1.059 -0.4972  0.0853  0.8352
  699MOL0     C94272   5.428   3.488  -0.947 -0.8669 -0.3957 -0.0422
  699MOL0     C94273   5.462   3.351  -0.999 -0.4958 -0.2861  0.1602
  699MOL0    Cl94274   5.620   3.369  -1.080 -0.1462  0.1233  0.0925
  699MOL0     C94275   5.506   3.669  -0.540  0.4475 -1.6589  0.7126
  699MOL0     C94276   5.418   3.614  -0.446  0.5437  0.4876 -1.2489
  699MOL0     O94277   5.241   3.383  -0.374  0.2884  0.6446 -0.1852
  699MOL0     C94278   5.086   3.531  -0.089  0.0860 -0.9689 -0.8260
  699MOL0     C94279   5.017   3.505   0.029 -0.4152 -0.8736 -0.9826
  699MOL0     N94280   4.809   3.146   0.704  0.4983 -0.5305  0.2843
  699MOL0     N94281   4.751   3.214   0.798  0.1010 -0.0005  0.9975
  699MOL0     C94282   4.811   4.022   0.208 -0.5968 -0.2474 -0.2601
  699MOL0     C94283   4.809   4.165   0.203 -1.0314  0.0759 -0.5048
  699MOL0     C94284   4.984   4.603   0.270 -0.1101  0.2393  0.3571
  699MOL0     C94285   4.874   4.649   0.336 -0.7321 -0.5628 -0.6678
  699MOL0     C94286   4.848   4.783   0.354 -0.2279 -0.3337  0.2911
  699MOL0     C94287   4.934   4.874   0.295  0.2166  1.3128 -0.2078
  699MOL0     O94288   4.911   5.008   0.280  0.6990  0.0709  0.8473
  699MOL0     C94289   4.828   5.070   0.378  0.8961  0.1271  0.2879
  699MOL0     C94290   4.906   5.179   0.455  0.2366 -0.4647  0.2044
  699MOL0     C94291   5.050   5.143   0.487  0.2125  0.0370 -0.7478
  699MOL0     C94292   5.130   5.257   0.513 -0.7092 -0.8209 -0.1664
  699MOL0     C94293   5.084   5.317   0.638 -0.9011 -0.8634 -0.5355
  699MOL0     C94294   5.058   5.344   0.752 -0.2423 -1.1526  0.3155
  699MOL0     C94295   5.054   4.837   0.235  0.4742 -0.7093  0.1325
  699MOL0     C94296   5.085   4.704   0.228 -0.2927  0.2012  0.6126
  699MOL0     C94297   5.216   4.672   0.155 -0.7671 -0.2484 -0.8025
  699MOL0     H94298   5.042   4.232   0.434 -0.1332 -0.6249  1.2815
  699MOL0     H94299   5.067   3.995   0.437  1.3824 -1.6794 -2.8034
  699MOL0     H94300   5.079   3.729   0.343 -1.4949 -0.7720 -3.2367
  699MOL0     H94301   4.988   3.794   0.474 -0.1473 -1.0416  0.6784
  699MOL0     H94302   4.968   3.534   0.435 -3.3777 -3.1647 -2.3147
  699MOL0     H94303   4.895   3.566   0.284 -1.9521 -0.9779  1.3082
  699MOL0     H94304   4.699   3.529   0.422 -0.3407  1.3209 -0.8701
  699MOL0     H94305   4.712   3.680   0.360  0.9433  1.0678 -0.4147
  699MOL0     H94306   4.813   3.615   0.653 -0.0890  1.1828 -0.0154
  699MOL0     H94307   4.786   3.773   0.577 -0.3166  0.1595  1.7879
  699MOL0     H94308   4.611   3.754   0.710 -1.4128  4.1470 -3.3702
  699MOL0     H94309   4.550   3.726   0.548 -0.4378 -1.2010 -0.8237
  699MOL0     H94310   4.428   3.575   0.715 -0.7749 -5.1763  1.5110
  699MOL0     H94311   4.520   3.481   0.602 -0.8140 -3.5802  2.2190
  699MOL0     H94312   4.564   3.533   0.898  1.8068 -2.6746  1.9115
  699MOL0     H94313   4.714   3.503   0.802  0.5459 -1.0611 -1.4696
  699MOL0     H94314   4.549   3.303   0.923 -0.4663 -0.5443 -0.5417
  699MOL0     H94315   4.446   3.346   0.787 -0.0119  0.5407 -1.0342
  699MOL0     H94316   4.538   3.198   0.549  0.2661 -0.4066 -0.0350
  699MOL0     H94317   4.878   3.010   0.479  0.7051  3.9267 -0.3340
  699MOL0     H94318   4.718   2.931   0.502  2.8465 -1.2698  0.0854
  699MOL0     H94319   4.772   3.021   0.275  2.6037  1.3896 -1.2853
  699MOL0     H94320   4.630   3.114   0.330 -0.4879  0.1899  2.0478
  699MOL0     H94321   4.917   3.209   0.397  0.0782  3.5048  0.7164
  699MOL0     H94322   4.766   3.298   0.401  1.7189 -0.9742  2.2097
  699MOL0     H94323   4.760   3.351   0.186  1.6451  0.9535 -1.1774
  699MOL0     H94324   4.824   3.192   0.131 -1.2646  1.6931 -1.5460
  699MOL0     H94325   5.049   3.162   0.016 -3.9241  0.9853 -0.0439
  699MOL0     H94326   5.150   3.217  -0.205  2.6190  1.4491 -0.1562
  699MOL0     H94327   5.125   3.770  -0.510 -1.1042 -2.8510 -1.5867
  699MOL0     H94328   5.286   3.881  -0.681 -1.6257 -0.2299  1.6084
  699MOL0     H94329   5.740   3.771  -0.684  1.2929 -1.3219 -0.6288
  699MOL0     H94330   5.626   3.679  -0.769  1.3196 -0.1873  0.1619
  699MOL0     H94331   5.749   3.957  -0.869 -0.1536  0.7303 -0.4239
  699MOL0     H94332   5.817   3.798  -0.909  1.4658  2.6647 -0.1519
  699MOL0     H94333   5.520   3.873  -0.957  1.3323  2.9660  0.1567
  699MOL0     H94334   5.661   3.911  -1.071  4.8537 -2.6824  0.4937
  699MOL0     H94335   5.659   3.623  -1.003  1.7221  1.6432  0.8693
  699MOL0     H94336   5.719   3.711  -1.136  1.3740  0.9037  1.7929
  699MOL0     H94337   5.529   3.593  -1.230 -1.1803 -0.8632 -0.0493
  699MOL0     H94338   5.463   3.749  -1.192 -1.3233 -1.3827 -2.2608
  699MOL0     H94339   5.328   3.674  -1.019  0.1584  1.3625 -0.8051
  699MOL0     H94340   5.330   3.517  -1.120 -0.9576 -2.0366  3.5807
  699MOL0     H94341   5.342   3.470  -0.882 -0.7536 -1.1870 -0.1109
  699MOL0     H94342   5.511   3.527  -0.888 -0.4280  1.2817 -1.6584
  699MOL0     H94343   5.468   3.288  -0.910  0.5658 -1.3447 -0.6296
  699MOL0     H94344   5.393   3.317  -1.077  0.8128  0.1840 -1.2727
  699MOL0     H94345   5.611   3.643  -0.551  0.5625 -1.0231  0.2351
  699MOL0     H94346   5.467   3.541  -0.383 -2.7418 -2.5567 -1.8698
  699MOL0     H94347   5.099   3.638  -0.104  0.4398 -0.7684  0.7347
  699MOL0     H94348   4.973   3.587   0.086  0.4704  0.7250 -2.4836
  699MOL0     H94349   4.754   3.951   0.149  0.4137 -0.1462 -1.4003
  699MOL0     H94350   4.734   4.223   0.150 -2.4271 -0.5261  0.7613
  699MOL0     H94351   4.802   4.578   0.376  1.3521 -2.9346 -0.8822
  699MOL0     H94352   4.759   4.819   0.404  0.9788 -1.3366  3.4354
  699MOL0     H94353   4.789   5.007   0.459  0.6835  0.8576  0.7624
  699MOL0     H94354   4.748   5.135   0.343  0.1114  0.1001  1.9490
  699MOL0     H94355   4.868   5.192   0.557  4.7058 -0.0728  2.0636
  699MOL0     H94356   4.895   5.271   0.397  0.4293 -1.7511 -1.9869
  699MOL0     H94357   5.103   5.089   0.408 -0.5996 -2.7529  0.5151
  699MOL0     H94358   5.054   5.069   0.567 -1.9239 -0.4758 -1.0427
  699MOL0     H94359   5.236   5.234   0.523  0.4640  3.4194 -0.7921
  699MOL0     H94360   5.118   5.327   0.430  1.1696 -0.1641  0.0679
  699MOL0     H94361   5.042   5.364   0.856 -0.8780 -2.1727  0.4216
  699MOL0     H94362   5.120   4.911   0.191  0.2011 -2.1193 -2.9143
  699MOL0     H94363   5.194   4.634   0.055 -0.2456 -0.6656 -0.7621
  699MOL0     H94364   5.287   4.753   0.140  2.1955 -2.1773  1.5404
  699MOL0     H94365   5.269   4.597   0.216 -1.1804 -0.7023 -0.9937
  700MOL0     O94366   1.917   1.080  11.531  0.0368  0.2928 -0.8662
  700MOL0     C94367   1.979   1.125  11.626  0.4092  0.1334 -0.2228
  700MOL0     O94368   1.968   1.073  11.757 -0.0809  0.5322  0.5937
  700MOL0     C94369   1.922   0.947  11.756 -0.1739 -0.4131 -0.8621
  700MOL0     C94370   1.791   0.920  11.798 -0.1898 -0.1174  0.1975
  700MOL0     C94371   1.734   0.793  11.807 -0.8256  0.9804 -0.6055
  700MOL0     C94372   1.818   0.684  11.782  0.7204  0.2738 -0.0767
  700MOL0     O94373   1.760   0.562  11.801 -0.2565  0.3639  0.3166
  700MOL0     C94374   1.817   0.474  11.905  0.4997 -0.7362 -0.2192
  700MOL0     C94375   1.697   0.406  11.978  0.9052  0.1728  0.7725
  700MOL0     C94376   1.720   0.252  11.976 -0.5308 -0.4680  0.6926
  700MOL0     C94377   1.600   0.183  12.039 -1.1906 -0.2476 -0.4018
  700MOL0     C94378   1.606   0.027  12.015 -0.1888 -0.8657  0.3274
  700MOL0     C94379   1.480  -0.039  12.086 -0.0667  0.5019 -0.4274
  700MOL0     C94380   1.474  -0.190  12.043 -0.7074 -0.1463  0.1174
  700MOL0     C94381   1.369  -0.274  12.114  0.4092 -0.2709 -0.3090
  700MOL0     N94382   1.233  -0.248  12.063 -0.1757 -0.6999 -0.6696
  700MOL0     C94383   1.141  -0.358  12.044  0.1095 -0.6344 -0.5126
  700MOL0     C94384   1.020  -0.302  12.042 -0.6089 -0.4332  0.0504
  700MOL0     C94385   0.890  -0.371  12.035 -0.1276 -0.6359  0.5109
  700MOL0     C94386   0.894  -0.510  12.091  0.8971  0.5311  0.5729
  700MOL0     C94387   0.757  -0.584  12.097  0.9357  0.3682  0.2526
  700MOL0     C94388   0.781  -0.709  12.181 -0.2649 -0.9034  0.6353
  700MOL0     O94389   0.656  -0.747  12.237 -0.3425  0.1887  0.2864
  700MOL0     C94390   0.654  -0.850  12.326  0.6226  0.0841  0.3314
  700MOL0     C94391   0.556  -0.945  12.301  0.0361 -0.9500 -0.4266
  700MOL0     C94392   0.554  -1.065  12.373 -0.4945 -0.7677  0.0717
  700MOL0     C94393   0.639  -1.102  12.469  0.1069 -0.2946  0.3305
  700MOL0     C94394   0.631  -1.230  12.537 -1.2323  0.4036 -0.6636
  700MOL0     O94395   0.730  -1.261  12.624 -0.4405  0.6895 -0.0895
  700MOL0     C94396   0.721  -1.381  12.690  0.1343 -0.5226 -0.5515
  700MOL0     C94397   0.606  -1.444  12.738 -0.2084  0.6987 -0.4529
  700MOL0     C94398   0.618  -1.566  12.817 -0.0125 -0.2489 -0.0135
  700MOL0     C94399   0.749  -1.609  12.845 -0.0361  0.6107  0.1361
  700MOL0     O94400   0.750  -1.718  12.933 -1.1669 -0.4451  0.1945
  700MOL0     C94401   0.858  -1.718  13.037  0.2350 -1.2832  0.1914
  700MOL0     C94402   0.856  -1.605  13.144 -1.1075  0.0662  0.0557
  700MOL0     C94403   0.724  -1.541  13.187  0.0630  0.8002  0.1732
  700MOL0     C94404   0.743  -1.413  13.266  0.4651 -0.3135  0.1158
  700MOL0     C94405   0.774  -1.286  13.174 -0.5388  1.0835 -0.1358
  700MOL0     C94406   0.642  -1.229  13.117 -0.5253  0.2691  0.7232
  700MOL0     C94407   0.651  -1.098  13.033  0.2667  0.2129  0.8759
  700MOL0     C94408   0.747  -1.092  12.913 -1.0258 -0.0243 -0.8455
  700MOL0    Cl94409   0.732  -0.928  12.832 -0.4161 -0.5846  0.5490
  700MOL0     C94410   0.864  -1.539  12.800  0.5650 -0.3196  2.2692
  700MOL0     C94411   0.849  -1.430  12.714  0.1467  0.4411 -0.1036
  700MOL0     O94412   0.539  -1.303  12.503  0.7791 -0.3544 -0.2858
  700MOL0     C94413   0.731  -1.002  12.503 -0.2318 -0.0849  0.1813
  700MOL0     C94414   0.745  -0.881  12.430 -0.3426 -0.6791  0.5412
  700MOL0     N94415   1.030  -0.166  12.047 -0.1535  0.3675  0.4372
  700MOL0     N94416   1.154  -0.139  12.087 -0.5901  0.5189 -0.5543
  700MOL0     C94417   1.945   0.705  11.739 -0.6870 -0.9910  0.8226
  700MOL0     C94418   2.002   0.836  11.728  0.0952  0.2091 -1.6846
  700MOL0     C94419   2.062   1.237  11.591 -1.0257  0.9509 -0.8773
  700MOL0     C94420   2.187   1.232  11.661  0.6256 -0.4866 -0.7931
  700MOL0     C94421   2.279   1.329  11.628  0.2934  1.0049 -0.0061
  700MOL0     C94422   2.260   1.427  11.528  0.3475 -1.2593 -0.3258
  700MOL0     O94423   2.343   1.529  11.503 -0.0701 -0.3099 -0.2306
  700MOL0     C94424   2.467   1.473  11.454 -0.1414 -0.3244  0.3870
  700MOL0     C94425   2.525   1.528  11.320 -0.0496 -0.1552  0.0451
  700MOL0     C94426   2.481   1.674  11.302  0.5071  0.2756 -0.0082
  700MOL0     C94427   2.549   1.750  11.182  0.0219  0.1310 -0.3379
  700MOL0     C94428   2.554   1.898  11.212 -0.3535  0.6369 -0.5491
  700MOL0     C94429   2.577   2.022  11.221 -0.1923  0.1391 -0.3978
  700MOL0     C94430   2.139   1.431  11.471  0.3435 -0.1963  0.7259
  700MOL0     C94431   2.042   1.334  11.493  0.8091 -1.0347 -0.1308
  700MOL0     C94432   1.911   1.365  11.416 -0.5343  0.3888  0.5805
  700MOL0     H94433   1.726   1.001  11.829  1.0506  0.0055  2.7598
  700MOL0     H94434   1.629   0.796  11.835 -0.2536  2.1721  1.6625
  700MOL0     H94435   1.887   0.405  11.856  1.7628  2.0162 -2.5459
  700MOL0     H94436   1.879   0.526  11.978 -2.1167  0.5906  1.1886
  700MOL0     H94437   1.614   0.437  11.914 -0.6677 -1.5293  1.8882
  700MOL0     H94438   1.669   0.433  12.080 -0.1759  4.4815 -0.4424
  700MOL0     H94439   1.808   0.218  12.032 -0.7642 -1.0383  0.7100
  700MOL0     H94440   1.735   0.215  11.874  2.1194 -2.7531  1.7897
  700MOL0     H94441   1.609   0.183  12.148 -1.5349 -0.8056 -0.3636
  700MOL0     H94442   1.504   0.230  12.014 -1.7750 -0.8222  0.6692
  700MOL0     H94443   1.600   0.021  11.906 -1.8948  1.2248  0.2286
  700MOL0     H94444   1.704  -0.008  12.048 -0.6865 -0.4852  2.3422
  700MOL0     H94445   1.499  -0.044  12.193  2.8528  0.6216 -0.8424
  700MOL0     H94446   1.385   0.007  12.058 -1.2621 -2.6983 -2.2091
  700MOL0     H94447   1.569  -0.231  12.080 -0.5809 -0.9979 -1.1017
  700MOL0     H94448   1.481  -0.209  11.936  1.7178  1.5362 -0.0953
  700MOL0     H94449   1.384  -0.382  12.115  0.2931 -0.2854 -0.1445
  700MOL0     H94450   1.374  -0.240  12.218  1.8333 -1.1996 -0.0488
  700MOL0     H94451   1.159  -0.463  12.028  2.4786 -0.3026 -0.5061
  700MOL0     H94452   0.823  -0.304  12.090  1.8460  0.3416  1.8836
  700MOL0     H94453   0.857  -0.379  11.931 -0.4818  0.5548  0.5158
  700MOL0     H94454   0.970  -0.575  12.047  1.4900  0.4557  1.6693
  700MOL0     H94455   0.927  -0.487  12.193  0.6045  5.4675 -0.1963
  700MOL0     H94456   0.729  -0.600  11.993  1.5147  1.2216 -0.0451
  700MOL0     H94457   0.675  -0.523  12.136 -0.4599 -1.8296  0.9666
  700MOL0     H94458   0.842  -0.688  12.269 -0.2628 -2.6982  1.0964
  700MOL0     H94459   0.837  -0.788  12.131  1.1230  0.1748  0.4115
  700MOL0     H94460   0.472  -0.927  12.235  0.7184  2.2675 -0.5646
  700MOL0     H94461   0.473  -1.135  12.357  0.3368 -0.9500 -5.0257
  700MOL0     H94462   0.507  -1.405  12.715 -0.8927 -0.3887  0.5154
  700MOL0     H94463   0.529  -1.616  12.853  0.2786 -1.2706 -0.6572
  700MOL0     H94464   0.845  -1.815  13.086 -0.3724 -1.5394 -0.4488
  700MOL0     H94465   0.958  -1.724  12.993 -0.7425 -0.0055 -2.4508
  700MOL0     H94466   0.908  -1.656  13.226 -2.3409 -2.4908 -0.6587
  700MOL0     H94467   0.923  -1.529  13.103 -1.0033  0.9006  1.6868
  700MOL0     H94468   0.657  -1.539  13.100  0.6107 -4.8206 -0.7644
  700MOL0     H94469   0.671  -1.616  13.247  0.5194  2.5456  2.9459
  700MOL0     H94470   0.828  -1.432  13.332  0.2319 -2.2835 -0.1157
  700MOL0     H94471   0.658  -1.389  13.331  0.7812 -0.9287  0.7695
  700MOL0     H94472   0.834  -1.309  13.086 -0.9935 -0.7244 -0.0161
  700MOL0     H94473   0.832  -1.209  13.226 -0.2213  0.9635 -0.3114
  700MOL0     H94474   0.588  -1.308  13.064 -0.2139 -0.4305  1.4321
  700MOL0     H94475   0.579  -1.203  13.203 -0.2066  0.2865  0.9534
  700MOL0     H94476   0.680  -1.020  13.103  1.4406  0.4897  0.1136
  700MOL0     H94477   0.557  -1.078  12.980  2.6261 -0.4922 -4.2283
  700MOL0     H94478   0.850  -1.099  12.948 -1.3151  1.3991  0.3978
  700MOL0     H94479   0.732  -1.162  12.831  0.2335  0.2150 -1.3060
  700MOL0     H94480   0.964  -1.555  12.841  1.7899  2.6879  0.7601
  700MOL0     H94481   0.934  -1.384  12.664 -0.0717  0.1003 -0.8045
  700MOL0     H94482   0.804  -1.019  12.582 -0.2425  1.7778  0.6405
  700MOL0     H94483   0.832  -0.823  12.459 -1.6343  4.3860 -4.0889
  700MOL0     H94484   2.018   0.627  11.717  1.6983  1.3940 -0.1424
  700MOL0     H94485   2.107   0.848  11.706  0.8808 -2.0356  0.4067
  700MOL0     H94486   2.217   1.156  11.733 -0.5373 -0.5905 -0.3916
  700MOL0     H94487   2.377   1.313  11.672  0.5682  0.7051 -0.7081
  700MOL0     H94488   2.463   1.364  11.449 -1.4528 -0.5277  3.6745
  700MOL0     H94489   2.545   1.492  11.529 -0.5082  1.7280  0.2982
  700MOL0     H94490   2.482   1.472  11.235 -0.2055  0.5635 -0.3589
  700MOL0     H94491   2.632   1.510  11.317 -0.0102  0.1383 -0.4893
  700MOL0     H94492   2.490   1.736  11.392  0.1274  0.7123 -0.2650
  700MOL0     H94493   2.373   1.663  11.288  0.5498 -1.9136  1.0896
  700MOL0     H94494   2.653   1.720  11.166 -0.4969 -3.3277  1.8386
  700MOL0     H94495   2.485   1.752  11.093 -3.2677  2.3306  1.8445
  700MOL0     H94496   2.592   2.127  11.238 -0.2272  0.2359 -0.9307
  700MOL0     H94497   2.130   1.499  11.387  2.0498 -2.7326 -1.7284
  700MOL0     H94498   1.852   1.394  11.503 -3.2216  2.1300 -1.6314
  700MOL0     H94499   1.928   1.449  11.348  1.5389 -0.7684 -0.4244
  700MOL0     H94500   1.862   1.277  11.374  0.3678 -1.4091  3.0590
  701MOL0     O94501   9.943   6.070   3.219 -0.5445 -0.1675  0.1315
  701MOL0     C94502  10.041   6.083   3.293  0.1548  0.1029  0.3702
  701MOL0     O94503  10.162   6.138   3.252 -0.1536  0.5313 -0.3328
  701MOL0     C94504  10.181   6.208   3.137  0.2985  0.0294 -0.2296
  701MOL0     C94505  10.239   6.329   3.158  0.5255 -0.1090 -0.2010
  701MOL0     C94506  10.258   6.403   3.046 -0.6161 -0.1330 -0.5017
  701MOL0     C94507  10.233   6.351   2.916 -1.0253  0.4574  0.5484
  701MOL0     O94508  10.263   6.441   2.815 -0.1053 -0.1386 -0.5729
  701MOL0     C94509  10.188   6.453   2.699  0.7370 -0.0027 -0.7756
  701MOL0     C94510  10.264   6.434   2.577  0.0844  0.3345 -0.2600
  701MOL0     C94511  10.296   6.287   2.545  0.2596 -0.0895  0.1820
  701MOL0     C94512  10.183   6.221   2.467  1.0498  0.2313  0.1557
  701MOL0     C94513  10.206   6.078   2.424 -0.1335  0.4918  0.8632
  701MOL0     C94514  10.083   6.012   2.360 -0.2126  0.1535 -0.0594
  701MOL0     C94515  10.006   6.078   2.236  0.5751  0.4376  0.5528
  701MOL0     C94516   9.897   5.986   2.178 -0.6299  0.5945  0.7517
  701MOL0     N94517   9.957   5.904   2.068 -0.0774 -0.2888 -0.2960
  701MOL0     C94518   9.938   5.939   1.940  0.5924  0.4172  0.8942
  701MOL0     C94519  10.026   5.865   1.873  0.0987  0.4091 -0.5646
  701MOL0     C94520  10.046   5.858   1.724  0.1462  0.3037 -0.6764
  701MOL0     C94521  10.187   5.846   1.672  0.1404 -0.5771  0.3752
  701MOL0     C94522  10.286   5.965   1.690  0.7107  0.0839  0.3576
  701MOL0     C94523  10.328   6.006   1.833  0.2427  0.6126 -0.0022
  701MOL0     O94524  10.428   6.108   1.824  0.7661  0.8028  0.4455
  701MOL0     C94525  10.430   6.193   1.928  0.0288  0.1491  0.1014
  701MOL0     C94526  10.376   6.172   2.058  0.2248 -0.8484  0.1313
  701MOL0     C94527  10.390   6.274   2.157 -0.0133  0.2569  0.6641
  701MOL0     C94528  10.470   6.386   2.138  0.7938 -0.6624  0.3723
  701MOL0     C94529  10.490   6.492   2.241 -0.3029  0.5057 -1.0385
  701MOL0     O94530  10.607   6.565   2.224 -0.5566  0.7679 -0.4555
  701MOL0     C94531  10.624   6.681   2.295  0.7038 -0.1870 -0.4651
  701MOL0     C94532  10.687   6.686   2.423  0.0919 -0.4603  0.1205
  701MOL0     C94533  10.715   6.822   2.487 -0.2940  0.0147  0.6300
  701MOL0     C94534  10.670   6.935   2.422  0.7467  0.4482 -0.0197
  701MOL0     O94535  10.688   7.051   2.487 -0.6719  1.0848 -0.1289
  701MOL0     C94536  10.624   7.063   2.625 -0.0561  1.1379 -0.2128
  701MOL0     C94537  10.543   7.190   2.650  0.8588 -1.3494 -0.0230
  701MOL0     C94538  10.637   7.317   2.639 -0.1834  1.4847 -0.2010
  701MOL0     C94539  10.748   7.311   2.743  0.6974 -0.8962  0.6057
  701MOL0     C94540  10.803   7.454   2.752  1.5107  0.0573 -0.6816
  701MOL0     C94541  10.863   7.518   2.624  0.0583  0.4169  0.2163
  701MOL0     C94542  10.981   7.438   2.569  0.8096  0.0418 -0.2981
  701MOL0     C94543  11.094   7.422   2.666 -0.0649  0.1788 -0.5503
  701MOL0    Cl94544  11.155   7.566   2.761  0.2974 -0.2119  0.5494
  701MOL0     C94545  10.604   6.927   2.301 -0.9085 -0.4497 -0.6391
  701MOL0     C94546  10.589   6.804   2.237  0.4616  1.2166  0.1846
  701MOL0     O94547  10.410   6.494   2.335 -0.2241 -0.3213 -0.3247
  701MOL0     C94548  10.524   6.403   2.013 -0.2734 -0.1671  0.6060
  701MOL0     C94549  10.504   6.306   1.909  0.1666 -0.3943 -0.9062
  701MOL0     N94550  10.089   5.777   1.961 -0.4183  0.4726 -1.0566
  701MOL0     N94551  10.052   5.802   2.082  0.2069 -0.9256  0.1503
  701MOL0     C94552  10.170   6.232   2.896  0.5596 -0.1693 -0.2294
  701MOL0     C94553  10.143   6.162   3.008  0.9530  0.5166 -1.4596
  701MOL0     C94554  10.015   6.060   3.441 -0.2989 -0.6995 -0.4564
  701MOL0     C94555  10.091   6.136   3.530  0.1259  0.2139 -0.0022
  701MOL0     C94556  10.088   6.124   3.668  0.3674  0.4592 -0.0035
  701MOL0     C94557   9.999   6.028   3.723  0.0535  0.5048 -0.3512
  701MOL0     O94558  10.019   6.005   3.863 -0.2888 -0.1960 -0.3839
  701MOL0     C94559   9.915   5.927   3.940  0.1265 -0.3365  0.4310
  701MOL0     C94560   9.888   5.991   4.075 -1.0334  0.3213  0.4060
  701MOL0     C94561   9.750   5.954   4.128 -0.3622  0.0897  0.7930
  701MOL0     C94562   9.699   6.050   4.236 -0.1615  0.7969 -0.3980
  701MOL0     C94563   9.599   5.978   4.311  0.6713 -0.0599 -0.6630
  701MOL0     C94564   9.501   5.940   4.370 -0.8481 -0.2646 -0.1020
  701MOL0     C94565   9.918   5.953   3.644 -1.7985 -0.0478 -0.1550
  701MOL0     C94566   9.922   5.970   3.501 -0.1463 -0.4499 -0.1111
  701MOL0     C94567   9.860   5.878   3.406  0.2741 -0.1690  0.2683
  701MOL0     H94568  10.268   6.357   3.258 -1.8269 -2.1171  1.1624
  701MOL0     H94569  10.299   6.501   3.066  0.7018 -0.1061 -2.8949
  701MOL0     H94570  10.096   6.393   2.706  0.9623 -0.4719 -1.7512
  701MOL0     H94571  10.162   6.559   2.693 -0.1065 -0.1711 -0.2881
  701MOL0     H94572  10.358   6.488   2.593 -0.4097  1.1144  0.0348
  701MOL0     H94573  10.202   6.481   2.500 -2.6940  1.0193  2.2442
  701MOL0     H94574  10.330   6.242   2.638 -3.0339  3.6485  3.5460
  701MOL0     H94575  10.385   6.282   2.481 -1.0646  1.7150 -1.9281
  701MOL0     H94576  10.090   6.220   2.525  1.1234 -1.3268  0.3041
  701MOL0     H94577  10.166   6.283   2.379 -2.6891 -0.0576  0.5151
  701MOL0     H94578  10.285   6.080   2.348 -0.5253 -3.1895  0.1692
  701MOL0     H94579  10.231   6.015   2.510  2.2145 -0.0969 -0.1643
  701MOL0     H94580  10.122   5.918   2.319  1.8967  1.1076 -0.4083
  701MOL0     H94581  10.010   5.989   2.438  0.3225  0.4035  0.5191
  701MOL0     H94582  10.073   6.105   2.154  0.9071 -0.0719  0.6508
  701MOL0     H94583   9.954   6.171   2.263  0.0307  1.1668 -2.6507
  701MOL0     H94584   9.858   5.914   2.251  2.3904 -1.9759  0.0581
  701MOL0     H94585   9.806   6.040   2.150 -1.1620  1.0234  3.1154
  701MOL0     H94586   9.859   5.998   1.894  1.2513 -0.0981 -1.0028
  701MOL0     H94587  10.005   5.758   1.706  1.5906 -0.7725  1.4858
  701MOL0     H94588   9.983   5.938   1.685 -1.2489  0.4201  1.6297
  701MOL0     H94589  10.238   5.767   1.729 -0.0213 -1.5992 -0.8594
  701MOL0     H94590  10.182   5.802   1.572  0.0120 -1.0802  0.5998
  701MOL0     H94591  10.235   6.052   1.648  2.3894  1.4685  1.1105
  701MOL0     H94592  10.375   5.940   1.631 -0.3891 -2.0124 -0.5466
  701MOL0     H94593  10.364   5.913   1.876  0.1770 -0.3231 -1.8580
  701MOL0     H94594  10.240   6.037   1.890  0.2861  2.8962 -1.0298
  701MOL0     H94595  10.329   6.076   2.075 -1.0589 -0.3826 -0.6906
  701MOL0     H94596  10.343   6.253   2.253 -1.1182 -0.9696 -0.1158
  701MOL0     H94597  10.701   6.589   2.468  1.3022 -0.3782 -0.0495
  701MOL0     H94598  10.753   6.841   2.586  0.0255 -1.0265  0.7182
  701MOL0     H94599  10.554   6.982   2.645  0.3726  1.5419  3.9952
  701MOL0     H94600  10.694   7.053   2.709 -2.6352 -1.9039  1.8193
  701MOL0     H94601  10.478   7.213   2.565 -0.1615  3.9418  1.8117
  701MOL0     H94602  10.496   7.188   2.748  1.2601  0.5732  0.2546
  701MOL0     H94603  10.676   7.324   2.537  0.6005 -0.8747 -0.1297
  701MOL0     H94604  10.569   7.401   2.658 -1.1972  1.1413 -2.0697
  701MOL0     H94605  10.831   7.248   2.709  1.6335 -1.3971  3.4900
  701MOL0     H94606  10.707   7.291   2.843 -1.4574  0.3348  0.0273
  701MOL0     H94607  10.878   7.452   2.832  0.2084 -1.1942  0.5639
  701MOL0     H94608  10.722   7.522   2.779  1.6443 -0.0029 -0.1279
  701MOL0     H94609  10.797   7.535   2.539 -1.3253 -0.3826  1.1007
  701MOL0     H94610  10.892   7.618   2.658 -2.5568  0.5245  2.5024
  701MOL0     H94611  11.024   7.485   2.481 -1.9294 -0.5064 -2.0678
  701MOL0     H94612  10.941   7.340   2.540 -0.7462  0.9330 -1.3145
  701MOL0     H94613  11.064   7.343   2.736 -0.1158  0.3488 -0.3825
  701MOL0     H94614  11.175   7.373   2.610 -0.0513 -0.2941 -0.1250
  701MOL0     H94615  10.584   7.022   2.251  2.5396  0.8504  0.2146
  701MOL0     H94616  10.536   6.814   2.143  0.4548  0.4361  0.1023
  701MOL0     H94617  10.581   6.493   1.992 -1.6516  1.1354  2.1630
  701MOL0     H94618  10.553   6.336   1.816 -0.3268  1.8410 -0.4996
  701MOL0     H94619  10.151   6.181   2.802 -5.7849 -0.7207  0.9279
  701MOL0     H94620  10.102   6.061   2.998  0.0696  0.5307  1.2784
  701MOL0     H94621  10.155   6.217   3.494  1.9196 -0.9090  0.5543
  701MOL0     H94622  10.148   6.193   3.726 -2.7270  2.2605  1.3015
  701MOL0     H94623   9.927   5.819   3.943 -1.1812 -0.5524  4.7621
  701MOL0     H94624   9.819   5.940   3.891 -0.8105 -2.7626  1.4775
  701MOL0     H94625   9.878   6.098   4.055  0.5029  0.3483 -0.3425
  701MOL0     H94626   9.965   5.963   4.147 -2.1525  2.1342  2.4329
  701MOL0     H94627   9.747   5.850   4.161  0.0644 -1.0100 -2.2901
  701MOL0     H94628   9.674   5.953   4.048  1.0130  1.7403 -0.6232
  701MOL0     H94629   9.779   6.083   4.303 -1.8267 -0.7557  2.5791
  701MOL0     H94630   9.668   6.142   4.187 -1.3585  0.1408 -0.9170
  701MOL0     H94631   9.403   5.919   4.409 -1.3323  3.6263  1.2076
  701MOL0     H94632   9.861   5.873   3.690 -2.1393  0.3575  0.1274
  701MOL0     H94633   9.764   5.918   3.375  0.7777  1.8886  1.2190
  701MOL0     H94634   9.915   5.858   3.313 -0.1661 -2.8449  0.4952
  701MOL0     H94635   9.833   5.782   3.450 -0.9496 -0.6647 -1.4739
  702MOL0     O94636   9.836  10.527   9.285  0.5824 -0.2380  0.2795
  702MOL0     C94637   9.715  10.520   9.287 -0.2226  0.0445  0.1387
  702MOL0     O94638   9.633  10.482   9.183 -0.3339  0.5699 -0.3248
  702MOL0     C94639   9.695  10.461   9.057 -0.0052 -0.5446 -0.5235
  702MOL0     C94640   9.643  10.517   8.937 -0.7123  1.1383 -0.4259
  702MOL0     C94641   9.703  10.486   8.812  0.8108  1.0563  0.4220
  702MOL0     C94642   9.812  10.397   8.799 -0.3700 -0.4147  0.5268
  702MOL0     O94643   9.871  10.361   8.686 -0.3081  0.4925 -0.9110
  702MOL0     C94644   9.870  10.428   8.559  0.0446  0.3429 -0.2106
  702MOL0     C94645   9.989  10.372   8.482 -0.2393 -0.5520 -0.4077
  702MOL0     C94646   9.972  10.221   8.451  1.1331  0.3087 -0.2045
  702MOL0     C94647  10.101  10.147   8.469  0.4861 -0.1765 -0.4093
  702MOL0     C94648  10.103  10.078   8.602  0.2989  1.2995 -0.1126
  702MOL0     C94649  10.239  10.045   8.651  0.1849 -0.4017  0.1232
  702MOL0     C94650  10.226   9.948   8.776 -0.0819  0.2023 -0.1264
  702MOL0     C94651  10.174  10.015   8.904  1.1726  0.4269 -0.3061
  702MOL0     N94652  10.253  10.145   8.936  0.2283  0.1464 -0.2839
  702MOL0     C94653  10.240  10.278   8.885 -0.4092  0.1622 -0.3738
  702MOL0     C94654  10.295  10.359   8.983 -0.2833  0.3676 -0.5593
  702MOL0     C94655  10.323  10.512   8.985  0.7679  0.5145 -0.7668
  702MOL0     C94656  10.238  10.584   8.880 -0.1378  0.3615 -0.3424
  702MOL0     C94657  10.288  10.733   8.868 -0.1684  0.8088  0.0736
  702MOL0     C94658  10.213  10.810   8.769 -1.0137 -0.0255  0.0255
  702MOL0     O94659  10.209  10.751   8.635  0.5316 -0.2544  1.4470
  702MOL0     C94660  10.168  10.833   8.525  0.4994  0.3924 -0.4025
  702MOL0     C94661  10.127  10.965   8.551  0.7053  0.5576 -0.0255
  702MOL0     C94662  10.083  11.046   8.452  1.1248  0.6504  0.2461
  702MOL0     C94663  10.060  10.989   8.324  0.1505 -0.8181 -0.0422
  702MOL0     C94664  10.017  11.075   8.214  0.1295 -0.0280  0.5182
  702MOL0     O94665   9.929  11.182   8.231 -0.2980 -0.1548  0.6562
  702MOL0     C94666   9.880  11.255   8.133 -0.3729 -0.4337 -0.6392
  702MOL0     C94667   9.864  11.225   8.000  0.3403 -0.0002  0.0833
  702MOL0     C94668   9.805  11.316   7.906  0.5259 -0.3083 -0.6837
  702MOL0     C94669   9.753  11.436   7.961 -0.2573  0.7171 -0.8508
  702MOL0     O94670   9.693  11.523   7.874 -0.3445 -0.9891 -0.1799
  702MOL0     C94671   9.561  11.584   7.897  0.4049 -0.6900 -0.3293
  702MOL0     C94672   9.448  11.491   7.843  0.0144 -0.8193 -0.3234
  702MOL0     C94673   9.317  11.562   7.842  0.7771 -0.1137 -1.2192
  702MOL0     C94674   9.214  11.480   7.923  0.5124 -1.3713  0.1725
  702MOL0     C94675   9.086  11.573   7.929  0.3458  0.4912 -0.0703
  702MOL0     C94676   8.965  11.509   7.989  1.1417  0.0225 -0.3334
  702MOL0     C94677   8.876  11.608   8.059  0.5539 -0.1336 -1.2374
  702MOL0     C94678   8.804  11.539   8.184 -0.4291 -0.0422  0.7482
  702MOL0    Cl94679   8.684  11.434   8.109  0.4318  0.4540  0.4672
  702MOL0     C94680   9.766  11.462   8.097 -0.4395 -0.5095 -0.4859
  702MOL0     C94681   9.830  11.378   8.182 -0.0395 -0.3077  0.9639
  702MOL0     O94682  10.082  11.052   8.113  0.3607  0.3487  0.3075
  702MOL0     C94683  10.095  10.855   8.294  1.0973  0.6769 -1.0666
  702MOL0     C94684  10.162  10.781   8.392  0.3021 -0.0538 -0.0461
  702MOL0     N94685  10.353  10.278   9.082  0.2693 -0.5939 -0.1548
  702MOL0     N94686  10.327  10.158   9.051 -0.5007 -0.4010  0.0742
  702MOL0     C94687   9.843  10.326   8.910 -0.2582 -0.4691  1.0021
  702MOL0     C94688   9.797  10.362   9.042  0.0725 -0.3887  0.2620
  702MOL0     C94689   9.652  10.549   9.409  0.0166 -0.6609  0.3123
  702MOL0     C94690   9.538  10.479   9.438  0.8436  0.4946 -0.1083
  702MOL0     C94691   9.467  10.520   9.558 -0.5281 -0.8460 -0.5118
  702MOL0     C94692   9.495  10.633   9.630 -1.1105 -0.1249 -0.1106
  702MOL0     O94693   9.419  10.649   9.735  0.8029 -0.3113 -0.1378
  702MOL0     C94694   9.455  10.740   9.837 -0.6106 -0.2693 -0.6674
  702MOL0     C94695   9.552  10.676   9.941  0.5843 -0.5560  0.4486
  702MOL0     C94696   9.639  10.778  10.008 -0.3342 -0.1778 -0.3044
  702MOL0     C94697   9.715  10.720  10.133  0.9083 -0.1183 -0.0649
  702MOL0     C94698   9.626  10.662  10.249 -0.6523 -0.8956  0.2593
  702MOL0     C94699   9.571  10.600  10.342 -0.2154  0.0779 -0.2443
  702MOL0     C94700   9.604  10.710   9.588 -0.8167  0.4018  0.1382
  702MOL0     C94701   9.682  10.669   9.479 -0.6022 -0.0606  0.3962
  702MOL0     C94702   9.792  10.762   9.438 -0.2388 -1.1701 -0.3086
  702MOL0     H94703   9.554  10.574   8.959 -2.8001 -1.7699 -0.7617
  702MOL0     H94704   9.664  10.507   8.713 -0.4795 -4.2893 -0.5110
  702MOL0     H94705   9.778  10.402   8.505 -0.0271 -0.5463  0.3348
  702MOL0     H94706   9.879  10.537   8.566 -2.4336  0.6887 -1.1397
  702MOL0     H94707  10.080  10.391   8.540  0.2874 -0.1019 -1.3440
  702MOL0     H94708   9.995  10.418   8.383  0.4220 -0.5428 -0.3681
  702MOL0     H94709   9.951  10.215   8.344  1.7252 -2.3748 -0.2543
  702MOL0     H94710   9.891  10.172   8.507  2.3878 -2.1737 -0.4407
  702MOL0     H94711  10.129  10.079   8.388  2.6223 -1.5239  1.3519
  702MOL0     H94712  10.184  10.218   8.462 -0.2152  0.6428 -0.5455
  702MOL0     H94713  10.046  10.134   8.676  0.3910 -0.9991  1.8089
  702MOL0     H94714  10.043   9.989   8.584 -3.2655  4.1942 -5.2240
  702MOL0     H94715  10.281   9.975   8.579 -0.2897 -1.8727  1.2288
  702MOL0     H94716  10.312  10.126   8.659  1.4576 -1.4194 -0.7552
  702MOL0     H94717  10.319   9.891   8.788 -0.6594 -1.0785 -1.4199
  702MOL0     H94718  10.152   9.877   8.740  1.2350  0.0514 -2.7527
  702MOL0     H94719  10.072  10.053   8.895 -0.3820 -1.0426  5.9425
  702MOL0     H94720  10.158   9.947   8.989 -0.7564 -0.0886 -1.0321
  702MOL0     H94721  10.199  10.306   8.789  0.8245  2.4292 -0.3069
  702MOL0     H94722  10.295  10.553   9.083 -0.2911  1.1668 -1.3249
  702MOL0     H94723  10.429  10.532   8.969  1.2353  1.7314  2.9158
  702MOL0     H94724  10.262  10.526   8.791 -0.9672 -1.8756  0.7937
  702MOL0     H94725  10.132  10.571   8.906 -0.3158 -0.3823 -1.4107
  702MOL0     H94726  10.396  10.723   8.849  0.3904  4.9043  0.1507
  702MOL0     H94727  10.280  10.782   8.965  0.8130  0.8639  0.1406
  702MOL0     H94728  10.275  10.900   8.762  0.7437 -1.2204 -0.9150
  702MOL0     H94729  10.117  10.841   8.810  0.7285  3.3538  1.9322
  702MOL0     H94730  10.121  11.018   8.646 -2.2647 -0.2178  0.3362
  702MOL0     H94731  10.052  11.147   8.481 -3.3921 -0.0191 -1.4168
  702MOL0     H94732   9.908  11.132   7.966  0.4198  0.4946 -1.2192
  702MOL0     H94733   9.791  11.299   7.800 -3.7693  1.2770 -0.5759
  702MOL0     H94734   9.534  11.609   8.000 -0.4655  1.7558 -1.0763
  702MOL0     H94735   9.549  11.674   7.836 -2.6036 -1.7062 -1.4200
  702MOL0     H94736   9.482  11.467   7.742  3.3200  0.1913  0.4250
  702MOL0     H94737   9.452  11.404   7.908  4.3368  0.0013  0.8177
  702MOL0     H94738   9.332  11.659   7.892  2.1350 -1.1478  0.4919
  702MOL0     H94739   9.279  11.581   7.742  1.8662 -2.2765 -2.0996
  702MOL0     H94740   9.253  11.463   8.024  3.2435 -4.5437 -1.1941
  702MOL0     H94741   9.204  11.384   7.872  1.8546 -1.3918 -0.0953
  702MOL0     H94742   9.047  11.596   7.829 -1.0198  2.3603  0.8379
  702MOL0     H94743   9.118  11.666   7.976  1.1962  0.6012 -0.8321
  702MOL0     H94744   8.910  11.454   7.912  0.8682 -0.2805  0.0743
  702MOL0     H94745   8.993  11.426   8.055  0.4184 -1.5694 -1.9280
  702MOL0     H94746   8.809  11.647   7.981  1.0123 -3.3892 -3.4649
  702MOL0     H94747   8.931  11.693   8.102 -1.6923  0.8902 -0.1962
  702MOL0     H94748   8.884  11.490   8.241  0.2790  0.7687  0.4674
  702MOL0     H94749   8.747  11.606   8.249 -0.6679  0.4341  0.0596
  702MOL0     H94750   9.733  11.561   8.128  2.6438  0.7013 -0.6732
  702MOL0     H94751   9.855  11.403   8.284 -0.1773 -0.6950  1.0972
  702MOL0     H94752  10.078  10.800   8.203  1.2623 -0.8439 -0.2145
  702MOL0     H94753  10.206  10.686   8.364 -1.3919 -1.0139  0.4060
  702MOL0     H94754   9.903  10.236   8.902 -1.9772 -1.7646  2.0199
  702MOL0     H94755   9.826  10.301   9.127  0.2952  1.4920  1.6156
  702MOL0     H94756   9.488  10.398   9.385  1.8338 -0.8103  0.8751
  702MOL0     H94757   9.369  10.487   9.590 -0.2753  0.7218  2.1146
  702MOL0     H94758   9.367  10.773   9.894 -0.8228 -0.2418 -1.0109
  702MOL0     H94759   9.510  10.830   9.806 -0.6341  0.2395  0.6760
  702MOL0     H94760   9.614  10.601   9.892  1.3408 -0.6615  1.5170
  702MOL0     H94761   9.499  10.629  10.024  1.0353  1.9617  2.2975
  702MOL0     H94762   9.584  10.858  10.059  0.0183 -0.6728  0.8792
  702MOL0     H94763   9.706  10.821   9.932 -0.1931  1.0336  0.4805
  702MOL0     H94764   9.778  10.637  10.098  1.4996 -1.0441  2.9097
  702MOL0     H94765   9.794  10.790  10.161  1.1667 -0.2657 -0.4066
  702MOL0     H94766   9.526  10.548  10.424 -0.4742 -2.2185 -1.7664
  702MOL0     H94767   9.644  10.795   9.643 -4.5633  1.0959  2.1152
  702MOL0     H94768   9.890  10.715   9.433  1.1243  0.9911  2.6686
  702MOL0     H94769   9.781  10.804   9.338  2.4992 -0.5832 -0.4218
  702MOL0     H94770   9.803  10.839   9.515  2.8704 -0.4952 -1.2883
  703MOL0     O94771   0.262  10.030   9.663  0.1699  0.5049 -0.1666
  703MOL0     C94772   0.292   9.968   9.762  0.4853  0.3520  0.0305
  703MOL0     O94773   0.261  10.009   9.888 -0.3780  0.0223 -0.1076
  703MOL0     C94774   0.205  10.131   9.899 -0.2116  0.1781 -0.2765
  703MOL0     C94775   0.287  10.242   9.938  0.5027  0.1321 -0.1865
  703MOL0     C94776   0.236  10.360   9.964  0.7463  0.2437  0.1344
  703MOL0     C94777   0.101  10.385   9.925 -0.1504 -0.2923 -0.6709
  703MOL0     O94778   0.056  10.514   9.903  0.0795  0.2091  0.2570
  703MOL0     C94779  -0.038  10.555  10.012 -0.1755 -1.2453  0.5603
  703MOL0     C94780  -0.088  10.700   9.971  0.2343  0.5612 -0.2752
  703MOL0     C94781   0.034  10.803   9.988 -0.4435  0.0700  0.0542
  703MOL0     C94782   0.064  10.862  10.127 -2.0727 -0.9932 -0.0052
  703MOL0     C94783   0.154  10.976  10.131  0.3611 -0.0988 -0.0142
  703MOL0     C94784   0.197  11.038  10.272 -0.7519  0.2508  0.2928
  703MOL0     C94785   0.319  11.127  10.259 -0.1125 -0.0453  0.1572
  703MOL0     C94786   0.370  11.202  10.380 -0.7115 -0.0248 -0.1860
  703MOL0     N94787   0.255  11.253  10.457  0.5479  0.2047 -1.0098
  703MOL0     C94788   0.170  11.360  10.416 -0.4150  0.7735  0.1979
  703MOL0     C94789   0.074  11.363  10.507  0.3370  0.2368 -0.4946
  703MOL0     C94790  -0.042  11.466  10.520  0.7326  0.2648  0.3660
  703MOL0     C94791   0.010  11.612  10.528  0.4034  0.6597  0.5944
  703MOL0     C94792   0.069  11.634  10.672 -0.1939 -0.2530 -0.3118
  703MOL0     C94793   0.192  11.718  10.671  0.3724 -0.9934 -0.1361
  703MOL0     O94794   0.166  11.813  10.783 -0.1969 -0.2084 -0.4105
  703MOL0     C94795   0.280  11.888  10.816  0.3122  0.4426  0.3898
  703MOL0     C94796   0.287  11.925  10.949 -0.1501  0.1047 -0.2693
  703MOL0     C94797   0.391  11.998  11.000 -0.9908 -0.6705  1.0483
  703MOL0     C94798   0.502  12.030  10.920  1.1023  0.2599  1.0146
  703MOL0     C94799   0.615  12.104  10.980  0.7377 -0.9519  0.8401
  703MOL0     O94800   0.722  12.127  10.908  0.4595  0.4038  0.9073
  703MOL0     C94801   0.831  12.196  10.952  0.0904  0.0355  0.4856
  703MOL0     C94802   0.869  12.322  10.909 -0.4587  0.5853  0.3861
  703MOL0     C94803   0.990  12.384  10.957 -0.1041  0.7420  0.3341
  703MOL0     C94804   1.074  12.317  11.048 -0.6747 -0.8739  0.3699
  703MOL0     O94805   1.182  12.382  11.105 -0.1189  0.2449 -0.0781
  703MOL0     C94806   1.254  12.488  11.031 -0.3731  0.3899 -0.0322
  703MOL0     C94807   1.397  12.498  11.082  0.2812 -0.4919 -0.7764
  703MOL0     C94808   1.465  12.629  11.089 -0.0683 -0.9376  0.4132
  703MOL0     C94809   1.482  12.676  10.935  0.9677  0.7021 -0.0205
  703MOL0     C94810   1.582  12.787  10.916 -1.4153  0.4135 -0.5312
  703MOL0     C94811   1.520  12.923  10.953 -1.0987  0.8031  0.8935
  703MOL0     C94812   1.636  13.020  10.997  0.0177 -0.1193 -0.0215
  703MOL0     C94813   1.666  13.005  11.148 -0.2122 -0.0901  0.8159
  703MOL0    Cl94814   1.786  13.144  11.178 -0.0200  0.0639 -0.4213
  703MOL0     C94815   1.035  12.197  11.102  0.0173 -0.2137  0.0923
  703MOL0     C94816   0.924  12.131  11.051  0.3106  0.2518  0.5388
  703MOL0     O94817   0.596  12.161  11.084  0.0636  0.2960 -0.9420
  703MOL0     C94818   0.503  11.961  10.795  0.2243 -0.3193  0.9087
  703MOL0     C94819   0.393  11.899  10.729  0.3749  0.4720 -0.0492
  703MOL0     N94820   0.089  11.255  10.596  1.0570 -0.0801  0.5050
  703MOL0     N94821   0.193  11.196  10.571 -0.8936  0.0743 -0.1098
  703MOL0     C94822   0.028  10.279   9.865 -0.5101 -0.1645 -0.4649
  703MOL0     C94823   0.078  10.149   9.867  0.6772  0.0540 -0.5148
  703MOL0     C94824   0.384   9.851   9.752 -0.5357 -0.8041 -0.0835
  703MOL0     C94825   0.455   9.814   9.865 -0.7516 -0.3168  0.7646
  703MOL0     C94826   0.552   9.711   9.856  0.0421 -0.7262 -0.0178
  703MOL0     C94827   0.596   9.640   9.744 -0.1554 -0.7541 -0.5848
  703MOL0     O94828   0.694   9.539   9.750  0.2036  0.2426 -0.5049
  703MOL0     C94829   0.729   9.463   9.635 -0.0025 -0.2430  1.1080
  703MOL0     C94830   0.825   9.355   9.666 -1.1720  0.2066 -0.3249
  703MOL0     C94831   0.961   9.417   9.733 -0.1004 -0.2643 -0.9161
  703MOL0     C94832   1.081   9.329   9.754  0.4829 -0.7935 -0.7355
  703MOL0     C94833   1.078   9.253   9.874 -1.1846  0.7231  0.2030
  703MOL0     C94834   1.097   9.195   9.977  0.0313 -0.1611 -0.5128
  703MOL0     C94835   0.526   9.674   9.630  0.3334 -0.0168 -0.5215
  703MOL0     C94836   0.427   9.778   9.631  0.4328 -0.4268 -0.2503
  703MOL0     C94837   0.369   9.803   9.496  0.6045 -0.3775 -1.1654
  703MOL0     H94838   0.392  10.218   9.946  0.6640  0.8155 -0.1643
  703MOL0     H94839   0.299  10.446   9.986  1.4480 -0.1270 -0.3543
  703MOL0     H94840  -0.121  10.484  10.018 -1.6677  0.3721 -0.1307
  703MOL0     H94841   0.010  10.548  10.110  1.1106 -2.1995 -0.0965
  703MOL0     H94842  -0.173  10.725  10.035 -1.4931 -1.6708 -1.5818
  703MOL0     H94843  -0.121  10.701   9.867  0.3852  3.1300 -0.3691
  703MOL0     H94844   0.003  10.891   9.932  1.0794 -0.2589 -1.3681
  703MOL0     H94845   0.126  10.763   9.944 -0.3313 -0.3027  0.6192
  703MOL0     H94846  -0.031  10.880  10.177 -1.7598 -1.9304  0.9774
  703MOL0     H94847   0.114  10.791  10.194  0.9789 -0.0570 -1.1344
  703MOL0     H94848   0.244  10.953  10.074  0.2179 -0.1509 -0.2210
  703MOL0     H94849   0.101  11.058  10.080  1.2505  0.5030  0.0022
  703MOL0     H94850   0.108  11.088  10.311  0.3592 -0.0957  3.5081
  703MOL0     H94851   0.225  10.953  10.334 -0.9309  2.5176  3.7684
  703MOL0     H94852   0.280  11.203  10.191 -3.7332 -0.8447  1.1310
  703MOL0     H94853   0.410  11.085  10.214  0.3419  1.1802 -0.1199
  703MOL0     H94854   0.409  11.132  10.454 -1.6805  1.6599  2.0606
  703MOL0     H94855   0.444  11.271  10.338 -0.1199  0.1390  1.0708
  703MOL0     H94856   0.191  11.429  10.335  3.2959  1.4526  1.5594
  703MOL0     H94857  -0.114  11.451  10.439  0.8181 -1.9155  0.6329
  703MOL0     H94858  -0.093  11.441  10.613  0.5651  2.3814  0.8901
  703MOL0     H94859   0.076  11.620  10.441 -0.0579  0.3358  0.2080
  703MOL0     H94860  -0.078  11.675  10.516  0.3991  0.7240  0.9510
  703MOL0     H94861   0.084  11.533  10.712  0.1112  0.0755  0.4204
  703MOL0     H94862   0.003  11.676  10.748  1.4094 -2.1076  2.3000
  703MOL0     H94863   0.200  11.772  10.576 -0.2772  2.3348  1.5469
  703MOL0     H94864   0.273  11.646  10.689  0.7199  0.3494  5.6794
  703MOL0     H94865   0.202  11.892  11.009  0.5555 -3.3045 -0.8985
  703MOL0     H94866   0.380  12.034  11.102 -4.6111 -0.2352  0.6492
  703MOL0     H94867   0.813  12.364  10.825  2.4724  0.1891 -1.9231
  703MOL0     H94868   1.003  12.486  10.923 -0.3938  0.1150 -1.8342
  703MOL0     H94869   1.259  12.477  10.923 -1.6404 -0.0932 -0.0484
  703MOL0     H94870   1.214  12.588  11.047  0.8265  0.7026  1.3271
  703MOL0     H94871   1.380  12.482  11.189 -0.9837  0.1642 -0.8609
  703MOL0     H94872   1.472  12.430  11.041 -1.7825 -3.5902  0.2098
  703MOL0     H94873   1.407  12.708  11.137 -0.6670 -0.8416 -0.4472
  703MOL0     H94874   1.563  12.620  11.136  0.6114 -1.6527 -1.0799
  703MOL0     H94875   1.386  12.701  10.890  0.1860  2.1859  2.2592
  703MOL0     H94876   1.507  12.589  10.874 -0.4587  0.6073 -0.5018
  703MOL0     H94877   1.619  12.794  10.813  3.5137 -4.3566  0.4972
  703MOL0     H94878   1.668  12.757  10.977 -2.5411 -0.9282  0.4420
  703MOL0     H94879   1.465  12.961  10.866  0.5619  0.3125 -0.4283
  703MOL0     H94880   1.440  12.906  11.025 -0.8518  1.9478  1.4555
  703MOL0     H94881   1.610  13.118  10.955  0.4071  1.1879  2.5727
  703MOL0     H94882   1.726  12.991  10.943 -0.2150 -1.1708  0.1421
  703MOL0     H94883   1.575  13.016  11.208 -0.4004  1.2638  0.3237
  703MOL0     H94884   1.705  12.906  11.169 -0.8043 -1.4604 -3.4940
  703MOL0     H94885   1.095  12.145  11.176 -0.5143 -2.1937 -0.8066
  703MOL0     H94886   0.890  12.031  11.075 -0.7032  1.1471  3.1802
  703MOL0     H94887   0.591  11.971  10.732 -0.2627 -0.6689  0.1589
  703MOL0     H94888   0.407  11.865  10.627  0.2832  0.4807 -0.0644
  703MOL0     H94889  -0.074  10.299   9.834 -0.0708  0.9861 -1.2317
  703MOL0     H94890   0.021  10.064   9.829  0.2895 -1.3003  2.7098
  703MOL0     H94891   0.457   9.867   9.960 -0.1615 -2.0988  1.7749
  703MOL0     H94892   0.610   9.708   9.948 -1.4692  1.1216  1.0865
  703MOL0     H94893   0.774   9.527   9.559  0.7193 -1.0819  0.8131
  703MOL0     H94894   0.639   9.414   9.597 -0.3111  0.6032  0.7265
  703MOL0     H94895   0.845   9.303   9.572 -1.7075  0.3760 -0.5346
  703MOL0     H94896   0.781   9.279   9.732  0.0745 -1.1956 -1.0492
  703MOL0     H94897   0.948   9.466   9.829  2.5219  2.0681 -1.6506
  703MOL0     H94898   1.002   9.494   9.667  0.3155  1.2949  1.0850
  703MOL0     H94899   1.071   9.248   9.681 -0.7227 -2.9033  1.6257
  703MOL0     H94900   1.175   9.380   9.730  1.7248 -1.9365  1.4105
  703MOL0     H94901   1.114   9.157  10.076  2.4827 -1.1535 -1.2283
  703MOL0     H94902   0.548   9.615   9.542  2.4927 -1.6308  0.9829
  703MOL0     H94903   0.376   9.910   9.474  2.5827  0.0495  1.1564
  703MOL0     H94904   0.430   9.752   9.421  2.4185  0.8841 -0.6216
  703MOL0     H94905   0.262   9.778   9.495 -0.7823  4.3963 -1.1385
  704MOL0     O94906   9.123   3.180   5.432  0.7366 -0.3306 -0.0260
  704MOL0     C94907   9.204   3.124   5.508  0.1345 -0.2071  0.3569
  704MOL0     O94908   9.177   3.058   5.626 -0.7288 -1.1042 -0.2411
  704MOL0     C94909   9.055   3.032   5.681  0.7645 -0.7296 -0.0587
  704MOL0     C94910   8.933   3.021   5.606  0.2042 -0.1035 -0.2313
  704MOL0     C94911   8.816   2.992   5.678  0.9836  0.6688 -0.2533
  704MOL0     C94912   8.817   2.974   5.815  0.4846  0.5164  0.8484
  704MOL0     O94913   8.704   2.921   5.884  0.2661 -0.1963 -0.3146
  704MOL0     C94914   8.716   2.774   5.909 -0.2992 -0.9357 -0.5871
  704MOL0     C94915   8.721   2.759   6.069 -0.4035  0.0233 -0.9920
  704MOL0     C94916   8.591   2.721   6.138  0.5418  0.3613 -0.1214
  704MOL0     C94917   8.523   2.836   6.219  0.5205 -0.2174  0.0779
  704MOL0     C94918   8.606   2.895   6.332 -0.1560 -1.0079 -0.0327
  704MOL0     C94919   8.538   2.990   6.431 -0.6064 -0.7093  0.1047
  704MOL0     C94920   8.412   2.936   6.502  0.4515 -0.1186  0.1209
  704MOL0     C94921   8.273   2.945   6.434 -0.0356  0.1216 -0.5400
  704MOL0     N94922   8.168   2.881   6.512  0.6839  0.1719 -0.8332
  704MOL0     C94923   8.157   2.889   6.652 -0.7911  0.0672  1.1887
  704MOL0     C94924   8.052   2.810   6.680  0.2797 -0.5870 -0.1793
  704MOL0     C94925   8.005   2.797   6.830  0.0625 -0.5409  0.8829
  704MOL0     C94926   7.922   2.917   6.884  0.5726  0.1901 -0.1484
  704MOL0     C94927   7.999   3.051   6.901 -0.3940 -0.8406  1.0060
  704MOL0     C94928   7.886   3.149   6.923 -0.7475 -0.3324  0.1802
  704MOL0     O94929   7.862   3.138   7.068 -0.4500  0.0024  0.1294
  704MOL0     C94930   7.784   3.228   7.120  0.3749 -0.4096 -0.2838
  704MOL0     C94931   7.675   3.185   7.196 -0.0674  0.5174  0.3225
  704MOL0     C94932   7.590   3.279   7.253  0.3307 -0.1266 -0.5493
  704MOL0     C94933   7.620   3.414   7.242 -0.5659 -0.4235  0.5378
  704MOL0     C94934   7.542   3.517   7.311  0.3532  1.9907 -0.0872
  704MOL0     O94935   7.612   3.614   7.373  0.1504 -0.4341  0.3734
  704MOL0     C94936   7.554   3.711   7.456 -0.1161  0.0923 -1.1381
  704MOL0     C94937   7.444   3.676   7.544 -0.1105 -0.7191  0.4385
  704MOL0     C94938   7.397   3.777   7.628  0.5146 -0.0298 -1.0191
  704MOL0     C94939   7.459   3.906   7.646  0.3110 -0.1672  1.2140
  704MOL0     O94940   7.417   3.985   7.750  0.1372  0.0258 -0.0793
  704MOL0     C94941   7.472   3.937   7.872  0.1299 -0.3556  0.3537
  704MOL0     C94942   7.431   4.022   7.989  0.2031  0.4285 -0.4731
  704MOL0     C94943   7.288   3.995   8.038  0.1402  0.2222 -0.4792
  704MOL0     C94944   7.272   4.068   8.164 -0.5561  0.1263 -1.1456
  704MOL0     C94945   7.136   4.050   8.232 -0.0467 -0.7244  0.2868
  704MOL0     C94946   7.104   4.177   8.317 -0.0197 -0.5023  0.2209
  704MOL0     C94947   6.956   4.179   8.378  0.6543 -0.0824  0.3523
  704MOL0     C94948   6.852   4.218   8.276  0.1901  0.5054  0.2609
  704MOL0    Cl94949   6.690   4.187   8.348  0.1881 -0.0645 -0.0995
  704MOL0     C94950   7.567   3.934   7.566  0.6021 -0.8897 -0.1759
  704MOL0     C94951   7.625   3.833   7.481 -0.9273  0.1745 -0.1658
  704MOL0     O94952   7.425   3.497   7.319 -0.3777 -0.4282  0.6907
  704MOL0     C94953   7.728   3.458   7.161 -0.4121  0.2575 -0.3547
  704MOL0     C94954   7.810   3.360   7.097  0.2844 -1.0076  0.2346
  704MOL0     N94955   7.995   2.758   6.571 -0.1786 -0.1547  0.1443
  704MOL0     N94956   8.074   2.787   6.469  0.2258  1.0257  0.3895
  704MOL0     C94957   8.932   2.998   5.890  0.1447 -0.6847  0.7320
  704MOL0     C94958   9.051   3.024   5.823  0.1681 -0.3631 -0.1046
  704MOL0     C94959   9.349   3.129   5.464  0.3708  0.9521 -0.4993
  704MOL0     C94960   9.369   3.128   5.328  0.3392  0.1005  0.0536
  704MOL0     C94961   9.493   3.149   5.273  0.2314  0.5610  0.3027
  704MOL0     C94962   9.606   3.170   5.355  0.1981  0.3662 -0.2543
  704MOL0     O94963   9.731   3.189   5.300  0.2513  0.1000 -0.8449
  704MOL0     C94964   9.818   3.079   5.294  0.2329  0.4088 -0.4601
  704MOL0     C94965   9.804   3.013   5.150 -0.0262  0.6027 -0.2776
  704MOL0     C94966   9.872   2.868   5.146  0.4241  0.1856  0.7760
  704MOL0     C94967   9.801   2.784   5.245 -0.6162 -0.0980 -0.2833
  704MOL0     C94968   9.847   2.648   5.228  0.7352 -0.4369 -0.1751
  704MOL0     C94969   9.884   2.528   5.204  0.7027 -0.5050 -0.1946
  704MOL0     C94970   9.591   3.181   5.486  0.5377  0.3860 -0.7505
  704MOL0     C94971   9.464   3.160   5.546  0.1157  0.0487  1.0337
  704MOL0     C94972   9.454   3.196   5.694 -0.4388 -0.3894  0.6075
  704MOL0     H94973   8.932   3.039   5.499  1.7644  1.0846 -0.0834
  704MOL0     H94974   8.727   2.966   5.622  1.2493  2.0079 -1.3507
  704MOL0     H94975   8.629   2.723   5.867  0.7947 -3.0190 -0.4351
  704MOL0     H94976   8.811   2.732   5.874  0.4960  0.3310 -0.0316
  704MOL0     H94977   8.768   2.842   6.122 -4.2641  1.3616  0.6692
  704MOL0     H94978   8.795   2.682   6.095 -0.0820  0.9207  0.8798
  704MOL0     H94979   8.613   2.639   6.207 -1.6531  0.2319  0.5243
  704MOL0     H94980   8.512   2.690   6.068 -0.1699  0.7547  0.4947
  704MOL0     H94981   8.483   2.918   6.158  0.2838  0.7932  1.5303
  704MOL0     H94982   8.433   2.790   6.261  0.3784  1.5061  1.7818
  704MOL0     H94983   8.666   2.826   6.391 -1.0013 -0.5890  1.3630
  704MOL0     H94984   8.685   2.956   6.287 -2.2737  1.9441 -0.0753
  704MOL0     H94985   8.599   3.029   6.513 -3.0166  1.7244  0.8668
  704MOL0     H94986   8.509   3.079   6.374  1.1257 -0.0927  0.1315
  704MOL0     H94987   8.404   3.000   6.591  0.6356  0.8212 -0.5329
  704MOL0     H94988   8.440   2.833   6.530  1.2470 -0.3505 -1.4318
  704MOL0     H94989   8.238   3.046   6.410  1.7851  0.4704 -2.0090
  704MOL0     H94990   8.263   2.903   6.333 -1.0853 -0.3409 -0.2556
  704MOL0     H94991   8.220   2.945   6.721 -1.0559 -1.0811  2.4215
  704MOL0     H94992   7.949   2.703   6.831 -0.1017 -0.5420 -1.7210
  704MOL0     H94993   8.090   2.766   6.892  1.6384  1.0214 -0.3958
  704MOL0     H94994   7.839   2.924   6.813  1.0535  1.7553 -0.6007
  704MOL0     H94995   7.880   2.888   6.981  0.5071  0.9429  0.0601
  704MOL0     H94996   8.060   3.064   6.812  0.5610 -3.3595  1.2157
  704MOL0     H94997   8.066   3.042   6.987 -0.5566 -1.1246  1.1064
  704MOL0     H94998   7.797   3.138   6.860 -1.0193  4.7288 -0.7599
  704MOL0     H94999   7.922   3.247   6.891 -0.5988 -0.2219  0.6776
  704MOL0     H95000   7.643   3.081   7.192 -0.2336  0.4565  2.3007
  704MOL0     H95001   7.503   3.252   7.311 -0.4351  2.6226 -0.2692
  704MOL0     H95002   7.395   3.580   7.557 -2.1351  0.2162  0.0938
  704MOL0     H95003   7.325   3.760   7.707 -0.3536  1.2280 -1.5112
  704MOL0     H95004   7.441   3.835   7.895 -2.0027  0.6465  2.2418
  704MOL0     H95005   7.580   3.927   7.858 -0.0843 -1.0012 -0.9352
  704MOL0     H95006   7.502   4.008   8.071 -1.1524  2.2464  1.1001
  704MOL0     H95007   7.430   4.126   7.955  1.5814  0.2159 -1.2423
  704MOL0     H95008   7.218   4.045   7.971 -3.0457 -4.1662 -0.8344
  704MOL0     H95009   7.256   3.891   8.032 -2.5295  0.9184  0.4561
  704MOL0     H95010   7.298   4.173   8.150 -1.0065 -0.1516 -4.9556
  704MOL0     H95011   7.347   4.027   8.233  0.3762 -2.1290 -3.3475
  704MOL0     H95012   7.125   3.957   8.288  0.5474 -0.6005  0.6078
  704MOL0     H95013   7.053   4.051   8.160  2.3050  1.2127 -2.6763
  704MOL0     H95014   7.189   4.187   8.385  0.0721 -0.7998  0.1536
  704MOL0     H95015   7.099   4.259   8.245 -4.0437 -1.8199 -1.3047
  704MOL0     H95016   6.940   4.247   8.462  0.4575  0.3550 -0.0354
  704MOL0     H95017   6.925   4.081   8.416 -1.1108  1.8866  4.5443
  704MOL0     H95018   6.865   4.319   8.237  3.5726 -0.6779 -2.1728
  704MOL0     H95019   6.846   4.152   8.189 -3.0251 -1.3918  1.7315
  704MOL0     H95020   7.619   4.028   7.585  0.3700 -0.3444 -2.1070
  704MOL0     H95021   7.722   3.839   7.431 -0.3133 -1.8750  0.6751
  704MOL0     H95022   7.766   3.558   7.147  1.5376 -0.4441 -0.4553
  704MOL0     H95023   7.901   3.397   7.050  0.1874 -0.5506  0.4029
  704MOL0     H95024   8.958   2.979   5.994  1.2876 -1.7495  0.2688
  704MOL0     H95025   9.147   3.033   5.872  0.2080 -0.1356 -0.2266
  704MOL0     H95026   9.279   3.130   5.266  0.9570  1.4846 -0.8552
  704MOL0     H95027   9.495   3.150   5.165 -1.1295 -0.7681  0.2324
  704MOL0     H95028   9.785   3.015   5.377 -0.6954 -0.2471 -1.3034
  704MOL0     H95029   9.923   3.102   5.314  0.5028 -2.8237  2.9749
  704MOL0     H95030   9.853   3.081   5.080  3.3506 -0.0456  1.2830
  704MOL0     H95031   9.698   3.003   5.124 -0.3822 -1.2403  1.6045
  704MOL0     H95032   9.981   2.865   5.150  0.9693  1.8230 -4.5496
  704MOL0     H95033   9.839   2.821   5.052 -1.1745  2.1443  0.2805
  704MOL0     H95034   9.836   2.820   5.342 -0.1192 -1.7742  0.1848
  704MOL0     H95035   9.692   2.784   5.242 -0.6772  2.1273  0.2329
  704MOL0     H95036   9.921   2.427   5.198  0.9968 -0.3416 -4.4670
  704MOL0     H95037   9.674   3.217   5.547  0.6895 -0.9263 -0.1465
  704MOL0     H95038   9.548   3.239   5.729 -0.8067  2.1425 -1.1959
  704MOL0     H95039   9.371   3.267   5.707 -0.9407 -1.1867  1.8917
  704MOL0     H95040   9.424   3.106   5.748 -4.3680  0.8557  0.8475
  705MOL0     O95041  11.125  10.252   3.332 -0.9565  1.1602 -0.1882
  705MOL0     C95042  11.130  10.292   3.443  0.6463 -1.4786 -0.2916
  705MOL0     O95043  11.105  10.425   3.474  0.5310 -0.0616  0.6447
  705MOL0     C95044  11.063  10.515   3.380 -1.3208 -0.1271 -0.2737
  705MOL0     C95045  10.932  10.563   3.391 -0.2738 -0.7774  0.4779
  705MOL0     C95046  10.884  10.652   3.292 -0.3596  0.1762  0.2816
  705MOL0     C95047  10.955  10.684   3.180  0.5043  0.5579  0.0795
  705MOL0     O95048  10.900  10.762   3.077 -0.4013 -0.3598  0.5013
  705MOL0     C95049  10.788  10.849   3.104  0.3661  0.6028 -0.4504
  705MOL0     C95050  10.780  10.962   3.003 -0.3573  0.4575 -0.4971
  705MOL0     C95051  10.659  11.051   3.028 -0.9168 -0.1855 -0.7708
  705MOL0     C95052  10.693  11.182   2.956  0.5067  0.1464  1.5077
  705MOL0     C95053  10.563  11.258   2.929  0.3932  0.4063 -0.3884
  705MOL0     C95054  10.505  11.215   2.792 -0.8001 -0.4271  0.1575
  705MOL0     C95055  10.362  11.271   2.776 -0.7659  1.0764  0.4086
  705MOL0     C95056  10.304  11.228   2.648  0.5107 -0.2805 -0.4985
  705MOL0     N95057  10.167  11.283   2.638  0.0307 -0.3503  0.2336
  705MOL0     C95058  10.146  11.408   2.581 -1.0628 -0.3777 -0.2781
  705MOL0     C95059  10.010  11.425   2.593 -0.3757  0.6522 -0.5214
  705MOL0     C95060   9.931  11.541   2.545  0.1173 -0.1784 -0.9587
  705MOL0     C95061   9.882  11.520   2.397 -0.1630  0.1103  0.2507
  705MOL0     C95062   9.778  11.403   2.379  0.1861  0.0411 -0.1748
  705MOL0     C95063   9.671  11.407   2.487  1.0632  0.2301 -0.1779
  705MOL0     O95064   9.550  11.330   2.450 -0.9257 -0.9656  0.5245
  705MOL0     C95065   9.461  11.318   2.550  0.3187  0.3104  0.2373
  705MOL0     C95066   9.488  11.213   2.648  1.1581 -0.8845 -0.8937
  705MOL0     C95067   9.391  11.197   2.744 -0.4516 -0.5286  0.5595
  705MOL0     C95068   9.277  11.276   2.760  0.3463  0.2720 -0.1219
  705MOL0     C95069   9.172  11.235   2.848 -0.2134 -0.2349 -0.9804
  705MOL0     O95070   9.205  11.123   2.924 -0.0892  0.3951  0.7349
  705MOL0     C95071   9.126  11.061   3.015 -0.7404 -0.1051  1.1554
  705MOL0     C95072   9.029  11.121   3.103 -0.0959  0.1006  0.4445
  705MOL0     C95073   8.959  11.044   3.198 -0.1487  0.3736  1.1285
  705MOL0     C95074   8.990  10.906   3.210  0.7348  0.6046  0.4025
  705MOL0     O95075   8.938  10.812   3.300  1.3886  0.3671  0.1235
  705MOL0     C95076   8.827  10.840   3.393 -0.3431 -1.1978 -0.0490
  705MOL0     C95077   8.714  10.751   3.403 -0.4775  0.5909  0.5307
  705MOL0     C95078   8.644  10.711   3.267  0.1797 -1.0882 -1.5772
  705MOL0     C95079   8.516  10.624   3.293  0.1083 -0.2257 -0.4699
  705MOL0     C95080   8.430  10.613   3.172  0.4333  0.3475  0.2549
  705MOL0     C95081   8.303  10.520   3.197 -0.7165  0.4845  0.0448
  705MOL0     C95082   8.237  10.478   3.060  0.3318 -0.3444 -0.4151
  705MOL0     C95083   8.079  10.468   3.066  0.1828  0.0736 -0.5299
  705MOL0    Cl95084   8.023  10.646   3.083  0.1534 -0.1698 -0.2433
  705MOL0     C95085   9.096  10.851   3.130 -0.5781 -0.1859  0.1164
  705MOL0     C95086   9.166  10.927   3.031 -0.4669  0.0747  0.6742
  705MOL0     O95087   9.071  11.307   2.861  0.4532  0.1867 -0.0121
  705MOL0     C95088   9.251  11.368   2.657 -0.3610 -0.4291  0.8993
  705MOL0     C95089   9.346  11.395   2.562  0.4013 -0.7132  0.2049
  705MOL0     N95090   9.963  11.307   2.663 -0.9694 -0.2299 -0.4244
  705MOL0     N95091  10.059  11.224   2.688  0.8432 -0.0993  0.6428
  705MOL0     C95092  11.087  10.644   3.176 -0.7657 -0.2829  0.2252
  705MOL0     C95093  11.141  10.556   3.267  0.7474 -0.3505  0.5610
  705MOL0     C95094  11.143  10.195   3.562 -0.9804  0.7850  0.5549
  705MOL0     C95095  11.195  10.245   3.677  0.5404 -0.1414 -0.2751
  705MOL0     C95096  11.215  10.167   3.786 -1.4038  0.3556  0.6312
  705MOL0     C95097  11.185  10.031   3.795 -0.0277 -0.5708 -0.0294
  705MOL0     O95098  11.213   9.952   3.901 -0.0251 -0.4554  0.2575
  705MOL0     C95099  11.338   9.881   3.894 -0.1359  0.3188 -0.4897
  705MOL0     C95100  11.368   9.799   4.021  0.8655  0.3584 -1.2416
  705MOL0     C95101  11.261   9.684   4.026 -0.3264  0.6224 -0.6842
  705MOL0     C95102  11.244   9.617   4.165 -0.2591  0.1722 -0.8044
  705MOL0     C95103  11.377   9.588   4.218  0.9460 -0.4166 -0.2016
  705MOL0     C95104  11.486   9.559   4.260 -0.6863 -0.7453  0.2045
  705MOL0     C95105  11.130   9.983   3.676 -0.3849  0.3747 -0.3253
  705MOL0     C95106  11.110  10.057   3.564 -0.4870  0.3804  0.4874
  705MOL0     C95107  11.026  10.004   3.452 -0.7224 -0.7738 -0.3960
  705MOL0     H95108  10.878  10.545   3.483  0.2207  0.6327  1.0768
  705MOL0     H95109  10.779  10.683   3.294  0.1750  2.1202  0.8408
  705MOL0     H95110  10.696  10.789   3.110  2.8653 -3.4488  1.5975
  705MOL0     H95111  10.801  10.893   3.203  3.4609  1.5823 -1.1732
  705MOL0     H95112  10.782  10.928   2.899 -1.5082  0.7006 -0.6078
  705MOL0     H95113  10.868  11.024   3.025 -1.2173  0.9798  1.7679
  705MOL0     H95114  10.653  11.085   3.132  0.9487 -2.5767  0.2148
  705MOL0     H95115  10.566  10.998   3.002 -0.2111 -2.7753  1.4591
  705MOL0     H95116  10.759  11.254   3.005 -0.7111  1.3920  1.4004
  705MOL0     H95117  10.730  11.170   2.854 -1.8912  2.6009  0.1870
  705MOL0     H95118  10.487  11.252   3.008  0.7359  1.6743  0.0590
  705MOL0     H95119  10.583  11.366   2.924 -0.5811  0.6031 -0.3382
  705MOL0     H95120  10.565  11.263   2.714 -0.0619  1.8941  2.0209
  705MOL0     H95121  10.519  11.109   2.771  1.1381 -0.5383  1.6959
  705MOL0     H95122  10.385  11.376   2.791  4.6317 -0.0087  1.8018
  705MOL0     H95123  10.292  11.236   2.853 -1.6294  0.1181 -0.7718
  705MOL0     H95124  10.363  11.253   2.559 -0.3689  2.7838 -0.3476
  705MOL0     H95125  10.289  11.120   2.657 -3.4332  0.3016  3.5783
  705MOL0     H95126  10.226  11.473   2.547  0.9968 -2.0892  1.0535
  705MOL0     H95127   9.843  11.541   2.610  1.2365  0.8371  0.6195
  705MOL0     H95128   9.979  11.639   2.555 -0.1106  0.0157 -1.6888
  705MOL0     H95129   9.829  11.613   2.378 -0.5846 -0.2865 -0.5663
  705MOL0     H95130   9.964  11.507   2.326  0.5833 -1.3305  1.3214
  705MOL0     H95131   9.836  11.312   2.364 -0.2548 -0.4761  1.1026
  705MOL0     H95132   9.729  11.426   2.284  1.3677 -1.0274 -1.0659
  705MOL0     H95133   9.640  11.511   2.498  1.2406  0.1921  0.7081
  705MOL0     H95134   9.707  11.380   2.587 -2.0676  3.8824  2.2158
  705MOL0     H95135   9.560  11.137   2.619 -0.0099 -1.4109 -2.6327
  705MOL0     H95136   9.399  11.099   2.792 -1.3735 -0.6706  0.4464
  705MOL0     H95137   9.016  11.228   3.119  2.4759  0.1635  2.8779
  705MOL0     H95138   8.879  11.099   3.246 -1.9586 -0.7401 -0.4752
  705MOL0     H95139   8.865  10.849   3.495 -1.0938 -1.0952  0.2289
  705MOL0     H95140   8.789  10.939   3.366  0.0498 -0.8931  0.5167
  705MOL0     H95141   8.753  10.668   3.463  2.9781  0.8898 -1.0238
  705MOL0     H95142   8.634  10.799   3.459 -3.7181  0.5518 -3.5630
  705MOL0     H95143   8.602  10.803   3.228 -3.4109 -0.9038  2.0782
  705MOL0     H95144   8.714  10.668   3.195  0.4309 -0.5566 -1.6599
  705MOL0     H95145   8.452  10.642   3.380  1.0249 -4.5058  1.3588
  705MOL0     H95146   8.556  10.524   3.312 -0.0885  0.1458  2.3746
  705MOL0     H95147   8.492  10.581   3.088 -0.6812 -1.6791  0.1384
  705MOL0     H95148   8.380  10.707   3.146 -0.6382 -0.4647 -0.7314
  705MOL0     H95149   8.325  10.431   3.256  2.1407  0.2031 -1.2562
  705MOL0     H95150   8.229  10.579   3.251  1.2351  1.0316  2.3206
  705MOL0     H95151   8.281  10.386   3.021  1.4265  0.3539 -0.9028
  705MOL0     H95152   8.256  10.564   2.995  0.5103 -0.3417 -0.3589
  705MOL0     H95153   8.044  10.422   2.974  0.5312  1.2919 -1.2914
  705MOL0     H95154   8.044  10.410   3.152  4.6732  0.1093  1.6618
  705MOL0     H95155   9.123  10.748   3.153  2.1843  0.6149  0.9664
  705MOL0     H95156   9.243  10.872   2.978  0.6763  1.7759  0.5104
  705MOL0     H95157   9.161  11.428   2.658 -1.9477 -2.6798  2.5334
  705MOL0     H95158   9.309  11.456   2.480 -1.5492 -0.7507  1.0019
  705MOL0     H95159  11.156  10.688   3.105 -0.7262  1.2415  1.1650
  705MOL0     H95160  11.244  10.523   3.259  0.6994 -1.5378  3.5381
  705MOL0     H95161  11.228  10.347   3.696  1.4217 -0.3339 -0.7176
  705MOL0     H95162  11.255  10.213   3.877 -0.0731  1.9533 -0.6914
  705MOL0     H95163  11.426   9.933   3.856  0.4585 -0.6686 -0.5157
  705MOL0     H95164  11.325   9.801   3.820 -1.0534 -0.8783  0.8971
  705MOL0     H95165  11.363   9.859   4.113  0.9141 -1.2403 -0.1485
  705MOL0     H95166  11.471   9.762   4.010  1.2922  1.5471 -1.4279
  705MOL0     H95167  11.291   9.610   3.952  2.4781  3.5412 -2.7582
  705MOL0     H95168  11.164   9.717   3.987  0.7832  0.9011 -3.5044
  705MOL0     H95169  11.201   9.701   4.220 -0.8351  2.4273 -4.3857
  705MOL0     H95170  11.180   9.528   4.164 -1.5785  1.0911 -0.5109
  705MOL0     H95171  11.571   9.538   4.322 -0.2435  0.5226  0.0511
  705MOL0     H95172  11.118   9.875   3.672  1.8020 -0.0652  2.2513
  705MOL0     H95173  10.990   9.902   3.461 -2.7049 -0.0985 -0.1018
  705MOL0     H95174  10.947  10.076   3.428 -0.3400 -0.7316 -1.5742
  705MOL0     H95175  11.097   9.998   3.369 -2.5384  0.1657 -2.0860
  706MOL0     O95176   2.299   3.853   9.556  0.5948  0.6811 -0.5225
  706MOL0     C95177   2.298   3.865   9.678  0.5803 -0.9737 -0.8622
  706MOL0     O95178   2.183   3.869   9.762  0.1052 -0.8443  0.7997
  706MOL0     C95179   2.054   3.848   9.700  0.1654 -0.7347 -0.1999
  706MOL0     C95180   2.020   3.919   9.575 -1.1543  0.4478 -0.8516
  706MOL0     C95181   1.890   3.895   9.519  0.3506  0.8799 -0.5964
  706MOL0     C95182   1.794   3.811   9.588 -0.2987 -0.0490 -0.2874
  706MOL0     O95183   1.672   3.806   9.527  0.3048  0.0358  1.2149
  706MOL0     C95184   1.597   3.927   9.541 -1.0434  0.4789 -0.2736
  706MOL0     C95185   1.463   3.897   9.487  0.4332  0.4416 -0.1627
  706MOL0     C95186   1.385   4.030   9.506  0.2634  0.1716 -0.9036
  706MOL0     C95187   1.244   4.023   9.442 -0.2129  0.1394 -0.3716
  706MOL0     C95188   1.193   4.170   9.421  0.4245  0.3491 -0.0738
  706MOL0     C95189   1.062   4.170   9.350  0.3680 -0.6293  0.7835
  706MOL0     C95190   1.010   4.310   9.338 -0.2895  0.3956 -0.5328
  706MOL0     C95191   0.862   4.312   9.300  0.4569 -0.5248 -0.1358
  706MOL0     N95192   0.819   4.449   9.259  1.0323 -1.0258  0.2674
  706MOL0     C95193   0.712   4.514   9.314 -0.0327 -0.4085 -0.6236
  706MOL0     C95194   0.714   4.636   9.254  0.0855 -0.8991 -0.2294
  706MOL0     C95195   0.613   4.741   9.289  0.2307 -0.2870  0.1508
  706MOL0     C95196   0.494   4.750   9.190  0.2671 -0.0126 -0.8771
  706MOL0     C95197   0.370   4.829   9.250 -0.8839 -0.6407 -1.1187
  706MOL0     C95198   0.389   4.973   9.268 -1.8656  0.0305 -0.6797
  706MOL0     O95199   0.258   5.035   9.250 -0.4361 -0.0721  1.1242
  706MOL0     C95200   0.216   5.124   9.346 -0.4167 -1.5078 -1.3599
  706MOL0     C95201   0.082   5.117   9.382 -0.1777  0.5735 -0.3478
  706MOL0     C95202   0.021   5.220   9.465 -0.2489  0.2452  0.3612
  706MOL0     C95203   0.098   5.324   9.509  1.2560 -0.0225 -0.6349
  706MOL0     C95204   0.036   5.444   9.578  0.9324 -0.9003 -0.4810
  706MOL0     O95205  -0.099   5.465   9.580  0.6315 -1.2220 -0.2931
  706MOL0     C95206  -0.137   5.561   9.672  0.2994  0.2623 -0.1578
  706MOL0     C95207  -0.157   5.692   9.636  0.0878 -0.0204  0.3291
  706MOL0     C95208  -0.189   5.790   9.731 -0.3610 -1.2025 -0.1545
  706MOL0     C95209  -0.183   5.758   9.873  0.0612  1.2948  1.3001
  706MOL0     O95210  -0.204   5.851   9.968  0.2331  0.0161 -0.2019
  706MOL0     C95211  -0.117   5.842  10.088 -0.8400 -0.7315  0.3845
  706MOL0     C95212  -0.107   5.996  10.116 -0.0284  1.4526 -1.1647
  706MOL0     C95213   0.019   6.003  10.202 -0.4209 -0.6273 -0.2963
  706MOL0     C95214   0.008   5.943  10.342  0.3829  0.3557 -0.3157
  706MOL0     C95215   0.128   5.956  10.436  1.0623 -0.2524 -0.4183
  706MOL0     C95216   0.098   5.880  10.573 -0.3020 -0.3206 -0.0622
  706MOL0     C95217   0.109   5.731  10.587  0.5592  0.3713 -0.2444
  706MOL0     C95218   0.244   5.668  10.601 -0.3818  0.0882  0.4565
  706MOL0    Cl95219   0.245   5.491  10.610 -0.2570  0.2082  0.0405
  706MOL0     C95220  -0.165   5.626   9.899  0.7134  1.3649 -0.1314
  706MOL0     C95221  -0.140   5.531   9.810  0.3565  0.0109  0.9586
  706MOL0     O95222   0.114   5.524   9.620 -1.0600  0.7133  0.4855
  706MOL0     C95223   0.235   5.328   9.477  0.7753 -0.0178 -0.0768
  706MOL0     C95224   0.297   5.234   9.390 -0.2228 -0.3861 -0.0747
  706MOL0     N95225   0.830   4.648   9.178  0.1113 -0.4493  0.2884
  706MOL0     N95226   0.889   4.536   9.184  0.5549  0.0692  0.4980
  706MOL0     C95227   1.830   3.755   9.704  0.2659  0.4634  0.1110
  706MOL0     C95228   1.966   3.762   9.754  0.4147  0.5248  0.0773
  706MOL0     C95229   2.422   3.897   9.762 -0.3999  0.2827 -0.9008
  706MOL0     C95230   2.409   3.914   9.907  0.1182 -0.5262  0.6067
  706MOL0     C95231   2.524   3.925   9.982  0.5269 -1.4534 -0.2720
  706MOL0     C95232   2.645   3.912   9.923  0.7434  0.2948  0.3264
  706MOL0     O95233   2.750   3.909  10.006 -0.1406 -0.7709  0.5977
  706MOL0     C95234   2.880   3.870   9.945 -0.3299  0.3738 -0.2356
  706MOL0     C95235   2.988   3.881  10.058 -0.6906 -0.0143 -0.1096
  706MOL0     C95236   3.134   3.845  10.015 -0.5157 -0.2402 -0.3240
  706MOL0     C95237   3.152   3.690  10.028  0.4199  0.2078  0.1394
  706MOL0     C95238   3.283   3.674   9.972 -1.1112  0.6797  0.6537
  706MOL0     C95239   3.400   3.660   9.936 -0.9059  0.0789 -0.5001
  706MOL0     C95240   2.655   3.896   9.782 -0.1524 -0.2639  0.2783
  706MOL0     C95241   2.549   3.888   9.702  0.9977 -0.2259  0.3388
  706MOL0     C95242   2.576   3.894   9.556 -0.0440 -0.1602 -0.7392
  706MOL0     H95243   2.097   3.973   9.521 -0.7177 -0.5722 -1.2833
  706MOL0     H95244   1.864   3.922   9.418 -0.2208 -2.8078 -1.5820
  706MOL0     H95245   1.603   3.961   9.645 -0.5511  1.8003 -0.7153
  706MOL0     H95246   1.654   3.993   9.474  0.9069  0.4287  1.2424
  706MOL0     H95247   1.401   3.824   9.540 -1.1358  2.6008  1.1124
  706MOL0     H95248   1.460   3.867   9.382 -0.2153  0.3976 -0.1353
  706MOL0     H95249   1.435   4.113   9.456  1.4963  0.3853  0.6077
  706MOL0     H95250   1.370   4.066   9.609  1.7328 -0.5302 -0.4234
  706MOL0     H95251   1.250   3.951   9.359 -1.6619 -1.2465  0.6793
  706MOL0     H95252   1.179   3.972   9.513 -0.3107 -0.3361 -0.7948
  706MOL0     H95253   1.181   4.220   9.518  2.2095  1.5028 -0.3953
  706MOL0     H95254   1.258   4.226   9.354 -0.3478  0.3190 -0.8589
  706MOL0     H95255   1.061   4.121   9.252  0.8768 -1.5827  1.2334
  706MOL0     H95256   1.007   4.113   9.427 -0.5712  1.0795  1.4191
  706MOL0     H95257   1.063   4.353   9.253 -1.2334  0.2111 -1.2317
  706MOL0     H95258   1.030   4.372   9.427  0.8504 -2.5264  1.3900
  706MOL0     H95259   0.842   4.248   9.213 -0.6253  2.4066 -2.1864
  706MOL0     H95260   0.789   4.283   9.375  2.2047 -1.1347  1.4154
  706MOL0     H95261   0.643   4.474   9.388 -1.1038  1.4117 -0.5708
  706MOL0     H95262   0.586   4.725   9.394 -4.0089 -0.3133 -0.7370
  706MOL0     H95263   0.657   4.841   9.292 -1.7106  0.6083  1.4441
  706MOL0     H95264   0.534   4.798   9.100  1.3970 -1.6809 -1.3220
  706MOL0     H95265   0.463   4.653   9.149 -1.5261  0.0101  0.3345
  706MOL0     H95266   0.358   4.780   9.347  1.4046  3.1109  1.3040
  706MOL0     H95267   0.282   4.816   9.187 -1.9110  3.5268 -0.8203
  706MOL0     H95268   0.462   5.026   9.205 -1.1610 -2.0861 -1.7351
  706MOL0     H95269   0.419   4.976   9.373 -3.0354  3.1513 -0.3207
  706MOL0     H95270   0.023   5.030   9.355 -0.6576 -0.4599  3.3587
  706MOL0     H95271  -0.068   5.225   9.526 -1.0830  1.8804 -0.9095
  706MOL0     H95272  -0.163   5.738   9.538  1.7868 -0.1784  0.1239
  706MOL0     H95273  -0.216   5.893   9.708  2.7890 -0.5684 -1.5427
  706MOL0     H95274  -0.176   5.796  10.168  1.2339 -1.8805  1.3165
  706MOL0     H95275  -0.027   5.789  10.057 -3.2652 -4.0105 -1.7835
  706MOL0     H95276  -0.094   6.051  10.022 -1.4617  0.2254 -2.1239
  706MOL0     H95277  -0.195   6.025  10.174 -0.5684 -1.6792 -0.2178
  706MOL0     H95278   0.104   5.964  10.145 -0.0189  1.7841 -1.4574
  706MOL0     H95279   0.053   6.106  10.214 -0.4979 -0.8291  2.1741
  706MOL0     H95280  -0.016   5.837  10.344  2.1385 -0.0802  1.8229
  706MOL0     H95281  -0.082   5.991  10.382  1.8959  1.2976  2.2121
  706MOL0     H95282   0.165   6.055  10.464 -0.5549  0.7880 -1.7682
  706MOL0     H95283   0.199   5.902  10.374  0.8791  0.0273 -0.8741
  706MOL0     H95284   0.169   5.921  10.646  1.2105 -3.0592  0.1252
  706MOL0     H95285  -0.001   5.901  10.615 -0.9719 -1.0062 -1.2508
  706MOL0     H95286   0.056   5.688  10.501  0.8728  0.4678 -0.4886
  706MOL0     H95287   0.054   5.708  10.678  2.4012 -0.9906  0.5870
  706MOL0     H95288   0.307   5.707  10.521 -1.9713 -3.6276 -2.9648
  706MOL0     H95289   0.282   5.704  10.696 -0.0935 -1.7579  1.0872
  706MOL0     H95290  -0.168   5.600  10.004 -1.2317 -1.9484 -0.8552
  706MOL0     H95291  -0.125   5.433   9.854  2.4274  0.8905  2.3255
  706MOL0     H95292   0.296   5.392   9.540 -0.2703 -0.7209  1.7217
  706MOL0     H95293   0.402   5.247   9.365 -0.3468 -1.3468 -1.2077
  706MOL0     H95294   1.753   3.692   9.747  0.9047  1.2427  2.5437
  706MOL0     H95295   1.978   3.686   9.831 -3.6110 -2.3755 -1.7634
  706MOL0     H95296   2.312   3.932   9.952  0.4190 -1.9032  1.8687
  706MOL0     H95297   2.512   3.944  10.088 -5.2065  1.1348 -1.0124
  706MOL0     H95298   2.914   3.932   9.862  3.6126 -1.1552  0.0060
  706MOL0     H95299   2.881   3.765   9.912  3.7404 -0.4245  1.7201
  706MOL0     H95300   2.958   3.819  10.143  1.7480 -1.6869 -0.3791
  706MOL0     H95301   2.993   3.987  10.084 -1.4429  0.7276 -2.6590
  706MOL0     H95302   3.210   3.897  10.073 -1.9132 -0.2814  1.6572
  706MOL0     H95303   3.148   3.868   9.909  1.0482 -3.3604 -0.9187
  706MOL0     H95304   3.143   3.646  10.127  1.2224  0.2710  0.2431
  706MOL0     H95305   3.067   3.641   9.979  0.4207  0.7391 -0.4000
  706MOL0     H95306   3.505   3.649   9.920 -0.7953 -0.2706  0.4273
  706MOL0     H95307   2.749   3.884   9.729 -1.1800  1.6433 -2.1715
  706MOL0     H95308   2.508   3.967   9.511 -4.4063 -4.0498 -1.2752
  706MOL0     H95309   2.678   3.910   9.521  0.8628 -0.9955  1.3795
  706MOL0     H95310   2.556   3.795   9.512 -0.2296 -0.3824 -0.1553
  707MOL0     O95311   9.504   0.048   6.524  0.3509  0.2007  0.1970
  707MOL0     C95312   9.611   0.101   6.563  0.4375 -0.6491 -0.2164
  707MOL0     O95313   9.739   0.053   6.527  0.8753 -0.8443 -0.0053
  707MOL0     C95314   9.733  -0.054   6.435 -0.0056  2.1652 -0.8872
  707MOL0     C95315   9.683  -0.179   6.482  0.6418  0.2850 -0.4716
  707MOL0     C95316   9.695  -0.289   6.404  0.3127 -0.2448  0.3787
  707MOL0     C95317   9.749  -0.276   6.277 -0.1267 -0.7976 -0.4533
  707MOL0     O95318   9.775  -0.393   6.213 -0.1665 -0.2256  1.0696
  707MOL0     C95319   9.726  -0.404   6.076 -0.0125 -0.3130  0.2029
  707MOL0     C95320   9.792  -0.518   6.009 -0.5524  0.8289 -0.7417
  707MOL0     C95321   9.945  -0.483   5.980 -0.5422 -0.1794  0.1644
  707MOL0     C95322   9.959  -0.470   5.826 -0.1445 -0.3837  0.4403
  707MOL0     C95323  10.106  -0.458   5.795 -0.6030  0.2823 -0.4179
  707MOL0     C95324  10.176  -0.595   5.777 -0.4355 -0.3532  0.3250
  707MOL0     C95325  10.318  -0.578   5.733 -0.1446  0.6248  0.3474
  707MOL0     C95326  10.386  -0.712   5.740  1.2588 -0.0395 -0.1171
  707MOL0     N95327  10.517  -0.722   5.668  0.3176  0.7399  0.3622
  707MOL0     C95328  10.627  -0.649   5.700  0.1893  0.2978 -0.2591
  707MOL0     C95329  10.729  -0.695   5.621  0.3724  0.3066 -0.4273
  707MOL0     C95330  10.870  -0.638   5.597 -0.3670 -0.5137  0.4658
  707MOL0     C95331  10.902  -0.651   5.450 -0.0443  0.1591 -0.5613
  707MOL0     C95332  11.053  -0.626   5.440  0.3877  0.7791  0.0581
  707MOL0     C95333  11.107  -0.624   5.298 -0.1425 -0.8762 -0.8333
  707MOL0     O95334  11.095  -0.757   5.257  0.5615  0.3906  0.1959
  707MOL0     C95335  11.020  -0.778   5.146  0.6611  1.0646 -0.1736
  707MOL0     C95336  10.891  -0.716   5.100 -0.9090  0.3995 -0.4119
  707MOL0     C95337  10.847  -0.732   4.968 -0.5876  0.2338 -0.2245
  707MOL0     C95338  10.911  -0.836   4.892  0.0731  0.3286  0.2877
  707MOL0     C95339  10.864  -0.865   4.759  0.9085  0.5127  0.6920
  707MOL0     O95340  10.730  -0.837   4.744  0.0237 -0.1186  1.2289
  707MOL0     C95341  10.667  -0.856   4.623  0.5710  0.4201 -0.3150
  707MOL0     C95342  10.530  -0.822   4.627  0.4869 -0.2023  0.1749
  707MOL0     C95343  10.455  -0.829   4.510 -0.4605  0.8939  0.4798
  707MOL0     C95344  10.510  -0.870   4.390 -0.9745 -0.1820  0.5921
  707MOL0     O95345  10.441  -0.866   4.269 -0.1136  0.3327  0.9554
  707MOL0     C95346  10.493  -0.794   4.157 -1.4675 -0.5162 -0.9358
  707MOL0     C95347  10.383  -0.734   4.079  0.1720  0.0811 -0.1387
  707MOL0     C95348  10.279  -0.823   4.013  1.1822 -0.0052  1.1460
  707MOL0     C95349  10.169  -0.745   3.938  0.3772 -0.2161 -0.4008
  707MOL0     C95350  10.042  -0.835   3.932 -0.0228 -0.0605  0.3275
  707MOL0     C95351  10.063  -0.950   3.837 -0.8343 -0.5240  0.1627
  707MOL0     C95352   9.939  -1.041   3.825 -0.0752  0.0394 -0.9748
  707MOL0     C95353   9.921  -1.110   3.692 -0.0236  0.5611 -0.7628
  707MOL0    Cl95354  10.048  -1.233   3.669  0.1951  0.7977  0.1313
  707MOL0     C95355  10.637  -0.905   4.385 -0.4434  0.4406  0.6063
  707MOL0     C95356  10.716  -0.899   4.502  0.0639  0.3295  0.1258
  707MOL0     O95357  10.931  -0.934   4.672  0.6103 -0.5062 -0.3397
  707MOL0     C95358  11.022  -0.903   4.937 -0.6446  0.3211  0.0818
  707MOL0     C95359  11.079  -0.873   5.060  0.2135  0.7438  0.2061
  707MOL0     N95360  10.670  -0.800   5.540  0.9035  0.7224 -0.4791
  707MOL0     N95361  10.545  -0.812   5.576 -0.5338  0.3602  0.3121
  707MOL0     C95362   9.789  -0.150   6.223 -0.8182 -0.3084  1.4054
  707MOL0     C95363   9.792  -0.040   6.310  0.4852 -0.3894  1.3301
  707MOL0     C95364   9.605   0.218   6.662 -0.4681  0.0980  0.1922
  707MOL0     C95365   9.706   0.227   6.747 -0.6811 -0.7951 -0.6931
  707MOL0     C95366   9.708   0.331   6.840  0.7541  0.2231  0.0466
  707MOL0     C95367   9.608   0.421   6.845 -0.0793  0.0512 -0.6715
  707MOL0     O95368   9.615   0.532   6.922  1.0847  0.1619 -0.3367
  707MOL0     C95369   9.585   0.529   7.062 -0.7616  0.1961 -0.1869
  707MOL0     C95370   9.503   0.647   7.106  0.3004 -0.0947 -0.0886
  707MOL0     C95371   9.364   0.626   7.068 -0.1023 -0.8630 -0.1136
  707MOL0     C95372   9.284   0.758   7.073  0.5020  0.6635 -0.7154
  707MOL0     C95373   9.287   0.835   7.202 -0.5851  0.7365 -0.4832
  707MOL0     C95374   9.299   0.908   7.303  0.4987 -0.7803 -0.5113
  707MOL0     C95375   9.505   0.416   6.750 -0.0410 -0.3866  0.0299
  707MOL0     C95376   9.501   0.306   6.665  0.1406  0.2949  0.2951
  707MOL0     C95377   9.379   0.308   6.568  0.7128  0.0902  0.5430
  707MOL0     H95378   9.630  -0.185   6.576  1.6404 -1.5166  0.0003
  707MOL0     H95379   9.658  -0.390   6.415 -2.2730  0.7120  1.0349
  707MOL0     H95380   9.618  -0.415   6.064  0.1186  0.4293 -2.3693
  707MOL0     H95381   9.733  -0.310   6.020 -1.6127 -0.4869 -0.3424
  707MOL0     H95382   9.740  -0.559   5.922 -1.0426 -2.0358  0.7517
  707MOL0     H95383   9.793  -0.595   6.088 -1.8090  1.4873 -0.0520
  707MOL0     H95384  10.014  -0.560   6.015  3.4638  2.8195 -0.4618
  707MOL0     H95385   9.979  -0.390   6.026  3.0719 -1.7016  0.9096
  707MOL0     H95386   9.905  -0.550   5.774  1.1653 -0.6019 -0.6355
  707MOL0     H95387   9.909  -0.382   5.785 -2.6340 -1.9915 -0.2152
  707MOL0     H95388  10.115  -0.403   5.701  3.3871  0.0101 -0.3801
  707MOL0     H95389  10.168  -0.409   5.871  1.6831 -0.9538 -1.3890
  707MOL0     H95390  10.169  -0.631   5.880 -0.0893  1.0589  0.8623
  707MOL0     H95391  10.119  -0.645   5.698 -0.3585  1.9620 -1.2940
  707MOL0     H95392  10.359  -0.506   5.804 -0.6252  1.6915 -0.4171
  707MOL0     H95393  10.317  -0.538   5.631  0.0627 -3.6576 -1.5621
  707MOL0     H95394  10.400  -0.737   5.845  0.6260  1.6742  0.4159
  707MOL0     H95395  10.324  -0.792   5.699  0.5274 -0.5785  1.9435
  707MOL0     H95396  10.641  -0.566   5.768  0.7288 -0.2940  0.3710
  707MOL0     H95397  10.879  -0.535   5.633  3.8419  1.0276 -3.8993
  707MOL0     H95398  10.943  -0.686   5.663  1.1823  1.5442  0.3719
  707MOL0     H95399  10.876  -0.751   5.417 -1.2186  0.5232 -0.7883
  707MOL0     H95400  10.852  -0.570   5.396  1.8702  1.8114  0.0124
  707MOL0     H95401  11.098  -0.705   5.501 -3.0723 -1.9580 -0.6353
  707MOL0     H95402  11.082  -0.532   5.488  2.3335  0.5493 -0.5730
  707MOL0     H95403  11.213  -0.601   5.314 -0.2721 -1.9926  2.2732
  707MOL0     H95404  11.061  -0.548   5.234 -2.4726 -0.2035  1.4479
  707MOL0     H95405  10.864  -0.643   5.176  1.7938  0.5818  0.4798
  707MOL0     H95406  10.763  -0.679   4.924 -1.1992 -0.9950 -0.5892
  707MOL0     H95407  10.497  -0.782   4.722  1.2772 -0.2849  0.4961
  707MOL0     H95408  10.348  -0.810   4.521 -0.9654 -1.6742  0.5209
  707MOL0     H95409  10.545  -0.703   4.189 -3.5202  0.8843 -1.3836
  707MOL0     H95410  10.564  -0.852   4.098 -0.9639 -1.0701  0.2015
  707MOL0     H95411  10.334  -0.662   4.145  0.8626 -0.8958  1.5177
  707MOL0     H95412  10.423  -0.671   4.000  1.9267 -1.8002 -0.8424
  707MOL0     H95413  10.333  -0.872   3.932  1.7053  1.9765  0.2399
  707MOL0     H95414  10.240  -0.900   4.080 -0.1379 -5.0320 -4.5737
  707MOL0     H95415  10.205  -0.734   3.835  0.8517 -3.4060 -0.6758
  707MOL0     H95416  10.146  -0.648   3.984 -0.9006 -0.4777 -0.4491
  707MOL0     H95417   9.951  -0.783   3.901 -0.7501 -0.3541  1.8749
  707MOL0     H95418  10.023  -0.874   4.033  3.0544 -1.1846  0.5694
  707MOL0     H95419  10.090  -0.912   3.738  0.4144  0.1424  0.7435
  707MOL0     H95420  10.138  -1.021   3.874 -0.6486  0.7437  2.3590
  707MOL0     H95421   9.847  -0.985   3.845 -1.3438 -2.9386  2.9612
  707MOL0     H95422   9.950  -1.109   3.910  0.8144 -0.2905 -1.3497
  707MOL0     H95423   9.829  -1.169   3.693 -1.1519  2.1825  2.0758
  707MOL0     H95424   9.925  -1.039   3.609 -4.4042  0.8104 -0.9902
  707MOL0     H95425  10.681  -0.953   4.298  1.2956  1.1358  1.0646
  707MOL0     H95426  10.808  -0.954   4.485 -1.0893 -0.8951 -2.8517
  707MOL0     H95427  11.072  -0.970   4.868 -0.5866 -0.8951  1.2624
  707MOL0     H95428  11.174  -0.918   5.084  0.2435 -0.8790 -2.4852
  707MOL0     H95429   9.836  -0.152   6.125  1.5737 -0.3247  2.4684
  707MOL0     H95430   9.832   0.056   6.279  0.0010  0.5982  3.6169
  707MOL0     H95431   9.781   0.149   6.744  0.2319  0.0095  0.2685
  707MOL0     H95432   9.781   0.323   6.920 -1.5061 -4.2287  2.0494
  707MOL0     H95433   9.681   0.530   7.115 -0.1895  0.0483 -1.1962
  707MOL0     H95434   9.550   0.429   7.091  2.8689 -0.5613  2.2083
  707MOL0     H95435   9.553   0.736   7.066  0.8331  1.7476  4.1177
  707MOL0     H95436   9.507   0.661   7.214  0.1969 -2.1530  0.2046
  707MOL0     H95437   9.325   0.546   7.132  1.8340 -4.2764 -2.7936
  707MOL0     H95438   9.341   0.596   6.965  0.7331 -1.8713 -0.0271
  707MOL0     H95439   9.329   0.819   6.994  0.1616  0.2330 -1.2506
  707MOL0     H95440   9.180   0.743   7.043  0.6660  0.3762 -1.1411
  707MOL0     H95441   9.327   0.970   7.386  1.2711 -3.1443  1.1077
  707MOL0     H95442   9.423   0.486   6.749 -0.2751 -0.6345 -2.0008
  707MOL0     H95443   9.404   0.258   6.474  1.8669 -1.3324  1.5540
  707MOL0     H95444   9.290   0.259   6.609 -0.1170  0.7050 -0.4863
  707MOL0     H95445   9.358   0.409   6.531 -0.9047 -0.6911 -0.8221
  708MOL0     O95446   5.949   6.382   7.508 -0.6807  0.4996 -0.1255
  708MOL0     C95447   5.820   6.370   7.520 -0.3411 -0.3576  0.2433
  708MOL0     O95448   5.743   6.307   7.430  0.1445  0.3310  0.5134
  708MOL0     C95449   5.797   6.258   7.313  0.2070 -0.5508 -0.3362
  708MOL0     C95450   5.794   6.341   7.198  0.2573  0.3218  0.6098
  708MOL0     C95451   5.846   6.298   7.076 -0.2719  0.1605 -0.3712
  708MOL0     C95452   5.903   6.172   7.064 -0.3799  0.7966 -0.6519
  708MOL0     O95453   5.941   6.119   6.944 -0.1242  0.1182 -0.2097
  708MOL0     C95454   5.859   6.157   6.832  0.6720 -0.3958  0.1450
  708MOL0     C95455   5.905   6.096   6.704  0.6808 -0.3232 -0.0439
  708MOL0     C95456   5.942   5.946   6.703  0.3771  0.9986 -0.1167
  708MOL0     C95457   5.970   5.901   6.562  0.2060  0.5007 -0.5447
  708MOL0     C95458   5.998   5.754   6.565  0.1195 -0.1318  0.8999
  708MOL0     C95459   6.010   5.714   6.421 -0.1128  0.1716  0.1260
  708MOL0     C95460   6.041   5.556   6.409 -0.1549 -1.0577  0.4476
  708MOL0     C95461   6.026   5.513   6.259 -0.4267  0.1762  0.3256
  708MOL0     N95462   6.150   5.539   6.193 -0.2338 -1.0231  0.0893
  708MOL0     C95463   6.255   5.465   6.214 -0.1509 -0.4968  0.5724
  708MOL0     C95464   6.356   5.555   6.211 -0.3825 -0.0239 -0.5456
  708MOL0     C95465   6.503   5.518   6.224  0.8499 -0.0521  0.6481
  708MOL0     C95466   6.543   5.511   6.372 -0.2145 -0.3617 -0.3834
  708MOL0     C95467   6.505   5.634   6.454 -0.1366 -0.6796 -0.3036
  708MOL0     C95468   6.542   5.764   6.398 -0.2355 -0.2622 -0.1011
  708MOL0     O95469   6.510   5.871   6.497 -0.1186 -0.0980  1.1074
  708MOL0     C95470   6.457   5.979   6.441  0.3264  0.7549  0.4946
  708MOL0     C95471   6.506   6.038   6.336  0.9758  0.2433  0.5604
  708MOL0     C95472   6.435   6.143   6.270 -0.4420 -0.2657 -0.4159
  708MOL0     C95473   6.317   6.192   6.315  0.4270  0.4046  0.3136
  708MOL0     C95474   6.263   6.311   6.254 -0.7508 -0.6804 -0.3596
  708MOL0     O95475   6.356   6.403   6.187  0.6465  0.2195  0.3578
  708MOL0     C95476   6.324   6.528   6.134 -0.5604  0.4285 -0.1624
  708MOL0     C95477   6.201   6.584   6.136  0.7946  0.0298  0.0893
  708MOL0     C95478   6.173   6.708   6.070  0.8781  0.3479 -0.1239
  708MOL0     C95479   6.271   6.774   6.004 -0.5791  0.1193 -0.3469
  708MOL0     O95480   6.241   6.900   5.963 -0.3636 -1.0183 -0.2112
  708MOL0     C95481   6.341   6.983   5.916 -0.4424  0.3209 -0.4017
  708MOL0     C95482   6.267   7.114   5.877 -0.0860  0.1520  0.5101
  708MOL0     C95483   6.363   7.207   5.816  0.0218 -0.4662  0.2953
  708MOL0     C95484   6.295   7.333   5.759  0.2903 -0.2877 -0.6966
  708MOL0     C95485   6.403   7.443   5.724 -0.2286  0.0686 -0.8104
  708MOL0     C95486   6.342   7.556   5.651 -0.6748 -0.1784  0.8187
  708MOL0     C95487   6.449   7.664   5.639  0.2405  0.1258 -1.5729
  708MOL0     C95488   6.429   7.768   5.525  0.1868 -0.8139  0.7676
  708MOL0    Cl95489   6.490   7.680   5.379  0.6187 -0.3442  0.1653
  708MOL0     C95490   6.403   6.725   6.019  0.0711  0.9817 -0.0046
  708MOL0     C95491   6.431   6.601   6.078 -0.9392  0.3646 -0.4298
  708MOL0     O95492   6.149   6.329   6.277 -0.2299  0.0132  0.6796
  708MOL0     C95493   6.262   6.127   6.428  0.4779 -0.1129 -0.0700
  708MOL0     C95494   6.332   6.021   6.490  0.1015 -0.1521  0.0316
  708MOL0     N95495   6.298   5.671   6.157  0.0778 -0.6812 -0.1970
  708MOL0     N95496   6.172   5.668   6.156  0.1468 -0.4754 -0.5128
  708MOL0     C95497   5.927   6.095   7.180  0.6719 -0.7006  0.1536
  708MOL0     C95498   5.874   6.139   7.305 -0.1920  0.3182  0.5414
  708MOL0     C95499   5.759   6.388   7.651  0.9447 -0.3277 -0.2703
  708MOL0     C95500   5.656   6.294   7.683 -0.4506 -0.6892  0.4958
  708MOL0     C95501   5.590   6.319   7.800  0.8627 -0.1901  0.2117
  708MOL0     C95502   5.620   6.425   7.891 -0.4378  0.0422  0.0461
  708MOL0     O95503   5.535   6.438   8.002 -0.0145  0.3453  0.0779
  708MOL0     C95504   5.526   6.551   8.085 -0.3566  0.0621  0.9379
  708MOL0     C95505   5.446   6.504   8.209  0.1507 -0.3997 -0.0080
  708MOL0     C95506   5.520   6.386   8.297  0.4349 -0.4994  0.2044
  708MOL0     C95507   5.422   6.323   8.390  0.1785  0.7886 -0.4342
  708MOL0     C95508   5.425   6.398   8.515  0.6466  0.6544 -0.3288
  708MOL0     C95509   5.423   6.427   8.627 -0.3449  0.1909 -0.0366
  708MOL0     C95510   5.726   6.508   7.866  0.2304 -0.0015 -0.5555
  708MOL0     C95511   5.798   6.494   7.744  0.0938  0.8511  0.6988
  708MOL0     C95512   5.895   6.608   7.703 -0.0864  0.0375 -0.2720
  708MOL0     H95513   5.735   6.432   7.200  2.3015  1.8655 -2.3393
  708MOL0     H95514   5.825   6.358   6.988  1.1000 -0.7744 -1.3691
  708MOL0     H95515   5.752   6.148   6.851  0.6436  0.1992  0.2830
  708MOL0     H95516   5.862   6.265   6.818 -0.3821 -0.4252 -0.3706
  708MOL0     H95517   5.997   6.146   6.673  0.4650 -0.5251 -1.0328
  708MOL0     H95518   5.826   6.116   6.630 -1.4126 -4.4019  0.7968
  708MOL0     H95519   5.862   5.887   6.748 -2.0315  1.0579 -3.8627
  708MOL0     H95520   6.035   5.934   6.758  1.3457  0.4857 -1.8051
  708MOL0     H95521   5.881   5.924   6.503 -1.5040  0.1599  1.7789
  708MOL0     H95522   6.065   5.941   6.523  2.2874 -0.4743  3.0084
  708MOL0     H95523   6.095   5.738   6.612 -0.6482 -1.0103  2.2588
  708MOL0     H95524   5.905   5.718   6.610 -2.1673  1.9339 -1.8184
  708MOL0     H95525   5.917   5.734   6.369 -0.2352  2.2537  1.0367
  708MOL0     H95526   6.081   5.776   6.366  0.4315 -0.2924  0.2930
  708MOL0     H95527   5.965   5.498   6.462 -2.3122 -2.1569 -3.4685
  708MOL0     H95528   6.144   5.552   6.447 -0.3365  2.6855  1.7830
  708MOL0     H95529   5.989   5.410   6.246  0.4167  0.0529 -1.3057
  708MOL0     H95530   5.951   5.573   6.208 -1.4759 -1.5420 -0.2361
  708MOL0     H95531   6.255   5.359   6.236 -1.5690 -0.9647 -1.4507
  708MOL0     H95532   6.507   5.422   6.172 -3.6213  0.3306 -0.8018
  708MOL0     H95533   6.566   5.596   6.178  0.1332 -0.3379 -0.8725
  708MOL0     H95534   6.514   5.416   6.417  0.3791 -0.1704  0.4346
  708MOL0     H95535   6.652   5.497   6.377  0.6274  3.4578 -3.0767
  708MOL0     H95536   6.568   5.626   6.543 -0.9570 -1.0549  0.2648
  708MOL0     H95537   6.398   5.634   6.480  0.0348  0.2017  0.4760
  708MOL0     H95538   6.476   5.778   6.312  2.2365  0.6316 -1.9824
  708MOL0     H95539   6.647   5.754   6.367  0.5139  0.4912  1.9763
  708MOL0     H95540   6.609   6.019   6.307  0.5017  0.2447 -1.2733
  708MOL0     H95541   6.482   6.201   6.191  0.4326 -0.0763  0.2238
  708MOL0     H95542   6.108   6.542   6.171  1.1916 -1.0622 -0.1220
  708MOL0     H95543   6.074   6.754   6.073  0.9361  0.4385  0.4443
  708MOL0     H95544   6.417   6.991   5.995 -3.1513 -1.6202  2.6230
  708MOL0     H95545   6.389   6.949   5.823  0.8456  0.7261  0.0875
  708MOL0     H95546   6.191   7.087   5.802 -0.1245  0.4708  0.4304
  708MOL0     H95547   6.209   7.160   5.958 -1.5950  0.0090 -0.4375
  708MOL0     H95548   6.449   7.230   5.880  4.3250 -0.3342 -4.8156
  708MOL0     H95549   6.412   7.159   5.730 -1.1586 -1.7530  0.3089
  708MOL0     H95550   6.233   7.376   5.838  3.4747 -0.7410  2.2534
  708MOL0     H95551   6.230   7.317   5.672  0.4733  0.1359 -0.9150
  708MOL0     H95552   6.493   7.409   5.671 -1.5437 -1.4211 -2.2313
  708MOL0     H95553   6.443   7.476   5.820  3.8864 -1.4594 -1.7643
  708MOL0     H95554   6.309   7.519   5.554  0.9039  3.5964 -1.4207
  708MOL0     H95555   6.254   7.605   5.693 -0.4639 -0.8810  2.1558
  708MOL0     H95556   6.554   7.633   5.633  0.3473  0.4788 -1.5519
  708MOL0     H95557   6.435   7.721   5.731  0.8926 -2.4972  0.2643
  708MOL0     H95558   6.322   7.788   5.515  0.6331  1.0925 -0.7024
  708MOL0     H95559   6.490   7.859   5.527 -1.9025  0.7937 -1.7892
  708MOL0     H95560   6.489   6.774   5.974  0.4659  0.5469  0.2654
  708MOL0     H95561   6.525   6.563   6.116 -1.3229  1.1248  1.3861
  708MOL0     H95562   6.171   6.168   6.471  0.0489 -1.3237  0.2404
  708MOL0     H95563   6.281   5.961   6.564  2.1611 -1.8289  0.2110
  708MOL0     H95564   5.999   6.014   7.187  0.3496 -1.0660 -0.7525
  708MOL0     H95565   5.899   6.075   7.388 -0.2956  0.6968  0.8663
  708MOL0     H95566   5.618   6.214   7.619 -0.9295  0.3550 -0.5740
  708MOL0     H95567   5.502   6.258   7.817 -0.2745  0.7340 -2.0031
  708MOL0     H95568   5.486   6.638   8.032 -0.0955  0.2166  0.9946
  708MOL0     H95569   5.625   6.582   8.119 -0.0206  0.3382 -0.2467
  708MOL0     H95570   5.352   6.459   8.176 -0.0311 -0.1165  0.1216
  708MOL0     H95571   5.423   6.588   8.274 -2.1550 -1.4325  0.6348
  708MOL0     H95572   5.609   6.426   8.348  0.2808  1.2741 -0.8195
  708MOL0     H95573   5.574   6.312   8.237 -1.5932  0.2729 -2.8014
  708MOL0     H95574   5.319   6.329   8.353 -1.5454  1.8748  3.8520
  708MOL0     H95575   5.448   6.217   8.402  1.5190  0.9095 -2.0019
  708MOL0     H95576   5.423   6.456   8.731 -1.9700  0.6552 -0.1368
  708MOL0     H95577   5.762   6.585   7.934  1.5241  0.3545 -1.6010
  708MOL0     H95578   5.886   6.697   7.766  3.0168 -0.1956  0.6799
  708MOL0     H95579   5.995   6.563   7.712  0.1738  0.9432  2.0294
  708MOL0     H95580   5.869   6.638   7.602 -2.7074 -3.3100 -0.7997
  709MOL0     O95581   5.870  10.129   6.118  0.2129 -0.0061 -0.7399
  709MOL0     C95582   5.973  10.154   6.060  1.2598  0.0172 -1.0177
  709MOL0     O95583   6.096  10.162   6.120 -0.2388 -0.0788  0.0480
  709MOL0     C95584   6.109  10.137   6.255 -0.1050 -1.0297 -0.1114
  709MOL0     C95585   6.090  10.014   6.325 -0.8877  0.8166 -0.4091
  709MOL0     C95586   6.115  10.001   6.461  0.1246  0.9248 -0.0551
  709MOL0     C95587   6.157  10.119   6.533 -0.7539 -0.3640 -0.8831
  709MOL0     O95588   6.180  10.121   6.672  0.5059 -0.8917  0.2169
  709MOL0     C95589   6.196  10.002   6.744 -0.7316  0.1177  0.5012
  709MOL0     C95590   6.255  10.033   6.880 -0.8780 -0.2190 -0.5682
  709MOL0     C95591   6.200   9.922   6.984  0.8781 -0.6096  0.2518
  709MOL0     C95592   6.231   9.981   7.125 -0.4043 -0.8798  0.6616
  709MOL0     C95593   6.234   9.871   7.218  1.1974  0.0463 -0.0986
  709MOL0     C95594   6.372   9.794   7.211  0.0018  0.1425 -0.3519
  709MOL0     C95595   6.364   9.665   7.302 -0.0793 -0.6221  0.0021
  709MOL0     C95596   6.278   9.545   7.251  0.1281 -0.5213  0.1305
  709MOL0     N95597   6.318   9.492   7.123  1.1120  0.1419  0.0130
  709MOL0     C95598   6.243   9.508   7.004 -1.0827 -0.4063  0.2051
  709MOL0     C95599   6.329   9.484   6.905 -0.6230 -0.8448  1.1208
  709MOL0     C95600   6.304   9.494   6.754  0.2936  0.2840 -0.0193
  709MOL0     C95601   6.238   9.359   6.701 -0.8314  0.5641  0.0285
  709MOL0     C95602   6.319   9.238   6.693 -0.8326 -0.2829 -0.5100
  709MOL0     C95603   6.257   9.119   6.624  0.2787 -0.2592  0.2051
  709MOL0     O95604   6.124   9.101   6.666 -0.0841 -0.3356  0.1358
  709MOL0     C95605   6.098   9.053   6.786  0.1255  0.9045 -0.2804
  709MOL0     C95606   6.165   8.933   6.833 -0.0040 -0.5379 -0.2920
  709MOL0     C95607   6.142   8.889   6.959 -0.5988  0.5400 -0.1270
  709MOL0     C95608   6.060   8.967   7.049 -0.0759  1.0330  0.2378
  709MOL0     C95609   6.064   8.924   7.190  0.3308 -0.4726 -0.3600
  709MOL0     O95610   6.143   8.814   7.222  0.6846 -0.0421 -0.1429
  709MOL0     C95611   6.142   8.786   7.357 -0.2256  0.2257 -0.1570
  709MOL0     C95612   6.042   8.714   7.439 -0.0101  0.1700  0.3988
  709MOL0     C95613   6.054   8.698   7.576 -0.5525  0.1803 -0.1635
  709MOL0     C95614   6.177   8.723   7.636  0.1247 -0.0554  0.3055
  709MOL0     O95615   6.185   8.692   7.770 -0.0549  0.1105  0.5631
  709MOL0     C95616   6.216   8.816   7.835  1.2335 -0.0457  0.7632
  709MOL0     C95617   6.249   8.776   7.982  0.0788 -0.4526  0.2161
  709MOL0     C95618   6.277   8.904   8.063 -0.2772  1.2132 -0.4264
  709MOL0     C95619   6.257   8.880   8.212 -0.3076  0.2697  0.0395
  709MOL0     C95620   6.327   8.998   8.281  0.3946  0.0946 -1.0234
  709MOL0     C95621   6.469   8.950   8.308  1.1430 -0.0486 -0.4755
  709MOL0     C95622   6.564   9.067   8.332 -0.8050 -0.6801  0.6869
  709MOL0     C95623   6.705   9.025   8.379  1.0668  0.0405  0.0373
  709MOL0    Cl95624   6.811   8.963   8.244  0.3492 -0.1645 -0.2720
  709MOL0     C95625   6.283   8.777   7.552 -1.2035 -0.2112 -0.7030
  709MOL0     C95626   6.259   8.812   7.420  0.3177  0.2840  0.0174
  709MOL0     O95627   6.003   8.989   7.271  0.2492  0.0679  0.2302
  709MOL0     C95628   6.012   9.100   7.008 -0.0295  0.1403 -0.6078
  709MOL0     C95629   6.024   9.135   6.874 -1.2654  0.9184  0.0800
  709MOL0     N95630   6.457   9.469   6.959  0.2172 -0.6189 -0.3860
  709MOL0     N95631   6.447   9.465   7.088  0.6116 -0.0093  0.1618
  709MOL0     C95632   6.161  10.239   6.460  0.7739 -0.2390  0.5671
  709MOL0     C95633   6.143  10.248   6.321  0.1359 -1.0445 -0.4883
  709MOL0     C95634   5.962  10.155   5.909  0.1804 -0.4170  0.7590
  709MOL0     C95635   6.073  10.211   5.849  0.3889 -0.8160 -0.0004
  709MOL0     C95636   6.072  10.226   5.708 -0.5060 -0.3024 -0.7012
  709MOL0     C95637   5.975  10.173   5.626  0.6453 -0.0738  0.0651
  709MOL0     O95638   5.968  10.177   5.488 -0.2065 -0.7390 -0.3226
  709MOL0     C95639   6.061  10.266   5.417  0.4129 -0.0546  0.8073
  709MOL0     C95640   6.173  10.174   5.356 -0.0819 -0.3022 -0.0535
  709MOL0     C95641   6.147  10.033   5.286 -0.5987  0.2059  0.5391
  709MOL0     C95642   6.035  10.036   5.186  0.2035 -0.2250  0.0549
  709MOL0     C95643   6.066  10.135   5.069  0.6026  0.1366 -0.1738
  709MOL0     C95644   6.072  10.182   4.954 -0.6148  0.0573 -0.1094
  709MOL0     C95645   5.867  10.107   5.692 -0.6214 -0.5830 -1.0185
  709MOL0     C95646   5.850  10.109   5.829  0.0015 -0.7064  0.8069
  709MOL0     C95647   5.721  10.047   5.876  0.1795  0.0639 -0.1437
  709MOL0     H95648   6.047   9.926   6.280  2.1535 -2.3092  2.2018
  709MOL0     H95649   6.107   9.903   6.507 -0.0749 -0.4215 -2.7833
  709MOL0     H95650   6.096   9.958   6.744 -1.9628  2.7133  1.1323
  709MOL0     H95651   6.265   9.930   6.698  1.2596  0.9657  2.0261
  709MOL0     H95652   6.218  10.128   6.920  3.2199  1.2976  0.0768
  709MOL0     H95653   6.364  10.030   6.884 -0.9182 -2.0773  2.0697
  709MOL0     H95654   6.261   9.834   6.961  2.6779  0.5499  0.3830
  709MOL0     H95655   6.094   9.899   6.972  0.5286  0.3789  1.2730
  709MOL0     H95656   6.325  10.037   7.122  0.8324 -2.9079 -1.7457
  709MOL0     H95657   6.150  10.049   7.153  1.8524  1.7131  1.3674
  709MOL0     H95658   6.208   9.894   7.322 -0.3164  0.1612 -0.4849
  709MOL0     H95659   6.147   9.816   7.182 -0.7852  3.3788 -0.8564
  709MOL0     H95660   6.414   9.779   7.111  0.4063 -1.2683  0.0129
  709MOL0     H95661   6.438   9.864   7.263 -1.8377  2.6174 -1.1390
  709MOL0     H95662   6.322   9.688   7.401 -1.6310 -0.4014 -0.6775
  709MOL0     H95663   6.466   9.635   7.327 -0.3845 -1.3598  0.4189
  709MOL0     H95664   6.272   9.461   7.321 -1.0050  1.0391  2.0329
  709MOL0     H95665   6.175   9.582   7.242 -0.7271 -1.8364  3.2343
  709MOL0     H95666   6.137   9.529   6.989 -1.1805 -0.1806  1.1468
  709MOL0     H95667   6.231   9.574   6.745 -0.5638 -0.3390  1.0946
  709MOL0     H95668   6.389   9.523   6.691 -0.1542 -0.2478 -0.8851
  709MOL0     H95669   6.153   9.342   6.768 -0.1821  0.2057  0.7873
  709MOL0     H95670   6.201   9.376   6.600 -1.2579  0.4619  0.1663
  709MOL0     H95671   6.341   9.213   6.797  1.6459  1.2902 -0.6009
  709MOL0     H95672   6.416   9.269   6.655 -0.4968 -0.6555  0.0309
  709MOL0     H95673   6.309   9.024   6.643  1.0658  0.2168  0.4513
  709MOL0     H95674   6.259   9.125   6.515 -1.9247  0.5598  0.1582
  709MOL0     H95675   6.236   8.880   6.770 -0.8378 -0.7595 -1.0736
  709MOL0     H95676   6.186   8.797   6.995 -2.3179  0.6445  2.4869
  709MOL0     H95677   5.942   8.704   7.399 -0.2960  0.4086  1.0345
  709MOL0     H95678   5.973   8.681   7.646 -0.1821  1.6847  0.6613
  709MOL0     H95679   6.297   8.870   7.786  0.3845  2.5038  1.9977
  709MOL0     H95680   6.126   8.877   7.822  1.1991 -0.5805 -2.1167
  709MOL0     H95681   6.161   8.727   8.024 -3.2481  4.3717 -0.2511
  709MOL0     H95682   6.338   8.713   7.978  0.5977  0.0030  2.8952
  709MOL0     H95683   6.384   8.921   8.045  0.6528 -2.4377  0.7183
  709MOL0     H95684   6.215   8.983   8.019  0.1044 -1.0925 -5.9642
  709MOL0     H95685   6.298   8.790   8.258 -2.7640 -0.6634  0.5027
  709MOL0     H95686   6.148   8.873   8.220 -0.4788 -3.0350 -3.0362
  709MOL0     H95687   6.279   9.015   8.378  1.1426 -0.2730 -0.5790
  709MOL0     H95688   6.327   9.085   8.216 -0.1030 -0.4633 -1.7813
  709MOL0     H95689   6.482   8.876   8.388 -0.5396 -0.4756 -0.5614
  709MOL0     H95690   6.506   8.898   8.219 -2.4416 -4.1239  0.0820
  709MOL0     H95691   6.516   9.134   8.404 -1.4873 -1.0453  0.5839
  709MOL0     H95692   6.563   9.130   8.242 -0.7094 -1.4854  0.1097
  709MOL0     H95693   6.755   9.116   8.414 -1.4229  1.0603  1.2502
  709MOL0     H95694   6.704   8.962   8.468 -2.8747 -2.3677 -1.4718
  709MOL0     H95695   6.384   8.789   7.592 -0.9710 -0.2986 -1.2522
  709MOL0     H95696   6.342   8.853   7.364  0.5939 -0.7667 -0.3704
  709MOL0     H95697   5.972   9.166   7.084  2.0355 -0.1651  0.8448
  709MOL0     H95698   5.971   9.222   6.836 -1.7578  0.7605  0.3883
  709MOL0     H95699   6.186  10.321   6.527 -1.3629  0.4496  0.6048
  709MOL0     H95700   6.155  10.342   6.268 -3.2659  0.4102  0.9984
  709MOL0     H95701   6.151  10.255   5.910  0.4923 -1.0191  0.0142
  709MOL0     H95702   6.162  10.274   5.671  0.6010  0.4217  2.5925
  709MOL0     H95703   6.103  10.343   5.482 -1.7880  0.9401  1.1347
  709MOL0     H95704   6.009  10.311   5.331 -0.3861  0.0362  1.3303
  709MOL0     H95705   6.238  10.151   5.441  0.8320  1.5163 -0.2105
  709MOL0     H95706   6.214  10.243   5.282 -0.4170 -0.0950 -0.0468
  709MOL0     H95707   6.130   9.961   5.366 -2.5741 -0.6830 -0.6131
  709MOL0     H95708   6.244  10.007   5.240 -1.0576  0.1613 -0.4356
  709MOL0     H95709   6.012   9.935   5.150 -1.7714 -0.0144  0.6292
  709MOL0     H95710   5.939  10.070   5.227 -1.5809 -3.5523 -0.9710
  709MOL0     H95711   6.078  10.225   4.856 -0.0139 -1.7129 -0.8896
  709MOL0     H95712   5.801  10.053   5.624  0.1249 -2.2085 -0.5159
  709MOL0     H95713   5.669  10.105   5.952 -2.1300 -2.5529  0.4345
  709MOL0     H95714   5.647  10.041   5.796 -0.5931 -2.3302  0.6425
  709MOL0     H95715   5.746   9.945   5.909  0.2279 -0.9206 -2.9548
  710MOL0     O95716   2.500   7.245   3.460  0.7250  0.5225  0.2444
  710MOL0     C95717   2.504   7.131   3.410  0.9109 -0.5972 -0.5250
  710MOL0     O95718   2.552   7.105   3.286 -0.2979 -0.6679 -0.2730
  710MOL0     C95719   2.610   7.197   3.203  0.4514 -0.5863 -0.2081
  710MOL0     C95720   2.686   7.311   3.243  0.2969  0.8449  0.8941
  710MOL0     C95721   2.756   7.389   3.147  0.2270  0.3444  0.0500
  710MOL0     C95722   2.742   7.367   3.008  0.2712 -0.3065  0.5505
  710MOL0     O95723   2.795   7.460   2.926  0.0555  0.0673 -0.6068
  710MOL0     C95724   2.715   7.496   2.810  0.4160  0.2115 -0.0045
  710MOL0     C95725   2.759   7.624   2.760 -0.3701 -0.9023  0.3292
  710MOL0     C95726   2.903   7.630   2.711  0.4239  0.0130  0.0167
  710MOL0     C95727   2.946   7.768   2.670  0.3263  0.0237 -0.8563
  710MOL0     C95728   3.007   7.839   2.790 -0.3454 -0.1405  0.1664
  710MOL0     C95729   2.985   7.999   2.775  0.2601  0.4970 -0.2406
  710MOL0     C95730   3.043   8.068   2.644 -0.4754  0.3890  0.1685
  710MOL0     C95731   3.037   8.219   2.671  0.4787  0.5477  0.5188
  710MOL0     N95732   3.069   8.299   2.544  0.5811  0.4158 -0.0935
  710MOL0     C95733   3.188   8.363   2.514 -0.1720 -0.5126  0.9659
  710MOL0     C95734   3.153   8.425   2.400 -0.5511 -0.3335 -0.9332
  710MOL0     C95735   3.247   8.513   2.319 -0.9207 -0.6381  0.3015
  710MOL0     C95736   3.333   8.608   2.411  0.0853 -0.4997  0.2429
  710MOL0     C95737   3.413   8.707   2.323 -1.2893 -1.2513  0.4343
  710MOL0     C95738   3.543   8.741   2.396  0.2532 -0.3089 -0.9439
  710MOL0     O95739   3.619   8.827   2.305 -0.0626 -0.5213  0.7212
  710MOL0     C95740   3.728   8.894   2.363  0.0796 -0.3110 -0.9378
  710MOL0     C95741   3.801   8.988   2.284 -0.5485  0.4321 -0.0242
  710MOL0     C95742   3.905   9.071   2.333 -0.3975  0.9254 -0.4911
  710MOL0     C95743   3.948   9.068   2.473  0.6083 -0.7111  0.2208
  710MOL0     C95744   4.048   9.157   2.540  0.0623 -0.2161 -0.5549
  710MOL0     O95745   4.113   9.253   2.463 -0.3570 -0.3715  0.1655
  710MOL0     C95746   4.217   9.331   2.518  0.3331  0.9792 -0.2637
  710MOL0     C95747   4.338   9.329   2.455  0.2090  0.2689 -0.4192
  710MOL0     C95748   4.440   9.412   2.497  0.7735  0.2209 -0.3849
  710MOL0     C95749   4.422   9.505   2.608 -0.8955  0.2321  0.4967
  710MOL0     O95750   4.514   9.602   2.659 -0.1583  0.5765  0.7135
  710MOL0     C95751   4.648   9.573   2.645 -0.6575  0.2978 -1.0433
  710MOL0     C95752   4.714   9.636   2.770  0.1918 -1.4124  0.1002
  710MOL0     C95753   4.687   9.576   2.915  0.1483  0.0487 -1.3060
  710MOL0     C95754   4.727   9.662   3.048  0.4660  0.5220 -0.0394
  710MOL0     C95755   4.708   9.568   3.168 -0.1969 -0.8260 -0.3109
  710MOL0     C95756   4.717   9.621   3.318  0.2985  0.5338 -0.1471
  710MOL0     C95757   4.715   9.505   3.420 -0.6056 -0.1320 -0.6913
  710MOL0     C95758   4.702   9.536   3.570 -0.2604  0.0349 -0.1922
  710MOL0    Cl95759   4.833   9.656   3.627  0.1621 -0.2658 -0.4150
  710MOL0     C95760   4.301   9.500   2.677 -0.1651  0.4135 -0.3044
  710MOL0     C95761   4.196   9.412   2.630 -0.4007  0.9909 -0.4511
  710MOL0     O95762   4.076   9.137   2.657  0.1763  0.3773  0.4881
  710MOL0     C95763   3.890   8.963   2.539 -0.2030 -0.6104 -0.6924
  710MOL0     C95764   3.784   8.876   2.490 -0.0876  0.0127 -0.0046
  710MOL0     N95765   3.018   8.403   2.364 -1.2530  0.0558 -0.1710
  710MOL0     N95766   2.968   8.335   2.459  0.8176  0.4782  0.3430
  710MOL0     C95767   2.663   7.257   2.974 -0.0535 -1.4732  0.1278
  710MOL0     C95768   2.604   7.176   3.066  0.0109  0.0921 -0.1483
  710MOL0     C95769   2.444   7.010   3.481  1.1730  1.1163  0.4793
  710MOL0     C95770   2.482   6.885   3.433 -0.7765 -0.0473  0.0465
  710MOL0     C95771   2.433   6.764   3.504  1.2044 -0.4542  0.3444
  710MOL0     C95772   2.344   6.772   3.610  0.6549  0.8344  0.2550
  710MOL0     O95773   2.319   6.655   3.678 -0.3006  0.4820 -0.2544
  710MOL0     C95774   2.294   6.669   3.816  0.3486  0.3378 -0.2776
  710MOL0     C95775   2.312   6.525   3.867  0.7383  0.3647  0.2748
  710MOL0     C95776   2.245   6.502   4.011 -0.1886  0.1290 -0.2932
  710MOL0     C95777   2.273   6.353   4.039  0.7788  0.3675  0.3744
  710MOL0     C95778   2.405   6.311   4.005  0.8208 -0.1234  0.1245
  710MOL0     C95779   2.515   6.273   3.981  0.0008 -0.1584 -0.2772
  710MOL0     C95780   2.305   6.896   3.651  0.8563 -0.2782 -1.2793
  710MOL0     C95781   2.350   7.014   3.590  0.7624  1.0459  0.6085
  710MOL0     C95782   2.326   7.146   3.669  0.4430 -0.2400  0.7602
  710MOL0     H95783   2.699   7.334   3.348  0.6538  0.8998  0.8379
  710MOL0     H95784   2.800   7.484   3.172 -1.3444  1.0964  0.0912
  710MOL0     H95785   2.716   7.417   2.735 -0.8216 -1.1498  1.3326
  710MOL0     H95786   2.612   7.494   2.847  0.7057  1.6969  0.9685
  710MOL0     H95787   2.745   7.698   2.839  1.2091 -0.9960  0.7337
  710MOL0     H95788   2.699   7.653   2.673 -0.6291  2.0438  1.3736
  710MOL0     H95789   2.910   7.549   2.637 -0.4625 -1.7257  1.7410
  710MOL0     H95790   2.966   7.603   2.796 -2.8828 -2.8642  1.7944
  710MOL0     H95791   3.028   7.766   2.596 -0.3857  2.2601 -1.7696
  710MOL0     H95792   2.867   7.832   2.631  3.4325  3.6656 -1.8476
  710MOL0     H95793   2.961   7.799   2.881 -2.9635 -3.3907 -2.3215
  710MOL0     H95794   3.116   7.831   2.794 -0.0709  1.2999 -2.3313
  710MOL0     H95795   2.877   8.015   2.779  0.2362  0.3733 -0.3788
  710MOL0     H95796   3.032   8.052   2.858  2.3334 -0.3024 -0.8317
  710MOL0     H95797   2.986   8.044   2.554  2.2621  1.5683 -2.0405
  710MOL0     H95798   3.150   8.053   2.626 -0.6429  1.9988 -2.6562
  710MOL0     H95799   2.933   8.241   2.699  0.4773  2.0881 -0.5740
  710MOL0     H95800   3.107   8.253   2.748  4.3331 -0.2013 -2.3745
  710MOL0     H95801   3.280   8.368   2.573  0.0668 -1.2616  0.6695
  710MOL0     H95802   3.303   8.445   2.255 -0.3173  0.2170 -0.1018
  710MOL0     H95803   3.180   8.576   2.259 -3.8938 -3.1522  0.7238
  710MOL0     H95804   3.261   8.660   2.474  2.6404  3.1717  0.4528
  710MOL0     H95805   3.405   8.543   2.462  0.6801 -0.2091 -0.2032
  710MOL0     H95806   3.358   8.799   2.302  0.9660  0.4635  1.7319
  710MOL0     H95807   3.427   8.663   2.224  2.3639  0.4909  0.0373
  710MOL0     H95808   3.597   8.652   2.431 -0.9860 -1.1322 -1.0635
  710MOL0     H95809   3.522   8.793   2.490 -0.3270  1.6051 -2.0828
  710MOL0     H95810   3.762   8.994   2.183 -2.0210  2.2963  0.5767
  710MOL0     H95811   3.961   9.128   2.260  0.2134  1.8050  0.6318
  710MOL0     H95812   4.352   9.259   2.374 -2.7337 -2.4459  1.1944
  710MOL0     H95813   4.538   9.413   2.451  0.7006 -0.2900 -0.5547
  710MOL0     H95814   4.669   9.466   2.653 -0.4876  0.2924 -1.5363
  710MOL0     H95815   4.672   9.622   2.549 -4.2784  1.2979 -1.5855
  710MOL0     H95816   4.821   9.657   2.757  0.2715 -1.1562  1.0680
  710MOL0     H95817   4.684   9.741   2.768  3.2391 -0.3055 -4.6043
  710MOL0     H95818   4.581   9.569   2.941  0.5505 -0.5427  0.2901
  710MOL0     H95819   4.735   9.478   2.913 -0.5039 -0.4255  1.8002
  710MOL0     H95820   4.651   9.739   3.064 -0.3201 -0.4352  0.9586
  710MOL0     H95821   4.820   9.717   3.031  1.8250 -1.0570  1.8958
  710MOL0     H95822   4.786   9.492   3.170  1.3991  0.4618  5.2157
  710MOL0     H95823   4.619   9.504   3.161  0.1941 -1.3250 -0.7551
  710MOL0     H95824   4.808   9.680   3.330  0.0270  1.3760 -1.8710
  710MOL0     H95825   4.636   9.693   3.331 -1.6299 -1.5319  0.0620
  710MOL0     H95826   4.793   9.432   3.400 -3.3655 -2.7363 -2.8801
  710MOL0     H95827   4.624   9.444   3.412 -1.8783  1.1291  2.3887
  710MOL0     H95828   4.607   9.588   3.589 -0.7235 -1.4918  2.0814
  710MOL0     H95829   4.702   9.442   3.625 -2.7552  0.0836  0.0142
  710MOL0     H95830   4.278   9.556   2.767  2.5281 -2.3858  2.3604
  710MOL0     H95831   4.100   9.422   2.680  0.2691  0.2670  1.0600
  710MOL0     H95832   3.932   8.948   2.638  0.1856  2.8031 -0.2240
  710MOL0     H95833   3.762   8.789   2.552 -0.9761  1.1915  1.4015
  710MOL0     H95834   2.645   7.253   2.867  1.1700 -0.2489 -0.1498
  710MOL0     H95835   2.554   7.087   3.029 -0.9874  0.6661 -0.2299
  710MOL0     H95836   2.565   6.872   3.364  0.2361 -2.8925  1.6466
  710MOL0     H95837   2.464   6.663   3.481 -0.1266 -0.5216 -1.3238
  710MOL0     H95838   2.189   6.700   3.822  0.7665  1.6999  0.4648
  710MOL0     H95839   2.351   6.743   3.874  0.1743 -1.7061  2.7118
  710MOL0     H95840   2.421   6.518   3.861  0.7429  1.2062 -1.5519
  710MOL0     H95841   2.276   6.462   3.785  1.7550  1.3938 -1.0311
  710MOL0     H95842   2.137   6.520   4.013 -0.0087  1.7423  2.9495
  710MOL0     H95843   2.288   6.563   4.091 -0.9298  2.6680 -1.7067
  710MOL0     H95844   2.277   6.350   4.148  3.9695 -0.0163  0.3532
  710MOL0     H95845   2.200   6.285   3.994  1.3876  0.9313 -1.5582
  710MOL0     H95846   2.616   6.257   3.950 -0.3682 -0.2271 -1.5189
  710MOL0     H95847   2.236   6.897   3.736  1.0224 -0.6267 -1.1378
  710MOL0     H95848   2.423   7.171   3.714  1.9156 -2.6993 -0.8027
  710MOL0     H95849   2.298   7.232   3.609  0.7914 -1.3131 -1.0148
  710MOL0     H95850   2.255   7.129   3.751 -0.5798  0.2675  0.0066
  711MOL0     O95851   0.474   5.711   8.012 -0.2241 -0.6513 -0.0308
  711MOL0     C95852   0.540   5.777   7.929 -0.8348 -0.3458  0.9023
  711MOL0     O95853   0.607   5.897   7.957  1.3024  0.0089 -0.3101
  711MOL0     C95854   0.596   5.953   8.089  0.6135  0.6179  0.0901
  711MOL0     C95855   0.569   5.884   8.211 -0.2768  0.6873 -0.0680
  711MOL0     C95856   0.569   5.949   8.335 -0.2200  0.0400 -1.1803
  711MOL0     C95857   0.607   6.091   8.345 -0.3367 -1.3125  0.1709
  711MOL0     O95858   0.609   6.172   8.460 -0.0393 -0.8813  0.0268
  711MOL0     C95859   0.579   6.122   8.592  0.0386 -0.4464  0.1041
  711MOL0     C95860   0.601   6.249   8.691 -0.1771  0.7192  0.1390
  711MOL0     C95861   0.527   6.233   8.834  0.7088  0.8690 -0.1688
  711MOL0     C95862   0.540   6.371   8.913  0.1821 -0.0989  0.0751
  711MOL0     C95863   0.441   6.411   9.018 -0.0530  1.1086  0.1135
  711MOL0     C95864   0.441   6.302   9.134 -0.0889  1.3302 -0.2460
  711MOL0     C95865   0.331   6.334   9.228  0.0736  0.1844 -0.3281
  711MOL0     C95866   0.381   6.322   9.375 -0.1745  0.1846 -0.0995
  711MOL0     N95867   0.393   6.184   9.414  0.8984  0.4467 -0.4282
  711MOL0     C95868   0.301   6.079   9.400 -0.1490 -0.5808  0.0303
  711MOL0     C95869   0.355   5.973   9.456 -0.3183  0.3776 -0.0835
  711MOL0     C95870   0.308   5.832   9.460 -0.1112 -0.5218 -0.8826
  711MOL0     C95871   0.171   5.806   9.395 -0.1301 -0.6847 -0.3144
  711MOL0     C95872   0.171   5.801   9.240  0.4919 -1.3288 -1.0537
  711MOL0     C95873   0.022   5.806   9.197 -0.3920  0.0115 -0.4868
  711MOL0     O95874  -0.053   5.921   9.244 -0.1862 -0.0586  0.2321
  711MOL0     C95875  -0.028   6.040   9.179 -0.3080 -0.2236  0.2230
  711MOL0     C95876   0.042   6.042   9.056  0.0765 -0.0129  0.8721
  711MOL0     C95877   0.072   6.158   8.995  0.6044  0.0554  0.5081
  711MOL0     C95878   0.031   6.282   9.041 -0.3894 -0.0900 -0.7558
  711MOL0     C95879   0.055   6.408   8.967 -0.6565  0.8555 -0.4548
  711MOL0     O95880   0.088   6.519   9.034  0.1334  0.3540  0.0451
  711MOL0     C95881   0.109   6.646   8.980  0.5954  0.2488  0.5211
  711MOL0     C95882   0.113   6.753   9.064 -0.0385 -0.3806 -0.4613
  711MOL0     C95883   0.146   6.887   9.024 -0.7271  0.6223  0.1749
  711MOL0     C95884   0.175   6.900   8.886  0.3597  0.0061  0.2866
  711MOL0     O95885   0.188   7.027   8.837 -1.1307 -0.6012  0.4728
  711MOL0     C95886   0.263   7.129   8.909 -0.4091  0.2239  0.1232
  711MOL0     C95887   0.410   7.099   8.927  0.2092 -0.6131 -0.2966
  711MOL0     C95888   0.500   7.115   8.800 -0.3303  0.1577  0.1042
  711MOL0     C95889   0.453   7.021   8.687  0.2424 -0.1402  1.4828
  711MOL0     C95890   0.559   6.990   8.577 -0.4777 -0.2862  0.4984
  711MOL0     C95891   0.595   7.114   8.493  0.6131 -0.0552  0.1491
  711MOL0     C95892   0.666   7.081   8.357  0.4611  0.1502  0.0902
  711MOL0     C95893   0.692   7.212   8.277  0.9811 -0.1666 -0.1217
  711MOL0    Cl95894   0.730   7.361   8.374 -0.2568 -0.1121 -0.2986
  711MOL0     C95895   0.199   6.788   8.805  0.7924  0.5158  0.0979
  711MOL0     C95896   0.157   6.658   8.847 -0.1778 -0.2259  0.6892
  711MOL0     O95897   0.041   6.393   8.846 -0.3800 -0.3096 -1.1020
  711MOL0     C95898  -0.032   6.282   9.162 -0.1955  0.0085  0.5479
  711MOL0     C95899  -0.070   6.167   9.229  0.2904 -0.0769 -0.3379
  711MOL0     N95900   0.486   6.010   9.492 -0.6266 -0.2485 -0.7950
  711MOL0     N95901   0.501   6.128   9.453  0.5914  0.0855 -0.0306
  711MOL0     C95902   0.626   6.151   8.216  0.3110  0.2179  0.4364
  711MOL0     C95903   0.611   6.092   8.097  0.1163  0.2667  1.0122
  711MOL0     C95904   0.574   5.724   7.795  0.7245  0.2061  0.9914
  711MOL0     C95905   0.655   5.802   7.702  0.5239  0.3159 -0.0490
  711MOL0     C95906   0.690   5.760   7.573 -0.0052 -0.3709  0.0472
  711MOL0     C95907   0.656   5.640   7.530  1.0288  0.2572  0.2243
  711MOL0     O95908   0.687   5.610   7.396  0.3765 -0.1756 -0.3739
  711MOL0     C95909   0.626   5.503   7.327  0.1191  0.3024  0.1253
  711MOL0     C95910   0.631   5.526   7.177  0.0728  0.6243 -0.7478
  711MOL0     C95911   0.510   5.603   7.121  0.5150  0.0330 -0.6953
  711MOL0     C95912   0.522   5.615   6.966  0.0584  0.9153  0.6247
  711MOL0     C95913   0.531   5.756   6.927  0.6113 -0.1003  1.3075
  711MOL0     C95914   0.545   5.879   6.902  0.4865  0.7222 -0.2310
  711MOL0     C95915   0.591   5.553   7.617 -0.0726  0.1164  0.3427
  711MOL0     C95916   0.545   5.587   7.746  0.5505 -0.2406 -0.1924
  711MOL0     C95917   0.485   5.475   7.822 -0.2619 -0.2723  1.1117
  711MOL0     H95918   0.566   5.777   8.229  2.7077  0.8082  1.7746
  711MOL0     H95919   0.573   5.889   8.425 -2.9415 -0.8578 -1.5854
  711MOL0     H95920   0.474   6.090   8.598 -0.4236  0.7940 -0.9734
  711MOL0     H95921   0.644   6.036   8.612 -0.3237 -0.8087 -0.2694
  711MOL0     H95922   0.574   6.344   8.645 -1.8843  2.7374  4.7362
  711MOL0     H95923   0.709   6.245   8.707 -0.4391  1.4909  2.3589
  711MOL0     H95924   0.576   6.153   8.890 -0.7584 -0.5955 -0.9047
  711MOL0     H95925   0.423   6.204   8.821  1.7449 -2.9606 -1.0466
  711MOL0     H95926   0.640   6.385   8.957  0.3289  0.1317 -0.3233
  711MOL0     H95927   0.526   6.448   8.837 -4.7603 -0.0813  0.7088
  711MOL0     H95928   0.458   6.506   9.070 -0.2933  2.2026 -1.7016
  711MOL0     H95929   0.346   6.411   8.965  0.4474  0.6169 -0.8121
  711MOL0     H95930   0.423   6.199   9.100 -1.0293  1.1463  0.7464
  711MOL0     H95931   0.540   6.302   9.179  0.9078 -2.7706 -1.9878
  711MOL0     H95932   0.247   6.265   9.217 -1.7302  2.1468  0.4546
  711MOL0     H95933   0.291   6.436   9.218  0.1881  0.5303  2.0430
  711MOL0     H95934   0.481   6.363   9.394  0.0062  0.6362 -1.8660
  711MOL0     H95935   0.308   6.365   9.444 -2.1742 -2.5346 -0.3734
  711MOL0     H95936   0.200   6.072   9.360 -0.0589 -2.5502  0.0719
  711MOL0     H95937   0.383   5.771   9.409  3.8853  3.5054 -0.4362
  711MOL0     H95938   0.301   5.791   9.561  0.1851  1.1030 -0.1762
  711MOL0     H95939   0.134   5.706   9.419 -0.7310  0.1192  2.3776
  711MOL0     H95940   0.097   5.879   9.430 -0.7929 -0.2615 -2.4133
  711MOL0     H95941   0.217   5.706   9.210  2.0425 -0.5109 -1.3476
  711MOL0     H95942   0.218   5.880   9.181  1.9969 -2.8009 -1.9387
  711MOL0     H95943  -0.017   5.716   9.244  0.5620  1.7815  4.2544
  711MOL0     H95944   0.021   5.791   9.088  2.1994 -1.1163 -0.4329
  711MOL0     H95945   0.083   5.956   9.005  0.1162  0.2721  0.4210
  711MOL0     H95946   0.123   6.139   8.901  1.4760 -2.2130  1.3567
  711MOL0     H95947   0.091   6.739   9.170  0.0580 -0.8656 -0.5044
  711MOL0     H95948   0.147   6.971   9.093 -0.0024  1.0372 -0.3333
  711MOL0     H95949   0.249   7.219   8.848 -0.1635  0.9072  1.0572
  711MOL0     H95950   0.213   7.153   9.003  0.7481  1.8691  0.3607
  711MOL0     H95951   0.444   7.183   8.989  0.8746  0.0182 -1.4848
  711MOL0     H95952   0.427   7.010   8.989  0.0569  0.6459  1.6556
  711MOL0     H95953   0.505   7.212   8.751  2.9193 -0.2992 -0.7042
  711MOL0     H95954   0.606   7.091   8.814 -0.0178  1.7939  0.7661
  711MOL0     H95955   0.357   7.057   8.649  0.1039 -0.8590  1.1234
  711MOL0     H95956   0.427   6.923   8.730  1.1253 -1.1428 -0.1558
  711MOL0     H95957   0.528   6.902   8.520 -5.6451  0.3379  1.8310
  711MOL0     H95958   0.643   6.957   8.638 -1.4790 -2.1235  0.9700
  711MOL0     H95959   0.502   7.165   8.465  1.6077  2.3675  0.9596
  711MOL0     H95960   0.661   7.176   8.555  1.5203 -2.6945  2.0096
  711MOL0     H95961   0.604   7.003   8.312 -1.3800  0.3988  2.0031
  711MOL0     H95962   0.766   7.052   8.389  0.5962  3.6129  3.6531
  711MOL0     H95963   0.778   7.188   8.214  0.6791 -0.5083 -0.4087
  711MOL0     H95964   0.610   7.224   8.206 -0.1961 -0.1050  1.1990
  711MOL0     H95965   0.221   6.793   8.699  1.9332 -3.2818 -0.0117
  711MOL0     H95966   0.162   6.575   8.777 -0.0140 -0.2954  0.7832
  711MOL0     H95967  -0.063   6.376   9.206 -1.1761 -0.6257  1.2508
  711MOL0     H95968  -0.117   6.182   9.326  1.0529 -1.2881  0.2485
  711MOL0     H95969   0.660   6.253   8.201  0.4271 -0.1604 -2.4793
  711MOL0     H95970   0.621   6.150   8.006 -4.4072 -2.9494 -1.9330
  711MOL0     H95971   0.693   5.899   7.732  0.6856  0.6743 -1.3467
  711MOL0     H95972   0.759   5.819   7.514 -0.7737 -1.6972 -2.2961
  711MOL0     H95973   0.524   5.486   7.363  0.8843 -0.9160  1.8930
  711MOL0     H95974   0.681   5.409   7.342 -1.2749 -0.3413  1.5836
  711MOL0     H95975   0.643   5.429   7.129 -1.1311 -1.9118  3.5039
  711MOL0     H95976   0.726   5.577   7.161  1.6025 -1.8298  0.0469
  711MOL0     H95977   0.496   5.697   7.174  0.5969  0.6936 -1.7944
  711MOL0     H95978   0.427   5.535   7.141  2.4711 -2.1114  0.5459
  711MOL0     H95979   0.607   5.555   6.930  0.1369  1.2598  0.2289
  711MOL0     H95980   0.431   5.581   6.915  1.9866  0.5295 -2.8838
  711MOL0     H95981   0.550   5.984   6.883  1.5730  1.0153  1.4597
  711MOL0     H95982   0.552   5.458   7.582  0.5269  0.2754 -0.7928
  711MOL0     H95983   0.551   5.457   7.908  3.4746  0.1271 -1.4341
  711MOL0     H95984   0.381   5.492   7.852 -0.9946  1.2631 -1.9112
  711MOL0     H95985   0.491   5.374   7.780 -0.2098 -0.1340  0.7888
  712MOL0     O95986   3.438   8.475   8.781  0.2174 -0.1874  0.2812
  712MOL0     C95987   3.432   8.356   8.774  0.0402 -0.3424 -0.4455
  712MOL0     O95988   3.390   8.288   8.664  0.2967  0.3371 -0.0507
  712MOL0     C95989   3.352   8.354   8.553  0.6962 -0.2593  0.2715
  712MOL0     C95990   3.235   8.428   8.549 -0.3271 -0.4387  0.4712
  712MOL0     C95991   3.197   8.501   8.433  0.8026  0.1134 -0.8859
  712MOL0     C95992   3.269   8.478   8.315  0.0937 -0.5406  0.7012
  712MOL0     O95993   3.234   8.538   8.200 -0.7365 -0.0787 -0.1711
  712MOL0     C95994   3.199   8.450   8.093 -0.3772  0.3096  0.2750
  712MOL0     C95995   3.051   8.404   8.101 -0.0590 -0.3916 -0.3932
  712MOL0     C95996   2.946   8.476   8.191  0.3230  0.7720 -0.2033
  712MOL0     C95997   2.809   8.471   8.120 -0.1602 -0.7035  0.6775
  712MOL0     C95998   2.712   8.580   8.163  1.3083 -0.1612 -0.7594
  712MOL0     C95999   2.681   8.566   8.320  0.0287 -0.2884 -1.2966
  712MOL0     C96000   2.631   8.692   8.396  0.4991 -0.8159 -0.4864
  712MOL0     C96001   2.612   8.677   8.544  0.1655  0.3941 -0.2231
  712MOL0     N96002   2.739   8.658   8.612 -0.0493  1.1123  0.0879
  712MOL0     C96003   2.796   8.746   8.702  0.5193  0.3745  1.5215
  712MOL0     C96004   2.895   8.684   8.751 -0.7415  1.4739  0.6497
  712MOL0     C96005   2.986   8.729   8.860 -0.1235 -0.1380 -0.1019
  712MOL0     C96006   2.964   8.654   8.992  1.1116  1.0920  0.6182
  712MOL0     C96007   3.048   8.710   9.111 -0.1084  0.3599  0.2166
  712MOL0     C96008   3.024   8.615   9.231 -0.5577 -0.3603 -0.1261
  712MOL0     O96009   2.882   8.605   9.264  0.3035  0.6188  0.3884
  712MOL0     C96010   2.832   8.682   9.368  0.0508  0.5162  0.7615
  712MOL0     C96011   2.891   8.808   9.404 -0.3865  0.6656 -0.0013
  712MOL0     C96012   2.850   8.877   9.516 -0.0991 -0.7296 -0.4091
  712MOL0     C96013   2.717   8.843   9.574 -0.6328 -0.6609 -0.1809
  712MOL0     C96014   2.645   8.922   9.680  0.3409 -0.4360 -0.0849
  712MOL0     O96015   2.540   8.852   9.746 -1.4795 -0.7601  0.0688
  712MOL0     C96016   2.487   8.901   9.862  0.4756 -0.3146 -0.3233
  712MOL0     C96017   2.467   9.043   9.885  0.1388  0.5350  0.2306
  712MOL0     C96018   2.404   9.081  10.000  0.6033 -0.2826  0.5890
  712MOL0     C96019   2.355   9.003  10.102 -0.4262 -0.1936 -0.2909
  712MOL0     O96020   2.286   9.062  10.203 -0.3369  0.0569  0.4500
  712MOL0     C96021   2.293   8.978  10.318 -0.3268 -0.1242 -0.3745
  712MOL0     C96022   2.173   8.876  10.332  0.5601 -0.4823 -0.5250
  712MOL0     C96023   2.051   8.924  10.410 -0.0612 -0.2537 -0.1484
  712MOL0     C96024   2.073   8.939  10.553  0.0914  0.0146 -0.0300
  712MOL0     C96025   1.941   8.946  10.633  0.1423  0.2613 -0.0231
  712MOL0     C96026   1.860   9.080  10.605  0.8758 -0.8271  0.5707
  712MOL0     C96027   1.707   9.084  10.636  0.3947 -0.7571 -0.0192
  712MOL0     C96028   1.673   9.039  10.778 -0.9661  0.0816  0.2571
  712MOL0    Cl96029   1.509   9.055  10.802  0.5563  0.0069  0.1399
  712MOL0     C96030   2.383   8.866  10.078  1.1349 -0.3494  0.7695
  712MOL0     C96031   2.437   8.816   9.962 -1.0218  0.4250 -0.0716
  712MOL0     O96032   2.688   9.038   9.701 -0.3542  0.5000 -0.3064
  712MOL0     C96033   2.658   8.732   9.533 -0.5651 -0.0708 -0.4430
  712MOL0     C96034   2.718   8.654   9.436  0.4532  0.0738 -0.4658
  712MOL0     N96035   2.899   8.557   8.711 -0.5210  0.6438 -0.5726
  712MOL0     N96036   2.802   8.534   8.634  0.4114 -0.7378 -0.1652
  712MOL0     C96037   3.393   8.416   8.325 -0.0730  0.4494  1.0996
  712MOL0     C96038   3.438   8.352   8.443 -0.1402  0.0924  0.3758
  712MOL0     C96039   3.496   8.276   8.873 -0.8567 -0.0790 -0.2762
  712MOL0     C96040   3.567   8.158   8.850 -0.1137  0.5609  0.0033
  712MOL0     C96041   3.613   8.075   8.956 -0.1807  0.4832  0.5683
  712MOL0     C96042   3.607   8.115   9.088 -0.9975  0.2408 -0.5710
  712MOL0     O96043   3.671   8.045   9.189 -0.3219 -0.3620 -0.5923
  712MOL0     C96044   3.584   7.939   9.222 -0.0612 -0.1960 -0.9534
  712MOL0     C96045   3.662   7.822   9.285  0.4207 -0.0263 -0.3973
  712MOL0     C96046   3.757   7.746   9.193  0.2187 -0.0715 -0.2790
  712MOL0     C96047   3.702   7.673   9.062  0.0945  0.2729  0.9393
  712MOL0     C96048   3.576   7.607   9.078 -0.6053 -0.0342 -0.5140
  712MOL0     C96049   3.470   7.558   9.092  0.5020  0.4139  0.3072
  712MOL0     C96050   3.543   8.232   9.116  0.0562 -0.3957  0.8101
  712MOL0     C96051   3.478   8.307   9.012 -0.0737  0.0480 -0.6468
  712MOL0     C96052   3.382   8.424   9.062 -0.9425  0.3924  0.0722
  712MOL0     H96053   3.163   8.442   8.628 -2.2901  3.3936 -1.6998
  712MOL0     H96054   3.102   8.552   8.428  0.6911  0.1907  1.0914
  712MOL0     H96055   3.202   8.512   8.003 -1.5340 -0.6162 -0.4319
  712MOL0     H96056   3.269   8.369   8.073 -1.6721 -1.6525  3.0025
  712MOL0     H96057   3.047   8.297   8.123 -1.2578 -0.7735 -2.2791
  712MOL0     H96058   3.017   8.414   7.998 -2.8376 -0.7944  0.4033
  712MOL0     H96059   2.964   8.584   8.195  2.2512  0.6224 -2.5337
  712MOL0     H96060   2.946   8.426   8.289  2.5747  0.8345 -0.1280
  712MOL0     H96061   2.819   8.491   8.012 -0.4307  0.7581  0.8985
  712MOL0     H96062   2.764   8.372   8.132 -0.8631 -1.0212 -3.2364
  712MOL0     H96063   2.732   8.684   8.137  0.1303  1.3802  3.5899
  712MOL0     H96064   2.612   8.553   8.126 -1.2946  3.2303  2.9930
  712MOL0     H96065   2.610   8.484   8.341  0.5338 -0.5303 -0.4826
  712MOL0     H96066   2.768   8.531   8.376 -1.6814  1.7951  3.1491
  712MOL0     H96067   2.533   8.721   8.357 -1.5472  0.8585  4.9415
  712MOL0     H96068   2.699   8.777   8.384 -0.3988  0.2657  1.5103
  712MOL0     H96069   2.556   8.759   8.588 -4.2062 -1.9250 -0.9113
  712MOL0     H96070   2.554   8.586   8.563  1.3447 -1.2001 -3.4480
  712MOL0     H96071   2.762   8.845   8.731 -3.2847 -0.9353  1.9688
  712MOL0     H96072   3.088   8.707   8.829  0.6298  1.2667  1.2498
  712MOL0     H96073   2.976   8.837   8.873  1.6590 -0.2039  2.5071
  712MOL0     H96074   2.856   8.665   9.010  0.9432 -1.7205  1.7897
  712MOL0     H96075   2.981   8.547   8.986 -1.6338  0.5402  1.0656
  712MOL0     H96076   3.020   8.814   9.130  0.9864  0.8606 -0.7594
  712MOL0     H96077   3.150   8.702   9.071 -0.8394 -1.4868 -1.4395
  712MOL0     H96078   3.076   8.641   9.323 -2.5742 -0.2993  1.0499
  712MOL0     H96079   3.051   8.514   9.200 -1.5843  0.3513 -3.8238
  712MOL0     H96080   2.972   8.843   9.341 -1.5491  3.2378 -0.1875
  712MOL0     H96081   2.906   8.964   9.550 -0.9648  0.1456 -1.1410
  712MOL0     H96082   2.500   9.118   9.813 -1.3354 -0.0667 -1.1509
  712MOL0     H96083   2.382   9.186  10.012  1.6180 -0.1391  1.2829
  712MOL0     H96084   2.384   8.918  10.325 -2.2225 -3.1416  0.3153
  712MOL0     H96085   2.291   9.047  10.403 -7.5029  0.3812 -0.3399
  712MOL0     H96086   2.138   8.823  10.243  0.5780 -1.9866  0.3256
  712MOL0     H96087   2.211   8.793  10.393  0.8110 -0.0312 -0.0649
  712MOL0     H96088   2.026   9.022  10.370  1.2254  0.6205  1.0781
  712MOL0     H96089   1.960   8.867  10.390  0.9085 -1.3022 -1.9055
  712MOL0     H96090   2.127   9.031  10.576 -2.6538  1.9096 -0.6597
  712MOL0     H96091   2.129   8.852  10.589  0.6241  0.7564  0.9914
  712MOL0     H96092   1.959   8.945  10.741 -2.7644  1.1076  0.5585
  712MOL0     H96093   1.876   8.860  10.616  1.0074 -0.8105  1.7554
  712MOL0     H96094   1.903   9.159  10.668  1.6308 -1.5982  1.0373
  712MOL0     H96095   1.873   9.107  10.500 -1.0709 -0.7803  0.3013
  712MOL0     H96096   1.643   9.038  10.560 -1.7310  2.2385 -0.2215
  712MOL0     H96097   1.666   9.185  10.625 -0.7965 -0.9611  2.1104
  712MOL0     H96098   1.717   8.942  10.802  0.2519  0.0837 -1.7144
  712MOL0     H96099   1.729   9.103  10.846  1.3897 -0.7957 -0.7459
  712MOL0     H96100   2.363   8.796  10.158  1.1628 -0.3976  0.7341
  712MOL0     H96101   2.438   8.708   9.953 -3.2181  0.5385 -3.7425
  712MOL0     H96102   2.570   8.685   9.578  0.0468  0.5099  1.4547
  712MOL0     H96103   2.671   8.562   9.404 -2.4224  0.9620  0.8389
  712MOL0     H96104   3.457   8.403   8.237  0.3089 -3.8463  1.8243
  712MOL0     H96105   3.528   8.292   8.439 -0.3316 -0.3120  1.5772
  712MOL0     H96106   3.563   8.115   8.751 -1.8935  0.3681  0.1283
  712MOL0     H96107   3.672   7.986   8.937  0.6674  0.7018  2.0102
  712MOL0     H96108   3.542   7.893   9.132 -0.7833 -1.8273  0.1640
  712MOL0     H96109   3.500   7.977   9.279  0.2000  2.0696 -1.9882
  712MOL0     H96110   3.597   7.746   9.329  2.6716 -0.9091  1.6392
  712MOL0     H96111   3.706   7.867   9.375 -1.2019 -0.7988  0.8286
  712MOL0     H96112   3.802   7.675   9.263  0.5999 -1.1764 -1.6016
  712MOL0     H96113   3.836   7.816   9.166 -0.1424  0.6157  0.4158
  712MOL0     H96114   3.666   7.754   8.997  1.6746 -0.0818 -0.4455
  712MOL0     H96115   3.787   7.619   9.020  1.5076  1.9195  1.5573
  712MOL0     H96116   3.370   7.522   9.105  0.8863 -0.5200  0.7839
  712MOL0     H96117   3.537   8.265   9.219 -5.8341  1.6417  0.1455
  712MOL0     H96118   3.286   8.376   9.081 -0.2490 -0.3930  1.8205
  712MOL0     H96119   3.431   8.478   9.144  0.8838  2.0743 -2.0075
  712MOL0     H96120   3.362   8.496   8.983 -3.8693 -0.6968 -0.2939
  713MOL0     O96121   0.216   3.922   4.431 -0.1884  0.5079 -0.7137
  713MOL0     C96122   0.193   3.907   4.552 -0.2837  0.0275  1.0621
  713MOL0     O96123   0.276   3.939   4.647 -0.5727 -0.2355  0.1200
  713MOL0     C96124   0.395   4.000   4.623 -0.3999 -0.4764 -0.0053
  713MOL0     C96125   0.415   4.123   4.560 -0.6594 -0.3667  0.0487
  713MOL0     C96126   0.540   4.164   4.524 -0.2470  0.5086  0.5757
  713MOL0     C96127   0.658   4.096   4.555 -0.5926 -0.1445  0.1869
  713MOL0     O96128   0.772   4.163   4.531  0.2586  0.2622  0.3831
  713MOL0     C96129   0.886   4.094   4.568  0.1563 -0.0024 -0.3677
  713MOL0     C96130   1.016   4.174   4.535  0.3578 -0.7449 -0.0799
  713MOL0     C96131   1.011   4.325   4.572  0.1943 -0.6275 -0.0575
  713MOL0     C96132   1.135   4.401   4.531 -0.1859  0.7512  0.9129
  713MOL0     C96133   1.139   4.540   4.586 -0.1720 -0.2951 -0.1891
  713MOL0     C96134   1.283   4.589   4.561 -0.9916 -0.1561  0.1555
  713MOL0     C96135   1.334   4.724   4.628  0.1093 -0.8181 -0.2675
  713MOL0     C96136   1.238   4.846   4.621 -0.2018 -0.1689  0.4414
  713MOL0     N96137   1.217   4.892   4.491 -0.2166 -0.5154  0.6110
  713MOL0     C96138   1.090   4.923   4.448 -1.2053 -0.4390 -0.8321
  713MOL0     C96139   1.106   4.952   4.321 -0.4073 -0.2240 -0.7826
  713MOL0     C96140   1.003   5.012   4.239 -1.0137 -0.0239  0.3450
  713MOL0     C96141   0.974   5.161   4.251 -0.0028 -1.3454  0.3504
  713MOL0     C96142   0.902   5.215   4.125  0.0356  0.5331 -0.2497
  713MOL0     C96143   0.852   5.359   4.150  1.0210 -0.0689 -0.1509
  713MOL0     O96144   0.946   5.438   4.090 -0.1669 -0.1235 -0.1832
  713MOL0     C96145   0.924   5.572   4.064 -0.4234  0.4335  0.2204
  713MOL0     C96146   0.807   5.633   4.101 -0.1284  0.4445  0.0132
  713MOL0     C96147   0.772   5.758   4.056 -0.9797 -0.3078 -0.4628
  713MOL0     C96148   0.866   5.826   3.977 -0.1979  0.1320 -0.2279
  713MOL0     C96149   0.844   5.966   3.951 -0.3349  0.0352  0.2899
  713MOL0     O96150   0.942   6.057   3.975 -0.2927 -0.3916 -0.0222
  713MOL0     C96151   0.943   6.194   3.946 -0.0267  0.3065  0.3407
  713MOL0     C96152   1.059   6.261   3.991  0.3750 -0.6071 -0.7345
  713MOL0     C96153   1.075   6.400   3.972 -0.4250  0.5458 -0.0521
  713MOL0     C96154   0.976   6.468   3.896 -0.5429  0.1817 -0.4256
  713MOL0     O96155   0.996   6.595   3.893  0.7150 -0.2730 -0.4591
  713MOL0     C96156   0.931   6.677   3.793  0.2337 -0.8004  0.2452
  713MOL0     C96157   0.996   6.816   3.775  0.6764  0.0613 -0.5345
  713MOL0     C96158   0.960   6.883   3.641  0.4305  0.3891 -0.0849
  713MOL0     C96159   0.960   7.035   3.649  0.7065  0.3421 -0.2233
  713MOL0     C96160   0.938   7.098   3.521  0.2498  0.1637  0.4873
  713MOL0     C96161   0.940   7.249   3.532 -0.2637  0.8137 -1.4892
  713MOL0     C96162   1.003   7.308   3.397 -0.4785  0.2297 -0.6450
  713MOL0     C96163   0.978   7.450   3.369  0.7025 -0.3647  1.0049
  713MOL0    Cl96164   0.798   7.489   3.375  0.0809 -0.5900  0.3695
  713MOL0     C96165   0.862   6.400   3.849  0.1338 -0.6077 -0.2951
  713MOL0     C96166   0.840   6.262   3.875 -0.5567 -0.8582  0.1222
  713MOL0     O96167   0.730   5.992   3.917  0.6301 -0.2924  0.4543
  713MOL0     C96168   0.987   5.769   3.944 -0.3742 -1.0162  0.0965
  713MOL0     C96169   1.017   5.638   3.982 -0.3543  0.0728  0.2915
  713MOL0     N96170   1.241   4.957   4.283 -0.4668  0.1569  0.3062
  713MOL0     N96171   1.304   4.925   4.391  0.5741  0.5237  0.1975
  713MOL0     C96172   0.639   3.969   4.618  0.5782 -0.0086 -0.2499
  713MOL0     C96173   0.510   3.925   4.643 -0.2515  0.4093 -0.2382
  713MOL0     C96174   0.061   3.857   4.597  0.3290 -0.1850 -0.2212
  713MOL0     C96175   0.027   3.885   4.734  0.9636 -0.3888  0.3740
  713MOL0     C96176  -0.097   3.835   4.777 -0.7369 -0.4879 -0.5948
  713MOL0     C96177  -0.192   3.757   4.708  0.6414 -0.8201 -0.8275
  713MOL0     O96178  -0.301   3.718   4.787 -0.5749 -0.3615 -0.0837
  713MOL0     C96179  -0.352   3.593   4.761  0.9302  0.1325 -0.0670
  713MOL0     C96180  -0.244   3.477   4.754 -0.1223  0.9455  1.4141
  713MOL0     C96181  -0.134   3.472   4.874  0.2701  0.1546 -0.0179
  713MOL0     C96182  -0.038   3.357   4.869  0.0908 -0.8516 -0.0395
  713MOL0     C96183   0.034   3.354   5.003 -0.1018  0.3464  0.9112
  713MOL0     C96184   0.105   3.339   5.100 -0.0989  0.5877 -0.2197
  713MOL0     C96185  -0.155   3.728   4.578 -0.5418  0.0072 -0.5609
  713MOL0     C96186  -0.036   3.778   4.519  0.7879 -0.6517 -1.1088
  713MOL0     C96187  -0.017   3.744   4.382 -0.7365 -0.4795  0.6952
  713MOL0     H96188   0.325   4.181   4.541 -1.6372 -1.7761  0.1389
  713MOL0     H96189   0.554   4.258   4.471 -0.3309 -1.0777 -2.5145
  713MOL0     H96190   0.882   4.090   4.677 -1.8364  0.1155 -0.4078
  713MOL0     H96191   0.883   4.001   4.511 -0.3451  0.3601 -0.9448
  713MOL0     H96192   1.015   4.174   4.426 -2.3471 -0.7116 -0.1246
  713MOL0     H96193   1.106   4.128   4.577  0.5140  1.6716  2.5887
  713MOL0     H96194   0.977   4.334   4.676 -0.6644 -1.0660 -0.2843
  713MOL0     H96195   0.923   4.360   4.517 -1.5301 -4.9860 -0.5071
  713MOL0     H96196   1.217   4.332   4.552 -0.3375  0.4493  0.5291
  713MOL0     H96197   1.122   4.405   4.422 -2.5387  1.8634  1.1735
  713MOL0     H96198   1.069   4.609   4.539  0.3544 -0.2754 -0.9525
  713MOL0     H96199   1.116   4.543   4.693 -0.9388  4.0897 -0.2754
  713MOL0     H96200   1.358   4.511   4.578  0.2436 -0.3050 -4.6372
  713MOL0     H96201   1.299   4.612   4.456 -0.4390 -1.1270  0.0185
  713MOL0     H96202   1.422   4.761   4.575 -1.7477  3.2757 -0.8425
  713MOL0     H96203   1.366   4.722   4.732 -0.3718  1.4180 -0.0331
  713MOL0     H96204   1.141   4.826   4.668 -0.4417 -0.4966 -0.1860
  713MOL0     H96205   1.286   4.930   4.672 -0.0585 -0.3205  0.5606
  713MOL0     H96206   1.005   4.924   4.516  0.9089  1.6366  2.0487
  713MOL0     H96207   1.043   4.996   4.139  0.6289  0.2382  0.9352
  713MOL0     H96208   0.912   4.955   4.260 -0.5178 -0.4424  1.4443
  713MOL0     H96209   0.918   5.179   4.343 -1.3189 -0.2534 -0.6407
  713MOL0     H96210   1.066   5.220   4.262  0.0963 -1.0628 -1.6104
  713MOL0     H96211   0.818   5.150   4.102 -0.8446  1.2137  0.9582
  713MOL0     H96212   0.978   5.223   4.046  0.9900  3.7468  0.8173
  713MOL0     H96213   0.856   5.387   4.256 -3.0491  0.5737 -0.0194
  713MOL0     H96214   0.752   5.372   4.109  0.8844  0.0351  0.2137
  713MOL0     H96215   0.741   5.590   4.176 -1.5829 -0.0536 -1.4870
  713MOL0     H96216   0.683   5.809   4.091 -0.8409  0.3771 -1.0690
  713MOL0     H96217   1.126   6.206   4.056 -2.0115 -2.6677  0.1142
  713MOL0     H96218   1.161   6.450   4.015 -0.0859  1.0589 -1.2936
  713MOL0     H96219   0.917   6.624   3.699 -2.2553  1.6427 -0.8728
  713MOL0     H96220   0.830   6.698   3.828  0.9459 -2.1192  3.5902
  713MOL0     H96221   0.971   6.883   3.857  1.1024  1.3544 -1.4343
  713MOL0     H96222   1.104   6.802   3.781  0.4611 -1.1852  2.3187
  713MOL0     H96223   1.043   6.851   3.579  0.5714  2.6175 -1.1549
  713MOL0     H96224   0.868   6.833   3.609  1.4064 -3.3379  2.2942
  713MOL0     H96225   1.056   7.065   3.691  2.2181 -2.9805 -0.9345
  713MOL0     H96226   0.877   7.051   3.719  1.7778  0.9036  0.9375
  713MOL0     H96227   0.843   7.073   3.473  0.7882 -0.0380 -0.5114
  713MOL0     H96228   1.019   7.072   3.451  0.7999  1.5253  0.5972
  713MOL0     H96229   0.838   7.286   3.544 -1.3057 -2.4841  1.7052
  713MOL0     H96230   0.996   7.273   3.622  4.5754 -0.9527 -3.6858
  713MOL0     H96231   0.960   7.263   3.307 -0.5217 -0.3051 -0.3612
  713MOL0     H96232   1.112   7.296   3.393 -0.5259 -0.9139  0.5807
  713MOL0     H96233   1.027   7.512   3.445 -1.7242 -0.2161  2.5359
  713MOL0     H96234   1.014   7.476   3.269 -1.5872 -2.8031 -0.5950
  713MOL0     H96235   0.777   6.436   3.792 -1.1159 -0.7564  1.3872
  713MOL0     H96236   0.771   6.209   3.811 -0.5502 -3.6118  2.2490
  713MOL0     H96237   1.057   5.825   3.883 -1.3738  2.3460  1.7991
  713MOL0     H96238   1.109   5.588   3.952 -0.0775 -0.1445  1.4285
  713MOL0     H96239   0.728   3.913   4.646  0.7482 -1.3690 -3.2059
  713MOL0     H96240   0.482   3.828   4.683 -3.0383  1.8134  1.5715
  713MOL0     H96241   0.081   3.944   4.807  1.8521  0.7342 -1.1328
  713MOL0     H96242  -0.114   3.861   4.881  2.9431  1.9767 -0.4184
  713MOL0     H96243  -0.420   3.604   4.676 -0.4503 -1.6186  0.7417
  713MOL0     H96244  -0.421   3.566   4.842 -0.5274  1.4432 -0.8309
  713MOL0     H96245  -0.198   3.492   4.656  0.1765  0.0442  1.4097
  713MOL0     H96246  -0.290   3.378   4.760  1.0026  0.4536  2.5068
  713MOL0     H96247  -0.194   3.482   4.965 -0.8643  2.1408 -0.9034
  713MOL0     H96248  -0.077   3.565   4.871  0.9541 -0.2400 -3.2365
  713MOL0     H96249  -0.090   3.265   4.840 -0.4895 -0.3112 -0.7497
  713MOL0     H96250   0.032   3.375   4.787 -1.6654 -0.8102 -1.5937
  713MOL0     H96251   0.156   3.338   5.195 -1.1983  1.5557  0.4088
  713MOL0     H96252  -0.219   3.681   4.504  0.3837 -1.1313 -0.6663
  713MOL0     H96253  -0.005   3.831   4.316  0.9698 -0.2003  1.3296
  713MOL0     H96254   0.082   3.700   4.364 -0.9546  0.3880 -3.9172
  713MOL0     H96255  -0.091   3.683   4.330  0.2026  1.8764 -3.9669
  714MOL0     O96256   2.979   0.207   2.316  0.2935  0.7893  0.0722
  714MOL0     C96257   2.948   0.170   2.200  0.2763  0.0600 -0.1793
  714MOL0     O96258   3.031   0.171   2.092 -0.8639  0.4025 -0.4405
  714MOL0     C96259   3.154   0.234   2.100 -0.0308 -0.1989 -0.4766
  714MOL0     C96260   3.182   0.356   2.027 -0.1144  0.6824  0.2204
  714MOL0     C96261   3.304   0.417   2.039  0.0871  0.9966 -0.9123
  714MOL0     C96262   3.408   0.359   2.111 -0.4129  0.4989 -0.2619
  714MOL0     O96263   3.529   0.418   2.113 -1.3950  0.9099 -0.1731
  714MOL0     C96264   3.581   0.460   1.987 -0.4468 -0.4297  0.3489
  714MOL0     C96265   3.601   0.614   1.988 -0.3568 -0.0078 -0.0907
  714MOL0     C96266   3.728   0.660   1.914  0.7734 -0.2116 -0.2519
  714MOL0     C96267   3.717   0.636   1.757 -0.1074  0.1449 -0.2437
  714MOL0     C96268   3.595   0.691   1.677 -0.2250  0.3909  0.2721
  714MOL0     C96269   3.600   0.842   1.665  0.8589  0.0692  0.5668
  714MOL0     C96270   3.464   0.917   1.645  0.3563  0.1186 -0.2234
  714MOL0     C96271   3.397   0.908   1.502 -0.0580 -0.4053  0.9932
  714MOL0     N96272   3.281   0.986   1.470  0.5481  0.1978  0.0512
  714MOL0     C96273   3.263   1.101   1.404  0.3109 -0.2877  0.1351
  714MOL0     C96274   3.142   1.082   1.339 -0.2749  0.3060 -0.2217
  714MOL0     C96275   3.085   1.180   1.237 -0.1952 -0.8488  0.3513
  714MOL0     C96276   3.146   1.145   1.099  0.2437  0.1961 -0.4580
  714MOL0     C96277   3.055   1.054   1.019 -0.3565 -0.3971  0.1749
  714MOL0     C96278   3.096   1.052   0.869 -1.1782 -0.0950 -0.9481
  714MOL0     O96279   3.092   1.182   0.817 -0.2627 -0.5034 -0.0671
  714MOL0     C96280   2.967   1.236   0.822  0.4470  1.0261 -0.1612
  714MOL0     C96281   2.849   1.171   0.770 -0.5694  0.9731  0.8785
  714MOL0     C96282   2.726   1.236   0.761  0.3428  0.2884  0.2824
  714MOL0     C96283   2.714   1.366   0.804  1.2582  0.1028  0.2969
  714MOL0     C96284   2.584   1.444   0.811 -0.2718 -0.6758  0.1077
  714MOL0     O96285   2.605   1.577   0.849  0.4948  0.1037  0.2234
  714MOL0     C96286   2.498   1.663   0.823  0.0403  0.5881 -0.3242
  714MOL0     C96287   2.444   1.686   0.693  0.4953  0.2892  0.0210
  714MOL0     C96288   2.334   1.780   0.671 -0.4189 -0.4893  0.8941
  714MOL0     C96289   2.275   1.843   0.781 -0.1679  0.0750  0.6279
  714MOL0     O96290   2.162   1.920   0.792  0.8008  0.6937  0.3730
  714MOL0     C96291   2.084   1.953   0.675  0.8997 -0.7153  0.3914
  714MOL0     C96292   2.003   2.088   0.699  0.4029  0.2086  0.1266
  714MOL0     C96293   2.090   2.219   0.689 -0.9712 -0.2800 -0.7241
  714MOL0     C96294   2.160   2.262   0.816  0.2481  0.0954  0.1645
  714MOL0     C96295   2.236   2.393   0.819  0.0346  1.3213  0.9536
  714MOL0     C96296   2.307   2.427   0.694 -0.2426  0.8025 -0.1448
  714MOL0     C96297   2.366   2.565   0.686 -0.0028 -0.4328  0.1554
  714MOL0     C96298   2.472   2.597   0.786  0.1065  0.0127 -0.4696
  714MOL0    Cl96299   2.493   2.780   0.787 -0.0514 -0.0221  0.1075
  714MOL0     C96300   2.336   1.820   0.911  0.0071  0.7735  0.0042
  714MOL0     C96301   2.440   1.729   0.929 -0.4173 -0.3888 -0.5111
  714MOL0     O96302   2.482   1.397   0.777  0.1343 -0.3939 -0.2083
  714MOL0     C96303   2.825   1.438   0.848 -1.3772 -0.1816 -0.2343
  714MOL0     C96304   2.949   1.371   0.860  0.4909  0.1019  0.2406
  714MOL0     N96305   3.088   0.961   1.374 -0.2200 -0.1171 -0.1785
  714MOL0     N96306   3.168   0.908   1.456  0.4056  0.1051  0.1544
  714MOL0     C96307   3.389   0.241   2.182 -0.4581 -0.4418  0.2655
  714MOL0     C96308   3.262   0.175   2.172  0.7072  0.3852  0.0557
  714MOL0     C96309   2.805   0.116   2.177 -0.2503 -0.0244 -0.0401
  714MOL0     C96310   2.712   0.157   2.280  0.6186 -0.5662 -0.1818
  714MOL0     C96311   2.579   0.111   2.266 -0.1528  0.0330  0.4101
  714MOL0     C96312   2.535   0.033   2.159  0.5123 -0.7447  0.1712
  714MOL0     O96313   2.411  -0.021   2.147 -0.2383 -0.0559 -0.1018
  714MOL0     C96314   2.290   0.052   2.173 -0.6500  0.5804 -0.4198
  714MOL0     C96315   2.194   0.064   2.047 -0.3496 -0.4304  0.5460
  714MOL0     C96316   2.199  -0.064   1.959  0.2033 -0.0588 -0.3000
  714MOL0     C96317   2.067  -0.074   1.876  1.2536 -1.2924 -0.3997
  714MOL0     C96318   2.048   0.038   1.783  0.5215  0.2581 -0.2434
  714MOL0     C96319   2.036   0.138   1.718 -0.0783  0.2066 -0.4934
  714MOL0     C96320   2.627  -0.012   2.065  0.0928 -0.6541  0.8362
  714MOL0     C96321   2.764   0.024   2.079  0.6704 -0.6980  0.6139
  714MOL0     C96322   2.858  -0.035   1.976  0.1297 -0.1194 -0.5642
  714MOL0     H96323   3.106   0.416   1.980  0.1418  2.6125  2.1163
  714MOL0     H96324   3.327   0.503   1.978  1.9976 -0.5879 -2.5206
  714MOL0     H96325   3.684   0.424   1.985 -0.6153 -1.0261  1.6494
  714MOL0     H96326   3.527   0.419   1.901  1.7364 -0.7185 -0.9470
  714MOL0     H96327   3.598   0.661   2.087  0.4704  0.8154 -0.4479
  714MOL0     H96328   3.509   0.656   1.947 -0.1098  0.9149  0.2761
  714MOL0     H96329   3.814   0.601   1.948  1.5511  0.1213 -1.5636
  714MOL0     H96330   3.750   0.761   1.950  0.3935  0.6165 -2.2311
  714MOL0     H96331   3.808   0.664   1.703  1.2253 -0.6088  1.5160
  714MOL0     H96332   3.718   0.526   1.757  0.8317  0.0949  2.1572
  714MOL0     H96333   3.588   0.653   1.575 -1.5272  1.9039 -0.2346
  714MOL0     H96334   3.501   0.665   1.727 -0.0087 -0.1159  0.4177
  714MOL0     H96335   3.648   0.892   1.750 -0.9783  5.2323 -1.0752
  714MOL0     H96336   3.663   0.868   1.580  0.5759 -1.3794 -0.1202
  714MOL0     H96337   3.462   1.019   1.683  0.9178 -1.5023  4.8894
  714MOL0     H96338   3.403   0.865   1.719 -1.4217  0.2445 -1.5242
  714MOL0     H96339   3.470   0.962   1.440 -3.6533  2.0749 -1.4833
  714MOL0     H96340   3.392   0.803   1.472 -1.6071 -0.4361  1.2653
  714MOL0     H96341   3.332   1.182   1.385  1.2605 -0.5591  2.2114
  714MOL0     H96342   2.977   1.171   1.243 -0.3268 -4.5520 -3.0997
  714MOL0     H96343   3.126   1.281   1.249 -0.2320 -0.4563 -2.3307
  714MOL0     H96344   3.184   1.232   1.045 -0.7078  1.6380  1.0852
  714MOL0     H96345   3.240   1.090   1.108 -0.6064 -0.8812  4.0733
  714MOL0     H96346   2.948   1.080   1.018 -0.8881 -2.2359 -2.2576
  714MOL0     H96347   3.063   0.960   1.073 -0.2141  0.2231  1.2508
  714MOL0     H96348   3.023   0.988   0.818  1.8116 -4.1022 -0.6633
  714MOL0     H96349   3.196   1.018   0.841 -0.5170 -0.2570  1.3906
  714MOL0     H96350   2.850   1.074   0.721 -0.1164  0.8449  1.1365
  714MOL0     H96351   2.646   1.182   0.710  0.0974 -0.1066  1.0715
  714MOL0     H96352   2.507   1.634   0.622 -1.8274 -1.9051 -0.5689
  714MOL0     H96353   2.297   1.794   0.570  2.1572 -1.0291 -0.2043
  714MOL0     H96354   2.143   1.972   0.585 -1.2346  1.2472 -0.6967
  714MOL0     H96355   2.015   1.870   0.656  1.1295 -0.8132 -0.0311
  714MOL0     H96356   1.927   2.092   0.619 -1.0614 -0.2385  1.4463
  714MOL0     H96357   1.946   2.092   0.792  0.6856 -1.1517  0.3728
  714MOL0     H96358   2.167   2.203   0.613 -0.2067  2.8369 -0.7269
  714MOL0     H96359   2.031   2.302   0.650  0.3736 -0.0780 -2.4514
  714MOL0     H96360   2.233   2.181   0.826  2.3930  1.4918 -2.7684
  714MOL0     H96361   2.081   2.261   0.892  1.2406  0.1247  1.2316
  714MOL0     H96362   2.301   2.377   0.906  1.9666 -2.9233 -0.9322
  714MOL0     H96363   2.170   2.479   0.829 -1.4097  0.5808 -1.4127
  714MOL0     H96364   2.389   2.355   0.689 -2.0863 -1.2777 -2.0117
  714MOL0     H96365   2.255   2.415   0.599  3.3872  0.3820 -2.2559
  714MOL0     H96366   2.282   2.635   0.700  1.4995  0.8963  3.6086
  714MOL0     H96367   2.404   2.579   0.584 -0.7009  0.4002 -0.0057
  714MOL0     H96368   2.445   2.562   0.886  2.8822  0.5390  0.5674
  714MOL0     H96369   2.568   2.544   0.780 -0.4693 -1.3200  1.1668
  714MOL0     H96370   2.302   1.869   1.002  1.3347  4.1142 -1.1561
  714MOL0     H96371   2.468   1.695   1.029 -2.3517 -1.3286 -0.2301
  714MOL0     H96372   2.823   1.536   0.894 -1.8770  0.4073 -1.4591
  714MOL0     H96373   3.029   1.422   0.914  3.8259 -1.1554 -3.0958
  714MOL0     H96374   3.479   0.191   2.218  0.6677  1.0305 -0.3925
  714MOL0     H96375   3.238   0.079   2.216  1.2978  1.6848  3.4985
  714MOL0     H96376   2.743   0.221   2.362  0.9599 -1.3318  0.3002
  714MOL0     H96377   2.508   0.152   2.337 -0.5678  3.3112 -1.7015
  714MOL0     H96378   2.311   0.157   2.195  1.6517  0.7425 -2.9157
  714MOL0     H96379   2.228   0.009   2.253 -0.7573  3.1670  0.9992
  714MOL0     H96380   2.225   0.155   1.995 -0.8830 -0.7728 -0.3931
  714MOL0     H96381   2.093   0.082   2.086 -0.6132 -2.1391  0.7215
  714MOL0     H96382   2.206  -0.150   2.026  1.3864  0.1912 -0.0784
  714MOL0     H96383   2.288  -0.061   1.895  0.6202  0.1544  0.2911
  714MOL0     H96384   2.074  -0.164   1.813  0.9344 -3.0141  1.8991
  714MOL0     H96385   1.980  -0.081   1.942 -0.7646 -0.9056 -2.8742
  714MOL0     H96386   2.010   0.214   1.647 -0.4600 -0.0430 -0.6210
  714MOL0     H96387   2.587  -0.055   1.975 -1.7445  2.4244  0.0422
  714MOL0     H96388   2.958  -0.047   2.020 -1.2600  1.5181  3.5694
  714MOL0     H96389   2.813  -0.132   1.955  2.9310 -1.4649 -0.7419
  714MOL0     H96390   2.854   0.026   1.886 -1.0585  3.0454  1.4456
  715MOL0     O96391   2.579   7.363   4.324 -0.9049 -0.0340  0.4347
  715MOL0     C96392   2.589   7.271   4.251  0.7992 -0.1311  0.5719
  715MOL0     O96393   2.700   7.249   4.156  0.7156 -0.1395 -0.2142
  715MOL0     C96394   2.772   7.361   4.130 -0.3976  0.5300  1.4921
  715MOL0     C96395   2.792   7.383   3.991  0.0321 -0.5554 -0.3130
  715MOL0     C96396   2.869   7.496   3.939 -0.8019  0.7768  0.6092
  715MOL0     C96397   2.933   7.583   4.028 -0.1323 -0.4925 -0.4837
  715MOL0     O96398   3.004   7.694   4.006 -0.3591  0.0136 -0.5883
  715MOL0     C96399   2.989   7.759   3.877  0.5083  0.1764 -0.5780
  715MOL0     C96400   3.115   7.715   3.799  1.8811 -0.1178 -0.1753
  715MOL0     C96401   3.135   7.780   3.659  0.0347  0.5020 -0.4270
  715MOL0     C96402   3.266   7.740   3.579  0.0423  1.4306  0.1239
  715MOL0     C96403   3.276   7.739   3.424 -0.0046 -1.0803  0.3367
  715MOL0     C96404   3.417   7.686   3.386  0.3188  0.1130  0.0547
  715MOL0     C96405   3.443   7.604   3.257  0.0616 -0.4548 -1.0333
  715MOL0     C96406   3.432   7.697   3.134  0.6904 -0.5926 -0.3772
  715MOL0     N96407   3.307   7.773   3.114  0.3392 -0.2893 -0.0328
  715MOL0     C96408   3.177   7.731   3.126  0.3455  0.2013 -0.1341
  715MOL0     C96409   3.101   7.839   3.123  1.0106  0.2858  0.6807
  715MOL0     C96410   2.951   7.830   3.144 -0.3448 -0.3136 -0.6769
  715MOL0     C96411   2.895   7.858   3.280  0.3562  0.2772 -0.0113
  715MOL0     C96412   2.916   8.006   3.325 -0.4847 -0.5451  0.7717
  715MOL0     C96413   2.789   8.094   3.309 -0.2783  0.2195  0.1167
  715MOL0     O96414   2.689   8.065   3.406 -0.1070 -0.2991  1.0910
  715MOL0     C96415   2.567   8.132   3.392 -0.9000 -0.1862 -0.3677
  715MOL0     C96416   2.472   8.072   3.468  0.6967 -0.0160  0.1734
  715MOL0     C96417   2.340   8.113   3.475  1.0431 -0.3824  0.6038
  715MOL0     C96418   2.297   8.219   3.395 -0.1137 -0.1896  0.6225
  715MOL0     C96419   2.155   8.277   3.394 -0.0853 -0.6790  0.3361
  715MOL0     O96420   2.054   8.195   3.393  0.0732  0.3554  0.7001
  715MOL0     C96421   1.928   8.243   3.424  0.5905 -0.3546 -0.1710
  715MOL0     C96422   1.818   8.214   3.347  0.7894  0.0096 -0.5090
  715MOL0     C96423   1.689   8.263   3.373 -0.2057  0.7259 -0.4363
  715MOL0     C96424   1.663   8.330   3.493 -0.8712 -0.0546  0.1354
  715MOL0     O96425   1.541   8.375   3.531 -0.0346 -0.3677  0.1285
  715MOL0     C96426   1.468   8.443   3.435 -0.3026 -0.4090  0.2620
  715MOL0     C96427   1.401   8.569   3.493  0.4227  0.2129 -0.9575
  715MOL0     C96428   1.331   8.661   3.388 -0.4739 -0.6301  1.2009
  715MOL0     C96429   1.428   8.744   3.298 -0.7592  0.3806 -0.4435
  715MOL0     C96430   1.371   8.850   3.212  0.2056  0.1585  0.8671
  715MOL0     C96431   1.247   8.829   3.133  0.2329  1.2340 -1.4876
  715MOL0     C96432   1.234   8.939   3.029 -0.2892  0.1016 -0.3154
  715MOL0     C96433   1.098   8.954   2.967  0.7252 -0.3963  0.3274
  715MOL0    Cl96434   1.090   9.093   2.850  0.3951  0.0654 -0.1393
  715MOL0     C96435   1.771   8.353   3.575  0.3283 -0.2944  0.1942
  715MOL0     C96436   1.902   8.295   3.550  0.0875  0.0805  0.2984
  715MOL0     O96437   2.147   8.402   3.402  0.1753  0.9081  0.5203
  715MOL0     C96438   2.397   8.276   3.307 -0.6244 -0.6129  0.3637
  715MOL0     C96439   2.525   8.229   3.300  0.0289  0.8981  0.7093
  715MOL0     N96440   3.187   7.950   3.083  0.4789  0.1615  0.6594
  715MOL0     N96441   3.310   7.904   3.090 -1.3149  0.2797  0.2673
  715MOL0     C96442   2.928   7.546   4.167  1.5274 -1.3071  0.1342
  715MOL0     C96443   2.851   7.442   4.218  0.0897  0.0784  0.3821
  715MOL0     C96444   2.472   7.177   4.252  0.4781 -0.4864 -0.1114
  715MOL0     C96445   2.434   7.118   4.130  0.2967 -1.2014  0.2745
  715MOL0     C96446   2.333   7.023   4.127 -0.3405 -0.4665  0.3011
  715MOL0     C96447   2.274   6.975   4.242 -0.5071 -0.2519 -0.7801
  715MOL0     O96448   2.190   6.869   4.231 -0.1645 -0.4091 -0.4823
  715MOL0     C96449   2.138   6.795   4.336  0.1617  0.3511 -0.2540
  715MOL0     C96450   2.022   6.707   4.287 -0.0152 -0.6473  0.5401
  715MOL0     C96451   1.984   6.619   4.405  0.1270 -0.7393  0.0281
  715MOL0     C96452   1.845   6.550   4.374  0.1129  0.3397 -0.4129
  715MOL0     C96453   1.817   6.437   4.463  0.7043  0.1398  0.0676
  715MOL0     C96454   1.799   6.359   4.555  0.7525 -0.3080  0.0713
  715MOL0     C96455   2.311   7.039   4.363  0.0986 -0.5777  0.2181
  715MOL0     C96456   2.404   7.140   4.369  0.4202 -0.8874  0.6962
  715MOL0     C96457   2.439   7.197   4.503  0.0745 -1.3107  0.1782
  715MOL0     H96458   2.743   7.316   3.921 -0.8867  1.5620 -1.8109
  715MOL0     H96459   2.884   7.517   3.834 -0.7566 -2.4574 -0.1325
  715MOL0     H96460   2.892   7.736   3.832  0.4290  0.0945 -0.3643
  715MOL0     H96461   2.997   7.868   3.888 -1.2782  0.3372 -0.7132
  715MOL0     H96462   3.096   7.608   3.784  0.5551  0.1856 -0.8137
  715MOL0     H96463   3.206   7.728   3.859  2.2144  1.7562 -1.0401
  715MOL0     H96464   3.130   7.889   3.656  0.4569  0.5031 -2.0090
  715MOL0     H96465   3.052   7.736   3.602  0.3339  1.2357 -1.4648
  715MOL0     H96466   3.335   7.809   3.629  0.5422  0.1729  1.2323
  715MOL0     H96467   3.291   7.636   3.600 -0.1334  1.4547  0.4591
  715MOL0     H96468   3.198   7.685   3.370  0.4624 -1.6464  0.2213
  715MOL0     H96469   3.258   7.839   3.385 -0.5404 -1.3593 -0.1519
  715MOL0     H96470   3.488   7.769   3.389  1.0003 -0.4913  3.2964
  715MOL0     H96471   3.452   7.628   3.471 -2.0027 -1.4786  0.0386
  715MOL0     H96472   3.369   7.524   3.245 -0.1566 -0.4492  0.1280
  715MOL0     H96473   3.549   7.575   3.268  0.0932  0.1693  0.6480
  715MOL0     H96474   3.527   7.750   3.136  0.5830 -0.3327  2.6826
  715MOL0     H96475   3.441   7.637   3.044  1.5819 -0.5318 -0.3335
  715MOL0     H96476   3.149   7.626   3.131 -1.3236  0.5331 -1.7095
  715MOL0     H96477   2.901   7.894   3.070  3.8096  2.4569 -1.4413
  715MOL0     H96478   2.924   7.729   3.110 -0.5399  0.5981 -3.5160
  715MOL0     H96479   2.787   7.845   3.284  0.3687 -0.5362 -1.5013
  715MOL0     H96480   2.948   7.790   3.347  1.2840  0.0566 -0.9332
  715MOL0     H96481   3.003   8.053   3.277  0.4566 -0.3597  2.5495
  715MOL0     H96482   2.947   8.003   3.430  2.0834  0.9539  0.1559
  715MOL0     H96483   2.739   8.069   3.215  1.3596  0.4260 -0.8385
  715MOL0     H96484   2.816   8.200   3.299  0.6043 -0.0753 -0.8082
  715MOL0     H96485   2.500   7.993   3.537 -3.1671  0.5451  2.6932
  715MOL0     H96486   2.275   8.062   3.545 -0.3214 -0.1315 -0.4488
  715MOL0     H96487   1.840   8.161   3.255  0.7345 -2.3805  0.7844
  715MOL0     H96488   1.602   8.265   3.307 -0.8738  3.1389  0.4272
  715MOL0     H96489   1.531   8.475   3.352  0.3310  0.3029  1.0001
  715MOL0     H96490   1.390   8.379   3.390 -2.3599  2.7478 -1.0402
  715MOL0     H96491   1.316   8.529   3.548 -0.5064 -1.9791 -3.7135
  715MOL0     H96492   1.460   8.627   3.565  1.0981 -4.2155  2.5191
  715MOL0     H96493   1.270   8.607   3.316 -0.7228  0.9469  0.1899
  715MOL0     H96494   1.275   8.735   3.447  0.8601  0.5071  1.1126
  715MOL0     H96495   1.481   8.672   3.235  0.6958  0.1385  0.9895
  715MOL0     H96496   1.513   8.781   3.357 -0.2290  0.8010 -1.4477
  715MOL0     H96497   1.454   8.855   3.140  1.9295 -2.6179  2.4814
  715MOL0     H96498   1.377   8.949   3.258  3.3301  2.0442 -2.9587
  715MOL0     H96499   1.241   8.727   3.093 -0.1859  0.7475 -0.2497
  715MOL0     H96500   1.175   8.842   3.215  1.5112 -1.9975  0.3343
  715MOL0     H96501   1.312   8.923   2.953 -0.5526  1.2072 -0.8324
  715MOL0     H96502   1.271   9.026   3.083  4.1210 -2.5384  1.5437
  715MOL0     H96503   1.067   8.865   2.911 -1.3678 -0.3353  1.3156
  715MOL0     H96504   1.030   8.976   3.050 -2.9181 -3.1187 -1.6450
  715MOL0     H96505   1.740   8.415   3.659  0.1000  1.3792 -1.0643
  715MOL0     H96506   1.985   8.320   3.615 -1.0547  0.8987  1.5009
  715MOL0     H96507   2.371   8.368   3.255 -0.5484 -1.6051 -1.5306
  715MOL0     H96508   2.591   8.291   3.240 -1.6425  3.8120  1.6951
  715MOL0     H96509   2.982   7.613   4.233  2.0158  0.6568 -2.1305
  715MOL0     H96510   2.848   7.426   4.326  4.4387  1.3800  0.9098
  715MOL0     H96511   2.490   7.154   4.044  1.4245 -4.0630 -0.3109
  715MOL0     H96512   2.314   6.975   4.031  2.5536 -2.7079  0.7093
  715MOL0     H96513   2.114   6.857   4.423 -2.3426 -0.8706  0.0300
  715MOL0     H96514   2.212   6.724   4.374  0.1044  2.8984  5.5481
  715MOL0     H96515   2.070   6.651   4.206  0.0224 -0.4993  0.4598
  715MOL0     H96516   1.940   6.762   4.240 -1.4797 -1.5961  1.9018
  715MOL0     H96517   1.968   6.684   4.491 -0.1055  0.3231 -0.7954
  715MOL0     H96518   2.065   6.548   4.424  2.2683  1.6970  0.5809
  715MOL0     H96519   1.763   6.620   4.354 -2.1988 -1.7552  1.1269
  715MOL0     H96520   1.871   6.506   4.278  0.7044  3.4350 -1.7838
  715MOL0     H96521   1.773   6.299   4.640  4.2202 -2.9176 -0.4954
  715MOL0     H96522   2.259   7.000   4.450 -0.5622  0.1405  0.1540
  715MOL0     H96523   2.394   7.296   4.514 -0.3214 -1.2424 -1.7749
  715MOL0     H96524   2.393   7.136   4.582 -2.2133  1.7940  1.4168
  715MOL0     H96525   2.548   7.194   4.516  0.1704  0.8338  0.1772
  716MOL0     O96526   5.049   3.621   0.917 -0.4589  0.3068  0.2655
  716MOL0     C96527   5.084   3.505   0.926 -0.2600  0.2896 -0.2224
  716MOL0     O96528   5.057   3.419   1.024 -0.3303  0.0364  0.4605
  716MOL0     C96529   4.999   3.474   1.130  0.3036 -0.6105  0.5187
  716MOL0     C96530   4.868   3.439   1.169 -0.5806 -0.4228  0.1304
  716MOL0     C96531   4.804   3.491   1.282 -0.2304 -0.2237 -0.9181
  716MOL0     C96532   4.878   3.555   1.379  0.4041 -0.6762  0.0088
  716MOL0     O96533   4.816   3.613   1.486 -0.4223  0.2314 -0.2835
  716MOL0     C96534   4.852   3.747   1.503 -0.1428 -0.0696  0.1838
  716MOL0     C96535   4.721   3.810   1.541 -0.4155 -0.4759 -0.2530
  716MOL0     C96536   4.731   3.968   1.558  0.1865 -0.0523 -0.2775
  716MOL0     C96537   4.774   4.000   1.699 -0.3659 -0.5822 -0.3315
  716MOL0     C96538   4.749   4.157   1.728  0.2704  0.1728  0.8807
  716MOL0     C96539   4.828   4.201   1.850 -0.0241 -0.6138  0.3998
  716MOL0     C96540   4.974   4.235   1.806  0.3387 -0.6000  0.1896
  716MOL0     C96541   5.064   4.278   1.923 -0.3494  1.4743  0.7690
  716MOL0     N96542   5.006   4.390   2.001 -0.3576  0.0239 -0.6506
  716MOL0     C96543   4.898   4.390   2.090  0.0611  0.3072  0.0074
  716MOL0     C96544   4.832   4.509   2.066 -0.3200  0.0250  0.0921
  716MOL0     C96545   4.686   4.554   2.106 -0.4255  0.1963  0.1007
  716MOL0     C96546   4.663   4.540   2.257 -0.5193 -0.3558  1.3460
  716MOL0     C96547   4.518   4.555   2.289 -0.7723 -0.9906 -0.1179
  716MOL0     C96548   4.488   4.519   2.429 -0.0325  0.5651  0.5931
  716MOL0     O96549   4.552   4.607   2.527  0.0309 -0.4921  0.2217
  716MOL0     C96550   4.493   4.720   2.565 -0.2036  0.6012 -0.7912
  716MOL0     C96551   4.387   4.779   2.496  0.2265  0.7868  0.5741
  716MOL0     C96552   4.328   4.891   2.564  0.6286 -0.1200 -0.0828
  716MOL0     C96553   4.367   4.934   2.682  0.4584  0.2918 -0.6371
  716MOL0     C96554   4.296   5.050   2.742 -0.5148 -0.7375  0.5601
  716MOL0     O96555   4.373   5.116   2.840 -0.1563 -0.0295 -0.8244
  716MOL0     C96556   4.338   5.220   2.919 -0.6024 -0.3144  0.8204
  716MOL0     C96557   4.447   5.259   3.000  0.0563 -0.3290 -0.2005
  716MOL0     C96558   4.437   5.366   3.093 -0.8072  0.1691  0.5734
  716MOL0     C96559   4.321   5.450   3.091 -0.1542  0.0368  0.1984
  716MOL0     O96560   4.304   5.549   3.182  0.4868 -0.4013 -0.9119
  716MOL0     C96561   4.371   5.556   3.308 -0.4700 -0.4215  0.7250
  716MOL0     C96562   4.278   5.596   3.421 -0.1780  0.2917 -0.1739
  716MOL0     C96563   4.166   5.493   3.443 -0.2090 -1.0367  0.6182
  716MOL0     C96564   4.039   5.542   3.513 -0.5969 -0.1281  0.1492
  716MOL0     C96565   3.948   5.419   3.540 -0.5308 -0.5177  0.0284
  716MOL0     C96566   3.841   5.459   3.645  0.0603 -0.0443 -0.4028
  716MOL0     C96567   3.743   5.336   3.649 -0.1944 -0.0851 -0.5730
  716MOL0     C96568   3.609   5.354   3.741  0.4752 -0.6212 -0.1232
  716MOL0    Cl96569   3.503   5.217   3.690  0.3728 -0.0687 -0.0481
  716MOL0     C96570   4.214   5.407   3.014  0.7523  0.5340  0.4263
  716MOL0     C96571   4.219   5.288   2.938 -0.6055 -0.1425 -0.5284
  716MOL0     O96572   4.187   5.089   2.696  0.3420 -0.5344  0.1773
  716MOL0     C96573   4.467   4.869   2.754 -0.6287 -1.0897  0.1851
  716MOL0     C96574   4.536   4.761   2.693 -0.4374  0.6669 -0.6328
  716MOL0     N96575   4.895   4.573   1.963 -0.4144  0.0132  0.2679
  716MOL0     N96576   5.002   4.505   1.933 -0.2344 -0.3360 -0.0540
  716MOL0     C96577   5.014   3.583   1.347  0.0927  0.4587  0.9003
  716MOL0     C96578   5.068   3.542   1.221 -0.4145  0.6840 -0.3456
  716MOL0     C96579   5.176   3.455   0.812 -0.6998 -0.3313  0.5906
  716MOL0     C96580   5.183   3.538   0.690  0.3805  0.4493  0.3367
  716MOL0     C96581   5.266   3.487   0.582  0.1180 -0.0245 -0.7851
  716MOL0     C96582   5.358   3.378   0.597 -0.1003  0.2565 -0.6057
  716MOL0     O96583   5.436   3.348   0.494 -0.7405 -0.3273 -0.6505
  716MOL0     C96584   5.511   3.223   0.487 -0.9186  0.2101 -0.0508
  716MOL0     C96585   5.429   3.104   0.444  0.2428  0.0221  0.1214
  716MOL0     C96586   5.520   2.979   0.437 -1.0450 -0.7054 -0.2103
  716MOL0     C96587   5.441   2.851   0.449  0.3079  0.4524  0.4999
  716MOL0     C96588   5.511   2.755   0.363  0.6381 -0.5626  0.4682
  716MOL0     C96589   5.559   2.677   0.290 -0.1933 -0.7071 -1.1347
  716MOL0     C96590   5.366   3.319   0.724  0.1751 -0.0431  1.1334
  716MOL0     C96591   5.280   3.361   0.829  0.7112  0.2472 -0.2438
  716MOL0     C96592   5.303   3.289   0.965  0.1654  0.1669  0.5996
  716MOL0     H96593   4.803   3.382   1.104 -3.1826  0.1138  2.1174
  716MOL0     H96594   4.700   3.480   1.311  0.0765  0.9057  0.8442
  716MOL0     H96595   4.919   3.755   1.589 -1.5687 -0.2840  1.3568
  716MOL0     H96596   4.896   3.789   1.412 -2.2980  2.1328  0.0581
  716MOL0     H96597   4.684   3.777   1.638 -0.9514 -3.1756 -1.2769
  716MOL0     H96598   4.648   3.781   1.465  0.3287  1.0191 -1.6041
  716MOL0     H96599   4.640   4.020   1.527 -0.9801 -0.1067  2.6933
  716MOL0     H96600   4.809   4.008   1.492  1.6813  0.0634  1.4557
  716MOL0     H96601   4.711   3.947   1.771  0.7342  2.4143  3.1184
  716MOL0     H96602   4.880   3.975   1.706 -0.3418 -0.3888 -0.0133
  716MOL0     H96603   4.770   4.212   1.635 -0.1240 -1.0944  0.0082
  716MOL0     H96604   4.646   4.166   1.761 -0.0423  2.3127 -0.4904
  716MOL0     H96605   4.774   4.288   1.888  0.7521 -1.6331  4.2601
  716MOL0     H96606   4.819   4.130   1.932  2.3644  0.0462  1.3357
  716MOL0     H96607   4.990   4.315   1.733 -2.0460  2.6297  2.8654
  716MOL0     H96608   5.019   4.143   1.767  1.8180 -2.3526  5.2976
  716MOL0     H96609   5.071   4.191   1.989  1.5804  2.5383  2.0552
  716MOL0     H96610   5.168   4.302   1.899  0.0710 -0.3206  0.6397
  716MOL0     H96611   4.873   4.310   2.160 -2.5889  0.6283 -0.4494
  716MOL0     H96612   4.678   4.660   2.081  0.2548  1.2574  3.8451
  716MOL0     H96613   4.615   4.494   2.048  1.4205 -1.9906 -0.0714
  716MOL0     H96614   4.710   4.446   2.287  1.1538  0.5804  1.8037
  716MOL0     H96615   4.710   4.623   2.311 -1.9342 -0.7013  3.2402
  716MOL0     H96616   4.454   4.490   2.229  1.0972 -0.5584 -2.8056
  716MOL0     H96617   4.490   4.659   2.269  1.8216 -0.0614  0.6431
  716MOL0     H96618   4.519   4.414   2.437 -0.9749  0.1182 -1.1380
  716MOL0     H96619   4.381   4.517   2.452 -0.1195 -0.0164  0.1605
  716MOL0     H96620   4.340   4.749   2.402  3.0288 -0.1681 -0.6193
  716MOL0     H96621   4.240   4.925   2.510  2.1743  0.8256 -2.1566
  716MOL0     H96622   4.536   5.200   2.983  0.5602 -0.4047  2.4229
  716MOL0     H96623   4.529   5.394   3.144 -0.0522 -3.4487  1.5114
  716MOL0     H96624   4.404   5.453   3.327  1.3367 -0.5591 -2.4238
  716MOL0     H96625   4.465   5.610   3.298 -0.7128 -0.3469 -1.9112
  716MOL0     H96626   4.332   5.615   3.515  1.3015  1.5970 -1.2288
  716MOL0     H96627   4.239   5.691   3.385  2.6346  2.5823  2.2661
  716MOL0     H96628   4.125   5.458   3.348  0.1047  3.0509 -1.2722
  716MOL0     H96629   4.199   5.404   3.496 -1.1073 -1.5691  0.2986
  716MOL0     H96630   3.986   5.608   3.444 -3.1574  0.0801  2.1386
  716MOL0     H96631   4.061   5.601   3.603  0.3163  2.0519 -1.4158
  716MOL0     H96632   4.001   5.328   3.572  4.2025  1.2641 -1.9050
  716MOL0     H96633   3.902   5.406   3.442  1.1827  0.7612 -0.9916
  716MOL0     H96634   3.887   5.478   3.743  2.0193 -0.8142 -1.1118
  716MOL0     H96635   3.792   5.546   3.600 -0.4943 -2.8698 -6.1259
  716MOL0     H96636   3.807   5.250   3.668  2.4911  1.2062 -2.9790
  716MOL0     H96637   3.712   5.315   3.546  2.5613  1.1783 -1.7776
  716MOL0     H96638   3.618   5.350   3.850 -1.5067  2.2503  0.2737
  716MOL0     H96639   3.563   5.448   3.709  3.2284  0.2956 -1.7804
  716MOL0     H96640   4.118   5.458   3.009  0.6244  0.3328  0.8096
  716MOL0     H96641   4.126   5.247   2.902 -1.4074  2.6095 -1.9017
  716MOL0     H96642   4.522   4.904   2.840  3.6652  1.3167 -3.1128
  716MOL0     H96643   4.610   4.710   2.752  1.1977  1.1565 -2.1672
  716MOL0     H96644   5.087   3.640   1.405  3.2243  0.3318 -2.4952
  716MOL0     H96645   5.165   3.585   1.196 -0.9605  2.1685 -0.0543
  716MOL0     H96646   5.113   3.618   0.667 -2.0457 -1.1878  1.6679
  716MOL0     H96647   5.261   3.540   0.487 -0.6125 -1.8173 -1.8062
  716MOL0     H96648   5.562   3.201   0.581  1.3739 -0.4327 -1.3666
  716MOL0     H96649   5.593   3.240   0.417  0.6137 -2.3168  1.0129
  716MOL0     H96650   5.390   3.137   0.347  3.5187  1.9021 -0.6904
  716MOL0     H96651   5.356   3.089   0.525 -0.4693  3.1012  0.1566
  716MOL0     H96652   5.594   2.997   0.516  0.8327  1.7273 -2.3317
  716MOL0     H96653   5.588   2.979   0.352 -0.0309  1.5247  0.5167
  716MOL0     H96654   5.443   2.812   0.552  1.3206 -1.8024 -0.2826
  716MOL0     H96655   5.336   2.862   0.421  0.2218  1.3504  1.1459
  716MOL0     H96656   5.604   2.609   0.220 -1.7453 -0.7032 -2.2048
  716MOL0     H96657   5.440   3.240   0.738  0.9932  0.6535  0.8600
  716MOL0     H96658   5.396   3.232   0.968  1.7531  2.6108  0.6976
  716MOL0     H96659   5.296   3.362   1.047  0.0685  1.6311 -0.6595
  716MOL0     H96660   5.222   3.218   0.984  0.9947 -1.1204 -0.5786
  717MOL0     O96661   4.878   8.274   1.259  0.3835  0.6579  0.3680
  717MOL0     C96662   4.903   8.287   1.138 -0.6321 -0.0312  0.0644
  717MOL0     O96663   4.809   8.271   1.043  0.1870  0.3802 -0.5626
  717MOL0     C96664   4.670   8.284   1.082  0.4355 -0.1268 -0.6188
  717MOL0     C96665   4.611   8.174   1.147 -1.1579 -0.6960 -0.5727
  717MOL0     C96666   4.477   8.185   1.195  0.4044  0.4317 -0.0705
  717MOL0     C96667   4.396   8.295   1.165 -0.1096  0.1728  1.0388
  717MOL0     O96668   4.266   8.302   1.193  0.1690 -0.2063  0.1795
  717MOL0     C96669   4.216   8.248   1.319  0.3335  0.8370 -0.2311
  717MOL0     C96670   4.271   8.323   1.439 -0.7748  0.4717  0.0440
  717MOL0     C96671   4.228   8.469   1.430 -0.3948 -0.2454  0.9924
  717MOL0     C96672   4.307   8.540   1.537  0.3623 -0.9311 -0.3726
  717MOL0     C96673   4.247   8.677   1.553 -0.5628 -0.5581 -0.5021
  717MOL0     C96674   4.327   8.770   1.651  0.5674 -0.1700  1.0840
  717MOL0     C96675   4.231   8.869   1.711 -0.5222 -0.2268  0.8550
  717MOL0     C96676   4.293   8.923   1.838 -0.0068 -0.5731  0.1655
  717MOL0     N96677   4.241   9.059   1.877  0.4776 -0.2484 -0.7065
  717MOL0     C96678   4.196   9.159   1.791 -0.5291  0.1309 -0.3286
  717MOL0     C96679   4.141   9.248   1.877 -0.0102  0.5566 -0.3044
  717MOL0     C96680   4.088   9.386   1.845 -0.0754  0.1511 -0.4777
  717MOL0     C96681   4.163   9.480   1.944 -0.3976 -0.4006  0.3353
  717MOL0     C96682   4.107   9.488   2.087 -0.4311 -0.2834 -0.1848
  717MOL0     C96683   4.210   9.552   2.184 -0.0885  0.2664  0.6091
  717MOL0     O96684   4.252   9.679   2.125  0.2858 -0.0256 -0.4186
  717MOL0     C96685   4.289   9.769   2.223 -0.7680  0.9681  0.3768
  717MOL0     C96686   4.374   9.748   2.339  0.3645  0.5355 -0.1143
  717MOL0     C96687   4.385   9.857   2.424 -0.3822 -0.3170  0.0476
  717MOL0     C96688   4.330   9.984   2.409  0.1173  0.3252 -0.7225
  717MOL0     C96689   4.337  10.076   2.517 -0.1248  0.1002  0.2449
  717MOL0     O96690   4.432  10.048   2.604 -0.2851  0.5116 -0.3605
  717MOL0     C96691   4.456  10.122   2.715 -0.0155 -1.2372 -0.2914
  717MOL0     C96692   4.586  10.087   2.771 -0.9515  0.0898 -0.2891
  717MOL0     C96693   4.636  10.144   2.891  1.3143 -0.7894  0.2950
  717MOL0     C96694   4.556  10.236   2.961  0.3402  0.6287 -1.2239
  717MOL0     O96695   4.615  10.286   3.080  0.4931  0.3045  0.1200
  717MOL0     C96696   4.662  10.419   3.066  0.0066  1.2891 -0.2396
  717MOL0     C96697   4.629  10.478   3.201 -0.8156 -0.1682  0.7997
  717MOL0     C96698   4.699  10.402   3.320  0.4829 -0.6447 -0.1993
  717MOL0     C96699   4.696  10.483   3.451 -0.1489 -0.4047 -0.0929
  717MOL0     C96700   4.766  10.399   3.560 -0.0470 -0.6700 -0.4765
  717MOL0     C96701   4.797  10.494   3.683  0.0064 -0.2465 -0.6074
  717MOL0     C96702   4.670  10.549   3.745  0.0819  0.0875  0.5007
  717MOL0     C96703   4.688  10.637   3.867  0.5182  0.1915  0.2226
  717MOL0    Cl96704   4.843  10.729   3.856 -0.0926 -0.0549 -0.1572
  717MOL0     C96705   4.431  10.277   2.905 -0.4089 -0.2665 -0.0059
  717MOL0     C96706   4.382  10.229   2.780 -0.2509  0.9700 -0.4380
  717MOL0     O96707   4.251  10.163   2.518 -0.9175 -0.6333  0.2050
  717MOL0     C96708   4.272  10.010   2.286  0.4120  0.1607  0.0778
  717MOL0     C96709   4.245   9.900   2.198 -0.7018  0.9804  0.1844
  717MOL0     N96710   4.141   9.191   2.009 -0.1054 -0.3082  0.5471
  717MOL0     N96711   4.202   9.083   2.009 -0.3713  0.0045 -0.2677
  717MOL0     C96712   4.458   8.402   1.092  0.0482 -0.4383  0.2704
  717MOL0     C96713   4.585   8.398   1.056 -0.6459  1.1619  0.1189
  717MOL0     C96714   5.052   8.307   1.106  1.2104  0.4544 -0.0250
  717MOL0     C96715   5.082   8.380   0.987  0.2099 -0.3878 -0.4353
  717MOL0     C96716   5.217   8.390   0.947  0.4399 -0.7742  0.5554
  717MOL0     C96717   5.316   8.332   1.026 -0.4696  0.1783  0.2711
  717MOL0     O96718   5.448   8.346   0.992  0.3760  0.2422  0.4803
  717MOL0     C96719   5.521   8.431   1.082 -0.1966 -0.9877  0.7004
  717MOL0     C96720   5.671   8.396   1.082  1.1593  0.0238 -0.7593
  717MOL0     C96721   5.757   8.522   1.101  0.0035 -0.1104 -0.5491
  717MOL0     C96722   5.903   8.474   1.119 -0.2285 -0.9804 -0.6780
  717MOL0     C96723   5.957   8.428   0.998 -0.1322  0.8465 -0.2544
  717MOL0     C96724   5.996   8.383   0.893 -1.7376  0.5918  0.3260
  717MOL0     C96725   5.284   8.261   1.140 -0.3934 -0.8495  0.1294
  717MOL0     C96726   5.145   8.242   1.182 -0.0545 -0.1376 -0.5858
  717MOL0     C96727   5.121   8.155   1.302 -0.8110  0.3371 -0.5399
  717MOL0     H96728   4.672   8.092   1.185  1.9949  1.9134  0.5168
  717MOL0     H96729   4.445   8.109   1.265  0.7300  0.8143  0.5034
  717MOL0     H96730   4.109   8.271   1.333  0.4225  2.4703 -1.7408
  717MOL0     H96731   4.221   8.139   1.325  2.8741  0.9789  1.8047
  717MOL0     H96732   4.381   8.319   1.433 -0.8781 -1.6318 -1.6685
  717MOL0     H96733   4.245   8.267   1.529  3.2277 -3.6826 -1.0054
  717MOL0     H96734   4.119   8.472   1.443 -1.1145  0.7643 -3.5175
  717MOL0     H96735   4.253   8.510   1.332  0.6124 -1.5329  0.6810
  717MOL0     H96736   4.297   8.485   1.630 -1.9603  3.0859  2.0517
  717MOL0     H96737   4.414   8.556   1.519  0.1438 -0.2997 -1.2222
  717MOL0     H96738   4.228   8.731   1.460 -4.4542  1.0864  1.0413
  717MOL0     H96739   4.144   8.661   1.584 -1.1567  0.1788 -2.0152
  717MOL0     H96740   4.367   8.709   1.732  0.8675  0.0439  1.0970
  717MOL0     H96741   4.415   8.820   1.609  1.7538 -2.7395  0.3163
  717MOL0     H96742   4.129   8.836   1.735 -0.8589  1.1763  1.4586
  717MOL0     H96743   4.228   8.949   1.636 -5.1075  1.2019  2.1992
  717MOL0     H96744   4.283   8.854   1.922  0.4406  0.0471  0.7389
  717MOL0     H96745   4.402   8.929   1.830  0.0264 -1.9699 -0.7275
  717MOL0     H96746   4.194   9.181   1.684  0.3831 -1.5254 -0.7309
  717MOL0     H96747   4.113   9.403   1.740  0.9557 -2.0228 -0.6470
  717MOL0     H96748   3.979   9.378   1.852 -0.0747 -0.2806 -0.9571
  717MOL0     H96749   4.269   9.452   1.943 -0.5962 -1.1807 -0.7262
  717MOL0     H96750   4.152   9.581   1.903  0.3121 -0.1753  0.6828
  717MOL0     H96751   4.088   9.393   2.138  3.6653 -0.6787  0.9751
  717MOL0     H96752   4.015   9.547   2.094 -0.2445  0.1913 -1.4134
  717MOL0     H96753   4.294   9.482   2.191  0.7255  1.2107  0.6352
  717MOL0     H96754   4.161   9.559   2.282  0.4673  0.7091  0.8669
  717MOL0     H96755   4.435   9.660   2.359 -2.4407 -2.3341 -2.9755
  717MOL0     H96756   4.453   9.833   2.505 -0.2399 -1.5233 -0.3993
  717MOL0     H96757   4.650  10.010   2.729 -0.3441  0.3555  0.1280
  717MOL0     H96758   4.732  10.118   2.934  1.4936 -2.5216 -1.0552
  717MOL0     H96759   4.771  10.416   3.052  0.4601  1.0527  2.7367
  717MOL0     H96760   4.621  10.479   2.984  0.5428 -1.0925 -2.3921
  717MOL0     H96761   4.678  10.576   3.201  2.6021 -1.7561  0.0530
  717MOL0     H96762   4.520  10.482   3.210 -1.1086 -0.4725 -1.9941
  717MOL0     H96763   4.661  10.301   3.338  1.7861 -1.3783 -1.3873
  717MOL0     H96764   4.804  10.396   3.289  1.2486 -0.8841  2.2718
  717MOL0     H96765   4.596  10.518   3.479 -1.3959 -0.1200 -4.2430
  717MOL0     H96766   4.755  10.573   3.432  0.2932 -0.4677  0.9193
  717MOL0     H96767   4.871  10.386   3.530  0.7700  3.4930 -0.0194
  717MOL0     H96768   4.725  10.301   3.587 -0.5077 -0.3399  0.0440
  717MOL0     H96769   4.838  10.437   3.767  0.7907  1.4948  0.2275
  717MOL0     H96770   4.869  10.572   3.656 -2.5340  3.7014  2.8637
  717MOL0     H96771   4.605  10.466   3.774  4.0428 -2.5607  2.6522
  717MOL0     H96772   4.625  10.612   3.667  1.1437  0.9257  0.5421
  717MOL0     H96773   4.602  10.704   3.865  0.4653  0.1135 -1.2494
  717MOL0     H96774   4.685  10.567   3.950 -1.5680  0.5423  0.4922
  717MOL0     H96775   4.370  10.351   2.957 -0.8325 -1.4789  1.2876
  717MOL0     H96776   4.286  10.266   2.746  0.0333  0.4032 -1.8912
  717MOL0     H96777   4.232  10.110   2.269 -1.1957 -0.6972 -1.4962
  717MOL0     H96778   4.196   9.907   2.101 -2.2101 -0.7137  0.7585
  717MOL0     H96779   4.399   8.480   1.044  0.2072 -1.0119 -0.8982
  717MOL0     H96780   4.618   8.483   0.997  1.3454  2.9283  3.4376
  717MOL0     H96781   4.997   8.427   0.939  0.1189 -1.3317 -1.2481
  717MOL0     H96782   5.250   8.441   0.857 -0.1511 -1.8537 -0.3121
  717MOL0     H96783   5.474   8.450   1.179  2.2932  1.7542  1.5153
  717MOL0     H96784   5.520   8.531   1.040  1.9330 -0.8359  0.9209
  717MOL0     H96785   5.694   8.354   0.983  1.2384  2.1424 -1.6962
  717MOL0     H96786   5.670   8.315   1.155 -1.9061 -0.3316 -1.0589
  717MOL0     H96787   5.734   8.570   1.196 -0.5768  4.4602 -2.7559
  717MOL0     H96788   5.743   8.595   1.021 -1.8015  0.7522  0.4827
  717MOL0     H96789   5.964   8.561   1.145 -1.1769 -0.4028 -0.3247
  717MOL0     H96790   5.909   8.399   1.198 -0.2729  1.6610  2.0225
  717MOL0     H96791   6.027   8.349   0.796 -2.9935 -2.5018  0.8857
  717MOL0     H96792   5.362   8.214   1.199 -1.8378 -4.1938 -0.3962
  717MOL0     H96793   5.065   8.064   1.275  0.1888 -0.0525 -1.3664
  717MOL0     H96794   5.218   8.126   1.343  2.3498  3.4967 -4.8913
  717MOL0     H96795   5.053   8.191   1.380 -1.2601 -1.3269 -0.1204
  718MOL0     O96796   6.483   1.343   1.479 -0.4786 -0.4382 -0.3042
  718MOL0     C96797   6.504   1.353   1.361  0.6788  0.0291  0.0009
  718MOL0     O96798   6.612   1.419   1.303  1.1145  0.1459 -0.8196
  718MOL0     C96799   6.684   1.491   1.391 -0.2900 -0.0876  0.7845
  718MOL0     C96800   6.632   1.610   1.455 -0.6303 -0.2508  0.9917
  718MOL0     C96801   6.706   1.678   1.548  0.0011  0.8590 -0.5424
  718MOL0     C96802   6.840   1.651   1.566  0.3792  0.6699 -0.0484
  718MOL0     O96803   6.910   1.717   1.659 -0.4444  0.8682  0.0207
  718MOL0     C96804   6.911   1.657   1.788 -0.4673 -0.0611 -0.1456
  718MOL0     C96805   7.038   1.694   1.858 -0.4163  0.1771  0.2351
  718MOL0     C96806   7.029   1.668   2.007 -0.8420 -1.1394  0.0969
  718MOL0     C96807   7.165   1.664   2.078  0.4624 -0.0014 -1.1299
  718MOL0     C96808   7.154   1.612   2.225 -0.4891  0.6008  0.3406
  718MOL0     C96809   7.297   1.595   2.278  0.1949 -0.0657  0.0852
  718MOL0     C96810   7.336   1.727   2.324 -0.8342 -0.1530 -0.9942
  718MOL0     C96811   7.459   1.730   2.415 -0.3605  0.0823 -0.0286
  718MOL0     N96812   7.443   1.658   2.543  0.1274 -0.1277  0.5558
  718MOL0     C96813   7.533   1.561   2.585 -0.2272 -0.9291 -0.3494
  718MOL0     C96814   7.473   1.500   2.695  0.2007  0.0848 -0.9775
  718MOL0     C96815   7.516   1.379   2.768 -0.2921 -0.0906  0.4089
  718MOL0     C96816   7.617   1.289   2.695 -0.2511  0.2566  0.7763
  718MOL0     C96817   7.635   1.174   2.796 -0.9419  0.1131  0.5482
  718MOL0     C96818   7.763   1.111   2.771 -0.2513 -0.0981 -0.7766
  718MOL0     O96819   7.767   1.051   2.639 -0.2806  0.4194 -0.3192
  718MOL0     C96820   7.883   0.989   2.610  0.0472 -0.2163  0.9733
  718MOL0     C96821   7.898   0.928   2.486  0.5589 -0.5467  0.3481
  718MOL0     C96822   8.012   0.868   2.443  0.3680 -0.6391 -0.7150
  718MOL0     C96823   8.125   0.863   2.521 -0.3857 -0.4223  0.1419
  718MOL0     C96824   8.235   0.788   2.470 -0.2961  1.5515 -0.4355
  718MOL0     O96825   8.242   0.759   2.336 -0.4146  0.3077 -0.2261
  718MOL0     C96826   8.317   0.656   2.277  0.7422 -0.4794 -0.5151
  718MOL0     C96827   8.382   0.560   2.358  1.9932 -0.3419  0.7532
  718MOL0     C96828   8.469   0.466   2.287 -0.6757 -0.5336 -0.3116
  718MOL0     C96829   8.494   0.478   2.146  0.1830 -0.0914 -0.6511
  718MOL0     O96830   8.580   0.406   2.065  0.4328  0.0354  0.0550
  718MOL0     C96831   8.698   0.351   2.126  0.5581  0.0057  0.0630
  718MOL0     C96832   8.787   0.461   2.197  0.9345  0.4250  1.3018
  718MOL0     C96833   8.900   0.392   2.259 -0.5684 -0.1264 -0.1898
  718MOL0     C96834   9.011   0.478   2.336  0.2302 -0.9648  0.0112
  718MOL0     C96835   9.092   0.374   2.426  0.4515  0.2391 -0.1689
  718MOL0     C96836   9.224   0.435   2.493 -0.9517 -0.0577 -0.2812
  718MOL0     C96837   9.273   0.351   2.607 -1.0139 -0.2195 -0.1395
  718MOL0     C96838   9.286   0.201   2.585  0.2803 -0.6342  0.6405
  718MOL0    Cl96839   9.430   0.168   2.496 -0.2533  0.1840  0.2130
  718MOL0     C96840   8.418   0.573   2.070 -0.2277  0.1245  0.6218
  718MOL0     C96841   8.330   0.656   2.140 -0.8016 -0.3846  0.6060
  718MOL0     O96842   8.320   0.760   2.552 -0.0490  0.2553 -0.0963
  718MOL0     C96843   8.122   0.913   2.655 -0.4830  0.1784 -0.4739
  718MOL0     C96844   8.003   0.986   2.690 -1.4560 -0.2336 -0.2526
  718MOL0     N96845   7.364   1.573   2.716 -0.0641  0.1006  0.2546
  718MOL0     N96846   7.349   1.665   2.635  0.5489 -0.3669 -0.8269
  718MOL0     C96847   6.900   1.536   1.501 -0.3212 -1.1296  0.6217
  718MOL0     C96848   6.820   1.473   1.406  0.0092 -0.2448 -0.3481
  718MOL0     C96849   6.396   1.310   1.267 -0.1232  0.3034 -0.6376
  718MOL0     C96850   6.388   1.363   1.134  0.8584  0.7905 -0.0277
  718MOL0     C96851   6.286   1.334   1.042 -0.5260  0.4313 -0.6402
  718MOL0     C96852   6.198   1.222   1.070  0.5505  0.7958 -0.2255
  718MOL0     O96853   6.104   1.166   0.982  0.4029 -0.3386 -0.1896
  718MOL0     C96854   6.086   1.224   0.848 -0.7139 -0.7925 -0.3573
  718MOL0     C96855   6.194   1.192   0.743 -1.7424  0.0515 -0.2705
  718MOL0     C96856   6.164   1.070   0.655 -0.0763  0.4979 -0.1213
  718MOL0     C96857   6.154   0.945   0.746 -0.6349  0.2161  0.1458
  718MOL0     C96858   6.213   0.830   0.679 -0.8002  0.5904 -0.0477
  718MOL0     C96859   6.240   0.723   0.618 -0.6743  0.4769 -0.2308
  718MOL0     C96860   6.221   1.153   1.190 -0.4843  0.8752 -0.4425
  718MOL0     C96861   6.309   1.204   1.289  0.0585 -0.5735 -0.5221
  718MOL0     C96862   6.310   1.114   1.411  0.0486 -0.0358  0.3191
  718MOL0     H96863   6.526   1.633   1.457 -0.8420 -0.7294 -1.4617
  718MOL0     H96864   6.660   1.754   1.610  0.6573  0.8414 -0.0252
  718MOL0     H96865   6.824   1.690   1.846 -0.6646 -2.1330  0.8294
  718MOL0     H96866   6.896   1.549   1.774  1.1131  0.0659 -4.0004
  718MOL0     H96867   7.041   1.801   1.837  3.3220 -0.0572 -1.2685
  718MOL0     H96868   7.128   1.648   1.815 -0.3302 -1.3677  1.9292
  718MOL0     H96869   7.005   1.564   2.033  0.5502 -0.9711  2.2672
  718MOL0     H96870   6.957   1.731   2.060  1.0798  0.5474  0.8123
  718MOL0     H96871   7.226   1.595   2.018 -0.5395 -1.5598 -0.4303
  718MOL0     H96872   7.213   1.762   2.067  0.5253 -0.0378 -1.1820
  718MOL0     H96873   7.084   1.680   2.275 -1.3070 -0.3687  0.5667
  718MOL0     H96874   7.115   1.510   2.214 -0.5786  0.5941  0.7122
  718MOL0     H96875   7.284   1.525   2.361 -4.4220 -0.3955 -0.6108
  718MOL0     H96876   7.368   1.554   2.206  1.3692 -1.7436  2.0840
  718MOL0     H96877   7.263   1.768   2.394  1.1553 -2.0352  2.4820
  718MOL0     H96878   7.355   1.790   2.236  1.4052  0.2215 -0.3227
  718MOL0     H96879   7.548   1.676   2.382 -1.3003 -1.3896 -0.2241
  718MOL0     H96880   7.478   1.836   2.434 -2.2412  0.7962 -1.7717
  718MOL0     H96881   7.629   1.527   2.547 -0.5211 -0.4758 -1.5685
  718MOL0     H96882   7.545   1.410   2.868 -0.9414  2.4259 -0.1021
  718MOL0     H96883   7.427   1.319   2.790  1.5860 -1.7696  4.3630
  718MOL0     H96884   7.566   1.252   2.606 -0.8447 -0.5644  1.4470
  718MOL0     H96885   7.707   1.347   2.670 -1.2027  0.4081 -2.9065
  718MOL0     H96886   7.554   1.101   2.786 -0.3425 -0.2626 -2.2828
  718MOL0     H96887   7.637   1.218   2.897 -0.6420  2.5093 -0.4302
  718MOL0     H96888   7.780   1.032   2.845  0.9593  1.8823  1.1900
  718MOL0     H96889   7.846   1.181   2.783 -0.8245  0.2664  1.4818
  718MOL0     H96890   7.825   0.930   2.405  2.1405 -2.5954 -1.2490
  718MOL0     H96891   8.010   0.831   2.341  1.3011 -1.1873 -0.5463
  718MOL0     H96892   8.362   0.534   2.462 -1.2790 -0.8192  0.1008
  718MOL0     H96893   8.523   0.390   2.341 -1.0130 -1.1770 -0.8598
  718MOL0     H96894   8.669   0.285   2.208 -2.5702  2.9032  1.4938
  718MOL0     H96895   8.762   0.299   2.054 -0.2334  0.9065 -1.3356
  718MOL0     H96896   8.828   0.536   2.129 -0.9780  0.3848  0.0428
  718MOL0     H96897   8.733   0.520   2.271 -1.8065 -2.4696  1.8032
  718MOL0     H96898   8.861   0.313   2.324  1.0085 -4.1599 -3.6947
  718MOL0     H96899   8.947   0.324   2.187 -1.8372 -1.1852 -0.0546
  718MOL0     H96900   8.949   0.544   2.397 -5.9030 -4.0673 -2.0469
  718MOL0     H96901   9.078   0.535   2.270 -1.7455 -0.5705 -1.7717
  718MOL0     H96902   9.111   0.300   2.348 -2.1236  1.7992 -2.4838
  718MOL0     H96903   9.023   0.338   2.502 -0.6141  2.2806 -0.0816
  718MOL0     H96904   9.305   0.448   2.421  1.4234  1.4751  2.4277
  718MOL0     H96905   9.193   0.534   2.530 -1.7252  0.0821 -1.2615
  718MOL0     H96906   9.208   0.364   2.694  2.2940  1.3694  2.2968
  718MOL0     H96907   9.372   0.385   2.641  1.4420 -1.8598 -4.7837
  718MOL0     H96908   9.298   0.157   2.684 -3.2051 -0.6651  1.1786
  718MOL0     H96909   9.195   0.161   2.540  1.0309 -1.8322  0.1307
  718MOL0     H96910   8.418   0.578   1.962 -0.1223  1.0219  0.6546
  718MOL0     H96911   8.279   0.733   2.083 -2.7924 -2.3229 -0.3975
  718MOL0     H96912   8.208   0.903   2.720 -1.3041 -1.1028  0.4872
  718MOL0     H96913   8.013   1.027   2.790 -0.5691 -1.6348  0.2616
  718MOL0     H96914   7.004   1.507   1.518  0.2365  0.1967 -0.3527
  718MOL0     H96915   6.872   1.391   1.358  1.7023  0.4907  0.1444
  718MOL0     H96916   6.458   1.443   1.112 -0.8219  2.7292  1.2189
  718MOL0     H96917   6.293   1.400   0.956  2.4086  3.0972  1.4323
  718MOL0     H96918   6.087   1.331   0.870 -0.5936 -0.6514 -1.0203
  718MOL0     H96919   5.990   1.196   0.803 -0.2827  1.7889 -3.2230
  718MOL0     H96920   6.290   1.172   0.792 -0.6347  2.3414 -1.3477
  718MOL0     H96921   6.210   1.286   0.689  2.8935 -0.0291  0.5029
  718MOL0     H96922   6.221   1.046   0.565 -0.2456 -0.0307 -0.0899
  718MOL0     H96923   6.066   1.097   0.616  1.6087  3.0505 -3.0089
  718MOL0     H96924   6.210   0.953   0.839  0.4725 -0.0752 -0.4783
  718MOL0     H96925   6.048   0.933   0.771 -0.3605 -1.8120  0.5247
  718MOL0     H96926   6.264   0.645   0.548  0.4790 -1.9841  2.6801
  718MOL0     H96927   6.151   1.070   1.200  1.3258 -0.7172 -0.4127
  718MOL0     H96928   6.301   1.007   1.391 -1.1096 -0.1044  1.1027
  718MOL0     H96929   6.397   1.122   1.477 -0.5780 -0.7775  1.2481
  718MOL0     H96930   6.224   1.148   1.469 -1.2090 -0.7094 -1.0872
  719MOL0     O96931   6.783  10.820  11.006 -0.4044 -0.3547 -0.0486
  719MOL0     C96932   6.681  10.887  10.995  0.8130 -0.6143  0.1260
  719MOL0     O96933   6.663  10.994  10.905 -0.6950  0.4184  0.5046
  719MOL0     C96934   6.766  11.024  10.813 -0.0370  0.4581 -1.0256
  719MOL0     C96935   6.794  11.156  10.788 -0.7147 -0.5067  0.4591
  719MOL0     C96936   6.896  11.198  10.700  0.5161  0.2963  1.0526
  719MOL0     C96937   6.968  11.101  10.633 -0.1439  0.5604  0.5766
  719MOL0     O96938   7.079  11.129  10.548 -0.1309 -0.2893 -0.1453
  719MOL0     C96939   7.114  11.260  10.505 -0.4822  0.9562  0.5360
  719MOL0     C96940   7.240  11.264  10.433 -0.6154 -0.4433  1.0071
  719MOL0     C96941   7.271  11.410  10.391  1.0357  0.0187  0.3147
  719MOL0     C96942   7.376  11.420  10.286 -0.0898 -0.3499  0.5014
  719MOL0     C96943   7.362  11.549  10.210 -0.1319 -0.0964 -0.5787
  719MOL0     C96944   7.367  11.683  10.295 -0.0665  0.4880 -0.1079
  719MOL0     C96945   7.320  11.791  10.198 -0.4459  0.6408  0.0519
  719MOL0     C96946   7.304  11.921  10.273  0.7618 -0.1165  0.0602
  719MOL0     N96947   7.216  12.010  10.199 -0.1924  0.5058 -0.4325
  719MOL0     C96948   7.212  12.022  10.063 -0.0151 -0.1559 -1.0149
  719MOL0     C96949   7.093  12.076  10.034 -0.0052  0.3568  0.4636
  719MOL0     C96950   7.062  12.114   9.891  0.3628  0.4375  0.3704
  719MOL0     C96951   7.158  12.224   9.843  1.1079  1.1570  0.5046
  719MOL0     C96952   7.165  12.358   9.926 -0.5342  0.3710 -0.3000
  719MOL0     C96953   7.284  12.440   9.867 -0.2929 -0.2664  0.2259
  719MOL0     O96954   7.410  12.384   9.915 -0.0764 -0.9376 -0.2454
  719MOL0     C96955   7.462  12.408  10.034 -0.3059  0.3288 -0.9852
  719MOL0     C96956   7.410  12.487  10.129  0.7434  1.3321  0.3290
  719MOL0     C96957   7.477  12.513  10.250 -0.1287  0.5359 -1.0297
  719MOL0     C96958   7.604  12.460  10.278  0.1178  0.2258  0.6413
  719MOL0     C96959   7.666  12.500  10.409  0.6507  0.8564 -0.3476
  719MOL0     O96960   7.587  12.564  10.497 -0.9657 -0.1467 -0.4853
  719MOL0     C96961   7.628  12.587  10.624  0.1188 -0.0532 -0.0333
  719MOL0     C96962   7.707  12.500  10.700  0.1944 -0.3325  0.3016
  719MOL0     C96963   7.715  12.514  10.838  2.1390 -0.1218  0.6415
  719MOL0     C96964   7.662  12.634  10.898 -0.7255 -1.2472 -0.3862
  719MOL0     O96965   7.638  12.645  11.032 -0.1618  0.3381  0.3126
  719MOL0     C96966   7.750  12.604  11.118 -0.4681  1.0716  0.0831
  719MOL0     C96967   7.703  12.505  11.219  0.0899  0.8751 -0.7029
  719MOL0     C96968   7.807  12.471  11.329  0.3942  0.0584 -0.0802
  719MOL0     C96969   7.772  12.366  11.433 -0.6215  0.1236 -0.2780
  719MOL0     C96970   7.709  12.234  11.374  0.0250 -0.2075 -1.4715
  719MOL0     C96971   7.672  12.142  11.492 -0.6137  0.5997  0.2894
  719MOL0     C96972   7.659  12.001  11.428 -1.1028  0.3984 -0.1288
  719MOL0     C96973   7.783  11.917  11.424 -0.5778  0.1124 -0.0332
  719MOL0    Cl96974   7.859  11.872  11.586 -0.1772 -0.6996  0.1331
  719MOL0     C96975   7.602  12.727  10.819 -0.0327 -0.4219  0.0266
  719MOL0     C96976   7.573  12.697  10.684  0.1837 -0.3642  0.9403
  719MOL0     O96977   7.781  12.465  10.430  0.2679  0.3225 -0.6002
  719MOL0     C96978   7.657  12.375  10.187 -0.3931  0.7568 -0.0929
  719MOL0     C96979   7.585  12.343  10.067  0.1934 -0.1363  0.0769
  719MOL0     N96980   7.024  12.095  10.156 -0.8056  0.1381  0.8040
  719MOL0     N96981   7.108  12.072  10.258 -0.2703  0.5571  0.3088
  719MOL0     C96982   6.929  10.956  10.649 -0.1191  0.6923  0.5080
  719MOL0     C96983   6.824  10.926  10.737  1.3963 -0.1500 -0.0839
  719MOL0     C96984   6.572  10.864  11.087 -0.2006  1.0935  0.5459
  719MOL0     C96985   6.451  10.925  11.055 -0.3135  0.1891  0.1305
  719MOL0     C96986   6.338  10.903  11.129  0.5756  0.1376 -0.0546
  719MOL0     C96987   6.339  10.826  11.243 -0.7560  1.1027  1.2348
  719MOL0     O96988   6.227  10.815  11.316  0.4120 -0.2246 -1.9323
  719MOL0     C96989   6.155  10.927  11.366 -0.2565  1.1878 -0.4113
  719MOL0     C96990   6.020  10.874  11.406  0.3004  0.9369 -0.6997
  719MOL0     C96991   5.998  10.821  11.548  0.3591 -0.0334 -0.7029
  719MOL0     C96992   5.868  10.753  11.580 -0.5203 -0.4074 -0.2213
  719MOL0     C96993   5.865  10.618  11.522 -0.4034  0.0119  0.1624
  719MOL0     C96994   5.862  10.504  11.470 -0.1715 -0.3260 -0.3578
  719MOL0     C96995   6.457  10.760  11.284  1.4931  0.7190  0.0996
  719MOL0     C96996   6.573  10.775  11.195  0.2630 -1.0872  0.0316
  719MOL0     C96997   6.700  10.712  11.253  0.6086 -0.3845 -0.3175
  719MOL0     H96998   6.736  11.220  10.853  0.2563 -0.9090  1.7761
  719MOL0     H96999   6.929  11.301  10.698  0.2028  0.3972 -1.2405
  719MOL0     H97000   7.024  11.297  10.456  0.1811  1.0336 -0.6404
  719MOL0     H97001   7.119  11.332  10.588  0.3528 -0.3974  1.7054
  719MOL0     H97002   7.230  11.198  10.346  0.3496 -1.4250  1.6161
  719MOL0     H97003   7.322  11.240  10.501 -0.1099  0.0637  0.5879
  719MOL0     H97004   7.306  11.472  10.474  0.6517 -0.9566  1.2305
  719MOL0     H97005   7.187  11.464  10.347  2.3835  0.4522 -1.8840
  719MOL0     H97006   7.476  11.421  10.331 -0.8098 -0.7174  2.1725
  719MOL0     H97007   7.361  11.325  10.232  2.3292 -0.2341 -0.5180
  719MOL0     H97008   7.450  11.553  10.145 -0.7597  2.0188 -1.3985
  719MOL0     H97009   7.287  11.549  10.131  2.1810  2.2697 -2.9689
  719MOL0     H97010   7.312  11.666  10.388  0.4817  0.4787  0.2203
  719MOL0     H97011   7.467  11.705  10.332 -0.5584 -1.3984  2.6424
  719MOL0     H97012   7.220  11.762  10.165 -0.8990  0.3223  1.6109
  719MOL0     H97013   7.392  11.790  10.116 -2.6999 -0.2989 -2.0291
  719MOL0     H97014   7.272  11.907  10.376  1.2011 -2.4929 -0.0527
  719MOL0     H97015   7.403  11.965  10.287 -0.1133  1.9356  0.0543
  719MOL0     H97016   7.285  12.000   9.985 -0.0808 -0.1122 -1.0900
  719MOL0     H97017   7.065  12.037   9.814  2.6869  2.0551 -1.2979
  719MOL0     H97018   6.959  12.151   9.891  1.5272  4.2038  1.7974
  719MOL0     H97019   7.254  12.172   9.853 -0.6280 -2.5001 -0.3130
  719MOL0     H97020   7.139  12.249   9.738 -0.3093 -0.4733  0.3171
  719MOL0     H97021   7.168  12.337  10.034  1.4912  1.4725 -0.1018
  719MOL0     H97022   7.066  12.399   9.904 -1.0045  0.2773  1.4937
  719MOL0     H97023   7.294  12.547   9.886 -2.1781  0.4465 -2.3037
  719MOL0     H97024   7.284  12.448   9.758  1.3405 -2.0025  0.0458
  719MOL0     H97025   7.312  12.521  10.098  0.7667 -0.5400 -2.1916
  719MOL0     H97026   7.429  12.579  10.321  1.9745  0.5604  0.4661
  719MOL0     H97027   7.744  12.413  10.646  0.5480  1.6986 -2.9972
  719MOL0     H97028   7.762  12.434  10.894  1.7261 -2.1828 -1.7995
  719MOL0     H97029   7.825  12.554  11.056 -0.3607  1.5607 -0.1812
  719MOL0     H97030   7.780  12.698  11.164  1.7941  0.1419  0.6386
  719MOL0     H97031   7.613  12.553  11.258 -0.2659  1.1136 -1.7724
  719MOL0     H97032   7.669  12.417  11.163  0.3555  0.4370 -0.1907
  719MOL0     H97033   7.900  12.443  11.278 -0.4017  0.2272 -1.6908
  719MOL0     H97034   7.826  12.566  11.380 -0.2045 -0.1073  0.4661
  719MOL0     H97035   7.700  12.412  11.501  1.4382  0.5514  1.7094
  719MOL0     H97036   7.863  12.351  11.491 -1.1755 -0.8027  0.3886
  719MOL0     H97037   7.791  12.181  11.324 -1.1115 -2.3487 -1.2010
  719MOL0     H97038   7.623  12.253  11.310 -1.2024 -0.1403  0.1315
  719MOL0     H97039   7.742  12.139  11.576  0.1514 -1.2714 -0.3750
  719MOL0     H97040   7.572  12.152  11.536 -1.2404 -2.4818 -0.2107
  719MOL0     H97041   7.616  12.004  11.328  2.3011  0.1670 -1.7017
  719MOL0     H97042   7.596  11.937  11.491 -0.5272  2.0504  2.2712
  719MOL0     H97043   7.746  11.831  11.367 -1.5508 -1.8704  3.2514
  719MOL0     H97044   7.854  11.959  11.352  0.4814 -2.5238 -0.6821
  719MOL0     H97045   7.547  12.816  10.848 -2.5770 -1.3506 -1.6171
  719MOL0     H97046   7.519  12.762  10.617 -1.5400  1.0517  3.5156
  719MOL0     H97047   7.760  12.348  10.209 -1.2295 -0.2782  3.1385
  719MOL0     H97048   7.635  12.287   9.989  1.0616 -1.5983  1.5974
  719MOL0     H97049   6.984  10.873  10.606  1.7979  2.5558 -0.8544
  719MOL0     H97050   6.780  10.829  10.757 -0.7839  0.1255 -2.8859
  719MOL0     H97051   6.440  10.993  10.971 -1.6639  0.1226  0.2383
  719MOL0     H97052   6.247  10.950  11.092  1.3838 -0.2015 -2.6503
  719MOL0     H97053   6.141  11.009  11.296 -0.6034 -0.5327 -2.4816
  719MOL0     H97054   6.208  10.952  11.458  1.5370 -0.8951 -0.7878
  719MOL0     H97055   5.997  10.804  11.325 -1.0431  1.8551 -1.1540
  719MOL0     H97056   5.948  10.957  11.408 -2.9571 -1.6687  2.3177
  719MOL0     H97057   6.024  10.895  11.624  3.2874  0.5128 -2.0873
  719MOL0     H97058   6.076  10.745  11.553  1.0823  0.6382 -1.5253
  719MOL0     H97059   5.855  10.756  11.689  1.7361  0.5585  0.0687
  719MOL0     H97060   5.789  10.803  11.522  1.3686  0.9866 -1.7246
  719MOL0     H97061   5.864  10.413  11.414 -0.1101 -1.9264  2.1174
  719MOL0     H97062   6.455  10.692  11.369  1.5019  0.8164  0.1770
  719MOL0     H97063   6.771  10.792  11.277 -1.6472  1.8801 -0.8054
  719MOL0     H97064   6.676  10.655  11.343  0.1748 -3.0619 -2.0246
  719MOL0     H97065   6.736  10.634  11.185 -2.6561 -0.9581 -1.5825
  720MOL0     O97066   0.080   0.764   6.073  0.0417  0.5681  0.2908
  720MOL0     C97067   0.059   0.746   5.955 -0.3686  0.6767 -0.3161
  720MOL0     O97068   0.142   0.791   5.849 -0.0785 -0.2108 -0.3653
  720MOL0     C97069   0.257   0.858   5.876 -1.0380 -0.8956  0.6054
  720MOL0     C97070   0.380   0.797   5.830 -1.1641 -0.6749  0.4947
  720MOL0     C97071   0.502   0.871   5.834  0.9280  0.6893 -0.1734
  720MOL0     C97072   0.496   0.996   5.896 -0.5262 -0.6411  0.3072
  720MOL0     O97073   0.591   1.087   5.899 -0.9812 -0.2826 -0.3656
  720MOL0     C97074   0.725   1.053   5.874  0.2147 -0.4724 -0.0889
  720MOL0     C97075   0.805   1.168   5.933 -0.3722 -0.2756  0.4832
  720MOL0     C97076   0.783   1.297   5.862 -0.9604 -0.1361  0.0863
  720MOL0     C97077   0.864   1.416   5.924 -0.4607  0.0204  0.4870
  720MOL0     C97078   0.821   1.549   5.859  0.0088 -0.3013  0.3965
  720MOL0     C97079   0.891   1.660   5.932 -0.7281  0.8958  0.3114
  720MOL0     C97080   0.898   1.779   5.839  0.0508 -0.5333 -0.9410
  720MOL0     C97081   0.984   1.900   5.896  1.2074 -0.0429  0.2181
  720MOL0     N97082   1.131   1.871   5.893 -0.1301 -0.2194  0.2168
  720MOL0     C97083   1.212   1.885   5.773 -0.6223 -1.1834  0.8935
  720MOL0     C97084   1.333   1.822   5.799  1.1721 -0.9428 -0.7484
  720MOL0     C97085   1.462   1.821   5.720 -0.6779  0.1103 -0.7537
  720MOL0     C97086   1.463   1.895   5.583  0.1182 -0.0538 -0.3636
  720MOL0     C97087   1.386   1.813   5.480  0.4749  0.5200 -0.3528
  720MOL0     C97088   1.382   1.885   5.346  0.1813  0.5952  0.6385
  720MOL0     O97089   1.299   2.012   5.342  0.6323  0.6428  0.0348
  720MOL0     C97090   1.175   2.026   5.397  0.3865  0.2570 -0.5175
  720MOL0     C97091   1.082   1.927   5.399 -0.4414 -0.0082 -0.2174
  720MOL0     C97092   0.966   1.945   5.472  0.4984 -0.2778 -0.3893
  720MOL0     C97093   0.937   2.069   5.542  0.5449  0.0419  0.6383
  720MOL0     C97094   0.818   2.086   5.627  0.8229  0.1878 -0.0006
  720MOL0     O97095   0.777   2.213   5.666  0.7425 -0.6318  0.1117
  720MOL0     C97096   0.669   2.217   5.747 -0.2499  0.0222 -0.1180
  720MOL0     C97097   0.687   2.233   5.890  1.0887  0.1068 -0.6706
  720MOL0     C97098   0.577   2.217   5.973 -0.2715  0.5280  0.3603
  720MOL0     C97099   0.451   2.196   5.921  0.0196  0.6440 -0.2940
  720MOL0     O97100   0.353   2.180   6.015  0.1058  0.1955  0.8448
  720MOL0     C97101   0.214   2.193   5.982  0.2956 -0.3326  0.0262
  720MOL0     C97102   0.132   2.188   6.106  0.9843  0.0471  0.0632
  720MOL0     C97103   0.002   2.118   6.095 -0.5518  0.5369  0.1449
  720MOL0     C97104  -0.098   2.181   6.001  1.3621 -1.0936 -0.8675
  720MOL0     C97105  -0.246   2.137   6.014 -0.0201 -0.0147  0.8673
  720MOL0     C97106  -0.255   1.985   5.970 -0.3589 -0.9256 -0.3195
  720MOL0     C97107  -0.391   1.936   5.961  1.0631 -2.1789 -0.6722
  720MOL0     C97108  -0.411   1.797   5.929 -0.2144 -0.0488 -0.6029
  720MOL0    Cl97109  -0.386   1.692   6.077  0.3427  0.3857 -0.2419
  720MOL0     C97110   0.437   2.163   5.784 -0.7029 -0.2379 -0.2085
  720MOL0     C97111   0.544   2.188   5.699  0.2560  0.0558 -0.3792
  720MOL0     O97112   0.758   1.978   5.654  0.4741 -0.4037  0.1479
  720MOL0     C97113   1.036   2.170   5.534 -0.1568  1.0714 -0.2994
  720MOL0     C97114   1.148   2.145   5.456 -0.3402  0.2156  0.1450
  720MOL0     N97115   1.323   1.761   5.925 -1.2926 -0.6148 -0.2408
  720MOL0     N97116   1.205   1.798   5.982  0.0186 -0.5161 -0.1209
  720MOL0     C97117   0.384   1.042   5.956 -0.0406  0.0725  0.6894
  720MOL0     C97118   0.263   0.974   5.953  0.1514 -0.1620  0.4263
  720MOL0     C97119  -0.072   0.689   5.919  0.5917 -0.6442  0.3861
  720MOL0     C97120  -0.103   0.686   5.780  0.9195  0.1174  0.1809
  720MOL0     C97121  -0.230   0.632   5.742  0.2788  1.4468 -0.3162
  720MOL0     C97122  -0.314   0.571   5.836  0.0421  0.5396  0.5557
  720MOL0     O97123  -0.425   0.515   5.788  0.2093 -0.1228  0.8683
  720MOL0     C97124  -0.468   0.389   5.844  0.7864  0.4744  0.0192
  720MOL0     C97125  -0.432   0.269   5.754  0.1842  0.2682 -0.6894
  720MOL0     C97126  -0.289   0.231   5.797  0.0741 -0.2705  0.5144
  720MOL0     C97127  -0.214   0.132   5.697  0.2491 -0.1144 -1.0145
  720MOL0     C97128  -0.124   0.051   5.777 -0.4423 -0.0990 -0.3885
  720MOL0     C97129  -0.050  -0.023   5.832 -0.3086 -0.5167 -0.9077
  720MOL0     C97130  -0.284   0.574   5.972  0.6447 -1.1084 -0.2753
  720MOL0     C97131  -0.167   0.631   6.011  0.2500 -0.0108 -0.8335
  720MOL0     C97132  -0.132   0.625   6.156  0.0121  0.8507  0.2811
  720MOL0     H97133   0.365   0.706   5.773 -3.4060  0.8344 -1.4975
  720MOL0     H97134   0.594   0.834   5.791  0.1627 -1.4110 -0.1449
  720MOL0     H97135   0.753   0.959   5.923  2.4738 -1.9348 -3.7315
  720MOL0     H97136   0.750   1.039   5.768  0.7658  1.8702 -0.3174
  720MOL0     H97137   0.908   1.131   5.929 -0.0040  0.3990  2.5564
  720MOL0     H97138   0.792   1.190   6.039 -1.1893 -2.7197  0.9585
  720MOL0     H97139   0.678   1.324   5.877 -1.0563 -1.7173  3.1124
  720MOL0     H97140   0.806   1.293   5.755 -2.5161 -5.3583 -0.3610
  720MOL0     H97141   0.846   1.410   6.032 -2.8898  1.1170  0.2294
  720MOL0     H97142   0.969   1.390   5.914 -0.1842  0.9990  0.7124
  720MOL0     H97143   0.850   1.556   5.754 -0.4118  2.1361  0.3793
  720MOL0     H97144   0.713   1.563   5.869  0.3432  0.9904  2.7191
  720MOL0     H97145   0.830   1.674   6.022 -1.7072 -2.7838  0.3721
  720MOL0     H97146   0.990   1.619   5.953 -2.8766 -4.0238  2.5686
  720MOL0     H97147   0.803   1.832   5.839  2.1632  3.9610  1.9823
  720MOL0     H97148   0.930   1.749   5.739  1.0369 -1.2120 -0.4446
  720MOL0     H97149   0.962   1.974   5.818 -1.9577 -1.3648 -0.3265
  720MOL0     H97150   0.941   1.939   5.989 -2.2357  1.0013 -1.6273
  720MOL0     H97151   1.194   1.948   5.686 -0.6770 -1.9360  0.3450
  720MOL0     H97152   1.546   1.854   5.783 -0.8112 -3.4878  1.6420
  720MOL0     H97153   1.484   1.716   5.696 -0.4472  0.3746 -1.7343
  720MOL0     H97154   1.427   1.995   5.608  0.9490 -0.2026  1.5427
  720MOL0     H97155   1.570   1.892   5.560  0.6755  0.5731  1.9441
  720MOL0     H97156   1.285   1.811   5.522  0.0147  1.8013 -1.3250
  720MOL0     H97157   1.448   1.724   5.479  2.3343  1.7466  0.5037
  720MOL0     H97158   1.356   1.817   5.265  1.6448 -0.9500  1.3968
  720MOL0     H97159   1.486   1.911   5.322  0.8332 -2.5777 -0.4761
  720MOL0     H97160   1.108   1.842   5.337  3.7110  2.4021 -2.1562
  720MOL0     H97161   0.902   1.858   5.485 -0.9468  0.4680 -2.1483
  720MOL0     H97162   0.788   2.240   5.927  0.6720 -2.2153  1.1149
  720MOL0     H97163   0.577   2.212   6.082 -0.8984  2.1826  0.4714
  720MOL0     H97164   0.194   2.280   5.918 -2.1017 -2.6537 -2.6779
  720MOL0     H97165   0.191   2.104   5.923 -0.8102  0.4734 -0.8135
  720MOL0     H97166   0.183   2.133   6.185 -4.2358 -1.0126  3.1990
  720MOL0     H97167   0.115   2.294   6.126 -0.8946 -0.1843 -0.0873
  720MOL0     H97168   0.009   2.015   6.057 -4.2529  0.3645 -0.4099
  720MOL0     H97169  -0.048   2.122   6.192 -4.0117 -1.8728 -1.3242
  720MOL0     H97170  -0.060   2.184   5.898  0.6321  0.3949 -1.1256
  720MOL0     H97171  -0.103   2.283   6.041  3.4671 -1.3175  0.1025
  720MOL0     H97172  -0.307   2.197   5.946  2.1639  4.4874  2.4914
  720MOL0     H97173  -0.286   2.147   6.116 -2.3361 -3.3182  0.4542
  720MOL0     H97174  -0.195   1.963   5.881 -0.2927 -2.7921  0.1456
  720MOL0     H97175  -0.208   1.931   6.053  1.7285  0.5732 -0.4457
  720MOL0     H97176  -0.452   1.992   5.890 -1.7949 -0.7423  2.6188
  720MOL0     H97177  -0.425   1.958   6.062 -0.4763  0.4429 -1.6601
  720MOL0     H97178  -0.512   1.772   5.895 -0.4667  0.8223 -0.5009
  720MOL0     H97179  -0.330   1.764   5.863  1.9779 -0.7989  2.2766
  720MOL0     H97180   0.359   2.119   5.723 -0.1153 -0.0081 -1.1539
  720MOL0     H97181   0.523   2.165   5.595 -0.1984 -2.7796  0.2561
  720MOL0     H97182   1.027   2.259   5.595 -0.2756  1.1887 -0.4840
  720MOL0     H97183   1.229   2.217   5.441 -0.2550  0.4468  1.5877
  720MOL0     H97184   0.388   1.131   6.018 -2.0806 -0.3001  1.4550
  720MOL0     H97185   0.164   1.007   5.983 -0.0868 -0.5598  0.0751
  720MOL0     H97186  -0.054   0.725   5.691 -1.4053  0.5373 -0.9850
  720MOL0     H97187  -0.249   0.635   5.635  2.7539  0.5197 -0.8561
  720MOL0     H97188  -0.577   0.384   5.847  0.6396 -0.5056 -3.0265
  720MOL0     H97189  -0.428   0.373   5.945 -1.6782  2.0962  1.3612
  720MOL0     H97190  -0.436   0.305   5.651 -2.7047  0.5870 -0.5525
  720MOL0     H97191  -0.497   0.181   5.760 -1.1129  1.1645 -1.1675
  720MOL0     H97192  -0.274   0.189   5.897  4.1619 -0.0153  0.1754
  720MOL0     H97193  -0.227   0.321   5.797  3.4869 -2.4413 -0.4866
  720MOL0     H97194  -0.288   0.068   5.649 -2.5892  1.8147  0.5286
  720MOL0     H97195  -0.169   0.178   5.609  0.7634  1.5206  0.0675
  720MOL0     H97196   0.014  -0.098   5.873  1.9043  0.3237 -2.6210
  720MOL0     H97197  -0.350   0.538   6.050  1.0971  2.1656  1.7720
  720MOL0     H97198  -0.198   0.566   6.221  1.9312  0.3714  1.8817
  720MOL0     H97199  -0.032   0.586   6.177 -1.1153 -0.6750  3.5766
  720MOL0     H97200  -0.139   0.726   6.199 -3.3420  1.5846 -1.6644
  721MOL0     O97201   6.949   2.049   0.116  0.2204 -0.0874  0.2453
  721MOL0     C97202   7.006   1.943   0.131 -0.1721 -0.3580 -0.7357
  721MOL0     O97203   7.015   1.842   0.036  0.7602  0.5945 -0.3009
  721MOL0     C97204   6.973   1.877  -0.087 -0.4712 -0.8317  1.3511
  721MOL0     C97205   6.859   1.818  -0.137  0.7319  0.2779 -0.2396
  721MOL0     C97206   6.813   1.850  -0.262 -0.2556  0.7681  0.2884
  721MOL0     C97207   6.874   1.946  -0.354 -0.1769 -1.5835 -0.6621
  721MOL0     O97208   6.811   1.968  -0.477 -0.1165 -0.1319 -0.4398
  721MOL0     C97209   6.863   2.080  -0.567  0.9619  0.0102 -0.0610
  721MOL0     C97210   6.771   2.087  -0.689 -0.3071 -0.0180 -0.7659
  721MOL0     C97211   6.800   2.227  -0.754  0.5870 -0.0661 -0.7606
  721MOL0     C97212   6.680   2.313  -0.710  0.3018 -0.3739  0.2771
  721MOL0     C97213   6.680   2.452  -0.757  0.2122  0.4696  0.5981
  721MOL0     C97214   6.809   2.494  -0.822 -0.0216  0.5288  0.3850
  721MOL0     C97215   6.818   2.641  -0.849 -0.1012  0.2062  0.2951
  721MOL0     C97216   6.806   2.735  -0.723  0.2453  0.1152  0.1260
  721MOL0     N97217   6.909   2.695  -0.630  1.1435 -1.3593  0.8318
  721MOL0     C97218   7.050   2.705  -0.648  0.1828 -0.2239  0.5210
  721MOL0     C97219   7.099   2.686  -0.531 -0.6051 -0.5573 -0.1742
  721MOL0     C97220   7.252   2.672  -0.519  0.1571 -0.4906  0.0021
  721MOL0     C97221   7.283   2.514  -0.514  0.3975 -0.2075  0.0183
  721MOL0     C97222   7.241   2.463  -0.377  0.8745 -0.1665  0.2014
  721MOL0     C97223   7.226   2.304  -0.368 -0.4237  0.0412  0.5420
  721MOL0     O97224   7.350   2.243  -0.418 -0.3255  0.4344 -0.4101
  721MOL0     C97225   7.440   2.174  -0.336  0.2835  0.6164  0.1967
  721MOL0     C97226   7.435   2.164  -0.193  1.2904  0.1250  0.0894
  721MOL0     C97227   7.526   2.087  -0.119  0.0393 -0.0732 -0.0569
  721MOL0     C97228   7.630   2.016  -0.190 -1.1496 -0.2924  0.0758
  721MOL0     C97229   7.736   1.948  -0.109 -0.7619  0.9887  0.4262
  721MOL0     O97230   7.856   1.922  -0.168 -0.2355  0.4549  0.8220
  721MOL0     C97231   7.948   1.846  -0.105  0.5369  0.4467 -0.0529
  721MOL0     C97232   7.938   1.707  -0.107 -0.4707  0.9141 -0.1927
  721MOL0     C97233   8.031   1.632  -0.036 -0.6179 -0.2151  1.0276
  721MOL0     C97234   8.124   1.693   0.041 -0.1158 -0.5377 -0.3807
  721MOL0     O97235   8.220   1.630   0.120  0.7749 -0.0370 -0.4739
  721MOL0     C97236   8.231   1.490   0.106 -1.1497  0.7900  0.1482
  721MOL0     C97237   8.352   1.439   0.194  0.2539  0.1309 -0.0422
  721MOL0     C97238   8.490   1.476   0.141 -1.3758  0.1783  0.0029
  721MOL0     C97239   8.608   1.415   0.233  0.0563 -0.9387 -0.4742
  721MOL0     C97240   8.605   1.450   0.385 -1.0245 -0.3405  0.1177
  721MOL0     C97241   8.602   1.599   0.419  0.7665 -0.1392  0.9109
  721MOL0     C97242   8.614   1.639   0.565 -0.5171  0.6247  0.5478
  721MOL0     C97243   8.479   1.610   0.638 -0.7048  0.2637  0.5534
  721MOL0    Cl97244   8.519   1.555   0.800  0.1424 -0.1897 -0.1619
  721MOL0     C97245   8.124   1.831   0.044 -0.5056  0.3257  0.0993
  721MOL0     C97246   8.039   1.911  -0.031  0.6322 -0.6895 -0.5905
  721MOL0     O97247   7.711   1.926   0.008 -0.0189 -0.4324 -0.8773
  721MOL0     C97248   7.629   2.020  -0.336 -0.0193 -0.0111 -0.1548
  721MOL0     C97249   7.534   2.093  -0.407 -0.5059  0.9846 -0.5341
  721MOL0     N97250   7.002   2.675  -0.437  0.4433  0.4509 -0.5447
  721MOL0     N97251   6.885   2.682  -0.499 -0.9084 -0.6126 -0.7376
  721MOL0     C97252   6.991   2.006  -0.294 -0.5389  0.4766 -0.4646
  721MOL0     C97253   7.043   1.971  -0.169 -0.3946 -0.0787 -0.1823
  721MOL0     C97254   7.065   1.917   0.263  0.2011  0.9043 -1.0637
  721MOL0     C97255   6.976   1.941   0.373 -0.7747  0.1603 -0.3247
  721MOL0     C97256   7.033   1.930   0.500  0.6969  0.1086 -0.0008
  721MOL0     C97257   7.168   1.906   0.517 -1.0002 -0.1304  0.6655
  721MOL0     O97258   7.202   1.893   0.645 -0.0197 -0.0359 -0.1812
  721MOL0     C97259   7.334   1.933   0.687 -1.1806 -0.4902 -0.7911
  721MOL0     C97260   7.344   2.089   0.687 -0.3141  0.0549 -0.1173
  721MOL0     C97261   7.468   2.137   0.759 -0.5936  0.0591  0.1784
  721MOL0     C97262   7.474   2.141   0.911 -0.1001 -0.6599  0.2095
  721MOL0     C97263   7.504   2.007   0.964 -0.0850 -0.2208  0.1767
  721MOL0     C97264   7.531   1.895   1.002 -0.0793 -0.6009 -0.0352
  721MOL0     C97265   7.255   1.885   0.408  0.2437  0.9524 -0.5703
  721MOL0     C97266   7.200   1.888   0.284 -0.8801  0.9025  0.3526
  721MOL0     C97267   7.291   1.869   0.163  0.1927  0.3346 -0.1734
  721MOL0     H97268   6.806   1.753  -0.068 -1.8696  2.1627 -0.2954
  721MOL0     H97269   6.716   1.805  -0.282 -1.7653  4.3758 -1.5639
  721MOL0     H97270   6.867   2.172  -0.508  1.0995  1.8391 -2.7317
  721MOL0     H97271   6.965   2.059  -0.600  0.3876  0.1083 -2.0315
  721MOL0     H97272   6.669   2.066  -0.654 -0.6792 -0.1130 -1.8807
  721MOL0     H97273   6.798   2.010  -0.762  3.0345  1.5050 -1.2790
  721MOL0     H97274   6.804   2.213  -0.862 -0.5348 -0.6820 -0.7302
  721MOL0     H97275   6.897   2.260  -0.715  1.3029 -2.1714 -0.6276
  721MOL0     H97276   6.587   2.271  -0.750 -0.1775  1.3313 -0.4923
  721MOL0     H97277   6.664   2.319  -0.602 -3.6627  1.8836 -0.2213
  721MOL0     H97278   6.604   2.456  -0.836  0.5745 -1.6186  0.0649
  721MOL0     H97279   6.639   2.512  -0.675  0.3453 -0.7043  1.5517
  721MOL0     H97280   6.894   2.461  -0.761 -0.2266 -0.3122  0.2365
  721MOL0     H97281   6.809   2.442  -0.919  0.2512  0.1805  0.5709
  721MOL0     H97282   6.739   2.659  -0.923  1.1367 -0.4297 -1.2460
  721MOL0     H97283   6.915   2.657  -0.898 -0.0483 -1.2649 -0.1217
  721MOL0     H97284   6.798   2.841  -0.746 -0.4216  0.2038  0.7288
  721MOL0     H97285   6.709   2.714  -0.677 -0.1988  0.9854 -0.3891
  721MOL0     H97286   7.105   2.722  -0.740  1.9183 -2.5421  1.0378
  721MOL0     H97287   7.311   2.720  -0.597  3.2195 -0.1610  2.3312
  721MOL0     H97288   7.268   2.709  -0.418 -0.6043  0.1844 -0.1133
  721MOL0     H97289   7.233   2.447  -0.585  3.2327 -1.3659 -1.0683
  721MOL0     H97290   7.390   2.499  -0.531  0.5486  0.4558  0.3667
  721MOL0     H97291   7.145   2.503  -0.344  2.0471  2.0072  1.1473
  721MOL0     H97292   7.318   2.504  -0.311  2.0184 -0.2607 -1.0269
  721MOL0     H97293   7.148   2.269  -0.437  0.3565 -0.2342 -0.2090
  721MOL0     H97294   7.199   2.268  -0.269 -0.8362  1.5282  0.9936
  721MOL0     H97295   7.357   2.209  -0.133  1.9414  3.2208 -1.1657
  721MOL0     H97296   7.533   2.094  -0.011 -0.9523 -6.0108  0.6883
  721MOL0     H97297   7.856   1.651  -0.151 -0.0732 -0.6910  1.0004
  721MOL0     H97298   8.016   1.524  -0.041  0.0012 -0.2887  0.5908
  721MOL0     H97299   8.142   1.434   0.136  0.0385 -0.5106  1.4054
  721MOL0     H97300   8.251   1.450   0.007  2.0504 -0.1136  1.0316
  721MOL0     H97301   8.347   1.509   0.277 -2.2841  0.7767 -0.6378
  721MOL0     H97302   8.332   1.335   0.223  1.1786  0.0047  0.1732
  721MOL0     H97303   8.512   1.452   0.037 -2.7741  3.4281 -1.1663
  721MOL0     H97304   8.498   1.585   0.141 -1.5018  0.3744 -4.7132
  721MOL0     H97305   8.705   1.457   0.205  0.9557 -0.2539  3.1072
  721MOL0     H97306   8.603   1.306   0.225 -0.6099 -1.0032  0.5308
  721MOL0     H97307   8.681   1.393   0.439 -0.4114 -0.4079 -0.7879
  721MOL0     H97308   8.509   1.415   0.424 -2.1799  2.5353  0.1580
  721MOL0     H97309   8.686   1.644   0.365  1.4577 -1.4165  0.8839
  721MOL0     H97310   8.507   1.635   0.379  0.0473 -1.8420  0.9931
  721MOL0     H97311   8.633   1.746   0.583  0.1503  0.6312 -0.1251
  721MOL0     H97312   8.690   1.579   0.615 -0.7002 -1.8280 -1.8920
  721MOL0     H97313   8.426   1.706   0.643  1.7257  1.6390  1.3516
  721MOL0     H97314   8.425   1.536   0.578 -0.3367 -0.5249  1.1720
  721MOL0     H97315   8.190   1.886   0.110  0.8566 -0.0811 -0.8819
  721MOL0     H97316   8.037   2.019  -0.024  0.1927 -0.7323  0.1080
  721MOL0     H97317   7.717   1.985  -0.388  1.6995  2.4289  0.8747
  721MOL0     H97318   7.529   2.090  -0.515 -2.1829 -2.5656 -0.4888
  721MOL0     H97319   7.014   2.097  -0.348 -1.5821 -0.4323 -2.5880
  721MOL0     H97320   7.121   2.032  -0.125 -1.5533 -1.0842  3.6593
  721MOL0     H97321   6.874   1.973   0.352  0.0400  2.6604 -0.7920
  721MOL0     H97322   6.979   1.961   0.588 -2.1273 -0.6599 -1.3349
  721MOL0     H97323   7.411   1.900   0.616  1.2227  1.5090  0.7083
  721MOL0     H97324   7.361   1.885   0.782 -0.8595 -2.2202 -1.7138
  721MOL0     H97325   7.263   2.135   0.744  1.6358  2.3194  1.0320
  721MOL0     H97326   7.341   2.136   0.589  1.4291  2.4795  0.8619
  721MOL0     H97327   7.463   2.241   0.726  1.8073 -0.4134 -2.0671
  721MOL0     H97328   7.555   2.092   0.710 -2.1984 -1.3755 -1.4834
  721MOL0     H97329   7.565   2.199   0.925 -0.6047  0.1555  0.1970
  721MOL0     H97330   7.396   2.193   0.967  0.4720  2.5764 -1.7836
  721MOL0     H97331   7.566   1.799   1.033 -0.7911 -0.1441  2.4523
  721MOL0     H97332   7.355   1.852   0.436 -1.9206 -4.2294  2.5067
  721MOL0     H97333   7.277   1.937   0.078  1.1572 -1.3624 -1.7519
  721MOL0     H97334   7.394   1.865   0.197  1.2979 -0.9541 -3.2487
  721MOL0     H97335   7.274   1.764   0.136  2.6587 -0.3338  0.6649
  722MOL0     O97336   4.896   1.911   0.709  0.0319  0.4894  0.5865
  722MOL0     C97337   4.846   1.793   0.714  0.2502  0.2369  1.0005
  722MOL0     O97338   4.817   1.718   0.600  1.0618  0.2278 -0.3717
  722MOL0     C97339   4.867   1.759   0.474 -0.4565  0.8482  0.3874
  722MOL0     C97340   5.004   1.775   0.450  1.1105  0.2698 -0.7348
  722MOL0     C97341   5.044   1.808   0.323  0.0843  0.4791  0.3777
  722MOL0     C97342   4.950   1.840   0.223  0.8517 -0.3673 -1.0455
  722MOL0     O97343   4.976   1.903   0.098  0.0103  0.5601  0.1274
  722MOL0     C97344   5.037   2.027   0.107  1.0799  0.1172 -0.7992
  722MOL0     C97345   5.179   2.016   0.034  1.5387 -0.8605 -1.3013
  722MOL0     C97346   5.164   1.993  -0.120  0.4795 -0.1756  0.0544
  722MOL0     C97347   5.308   2.006  -0.178  0.6692  0.0847 -0.0067
  722MOL0     C97348   5.327   1.962  -0.328  0.9701  0.7210 -0.1873
  722MOL0     C97349   5.270   2.060  -0.439  0.0578 -0.6156 -0.0656
  722MOL0     C97350   5.374   2.135  -0.529 -0.1807  0.1895 -0.0677
  722MOL0     C97351   5.450   2.036  -0.616 -0.0643  0.3225  0.5366
  722MOL0     N97352   5.580   2.105  -0.642 -0.7034 -0.1964 -0.2846
  722MOL0     C97353   5.603   2.208  -0.722  0.0023 -0.2331 -0.6413
  722MOL0     C97354   5.733   2.241  -0.700  0.3424 -0.0660 -0.0331
  722MOL0     C97355   5.804   2.357  -0.769  0.2180 -0.2171 -0.1328
  722MOL0     C97356   5.786   2.495  -0.704  0.7466  0.1126 -0.6646
  722MOL0     C97357   5.831   2.593  -0.809 -0.3092 -0.5225 -0.4517
  722MOL0     C97358   5.845   2.740  -0.748  0.2138  0.4823  0.9496
  722MOL0     O97359   5.721   2.786  -0.683 -0.8253 -0.5037 -0.9499
  722MOL0     C97360   5.617   2.812  -0.765  0.2010 -0.2320  0.4807
  722MOL0     C97361   5.619   2.930  -0.842 -0.4509  0.3698  0.6641
  722MOL0     C97362   5.520   2.956  -0.930 -0.3336 -0.0907  0.3319
  722MOL0     C97363   5.404   2.887  -0.934 -0.3868  0.2110  0.3646
  722MOL0     C97364   5.289   2.940  -0.997  0.1314 -0.3248  0.2782
  722MOL0     O97365   5.176   2.866  -1.006 -0.5989 -0.6829 -0.4754
  722MOL0     C97366   5.060   2.899  -1.079 -1.0554  0.1642 -0.5602
  722MOL0     C97367   5.058   2.891  -1.215 -0.6459 -0.3988 -0.7897
  722MOL0     C97368   4.936   2.916  -1.285  0.4982  0.0860  0.4223
  722MOL0     C97369   4.820   2.956  -1.213  0.2592  0.2402 -0.9533
  722MOL0     O97370   4.694   2.963  -1.268  0.5127 -0.6112  0.7733
  722MOL0     C97371   4.690   2.958  -1.421  0.5105 -0.1130 -0.2629
  722MOL0     C97372   4.555   3.013  -1.466 -0.4209 -0.3654  0.3747
  722MOL0     C97373   4.523   3.156  -1.415  0.0848  0.4446  0.0208
  722MOL0     C97374   4.415   3.226  -1.500 -0.3547  0.6971  0.5174
  722MOL0     C97375   4.466   3.338  -1.601  0.2263  0.1021 -0.6688
  722MOL0     C97376   4.352   3.443  -1.633  0.2289 -1.0287  0.2464
  722MOL0     C97377   4.390   3.547  -1.738 -0.3735  0.3830  0.3591
  722MOL0     C97378   4.263   3.609  -1.800  0.1551  0.5233  0.1613
  722MOL0    Cl97379   4.310   3.718  -1.927 -0.2822  0.4177  0.0541
  722MOL0     C97380   4.831   2.966  -1.072  0.0600  0.3982 -0.8407
  722MOL0     C97381   4.954   2.938  -1.007 -0.8606  0.2941 -0.3629
  722MOL0     O97382   5.298   3.064  -1.021  0.1270  0.8179  0.6177
  722MOL0     C97383   5.396   2.763  -0.857  0.7866  0.1601 -0.3599
  722MOL0     C97384   5.501   2.726  -0.780  0.2257 -0.0906 -0.0023
  722MOL0     N97385   5.794   2.154  -0.610  0.2568 -0.3140 -0.2998
  722MOL0     N97386   5.697   2.071  -0.576  0.3482 -0.8815 -0.8915
  722MOL0     C97387   4.812   1.813   0.246  0.7317 -0.1189 -0.7084
  722MOL0     C97388   4.770   1.769   0.366 -0.2521 -0.0684  0.1080
  722MOL0     C97389   4.824   1.744   0.851  0.3575 -1.0559  0.0627
  722MOL0     C97390   4.825   1.831   0.956  0.1761 -0.4254 -0.0707
  722MOL0     C97391   4.777   1.789   1.083  0.2873  0.2541 -0.0807
  722MOL0     C97392   4.741   1.657   1.102  0.1344  0.4064  0.0489
  722MOL0     O97393   4.725   1.622   1.235 -0.5035 -0.4864 -0.2819
  722MOL0     C97394   4.709   1.487   1.280  0.5192  0.0892 -0.6634
  722MOL0     C97395   4.755   1.496   1.423 -0.2258 -0.4727  0.7567
  722MOL0     C97396   4.741   1.361   1.491 -0.3303  0.8170 -0.1568
  722MOL0     C97397   4.778   1.365   1.644  0.4960 -0.6972 -0.5554
  722MOL0     C97398   4.862   1.247   1.669  1.4848  0.4897  0.0936
  722MOL0     C97399   4.925   1.152   1.690 -0.3969 -0.8401  0.1997
  722MOL0     C97400   4.738   1.566   1.000  0.5620  0.7311 -0.4434
  722MOL0     C97401   4.769   1.613   0.873 -0.1390  0.1725 -0.7430
  722MOL0     C97402   4.762   1.505   0.767  0.3173  0.3033 -0.0061
  722MOL0     H97403   5.066   1.759   0.537 -1.2230 -0.6295  0.8552
  722MOL0     H97404   5.151   1.821   0.306  0.0675  0.6450  0.3980
  722MOL0     H97405   4.968   2.101   0.064  1.1987  0.1537 -0.9288
  722MOL0     H97406   5.055   2.073   0.205 -3.8512  0.0909  0.3801
  722MOL0     H97407   5.248   1.944   0.079  1.6617 -0.0215 -0.1032
  722MOL0     H97408   5.241   2.105   0.047  3.1394 -1.9719 -1.0439
  722MOL0     H97409   5.099   2.069  -0.164  1.9697  0.9273 -0.3386
  722MOL0     H97410   5.124   1.895  -0.148  1.4419  0.2077 -3.0422
  722MOL0     H97411   5.328   2.114  -0.186 -0.9657  0.3694 -0.6006
  722MOL0     H97412   5.384   1.964  -0.112 -0.7973 -1.7092  0.6169
  722MOL0     H97413   5.433   1.942  -0.348  1.0983  0.3628  0.8152
  722MOL0     H97414   5.276   1.866  -0.339 -0.9339  1.7603 -1.0173
  722MOL0     H97415   5.190   2.021  -0.504 -0.8099  0.5754  0.2462
  722MOL0     H97416   5.213   2.138  -0.388 -0.9868 -2.0483  1.0370
  722MOL0     H97417   5.440   2.180  -0.454 -0.7606 -1.4348  1.4803
  722MOL0     H97418   5.328   2.215  -0.586  2.1239  2.2509  0.7999
  722MOL0     H97419   5.467   1.944  -0.559 -0.9207 -2.0103 -2.6940
  722MOL0     H97420   5.389   2.005  -0.701  1.6476  1.2593 -1.1035
  722MOL0     H97421   5.528   2.256  -0.785  1.4074  3.7123  0.4226
  722MOL0     H97422   5.908   2.321  -0.760  0.4588  0.9152  3.6060
  722MOL0     H97423   5.776   2.373  -0.873 -1.7982  1.5158  0.6153
  722MOL0     H97424   5.677   2.507  -0.695  0.4401 -0.2691 -3.1039
  722MOL0     H97425   5.829   2.497  -0.604 -2.2755  3.6051  0.8008
  722MOL0     H97426   5.742   2.592  -0.872 -0.8651 -0.4355  0.3130
  722MOL0     H97427   5.912   2.562  -0.874 -1.0576 -2.0253 -0.7081
  722MOL0     H97428   5.893   2.802  -0.824  3.6301 -2.4355  0.4430
  722MOL0     H97429   5.922   2.718  -0.673  0.1850 -0.0606  0.8236
  722MOL0     H97430   5.709   2.988  -0.828  0.9443 -1.7753  1.0463
  722MOL0     H97431   5.539   3.039  -0.998  1.6233 -2.1240 -1.7664
  722MOL0     H97432   5.148   2.856  -1.263 -0.5275  1.4019 -2.0001
  722MOL0     H97433   4.934   2.886  -1.389  0.6186 -2.0375  0.9959
  722MOL0     H97434   4.769   3.012  -1.474 -1.5763  2.7320 -0.6857
  722MOL0     H97435   4.700   2.851  -1.444  1.7944 -0.6214  2.2667
  722MOL0     H97436   4.561   2.999  -1.574  2.7681 -0.0340  0.4182
  722MOL0     H97437   4.475   2.949  -1.428 -0.9506  0.1169  0.0696
  722MOL0     H97438   4.474   3.144  -1.318 -1.0770 -0.6497 -0.6624
  722MOL0     H97439   4.610   3.212  -1.381  0.4075 -1.3046  2.3260
  722MOL0     H97440   4.343   3.270  -1.431 -1.6076 -1.7318  0.8662
  722MOL0     H97441   4.357   3.149  -1.552  0.0610 -0.2748  1.4649
  722MOL0     H97442   4.495   3.278  -1.687  0.3767 -0.8246  0.0039
  722MOL0     H97443   4.557   3.387  -1.564 -1.5284  2.5475  0.7384
  722MOL0     H97444   4.274   3.378  -1.676 -2.1008  0.7763  1.5052
  722MOL0     H97445   4.316   3.489  -1.540  0.9212  0.4527 -0.2033
  722MOL0     H97446   4.451   3.491  -1.809  2.2293 -0.5437  3.1492
  722MOL0     H97447   4.462   3.619  -1.698  2.4365 -1.1775 -1.5603
  722MOL0     H97448   4.209   3.533  -1.857 -0.7666  1.8951 -0.8556
  722MOL0     H97449   4.190   3.654  -1.732  3.4163  3.3604  2.1121
  722MOL0     H97450   4.747   3.001  -1.014 -0.1601  1.2060 -1.6231
  722MOL0     H97451   4.965   2.951  -0.900  1.6412 -3.1930 -0.0162
  722MOL0     H97452   5.301   2.710  -0.859  1.4732 -1.0916 -0.9499
  722MOL0     H97453   5.505   2.623  -0.745  2.7411 -2.0978 -5.0521
  722MOL0     H97454   4.742   1.818   0.163 -2.7737 -3.3557  1.7245
  722MOL0     H97455   4.664   1.745   0.374 -0.9793  1.7959 -2.5038
  722MOL0     H97456   4.859   1.932   0.933  1.4631 -0.3987  1.7604
  722MOL0     H97457   4.786   1.866   1.159  3.3242  1.0568 -1.1401
  722MOL0     H97458   4.758   1.409   1.221 -0.4110  0.1027 -1.4714
  722MOL0     H97459   4.602   1.468   1.276  0.4928  0.4604 -2.4493
  722MOL0     H97460   4.694   1.575   1.467  2.4863  0.8291  2.4220
  722MOL0     H97461   4.857   1.534   1.436 -1.0485  3.2981 -2.0396
  722MOL0     H97462   4.808   1.293   1.438 -0.8241  0.2094 -0.0118
  722MOL0     H97463   4.641   1.318   1.481 -0.8782  0.9748  3.3559
  722MOL0     H97464   4.848   1.448   1.659  1.9223 -1.8700 -0.4990
  722MOL0     H97465   4.697   1.381   1.716  0.6026  2.4989 -0.9793
  722MOL0     H97466   4.980   1.061   1.698 -1.1836 -1.2789  0.7390
  722MOL0     H97467   4.716   1.461   1.018  1.0785  1.0371  2.5958
  722MOL0     H97468   4.855   1.507   0.709 -0.7091 -2.1895 -1.9167
  722MOL0     H97469   4.731   1.408   0.804 -0.0369 -0.4794 -2.1907
  722MOL0     H97470   4.690   1.525   0.687  0.2323 -1.7655 -0.4997
  723MOL0     O97471   6.791  11.424   5.809 -0.0584  0.1347 -0.2573
  723MOL0     C97472   6.828  11.302   5.798 -0.2235 -0.2282 -0.1893
  723MOL0     O97473   6.871  11.241   5.681  0.0813  0.1876 -0.5989
  723MOL0     C97474   6.854  11.315   5.563  0.5623  0.3516  0.6031
  723MOL0     C97475   6.730  11.355   5.513 -0.4981 -0.1279  0.0790
  723MOL0     C97476   6.718  11.431   5.395  0.5144  0.1609 -0.3937
  723MOL0     C97477   6.826  11.461   5.328 -0.0038 -0.6845  0.1643
  723MOL0     O97478   6.805  11.535   5.215 -0.6773  0.3915  0.6463
  723MOL0     C97479   6.823  11.679   5.238 -0.3814  0.4854  0.3312
  723MOL0     C97480   6.774  11.767   5.138  0.5092 -0.1065 -0.0993
  723MOL0     C97481   6.853  11.765   5.010 -0.6944 -0.0964 -0.1072
  723MOL0     C97482   7.006  11.807   5.027 -0.3496 -0.8566  0.1718
  723MOL0     C97483   7.090  11.793   4.902  0.2614  1.1188  0.2868
  723MOL0     C97484   7.093  11.655   4.852 -0.2315  0.6727 -0.6300
  723MOL0     C97485   7.164  11.564   4.958  0.9263 -1.7202 -0.0382
  723MOL0     C97486   7.179  11.427   4.902 -0.0621  0.6196 -0.6526
  723MOL0     N97487   7.045  11.358   4.920 -0.0253  0.1744 -0.4770
  723MOL0     C97488   6.984  11.312   5.032  0.0249 -0.3201 -0.4558
  723MOL0     C97489   6.869  11.257   4.980 -0.9213 -0.4503 -0.2101
  723MOL0     C97490   6.754  11.197   5.059 -0.0831  0.6575  0.2171
  723MOL0     C97491   6.761  11.045   5.045  0.1855 -0.4125 -0.5982
  723MOL0     C97492   6.874  10.987   5.131  0.5496 -0.3811 -0.2340
  723MOL0     C97493   6.901  10.841   5.101  0.0935  0.4882  0.4470
  723MOL0     O97494   7.005  10.771   5.170  0.3790  1.0837 -0.2387
  723MOL0     C97495   6.988  10.713   5.295  0.4544 -0.2834  0.5463
  723MOL0     C97496   6.884  10.743   5.382  0.3564  0.9379  0.0561
  723MOL0     C97497   6.886  10.694   5.510  0.2048  0.0043 -0.6101
  723MOL0     C97498   6.987  10.609   5.559  0.6208 -0.1728 -0.1682
  723MOL0     C97499   7.001  10.574   5.697 -0.5064  0.0309 -0.6506
  723MOL0     O97500   7.092  10.473   5.731 -0.0019  0.0244  0.4363
  723MOL0     C97501   7.100  10.399   5.853  0.7753 -0.0016 -0.8231
  723MOL0     C97502   6.994  10.379   5.950 -0.7897 -0.5936 -0.3661
  723MOL0     C97503   7.021  10.297   6.058 -0.5304  0.2297 -0.6645
  723MOL0     C97504   7.143  10.223   6.076  0.8543 -0.1666  0.2770
  723MOL0     O97505   7.150  10.152   6.190  0.4833  0.0894 -0.2532
  723MOL0     C97506   7.088  10.020   6.185  0.4152 -1.3791  0.8977
  723MOL0     C97507   6.990  10.010   6.304  0.8318  1.1078 -0.7784
  723MOL0     C97508   6.841   9.991   6.261  0.1649 -0.2008  0.2905
  723MOL0     C97509   6.747   9.924   6.365 -0.2219  0.6599  0.0966
  723MOL0     C97510   6.658  10.016   6.443 -1.3344 -0.1098  0.5409
  723MOL0     C97511   6.541   9.945   6.508  0.4641 -0.9793  0.5711
  723MOL0     C97512   6.587   9.831   6.605 -0.2072  0.4122 -0.4979
  723MOL0     C97513   6.635   9.900   6.742  0.2644  1.0612 -0.3243
  723MOL0    Cl97514   6.616   9.774   6.876 -0.6629  0.0630 -0.3238
  723MOL0     C97515   7.251  10.260   5.998  0.0156  0.4363  0.8126
  723MOL0     C97516   7.228  10.342   5.893  0.4551 -1.0866 -0.4773
  723MOL0     O97517   6.930  10.632   5.779 -0.1631  0.3170  0.1932
  723MOL0     C97518   7.085  10.572   5.465  0.1973 -0.7216  0.6028
  723MOL0     C97519   7.088  10.624   5.338 -0.7907  0.8580  0.4483
  723MOL0     N97520   6.869  11.257   4.847  0.9383  0.6607  0.2778
  723MOL0     N97521   6.971  11.330   4.815 -0.0992  0.5527  0.4708
  723MOL0     C97522   6.952  11.428   5.366 -0.6340  0.0416 -1.0844
  723MOL0     C97523   6.968  11.346   5.485  0.0769 -0.6474  0.5396
  723MOL0     C97524   6.818  11.208   5.912 -0.0694  0.0824 -0.3545
  723MOL0     C97525   6.878  11.085   5.908 -0.0632  0.4357 -0.4053
  723MOL0     C97526   6.885  11.007   6.017 -0.1555  0.9226  0.1079
  723MOL0     C97527   6.823  11.037   6.141 -0.8247 -0.0692 -0.4931
  723MOL0     O97528   6.809  10.951   6.250 -0.6266 -0.6853  0.1743
  723MOL0     C97529   6.872  10.827   6.259  0.4667  0.4404 -0.1628
  723MOL0     C97530   6.794  10.735   6.352  0.1264  1.0083 -0.6208
  723MOL0     C97531   6.742  10.798   6.486  0.4407 -0.7092  0.5218
  723MOL0     C97532   6.636  10.718   6.559  0.0854  0.9581  0.4815
  723MOL0     C97533   6.496  10.742   6.519 -0.3080 -0.0048 -0.0973
  723MOL0     C97534   6.383  10.759   6.478 -0.1798  1.0868  0.5678
  723MOL0     C97535   6.767  11.164   6.138  0.6356  0.2254 -0.3378
  723MOL0     C97536   6.754  11.253   6.033 -0.9359 -0.1865 -0.0106
  723MOL0     C97537   6.698  11.384   6.064  0.1561 -0.3998  0.0733
  723MOL0     H97538   6.644  11.340   5.577  0.2359 -1.5769  0.7753
  723MOL0     H97539   6.620  11.459   5.359 -0.0080  0.9405  1.5115
  723MOL0     H97540   6.771  11.718   5.326 -0.4644  2.4304 -0.5397
  723MOL0     H97541   6.929  11.704   5.244 -0.4298  0.7493  0.0976
  723MOL0     H97542   6.788  11.868   5.177  0.6777 -0.6184  1.2190
  723MOL0     H97543   6.666  11.756   5.124  0.7035 -0.3532 -1.4764
  723MOL0     H97544   6.790  11.820   4.939 -0.1284  2.5926  1.3535
  723MOL0     H97545   6.840  11.659   4.985 -2.7317  0.4186 -1.4827
  723MOL0     H97546   7.020  11.908   5.066  1.2878 -1.7084  1.9287
  723MOL0     H97547   7.058  11.739   5.095  0.2218  0.1613  0.7873
  723MOL0     H97548   7.059  11.857   4.819  0.1321 -0.5410 -1.0214
  723MOL0     H97549   7.195  11.816   4.920 -0.8821  4.4072  3.9305
  723MOL0     H97550   7.007  11.609   4.804 -0.9358 -0.0924  1.2677
  723MOL0     H97551   7.148  11.658   4.757 -0.1243 -0.5200 -0.6162
  723MOL0     H97552   7.118  11.553   5.057 -0.5229  0.8257 -0.3540
  723MOL0     H97553   7.261  11.597   4.995  0.1101  0.4279  0.3691
  723MOL0     H97554   7.213  11.439   4.799 -0.4641  0.1690 -0.8371
  723MOL0     H97555   7.252  11.367   4.958  1.7025  3.2065  0.0201
  723MOL0     H97556   7.013  11.351   5.130 -1.3022  2.5804 -1.1232
  723MOL0     H97557   6.758  11.227   5.164 -3.0732 -2.5209  1.4461
  723MOL0     H97558   6.661  11.239   5.019 -0.2700  1.1062  1.1003
  723MOL0     H97559   6.663  11.015   5.083  0.8166 -1.5286  0.2025
  723MOL0     H97560   6.769  11.021   4.939  1.0840 -0.2175 -0.5867
  723MOL0     H97561   6.857  10.997   5.238  0.3602 -2.5826 -0.0001
  723MOL0     H97562   6.966  11.041   5.108  1.0714 -0.4439  1.5616
  723MOL0     H97563   6.904  10.837   4.992  1.2845 -1.9593  0.5038
  723MOL0     H97564   6.811  10.779   5.111 -0.4857  0.9288 -1.5924
  723MOL0     H97565   6.803  10.810   5.356  0.9138  0.7882 -2.2590
  723MOL0     H97566   6.801  10.713   5.575  2.4032  3.5239  1.5659
  723MOL0     H97567   6.896  10.421   5.928 -0.5530 -1.0585 -2.5573
  723MOL0     H97568   6.934  10.280   6.121 -0.4945 -0.7963 -0.8804
  723MOL0     H97569   7.053  10.000   6.083  2.0033  0.5672 -0.0835
  723MOL0     H97570   7.171   9.950   6.198  2.5059  0.9132  0.4313
  723MOL0     H97571   7.016   9.922   6.364  3.1090 -0.3473 -3.6420
  723MOL0     H97572   6.991  10.091   6.378 -1.5676 -1.2884  2.1313
  723MOL0     H97573   6.817  10.091   6.226 -0.8027 -1.5452 -3.2634
  723MOL0     H97574   6.833   9.928   6.172 -0.3457  1.6439 -1.0230
  723MOL0     H97575   6.813   9.856   6.420 -0.0227 -1.3360 -2.4476
  723MOL0     H97576   6.685   9.847   6.320 -0.7763  0.6368  0.8675
  723MOL0     H97577   6.622  10.090   6.370  0.0679 -1.8587 -2.0492
  723MOL0     H97578   6.718  10.062   6.522 -1.5881  1.0382  0.0900
  723MOL0     H97579   6.482  10.016   6.566  0.0582 -0.3389 -0.5883
  723MOL0     H97580   6.471   9.898   6.438 -1.7749 -0.2451  2.1943
  723MOL0     H97581   6.672   9.774   6.567 -0.8593 -1.5420  0.8019
  723MOL0     H97582   6.503   9.763   6.620  0.2389 -0.6191 -2.3896
  723MOL0     H97583   6.739   9.933   6.732  1.1216 -1.1426  0.7471
  723MOL0     H97584   6.578   9.992   6.756 -2.4022  0.3063 -4.3440
  723MOL0     H97585   7.351  10.219   6.009 -0.0315 -0.4559 -1.5619
  723MOL0     H97586   7.312  10.364   5.828 -0.5139  0.5800 -1.2157
  723MOL0     H97587   7.161  10.497   5.482 -0.5441 -2.4975 -2.9105
  723MOL0     H97588   7.174  10.607   5.275 -2.0257  4.1124 -2.4559
  723MOL0     H97589   7.024  11.476   5.301 -0.8044  1.3993 -0.2989
  723MOL0     H97590   7.065  11.308   5.516  0.0549  0.6888  2.4434
  723MOL0     H97591   6.912  11.033   5.819 -0.1684 -2.6599  1.1970
  723MOL0     H97592   6.932  10.910   6.010  1.9570  1.5716  3.1324
  723MOL0     H97593   6.974  10.839   6.298  0.3751  1.2790 -0.1624
  723MOL0     H97594   6.873  10.780   6.161  4.0787  0.4786 -0.2973
  723MOL0     H97595   6.869  10.662   6.384  1.0190  2.6767  1.3128
  723MOL0     H97596   6.711  10.683   6.302 -0.8442  0.8565  1.0741
  723MOL0     H97597   6.706  10.901   6.477 -1.2748 -1.2886  0.4029
  723MOL0     H97598   6.824  10.810   6.557  0.4555 -1.3178  0.6085
  723MOL0     H97599   6.640  10.610   6.543 -2.6642  0.7137  0.9240
  723MOL0     H97600   6.648  10.727   6.668  0.0559 -2.1830  0.8276
  723MOL0     H97601   6.288  10.791   6.440  0.6790  1.6899 -1.1947
  723MOL0     H97602   6.712  11.178   6.230  2.5695 -0.3227  0.9394
  723MOL0     H97603   6.775  11.458   6.038 -1.4983  1.9738  1.5199
  723MOL0     H97604   6.611  11.411   6.003 -0.2614  1.3728  1.3604
  723MOL0     H97605   6.676  11.392   6.170  3.9308  2.6687  0.8634
  724MOL0     O97606   2.067   3.576   0.949  0.2184  0.1430 -0.9776
  724MOL0     C97607   2.049   3.696   0.976 -1.0289  0.0422 -0.8215
  724MOL0     O97608   1.928   3.741   1.037  0.2349 -0.1125  0.5149
  724MOL0     C97609   1.839   3.646   1.085  0.4111 -0.0494  1.4635
  724MOL0     C97610   1.805   3.641   1.215 -0.6047 -0.2104 -0.3315
  724MOL0     C97611   1.704   3.554   1.257 -0.5604 -0.1876  0.0094
  724MOL0     C97612   1.638   3.465   1.169 -0.3125  0.1497  1.1117
  724MOL0     O97613   1.533   3.387   1.215 -0.8148 -0.7688  0.9992
  724MOL0     C97614   1.478   3.301   1.116 -0.2446 -0.4732  0.1962
  724MOL0     C97615   1.349   3.241   1.165 -1.4749  0.5125 -0.0823
  724MOL0     C97616   1.345   3.189   1.309  0.3221  0.8986  0.0083
  724MOL0     C97617   1.425   3.052   1.329 -0.3393 -0.1086 -0.3244
  724MOL0     C97618   1.431   2.993   1.469  0.3020  0.2975 -0.4990
  724MOL0     C97619   1.524   3.077   1.553 -0.9829 -0.0250 -0.8284
  724MOL0     C97620   1.532   3.012   1.690  0.3192  0.2653  0.2623
  724MOL0     C97621   1.653   3.066   1.760 -0.1126 -0.0002  0.2323
  724MOL0     N97622   1.662   3.002   1.887 -0.0248  0.3270  0.4999
  724MOL0     C97623   1.767   2.932   1.926 -0.1994  0.0878  0.1555
  724MOL0     C97624   1.741   2.884   2.044  0.4827 -0.1453 -0.5183
  724MOL0     C97625   1.821   2.805   2.127 -0.3070  0.2133  0.8757
  724MOL0     C97626   1.880   2.699   2.036 -0.5347 -0.1037  0.0366
  724MOL0     C97627   1.967   2.588   2.111 -0.0012  0.2178  0.1001
  724MOL0     C97628   2.024   2.495   2.002 -0.1178 -0.0282  0.1841
  724MOL0     O97629   2.123   2.571   1.937 -0.3160  0.2993 -0.1779
  724MOL0     C97630   2.204   2.502   1.851  0.0642  0.2575  0.9701
  724MOL0     C97631   2.179   2.376   1.808 -1.3274 -0.1113 -0.7553
  724MOL0     C97632   2.267   2.307   1.728  0.0405 -0.5888  0.3511
  724MOL0     C97633   2.392   2.372   1.693  0.5890  0.6265 -0.6079
  724MOL0     C97634   2.492   2.311   1.604  0.3918  0.6113  0.9101
  724MOL0     O97635   2.612   2.341   1.640 -0.0920 -0.0597  0.3254
  724MOL0     C97636   2.724   2.273   1.603 -0.3180  0.2681  0.0483
  724MOL0     C97637   2.828   2.276   1.697  0.8367 -0.2125 -0.0042
  724MOL0     C97638   2.943   2.223   1.672 -0.3748 -0.0400  0.0464
  724MOL0     C97639   2.976   2.165   1.549 -0.1778  0.2524  1.1236
  724MOL0     O97640   3.102   2.121   1.535 -0.4785 -0.6241 -0.4429
  724MOL0     C97641   3.174   2.108   1.409  0.4001  0.2616 -0.1075
  724MOL0     C97642   3.167   1.966   1.357  0.7340  0.8165  0.5010
  724MOL0     C97643   3.245   1.944   1.227 -0.5135  0.2285 -0.2238
  724MOL0     C97644   3.243   1.793   1.182 -0.5892 -1.0286  0.1569
  724MOL0     C97645   3.229   1.794   1.035 -0.3700  0.3011 -0.4983
  724MOL0     C97646   3.237   1.648   0.994  0.3800  0.1258 -1.0034
  724MOL0     C97647   3.318   1.641   0.872  0.9829 -0.8136  0.2494
  724MOL0     C97648   3.294   1.511   0.785 -0.2740 -0.0281 -0.6468
  724MOL0    Cl97649   3.380   1.554   0.634 -0.0972  0.0040 -0.0818
  724MOL0     C97650   2.880   2.180   1.444 -0.2183  0.7516  0.7531
  724MOL0     C97651   2.756   2.235   1.475  0.8402 -0.2204  0.2876
  724MOL0     O97652   2.457   2.228   1.517 -0.4336 -0.8219 -0.0591
  724MOL0     C97653   2.420   2.498   1.736 -1.5528  0.0357 -0.0112
  724MOL0     C97654   2.329   2.564   1.827  1.1973  0.2378 -0.1552
  724MOL0     N97655   1.618   2.932   2.085 -0.8439  0.3880 -0.1539
  724MOL0     N97656   1.573   3.006   1.989 -0.2501  0.0869 -0.2783
  724MOL0     C97657   1.677   3.472   1.033  0.0257  1.2301 -0.1278
  724MOL0     C97658   1.777   3.563   0.990  1.5527  0.0572  0.4803
  724MOL0     C97659   2.153   3.793   0.939  0.8347 -0.5603  0.0982
  724MOL0     C97660   2.245   3.762   0.840 -0.3328 -0.0063 -0.1872
  724MOL0     C97661   2.371   3.835   0.842 -0.0689  0.1017  0.1631
  724MOL0     C97662   2.393   3.952   0.914  0.4768  0.1914  0.1581
  724MOL0     O97663   2.498   4.040   0.905 -0.7679  0.5838 -0.4361
  724MOL0     C97664   2.592   4.047   1.012 -0.4349 -0.0009 -0.2499
  724MOL0     C97665   2.712   3.958   0.979 -0.3947 -0.2071  0.1750
  724MOL0     C97666   2.803   4.003   0.877 -0.0901 -0.1828 -0.0041
  724MOL0     C97667   2.948   3.966   0.920  0.3616 -1.2256  0.4712
  724MOL0     C97668   2.977   3.828   0.898  0.3318  0.8869  0.6679
  724MOL0     C97669   3.017   3.712   0.884 -0.2394 -0.1380 -0.3497
  724MOL0     C97670   2.299   3.988   1.001 -0.1311  0.0139 -1.1846
  724MOL0     C97671   2.182   3.913   1.015 -0.4594 -0.4299  0.1642
  724MOL0     C97672   2.090   3.974   1.115 -0.4073  0.8883  0.5278
  724MOL0     H97673   1.848   3.713   1.284 -2.2031  2.5096 -2.0418
  724MOL0     H97674   1.655   3.569   1.353 -3.6629  0.8932 -1.5969
  724MOL0     H97675   1.452   3.355   1.025  2.7889  0.4618 -0.2345
  724MOL0     H97676   1.554   3.223   1.102 -1.2595 -1.0950 -2.3688
  724MOL0     H97677   1.332   3.155   1.100  1.4878  1.1848 -1.9251
  724MOL0     H97678   1.279   3.324   1.152  1.5486  3.5509  1.3901
  724MOL0     H97679   1.241   3.186   1.341 -0.6433  1.3930 -2.8675
  724MOL0     H97680   1.395   3.270   1.364  2.4843  0.2042 -0.8254
  724MOL0     H97681   1.378   2.975   1.269 -2.5742 -0.0368  1.2325
  724MOL0     H97682   1.527   3.047   1.289  0.5069 -4.3003  1.8063
  724MOL0     H97683   1.327   3.006   1.504  0.2335 -4.9212  2.3851
  724MOL0     H97684   1.451   2.886   1.462 -1.3419 -0.0306 -0.5638
  724MOL0     H97685   1.623   3.083   1.509 -0.4065  0.0087  0.4181
  724MOL0     H97686   1.496   3.183   1.556 -0.2734  0.1558 -0.0440
  724MOL0     H97687   1.553   2.906   1.677  3.6304  1.0880 -2.2810
  724MOL0     H97688   1.439   3.032   1.745 -0.9223 -1.2375 -1.1559
  724MOL0     H97689   1.747   3.046   1.707  1.0701 -3.0541  3.0942
  724MOL0     H97690   1.661   3.173   1.780  1.1631  0.0774 -0.5923
  724MOL0     H97691   1.861   2.925   1.872 -0.6424  0.2143 -0.6535
  724MOL0     H97692   1.898   2.874   2.163  1.8083 -0.8071 -1.4465
  724MOL0     H97693   1.753   2.754   2.195 -0.1778 -2.6505 -0.9616
  724MOL0     H97694   1.803   2.646   1.979  0.6910  0.2365 -2.0239
  724MOL0     H97695   1.951   2.745   1.967  2.7611 -1.0712  2.5398
  724MOL0     H97696   1.904   2.519   2.168  0.9819 -1.7803 -1.1241
  724MOL0     H97697   2.042   2.623   2.183 -2.5603  1.7962  2.1813
  724MOL0     H97698   1.946   2.460   1.934 -0.4741 -4.6182  2.5764
  724MOL0     H97699   2.063   2.402   2.044 -0.9962 -1.3574 -1.8374
  724MOL0     H97700   2.087   2.325   1.836  1.0778 -3.7870  1.4023
  724MOL0     H97701   2.249   2.214   1.676 -1.0765 -0.3367  0.2622
  724MOL0     H97702   2.812   2.335   1.787  1.9363  1.7986 -1.0636
  724MOL0     H97703   3.011   2.220   1.757 -0.5412 -0.4707  0.1661
  724MOL0     H97704   3.131   2.179   1.337 -2.1781 -0.5603  0.4960
  724MOL0     H97705   3.279   2.135   1.418  0.3404  0.0632  1.6674
  724MOL0     H97706   3.209   1.898   1.432 -0.0400  0.1149  0.3226
  724MOL0     H97707   3.062   1.937   1.348  1.1688 -1.2324  1.3352
  724MOL0     H97708   3.208   2.015   1.153 -1.5617 -0.0104  0.0556
  724MOL0     H97709   3.350   1.975   1.235 -0.7427  0.4251  3.5094
  724MOL0     H97710   3.153   1.749   1.223 -1.0248  0.8035  1.2761
  724MOL0     H97711   3.340   1.753   1.213  1.3905  0.2342 -3.7121
  724MOL0     H97712   3.294   1.866   0.983  0.0852 -0.0623 -0.4317
  724MOL0     H97713   3.131   1.822   0.995 -0.8522  0.3060  0.6711
  724MOL0     H97714   3.279   1.565   1.051 -1.0438 -2.0926 -2.9948
  724MOL0     H97715   3.134   1.614   0.981  0.6268 -1.5759  0.9962
  724MOL0     H97716   3.424   1.656   0.893  0.1261  3.1533  3.1222
  724MOL0     H97717   3.297   1.721   0.799  0.2060 -2.2108 -1.1148
  724MOL0     H97718   3.345   1.432   0.840  3.5814  1.0666 -2.2832
  724MOL0     H97719   3.190   1.486   0.765 -0.1317  0.9115 -2.8680
  724MOL0     H97720   2.897   2.148   1.342  1.4287 -3.4099  2.1140
  724MOL0     H97721   2.686   2.251   1.393  1.3084 -0.1481 -0.0991
  724MOL0     H97722   2.512   2.549   1.709 -1.6372 -1.0840 -2.6446
  724MOL0     H97723   2.342   2.665   1.863  0.3665  2.3283 -4.9100
  724MOL0     H97724   1.636   3.405   0.959 -0.1975  2.6795 -1.3653
  724MOL0     H97725   1.802   3.561   0.885  0.1173 -0.4159  0.1329
  724MOL0     H97726   2.223   3.678   0.775 -2.7922  0.8461 -0.5619
  724MOL0     H97727   2.451   3.811   0.772  2.3250 -2.9050  3.6023
  724MOL0     H97728   2.549   4.008   1.105 -2.0144  0.1731 -0.8743
  724MOL0     H97729   2.613   4.152   1.034  3.2378 -0.7094  0.1802
  724MOL0     H97730   2.670   3.863   0.943  1.7285 -1.4349  0.7973
  724MOL0     H97731   2.766   3.938   1.072 -0.4750 -0.4200  0.1768
  724MOL0     H97732   2.793   4.111   0.864  1.7043 -0.1829 -1.8437
  724MOL0     H97733   2.782   3.951   0.783 -1.3096 -0.2157  0.2637
  724MOL0     H97734   3.015   4.023   0.854  0.2672  0.1860  1.5474
  724MOL0     H97735   2.970   3.993   1.024  0.3024  0.6975  0.0268
  724MOL0     H97736   3.059   3.616   0.862  1.1135 -0.3083  2.5986
  724MOL0     H97737   2.300   4.088   1.042 -1.6143  1.8198 -5.0777
  724MOL0     H97738   2.000   4.014   1.067 -0.1691  0.6907 -0.0880
  724MOL0     H97739   2.041   3.897   1.176 -0.6494  0.2606 -0.4412
  724MOL0     H97740   2.132   4.049   1.182  2.5933 -1.5500  1.6577
  725MOL0     O97741   6.863   5.071   1.070 -0.5598  0.3479  0.2729
  725MOL0     C97742   6.885   5.185   1.029  0.2583  0.1741  0.5988
  725MOL0     O97743   6.792   5.254   0.952  0.3848  0.2606 -0.7938
  725MOL0     C97744   6.677   5.174   0.910  0.1944 -0.6850 -1.0015
  725MOL0     C97745   6.705   5.075   0.819 -1.0926 -0.7755  0.6597
  725MOL0     C97746   6.596   5.006   0.754 -0.4442  0.6823 -0.7891
  725MOL0     C97747   6.468   5.024   0.813  0.2838  0.8164 -0.4945
  725MOL0     O97748   6.360   4.951   0.762  0.4316  0.1142 -0.2726
  725MOL0     C97749   6.350   4.924   0.620  0.1543 -1.0236  0.1984
  725MOL0     C97750   6.391   4.779   0.588 -0.5831  0.2221 -0.2603
  725MOL0     C97751   6.286   4.686   0.633  0.3585  0.0780  0.3092
  725MOL0     C97752   6.335   4.544   0.622  0.1538  0.1421  0.0545
  725MOL0     C97753   6.283   4.453   0.729  0.8194  1.0960 -0.7482
  725MOL0     C97754   6.315   4.306   0.685  0.2180  0.0047  0.8928
  725MOL0     C97755   6.196   4.216   0.687 -0.0837  0.7411 -0.1798
  725MOL0     C97756   6.119   4.248   0.559  1.0085  0.4293  0.2361
  725MOL0     N97757   6.175   4.201   0.426  0.5312 -0.0723  0.1199
  725MOL0     C97758   6.167   4.073   0.376 -1.3522  0.0639 -1.1124
  725MOL0     C97759   6.184   4.084   0.242 -0.5336 -0.4097  0.1171
  725MOL0     C97760   6.190   3.974   0.143  0.2760  0.2736 -0.5687
  725MOL0     C97761   6.220   4.019   0.000 -0.0304  1.2055  0.0336
  725MOL0     C97762   6.223   3.898  -0.085 -0.3589 -0.6353 -0.6350
  725MOL0     C97763   6.364   3.835  -0.082  0.4673 -1.5326 -0.0767
  725MOL0     O97764   6.374   3.724  -0.176  0.0203  0.1381 -0.4148
  725MOL0     C97765   6.384   3.752  -0.311 -0.2009  0.3708 -0.7320
  725MOL0     C97766   6.405   3.872  -0.378 -0.3173 -0.4121 -0.1577
  725MOL0     C97767   6.413   3.882  -0.514  0.5838  1.7497  0.2299
  725MOL0     C97768   6.401   3.770  -0.591 -0.9111 -0.2565 -0.4793
  725MOL0     C97769   6.440   3.788  -0.731 -0.9377  0.3958  0.7987
  725MOL0     O97770   6.459   3.665  -0.798 -0.6724  0.7391 -0.0569
  725MOL0     C97771   6.483   3.664  -0.927  0.3271 -1.8311  0.0760
  725MOL0     C97772   6.608   3.626  -0.981  0.7541  0.2938  0.2697
  725MOL0     C97773   6.636   3.635  -1.117 -0.2137  0.5212  0.3136
  725MOL0     C97774   6.543   3.690  -1.208  0.1941  0.1405  0.0550
  725MOL0     O97775   6.581   3.708  -1.340 -0.4669 -0.0909 -0.6060
  725MOL0     C97776   6.562   3.833  -1.404 -0.2571  0.9531  0.3855
  725MOL0     C97777   6.675   3.865  -1.497 -0.8722 -0.0654  0.4028
  725MOL0     C97778   6.648   3.965  -1.611  0.2249  0.5806  0.1259
  725MOL0     C97779   6.581   3.884  -1.721  0.2011  0.7450  0.1865
  725MOL0     C97780   6.535   3.966  -1.831 -0.0144  0.6527  0.7691
  725MOL0     C97781   6.455   3.880  -1.932 -0.6388 -0.2542  0.2129
  725MOL0     C97782   6.390   3.963  -2.044  0.8313  0.4209  0.7582
  725MOL0     C97783   6.264   3.899  -2.105 -0.4454  0.4814  0.1857
  725MOL0    Cl97784   6.117   3.910  -1.998  0.6330  0.1404  0.3033
  725MOL0     C97785   6.418   3.736  -1.156 -0.1335 -0.1957 -0.2796
  725MOL0     C97786   6.393   3.732  -1.012  0.1407  0.2275  0.3210
  725MOL0     O97787   6.440   3.899  -0.789 -0.8135  0.2728  0.9867
  725MOL0     C97788   6.373   3.646  -0.527  0.8204  0.0801  0.2033
  725MOL0     C97789   6.367   3.640  -0.389 -1.1289 -0.0439 -0.4984
  725MOL0     N97790   6.200   4.226   0.217 -0.6367  0.2726  0.4183
  725MOL0     N97791   6.207   4.292   0.331  0.1092 -0.0224  0.5414
  725MOL0     C97792   6.442   5.113   0.911  0.2820  0.3275  1.1138
  725MOL0     C97793   6.545   5.189   0.961  0.0072 -0.7156  0.2323
  725MOL0     C97794   7.011   5.261   1.053  0.3367 -1.1632 -0.6425
  725MOL0     C97795   7.032   5.390   1.011 -0.5688 -0.6149 -0.0736
  725MOL0     C97796   7.147   5.461   1.025 -0.2671 -1.1159  0.2310
  725MOL0     C97797   7.246   5.409   1.095  0.0005  0.4106 -0.3138
  725MOL0     O97798   7.364   5.475   1.114 -0.5833 -0.1293 -0.1338
  725MOL0     C97799   7.371   5.619   1.094  0.4416 -0.1589 -0.0554
  725MOL0     C97800   7.516   5.666   1.113 -0.4223 -1.5571  0.2548
  725MOL0     C97801   7.632   5.573   1.055  0.8923 -0.2329 -0.6783
  725MOL0     C97802   7.639   5.561   0.900 -0.5076  0.2172 -1.0920
  725MOL0     C97803   7.689   5.674   0.835 -1.0452 -0.1158  0.5142
  725MOL0     C97804   7.727   5.765   0.762  0.4885 -0.5192 -0.3062
  725MOL0     C97805   7.226   5.281   1.159 -0.2921 -0.9525 -0.5413
  725MOL0     C97806   7.119   5.203   1.125  0.3899  0.3613  0.0343
  725MOL0     C97807   7.118   5.049   1.166  0.6330 -0.4823  0.1169
  725MOL0     H97808   6.809   5.067   0.790 -1.1905 -2.7435  0.7030
  725MOL0     H97809   6.618   4.930   0.680  0.2260  1.2695 -1.2004
  725MOL0     H97810   6.246   4.940   0.589 -0.4061 -0.5228  2.1551
  725MOL0     H97811   6.427   4.980   0.566 -0.5079  1.0818  1.3217
  725MOL0     H97812   6.486   4.764   0.640 -0.4076 -2.2952 -1.1363
  725MOL0     H97813   6.419   4.764   0.483  0.3789 -5.2550  0.4894
  725MOL0     H97814   6.188   4.696   0.587 -0.8415 -0.3524  2.5994
  725MOL0     H97815   6.269   4.697   0.741 -0.2642 -2.8507  0.5985
  725MOL0     H97816   6.295   4.505   0.528 -0.9144  0.5064  0.3447
  725MOL0     H97817   6.445   4.540   0.620  0.1878  0.8638  0.2681
  725MOL0     H97818   6.326   4.479   0.826  0.3813  2.4393 -0.8859
  725MOL0     H97819   6.175   4.471   0.733  0.2682 -2.0003  1.1507
  725MOL0     H97820   6.353   4.295   0.583  0.3125  0.4563  0.8752
  725MOL0     H97821   6.397   4.259   0.740 -0.4765 -3.3784 -0.6668
  725MOL0     H97822   6.135   4.219   0.778 -1.5109  0.2060 -1.0794
  725MOL0     H97823   6.230   4.112   0.677 -3.0350 -0.2833 -0.6857
  725MOL0     H97824   6.020   4.201   0.568 -1.5521  4.1504 -4.1795
  725MOL0     H97825   6.097   4.354   0.550  1.2215  0.5185  0.7460
  725MOL0     H97826   6.137   3.978   0.422  1.2012 -1.0054 -1.5113
  725MOL0     H97827   6.251   3.894   0.184 -3.1711 -1.6346  1.2952
  725MOL0     H97828   6.090   3.931   0.142  1.7889 -3.6313 -0.3302
  725MOL0     H97829   6.146   4.092  -0.034 -1.4318 -0.5186 -0.7732
  725MOL0     H97830   6.324   4.054  -0.001  1.4526 -2.6535  1.2969
  725MOL0     H97831   6.206   3.928  -0.189 -1.2871 -2.4999 -1.0771
  725MOL0     H97832   6.154   3.816  -0.063 -0.7914  0.6199  3.4548
  725MOL0     H97833   6.392   3.801   0.018 -0.7152 -1.0594  0.4258
  725MOL0     H97834   6.436   3.913  -0.108  1.7751 -2.9225 -0.8347
  725MOL0     H97835   6.424   3.967  -0.330  0.6581 -0.3040 -0.7339
  725MOL0     H97836   6.435   3.976  -0.564  0.2008  0.7388 -1.9763
  725MOL0     H97837   6.692   3.589  -0.924  1.1468 -0.1151 -0.5650
  725MOL0     H97838   6.734   3.607  -1.155 -1.7379 -1.3449 -2.6401
  725MOL0     H97839   6.470   3.821  -1.462 -1.1028 -7.5939  2.1726
  725MOL0     H97840   6.557   3.907  -1.324  5.6646 -0.0215  2.1759
  725MOL0     H97841   6.759   3.911  -1.444 -0.9612  1.2184 -0.5347
  725MOL0     H97842   6.712   3.774  -1.544 -0.4405  1.5821 -2.7389
  725MOL0     H97843   6.570   4.033  -1.575 -1.8357 -1.7834  0.4319
  725MOL0     H97844   6.730   4.019  -1.657 -0.3543  0.6374 -0.8759
  725MOL0     H97845   6.498   3.826  -1.679 -0.8051  0.7740 -1.6551
  725MOL0     H97846   6.644   3.805  -1.762  0.5221  0.8349  0.5042
  725MOL0     H97847   6.621   4.013  -1.881  0.1613  0.1287  0.5666
  725MOL0     H97848   6.474   4.048  -1.792  0.8513  0.8891  1.6480
  725MOL0     H97849   6.514   3.797  -1.973 -2.6167 -1.1503 -0.9531
  725MOL0     H97850   6.381   3.834  -1.867  0.3630  0.9366  2.2739
  725MOL0     H97851   6.477   3.966  -2.111  0.8348 -3.3152  0.3912
  725MOL0     H97852   6.373   4.068  -2.018  1.1760  1.4034 -2.4749
  725MOL0     H97853   6.241   3.959  -2.194 -2.1851  0.4830  0.5948
  725MOL0     H97854   6.291   3.796  -2.128 -0.9780  0.8624 -2.5276
  725MOL0     H97855   6.356   3.782  -1.232 -2.3364 -1.0146  0.9434
  725MOL0     H97856   6.299   3.768  -0.972 -0.1450 -1.0900  0.8835
  725MOL0     H97857   6.363   3.555  -0.586 -1.2378  0.5532 -0.2654
  725MOL0     H97858   6.346   3.541  -0.352 -1.0854  0.7540  1.8334
  725MOL0     H97859   6.341   5.135   0.942 -0.6776  1.0779 -2.1946
  725MOL0     H97860   6.521   5.277   1.021 -0.3766 -0.1827 -0.6722
  725MOL0     H97861   6.959   5.445   0.952  2.0112 -1.6476 -4.7201
  725MOL0     H97862   7.154   5.564   0.991 -1.2512 -0.7484  1.1017
  725MOL0     H97863   7.309   5.679   1.161  3.7395  4.2287 -0.4552
  725MOL0     H97864   7.342   5.633   0.990 -0.2933  0.4010  0.2228
  725MOL0     H97865   7.527   5.675   1.221  0.9289 -1.6054  0.1410
  725MOL0     H97866   7.535   5.764   1.067 -2.6771 -0.8304  0.7377
  725MOL0     H97867   7.600   5.472   1.082  1.2720 -0.5284 -1.3320
  725MOL0     H97868   7.717   5.607   1.115 -0.5124  0.9105  0.7681
  725MOL0     H97869   7.707   5.476   0.887 -1.6410 -1.1400  1.2409
  725MOL0     H97870   7.544   5.530   0.857 -0.3462 -2.0563  0.0075
  725MOL0     H97871   7.759   5.847   0.702 -0.7104 -0.4984 -0.9585
  725MOL0     H97872   7.294   5.247   1.236  1.0223  2.1209 -0.1745
  725MOL0     H97873   7.120   4.985   1.077  0.6004  1.3086 -1.2138
  725MOL0     H97874   7.207   5.034   1.227 -0.1769  0.8821  1.7407
  725MOL0     H97875   7.030   5.025   1.227  1.8343  2.4109  3.3171
  726MOL0     O97876   2.028   7.776   2.235 -1.0983 -0.3620 -0.0767
  726MOL0     C97877   1.987   7.662   2.202 -0.7514 -0.3660 -0.5925
  726MOL0     O97878   2.021   7.604   2.086 -0.3094  0.4105  0.2911
  726MOL0     C97879   2.043   7.683   1.974 -1.0709 -0.1415 -0.4183
  726MOL0     C97880   2.098   7.604   1.874 -0.6335  0.9981  0.8717
  726MOL0     C97881   2.157   7.663   1.760 -0.5803  0.3036 -0.9731
  726MOL0     C97882   2.143   7.805   1.739  0.6950  0.4911 -0.9146
  726MOL0     O97883   2.183   7.881   1.637  0.2174 -0.7068  0.4388
  726MOL0     C97884   2.251   7.806   1.526  0.1389 -0.0882 -1.2768
  726MOL0     C97885   2.282   7.906   1.409  0.2012  0.4540  1.2423
  726MOL0     C97886   2.359   8.033   1.465  0.5582  0.0919 -1.1003
  726MOL0     C97887   2.408   8.125   1.347  0.0882  0.7782 -0.3692
  726MOL0     C97888   2.493   8.237   1.393  0.2526 -0.2355  0.7264
  726MOL0     C97889   2.568   8.299   1.273 -0.7442 -0.6326 -0.1157
  726MOL0     C97890   2.614   8.436   1.324 -0.6195  0.0697  0.0746
  726MOL0     C97891   2.652   8.521   1.196  0.2282 -0.4333 -0.4022
  726MOL0     N97892   2.785   8.470   1.159 -1.1609 -0.5311 -0.0904
  726MOL0     C97893   2.897   8.498   1.227  0.2656 -0.6275  0.6124
  726MOL0     C97894   2.990   8.446   1.143 -0.1632 -0.4530  0.0059
  726MOL0     C97895   3.131   8.437   1.184  0.0723  0.2232  0.1756
  726MOL0     C97896   3.148   8.296   1.258 -0.0303 -0.9048  0.5886
  726MOL0     C97897   3.296   8.279   1.293 -0.1190 -0.3588  0.8465
  726MOL0     C97898   3.324   8.150   1.378 -0.7345  0.6707 -0.2560
  726MOL0     O97899   3.321   8.024   1.305  0.4256  0.1991  0.2540
  726MOL0     C97900   3.312   7.906   1.378  0.5243  0.5755  0.2174
  726MOL0     C97901   3.310   7.787   1.300 -0.0818 -0.2387 -0.4726
  726MOL0     C97902   3.290   7.657   1.361 -0.3829 -0.6903 -0.2390
  726MOL0     C97903   3.276   7.655   1.497  0.1757 -0.5879 -0.1689
  726MOL0     C97904   3.251   7.525   1.572  0.7474  0.9024 -0.0572
  726MOL0     O97905   3.238   7.410   1.497  0.1837  0.8692 -0.3629
  726MOL0     C97906   3.251   7.293   1.571  0.6890 -0.6210  0.4237
  726MOL0     C97907   3.372   7.256   1.623 -0.3594 -0.5005 -0.3454
  726MOL0     C97908   3.376   7.134   1.687  0.5740  0.4736  0.4145
  726MOL0     C97909   3.272   7.035   1.699  0.0633 -0.0895  0.6624
  726MOL0     O97910   3.314   6.924   1.760  0.0831 -0.2093 -0.0943
  726MOL0     C97911   3.275   6.797   1.710 -0.3921  0.0165 -0.3511
  726MOL0     C97912   3.375   6.734   1.599  0.5585  0.0838 -0.3967
  726MOL0     C97913   3.393   6.830   1.465 -0.1264 -0.2973 -0.2951
  726MOL0     C97914   3.444   6.759   1.335 -0.9492 -0.0265 -0.1517
  726MOL0     C97915   3.587   6.701   1.349 -0.2610 -0.2491 -0.7257
  726MOL0     C97916   3.622   6.625   1.238  0.5654 -0.3298  0.2101
  726MOL0     C97917   3.765   6.579   1.227  0.8771  0.1259  0.1212
  726MOL0     C97918   3.794   6.515   1.097 -0.1165 -0.0286 -0.8841
  726MOL0    Cl97919   3.950   6.422   1.122  0.1545 -0.4481  0.3211
  726MOL0     C97920   3.154   7.067   1.644  0.2423 -0.3357 -0.9804
  726MOL0     C97921   3.146   7.200   1.595  0.9246 -0.3230  0.4319
  726MOL0     O97922   3.266   7.530   1.691 -0.2239  0.7643  0.7038
  726MOL0     C97923   3.292   7.779   1.571 -0.0896  0.7546  0.0026
  726MOL0     C97924   3.311   7.900   1.514  1.1241  1.5762  0.0538
  726MOL0     N97925   2.939   8.388   1.028 -0.9042 -0.0358  0.1510
  726MOL0     N97926   2.814   8.405   1.046  0.4479  0.3365  0.0784
  726MOL0     C97927   2.065   7.874   1.833  0.3518  0.0921 -0.7462
  726MOL0     C97928   2.023   7.822   1.957 -0.2671 -0.2745  0.0275
  726MOL0     C97929   1.913   7.575   2.299  0.6033 -0.1001 -0.0226
  726MOL0     C97930   1.951   7.563   2.431 -0.1831 -0.8269 -1.3924
  726MOL0     C97931   1.906   7.464   2.522 -0.5653 -0.4067  0.3617
  726MOL0     C97932   1.805   7.378   2.475 -0.6319  0.5639 -0.0455
  726MOL0     O97933   1.766   7.266   2.543  0.2054 -0.0031 -0.5359
  726MOL0     C97934   1.850   7.217   2.651  0.0198  0.8589 -0.2844
  726MOL0     C97935   1.820   7.065   2.685  0.9085  0.2321  0.0882
  726MOL0     C97936   1.848   6.971   2.563  0.2965 -0.5461  1.2358
  726MOL0     C97937   1.813   6.830   2.589  0.5259  0.3496 -0.3383
  726MOL0     C97938   1.663   6.812   2.575 -0.2175 -0.7854  0.6712
  726MOL0     C97939   1.547   6.823   2.549  0.9459  0.6482  1.3235
  726MOL0     C97940   1.757   7.395   2.350 -0.0841  0.7860  0.4707
  726MOL0     C97941   1.807   7.493   2.266 -0.3468  0.4988 -0.1727
  726MOL0     C97942   1.743   7.512   2.128 -0.1580 -0.4495  1.0904
  726MOL0     H97943   2.097   7.496   1.878 -1.2531  0.6957 -3.2345
  726MOL0     H97944   2.193   7.605   1.676 -1.6163  1.3400 -2.1920
  726MOL0     H97945   2.343   7.773   1.573 -0.6103 -0.5788 -0.1098
  726MOL0     H97946   2.201   7.715   1.490  0.1524  0.0457 -1.6355
  726MOL0     H97947   2.196   7.942   1.353  1.8630  1.4724 -0.7890
  726MOL0     H97948   2.342   7.854   1.334 -3.7878 -1.4754 -0.9381
  726MOL0     H97949   2.452   8.007   1.515  0.2315  0.5748 -0.2311
  726MOL0     H97950   2.307   8.082   1.547  0.0438 -1.5271 -0.4248
  726MOL0     H97951   2.469   8.066   1.278  0.0429 -2.7724  2.3327
  726MOL0     H97952   2.326   8.176   1.296  1.2934  1.7680 -1.3989
  726MOL0     H97953   2.434   8.310   1.450 -0.6061 -2.7917  3.3272
  726MOL0     H97954   2.567   8.208   1.468  0.9931  0.6102  0.3485
  726MOL0     H97955   2.655   8.237   1.246  1.2144  1.5400  0.8127
  726MOL0     H97956   2.498   8.309   1.189 -1.0533  2.7551  0.3920
  726MOL0     H97957   2.693   8.439   1.399 -1.0343  4.1917  0.5828
  726MOL0     H97958   2.523   8.478   1.367 -0.8327 -0.0315 -0.2809
  726MOL0     H97959   2.586   8.511   1.110 -1.4593  0.4173  0.7355
  726MOL0     H97960   2.646   8.627   1.223  0.7338 -0.2006 -1.1817
  726MOL0     H97961   2.908   8.553   1.320 -0.2247 -1.9626  1.4785
  726MOL0     H97962   3.188   8.435   1.090  0.7846  1.2029  0.5638
  726MOL0     H97963   3.157   8.514   1.257 -2.5770 -0.0695  1.5307
  726MOL0     H97964   3.088   8.284   1.348 -0.0255 -0.6436  0.6265
  726MOL0     H97965   3.132   8.203   1.202  0.8627 -2.2456  2.4283
  726MOL0     H97966   3.337   8.364   1.348 -0.6255  1.9373 -2.0919
  726MOL0     H97967   3.362   8.266   1.207 -1.6419 -0.5373 -0.3435
  726MOL0     H97968   3.255   8.153   1.463  1.3956  4.9180  1.6721
  726MOL0     H97969   3.426   8.152   1.419 -0.9837 -0.2647  0.4475
  726MOL0     H97970   3.318   7.807   1.194 -0.0186  1.6699 -0.1390
  726MOL0     H97971   3.273   7.565   1.305  0.5455 -0.7874 -0.3830
  726MOL0     H97972   3.460   7.319   1.615  0.9699 -1.9746  1.4375
  726MOL0     H97973   3.470   7.106   1.734 -0.3160 -0.8972  1.4511
  726MOL0     H97974   3.268   6.742   1.804 -2.4589  1.2526  0.2755
  726MOL0     H97975   3.171   6.799   1.677 -0.8348  1.8819  1.0242
  726MOL0     H97976   3.473   6.705   1.636  1.1230 -0.9500 -2.5308
  726MOL0     H97977   3.327   6.640   1.568  0.8962 -0.1186 -0.3134
  726MOL0     H97978   3.289   6.863   1.455 -0.6504 -0.9068  2.5399
  726MOL0     H97979   3.460   6.915   1.482 -0.3280 -0.4578  1.4379
  726MOL0     H97980   3.443   6.831   1.252 -0.2903 -0.8084 -0.8470
  726MOL0     H97981   3.372   6.680   1.310  2.2591 -3.0244 -0.5201
  726MOL0     H97982   3.605   6.639   1.437  3.1180 -2.0733 -2.5195
  726MOL0     H97983   3.666   6.776   1.361  0.3734 -0.8953 -0.7806
  726MOL0     H97984   3.565   6.532   1.244 -2.1947  1.3073  2.1466
  726MOL0     H97985   3.588   6.683   1.152  0.2465 -0.7257  0.0658
  726MOL0     H97986   3.791   6.511   1.309 -0.6643 -1.2788 -0.4968
  726MOL0     H97987   3.834   6.663   1.242  2.5950 -1.1103 -0.4723
  726MOL0     H97988   3.715   6.441   1.083 -1.3850  1.2074 -0.4308
  726MOL0     H97989   3.801   6.592   1.020  0.6926  0.0688 -0.7247
  726MOL0     H97990   3.068   7.002   1.658  0.4877 -0.1163  2.5814
  726MOL0     H97991   3.046   7.241   1.582  0.3317 -1.9441 -0.5517
  726MOL0     H97992   3.287   7.771   1.679  2.0291 -2.7604 -0.0170
  726MOL0     H97993   3.303   7.989   1.577 -2.6285  1.0710  0.5491
  726MOL0     H97994   2.040   7.976   1.806  1.7150 -0.2527 -3.6063
  726MOL0     H97995   1.972   7.882   2.032 -0.8037  1.3067 -1.5392
  726MOL0     H97996   2.036   7.628   2.453 -0.1569 -1.4625  0.6390
  726MOL0     H97997   1.958   7.436   2.613 -2.6490  1.3803  2.2298
  726MOL0     H97998   1.832   7.276   2.741  1.7371 -2.4945  2.4924
  726MOL0     H97999   1.956   7.223   2.624 -0.2272 -1.9563 -2.3550
  726MOL0     H98000   1.716   7.045   2.713  1.6816  1.0380  4.2332
  726MOL0     H98001   1.892   7.046   2.765  0.9734  3.8206  1.0583
  726MOL0     H98002   1.954   6.977   2.538 -0.3536 -1.1659 -2.2839
  726MOL0     H98003   1.793   7.015   2.479  2.7707  1.8472  0.7371
  726MOL0     H98004   1.858   6.764   2.515 -1.4916 -0.4123 -0.9755
  726MOL0     H98005   1.835   6.792   2.690 -1.5803  1.5185  0.6282
  726MOL0     H98006   1.447   6.838   2.513  2.5865  2.5919 -3.1002
  726MOL0     H98007   1.683   7.321   2.321  1.1861  0.1465 -1.3430
  726MOL0     H98008   1.758   7.618   2.110 -0.2803 -0.9475 -3.0255
  726MOL0     H98009   1.797   7.467   2.043  0.2996  0.2171  1.0208
  726MOL0     H98010   1.638   7.483   2.126 -0.0240 -1.0106  1.6560
  727MOL0     O98011   4.976   4.734   5.177 -0.4613 -0.0368 -0.0114
  727MOL0     C98012   4.989   4.658   5.273 -0.5186 -0.0858  0.1213
  727MOL0     O98013   4.883   4.618   5.340 -0.5745  0.9419 -0.6346
  727MOL0     C98014   4.752   4.643   5.305 -0.1569  0.0201  0.1999
  727MOL0     C98015   4.658   4.669   5.412 -0.1780  0.0036  0.4641
  727MOL0     C98016   4.534   4.712   5.370 -0.1549 -0.0923 -0.5052
  727MOL0     C98017   4.494   4.713   5.232  1.1081 -0.0942 -1.3605
  727MOL0     O98018   4.369   4.769   5.214 -0.5654 -0.3347 -0.2127
  727MOL0     C98019   4.309   4.754   5.088 -0.7969  0.2944  0.2363
  727MOL0     C98020   4.335   4.854   4.976 -1.0275  0.8343 -1.2466
  727MOL0     C98021   4.299   4.796   4.832  0.5517 -0.2018  0.0911
  727MOL0     C98022   4.380   4.680   4.791  0.0676  0.1069 -0.4839
  727MOL0     C98023   4.368   4.654   4.640 -0.0158 -0.5845  0.3874
  727MOL0     C98024   4.466   4.755   4.578 -0.2826 -0.3808  0.4197
  727MOL0     C98025   4.442   4.775   4.429 -0.8115  0.7646  0.5516
  727MOL0     C98026   4.373   4.892   4.393  0.4512 -0.1369  1.0895
  727MOL0     N98027   4.261   4.925   4.483  0.5439  0.6682 -0.8509
  727MOL0     C98028   4.135   4.891   4.474  0.4797  0.3140  1.0589
  727MOL0     C98029   4.046   4.966   4.547  0.5373  0.5050 -0.2082
  727MOL0     C98030   3.885   4.938   4.564  0.0629 -0.4628  0.5051
  727MOL0     C98031   3.861   4.788   4.615  0.7667 -0.0624 -0.2264
  727MOL0     C98032   3.714   4.774   4.673 -0.6272 -0.1975 -0.2975
  727MOL0     C98033   3.701   4.853   4.802 -0.7607  0.5945 -0.0576
  727MOL0     O98034   3.612   4.797   4.902  0.4554 -0.1576  0.1197
  727MOL0     C98035   3.491   4.869   4.909 -0.2247  0.3928 -0.8320
  727MOL0     C98036   3.418   4.905   4.805 -0.1935 -0.3282  0.6285
  727MOL0     C98037   3.294   4.968   4.821 -0.2486  0.3040 -0.0691
  727MOL0     C98038   3.237   4.985   4.953 -0.1203 -0.1976  0.1470
  727MOL0     C98039   3.107   5.051   4.975  0.2666 -0.5450 -0.4284
  727MOL0     O98040   3.094   5.111   5.098 -0.1852  0.3056  0.1324
  727MOL0     C98041   2.968   5.143   5.152 -0.4248  0.3622  0.2738
  727MOL0     C98042   2.880   5.241   5.104 -0.4666 -0.5086 -0.1814
  727MOL0     C98043   2.760   5.260   5.166  0.2525  0.5872  1.1828
  727MOL0     C98044   2.720   5.183   5.275  0.4005 -0.1105  0.7565
  727MOL0     O98045   2.598   5.194   5.346  0.1099  0.6209  0.1944
  727MOL0     C98046   2.481   5.239   5.280 -0.3621  0.3108 -0.0772
  727MOL0     C98047   2.354   5.233   5.379  0.7499 -0.4753 -0.3341
  727MOL0     C98048   2.373   5.303   5.517  0.3214  0.8008 -0.2075
  727MOL0     C98049   2.234   5.343   5.586  0.1280  0.3258  0.3889
  727MOL0     C98050   2.265   5.467   5.673  0.3436  0.7121  0.1825
  727MOL0     C98051   2.132   5.528   5.710  0.1708  0.0531 -0.2676
  727MOL0     C98052   2.174   5.658   5.780  0.7369  0.0963  0.4937
  727MOL0     C98053   2.119   5.665   5.916  0.6298  0.1968 -0.2406
  727MOL0    Cl98054   2.174   5.811   5.995 -0.5243  0.1101  0.4051
  727MOL0     C98055   2.811   5.095   5.334 -1.1784  0.0347 -1.0127
  727MOL0     C98056   2.941   5.079   5.274 -0.3326  0.0823 -0.7675
  727MOL0     O98057   3.018   5.047   4.892 -0.1392 -0.1408  0.4540
  727MOL0     C98058   3.297   4.910   5.053 -0.7218 -0.3371  0.0126
  727MOL0     C98059   3.425   4.860   5.033 -1.2108  0.7128  0.3103
  727MOL0     N98060   4.126   5.064   4.601 -0.0301  0.4951 -0.2148
  727MOL0     N98061   4.256   5.038   4.561  0.7458 -0.6763  0.5726
  727MOL0     C98062   4.579   4.668   5.134  0.3121 -0.3525 -0.4551
  727MOL0     C98063   4.708   4.642   5.169  0.4878  0.3926 -2.1132
  727MOL0     C98064   5.120   4.605   5.314 -0.5447  1.0933 -0.9921
  727MOL0     C98065   5.123   4.524   5.435  0.9960 -0.4608 -0.3967
  727MOL0     C98066   5.235   4.442   5.454  0.0112 -0.4039 -0.2734
  727MOL0     C98067   5.350   4.449   5.374  1.1563  0.5722  0.1346
  727MOL0     O98068   5.473   4.391   5.395  0.2478  0.3252 -0.8671
  727MOL0     C98069   5.510   4.320   5.523 -0.2284  0.0462  0.1040
  727MOL0     C98070   5.652   4.365   5.551  0.0083  0.9958 -0.0551
  727MOL0     C98071   5.707   4.267   5.652 -0.6927  0.4084  0.0349
  727MOL0     C98072   5.728   4.123   5.598 -0.6728  0.6208  0.5744
  727MOL0     C98073   5.862   4.127   5.545 -0.4315  0.6664 -0.2408
  727MOL0     C98074   5.976   4.119   5.502  0.3087  0.9116  0.0676
  727MOL0     C98075   5.344   4.534   5.274  0.4466 -0.8937 -0.4182
  727MOL0     C98076   5.235   4.608   5.237 -0.7130 -0.2467 -1.1296
  727MOL0     C98077   5.253   4.685   5.111 -0.1195 -0.9324  0.5077
  727MOL0     H98078   4.681   4.653   5.516  0.5242  1.0818  0.4935
  727MOL0     H98079   4.460   4.748   5.441  1.5500 -1.0060  1.8661
  727MOL0     H98080   4.333   4.654   5.051  0.4584 -0.2963  2.4120
  727MOL0     H98081   4.202   4.748   5.111 -0.3188  1.4433  3.2012
  727MOL0     H98082   4.441   4.880   4.978 -0.5721 -0.9035 -0.2304
  727MOL0     H98083   4.268   4.938   4.995 -0.7127  0.7505  0.4620
  727MOL0     H98084   4.319   4.877   4.761  1.3621  1.4307  2.0705
  727MOL0     H98085   4.191   4.781   4.823  0.1869  1.4165  1.2800
  727MOL0     H98086   4.486   4.690   4.817  1.1913 -2.9680 -3.1817
  727MOL0     H98087   4.347   4.592   4.847 -0.1173  1.5726  1.8316
  727MOL0     H98088   4.404   4.554   4.614 -0.7749 -0.9839  0.8513
  727MOL0     H98089   4.265   4.656   4.603 -0.2273  0.2210  0.9963
  727MOL0     H98090   4.468   4.851   4.631 -1.0197  0.5414 -1.1512
  727MOL0     H98091   4.563   4.705   4.581  1.4079  2.7010  1.0630
  727MOL0     H98092   4.388   4.686   4.394 -0.2328  1.2035 -1.6036
  727MOL0     H98093   4.541   4.782   4.381 -0.2683 -1.2184  1.2560
  727MOL0     H98094   4.434   4.983   4.390  1.1617 -0.6143  0.9242
  727MOL0     H98095   4.327   4.874   4.296  1.6695 -0.2061  0.5128
  727MOL0     H98096   4.105   4.802   4.419  3.2361  1.6198 -3.0302
  727MOL0     H98097   3.847   5.012   4.634  0.0739 -0.7637  0.8334
  727MOL0     H98098   3.849   4.951   4.462  0.3229 -1.2611  0.3076
  727MOL0     H98099   3.874   4.727   4.525  0.2527 -0.8538  0.2285
  727MOL0     H98100   3.931   4.746   4.688 -1.0645 -3.6002 -0.3100
  727MOL0     H98101   3.691   4.669   4.690 -0.3238 -0.4689 -1.4845
  727MOL0     H98102   3.652   4.810   4.591  1.9664 -0.8636 -2.7069
  727MOL0     H98103   3.670   4.949   4.760  2.9325  1.6041 -0.9232
  727MOL0     H98104   3.798   4.865   4.852 -0.2856 -5.3081  1.1594
  727MOL0     H98105   3.457   4.896   4.704 -2.5925  2.4148 -0.6871
  727MOL0     H98106   3.257   5.011   4.728 -4.5365  1.8446  2.0710
  727MOL0     H98107   2.906   5.287   5.010 -1.1727  2.1596  0.8483
  727MOL0     H98108   2.710   5.345   5.123  1.6317  1.0815  0.4926
  727MOL0     H98109   2.496   5.344   5.253 -0.2662  0.0078 -1.2750
  727MOL0     H98110   2.467   5.178   5.191  2.3635 -1.5565  0.6748
  727MOL0     H98111   2.279   5.284   5.318  2.3704 -0.5560 -2.4938
  727MOL0     H98112   2.322   5.130   5.402  1.3913 -0.5194  0.4020
  727MOL0     H98113   2.438   5.240   5.578  1.9524  0.0047 -2.6194
  727MOL0     H98114   2.433   5.392   5.496  3.4554 -0.7444  1.5504
  727MOL0     H98115   2.202   5.257   5.647 -1.7472  0.7300  0.0264
  727MOL0     H98116   2.147   5.361   5.522 -0.4836 -2.8776  0.1445
  727MOL0     H98117   2.330   5.532   5.613  1.6702 -0.9012 -0.1913
  727MOL0     H98118   2.318   5.452   5.767  1.7565  0.5722 -0.6155
  727MOL0     H98119   2.084   5.554   5.615  0.1237 -0.2811 -0.3377
  727MOL0     H98120   2.071   5.456   5.766 -1.5877  2.0237  0.5081
  727MOL0     H98121   2.137   5.745   5.726 -0.1289 -1.4879 -1.5887
  727MOL0     H98122   2.283   5.671   5.783  0.7234  0.5467 -0.6177
  727MOL0     H98123   2.010   5.659   5.926  0.4120 -2.9444 -2.6284
  727MOL0     H98124   2.155   5.579   5.974 -2.8758 -0.8619  0.6404
  727MOL0     H98125   2.786   5.052   5.431 -2.1370  1.6781 -0.4812
  727MOL0     H98126   3.026   5.034   5.324 -2.9823 -1.6390  2.6267
  727MOL0     H98127   3.259   4.907   5.154 -2.2181 -1.3378 -0.5531
  727MOL0     H98128   3.473   4.806   5.114  2.0765  0.6408 -1.5521
  727MOL0     H98129   4.560   4.669   5.027 -0.2977 -2.2345 -0.3944
  727MOL0     H98130   4.774   4.593   5.098  1.5812  0.7776 -1.3935
  727MOL0     H98131   5.043   4.517   5.507 -0.7365  1.1716 -2.0337
  727MOL0     H98132   5.232   4.383   5.545  1.6768 -1.6178 -0.9493
  727MOL0     H98133   5.493   4.215   5.501 -2.0286  0.2316  0.5163
  727MOL0     H98134   5.445   4.350   5.605 -0.0432 -0.8085  0.5706
  727MOL0     H98135   5.647   4.468   5.587  3.1092  1.4069 -0.5546
  727MOL0     H98136   5.709   4.361   5.457 -3.2056 -2.0033 -2.1318
  727MOL0     H98137   5.642   4.277   5.740 -0.4987 -1.9967  0.5269
  727MOL0     H98138   5.802   4.309   5.686 -1.3394  1.7456  0.2904
  727MOL0     H98139   5.714   4.044   5.672  1.0887 -1.2925 -0.9995
  727MOL0     H98140   5.656   4.096   5.520  1.4275 -1.2550 -0.8328
  727MOL0     H98141   6.076   4.121   5.462 -0.3236  0.2656 -1.6152
  727MOL0     H98142   5.432   4.534   5.211  1.9546  0.4351  1.5661
  727MOL0     H98143   5.215   4.631   5.024  1.5570 -0.3256 -0.6630
  727MOL0     H98144   5.193   4.776   5.107 -2.7483 -2.6211 -1.5765
  727MOL0     H98145   5.358   4.711   5.092 -0.4530 -0.0184 -0.1123
  728MOL0     O98146   7.333   9.741   3.578 -0.5210 -0.1542  0.4708
  728MOL0     C98147   7.229   9.715   3.525 -1.1000 -0.3906 -0.1149
  728MOL0     O98148   7.141   9.621   3.560  0.3350 -0.7901 -0.6935
  728MOL0     C98149   7.141   9.596   3.701  0.1302  0.5270 -0.3274
  728MOL0     C98150   7.239   9.502   3.735  0.3603  0.2944 -0.7597
  728MOL0     C98151   7.253   9.481   3.875  0.8008  0.2406 -0.3282
  728MOL0     C98152   7.185   9.551   3.970  0.7743  0.0259  0.3980
  728MOL0     O98153   7.209   9.540   4.103  0.1597  0.9981 -0.1535
  728MOL0     C98154   7.306   9.455   4.163 -0.1085  0.7897 -0.9513
  728MOL0     C98155   7.322   9.465   4.316  0.5889 -0.7412  0.9660
  728MOL0     C98156   7.218   9.397   4.401 -0.1229  0.5219 -1.0327
  728MOL0     C98157   7.269   9.396   4.548  0.3504  0.9713 -0.7977
  728MOL0     C98158   7.155   9.369   4.640 -0.4808 -0.4743  0.0098
  728MOL0     C98159   7.210   9.293   4.773  0.2458 -0.2832 -0.1230
  728MOL0     C98160   7.277   9.161   4.753 -0.3718  0.6345 -0.5351
  728MOL0     C98161   7.289   9.086   4.882 -0.0747  1.1521  0.4129
  728MOL0     N98162   7.419   9.021   4.901 -0.7432 -0.7942  0.3772
  728MOL0     C98163   7.444   8.896   4.953  0.4522 -1.0269  0.5660
  728MOL0     C98164   7.574   8.882   4.935 -1.3858  0.7188 -0.8828
  728MOL0     C98165   7.662   8.772   4.979 -0.2394 -0.5411  0.3871
  728MOL0     C98166   7.731   8.793   5.112  0.1653 -0.3795  0.2671
  728MOL0     C98167   7.816   8.677   5.145 -0.3570  0.2199 -0.4841
  728MOL0     C98168   7.881   8.689   5.289  0.0675 -0.2815  0.6275
  728MOL0     O98169   7.959   8.817   5.306 -0.3488  0.9331 -0.1621
  728MOL0     C98170   8.049   8.816   5.414  0.6372  0.4425  0.2689
  728MOL0     C98171   8.160   8.908   5.409 -1.1769  0.4717 -0.6086
  728MOL0     C98172   8.257   8.908   5.514  0.5597 -0.6634 -0.0626
  728MOL0     C98173   8.236   8.839   5.633 -0.0712  0.5206 -0.8107
  728MOL0     C98174   8.338   8.844   5.736  1.1699  0.3550 -0.6337
  728MOL0     O98175   8.463   8.902   5.705 -0.5173 -0.0015  0.3339
  728MOL0     C98176   8.537   8.938   5.818  0.0567  0.2524 -0.0492
  728MOL0     C98177   8.558   9.076   5.842  0.0613  0.1400  0.3526
  728MOL0     C98178   8.610   9.123   5.958 -1.5283 -0.2224 -0.7342
  728MOL0     C98179   8.655   9.028   6.057 -0.2888  0.2167  0.3275
  728MOL0     O98180   8.715   9.064   6.176  0.0245  0.0887  0.1721
  728MOL0     C98181   8.645   9.173   6.246  0.4763 -0.9066 -0.7988
  728MOL0     C98182   8.726   9.236   6.355  0.3467  0.6093  0.2476
  728MOL0     C98183   8.855   9.303   6.303 -0.2058 -0.4794  0.3608
  728MOL0     C98184   8.816   9.453   6.266  0.6532  0.8553 -0.1792
  728MOL0     C98185   8.934   9.536   6.208  0.7521 -0.2290  0.1846
  728MOL0     C98186   8.896   9.674   6.160  0.2621  0.2320 -0.5710
  728MOL0     C98187   9.027   9.756   6.125 -0.9240 -0.1728 -0.7675
  728MOL0     C98188   8.988   9.887   6.051 -0.5431 -0.2085  0.2051
  728MOL0    Cl98189   9.116  10.006   6.052 -0.4720 -0.3032  0.0070
  728MOL0     C98190   8.637   8.889   6.041 -0.5399  0.1200 -0.1217
  728MOL0     C98191   8.580   8.848   5.922 -0.1419  0.0403 -0.0933
  728MOL0     O98192   8.319   8.780   5.839  0.0950 -0.9011  0.6126
  728MOL0     C98193   8.125   8.749   5.645 -0.1566  0.8431 -0.3553
  728MOL0     C98194   8.040   8.744   5.536  0.4764  0.3838  0.0414
  728MOL0     N98195   7.639   8.985   4.870  1.1952  1.0939 -0.0272
  728MOL0     N98196   7.544   9.070   4.865  0.1117 -0.1063 -0.4339
  728MOL0     C98197   7.097   9.646   3.932 -0.1453  0.5408 -0.3270
  728MOL0     C98198   7.069   9.670   3.799 -0.4533  0.7362  0.5507
  728MOL0     C98199   7.194   9.778   3.390  0.0808  0.6257  0.1241
  728MOL0     C98200   7.106   9.708   3.315  0.0978 -0.1411 -0.3354
  728MOL0     C98201   7.053   9.751   3.190  0.5987 -1.3547 -0.1954
  728MOL0     C98202   7.084   9.883   3.148  0.3239 -0.4042 -0.3810
  728MOL0     O98203   7.036   9.921   3.026 -0.5934  0.3710  0.0694
  728MOL0     C98204   6.991  10.055   3.018  0.4041 -0.0131 -0.7784
  728MOL0     C98205   7.108  10.143   2.960  0.0488  0.1554 -0.1756
  728MOL0     C98206   7.089  10.293   2.985 -1.2284 -0.7389 -0.4946
  728MOL0     C98207   7.152  10.337   3.120 -0.5935 -0.3050 -1.1568
  728MOL0     C98208   7.300  10.300   3.140  1.1196 -0.4658  0.4350
  728MOL0     C98209   7.400  10.253   3.169 -0.3568 -0.1243  0.1963
  728MOL0     C98210   7.171   9.962   3.223 -0.1339 -0.7641 -0.1225
  728MOL0     C98211   7.225   9.909   3.344 -0.5539 -0.5929  0.0955
  728MOL0     C98212   7.311  10.002   3.422 -0.3823 -0.3437 -1.1780
  728MOL0     H98213   7.288   9.444   3.657 -2.6836  0.1435 -2.7297
  728MOL0     H98214   7.334   9.413   3.896  0.7775  0.0502 -0.8296
  728MOL0     H98215   7.275   9.355   4.134  0.4033 -0.2674  1.8283
  728MOL0     H98216   7.405   9.470   4.120 -1.3096 -0.0480 -4.3090
  728MOL0     H98217   7.335   9.572   4.337  1.6045 -0.4180 -1.0995
  728MOL0     H98218   7.420   9.417   4.326  1.0225 -0.5910 -1.9155
  728MOL0     H98219   7.202   9.297   4.361  2.3136  0.8046 -2.9207
  728MOL0     H98220   7.117   9.441   4.400 -1.0097 -1.4343 -1.6842
  728MOL0     H98221   7.363   9.340   4.550  1.5140  2.8947 -0.0080
  728MOL0     H98222   7.310   9.492   4.580  2.5113 -0.4081  0.8843
  728MOL0     H98223   7.105   9.463   4.663  0.4669 -0.0068  0.2349
  728MOL0     H98224   7.083   9.309   4.583 -0.6538  0.3621 -0.6636
  728MOL0     H98225   7.270   9.366   4.830 -1.1269  1.2006 -0.5066
  728MOL0     H98226   7.127   9.282   4.844 -0.2926 -0.3225 -0.7544
  728MOL0     H98227   7.373   9.164   4.701 -0.4443 -0.9980 -0.8157
  728MOL0     H98228   7.219   9.096   4.686  1.6750 -0.2368 -1.5455
  728MOL0     H98229   7.257   9.144   4.969 -1.8043 -2.6767  2.5586
  728MOL0     H98230   7.219   9.002   4.884  1.7989 -0.5086 -1.0004
  728MOL0     H98231   7.372   8.834   5.006  2.1806  0.7831  5.5287
  728MOL0     H98232   7.606   8.678   4.970 -1.0245  0.1058 -2.5059
  728MOL0     H98233   7.734   8.761   4.897 -1.2996  0.7495 -0.7681
  728MOL0     H98234   7.792   8.884   5.102 -1.5799  0.8402  0.2886
  728MOL0     H98235   7.659   8.813   5.192  3.4987  0.7932  3.2445
  728MOL0     H98236   7.891   8.663   5.067 -0.3476 -0.2807 -0.3938
  728MOL0     H98237   7.753   8.587   5.140  0.8660 -0.5989 -2.5216
  728MOL0     H98238   7.950   8.604   5.281  1.5174  1.0265 -3.0108
  728MOL0     H98239   7.805   8.669   5.365  0.1925 -1.3797  0.4855
  728MOL0     H98240   8.179   8.969   5.321  1.5772  0.5492 -0.0280
  728MOL0     H98241   8.336   8.982   5.514  2.0330 -2.1520 -0.6101
  728MOL0     H98242   8.522   9.133   5.757  0.9181 -3.9304 -3.0849
  728MOL0     H98243   8.638   9.228   5.958  1.9607 -0.9158  2.2103
  728MOL0     H98244   8.612   9.255   6.182 -1.9638  1.2466  2.8418
  728MOL0     H98245   8.549   9.133   6.279  0.7748 -1.2920 -0.3816
  728MOL0     H98246   8.660   9.303   6.411  1.6344  0.0344  2.6276
  728MOL0     H98247   8.763   9.168   6.433  0.0848  0.7747  0.5162
  728MOL0     H98248   8.929   9.304   6.383  1.6688  0.5135 -1.2866
  728MOL0     H98249   8.901   9.249   6.220 -0.0228  0.0920  0.0836
  728MOL0     H98250   8.784   9.495   6.362  1.2875 -4.7095  2.9028
  728MOL0     H98251   8.730   9.450   6.199  0.4471 -1.4874  0.1069
  728MOL0     H98252   8.985   9.479   6.130 -0.5334 -2.4187  0.8460
  728MOL0     H98253   9.000   9.558   6.293 -0.3561 -0.1132  1.0436
  728MOL0     H98254   8.829   9.654   6.076 -2.3083  2.5409  0.7876
  728MOL0     H98255   8.849   9.731   6.241  1.4214  0.2747  0.0963
  728MOL0     H98256   9.098   9.699   6.063 -0.3340 -0.6244  0.2943
  728MOL0     H98257   9.088   9.775   6.213 -0.3329 -0.3890 -1.1248
  728MOL0     H98258   8.938   9.871   5.955 -0.8521 -5.4926  0.9730
  728MOL0     H98259   8.913   9.924   6.122 -0.9616  0.8888 -0.7525
  728MOL0     H98260   8.678   8.820   6.114  1.3931 -1.9344 -2.9500
  728MOL0     H98261   8.557   8.745   5.897  0.7577  0.1115 -1.3063
  728MOL0     H98262   8.117   8.684   5.731  1.5611  1.5710  0.4028
  728MOL0     H98263   7.969   8.665   5.559 -0.1828  1.2280  0.9584
  728MOL0     H98264   7.060   9.716   4.006  0.8864 -0.6327  1.3708
  728MOL0     H98265   7.000   9.750   3.775  0.6951  1.2357 -1.3360
  728MOL0     H98266   7.089   9.604   3.343 -1.0657  0.0304 -0.3303
  728MOL0     H98267   6.986   9.690   3.131 -2.7465  0.9715  0.9119
  728MOL0     H98268   6.963  10.100   3.114  1.7561 -1.3365  0.2716
  728MOL0     H98269   6.901  10.056   2.954 -0.2530  0.7382  0.1310
  728MOL0     H98270   7.101  10.134   2.851  3.5923  1.8341 -0.6602
  728MOL0     H98271   7.205  10.095   2.974 -0.2814  0.0192  2.0506
  728MOL0     H98272   6.981  10.310   2.988 -1.2245 -0.8097  1.2041
  728MOL0     H98273   7.125  10.356   2.903  0.9707  2.9767  2.9336
  728MOL0     H98274   7.147  10.446   3.130 -0.9103 -0.4603  0.6502
  728MOL0     H98275   7.088  10.299   3.199 -0.1341  2.3148  0.5790
  728MOL0     H98276   7.497  10.207   3.177  0.1770  1.1057  1.1799
  728MOL0     H98277   7.211  10.053   3.181 -3.0945  0.1678 -1.1445
  728MOL0     H98278   7.277   9.979   3.524 -0.0365 -0.1357 -1.0142
  728MOL0     H98279   7.418   9.978   3.421 -0.8343 -2.8605  0.7677
  728MOL0     H98280   7.281  10.106   3.409 -1.3516  0.0043  2.5345
  729MOL0     O98281   9.517   9.875   0.504  0.4562  0.6703 -0.6209
  729MOL0     C98282   9.604   9.916   0.431 -0.1120  0.4499  0.2979
  729MOL0     O98283   9.732   9.954   0.462 -0.5786  0.4796 -0.5369
  729MOL0     C98284   9.756   9.987   0.594  0.2583  0.6347  0.7223
  729MOL0     C98285   9.867   9.936   0.650  0.0437  0.2876  0.2458
  729MOL0     C98286   9.894   9.970   0.782  0.9067  0.9163 -0.1292
  729MOL0     C98287   9.819  10.067   0.853 -0.0789 -0.3391  0.3601
  729MOL0     O98288   9.855  10.100   0.981  0.5863 -0.4770 -0.3588
  729MOL0     C98289   9.767  10.196   1.043  0.3484 -1.5056 -0.2611
  729MOL0     C98290   9.799  10.238   1.183  0.4685  0.0700 -0.5176
  729MOL0     C98291   9.853  10.128   1.268 -0.3975  0.1014  0.3149
  729MOL0     C98292  10.008  10.084   1.229  0.4596  0.3280  1.1286
  729MOL0     C98293  10.101  10.031   1.339 -0.2024 -0.3279  0.3923
  729MOL0     C98294  10.247   9.995   1.284  0.1774 -1.2920 -0.7876
  729MOL0     C98295  10.370   9.994   1.389 -0.0297  0.3506  0.7653
  729MOL0     C98296  10.441  10.136   1.391 -0.2519  0.0547 -0.9783
  729MOL0     N98297  10.562  10.147   1.475  0.2280  0.2277  0.4352
  729MOL0     C98298  10.580  10.235   1.574  0.6297 -0.4908 -0.8721
  729MOL0     C98299  10.710  10.224   1.603 -0.6121 -0.5890 -0.8311
  729MOL0     C98300  10.777  10.311   1.716 -0.2211 -0.9421 -0.1402
  729MOL0     C98301  10.722  10.275   1.855  0.1192  0.3516 -1.0333
  729MOL0     C98302  10.786  10.354   1.967  0.4377 -0.1941  0.6263
  729MOL0     C98303  10.708  10.329   2.103  0.1856 -0.0394 -0.0583
  729MOL0     O98304  10.780  10.397   2.198  0.3933  0.2307  0.4998
  729MOL0     C98305  10.719  10.410   2.317  1.2636  0.6320  0.5698
  729MOL0     C98306  10.776  10.357   2.427 -0.2755 -0.1436 -0.4498
  729MOL0     C98307  10.708  10.366   2.548  0.7554 -0.3900 -0.3194
  729MOL0     C98308  10.584  10.443   2.567  0.5213 -0.2312  0.6876
  729MOL0     C98309  10.512  10.457   2.696  1.0307  0.3269  0.4077
  729MOL0     O98310  10.590  10.429   2.799 -0.3957  0.3440  0.4376
  729MOL0     C98311  10.543  10.424   2.921  0.3125  0.3883  0.7819
  729MOL0     C98312  10.619  10.460   3.025  0.0813 -1.1376  0.7697
  729MOL0     C98313  10.565  10.459   3.158 -0.0081  1.0940  0.1317
  729MOL0     C98314  10.439  10.421   3.184  0.2547  0.4823  0.3312
  729MOL0     O98315  10.387  10.390   3.310  0.0411 -0.3931 -0.6238
  729MOL0     C98316  10.462  10.427   3.428  0.3684 -0.4449 -0.1962
  729MOL0     C98317  10.371  10.426   3.551 -0.5426  0.7391  0.6138
  729MOL0     C98318  10.431  10.483   3.678  0.8565  0.9727 -0.4492
  729MOL0     C98319  10.544  10.391   3.717  1.0931  0.1265  0.0598
  729MOL0     C98320  10.578  10.427   3.862 -0.0411 -1.0974 -0.4570
  729MOL0     C98321  10.676  10.332   3.924  0.2759 -0.2499 -0.5521
  729MOL0     C98322  10.708  10.385   4.066 -0.4902 -0.1412 -0.0599
  729MOL0     C98323  10.829  10.309   4.136  0.6679 -0.5824  0.2529
  729MOL0    Cl98324  10.983  10.335   4.051  0.2373  0.3094  0.1275
  729MOL0     C98325  10.359  10.392   3.075  0.0773 -0.8069  0.2236
  729MOL0     C98326  10.408  10.378   2.944  0.3503 -0.2235 -0.3876
  729MOL0     O98327  10.402  10.510   2.700  0.2367  0.1156 -0.1944
  729MOL0     C98328  10.539  10.504   2.453  0.6885  0.6310  0.5349
  729MOL0     C98329  10.593  10.477   2.329  0.4915  1.2236 -0.3665
  729MOL0     N98330  10.767  10.132   1.520  0.6794 -0.3524 -0.1032
  729MOL0     N98331  10.683  10.079   1.443  0.0688 -1.1157  0.8713
  729MOL0     C98332   9.712  10.120   0.793 -0.4215 -0.0203  0.5789
  729MOL0     C98333   9.675  10.087   0.658 -1.7061 -0.5926 -0.2722
  729MOL0     C98334   9.573   9.937   0.288 -0.0407  0.5187 -0.3297
  729MOL0     C98335   9.683   9.908   0.193  0.3140 -0.8929  0.2706
  729MOL0     C98336   9.669   9.919   0.058 -0.2267 -0.0144 -1.0023
  729MOL0     C98337   9.541   9.951   0.006 -0.0441  0.0889 -1.3891
  729MOL0     O98338   9.495   9.943  -0.124 -0.1886 -0.9331 -0.6460
  729MOL0     C98339   9.584   9.914  -0.237 -0.8582  0.0269 -0.0834
  729MOL0     C98340   9.502   9.925  -0.369  0.1532 -0.6113 -0.5119
  729MOL0     C98341   9.487  10.066  -0.419 -1.4683  1.0919  0.4571
  729MOL0     C98342   9.610  10.111  -0.518 -0.0222  0.5591  0.1676
  729MOL0     C98343   9.571  10.043  -0.638 -0.3195  0.5148  0.3131
  729MOL0     C98344   9.529   9.981  -0.736 -0.4055  0.7412  0.3324
  729MOL0     C98345   9.429   9.960   0.102  0.5203 -1.5432  0.5296
  729MOL0     C98346   9.446   9.961   0.234  0.7151 -0.3055  0.7490
  729MOL0     C98347   9.332   9.999   0.322  0.2169  0.5613  1.0558
  729MOL0     H98348   9.917   9.855   0.598 -0.1606 -2.5196  3.9376
  729MOL0     H98349   9.975   9.915   0.827 -1.5823 -0.8881  2.4791
  729MOL0     H98350   9.763  10.290   0.987 -0.0822 -1.7030 -0.5709
  729MOL0     H98351   9.665  10.162   1.066 -1.0147  1.1366 -1.9049
  729MOL0     H98352   9.710  10.280   1.230  0.5905  1.1942 -1.2528
  729MOL0     H98353   9.880  10.311   1.188 -0.3784  0.9879  3.3909
  729MOL0     H98354   9.786  10.042   1.259  0.0970 -0.0864 -2.3505
  729MOL0     H98355   9.849  10.166   1.370 -1.0376  0.4872  0.1506
  729MOL0     H98356   9.999  10.007   1.152  0.0577 -0.4493  1.9373
  729MOL0     H98357  10.059  10.164   1.175  1.4381 -2.1368 -1.9378
  729MOL0     H98358  10.126  10.103   1.418 -4.1586  0.6665  0.9412
  729MOL0     H98359  10.038   9.951   1.379 -1.8891  0.7444 -0.0142
  729MOL0     H98360  10.239   9.890   1.253 -1.8183 -1.6656  0.8158
  729MOL0     H98361  10.271  10.062   1.200  1.1551 -0.4681  0.1164
  729MOL0     H98362  10.437   9.924   1.338 -0.2696  1.6065 -1.3857
  729MOL0     H98363  10.339   9.948   1.483  2.0020 -0.1475  1.2549
  729MOL0     H98364  10.466  10.172   1.291  2.0716  0.8725 -0.1521
  729MOL0     H98365  10.368  10.202   1.439 -0.5741  0.6805 -2.2986
  729MOL0     H98366  10.514  10.314   1.608  0.1432 -1.1423 -0.2671
  729MOL0     H98367  10.881  10.278   1.720 -0.4559 -1.5885  2.1031
  729MOL0     H98368  10.783  10.417   1.690  0.1561 -0.4180  1.9332
  729MOL0     H98369  10.613  10.289   1.853 -0.3026 -0.3436  3.9799
  729MOL0     H98370  10.746  10.169   1.862 -1.9791 -0.1639 -1.1088
  729MOL0     H98371  10.778  10.460   1.941 -0.8358 -0.3188  0.4046
  729MOL0     H98372  10.891  10.326   1.971  0.2358 -0.9210  0.8922
  729MOL0     H98373  10.714  10.223   2.127 -2.9506 -0.0164  1.3329
  729MOL0     H98374  10.603  10.357   2.111 -0.3012 -2.2046  2.2069
  729MOL0     H98375  10.862  10.293   2.413 -1.1725 -1.6183  0.5138
  729MOL0     H98376  10.751  10.301   2.623 -0.7122 -4.1071 -2.3947
  729MOL0     H98377  10.719  10.493   2.998 -1.2471  1.7700 -1.1257
  729MOL0     H98378  10.631  10.475   3.243 -0.7437 -1.2124  1.2218
  729MOL0     H98379  10.553  10.368   3.444  1.2891  1.6612  3.1788
  729MOL0     H98380  10.497  10.530   3.411 -0.0084  0.6056  4.2989
  729MOL0     H98381  10.289  10.490   3.520 -0.5298 -0.2631 -1.7855
  729MOL0     H98382  10.322  10.330   3.570 -0.8112  0.7632  0.0806
  729MOL0     H98383  10.478  10.582   3.667  1.2346  1.2493  2.7141
  729MOL0     H98384  10.356  10.487   3.757 -0.5001  2.9246 -1.7623
  729MOL0     H98385  10.627  10.406   3.647  0.0685  3.0639 -0.6898
  729MOL0     H98386  10.508  10.288   3.720  0.8920  0.2237  2.1161
  729MOL0     H98387  10.482  10.428   3.914  0.8289 -0.5325  1.2323
  729MOL0     H98388  10.627  10.524   3.872  4.7946 -3.0741 -2.0482
  729MOL0     H98389  10.635  10.232   3.936  2.4732 -1.1697 -0.1830
  729MOL0     H98390  10.760  10.323   3.855 -1.6793  1.8383 -3.4537
  729MOL0     H98391  10.615  10.395   4.124 -0.4772  1.0457 -0.2142
  729MOL0     H98392  10.747  10.486   4.048  0.9596 -0.8199 -0.8761
  729MOL0     H98393  10.843  10.337   4.240 -0.5392 -0.7295  0.4683
  729MOL0     H98394  10.805  10.203   4.141  0.8554 -0.5778  1.6484
  729MOL0     H98395  10.253  10.382   3.098 -0.6591 -2.1230 -3.1743
  729MOL0     H98396  10.337  10.358   2.864  3.0579  1.5423 -3.4847
  729MOL0     H98397  10.458  10.576   2.450 -0.7165 -0.9271 -1.6058
  729MOL0     H98398  10.555  10.518   2.235 -2.0936 -3.3052 -1.5920
  729MOL0     H98399   9.644  10.193   0.837  1.0754 -0.2611  3.5244
  729MOL0     H98400   9.594  10.140   0.610 -3.9173 -1.5561  2.1600
  729MOL0     H98401   9.782   9.886   0.230  0.5582  3.0403  2.5137
  729MOL0     H98402   9.753   9.902  -0.008 -1.5860  0.8201 -3.0256
  729MOL0     H98403   9.641   9.821  -0.223 -1.8282 -0.7490 -1.1358
  729MOL0     H98404   9.662   9.990  -0.242  0.8954 -1.7486 -1.2853
  729MOL0     H98405   9.404   9.877  -0.362  0.6801 -1.8113 -1.1015
  729MOL0     H98406   9.562   9.872  -0.444  4.0324  0.7657  1.3530
  729MOL0     H98407   9.474  10.137  -0.336 -2.2875 -0.5633  1.8036
  729MOL0     H98408   9.394  10.063  -0.477 -0.0450 -1.1487 -1.8841
  729MOL0     H98409   9.613  10.220  -0.527 -0.4550  0.4873 -1.0736
  729MOL0     H98410   9.702  10.076  -0.471  0.2885  0.7751 -0.2724
  729MOL0     H98411   9.497   9.925  -0.822 -0.4577 -1.3682  1.6414
  729MOL0     H98412   9.335   9.962   0.048  1.1715 -0.0810 -0.6231
  729MOL0     H98413   9.284   9.916   0.374 -1.5162  2.1957  2.1869
  729MOL0     H98414   9.366  10.070   0.398  0.1944  0.1785  1.4266
  729MOL0     H98415   9.263  10.059   0.262  2.4088  2.4524  0.2534
  730MOL0     O98416   1.512   7.158   5.500  0.4917 -0.1249 -0.0593
  730MOL0     C98417   1.588   7.255   5.527  0.6400 -0.2516 -0.1103
  730MOL0     O98418   1.597   7.380   5.452  0.5853  0.9205 -0.7904
  730MOL0     C98419   1.584   7.385   5.310 -0.8961  0.3855 -0.7688
  730MOL0     C98420   1.545   7.508   5.259  0.1637  0.4570  0.2194
  730MOL0     C98421   1.515   7.517   5.123 -1.0817 -0.4105  0.3281
  730MOL0     C98422   1.571   7.421   5.032 -0.6146  0.8609 -0.0285
  730MOL0     O98423   1.556   7.449   4.899 -0.3722 -0.2462  0.5556
  730MOL0     C98424   1.632   7.356   4.812 -0.0044 -0.2155  0.2955
  730MOL0     C98425   1.591   7.381   4.661 -0.3930 -0.3402  0.4707
  730MOL0     C98426   1.437   7.406   4.636 -0.6618  0.2231 -0.5001
  730MOL0     C98427   1.413   7.556   4.621  0.9432  0.4742  0.8916
  730MOL0     C98428   1.280   7.600   4.666  0.0979 -0.4238  0.6412
  730MOL0     C98429   1.242   7.747   4.647 -0.2095 -0.3625 -0.4176
  730MOL0     C98430   1.115   7.785   4.722  0.8182  0.4890  0.2970
  730MOL0     C98431   1.054   7.928   4.705 -0.2043 -0.3910  0.0235
  730MOL0     N98432   0.909   7.942   4.723 -0.7081 -0.1428 -0.3535
  730MOL0     C98433   0.807   7.885   4.661  0.2955 -0.0978  0.1542
  730MOL0     C98434   0.694   7.922   4.730 -0.8758 -0.3754  0.0789
  730MOL0     C98435   0.542   7.909   4.689 -0.3386 -0.6213  0.0126
  730MOL0     C98436   0.479   8.045   4.688  0.2439 -0.5040 -0.1831
  730MOL0     C98437   0.328   8.033   4.645 -0.6099 -0.7844  0.3137
  730MOL0     C98438   0.245   8.150   4.683  0.0679 -0.3394  1.0228
  730MOL0     O98439   0.288   8.267   4.612 -0.6358  0.5498 -0.0949
  730MOL0     C98440   0.270   8.264   4.477 -0.3331 -0.2908  0.1058
  730MOL0     C98441   0.382   8.245   4.392 -1.3304  0.2580  0.7598
  730MOL0     C98442   0.368   8.230   4.257  0.9180  0.2806 -0.2953
  730MOL0     C98443   0.237   8.238   4.207 -0.0216  0.4796  1.0063
  730MOL0     C98444   0.215   8.216   4.063 -0.4241  0.0960 -0.0022
  730MOL0     O98445   0.314   8.152   3.997  0.0121  0.6987  0.4313
  730MOL0     C98446   0.329   8.155   3.860  1.1444 -0.3818  0.3816
  730MOL0     C98447   0.240   8.216   3.766  0.4323 -0.1119  0.3104
  730MOL0     C98448   0.272   8.218   3.626 -0.4648  0.0679 -0.6159
  730MOL0     C98449   0.375   8.132   3.579  0.1435  0.4150  0.1517
  730MOL0     O98450   0.391   8.103   3.445 -0.0432 -0.8831 -0.4940
  730MOL0     C98451   0.306   8.002   3.403  0.1962 -0.4296 -0.0067
  730MOL0     C98452   0.387   7.913   3.300 -0.2346 -0.3191 -0.2063
  730MOL0     C98453   0.508   7.829   3.357  0.5322  0.4944 -1.0171
  730MOL0     C98454   0.483   7.705   3.435  0.4988  0.2440  0.1783
  730MOL0     C98455   0.399   7.595   3.360 -0.5355  0.6368 -0.5604
  730MOL0     C98456   0.345   7.490   3.467 -0.5304 -0.0103  0.3772
  730MOL0     C98457   0.327   7.345   3.406 -0.6276 -0.1454 -0.0820
  730MOL0     C98458   0.292   7.232   3.507 -0.1488 -0.5047  0.1088
  730MOL0    Cl98459   0.112   7.233   3.559  0.1067 -0.3023 -0.1870
  730MOL0     C98460   0.452   8.056   3.671 -0.5298 -0.7048  0.1044
  730MOL0     C98461   0.432   8.069   3.810 -0.2347 -1.2653  0.2776
  730MOL0     O98462   0.106   8.260   4.021 -0.2553 -0.7776 -0.0164
  730MOL0     C98463   0.127   8.270   4.291  0.1489 -0.1000 -0.5035
  730MOL0     C98464   0.129   8.257   4.428  0.1857 -0.2980 -0.6908
  730MOL0     N98465   0.735   8.008   4.834  0.4350  0.5516  0.0655
  730MOL0     N98466   0.864   8.021   4.825  0.5557 -0.1845 -0.0980
  730MOL0     C98467   1.638   7.311   5.085  0.5387  1.2003  0.1243
  730MOL0     C98468   1.639   7.288   5.225 -1.0539 -0.2764 -0.2121
  730MOL0     C98469   1.656   7.236   5.650 -0.1814  0.3097  0.2005
  730MOL0     C98470   1.642   7.331   5.752  0.4346 -0.4283  0.4622
  730MOL0     C98471   1.733   7.324   5.863  0.9145  0.3339  0.6774
  730MOL0     C98472   1.824   7.218   5.875 -0.9611 -0.0692 -0.6697
  730MOL0     O98473   1.917   7.194   5.980  0.1347  0.5119 -0.2731
  730MOL0     C98474   2.049   7.234   5.943 -0.3029 -0.6125  0.0738
  730MOL0     C98475   2.119   7.352   6.020 -0.2196  0.1676 -0.1059
  730MOL0     C98476   2.265   7.379   5.970 -0.7533 -0.6977  0.6938
  730MOL0     C98477   2.331   7.501   6.045 -0.8090  0.1985 -0.5304
  730MOL0     C98478   2.323   7.635   5.986 -0.1211  1.0687 -0.7572
  730MOL0     C98479   2.302   7.746   5.940 -0.0545  0.8316  0.8419
  730MOL0     C98480   1.833   7.127   5.770  1.1945 -0.0272 -0.2319
  730MOL0     C98481   1.754   7.138   5.657  0.8348  0.0641  0.1666
  730MOL0     C98482   1.793   7.051   5.546  0.3098  0.4045 -0.3395
  730MOL0     H98483   1.506   7.587   5.323 -0.2315  0.0487  0.4878
  730MOL0     H98484   1.463   7.600   5.075 -1.1766 -1.1382 -0.8599
  730MOL0     H98485   1.738   7.382   4.813  0.0468  0.2914 -3.6299
  730MOL0     H98486   1.599   7.252   4.822  2.0064 -0.8213  0.9822
  730MOL0     H98487   1.624   7.286   4.619  0.3387 -2.1609  4.6126
  730MOL0     H98488   1.647   7.461   4.612 -1.9997 -2.0625 -4.7991
  730MOL0     H98489   1.376   7.358   4.713  0.8716 -1.5769 -0.3340
  730MOL0     H98490   1.394   7.358   4.548  0.5300 -2.8651  0.4315
  730MOL0     H98491   1.479   7.614   4.687 -1.5297  0.0229  4.0047
  730MOL0     H98492   1.429   7.588   4.517 -2.3412  2.6164  0.8997
  730MOL0     H98493   1.201   7.537   4.623 -2.5122  0.7954  3.2403
  730MOL0     H98494   1.267   7.582   4.774 -1.6064 -1.1989  0.3411
  730MOL0     H98495   1.328   7.806   4.678  0.2822 -2.1537  1.8933
  730MOL0     H98496   1.223   7.760   4.540 -1.1681  0.5542 -0.1625
  730MOL0     H98497   1.122   7.770   4.830 -2.5756 -1.6534  0.3844
  730MOL0     H98498   1.036   7.718   4.686  1.4773 -1.4744  2.2958
  730MOL0     H98499   1.101   8.000   4.772 -2.4173 -0.0249  1.3015
  730MOL0     H98500   1.075   7.960   4.602  1.4261  1.4741  0.8775
  730MOL0     H98501   0.810   7.828   4.569  1.0814 -0.2056  0.2423
  730MOL0     H98502   0.533   7.866   4.589  1.6194 -0.7422 -0.1371
  730MOL0     H98503   0.495   7.843   4.762 -1.4885 -0.0602 -0.1908
  730MOL0     H98504   0.488   8.090   4.788  0.8606  3.5549 -1.8519
  730MOL0     H98505   0.526   8.115   4.618  1.0527 -0.1012  0.7426
  730MOL0     H98506   0.278   7.945   4.686 -0.6070 -0.8389  0.2038
  730MOL0     H98507   0.315   8.021   4.537  1.1949 -0.3323  0.0146
  730MOL0     H98508   0.247   8.172   4.790  1.5501 -0.3654  1.0157
  730MOL0     H98509   0.138   8.131   4.668 -0.2990  2.0268  0.0287
  730MOL0     H98510   0.479   8.234   4.441 -1.4151 -4.4205  0.3163
  730MOL0     H98511   0.457   8.214   4.197 -0.8113  0.7732 -3.1884
  730MOL0     H98512   0.145   8.254   3.801 -0.9023 -3.5810  0.8694
  730MOL0     H98513   0.210   8.270   3.554  2.8907  0.3159 -3.6021
  730MOL0     H98514   0.275   7.941   3.488  2.2015  1.3667  2.1790
  730MOL0     H98515   0.225   8.044   3.343  1.6529  2.8222  0.0973
  730MOL0     H98516   0.323   7.838   3.252  0.1284 -0.9189  0.2327
  730MOL0     H98517   0.427   7.983   3.226 -2.0776  0.4736 -0.4999
  730MOL0     H98518   0.573   7.793   3.277  4.6510  0.8869  1.8280
  730MOL0     H98519   0.577   7.898   3.406 -1.1623  2.0142 -0.6151
  730MOL0     H98520   0.427   7.728   3.526 -1.1779 -1.2102 -0.4073
  730MOL0     H98521   0.575   7.659   3.471 -1.0164 -2.4764  0.8810
  730MOL0     H98522   0.472   7.547   3.294  0.1109  0.0908  0.5155
  730MOL0     H98523   0.319   7.647   3.308 -0.2047 -0.6882 -2.5196
  730MOL0     H98524   0.416   7.483   3.550  0.2354 -1.7172 -0.3611
  730MOL0     H98525   0.248   7.526   3.502 -0.6609 -0.6258  0.6691
  730MOL0     H98526   0.427   7.321   3.369 -0.2144 -2.9096  2.4494
  730MOL0     H98527   0.255   7.342   3.323  0.3113 -0.8427 -0.9003
  730MOL0     H98528   0.320   7.134   3.468 -0.5954 -0.7073  0.2965
  730MOL0     H98529   0.357   7.246   3.595  1.7253  0.4079 -1.3396
  730MOL0     H98530   0.516   7.983   3.624 -0.3226  0.2555 -1.1631
  730MOL0     H98531   0.482   8.002   3.880 -0.7957 -0.0939  1.8707
  730MOL0     H98532   0.025   8.270   4.254  1.1481 -1.8293 -3.6150
  730MOL0     H98533   0.040   8.251   4.489  2.0858  2.3985  2.7203
  730MOL0     H98534   1.688   7.252   5.008  1.3125  0.4152  1.2053
  730MOL0     H98535   1.684   7.199   5.267 -2.7981 -1.6468 -1.0919
  730MOL0     H98536   1.569   7.410   5.743  0.5553 -0.2378  1.0994
  730MOL0     H98537   1.727   7.403   5.937  0.8922  2.6078 -1.6200
  730MOL0     H98538   2.077   7.252   5.839 -0.3242  2.0280  0.4515
  730MOL0     H98539   2.107   7.143   5.961  0.4113 -0.3836 -0.9775
  730MOL0     H98540   2.130   7.333   6.127  0.1877 -3.6603 -0.6879
  730MOL0     H98541   2.051   7.437   6.006  2.4843  2.0822 -2.9469
  730MOL0     H98542   2.259   7.385   5.861  0.3867 -1.2840  0.5838
  730MOL0     H98543   2.325   7.290   5.990  1.3390  0.7803  1.3697
  730MOL0     H98544   2.286   7.495   6.145 -3.5063 -0.0546 -1.6705
  730MOL0     H98545   2.435   7.468   6.055 -1.1023 -0.5789  0.0838
  730MOL0     H98546   2.287   7.839   5.888  1.2911 -0.6853 -2.6117
  730MOL0     H98547   1.905   7.047   5.788  2.8281  1.0696 -1.6248
  730MOL0     H98548   1.804   7.114   5.457  1.1858 -0.9404 -1.2179
  730MOL0     H98549   1.893   7.010   5.566  0.9441  1.1139 -1.8747
  730MOL0     H98550   1.732   6.963   5.522  2.9425 -1.1986 -1.6360
  731MOL0     O98551   1.233   1.706   6.981 -0.0037 -0.3150  0.1084
  731MOL0     C98552   1.193   1.725   6.870  0.1005 -0.7146  0.0024
  731MOL0     O98553   1.166   1.632   6.772  0.0894  0.6474  0.5944
  731MOL0     C98554   1.245   1.521   6.766  0.5733 -0.5636 -0.5155
  731MOL0     C98555   1.381   1.506   6.803  1.2280 -0.6501 -0.2588
  731MOL0     C98556   1.443   1.381   6.792  0.2590 -0.9733 -0.3432
  731MOL0     C98557   1.383   1.267   6.738  0.2563 -0.4339 -0.4689
  731MOL0     O98558   1.452   1.146   6.716  0.0933 -0.2046  0.5043
  731MOL0     C98559   1.389   1.032   6.768 -0.1704  0.6332 -0.2164
  731MOL0     C98560   1.330   0.942   6.650 -0.0570  0.4092  0.0636
  731MOL0     C98561   1.369   0.970   6.508 -0.1082  0.0262  0.0133
  731MOL0     C98562   1.278   0.892   6.417  0.0232 -0.8400  0.7596
  731MOL0     C98563   1.314   0.942   6.276  0.3647  1.0058  0.5817
  731MOL0     C98564   1.243   0.859   6.158  0.4970 -0.4111  0.1969
  731MOL0     C98565   1.285   0.921   6.030 -0.6172 -0.5255 -0.0126
  731MOL0     C98566   1.239   0.837   5.909  0.4604  0.4329  0.8251
  731MOL0     N98567   1.326   0.722   5.874 -0.6502  1.1149 -0.0747
  731MOL0     C98568   1.441   0.729   5.794 -0.1619 -0.0134 -0.8203
  731MOL0     C98569   1.517   0.629   5.836 -0.5842 -0.1633  0.0351
  731MOL0     C98570   1.657   0.605   5.784 -0.3025  0.0973  0.2054
  731MOL0     C98571   1.688   0.460   5.734 -0.8241 -0.2689 -0.4781
  731MOL0     C98572   1.639   0.414   5.601 -0.3311 -0.1845  0.0562
  731MOL0     C98573   1.662   0.260   5.594  0.1416 -0.3353 -0.4459
  731MOL0     O98574   1.778   0.214   5.660 -0.6198 -0.2678  0.4762
  731MOL0     C98575   1.897   0.232   5.587 -0.1226  0.1213  0.6273
  731MOL0     C98576   1.913   0.286   5.454  0.0192  0.4568 -0.3931
  731MOL0     C98577   2.038   0.304   5.402 -0.4075 -1.1416 -0.3841
  731MOL0     C98578   2.154   0.282   5.491  0.3031  0.2114 -0.8710
  731MOL0     C98579   2.292   0.315   5.433 -0.1116  0.0705  0.1358
  731MOL0     O98580   2.293   0.394   5.334 -0.1185 -0.6389  0.0290
  731MOL0     C98581   2.408   0.455   5.288  0.8272  0.0729  0.0740
  731MOL0     C98582   2.465   0.565   5.348  0.3141 -0.3830 -0.5744
  731MOL0     C98583   2.580   0.624   5.280 -0.1185 -0.4575  0.7017
  731MOL0     C98584   2.621   0.574   5.156  0.2073 -0.2981 -0.9701
  731MOL0     O98585   2.724   0.625   5.084  0.2607 -0.1968  0.7271
  731MOL0     C98586   2.853   0.651   5.137  0.7510  0.7725  0.4423
  731MOL0     C98587   2.950   0.673   5.026  0.0331  0.0024 -0.4075
  731MOL0     C98588   2.970   0.538   4.945  0.8457  0.3214  0.8981
  731MOL0     C98589   3.049   0.546   4.822 -1.0902 -1.1410 -0.0000
  731MOL0     C98590   3.081   0.407   4.759  0.0012  0.4898  0.7465
  731MOL0     C98591   3.169   0.401   4.634  1.4797  0.5600 -1.2967
  731MOL0     C98592   3.182   0.265   4.577  1.0323  0.9361 -0.2179
  731MOL0     C98593   3.289   0.270   4.474  0.3722  0.2665  0.6093
  731MOL0    Cl98594   3.317   0.100   4.412 -0.5121  0.1431  0.0413
  731MOL0     C98595   2.559   0.469   5.098  1.1938 -0.5994  0.1651
  731MOL0     C98596   2.441   0.410   5.159 -1.8021  0.1723 -0.7089
  731MOL0     O98597   2.398   0.281   5.493  0.5812  0.4568  0.1064
  731MOL0     C98598   2.142   0.221   5.613  1.5746  0.8941 -1.6850
  731MOL0     C98599   2.005   0.195   5.660 -0.5163 -0.5927  0.5385
  731MOL0     N98600   1.462   0.559   5.941 -0.0361  1.1069 -0.1181
  731MOL0     N98601   1.348   0.618   5.961 -0.8737  0.1605  0.8229
  731MOL0     C98602   1.254   1.283   6.705 -0.7347  0.0278 -0.2180
  731MOL0     C98603   1.188   1.409   6.713  0.3733  0.3650  0.6196
  731MOL0     C98604   1.144   1.868   6.845 -0.2957 -0.0436 -0.4278
  731MOL0     C98605   1.043   1.897   6.748 -0.6194 -0.1311  0.2272
  731MOL0     C98606   0.995   2.030   6.729 -0.1833  0.9790  0.0704
  731MOL0     C98607   1.045   2.138   6.805 -0.5588 -0.6287  0.6483
  731MOL0     O98608   0.983   2.268   6.790 -0.0752  0.4735  0.7662
  731MOL0     C98609   0.975   2.364   6.898 -0.2389  0.1970 -0.4044
  731MOL0     C98610   0.920   2.316   7.025 -0.2892 -0.0787 -0.4744
  731MOL0     C98611   0.771   2.284   7.019 -0.0781 -0.7805  0.4770
  731MOL0     C98612   0.715   2.171   6.924  0.2427  0.6843  0.3116
  731MOL0     C98613   0.749   2.026   6.962  0.7904  0.1048  0.6871
  731MOL0     C98614   0.787   1.916   6.956  0.0291 -0.0515  0.1109
  731MOL0     C98615   1.150   2.109   6.891  0.1385  0.3701 -0.7941
  731MOL0     C98616   1.197   1.979   6.915  1.0496 -0.6426 -0.1536
  731MOL0     C98617   1.299   1.968   7.034  0.7132  0.2613  0.2484
  731MOL0     H98618   1.436   1.589   6.846 -0.1169  1.8816 -3.0389
  731MOL0     H98619   1.546   1.361   6.820  0.5091 -2.2139 -1.9907
  731MOL0     H98620   1.458   0.970   6.825  2.8775  3.7883 -0.1635
  731MOL0     H98621   1.308   1.070   6.832 -0.3495  2.8490 -1.6423
  731MOL0     H98622   1.223   0.926   6.668  0.4458  0.1142  3.3559
  731MOL0     H98623   1.365   0.841   6.668  2.1169  1.4389  2.1377
  731MOL0     H98624   1.469   0.936   6.481  0.1927  0.9755 -0.1241
  731MOL0     H98625   1.375   1.078   6.491  0.7481 -0.2085 -1.3467
  731MOL0     H98626   1.297   0.785   6.430  0.7524 -0.5035  2.7589
  731MOL0     H98627   1.170   0.897   6.432 -0.4915 -0.0306 -2.5127
  731MOL0     H98628   1.285   1.046   6.255  1.4741  1.4631  1.2046
  731MOL0     H98629   1.422   0.950   6.260  0.8968  0.0235  3.2141
  731MOL0     H98630   1.271   0.755   6.174 -1.8932 -0.8867  1.8723
  731MOL0     H98631   1.134   0.873   6.164  0.7578  1.2149  2.5933
  731MOL0     H98632   1.392   0.937   6.016 -0.8721 -0.5347 -2.3611
  731MOL0     H98633   1.245   1.021   6.009  1.0269 -0.0003 -0.7960
  731MOL0     H98634   1.135   0.805   5.902  0.1271  1.7293 -0.6993
  731MOL0     H98635   1.237   0.903   5.822  0.4283  0.6684  1.0038
  731MOL0     H98636   1.480   0.801   5.723  0.9863 -1.1986 -1.4249
  731MOL0     H98637   1.679   0.682   5.710 -0.2420 -0.2163 -0.1033
  731MOL0     H98638   1.736   0.626   5.858  1.6965  0.7477 -2.0013
  731MOL0     H98639   1.795   0.451   5.752 -1.1075  0.7221  2.0812
  731MOL0     H98640   1.645   0.393   5.809 -0.0957 -0.0065  0.1856
  731MOL0     H98641   1.685   0.470   5.520  0.7595 -1.3390 -0.1594
  731MOL0     H98642   1.530   0.424   5.602 -0.4374  1.7473  5.7973
  731MOL0     H98643   1.645   0.229   5.491 -0.2521 -2.9077  0.3300
  731MOL0     H98644   1.576   0.221   5.648  0.9017  0.0227  1.0702
  731MOL0     H98645   1.820   0.313   5.406 -1.4068 -2.3620  0.5310
  731MOL0     H98646   2.061   0.339   5.302  0.0838  0.6084  0.3169
  731MOL0     H98647   2.449   0.610   5.446  2.8771 -1.1871  0.3051
  731MOL0     H98648   2.638   0.710   5.313 -0.5927 -0.8010  2.4908
  731MOL0     H98649   2.850   0.733   5.210 -0.0482 -1.5456  3.2166
  731MOL0     H98650   2.895   0.571   5.198  0.3329 -1.8007 -2.4597
  731MOL0     H98651   2.912   0.755   4.965  0.9166  0.3812 -0.4499
  731MOL0     H98652   3.050   0.708   5.052  2.2212 -3.1065 -3.6748
  731MOL0     H98653   3.023   0.463   5.005  1.5281  1.0096  1.1811
  731MOL0     H98654   2.868   0.503   4.925  0.4146  0.3322  2.8975
  731MOL0     H98655   3.146   0.595   4.822 -1.8963  0.5335 -0.8944
  731MOL0     H98656   2.997   0.598   4.741 -2.0044 -2.4286 -0.2789
  731MOL0     H98657   2.986   0.359   4.736  1.5091 -1.9839 -0.8908
  731MOL0     H98658   3.137   0.348   4.833 -1.3653 -1.2829  0.4483
  731MOL0     H98659   3.130   0.475   4.563  0.2002  0.5305 -0.6582
  731MOL0     H98660   3.269   0.438   4.658  1.2341  3.3628 -3.9235
  731MOL0     H98661   3.092   0.241   4.520  1.4264 -3.2173  0.5337
  731MOL0     H98662   3.205   0.195   4.658  1.1914  1.8316  0.5206
  731MOL0     H98663   3.256   0.330   4.388  0.1009 -2.7992 -1.5670
  731MOL0     H98664   3.383   0.313   4.510  1.2227 -0.5247 -0.5926
  731MOL0     H98665   2.591   0.430   5.002  1.5385  0.3985 -0.1419
  731MOL0     H98666   2.384   0.329   5.116 -0.0657 -3.1066  2.5812
  731MOL0     H98667   2.226   0.191   5.674  1.0746 -0.1861 -1.5032
  731MOL0     H98668   1.989   0.164   5.763  2.8764 -0.9848  1.0344
  731MOL0     H98669   1.209   1.200   6.652 -1.0140 -0.7772  1.2406
  731MOL0     H98670   1.084   1.407   6.685  0.0028  1.9624  1.7337
  731MOL0     H98671   1.011   1.821   6.679  0.0812  0.5180 -0.8432
  731MOL0     H98672   0.922   2.049   6.651 -1.5068 -1.3515  0.6378
  731MOL0     H98673   0.919   2.452   6.865  0.2944  0.2235 -1.2869
  731MOL0     H98674   1.074   2.403   6.927 -0.6374  2.0171 -1.3313
  731MOL0     H98675   0.949   2.395   7.095  0.9050 -1.8274  1.1064
  731MOL0     H98676   0.980   2.230   7.055  0.3546  1.0742  1.7272
  731MOL0     H98677   0.709   2.370   6.992  0.8918 -1.0556 -3.1364
  731MOL0     H98678   0.735   2.267   7.121  0.7467 -0.5872  0.8073
  731MOL0     H98679   0.606   2.179   6.916  0.3461  0.3516 -2.3742
  731MOL0     H98680   0.736   2.200   6.821 -0.1441 -0.1230  0.0018
  731MOL0     H98681   0.849   1.828   6.954  2.1482  1.2974 -3.7238
  731MOL0     H98682   1.183   2.193   6.953 -0.5770  0.9491 -1.1864
  731MOL0     H98683   1.331   2.065   7.072  1.3089 -0.7497  2.5092
  731MOL0     H98684   1.274   1.905   7.120  0.1051  0.8483  0.5074
  731MOL0     H98685   1.390   1.920   6.996  0.2321  0.4060 -1.1519
  732MOL0     O98686   8.146   8.142   3.411 -0.2363 -0.2588  0.8396
  732MOL0     C98687   8.152   8.028   3.464  0.0358  0.5523 -0.0841
  732MOL0     O98688   8.060   7.929   3.458 -1.0470 -0.2449 -0.0423
  732MOL0     C98689   7.929   7.946   3.445  0.5376  0.8855  0.1821
  732MOL0     C98690   7.861   8.074   3.422  0.3162  0.8825 -0.7702
  732MOL0     C98691   7.720   8.080   3.414  0.5325 -0.1441 -0.4079
  732MOL0     C98692   7.648   7.954   3.434  0.4241  0.2060  0.2610
  732MOL0     O98693   7.513   7.937   3.432 -0.4489  0.2404 -0.0221
  732MOL0     C98694   7.452   8.061   3.391  1.0152  0.5589 -0.0560
  732MOL0     C98695   7.300   8.052   3.390  0.0320  0.0798  0.1310
  732MOL0     C98696   7.252   8.034   3.531 -0.5580  0.2047  0.0990
  732MOL0     C98697   7.098   8.011   3.536  0.3736  0.2184 -0.1737
  732MOL0     C98698   7.031   8.048   3.674 -0.1213  0.1205 -0.0246
  732MOL0     C98699   6.912   7.954   3.674  0.2699 -0.9141  0.0722
  732MOL0     C98700   6.865   7.914   3.816  0.2200  0.3214 -0.1584
  732MOL0     C98701   6.725   7.840   3.830  0.5765  0.2322  0.1432
  732MOL0     N98702   6.684   7.826   3.973 -0.7362 -0.1252  0.6632
  732MOL0     C98703   6.681   7.932   4.057  0.0008 -0.2510 -0.3887
  732MOL0     C98704   6.658   7.878   4.181  0.6090  0.3881  0.4119
  732MOL0     C98705   6.655   7.936   4.320  0.1730  0.6570 -0.2953
  732MOL0     C98706   6.790   7.956   4.378 -0.1076 -0.1783  0.0043
  732MOL0     C98707   6.814   8.020   4.514 -0.4801 -0.1623 -0.5386
  732MOL0     C98708   6.712   7.965   4.612 -0.7954  0.2378  0.1408
  732MOL0     O98709   6.729   8.010   4.747 -0.1330 -0.0782 -0.3170
  732MOL0     C98710   6.630   7.959   4.829 -0.1496 -0.9446 -0.6611
  732MOL0     C98711   6.625   7.832   4.874 -0.1911  0.4469 -0.6841
  732MOL0     C98712   6.521   7.784   4.950 -0.2949 -0.4710 -0.7976
  732MOL0     C98713   6.419   7.874   4.980  0.3629  0.1786 -0.0233
  732MOL0     C98714   6.298   7.822   5.060  0.4318 -0.4262  0.7654
  732MOL0     O98715   6.283   7.687   5.081 -0.8121  0.0281 -0.0136
  732MOL0     C98716   6.165   7.636   5.133 -0.6048  1.5346  0.2580
  732MOL0     C98717   6.147   7.630   5.268  0.2278 -0.4098  0.0658
  732MOL0     C98718   6.037   7.560   5.318 -0.3555 -0.1076  0.4192
  732MOL0     C98719   5.945   7.503   5.228 -0.8501 -0.0410  0.2973
  732MOL0     O98720   5.851   7.417   5.276  0.9161 -0.4130  0.3082
  732MOL0     C98721   5.750   7.460   5.375  0.4866  0.3217 -0.3415
  732MOL0     C98722   5.616   7.456   5.308 -1.0728 -0.5552  0.3263
  732MOL0     C98723   5.503   7.471   5.410 -0.5678  0.2489  0.0902
  732MOL0     C98724   5.374   7.477   5.328 -0.2647  0.4257  0.4385
  732MOL0     C98725   5.249   7.512   5.404  0.0758 -0.6635 -0.0167
  732MOL0     C98726   5.186   7.404   5.487  0.2226 -0.3534  0.5298
  732MOL0     C98727   5.067   7.460   5.568 -0.0506  0.9256  0.1624
  732MOL0     C98728   4.957   7.528   5.485  0.0038  0.8901 -0.3934
  732MOL0    Cl98729   4.833   7.584   5.596  0.2045 -0.9066  0.2255
  732MOL0     C98730   5.964   7.515   5.092 -0.8289  0.0481  1.4350
  732MOL0     C98731   6.072   7.586   5.046  0.3289 -0.0282 -0.4285
  732MOL0     O98732   6.222   7.908   5.094 -0.0424  0.5073  0.7065
  732MOL0     C98733   6.419   8.004   4.943 -0.0964  0.0262  0.3488
  732MOL0     C98734   6.522   8.047   4.860 -0.4731  0.0383 -0.5655
  732MOL0     N98735   6.668   7.734   4.159  0.2240  0.3611 -0.6700
  732MOL0     N98736   6.668   7.710   4.038 -0.3847  0.0454  0.0315
  732MOL0     C98737   7.720   7.834   3.450  0.0378  0.7781 -0.1861
  732MOL0     C98738   7.854   7.830   3.453 -0.2383  0.1032  0.8063
  732MOL0     C98739   8.248   8.020   3.575 -0.4001 -0.7779 -0.4667
  732MOL0     C98740   8.205   7.980   3.704  0.3040 -0.3579  0.0369
  732MOL0     C98741   8.290   7.994   3.815  1.1113  1.0681 -0.4591
  732MOL0     C98742   8.427   8.032   3.788 -0.6229 -0.1349  0.0607
  732MOL0     O98743   8.516   8.038   3.890  0.2865 -0.1485  0.4662
  732MOL0     C98744   8.484   8.034   4.028 -0.1778  0.2576  1.0605
  732MOL0     C98745   8.615   8.048   4.097 -0.1265  1.1696  0.6992
  732MOL0     C98746   8.722   7.951   4.040 -0.7345  0.0490  0.3356
  732MOL0     C98747   8.857   7.966   4.118 -0.4748  0.7698 -0.3699
  732MOL0     C98748   8.962   7.880   4.050 -0.5761 -0.0213 -0.3224
  732MOL0     C98749   9.042   7.809   3.993 -0.0103 -0.3499  0.0438
  732MOL0     C98750   8.480   8.044   3.656 -1.0671  0.9941  0.0355
  732MOL0     C98751   8.387   8.030   3.551  0.0352 -0.0483  0.0001
  732MOL0     C98752   8.442   8.047   3.408  0.4200  1.0473 -0.0617
  732MOL0     H98753   7.914   8.169   3.419 -1.1458  1.8853  1.6473
  732MOL0     H98754   7.672   8.177   3.408 -0.2840 -0.3044  2.2057
  732MOL0     H98755   7.485   8.146   3.451  2.2898 -0.4709  0.7362
  732MOL0     H98756   7.478   8.094   3.290 -0.4832 -1.2715 -1.1185
  732MOL0     H98757   7.259   7.967   3.335 -1.4388  1.4808 -1.0590
  732MOL0     H98758   7.252   8.142   3.349  1.5490  2.2353  2.6964
  732MOL0     H98759   7.272   8.119   3.596  1.2124 -0.5602  0.6245
  732MOL0     H98760   7.304   7.950   3.578 -0.2409  0.7178  0.6863
  732MOL0     H98761   7.046   8.060   3.453 -1.4954 -0.4451  0.5541
  732MOL0     H98762   7.100   7.903   3.524  0.3927  0.0358  1.3337
  732MOL0     H98763   7.099   8.024   3.756  2.2660  2.2538 -1.2218
  732MOL0     H98764   7.011   8.156   3.683 -0.8037 -0.1026  1.3312
  732MOL0     H98765   6.832   8.008   3.621 -0.3203  0.3367  2.1275
  732MOL0     H98766   6.936   7.858   3.627 -1.0718 -3.3653  3.9117
  732MOL0     H98767   6.848   8.011   3.864  1.3202  0.8795 -0.8441
  732MOL0     H98768   6.944   7.852   3.858  1.1998  0.6154 -1.4930
  732MOL0     H98769   6.640   7.896   3.793  0.9796  2.3237  2.1527
  732MOL0     H98770   6.733   7.737   3.793  0.9287 -0.2700  1.5369
  732MOL0     H98771   6.674   8.040   4.046  2.4051  0.4029  3.1065
  732MOL0     H98772   6.588   8.023   4.317 -1.1577 -0.3624 -0.9444
  732MOL0     H98773   6.605   7.862   4.383  3.2491 -0.5791  0.8684
  732MOL0     H98774   6.836   7.857   4.382  1.5865  0.5577 -0.5755
  732MOL0     H98775   6.854   8.008   4.307  0.7974 -1.2133  0.0472
  732MOL0     H98776   6.801   8.129   4.516  1.1110  0.0404  0.2922
  732MOL0     H98777   6.916   8.002   4.547 -0.2711 -0.9383 -1.5461
  732MOL0     H98778   6.718   7.856   4.613 -2.2468  0.1335  1.2893
  732MOL0     H98779   6.607   7.984   4.590 -1.0045  0.1886  1.0419
  732MOL0     H98780   6.697   7.752   4.856 -1.4641 -0.8725 -0.1156
  732MOL0     H98781   6.525   7.683   4.989  1.0356 -0.7995 -1.7086
  732MOL0     H98782   6.223   7.672   5.332 -0.9091 -1.0187  1.8723
  732MOL0     H98783   6.033   7.545   5.425  0.4759 -0.8354  0.3534
  732MOL0     H98784   5.741   7.394   5.462  1.9896 -0.9006 -1.0480
  732MOL0     H98785   5.760   7.563   5.410 -0.4449 -0.7446  3.6193
  732MOL0     H98786   5.612   7.529   5.227  0.8619  2.6709  2.8674
  732MOL0     H98787   5.612   7.360   5.257 -1.5283  0.7384 -2.1957
  732MOL0     H98788   5.499   7.389   5.483  2.1456  2.0560  2.4754
  732MOL0     H98789   5.516   7.562   5.469  3.0109  2.5491 -3.6888
  732MOL0     H98790   5.365   7.386   5.268 -0.7611  1.1369 -0.6049
  732MOL0     H98791   5.381   7.553   5.249 -2.5279  0.2554 -0.0020
  732MOL0     H98792   5.176   7.539   5.327  0.3143 -0.9452 -0.3465
  732MOL0     H98793   5.281   7.597   5.466  0.9237 -0.1570 -1.0999
  732MOL0     H98794   5.148   7.332   5.414 -2.9964 -1.0789  2.7133
  732MOL0     H98795   5.257   7.349   5.549 -1.6839 -3.8777 -0.1551
  732MOL0     H98796   5.108   7.535   5.636  0.8442  0.6390 -0.0438
  732MOL0     H98797   5.008   7.381   5.617  0.7728 -0.9147 -1.6484
  732MOL0     H98798   4.995   7.614   5.429  0.0716 -1.0612 -3.6511
  732MOL0     H98799   4.938   7.473   5.392 -1.1546  2.9774 -1.4472
  732MOL0     H98800   5.893   7.481   5.018  1.1347  0.5669 -0.8325
  732MOL0     H98801   6.085   7.595   4.939  0.9317 -0.2519 -0.3778
  732MOL0     H98802   6.338   8.075   4.953  0.0939  0.2075  0.6237
  732MOL0     H98803   6.531   8.148   4.822 -2.6169 -0.9442 -4.1201
  732MOL0     H98804   7.664   7.741   3.450  0.3445  0.5589  1.5168
  732MOL0     H98805   7.897   7.731   3.458 -2.7083 -1.0791  0.3188
  732MOL0     H98806   8.099   7.967   3.723  0.9131 -2.2985  2.7343
  732MOL0     H98807   8.247   7.974   3.912 -0.1166  0.7372 -1.0506
  732MOL0     H98808   8.453   7.934   4.057 -2.1109  0.8901  1.3446
  732MOL0     H98809   8.412   8.106   4.070  0.5065  1.0710  0.8701
  732MOL0     H98810   8.610   8.027   4.204 -0.2998  1.5280  0.7597
  732MOL0     H98811   8.643   8.151   4.074 -0.0209  0.9047 -0.4178
  732MOL0     H98812   8.742   7.971   3.935  2.6975  0.4329  0.9362
  732MOL0     H98813   8.682   7.850   4.042  1.3580 -0.8593  3.1673
  732MOL0     H98814   8.898   8.067   4.129  2.4684 -0.4404  0.8668
  732MOL0     H98815   8.831   7.930   4.218 -1.0702  1.2745 -0.3399
  732MOL0     H98816   9.124   7.744   3.968 -2.6975 -3.3148 -1.7672
  732MOL0     H98817   8.581   8.066   3.625 -2.3738  2.9591 -3.3259
  732MOL0     H98818   8.390   8.131   3.362 -1.0834 -1.1252 -2.6021
  732MOL0     H98819   8.549   8.070   3.412  0.9313 -1.0272 -0.2327
  732MOL0     H98820   8.427   7.950   3.359  3.2319 -0.2124  1.3015
  733MOL0     O98821   9.665  10.904   6.625 -1.0741  0.3056  0.1376
  733MOL0     C98822   9.561  10.938   6.574 -1.5283 -0.4994  0.2000
  733MOL0     O98823   9.496  10.865   6.483  0.0545  0.3625  0.3780
  733MOL0     C98824   9.550  10.748   6.433 -0.0665 -0.0618  0.0185
  733MOL0     C98825   9.536  10.616   6.485 -0.0153 -0.3922 -1.1928
  733MOL0     C98826   9.580  10.506   6.411  0.4987 -0.5725 -0.9862
  733MOL0     C98827   9.662  10.524   6.298  0.0978  0.6563  0.4876
  733MOL0     O98828   9.727  10.413   6.244 -0.0279 -0.2910  0.1987
  733MOL0     C98829   9.872  10.418   6.265  0.6848  0.6204 -0.0732
  733MOL0     C98830   9.940  10.302   6.195 -0.8095 -0.3537 -0.0500
  733MOL0     C98831  10.034  10.236   6.292 -0.0624  0.9187  0.2646
  733MOL0     C98832  10.179  10.270   6.256  1.0508 -0.1826  0.6065
  733MOL0     C98833  10.268  10.175   6.339 -0.0996 -0.7985 -0.3149
  733MOL0     C98834  10.413  10.178   6.311 -0.2289 -0.2487  0.3258
  733MOL0     C98835  10.441  10.108   6.184 -0.2252  1.0370 -0.5628
  733MOL0     C98836  10.591  10.089   6.170 -0.0884  0.3989  0.0231
  733MOL0     N98837  10.634  10.029   6.053 -0.1277  0.3624 -0.3958
  733MOL0     C98838  10.732  10.082   5.968 -1.0200  0.2230  0.5073
  733MOL0     C98839  10.733   9.993   5.862  0.8553 -1.1041  0.2588
  733MOL0     C98840  10.793  10.007   5.723  0.7806  0.1157  0.3010
  733MOL0     C98841  10.860  10.145   5.689  1.3178  0.2344  0.1908
  733MOL0     C98842  10.882  10.180   5.542 -1.1340 -0.2312  1.0424
  733MOL0     C98843  10.920  10.065   5.443  0.7245 -0.1473  1.1248
  733MOL0     O98844  10.963  10.139   5.324  0.1388 -0.4164 -0.0479
  733MOL0     C98845  10.904  10.118   5.207 -0.3300 -0.0943 -0.8578
  733MOL0     C98846  10.915  10.220   5.111  0.5693  0.1162 -0.6734
  733MOL0     C98847  10.823  10.220   4.999  0.1681  0.1394 -0.3712
  733MOL0     C98848  10.731  10.116   4.977  0.2406 -0.4680  1.0891
  733MOL0     C98849  10.653  10.113   4.850 -0.7903  0.4244 -1.7675
  733MOL0     O98850  10.651  10.221   4.771  0.3543 -0.0360 -0.1038
  733MOL0     C98851  10.587  10.214   4.648 -0.4090 -1.4911 -1.1095
  733MOL0     C98852  10.610  10.121   4.551 -0.3067 -0.8061  0.3453
  733MOL0     C98853  10.549  10.129   4.428  0.6596 -0.2167  0.9924
  733MOL0     C98854  10.449  10.224   4.394  0.2508  0.2889 -0.1719
  733MOL0     O98855  10.371  10.214   4.284 -0.9122 -0.0466  0.6998
  733MOL0     C98856  10.297  10.333   4.243 -0.4407 -0.2706 -0.1792
  733MOL0     C98857  10.205  10.297   4.129  0.3826 -0.4692 -0.5341
  733MOL0     C98858  10.282  10.212   4.025  0.5802  0.0133 -0.0109
  733MOL0     C98859  10.237  10.072   4.007 -0.3209  0.5780 -0.2726
  733MOL0     C98860  10.330   9.980   3.932  0.0391  0.8935 -0.7390
  733MOL0     C98861  10.286   9.832   3.944 -0.6359  0.4856 -0.2408
  733MOL0     C98862  10.374   9.749   3.841  0.0775  0.0635 -0.2901
  733MOL0     C98863  10.380   9.608   3.883 -0.6431  0.2727 -0.2031
  733MOL0    Cl98864  10.206   9.546   3.911 -0.3271  0.1728 -0.4746
  733MOL0     C98865  10.438  10.329   4.489 -1.2407  0.0596  0.1965
  733MOL0     C98866  10.506  10.325   4.610 -0.2388 -0.7289 -0.0520
  733MOL0     O98867  10.583  10.014   4.837 -0.4089  0.2025 -0.4253
  733MOL0     C98868  10.730  10.015   5.078  0.1004 -0.2427  1.0485
  733MOL0     C98869  10.823  10.011   5.184 -0.3556  0.5769  0.2455
  733MOL0     N98870  10.659   9.883   5.895  0.8470  0.9042 -1.0007
  733MOL0     N98871  10.590   9.904   6.003  0.5385 -0.4068 -0.0008
  733MOL0     C98872   9.687  10.661   6.253  0.4908  0.4133  0.0761
  733MOL0     C98873   9.630  10.762   6.323 -0.5734 -0.9288  0.3781
  733MOL0     C98874   9.493  11.055   6.623  0.3368 -0.7562 -0.7172
  733MOL0     C98875   9.528  11.095   6.750 -0.1425 -0.1145  0.7620
  733MOL0     C98876   9.466  11.207   6.811  0.5732  0.7235  0.2744
  733MOL0     C98877   9.373  11.287   6.745  0.5294  0.4171 -0.5659
  733MOL0     O98878   9.320  11.395   6.808 -0.5888 -0.1604 -0.2527
  733MOL0     C98879   9.186  11.454   6.778 -0.1581 -0.4503 -0.1052
  733MOL0     C98880   9.152  11.558   6.887 -1.5831  1.1055 -1.4067
  733MOL0     C98881   9.210  11.693   6.863 -0.8933 -0.8752  0.8108
  733MOL0     C98882   9.231  11.770   6.996  0.0511  0.0073  0.2337
  733MOL0     C98883   9.097  11.814   7.027  0.3898 -0.6512 -1.3496
  733MOL0     C98884   8.994  11.868   7.062  0.0618  0.2928 -0.2171
  733MOL0     C98885   9.346  11.254   6.616  0.0678 -0.1007 -0.1124
  733MOL0     C98886   9.399  11.138   6.560 -0.1089 -0.7499 -0.2670
  733MOL0     C98887   9.342  11.105   6.419 -0.4264 -0.4938 -0.7340
  733MOL0     H98888   9.484  10.601   6.580  0.2058 -0.7755 -1.1320
  733MOL0     H98889   9.563  10.406   6.450 -2.1750 -0.7469 -2.3774
  733MOL0     H98890   9.919  10.510   6.226  1.7623  0.2995  0.4155
  733MOL0     H98891   9.881  10.414   6.374 -0.4095  0.0298  0.0030
  733MOL0     H98892  10.000  10.338   6.111  0.8414 -3.2583 -0.2653
  733MOL0     H98893   9.861  10.233   6.161  1.4781 -2.6692 -1.0205
  733MOL0     H98894  10.019  10.127   6.286  3.1103  0.4272 -0.5870
  733MOL0     H98895  10.019  10.255   6.399  2.1823  0.0872  0.7836
  733MOL0     H98896  10.199  10.245   6.151  1.7979  0.4760  0.5879
  733MOL0     H98897  10.196  10.374   6.284  1.1958 -0.5587  1.9506
  733MOL0     H98898  10.253  10.194   6.445  0.7369  4.4736 -0.9037
  733MOL0     H98899  10.243  10.069   6.326  2.2097 -1.4886  0.4572
  733MOL0     H98900  10.457  10.277   6.304  0.7404 -0.7779 -3.2386
  733MOL0     H98901  10.468  10.130   6.392 -2.4925  2.1730  3.5459
  733MOL0     H98902  10.393  10.150   6.094  2.0195  2.7150 -1.0610
  733MOL0     H98903  10.401  10.007   6.177 -1.0024  1.3935 -1.7358
  733MOL0     H98904  10.636  10.188   6.170  0.8722  0.0155  1.9796
  733MOL0     H98905  10.635  10.034   6.254  0.7384  1.9339  0.6197
  733MOL0     H98906  10.771  10.183   5.975  0.0698  0.0286 -1.8469
  733MOL0     H98907  10.865   9.927   5.705 -1.3832 -1.8119 -0.2504
  733MOL0     H98908  10.709   9.990   5.656  0.1834 -0.2271  1.1157
  733MOL0     H98909  10.803  10.228   5.730 -1.9643 -1.3822 -0.7468
  733MOL0     H98910  10.953  10.147   5.746  1.1151  3.8704  0.5761
  733MOL0     H98911  10.963  10.252   5.530  0.7443 -1.9334  2.5937
  733MOL0     H98912  10.788  10.224   5.508  0.4741  1.7312 -1.2411
  733MOL0     H98913  10.839   9.992   5.432 -1.4395  2.3261 -0.5755
  733MOL0     H98914  11.013  10.025   5.483  2.6147  0.2910 -2.4117
  733MOL0     H98915  10.981  10.307   5.120  1.2200 -0.2433 -1.7611
  733MOL0     H98916  10.832  10.311   4.941 -1.3394 -0.0402 -0.9111
  733MOL0     H98917  10.693  10.051   4.555  1.4283  0.9827 -1.6201
  733MOL0     H98918  10.570  10.058   4.348 -0.4893  1.9453 -1.3816
  733MOL0     H98919  10.228  10.371   4.319 -0.2356 -0.1200 -0.0679
  733MOL0     H98920  10.366  10.415   4.219 -0.9668 -0.6455 -3.5991
  733MOL0     H98921  10.122  10.241   4.172  1.0669 -1.7032 -0.7939
  733MOL0     H98922  10.163  10.387   4.082 -2.2518 -0.5930  1.3527
  733MOL0     H98923  10.246  10.247   3.928 -1.1861 -2.5352 -0.3774
  733MOL0     H98924  10.390  10.227   4.039  0.9482 -0.5330 -1.9683
  733MOL0     H98925  10.142  10.075   3.953 -0.0059  1.8451 -0.8153
  733MOL0     H98926  10.217  10.025   4.103  2.2237  0.1832  0.1376
  733MOL0     H98927  10.434   9.996   3.965  1.1397  1.6784 -4.1723
  733MOL0     H98928  10.325  10.008   3.827 -3.2306 -2.1106 -1.5734
  733MOL0     H98929  10.300   9.799   4.048 -1.1671  0.7801 -0.0705
  733MOL0     H98930  10.183   9.807   3.919  0.2834 -3.0120 -1.1316
  733MOL0     H98931  10.476   9.785   3.823  0.6259 -1.5001 -0.4430
  733MOL0     H98932  10.320   9.744   3.746  3.4867  0.7253 -2.4192
  733MOL0     H98933  10.427   9.553   3.800 -1.5098  0.4641 -0.8372
  733MOL0     H98934  10.451   9.586   3.963  0.9322 -0.2648 -1.6869
  733MOL0     H98935  10.367  10.408   4.469 -0.9803  0.0670 -0.7609
  733MOL0     H98936  10.495  10.405   4.682 -0.8375 -1.4098  0.6330
  733MOL0     H98937  10.668   9.926   5.076  1.1283 -1.1536  4.3518
  733MOL0     H98938  10.826   9.924   5.249  2.1187  2.2328  2.5816
  733MOL0     H98939   9.739  10.680   6.160  3.1250 -0.4256  1.2733
  733MOL0     H98940   9.623  10.868   6.299  0.2935 -0.1729  3.0907
  733MOL0     H98941   9.600  11.038   6.808  0.6052 -1.0706 -1.0427
  733MOL0     H98942   9.495  11.226   6.914  0.7582 -4.1874  1.3563
  733MOL0     H98943   9.117  11.370   6.790  1.6646 -2.0443 -0.2684
  733MOL0     H98944   9.174  11.498   6.679  0.1711  0.0827  0.0897
  733MOL0     H98945   9.175  11.517   6.986  4.0481  0.9150 -2.4652
  733MOL0     H98946   9.043  11.569   6.892 -1.9975 -2.0068 -1.7850
  733MOL0     H98947   9.140  11.745   6.797 -0.2589  1.4170  1.8362
  733MOL0     H98948   9.309  11.669   6.823 -0.3550 -3.1044  3.2401
  733MOL0     H98949   9.244  11.705   7.083 -2.9403 -1.7051 -0.4691
  733MOL0     H98950   9.314  11.840   6.983 -0.8282  1.2276  0.9913
  733MOL0     H98951   8.909  11.915   7.108 -0.2832 -2.5933  2.4544
  733MOL0     H98952   9.267  11.313   6.570 -1.9970 -3.9702 -2.0996
  733MOL0     H98953   9.415  11.052   6.357  1.6667 -0.4757  1.5456
  733MOL0     H98954   9.253  11.042   6.428  1.1726 -3.2531 -2.7393
  733MOL0     H98955   9.322  11.197   6.364 -1.8558 -1.2184 -1.4963
  734MOL0     O98956   0.834   9.627   0.240  0.0103  0.3891 -0.0277
  734MOL0     C98957   0.737   9.616   0.167 -0.0587  0.2170 -0.5183
  734MOL0     O98958   0.627   9.563   0.210  0.0206  0.5191  0.1481
  734MOL0     C98959   0.632   9.475   0.323 -0.0628 -0.5144 -0.5929
  734MOL0     C98960   0.604   9.520   0.447 -0.3757 -0.6611 -0.5180
  734MOL0     C98961   0.590   9.427   0.552 -0.6824  0.7318 -0.2841
  734MOL0     C98962   0.579   9.285   0.525  0.9829 -0.4426  0.3162
  734MOL0     O98963   0.549   9.201   0.629  1.1298 -0.1747  1.0006
  734MOL0     C98964   0.628   9.228   0.751 -0.8732 -0.2627  0.3059
  734MOL0     C98965   0.571   9.149   0.867 -0.3963  0.8538 -0.1044
  734MOL0     C98966   0.680   9.073   0.949  0.8565  0.1362 -0.5395
  734MOL0     C98967   0.653   9.014   1.085  0.5049  1.1879 -0.1934
  734MOL0     C98968   0.751   8.905   1.141  0.5540  0.5832  0.1825
  734MOL0     C98969   0.680   8.812   1.236 -0.6176 -0.5201 -0.1579
  734MOL0     C98970   0.662   8.896   1.374  0.0404  0.2109  0.6395
  734MOL0     C98971   0.624   8.799   1.489 -0.3578  0.3591 -0.0353
  734MOL0     N98972   0.515   8.701   1.452 -0.9385 -0.3765  0.0807
  734MOL0     C98973   0.390   8.749   1.424 -0.4167 -0.4154 -0.8982
  734MOL0     C98974   0.329   8.648   1.376  0.5773 -1.0928 -0.4253
  734MOL0     C98975   0.178   8.627   1.338  0.7598  0.2188  1.0976
  734MOL0     C98976   0.162   8.655   1.192  0.4810 -0.3702  0.7555
  734MOL0     C98977   0.013   8.663   1.148  0.7872  0.3044 -0.2382
  734MOL0     C98978  -0.004   8.722   1.003  0.5819 -0.0226  0.4990
  734MOL0     O98979  -0.135   8.759   0.974  0.4120  0.1670  0.5793
  734MOL0     C98980  -0.184   8.732   0.845 -0.0149  0.8673  0.2961
  734MOL0     C98981  -0.122   8.760   0.731 -0.0491  1.0237  0.0735
  734MOL0     C98982  -0.176   8.742   0.608 -0.1182 -0.6020 -0.4519
  734MOL0     C98983  -0.312   8.704   0.588 -0.4138 -0.6547 -0.3419
  734MOL0     C98984  -0.364   8.654   0.461 -0.0321 -0.0204 -0.1904
  734MOL0     O98985  -0.454   8.554   0.486 -0.1749 -0.4988  0.4776
  734MOL0     C98986  -0.497   8.477   0.382  0.6601  0.6243  1.2757
  734MOL0     C98987  -0.629   8.434   0.371  1.2466 -0.7673  0.0893
  734MOL0     C98988  -0.673   8.347   0.272  0.2133 -0.8330  0.7002
  734MOL0     C98989  -0.590   8.289   0.179  0.3728  0.2926  0.6154
  734MOL0     O98990  -0.633   8.212   0.069 -0.1446  0.3035  0.0683
  734MOL0     C98991  -0.734   8.120   0.087  0.0024 -0.7687  0.4020
  734MOL0     C98992  -0.772   8.041  -0.046 -0.9956  0.2007  0.3576
  734MOL0     C98993  -0.643   7.963  -0.087 -0.3206  0.4356  0.3408
  734MOL0     C98994  -0.688   7.832  -0.157  0.5778  0.2942 -0.1069
  734MOL0     C98995  -0.562   7.745  -0.191  0.4561 -0.1150 -0.3094
  734MOL0     C98996  -0.593   7.685  -0.329 -0.5033  0.0385 -0.3912
  734MOL0     C98997  -0.464   7.609  -0.374  0.9283 -0.1001  0.7121
  734MOL0     C98998  -0.476   7.577  -0.525  0.5141  0.5606 -0.9539
  734MOL0    Cl98999  -0.610   7.442  -0.529 -0.3396  0.0302  0.6999
  734MOL0     C99000  -0.457   8.320   0.198 -0.6753 -0.1645 -0.6372
  734MOL0     C99001  -0.408   8.416   0.293 -0.0733 -0.4033 -0.0239
  734MOL0     O99002  -0.315   8.692   0.358 -0.2536 -0.2925 -0.4264
  734MOL0     C99003  -0.391   8.700   0.705  0.5394 -0.5148 -0.1335
  734MOL0     C99004  -0.320   8.706   0.831 -0.4252  0.4485 -0.3224
  734MOL0     N99005   0.418   8.548   1.370 -0.0853  0.5054 -0.5751
  734MOL0     N99006   0.542   8.586   1.388 -0.0626 -0.0548 -0.2564
  734MOL0     C99007   0.597   9.244   0.390 -0.3524  0.3453  0.6555
  734MOL0     C99008   0.633   9.338   0.295  0.0462  0.3935 -0.2490
  734MOL0     C99009   0.740   9.663   0.029 -0.0785  0.2989  0.4351
  734MOL0     C99010   0.615   9.679  -0.047  0.7162  0.0791  0.0591
  734MOL0     C99011   0.607   9.722  -0.183 -0.2225  0.0155 -0.0100
  734MOL0     C99012   0.733   9.751  -0.250 -0.1927  0.1552 -0.1692
  734MOL0     O99013   0.736   9.800  -0.377  0.8140  0.3564  1.0334
  734MOL0     C99014   0.671   9.929  -0.398 -0.3110  0.4298  0.0588
  734MOL0     C99015   0.744  10.047  -0.331 -0.5097  0.3230  0.0569
  734MOL0     C99016   0.893  10.051  -0.396  0.3222  0.6253 -0.3310
  734MOL0     C99017   1.002  10.108  -0.321  0.6497  0.4820 -0.1516
  734MOL0     C99018   1.054  10.034  -0.208  0.4785  0.4391 -0.2278
  734MOL0     C99019   1.098   9.987  -0.106  0.6937 -0.6751 -0.2855
  734MOL0     C99020   0.846   9.709  -0.186 -0.7462  0.3070 -0.1359
  734MOL0     C99021   0.856   9.676  -0.045 -0.0574 -0.0614  0.1461
  734MOL0     C99022   1.003   9.680   0.009  0.1618 -0.2397 -0.1165
  734MOL0     H99023   0.602   9.628   0.459  1.5810 -0.7406  1.2087
  734MOL0     H99024   0.595   9.475   0.649 -0.2226  2.1701 -1.0014
  734MOL0     H99025   0.726   9.182   0.734 -1.0216 -1.6423  2.7160
  734MOL0     H99026   0.659   9.331   0.769 -1.1254  0.0526 -1.0252
  734MOL0     H99027   0.503   9.070   0.834 -3.2309  2.1932  2.1030
  734MOL0     H99028   0.513   9.213   0.934 -1.8593 -1.3938  0.8995
  734MOL0     H99029   0.769   9.134   0.967  2.0178 -2.1433  2.4039
  734MOL0     H99030   0.710   8.985   0.891  0.2812 -0.7426  0.4684
  734MOL0     H99031   0.650   9.093   1.161 -1.5560  0.6940  0.2998
  734MOL0     H99032   0.551   8.975   1.087  0.6822  0.4279 -2.5832
  734MOL0     H99033   0.781   8.846   1.054 -2.9957  1.9344 -2.1947
  734MOL0     H99034   0.837   8.956   1.187 -0.9927  2.4504  1.1749
  734MOL0     H99035   0.581   8.801   1.192 -0.3666 -2.9459 -0.2590
  734MOL0     H99036   0.735   8.718   1.245  0.9692  0.5691  3.6314
  734MOL0     H99037   0.585   8.974   1.368  0.6076  0.6939 -2.2720
  734MOL0     H99038   0.753   8.947   1.408  0.4077 -1.8331  2.9477
  734MOL0     H99039   0.720   8.752   1.510  0.3390  1.8783  0.3136
  734MOL0     H99040   0.587   8.846   1.581 -1.1152  0.3515 -0.3275
  734MOL0     H99041   0.347   8.845   1.450  0.0085 -1.1357  3.0952
  734MOL0     H99042   0.155   8.523   1.360  2.0047  0.1594  2.2281
  734MOL0     H99043   0.117   8.699   1.394 -0.9027 -0.4378  0.1965
  734MOL0     H99044   0.209   8.751   1.170 -0.0637 -0.6492 -2.0955
  734MOL0     H99045   0.208   8.578   1.129  0.0298  0.1150 -0.1895
  734MOL0     H99046  -0.052   8.727   1.208  0.4773 -0.6895  0.5097
  734MOL0     H99047  -0.032   8.563   1.149 -1.4071  1.1431  3.9802
  734MOL0     H99048   0.035   8.646   0.934 -0.2232  0.3469 -0.3859
  734MOL0     H99049   0.064   8.807   0.992 -0.7260  1.4355  2.8946
  734MOL0     H99050  -0.020   8.798   0.727 -0.3404  1.9466 -4.2143
  734MOL0     H99051  -0.113   8.763   0.522  4.0610 -0.9267  2.2774
  734MOL0     H99052  -0.705   8.478   0.435  1.8785  2.0184 -0.9425
  734MOL0     H99053  -0.778   8.322   0.274  0.1785 -0.7177  0.3060
  734MOL0     H99054  -0.710   8.040   0.157  1.3924 -2.1481 -1.5359
  734MOL0     H99055  -0.828   8.168   0.115 -0.5606 -0.8441 -1.2438
  734MOL0     H99056  -0.858   7.974  -0.043 -0.8431 -0.1823 -2.0425
  734MOL0     H99057  -0.800   8.114  -0.123 -2.0857  0.9728  1.4374
  734MOL0     H99058  -0.575   8.028  -0.143  0.3737  2.0297  2.8815
  734MOL0     H99059  -0.584   7.930  -0.002  1.3878  0.0630 -0.9490
  734MOL0     H99060  -0.741   7.860  -0.249  1.9215 -0.6322 -1.2147
  734MOL0     H99061  -0.763   7.787  -0.092 -0.5658  2.1123 -0.0883
  734MOL0     H99062  -0.551   7.676  -0.107  1.0929 -1.5666 -1.5391
  734MOL0     H99063  -0.475   7.810  -0.201  1.3121 -1.1888 -0.0692
  734MOL0     H99064  -0.679   7.617  -0.326  0.6755 -1.5125 -0.6656
  734MOL0     H99065  -0.616   7.771  -0.393 -0.5664 -0.0370 -0.4703
  734MOL0     H99066  -0.464   7.512  -0.322  2.1458 -1.2560 -1.3260
  734MOL0     H99067  -0.374   7.667  -0.354  0.3587  1.4812 -1.0385
  734MOL0     H99068  -0.503   7.667  -0.581 -0.2567  0.4838 -0.7269
  734MOL0     H99069  -0.379   7.539  -0.556  0.7717  1.0019 -0.6945
  734MOL0     H99070  -0.387   8.262   0.138 -2.1143 -2.1318 -0.5262
  734MOL0     H99071  -0.305   8.449   0.293 -1.2035  3.7900 -1.5824
  734MOL0     H99072  -0.499   8.694   0.706  0.2776  2.6180  0.1004
  734MOL0     H99073  -0.384   8.693   0.918  0.3412  1.2323  0.3805
  734MOL0     H99074   0.608   9.136   0.381  1.5049  0.0307  4.4760
  734MOL0     H99075   0.651   9.303   0.194 -2.2855  1.7188 -1.2018
  734MOL0     H99076   0.519   9.657  -0.001  1.1725 -0.1938  0.9051
  734MOL0     H99077   0.511   9.729  -0.232 -0.1635 -1.3580 -0.3710
  734MOL0     H99078   0.568   9.921  -0.364 -0.4306 -5.9138 -0.5485
  734MOL0     H99079   0.659   9.936  -0.507 -1.4188 -1.9280 -0.0506
  734MOL0     H99080   0.750  10.030  -0.223  2.4835  1.5870  0.2066
  734MOL0     H99081   0.694  10.144  -0.341 -0.1656  0.6499  1.3388
  734MOL0     H99082   0.879  10.109  -0.488  0.6140  2.1667  0.5574
  734MOL0     H99083   0.927   9.956  -0.439  0.8918  2.0838 -3.3316
  734MOL0     H99084   1.088  10.120  -0.388  0.6629 -3.8914 -1.2372
  734MOL0     H99085   0.969  10.208  -0.291 -3.2278 -0.1177 -1.8431
  734MOL0     H99086   1.134   9.933  -0.021  0.5022 -5.1861 -2.7875
  734MOL0     H99087   0.939   9.731  -0.239 -0.5074  0.9792  0.5540
  734MOL0     H99088   1.018   9.780   0.052 -0.6515 -0.4877  0.7992
  734MOL0     H99089   1.017   9.624   0.102 -2.2046  0.8000  0.9704
  734MOL0     H99090   1.079   9.657  -0.066  0.6344 -0.1990  0.3419
  735MOL0     O99091   3.460   4.484  10.648  0.0145  0.3935  0.6823
  735MOL0     C99092   3.548   4.391  10.628 -0.6790  0.0333  0.4022
  735MOL0     O99093   3.528   4.264  10.581  0.4329 -0.4763 -0.2968
  735MOL0     C99094   3.392   4.239  10.568 -0.1332  0.2734  0.8833
  735MOL0     C99095   3.314   4.289  10.467 -0.1647  0.0041  0.7653
  735MOL0     C99096   3.176   4.253  10.456 -0.0928  0.9279  0.7466
  735MOL0     C99097   3.110   4.184  10.549  1.3782  0.0986  0.0856
  735MOL0     O99098   2.978   4.144  10.538 -0.0621 -0.3817  0.3726
  735MOL0     C99099   2.962   4.031  10.453 -0.7531 -1.1586  0.0837
  735MOL0     C99100   2.819   3.980  10.458 -0.2387 -0.2270  0.4629
  735MOL0     C99101   2.729   4.067  10.370 -0.2093 -0.3209  0.5676
  735MOL0     C99102   2.629   4.141  10.451  0.0663 -0.9811  0.6860
  735MOL0     C99103   2.544   4.230  10.356 -0.3230 -0.1875 -0.3561
  735MOL0     C99104   2.626   4.327  10.278  0.1805  0.4365 -0.2046
  735MOL0     C99105   2.712   4.421  10.356 -0.7498  0.3215  0.1924
  735MOL0     C99106   2.780   4.522  10.260 -0.7438  0.0294 -0.4911
  735MOL0     N99107   2.865   4.633  10.306 -0.1760  0.0266  0.1048
  735MOL0     C99108   2.980   4.620  10.372 -0.5467  0.4576 -0.5028
  735MOL0     C99109   3.024   4.740  10.410  0.3764  1.5426 -0.9545
  735MOL0     C99110   3.126   4.776  10.507  1.5825  0.7096  0.5042
  735MOL0     C99111   3.264   4.739  10.476 -1.0435  0.3616  0.0570
  735MOL0     C99112   3.295   4.783  10.335  0.9034  0.0545 -0.5308
  735MOL0     C99113   3.326   4.666  10.241  0.2503 -0.4860 -0.2649
  735MOL0     O99114   3.357   4.706  10.110 -0.3515  0.3196  0.9355
  735MOL0     C99115   3.470   4.639  10.059  0.2765 -0.4184 -0.9691
  735MOL0     C99116   3.474   4.496  10.050 -0.2969 -0.0077 -0.1195
  735MOL0     C99117   3.601   4.452   9.994  0.2112  0.1881 -0.2930
  735MOL0     C99118   3.715   4.535   9.977  0.4041  0.2579  0.1438
  735MOL0     C99119   3.834   4.470   9.915 -0.3268 -1.1165  0.1222
  735MOL0     O99120   3.839   4.334   9.909 -0.1632 -1.0105  0.2616
  735MOL0     C99121   3.952   4.259   9.877 -1.1919  0.3192 -0.6003
  735MOL0     C99122   4.037   4.291   9.771  0.2284 -0.6276 -0.4885
  735MOL0     C99123   4.146   4.217   9.736  1.1446 -0.4686 -0.9377
  735MOL0     C99124   4.176   4.098   9.805  0.4463 -0.8355  0.0833
  735MOL0     O99125   4.274   4.008   9.768  1.1173  0.0707 -0.1653
  735MOL0     C99126   4.396   4.051   9.718  0.6047  0.8798  0.1745
  735MOL0     C99127   4.471   4.140   9.813 -0.9905  0.2611  0.2090
  735MOL0     C99128   4.544   4.083   9.932 -0.2756 -0.2200  0.0319
  735MOL0     C99129   4.462   3.999  10.034 -0.0843 -0.4821  1.5895
  735MOL0     C99130   4.535   3.995  10.163  0.6117  0.0511  0.8650
  735MOL0     C99131   4.456   3.922  10.272  0.3902  0.2719  0.2797
  735MOL0     C99132   4.463   3.768  10.232  0.1454  0.0887  0.0270
  735MOL0     C99133   4.365   3.696  10.319  0.7108  0.9089  0.1939
  735MOL0    Cl99134   4.388   3.525  10.271 -0.0892  0.2302 -0.3082
  735MOL0     C99135   4.099   4.062   9.916  0.6837  0.0281  0.6793
  735MOL0     C99136   3.992   4.149   9.960  0.8635  1.0840  0.3566
  735MOL0     O99137   3.917   4.554   9.876  0.2371  0.2111  1.0939
  735MOL0     C99138   3.699   4.675   9.996  0.1536 -0.8635  0.1664
  735MOL0     C99139   3.574   4.725  10.036 -0.0065  0.6583 -0.2976
  735MOL0     N99140   2.954   4.823  10.331 -0.0588 -0.2024  0.3155
  735MOL0     N99141   2.849   4.766  10.274  0.6341  0.4505  0.0703
  735MOL0     C99142   3.178   4.152  10.661  0.5389  0.8693  0.4255
  735MOL0     C99143   3.310   4.178  10.670 -0.6393  0.5990 -0.4050
  735MOL0     C99144   3.696   4.421  10.669 -0.3311  0.0293 -0.2657
  735MOL0     C99145   3.790   4.325  10.627  1.3454 -0.3094 -0.0937
  735MOL0     C99146   3.923   4.333  10.679  0.5040  0.4153  0.3880
  735MOL0     C99147   3.967   4.411  10.782  0.2721  0.0747  0.7239
  735MOL0     O99148   4.095   4.395  10.831 -0.8630  0.2042 -0.0751
  735MOL0     C99149   4.138   4.440  10.962 -0.5961  0.2524  0.5274
  735MOL0     C99150   4.112   4.321  11.057  0.3925  1.1261 -0.2994
  735MOL0     C99151   3.965   4.314  11.105  1.1642 -0.2224  0.4688
  735MOL0     C99152   3.949   4.243  11.234  0.2514  0.9615 -0.0521
  735MOL0     C99153   3.960   4.098  11.220 -0.5185  0.2916 -0.3466
  735MOL0     C99154   3.973   3.972  11.200 -0.4597 -0.3615  0.3673
  735MOL0     C99155   3.877   4.515  10.815  0.3131  0.5647  0.6348
  735MOL0     C99156   3.744   4.526  10.758 -0.7601  0.4391 -0.8222
  735MOL0     C99157   3.662   4.645  10.790 -0.3254 -0.6470 -0.7083
  735MOL0     H99158   3.358   4.350  10.389 -0.2462  0.6533  1.2170
  735MOL0     H99159   3.123   4.304  10.376 -1.0753  3.3577  2.7857
  735MOL0     H99160   2.996   4.048  10.351  1.2145 -1.0021  0.7201
  735MOL0     H99161   3.029   3.958  10.500  0.4751  2.4943  4.8143
  735MOL0     H99162   2.778   3.968  10.559 -1.8788  2.7312  0.2630
  735MOL0     H99163   2.819   3.881  10.412 -4.4684  0.7216 -2.1472
  735MOL0     H99164   2.663   4.019  10.298 -1.0012  2.6130 -0.7891
  735MOL0     H99165   2.795   4.134  10.315  0.5359  0.7462  2.6486
  735MOL0     H99166   2.575   4.066  10.510  2.3418 -4.4741 -1.2982
  735MOL0     H99167   2.680   4.212  10.516  0.5790  0.6334 -1.3615
  735MOL0     H99168   2.487   4.165  10.290 -1.0344 -1.6248  1.5790
  735MOL0     H99169   2.471   4.274  10.425 -0.5145 -2.1236  0.7329
  735MOL0     H99170   2.684   4.265  10.209 -1.5437 -0.0566 -1.2823
  735MOL0     H99171   2.557   4.376  10.208 -1.0994  1.4727  1.7097
  735MOL0     H99172   2.792   4.370  10.411 -0.7101 -0.6890 -0.7562
  735MOL0     H99173   2.653   4.481  10.425 -1.2839  3.6017 -2.7973
  735MOL0     H99174   2.837   4.462  10.189  0.2452 -1.8622  1.7636
  735MOL0     H99175   2.709   4.578  10.198  0.9574  3.3299  0.3224
  735MOL0     H99176   3.019   4.527  10.414  1.0171  0.0371 -2.7038
  735MOL0     H99177   3.122   4.885  10.512  1.6165  0.8224 -1.2375
  735MOL0     H99178   3.088   4.755  10.607 -3.5292  0.5159 -1.2033
  735MOL0     H99179   3.334   4.796  10.538 -2.6615 -1.2334  3.5695
  735MOL0     H99180   3.286   4.633  10.485  2.7634  0.9807 -0.2731
  735MOL0     H99181   3.386   4.845  10.338  1.4424 -0.6468 -1.7504
  735MOL0     H99182   3.215   4.846  10.297  3.5429  1.2896 -4.6990
  735MOL0     H99183   3.234   4.606  10.234  0.0751 -0.0211 -2.8103
  735MOL0     H99184   3.404   4.596  10.271  2.7683  1.8240 -1.1138
  735MOL0     H99185   3.386   4.437  10.073 -2.8754  4.0948  1.8750
  735MOL0     H99186   3.601   4.352   9.951 -2.8855  1.3428 -3.4737
  735MOL0     H99187   4.018   4.382   9.715  0.0878  1.9712  3.4469
  735MOL0     H99188   4.211   4.243   9.654  1.1119  1.5464 -0.3812
  735MOL0     H99189   4.448   3.957   9.701 -1.2563 -0.0550 -0.6686
  735MOL0     H99190   4.378   4.100   9.622  0.5919  1.4476  0.4620
  735MOL0     H99191   4.542   4.204   9.761 -0.5637 -0.8137 -0.5652
  735MOL0     H99192   4.396   4.216   9.837  0.5952  2.0331 -0.2176
  735MOL0     H99193   4.636   4.029   9.908  1.2007  1.6438  1.2676
  735MOL0     H99194   4.573   4.174   9.985  1.5053 -1.4355  1.2694
  735MOL0     H99195   4.444   3.902   9.986  0.7597  0.7211 -1.4324
  735MOL0     H99196   4.366   4.045  10.057 -0.2580 -0.6602  1.2374
  735MOL0     H99197   4.553   4.098  10.193 -0.1417  1.3930 -2.6792
  735MOL0     H99198   4.631   3.944  10.162  0.1260 -1.0352 -1.8221
  735MOL0     H99199   4.511   3.944  10.364 -0.3661  1.4617  0.4825
  735MOL0     H99200   4.351   3.951  10.284  0.2152 -0.8532  1.6384
  735MOL0     H99201   4.567   3.739  10.248 -0.4533 -1.6863  1.0366
  735MOL0     H99202   4.440   3.754  10.126  2.2860  2.0612 -0.7650
  735MOL0     H99203   4.375   3.705  10.427  0.0888 -2.5934  0.6575
  735MOL0     H99204   4.264   3.716  10.281  0.5599 -3.9401 -2.8955
  735MOL0     H99205   4.126   3.966   9.957 -0.1687 -0.0043  1.2034
  735MOL0     H99206   3.929   4.115  10.041  2.0482 -1.4099  0.3349
  735MOL0     H99207   3.779   4.745   9.977  1.1468 -0.8019  3.8200
  735MOL0     H99208   3.567   4.833  10.032 -0.2030  0.6666  0.1291
  735MOL0     H99209   3.128   4.099  10.741  0.7077 -0.3954 -0.2808
  735MOL0     H99210   3.365   4.143  10.757 -1.5275 -0.3054 -0.1836
  735MOL0     H99211   3.760   4.242  10.564  2.7539  1.0452 -2.7304
  735MOL0     H99212   3.988   4.256  10.639 -2.6370 -1.8702 -0.7363
  735MOL0     H99213   4.085   4.528  10.997 -0.8095 -0.9552  3.5442
  735MOL0     H99214   4.246   4.457  10.954  0.1674 -3.9450 -1.0167
  735MOL0     H99215   4.181   4.331  11.141  1.0125 -3.0932 -0.0716
  735MOL0     H99216   4.145   4.227  11.011  2.1795  0.3608  2.2896
  735MOL0     H99217   3.903   4.265  11.028  1.7464  0.1398 -0.2473
  735MOL0     H99218   3.935   4.419  11.113  0.6367 -0.2736 -0.5478
  735MOL0     H99219   4.024   4.267  11.310  0.0768 -0.9543  0.7846
  735MOL0     H99220   3.848   4.257  11.273 -0.3784 -0.5251 -1.0697
  735MOL0     H99221   3.994   3.869  11.181 -0.1332 -0.2884  0.3269
  735MOL0     H99222   3.927   4.595  10.869  0.4358  3.1445 -2.9518
  735MOL0     H99223   3.641   4.709  10.704  4.4621 -0.8919 -2.3122
  735MOL0     H99224   3.571   4.615  10.844  1.4532  0.1553  3.0588
  735MOL0     H99225   3.710   4.714  10.860 -0.0949  1.3562 -2.7584
  736MOL0     O99226   3.154   4.455   2.694  0.5207 -0.8816  0.1722
  736MOL0     C99227   3.228   4.538   2.649  0.1873  0.3329  0.1623
  736MOL0     O99228   3.204   4.606   2.528 -0.2693  0.0820  0.0365
  736MOL0     C99229   3.123   4.553   2.426 -0.2864 -0.5008 -0.5943
  736MOL0     C99230   2.980   4.548   2.437  0.0696 -0.7565 -0.3554
  736MOL0     C99231   2.903   4.532   2.324 -0.3793 -0.8537  0.3774
  736MOL0     C99232   2.967   4.499   2.197 -0.5131 -0.3803  0.2617
  736MOL0     O99233   2.892   4.475   2.081  0.0943 -0.3305  0.2040
  736MOL0     C99234   2.956   4.402   1.969 -0.1435  0.4298 -1.1422
  736MOL0     C99235   2.841   4.353   1.871  0.4329  0.1838 -0.1490
  736MOL0     C99236   2.790   4.486   1.811 -0.0522  0.1350 -1.4858
  736MOL0     C99237   2.634   4.498   1.839 -0.8290  0.3541  0.3711
  736MOL0     C99238   2.568   4.594   1.736  0.9988 -0.4761  0.0101
  736MOL0     C99239   2.597   4.736   1.783  0.7518  0.6244  0.5584
  736MOL0     C99240   2.522   4.846   1.702  0.6897 -0.2434  0.0550
  736MOL0     C99241   2.563   4.831   1.552 -0.1168 -0.4905 -0.0390
  736MOL0     N99242   2.514   4.956   1.492  0.2785  0.6414 -0.3333
  736MOL0     C99243   2.407   4.962   1.405  0.4325 -0.1388 -0.5014
  736MOL0     C99244   2.410   5.090   1.365 -0.0614  0.5146  1.1169
  736MOL0     C99245   2.324   5.148   1.257 -0.6131 -0.1450 -0.5511
  736MOL0     C99246   2.193   5.201   1.305 -0.2800 -0.4435  0.4085
  736MOL0     C99247   2.194   5.326   1.399 -0.2546  0.6521 -0.4477
  736MOL0     C99248   2.251   5.457   1.341  0.6636  0.0755 -0.8475
  736MOL0     O99249   2.166   5.499   1.229 -0.0804 -0.9875 -0.6810
  736MOL0     C99250   2.173   5.635   1.205  0.5849  0.2951 -0.2787
  736MOL0     C99251   2.048   5.692   1.180 -0.5888  0.0004  0.3530
  736MOL0     C99252   2.042   5.840   1.185 -0.0359  0.8295 -0.0682
  736MOL0     C99253   2.161   5.919   1.200  1.2767  0.5036 -0.3467
  736MOL0     C99254   2.155   6.062   1.196  0.1702 -0.1348 -0.2294
  736MOL0     O99255   2.056   6.102   1.108  0.2581  0.4566  0.3572
  736MOL0     C99256   2.011   6.239   1.116  0.1742  0.9842  0.8895
  736MOL0     C99257   2.110   6.336   1.084  0.2878  0.0051 -0.2499
  736MOL0     C99258   2.064   6.473   1.080  0.4629 -0.4834  0.3961
  736MOL0     C99259   1.931   6.506   1.119 -0.7439 -0.0476 -0.9035
  736MOL0     O99260   1.883   6.633   1.151 -0.3812 -0.6613 -0.4158
  736MOL0     C99261   1.937   6.755   1.090 -0.0327  0.8397 -0.3472
  736MOL0     C99262   2.011   6.820   1.201 -0.2720  0.0430 -0.4277
  736MOL0     C99263   2.068   6.955   1.169  0.0443 -0.6842 -0.0217
  736MOL0     C99264   1.955   7.053   1.175 -0.4639 -0.1649  0.9892
  736MOL0     C99265   1.989   7.197   1.157 -0.1403  0.4528  0.6223
  736MOL0     C99266   2.077   7.264   1.266  0.1706  1.2756 -0.5505
  736MOL0     C99267   2.229   7.257   1.241  0.3214  0.0226 -0.4533
  736MOL0     C99268   2.317   7.317   1.355 -0.7361 -0.3838 -0.3697
  736MOL0    Cl99269   2.261   7.476   1.383 -0.2153 -0.6174 -0.1956
  736MOL0     C99270   1.848   6.399   1.158 -0.3204  0.0878  0.2109
  736MOL0     C99271   1.877   6.276   1.138 -0.3985 -0.6770  0.6195
  736MOL0     O99272   2.227   6.133   1.272 -0.5247 -0.3258 -0.4195
  736MOL0     C99273   2.283   5.853   1.212  0.2413  0.0390 -0.6014
  736MOL0     C99274   2.295   5.711   1.202 -0.2971 -0.5745 -0.3241
  736MOL0     N99275   2.529   5.145   1.420  0.3106  0.0692 -0.5364
  736MOL0     N99276   2.592   5.062   1.492  0.5546 -0.4156 -0.2803
  736MOL0     C99277   3.110   4.497   2.190  0.0207 -1.0166 -0.2892
  736MOL0     C99278   3.186   4.543   2.304  0.2309  0.7240 -0.0702
  736MOL0     C99279   3.344   4.599   2.718 -0.4542  0.4745 -0.2112
  736MOL0     C99280   3.330   4.628   2.852 -0.1300 -0.0210  0.4022
  736MOL0     C99281   3.426   4.691   2.930  0.7140  1.0620 -1.2124
  736MOL0     C99282   3.552   4.712   2.871  0.1099  0.9555 -0.0476
  736MOL0     O99283   3.664   4.779   2.921  0.5245 -0.2182 -0.7243
  736MOL0     C99284   3.665   4.828   3.061  0.4244  0.1269  1.0194
  736MOL0     C99285   3.729   4.726   3.154 -0.4487 -0.1200  0.9402
  736MOL0     C99286   3.742   4.788   3.295  1.5854 -0.4212  0.0349
  736MOL0     C99287   3.841   4.717   3.379 -0.5726  0.4433 -1.1121
  736MOL0     C99288   3.808   4.575   3.393 -0.3739  1.4201 -0.4100
  736MOL0     C99289   3.784   4.455   3.391  0.1241 -0.5026 -0.2389
  736MOL0     C99290   3.566   4.678   2.740  0.0905 -0.7473  1.1894
  736MOL0     C99291   3.472   4.617   2.656 -0.3699 -0.6399 -0.8656
  736MOL0     C99292   3.505   4.606   2.514 -0.3274  0.2833  0.0266
  736MOL0     H99293   2.949   4.575   2.538  2.8454 -1.8490  0.8967
  736MOL0     H99294   2.794   4.528   2.324 -0.4856  0.4017  2.5227
  736MOL0     H99295   3.034   4.459   1.917 -2.1724  2.8951 -1.7143
  736MOL0     H99296   3.003   4.311   2.005  0.6748  1.5103  0.6696
  736MOL0     H99297   2.755   4.309   1.922 -2.2261  0.3409 -4.1049
  736MOL0     H99298   2.882   4.274   1.808 -1.0849 -2.1214  1.6107
  736MOL0     H99299   2.824   4.501   1.708  2.4952  2.5871 -0.4319
  736MOL0     H99300   2.825   4.573   1.866  1.3065 -0.6564 -1.0597
  736MOL0     H99301   2.585   4.404   1.809 -2.3965  1.1907  0.2115
  736MOL0     H99302   2.612   4.520   1.944 -0.2189  0.1504  0.5433
  736MOL0     H99303   2.620   4.570   1.643  2.5604 -1.9604  1.2300
  736MOL0     H99304   2.459   4.583   1.734  1.0822 -1.3539 -0.0662
  736MOL0     H99305   2.566   4.743   1.888  1.3506 -1.6277  0.9360
  736MOL0     H99306   2.703   4.761   1.783  0.8829  0.2387  2.8535
  736MOL0     H99307   2.543   4.943   1.747 -0.8892 -0.9250  2.4160
  736MOL0     H99308   2.412   4.846   1.705  0.5000  0.4278 -3.0034
  736MOL0     H99309   2.672   4.838   1.556 -0.1269  0.1030 -0.6825
  736MOL0     H99310   2.532   4.744   1.493 -1.7022 -0.6987  1.0112
  736MOL0     H99311   2.336   4.888   1.370  0.5384 -0.2101 -0.5666
  736MOL0     H99312   2.361   5.234   1.199  0.6942  2.3426  3.5745
  736MOL0     H99313   2.311   5.070   1.182  0.3874 -2.3237  1.4378
  736MOL0     H99314   2.143   5.236   1.214  2.6569  0.5697 -0.9347
  736MOL0     H99315   2.126   5.120   1.336  2.6440 -3.7066 -1.0663
  736MOL0     H99316   2.256   5.304   1.486 -1.0325  0.7440  0.1305
  736MOL0     H99317   2.092   5.349   1.429  0.5770 -0.0572  3.3887
  736MOL0     H99318   2.353   5.448   1.302  0.9643 -1.8139  0.2539
  736MOL0     H99319   2.245   5.523   1.428 -0.6229 -0.0148 -0.8472
  736MOL0     H99320   1.956   5.635   1.178 -1.0722  0.6500  2.1330
  736MOL0     H99321   1.942   5.882   1.178  0.7132  2.4039 -4.5977
  736MOL0     H99322   2.213   6.311   1.061  0.8634  1.1185  1.0142
  736MOL0     H99323   2.146   6.536   1.045 -0.0373 -1.4849 -2.9740
  736MOL0     H99324   2.003   6.736   1.005  0.7065  0.7500  0.2277
  736MOL0     H99325   1.849   6.816   1.067 -0.3474 -0.5229 -3.1853
  736MOL0     H99326   1.943   6.820   1.287 -0.2906 -2.3242 -0.3922
  736MOL0     H99327   2.098   6.761   1.229  0.1820  2.0244  2.9157
  736MOL0     H99328   2.138   6.982   1.248 -0.7091  0.8373  0.1647
  736MOL0     H99329   2.100   6.952   1.065 -2.6747 -2.1784 -0.9326
  736MOL0     H99330   1.895   7.031   1.263 -1.8900 -2.7994 -0.4950
  736MOL0     H99331   1.890   7.028   1.090 -1.8623  1.3161  1.5593
  736MOL0     H99332   1.891   7.244   1.151 -2.0591 -3.3347 -0.9704
  736MOL0     H99333   2.038   7.198   1.059 -2.8696 -5.6794 -1.3055
  736MOL0     H99334   2.049   7.369   1.253 -3.9052  0.8521  2.7205
  736MOL0     H99335   2.040   7.236   1.365 -2.2823  0.6842 -1.5542
  736MOL0     H99336   2.243   7.306   1.144  2.1509 -0.7988 -0.6494
  736MOL0     H99337   2.258   7.153   1.223  2.8838 -0.0312  2.8630
  736MOL0     H99338   2.304   7.258   1.446 -4.0553  2.7508  1.4910
  736MOL0     H99339   2.419   7.321   1.316  0.5327  0.6310  2.7153
  736MOL0     H99340   1.745   6.430   1.174 -0.4615 -0.2410 -0.0506
  736MOL0     H99341   1.815   6.187   1.130 -0.5025 -0.5095 -0.9170
  736MOL0     H99342   2.379   5.898   1.235  0.7152 -0.5131 -1.4699
  736MOL0     H99343   2.382   5.652   1.230 -1.9756 -2.5736  0.9441
  736MOL0     H99344   3.166   4.500   2.097 -0.0638 -1.9118 -0.3765
  736MOL0     H99345   3.294   4.541   2.296  0.5181  0.3385  2.9773
  736MOL0     H99346   3.240   4.597   2.902 -0.1244  0.3685  0.6530
  736MOL0     H99347   3.415   4.739   3.026  1.5735  2.1338 -1.6286
  736MOL0     H99348   3.566   4.868   3.087 -1.2909 -3.3377  0.3781
  736MOL0     H99349   3.729   4.916   3.053  0.1290  0.1765 -1.6920
  736MOL0     H99350   3.824   4.693   3.110 -2.1365 -1.4903 -2.0136
  736MOL0     H99351   3.676   4.631   3.143  1.8384 -1.2442 -1.6244
  736MOL0     H99352   3.643   4.790   3.343  1.6714 -0.6348  0.2250
  736MOL0     H99353   3.761   4.894   3.281 -2.3026  0.6774  1.5447
  736MOL0     H99354   3.938   4.730   3.330 -1.4545  1.3130 -2.7233
  736MOL0     H99355   3.843   4.768   3.475 -3.5290  0.5486 -1.0145
  736MOL0     H99356   3.752   4.353   3.394  0.1261 -0.5047  2.9472
  736MOL0     H99357   3.660   4.704   2.693 -1.6862 -0.9799 -2.8969
  736MOL0     H99358   3.597   4.661   2.493 -1.0795  1.0366 -1.4994
  736MOL0     H99359   3.525   4.501   2.491 -1.8490 -0.9376  3.5893
  736MOL0     H99360   3.429   4.644   2.445  3.2940  5.4949 -1.7317
  737MOL0     O99361   0.208   3.968   7.452 -1.1860  0.7046 -0.1757
  737MOL0     C99362   0.265   4.076   7.464 -0.4565 -0.1703  0.1451
  737MOL0     O99363   0.210   4.196   7.425 -0.4618 -0.3466 -0.4806
  737MOL0     C99364   0.103   4.198   7.343 -0.1475  0.2484 -0.0640
  737MOL0     C99365   0.083   4.122   7.228  0.3359 -0.1608  0.0576
  737MOL0     C99366  -0.027   4.144   7.142  0.0185  0.1764  0.8473
  737MOL0     C99367  -0.130   4.236   7.181  1.2271  0.3879  0.4990
  737MOL0     O99368  -0.246   4.238   7.100 -0.1584 -0.2519  1.2343
  737MOL0     C99369  -0.356   4.320   7.147  0.6686  0.0969  0.2992
  737MOL0     C99370  -0.469   4.321   7.041 -0.1306  0.3022 -0.5655
  737MOL0     C99371  -0.579   4.213   7.072  0.3633 -0.1270 -0.0525
  737MOL0     C99372  -0.661   4.241   7.201 -0.3878 -0.2567  1.1231
  737MOL0     C99373  -0.780   4.319   7.175  0.5728 -0.4031 -0.2772
  737MOL0     C99374  -0.846   4.365   7.308 -0.0644  0.1557 -0.3358
  737MOL0     C99375  -0.977   4.452   7.300  0.1227 -1.3791  0.2658
  737MOL0     C99376  -1.083   4.372   7.219 -0.4399 -0.3146 -0.9580
  737MOL0     N99377  -1.196   4.465   7.185  0.3597  0.4420 -0.4135
  737MOL0     C99378  -1.317   4.406   7.154  0.7338 -1.1594 -1.2625
  737MOL0     C99379  -1.388   4.502   7.088 -0.1248  0.2606 -0.0640
  737MOL0     C99380  -1.510   4.481   7.010  0.4892 -0.1219 -0.3973
  737MOL0     C99381  -1.633   4.577   7.041 -0.3916  0.1991 -0.1410
  737MOL0     C99382  -1.766   4.528   6.964 -0.3374 -0.4646  1.4872
  737MOL0     C99383  -1.890   4.611   6.988 -0.3384 -0.1418 -0.6332
  737MOL0     O99384  -1.992   4.563   6.902  1.0669  0.5135  0.4248
  737MOL0     C99385  -2.103   4.648   6.899 -0.6455  0.4258  1.1706
  737MOL0     C99386  -2.194   4.643   7.005 -0.2424 -0.5708  0.8580
  737MOL0     C99387  -2.313   4.709   6.984 -0.3181  1.1314 -0.1048
  737MOL0     C99388  -2.348   4.776   6.869  0.0971 -0.1262 -0.0931
  737MOL0     C99389  -2.481   4.833   6.861  0.0730  0.0412  1.2711
  737MOL0     O99390  -2.532   4.844   6.730 -0.5898 -0.4878 -0.1440
  737MOL0     C99391  -2.647   4.909   6.696 -1.3866 -0.1508 -0.0284
  737MOL0     C99392  -2.657   4.986   6.579 -0.7293  0.1526  0.7676
  737MOL0     C99393  -2.776   5.033   6.535  0.5987  0.4020 -0.0265
  737MOL0     C99394  -2.897   5.015   6.602  0.6510 -0.8210 -0.5238
  737MOL0     O99395  -3.012   5.075   6.555  0.5912 -0.1598 -0.9667
  737MOL0     C99396  -3.070   5.137   6.670 -0.1164  0.0403  0.5739
  737MOL0     C99397  -3.163   5.245   6.602 -1.1519 -0.0896  0.0574
  737MOL0     C99398  -3.225   5.334   6.710 -0.3533 -0.5634 -0.2144
  737MOL0     C99399  -3.365   5.380   6.668  0.9938  0.0395  0.8908
  737MOL0     C99400  -3.450   5.449   6.776 -0.5691 -0.0942 -0.0486
  737MOL0     C99401  -3.607   5.451   6.768  1.6825 -0.5830 -0.1417
  737MOL0     C99402  -3.677   5.518   6.887 -0.4855 -0.4517  1.2255
  737MOL0     C99403  -3.834   5.515   6.869 -0.1050  0.8590 -0.2051
  737MOL0    Cl99404  -3.923   5.548   7.009  0.0654  0.3499 -0.6249
  737MOL0     C99405  -2.896   4.926   6.712 -0.2315  0.2416  0.5756
  737MOL0     C99406  -2.771   4.885   6.763 -0.9873 -0.2735 -0.4197
  737MOL0     O99407  -2.533   4.873   6.957  0.1768  1.2513 -0.9434
  737MOL0     C99408  -2.255   4.784   6.767 -0.3501 -0.2660 -0.4604
  737MOL0     C99409  -2.129   4.713   6.783 -0.2068  0.0758 -0.2704
  737MOL0     N99410  -1.307   4.618   7.091  0.4913 -0.1129  0.6388
  737MOL0     N99411  -1.194   4.590   7.146 -0.0561  0.0148 -0.5395
  737MOL0     C99412  -0.116   4.317   7.299 -0.0777  1.6292 -0.0259
  737MOL0     C99413   0.002   4.296   7.379  0.0136 -0.0813 -0.0590
  737MOL0     C99414   0.377   4.089   7.563 -0.9565  0.5865  0.7714
  737MOL0     C99415   0.385   4.190   7.660 -0.3588 -0.2138  0.1343
  737MOL0     C99416   0.489   4.192   7.756 -0.4601  0.3305 -1.1095
  737MOL0     C99417   0.583   4.085   7.762  0.0164 -0.0585 -1.3544
  737MOL0     O99418   0.668   4.104   7.874 -0.2035  0.3644 -0.1843
  737MOL0     C99419   0.799   4.042   7.874  0.3906 -0.3812  0.4876
  737MOL0     C99420   0.887   4.127   7.964  0.1982  0.4235 -0.5737
  737MOL0     C99421   1.033   4.070   7.970 -0.1511 -0.6572 -0.2186
  737MOL0     C99422   1.116   4.171   8.055 -0.3029  1.1196  0.0222
  737MOL0     C99423   1.052   4.180   8.183 -0.3084  0.5388 -0.7554
  737MOL0     C99424   0.987   4.178   8.291 -0.3591  0.3054 -0.8049
  737MOL0     C99425   0.576   3.984   7.660 -0.5785 -0.0539 -0.7947
  737MOL0     C99426   0.479   3.985   7.561  0.5420  0.2341  0.3775
  737MOL0     C99427   0.478   3.890   7.440  0.4420 -0.6542 -0.2780
  737MOL0     H99428   0.157   4.047   7.203  2.3137  0.5685  3.1349
  737MOL0     H99429  -0.043   4.093   7.047 -0.3213 -1.3346  1.6929
  737MOL0     H99430  -0.382   4.284   7.247 -0.1084  1.8783  0.7693
  737MOL0     H99431  -0.327   4.425   7.144 -1.6013  0.7985  0.6612
  737MOL0     H99432  -0.435   4.305   6.938 -2.8107  1.6966 -1.7628
  737MOL0     H99433  -0.517   4.419   7.032 -1.4964 -0.3757 -0.9115
  737MOL0     H99434  -0.522   4.123   7.095 -0.2994 -0.2322  1.2580
  737MOL0     H99435  -0.653   4.207   6.991 -0.9880  1.1717  1.0160
  737MOL0     H99436  -0.702   4.146   7.237  2.6760 -0.3221  5.2128
  737MOL0     H99437  -0.610   4.267   7.295 -0.4966 -0.0443  1.1233
  737MOL0     H99438  -0.756   4.410   7.120  1.7872  1.0438  2.4457
  737MOL0     H99439  -0.841   4.252   7.113  0.0288 -0.0804 -0.0967
  737MOL0     H99440  -0.873   4.283   7.375  1.1186 -1.3640 -1.6440
  737MOL0     H99441  -0.779   4.437   7.358  1.5721 -2.8373  2.1157
  737MOL0     H99442  -0.948   4.541   7.243  3.0044 -1.1952  1.8395
  737MOL0     H99443  -1.006   4.490   7.399 -0.8663 -1.5470  0.0504
  737MOL0     H99444  -1.041   4.320   7.133  1.0206 -0.0659 -0.4299
  737MOL0     H99445  -1.122   4.304   7.295 -3.5275  3.1829  0.9631
  737MOL0     H99446  -1.343   4.302   7.172  1.2766 -1.3018 -1.2924
  737MOL0     H99447  -1.483   4.500   6.905  1.6291 -0.7505 -0.2260
  737MOL0     H99448  -1.533   4.376   7.032 -0.2021  0.3479  1.2093
  737MOL0     H99449  -1.660   4.587   7.147 -1.2494  2.3770 -0.5087
  737MOL0     H99450  -1.613   4.679   7.008  2.0319 -0.3237 -0.4339
  737MOL0     H99451  -1.798   4.425   6.977 -1.5003 -0.6889 -2.1606
  737MOL0     H99452  -1.750   4.544   6.857 -0.3886  0.3628  1.5897
  737MOL0     H99453  -1.864   4.716   6.978 -0.1634  0.0124  1.1656
  737MOL0     H99454  -1.915   4.595   7.093  1.5354  0.3655 -0.0732
  737MOL0     H99455  -2.170   4.575   7.086  0.1023 -2.2462 -0.5929
  737MOL0     H99456  -2.386   4.700   7.064  1.1334 -1.8444  1.0088
  737MOL0     H99457  -2.567   4.998   6.519  0.1435 -0.6535  1.8603
  737MOL0     H99458  -2.778   5.089   6.442 -0.3975 -3.8107 -2.8714
  737MOL0     H99459  -3.122   5.061   6.727  3.2982 -1.4509  2.0082
  737MOL0     H99460  -2.991   5.185   6.729  2.5785  1.2004 -3.4970
  737MOL0     H99461  -3.102   5.311   6.539  0.3670 -2.1906 -0.7853
  737MOL0     H99462  -3.240   5.198   6.541 -1.2785  0.2354 -0.0372
  737MOL0     H99463  -3.229   5.291   6.810 -1.0316 -0.8204 -0.3420
  737MOL0     H99464  -3.158   5.420   6.705 -0.4490 -0.4845 -4.9119
  737MOL0     H99465  -3.424   5.292   6.642  0.1541  0.9724 -0.5016
  737MOL0     H99466  -3.354   5.442   6.578 -1.7069 -2.7745 -1.5744
  737MOL0     H99467  -3.423   5.555   6.782 -2.9461  0.9446 -3.8139
  737MOL0     H99468  -3.433   5.401   6.873  1.1429  2.2751  0.9064
  737MOL0     H99469  -3.639   5.518   6.688  2.7084 -0.4782 -0.4789
  737MOL0     H99470  -3.647   5.353   6.743 -1.3778 -0.5921  3.8451
  737MOL0     H99471  -3.649   5.624   6.893  0.7901 -0.6941  0.0358
  737MOL0     H99472  -3.644   5.467   6.978 -0.0709  0.1507  1.4135
  737MOL0     H99473  -3.874   5.574   6.786  2.2401  0.6597 -1.5679
  737MOL0     H99474  -3.848   5.410   6.841  1.9211  1.5034 -4.5290
  737MOL0     H99475  -2.988   4.918   6.769 -1.5112  0.5862 -1.3427
  737MOL0     H99476  -2.761   4.847   6.863 -0.3261 -1.4208 -0.9026
  737MOL0     H99477  -2.291   4.836   6.679 -2.3869 -2.5806 -1.0883
  737MOL0     H99478  -2.052   4.717   6.706  1.3172  3.1131  1.2239
  737MOL0     H99479  -0.188   4.389   7.338 -0.2504  1.4712 -0.0504
  737MOL0     H99480   0.010   4.368   7.459  2.7914  1.8285 -1.8974
  737MOL0     H99481   0.328   4.281   7.645  0.6144  0.5828  1.0958
  737MOL0     H99482   0.502   4.281   7.817  3.8782 -0.3595 -0.6788
  737MOL0     H99483   0.846   4.041   7.775 -0.8051 -5.6354 -0.3206
  737MOL0     H99484   0.793   3.937   7.903  2.1397 -0.2358  1.5057
  737MOL0     H99485   0.828   4.135   8.056  1.0178 -0.1619  0.0155
  737MOL0     H99486   0.880   4.228   7.922 -1.7455  0.2826 -0.6772
  737MOL0     H99487   1.076   4.062   7.869 -0.4724  0.8896 -0.5149
  737MOL0     H99488   1.028   3.975   8.022  0.1979  0.5433  2.1355
  737MOL0     H99489   1.218   4.134   8.067 -0.7440  0.1747  1.1985
  737MOL0     H99490   1.110   4.269   8.007 -0.1718  1.6193  0.9937
  737MOL0     H99491   0.936   4.175   8.385 -2.4501  3.5249 -1.6748
  737MOL0     H99492   0.658   3.917   7.680 -1.8645 -0.8083  2.7247
  737MOL0     H99493   0.455   3.941   7.346 -1.5214 -0.7740  0.0778
  737MOL0     H99494   0.577   3.848   7.424  0.0299 -1.5896 -0.4322
  737MOL0     H99495   0.403   3.810   7.445  0.5553 -0.7265  0.3457
  738MOL0     O99496   6.102   2.234   6.970  0.1806  0.1837 -0.1592
  738MOL0     C99497   6.127   2.182   7.077  0.8625 -1.0642 -0.4108
  738MOL0     O99498   6.032   2.112   7.147 -0.6626  0.1354 -0.1353
  738MOL0     C99499   5.904   2.122   7.111 -0.5434  0.2673 -0.6461
  738MOL0     C99500   5.825   2.015   7.061 -1.1129  0.5555 -0.1999
  738MOL0     C99501   5.699   2.044   7.019  0.0553 -0.3504 -1.1592
  738MOL0     C99502   5.643   2.174   7.040 -0.5941  1.7766  0.8063
  738MOL0     O99503   5.507   2.196   7.036  0.1638  0.8324 -0.0873
  738MOL0     C99504   5.454   2.198   6.905  1.4484 -0.9769 -0.5289
  738MOL0     C99505   5.527   2.298   6.811  0.1132  0.0675 -0.1077
  738MOL0     C99506   5.439   2.342   6.702  0.2318  0.5826 -0.0703
  738MOL0     C99507   5.520   2.424   6.602  0.9804 -0.2820 -0.8925
  738MOL0     C99508   5.440   2.476   6.482  0.1805 -0.2507 -1.2554
  738MOL0     C99509   5.518   2.592   6.413  0.4886 -0.0677  0.2882
  738MOL0     C99510   5.639   2.549   6.336 -0.8655 -0.3352  0.2217
  738MOL0     C99511   5.634   2.417   6.247  1.4874 -0.4789 -0.5226
  738MOL0     N99512   5.518   2.408   6.164 -0.0698 -0.7419  0.6358
  738MOL0     C99513   5.495   2.488   6.052 -0.0861  0.5382 -0.1613
  738MOL0     C99514   5.394   2.423   5.990  0.6960  0.8331 -0.2491
  738MOL0     C99515   5.322   2.447   5.857  0.2927 -0.1561  0.9071
  738MOL0     C99516   5.299   2.587   5.805  0.4997 -0.1706 -0.2527
  738MOL0     C99517   5.171   2.644   5.859  1.0770  0.4628  0.2077
  738MOL0     C99518   5.058   2.613   5.773  0.6286 -0.1892 -0.1376
  738MOL0     O99519   4.937   2.648   5.852  0.9841 -0.3376 -0.1013
  738MOL0     C99520   4.826   2.647   5.773 -0.0693 -0.8104  0.3927
  738MOL0     C99521   4.801   2.547   5.682  0.9224  0.1860  0.3752
  738MOL0     C99522   4.678   2.555   5.611  0.3871  0.7686 -0.7585
  738MOL0     C99523   4.579   2.657   5.625  0.2336  0.2862 -0.1328
  738MOL0     C99524   4.454   2.666   5.538  0.1339 -0.5919  0.3627
  738MOL0     O99525   4.345   2.735   5.578 -0.4610 -0.6021 -0.1543
  738MOL0     C99526   4.226   2.763   5.510 -0.0639  0.0078 -0.4722
  738MOL0     C99527   4.179   2.715   5.389  0.3910 -0.5979  0.9020
  738MOL0     C99528   4.045   2.729   5.348  0.6732  0.6741 -1.1071
  738MOL0     C99529   3.943   2.794   5.423 -0.3380 -0.0652  0.1104
  738MOL0     O99530   3.816   2.826   5.368 -0.1686  0.2763 -0.0074
  738MOL0     C99531   3.742   2.729   5.291  0.5753  0.0283 -0.3930
  738MOL0     C99532   3.596   2.737   5.341  0.4466  0.0737  0.4646
  738MOL0     C99533   3.527   2.848   5.268 -0.1222  0.6744  0.0756
  738MOL0     C99534   3.381   2.858   5.294  0.8553 -0.0131 -0.0323
  738MOL0     C99535   3.351   2.910   5.440 -0.4190  0.5607  0.2072
  738MOL0     C99536   3.219   2.977   5.459  0.0886  0.7770 -0.4700
  738MOL0     C99537   3.183   3.018   5.605  0.3234  0.2112  0.0304
  738MOL0     C99538   3.076   2.928   5.669  0.1592 -1.2175  0.3975
  738MOL0    Cl99539   3.157   2.774   5.696 -0.1918  0.4003 -0.6138
  738MOL0     C99540   3.991   2.855   5.546  0.3463  0.4854  0.4369
  738MOL0     C99541   4.125   2.836   5.583 -0.4191 -0.0627 -0.0261
  738MOL0     O99542   4.456   2.597   5.435  0.7529  0.1541 -0.2045
  738MOL0     C99543   4.606   2.751   5.728  0.2278 -0.0121 -0.1062
  738MOL0     C99544   4.735   2.748   5.797  1.0045  0.2707  0.9008
  738MOL0     N99545   5.360   2.311   6.061  1.0465  0.5096  0.1230
  738MOL0     N99546   5.433   2.303   6.164  0.1481 -0.5956  0.2331
  738MOL0     C99547   5.721   2.269   7.108 -0.2858  1.0595  0.0916
  738MOL0     C99548   5.854   2.251   7.132 -0.0967  0.4650  0.1907
  738MOL0     C99549   6.261   2.208   7.126 -0.0457  0.5446 -0.6692
  738MOL0     C99550   6.283   2.207   7.265  0.2831 -0.0157 -1.0575
  738MOL0     C99551   6.415   2.221   7.319  0.2122  0.0122  0.4180
  738MOL0     C99552   6.519   2.228   7.230 -1.1692  1.2281 -0.9017
  738MOL0     O99553   6.648   2.257   7.261  0.4266 -0.1953  0.1389
  738MOL0     C99554   6.673   2.384   7.320  0.3831  1.2754  0.0862
  738MOL0     C99555   6.664   2.375   7.464  0.4809 -0.0466  0.8377
  738MOL0     C99556   6.724   2.495   7.536  0.3326  0.2952 -0.2486
  738MOL0     C99557   6.752   2.474   7.692  0.0935  0.5369  0.3032
  738MOL0     C99558   6.815   2.586   7.759  0.7354  0.5299 -0.6566
  738MOL0     C99559   6.876   2.684   7.811 -0.0773  0.2092  0.0277
  738MOL0     C99560   6.495   2.221   7.097  0.7429  0.1288 -0.1013
  738MOL0     C99561   6.371   2.230   7.046 -0.4295 -0.6018 -0.5403
  738MOL0     C99562   6.368   2.255   6.902 -0.5545  0.2608  0.3070
  738MOL0     H99563   5.855   1.912   7.049  0.0180  0.7117  1.0638
  738MOL0     H99564   5.639   1.969   6.969 -1.0525 -0.7682  0.6724
  738MOL0     H99565   5.450   2.100   6.855 -0.2883 -0.4068 -1.5979
  738MOL0     H99566   5.349   2.229   6.916  2.3077  1.5580  1.4283
  738MOL0     H99567   5.613   2.257   6.758  0.9688 -1.3556  2.1962
  738MOL0     H99568   5.540   2.382   6.880 -4.5903 -1.2960  2.9428
  738MOL0     H99569   5.346   2.391   6.732  0.1933  0.8522 -0.6158
  738MOL0     H99570   5.405   2.255   6.646 -0.0451  0.4138  0.3545
  738MOL0     H99571   5.553   2.512   6.657 -2.3016 -1.1979  3.0121
  738MOL0     H99572   5.606   2.369   6.564  0.8154  0.5732 -2.6217
  738MOL0     H99573   5.413   2.388   6.423 -2.7070  0.1542 -0.6991
  738MOL0     H99574   5.342   2.507   6.519  1.3931  0.5980  1.5675
  738MOL0     H99575   5.454   2.642   6.339  2.4719  0.6334 -1.0301
  738MOL0     H99576   5.556   2.669   6.480 -0.6694  0.4765  0.3504
  738MOL0     H99577   5.722   2.531   6.406 -0.5336  2.7165  0.7770
  738MOL0     H99578   5.671   2.632   6.272  0.5103 -0.4887  0.6669
  738MOL0     H99579   5.726   2.420   6.188  0.7506 -1.1486 -1.7503
  738MOL0     H99580   5.648   2.333   6.316  1.9745  1.7844  2.3714
  738MOL0     H99581   5.559   2.564   6.009  2.8260 -1.1306  0.9944
  738MOL0     H99582   5.386   2.395   5.785  0.6113 -1.5077  2.1196
  738MOL0     H99583   5.234   2.384   5.845  0.6462 -0.6361  0.8019
  738MOL0     H99584   5.382   2.654   5.828  1.3917 -2.6050  5.5280
  738MOL0     H99585   5.296   2.593   5.696 -1.7994  2.5330 -0.1742
  738MOL0     H99586   5.186   2.752   5.857  1.1827  0.4459 -1.6419
  738MOL0     H99587   5.149   2.616   5.963  0.5101  0.3111  0.0449
  738MOL0     H99588   5.056   2.504   5.758  2.2737 -0.3114  0.3302
  738MOL0     H99589   5.056   2.673   5.682 -2.9178 -1.8414 -1.3238
  738MOL0     H99590   4.863   2.464   5.650  0.8492  0.9855 -2.0476
  738MOL0     H99591   4.649   2.485   5.533 -1.5539 -1.5457  1.8178
  738MOL0     H99592   4.255   2.672   5.324 -0.1637  0.1245 -0.2628
  738MOL0     H99593   4.011   2.691   5.252 -1.7436 -1.0961  0.3382
  738MOL0     H99594   3.749   2.768   5.189 -0.6216  2.7737  0.4867
  738MOL0     H99595   3.787   2.629   5.289  1.8560  0.5849 -2.1657
  738MOL0     H99596   3.537   2.648   5.315 -0.9263  0.6204  1.5661
  738MOL0     H99597   3.593   2.761   5.448  0.7696  2.0924  0.0624
  738MOL0     H99598   3.584   2.939   5.291  0.0849  0.4295  0.5362
  738MOL0     H99599   3.542   2.817   5.164  1.9604  3.6118 -0.6497
  738MOL0     H99600   3.330   2.761   5.297  3.1910 -1.2849  2.1872
  738MOL0     H99601   3.337   2.920   5.215  0.1812 -2.2998 -1.5305
  738MOL0     H99602   3.429   2.985   5.456  0.1711 -0.1037  0.4786
  738MOL0     H99603   3.368   2.825   5.506 -0.3955 -1.3268 -2.1130
  738MOL0     H99604   3.222   3.067   5.398 -0.8756 -0.3234 -2.1989
  738MOL0     H99605   3.148   2.916   5.402  1.2941 -0.4448 -0.7131
  738MOL0     H99606   3.145   3.120   5.594  2.1059  0.9241  0.1352
  738MOL0     H99607   3.268   3.024   5.674 -1.0079  2.0321  1.6004
  738MOL0     H99608   3.034   2.970   5.761  1.0817 -0.7953  0.6373
  738MOL0     H99609   2.996   2.918   5.595  0.5300 -2.2146  0.1191
  738MOL0     H99610   3.919   2.905   5.609 -1.5423 -0.3632 -0.9355
  738MOL0     H99611   4.150   2.890   5.674 -0.9751 -1.2835  0.8835
  738MOL0     H99612   4.544   2.838   5.748 -0.3748 -0.6069  0.6298
  738MOL0     H99613   4.752   2.832   5.864 -0.7313  1.2259  0.2109
  738MOL0     H99614   5.671   2.361   7.137  0.2636  1.7313 -1.0483
  738MOL0     H99615   5.909   2.330   7.181  2.6424 -0.4169 -1.2606
  738MOL0     H99616   6.209   2.203   7.344  2.8362 -0.0860  1.4953
  738MOL0     H99617   6.428   2.218   7.427  1.9284  1.0037  0.2900
  738MOL0     H99618   6.617   2.459   7.263 -0.5938 -0.5253 -1.4431
  738MOL0     H99619   6.779   2.396   7.293 -0.1108 -1.1108 -3.6787
  738MOL0     H99620   6.718   2.288   7.502  4.4042  2.2378  1.0923
  738MOL0     H99621   6.558   2.357   7.478 -0.1453  2.6993  0.3319
  738MOL0     H99622   6.646   2.571   7.521 -0.5835 -0.0211  2.4019
  738MOL0     H99623   6.814   2.526   7.482  1.3025 -1.3414  0.3773
  738MOL0     H99624   6.660   2.445   7.744  0.1238 -0.2382 -0.0606
  738MOL0     H99625   6.826   2.394   7.684 -1.1479 -0.4335 -4.1411
  738MOL0     H99626   6.916   2.769   7.863  2.4630 -1.8406  1.6988
  738MOL0     H99627   6.582   2.230   7.033  0.1814 -0.2518 -0.9180
  738MOL0     H99628   6.315   2.349   6.885 -0.4303  0.2352 -0.2397
  738MOL0     H99629   6.467   2.260   6.857 -1.0428 -3.1928 -1.5034
  738MOL0     H99630   6.304   2.192   6.839  0.2005  0.6356 -0.8545
  739MOL0     O99631   9.750   1.798   9.480 -0.6123  0.0578  0.0510
  739MOL0     C99632   9.679   1.704   9.516 -0.1289  0.8346 -0.2908
  739MOL0     O99633   9.643   1.600   9.439 -1.1964  0.3798  0.3068
  739MOL0     C99634   9.665   1.599   9.299 -0.3978  0.0036  0.4426
  739MOL0     C99635   9.728   1.476   9.253  0.1060 -0.1043 -0.6970
  739MOL0     C99636   9.737   1.452   9.115 -0.0237  0.7147  0.7127
  739MOL0     C99637   9.697   1.544   9.021  0.0016 -0.4887 -0.1388
  739MOL0     O99638   9.712   1.509   8.890  0.6885 -0.2205 -0.1168
  739MOL0     C99639   9.657   1.592   8.790 -0.3264 -0.2746  0.1466
  739MOL0     C99640   9.646   1.516   8.660 -0.5437  0.2473 -0.6142
  739MOL0     C99641   9.776   1.450   8.622  0.2906  0.1112  0.7302
  739MOL0     C99642   9.767   1.408   8.474 -0.0740  0.3912  0.4553
  739MOL0     C99643   9.905   1.383   8.409  0.8373 -0.5986 -0.3482
  739MOL0     C99644   9.909   1.343   8.264 -0.2129 -0.5723 -0.0459
  739MOL0     C99645   9.814   1.238   8.217  0.7748 -0.3543  0.6734
  739MOL0     C99646   9.851   1.183   8.085  0.0275  0.8349  0.8813
  739MOL0     N99647   9.835   1.285   7.980 -0.2076 -0.6535  0.6559
  739MOL0     C99648   9.709   1.337   7.941 -0.6515 -0.4495  0.1114
  739MOL0     C99649   9.745   1.432   7.846 -0.6615  0.3839  0.4092
  739MOL0     C99650   9.641   1.493   7.757  0.2482 -0.2333  0.2847
  739MOL0     C99651   9.689   1.495   7.608  0.1200  0.6052 -0.0132
  739MOL0     C99652   9.564   1.545   7.525 -1.3286  0.0089 -0.9963
  739MOL0     C99653   9.608   1.522   7.376 -0.2366 -0.1231 -0.5402
  739MOL0     O99654   9.536   1.610   7.292 -0.1475 -0.8218 -0.3516
  739MOL0     C99655   9.556   1.595   7.149  0.1172  0.3789  0.6562
  739MOL0     C99656   9.639   1.502   7.084  0.2604  0.2293  0.4854
  739MOL0     C99657   9.656   1.509   6.948 -0.7622 -0.4442  0.5057
  739MOL0     C99658   9.576   1.595   6.871  0.3438  1.1887  1.0510
  739MOL0     C99659   9.593   1.613   6.720 -0.8691  0.8272 -0.3465
  739MOL0     O99660   9.691   1.543   6.658  0.2687  0.5072  0.2493
  739MOL0     C99661   9.731   1.595   6.542 -0.8245  0.6088  0.8001
  739MOL0     C99662   9.657   1.583   6.422 -0.3261 -0.2655  1.0220
  739MOL0     C99663   9.690   1.636   6.299  0.0054 -0.1715 -0.3402
  739MOL0     C99664   9.815   1.708   6.296 -0.4549  0.3085 -0.4395
  739MOL0     O99665   9.877   1.774   6.186 -0.3810  0.2287  0.3460
  739MOL0     C99666   9.835   1.731   6.061  1.2293  0.4608 -0.3360
  739MOL0     C99667   9.901   1.821   5.964 -0.4677  0.9652 -1.0323
  739MOL0     C99668   9.856   1.971   5.978 -0.7393 -0.3543 -0.2501
  739MOL0     C99669   9.958   2.065   5.905  0.2751  0.3730  0.1500
  739MOL0     C99670   9.951   2.208   5.950  1.1889 -0.0454 -0.3627
  739MOL0     C99671  10.086   2.282   5.941 -0.5495  0.1020  0.1548
  739MOL0     C99672  10.155   2.278   5.808 -0.6586  0.4063  0.5402
  739MOL0     C99673  10.051   2.318   5.690 -0.1274 -0.0990  0.0774
  739MOL0    Cl99674  10.089   2.297   5.517  0.2357 -0.3250 -0.7358
  739MOL0     C99675   9.896   1.722   6.416  0.2440  0.5679  0.0976
  739MOL0     C99676   9.855   1.666   6.536  0.9553  0.1347  0.2368
  739MOL0     O99677   9.506   1.680   6.666  0.4118  0.0141  0.4206
  739MOL0     C99678   9.473   1.667   6.935  0.0610  0.4780  0.3570
  739MOL0     C99679   9.473   1.676   7.069  0.8436  0.4082 -0.0763
  739MOL0     N99680   9.886   1.441   7.839  0.4991  0.0415  0.1761
  739MOL0     N99681   9.942   1.348   7.911 -0.0400  0.4662 -1.1550
  739MOL0     C99682   9.634   1.664   9.070  0.0592 -0.9748 -1.0008
  739MOL0     C99683   9.626   1.693   9.208  0.3454 -0.7815  0.5909
  739MOL0     C99684   9.657   1.685   9.662 -0.2708  0.2108  0.5272
  739MOL0     C99685   9.631   1.556   9.713 -0.2420 -0.3137  1.1076
  739MOL0     C99686   9.601   1.529   9.841 -0.8187 -0.8325 -0.3212
  739MOL0     C99687   9.605   1.629   9.938 -0.7912  0.7057 -0.2838
  739MOL0     O99688   9.560   1.592  10.072 -0.0527 -0.5409  0.6501
  739MOL0     C99689   9.517   1.699  10.148 -0.0548 -0.1713 -0.3507
  739MOL0     C99690   9.438   1.638  10.266 -0.5793 -0.2769 -0.2313
  739MOL0     C99691   9.351   1.740  10.342  0.0930 -0.6712  0.5592
  739MOL0     C99692   9.236   1.679  10.418  0.2052 -0.1151 -0.9084
  739MOL0     C99693   9.152   1.784  10.486 -0.8547 -0.1792  0.0503
  739MOL0     C99694   9.078   1.863  10.539  0.5743 -0.2979  0.5517
  739MOL0     C99695   9.629   1.756   9.891 -0.3956 -0.6713  0.1333
  739MOL0     C99696   9.666   1.785   9.755 -0.4288 -0.2641  0.6180
  739MOL0     C99697   9.714   1.924   9.726 -0.1488 -0.5785  0.3626
  739MOL0     H99698   9.755   1.395   9.320 -1.1070  0.2924  0.2994
  739MOL0     H99699   9.773   1.356   9.079 -2.4560  0.8757 -2.5674
  739MOL0     H99700   9.560   1.633   8.822 -0.9438  0.1977 -2.1837
  739MOL0     H99701   9.722   1.676   8.764 -0.5706 -0.8144 -2.4390
  739MOL0     H99702   9.609   1.562   8.568  2.3842 -0.3177 -2.1858
  739MOL0     H99703   9.570   1.438   8.667 -1.9388  1.6658  1.9560
  739MOL0     H99704   9.784   1.355   8.675 -1.0523 -0.2550  0.3230
  739MOL0     H99705   9.859   1.515   8.653 -2.1164  1.8815  4.2718
  739MOL0     H99706   9.705   1.318   8.461  1.7965 -0.7928 -0.7251
  739MOL0     H99707   9.715   1.487   8.418 -0.2366  0.7128  1.0501
  739MOL0     H99708   9.970   1.470   8.421 -2.1846  1.4314  3.3720
  739MOL0     H99709   9.941   1.286   8.445 -1.2734 -2.7622 -3.5149
  739MOL0     H99710   9.887   1.434   8.207  0.0889  0.5222  1.5404
  739MOL0     H99711  10.013   1.314   8.245  0.9710  2.1784  1.6063
  739MOL0     H99712   9.714   1.280   8.226  0.5092 -0.6723 -0.6214
  739MOL0     H99713   9.825   1.158   8.292  1.7074 -2.2160 -1.3341
  739MOL0     H99714   9.952   1.145   8.105 -0.6616 -2.0652 -0.5130
  739MOL0     H99715   9.788   1.097   8.060 -2.9251  2.5625  1.8718
  739MOL0     H99716   9.615   1.292   7.972 -1.6296  0.6869 -1.0886
  739MOL0     H99717   9.553   1.429   7.763 -0.6045  0.7606 -1.0196
  739MOL0     H99718   9.616   1.594   7.791 -0.4801  0.6512 -2.6004
  739MOL0     H99719   9.766   1.573   7.607 -1.3190  2.0841  0.0633
  739MOL0     H99720   9.740   1.404   7.576  4.4241  3.3824 -2.0235
  739MOL0     H99721   9.542   1.651   7.542  1.9774  1.2700 -3.4735
  739MOL0     H99722   9.485   1.470   7.540 -0.5437 -0.4610  1.0990
  739MOL0     H99723   9.591   1.418   7.345  0.6428 -0.1148 -1.0666
  739MOL0     H99724   9.713   1.546   7.362 -0.2117  0.7061  0.8599
  739MOL0     H99725   9.701   1.431   7.138  0.9244 -2.6330 -3.5520
  739MOL0     H99726   9.741   1.464   6.898 -1.5086 -0.0557 -1.2008
  739MOL0     H99727   9.565   1.525   6.417  0.1620 -0.9307 -1.9363
  739MOL0     H99728   9.621   1.605   6.221 -1.0504 -1.3298  0.9958
  739MOL0     H99729   9.873   1.629   6.049 -0.8627 -0.3119 -0.8725
  739MOL0     H99730   9.728   1.731   6.038  0.8441 -0.8514  1.2562
  739MOL0     H99731  10.005   1.811   5.996 -0.2383  4.3314 -0.3852
  739MOL0     H99732   9.888   1.787   5.861 -0.0455  0.8876 -1.0615
  739MOL0     H99733   9.754   1.975   5.939 -1.2530  0.3154  1.1325
  739MOL0     H99734   9.860   2.004   6.082 -2.7090 -3.1658  0.8355
  739MOL0     H99735   9.951   2.054   5.796  1.0857 -1.5835  0.2473
  739MOL0     H99736  10.055   2.022   5.931 -0.9847 -2.4559  0.5558
  739MOL0     H99737   9.922   2.205   6.055 -3.4327  0.7177 -1.3826
  739MOL0     H99738   9.877   2.260   5.888 -0.6976 -0.2699  1.5681
  739MOL0     H99739  10.088   2.386   5.975  0.7080 -0.1466  0.8938
  739MOL0     H99740  10.148   2.226   6.011  0.4922  3.0676  1.7703
  739MOL0     H99741  10.197   2.179   5.793 -2.2892 -0.4783  1.5075
  739MOL0     H99742  10.236   2.350   5.823  1.1946 -2.1437  4.2184
  739MOL0     H99743   9.947   2.286   5.695 -0.4226  0.8932  0.6227
  739MOL0     H99744  10.049   2.427   5.692  4.0447  0.1339  1.4469
  739MOL0     H99745   9.988   1.779   6.406 -0.2168  1.0791 -1.6715
  739MOL0     H99746   9.913   1.691   6.625  3.9034  0.3499 -1.5893
  739MOL0     H99747   9.398   1.722   6.879  3.1118  3.2076 -1.3746
  739MOL0     H99748   9.396   1.736   7.117  0.2504  2.6530 -3.4806
  739MOL0     H99749   9.577   1.730   9.006  0.6534  0.7140  0.1401
  739MOL0     H99750   9.572   1.779   9.247 -0.7297 -0.8466 -0.6883
  739MOL0     H99751   9.634   1.481   9.635  0.8338  1.3819 -0.5358
  739MOL0     H99752   9.572   1.433   9.882 -4.6667  0.0270 -0.6756
  739MOL0     H99753   9.448   1.752  10.082 -1.8387 -0.2083  1.4184
  739MOL0     H99754   9.601   1.765  10.173 -0.2795  0.3723 -0.9982
  739MOL0     H99755   9.507   1.595  10.339 -0.6665  0.8195  0.5128
  739MOL0     H99756   9.368   1.561  10.234  2.3478 -2.5336 -1.7903
  739MOL0     H99757   9.311   1.813  10.271 -4.7365  1.6193  4.9450
  739MOL0     H99758   9.413   1.789  10.417  2.0736 -1.6192 -0.3691
  739MOL0     H99759   9.168   1.628  10.349 -0.2190 -0.8927  0.0614
  739MOL0     H99760   9.275   1.608  10.491 -5.8595 -1.1461  1.9244
  739MOL0     H99761   8.992   1.900  10.591 -0.4368 -1.3729 -0.2912
  739MOL0     H99762   9.635   1.834   9.967 -0.1410 -0.2262 -0.3414
  739MOL0     H99763   9.717   1.996   9.808  2.3865  2.2783 -1.9886
  739MOL0     H99764   9.812   1.934   9.679  0.9363 -1.3665  2.3291
  739MOL0     H99765   9.641   1.962   9.655  1.1304  0.3609 -0.4860
  740MOL0     O99766   4.872   6.231   9.935 -0.3974  0.2435  0.4084
  740MOL0     C99767   4.874   6.354   9.918 -0.8171  0.0281 -0.5813
  740MOL0     O99768   4.860   6.443  10.023 -0.1283  0.6018  0.3778
  740MOL0     C99769   4.884   6.401  10.158 -0.6295  0.5063  0.8699
  740MOL0     C99770   4.958   6.289  10.195  0.3593  0.3885  0.2021
  740MOL0     C99771   4.925   6.235  10.327  0.9820 -0.0693  0.8791
  740MOL0     C99772   4.850   6.305  10.413 -0.0523 -0.2134 -0.0200
  740MOL0     O99773   4.859   6.256  10.546  0.0076  0.1732 -0.2839
  740MOL0     C99774   4.768   6.306  10.649 -0.9577  0.5468 -0.2659
  740MOL0     C99775   4.765   6.216  10.775  0.1045  0.0505  0.0367
  740MOL0     C99776   4.683   6.268  10.887  0.1577  0.3812  0.1315
  740MOL0     C99777   4.663   6.160  10.988 -0.7358 -0.6877 -0.2981
  740MOL0     C99778   4.598   6.220  11.106 -0.1066 -1.0010  0.6281
  740MOL0     C99779   4.545   6.127  11.216 -0.1567 -0.2157 -0.5682
  740MOL0     C99780   4.438   6.034  11.165 -0.0852 -0.1292 -0.3441
  740MOL0     C99781   4.343   5.969  11.282  0.3092 -0.0933 -0.8958
  740MOL0     N99782   4.413   5.886  11.386  0.0714 -0.4079 -0.2375
  740MOL0     C99783   4.476   5.922  11.497 -0.6085 -0.8750  0.1997
  740MOL0     C99784   4.485   5.825  11.584 -0.1093 -0.0607  0.0093
  740MOL0     C99785   4.551   5.825  11.723  0.8494 -0.4436  0.0960
  740MOL0     C99786   4.457   5.760  11.830 -0.9557  0.3846  0.4931
  740MOL0     C99787   4.350   5.860  11.867  0.0529  0.0787 -0.9632
  740MOL0     C99788   4.283   5.827  12.000 -0.1040 -0.2728 -0.6764
  740MOL0     O99789   4.185   5.728  11.977  0.5439  1.1121 -0.0783
  740MOL0     C99790   4.117   5.684  12.089  0.2141 -0.2446  0.5645
  740MOL0     C99791   4.027   5.578  12.083  0.6912  0.4522 -0.1980
  740MOL0     C99792   3.935   5.548  12.186  0.8354 -0.0736  1.4075
  740MOL0     C99793   3.927   5.626  12.303 -0.1491 -0.9959  0.1675
  740MOL0     C99794   3.834   5.604  12.418 -1.3627 -0.0049  0.1389
  740MOL0     O99795   3.743   5.505  12.397 -0.0390 -0.2704 -0.1672
  740MOL0     C99796   3.695   5.433  12.503 -1.0362 -0.2981 -0.1237
  740MOL0     C99797   3.571   5.452  12.560  0.1264 -0.2703  0.7236
  740MOL0     C99798   3.536   5.383  12.670 -0.3364  0.3451  0.2994
  740MOL0     C99799   3.618   5.289  12.729  0.8826 -0.0254  0.3600
  740MOL0     O99800   3.581   5.201  12.839  0.3483  0.5118  0.8937
  740MOL0     C99801   3.452   5.213  12.902  1.1822  0.1366 -0.0189
  740MOL0     C99802   3.427   5.116  13.011  0.3730 -0.0895  0.1205
  740MOL0     C99803   3.482   5.141  13.150 -0.4487 -0.5790 -0.6016
  740MOL0     C99804   3.614   5.070  13.179 -0.6976 -0.0482  0.7504
  740MOL0     C99805   3.738   5.154  13.216 -0.2574 -0.4992  0.7508
  740MOL0     C99806   3.879   5.089  13.213  0.3472  0.3523 -0.0231
  740MOL0     C99807   3.908   5.032  13.072 -0.6386 -0.0856 -0.0600
  740MOL0     C99808   4.055   4.989  13.038 -0.8638 -0.3299 -0.5042
  740MOL0    Cl99809   4.133   4.872  13.156  0.2438 -0.0420  0.4820
  740MOL0     C99810   3.730   5.256  12.656 -0.5015  0.0267 -0.1441
  740MOL0     C99811   3.769   5.324  12.544 -0.7793  0.5280 -0.2260
  740MOL0     O99812   3.853   5.660  12.522 -0.0472 -0.1474  0.4478
  740MOL0     C99813   4.032   5.717  12.320  0.2535 -0.3956 -0.1941
  740MOL0     C99814   4.117   5.756  12.217 -0.3674  0.8764  0.1828
  740MOL0     N99815   4.435   5.721  11.514  0.2280 -0.0588  0.0829
  740MOL0     N99816   4.399   5.751  11.397  0.1109 -0.3852 -0.4089
  740MOL0     C99817   4.791   6.428  10.382 -0.4868  0.2407  0.0253
  740MOL0     C99818   4.812   6.476  10.249  0.7661 -0.3459 -0.1355
  740MOL0     C99819   4.879   6.399   9.781 -0.9765  0.2832  0.7058
  740MOL0     C99820   4.929   6.308   9.681 -0.2111  0.2605 -0.2778
  740MOL0     C99821   4.943   6.351   9.546 -0.5825 -0.0456  0.0833
  740MOL0     C99822   4.916   6.482   9.507 -0.1160 -0.1694 -0.3959
  740MOL0     O99823   4.956   6.530   9.385 -0.1824 -0.2613 -0.1728
  740MOL0     C99824   4.873   6.481   9.276  0.2668  0.0870 -0.8429
  740MOL0     C99825   4.732   6.519   9.260  0.6055 -0.3175 -0.7071
  740MOL0     C99826   4.654   6.442   9.153  0.6874 -0.6847  0.0735
  740MOL0     C99827   4.622   6.305   9.186  0.5821  0.4012 -0.8937
  740MOL0     C99828   4.612   6.222   9.064  0.5410  0.1288 -0.3328
  740MOL0     C99829   4.585   6.148   8.973  0.6692  0.5586  0.2228
  740MOL0     C99830   4.852   6.564   9.604  0.2114  0.1527  0.3895
  740MOL0     C99831   4.825   6.517   9.734 -1.1435 -0.6597  0.2631
  740MOL0     C99832   4.763   6.623   9.821  0.3746  0.0396 -0.8087
  740MOL0     H99833   5.019   6.222  10.135 -2.8101 -2.2665 -0.3464
  740MOL0     H99834   4.968   6.146  10.370 -0.1936  0.3605  3.0457
  740MOL0     H99835   4.802   6.398  10.698 -0.5480 -1.2662  3.1740
  740MOL0     H99836   4.668   6.315  10.608 -0.6567 -0.9364 -1.3958
  740MOL0     H99837   4.870   6.218  10.803 -0.3205  0.8130  1.6597
  740MOL0     H99838   4.739   6.112  10.754  0.2125  0.1621 -0.6993
  740MOL0     H99839   4.593   6.315  10.846 -1.4542 -2.1142  0.6029
  740MOL0     H99840   4.743   6.351  10.926  2.8646  0.0787 -2.9488
  740MOL0     H99841   4.603   6.076  10.953 -0.5287 -0.4724 -1.1948
  740MOL0     H99842   4.767   6.139  11.015 -0.3154  0.6470 -0.8053
  740MOL0     H99843   4.674   6.275  11.162 -1.3169 -0.0240  1.3756
  740MOL0     H99844   4.527   6.291  11.063  0.8646  1.0665  2.2300
  740MOL0     H99845   4.633   6.074  11.252 -0.5691  1.6258  3.9176
  740MOL0     H99846   4.507   6.192  11.296  2.2216 -0.0726  0.5187
  740MOL0     H99847   4.485   5.947  11.118 -1.3953 -0.9685 -0.1476
  740MOL0     H99848   4.377   6.077  11.086 -2.3893 -0.8151  0.9735
  740MOL0     H99849   4.282   6.051  11.320  0.6806  0.2575 -1.0433
  740MOL0     H99850   4.280   5.894  11.235  0.0264  0.6811 -1.7961
  740MOL0     H99851   4.504   6.021  11.532 -4.0482  0.6839 -1.0712
  740MOL0     H99852   4.638   5.761  11.708 -0.3883 -1.9110 -1.1164
  740MOL0     H99853   4.585   5.925  11.752  2.0804 -1.0612  0.8839
  740MOL0     H99854   4.426   5.665  11.786  2.5171  0.2055 -1.9958
  740MOL0     H99855   4.503   5.738  11.927 -2.9970  0.2379  1.4850
  740MOL0     H99856   4.267   5.870  11.797 -2.3563 -2.2923  1.3700
  740MOL0     H99857   4.405   5.954  11.881 -0.0101 -0.0298  0.0613
  740MOL0     H99858   4.229   5.912  12.043  0.8402 -0.5728  1.1416
  740MOL0     H99859   4.364   5.796  12.066 -1.0589  2.5263  2.0491
  740MOL0     H99860   4.028   5.524  11.989  1.6089 -0.3720  0.2715
  740MOL0     H99861   3.857   5.477  12.160  2.9674 -1.5227 -1.5900
  740MOL0     H99862   3.509   5.532  12.523 -1.6616 -1.2320  1.5109
  740MOL0     H99863   3.436   5.405  12.705  0.2352  0.3857  2.0117
  740MOL0     H99864   3.429   5.315  12.933 -1.9661 -0.6983  0.7309
  740MOL0     H99865   3.394   5.179  12.816  2.1798 -2.8951  0.3606
  740MOL0     H99866   3.321   5.111  13.036  0.1023  0.4172 -0.8600
  740MOL0     H99867   3.444   5.020  12.962  4.6133  1.3463 -1.7486
  740MOL0     H99868   3.485   5.250  13.164  3.2185 -0.2943 -2.3810
  740MOL0     H99869   3.404   5.111  13.220 -0.7207  0.5866 -0.3728
  740MOL0     H99870   3.641   5.008  13.093  1.1815  0.4579  0.9213
  740MOL0     H99871   3.594   4.989  13.250 -3.1384 -1.1922 -1.1099
  740MOL0     H99872   3.722   5.199  13.314 -1.3007 -0.2495  0.4712
  740MOL0     H99873   3.743   5.234  13.141 -2.5253 -0.8861  0.1236
  740MOL0     H99874   3.949   5.172  13.226 -1.1701  1.3287  2.5924
  740MOL0     H99875   3.891   5.011  13.289 -2.5468 -1.3061 -1.1144
  740MOL0     H99876   3.884   5.101  12.991  1.0415  1.7942  0.9512
  740MOL0     H99877   3.843   4.945  13.058 -3.0428  1.9010 -2.3171
  740MOL0     H99878   4.062   4.935  12.943 -0.0475  1.3669 -1.4560
  740MOL0     H99879   4.119   5.078  13.039  0.0884 -0.9861  0.9080
  740MOL0     H99880   3.790   5.168  12.679  0.6516 -0.5697 -4.6156
  740MOL0     H99881   3.860   5.302  12.489 -1.4201 -1.9387 -0.4487
  740MOL0     H99882   4.033   5.784  12.405  0.9538 -0.4081 -0.1887
  740MOL0     H99883   4.174   5.847  12.233  1.6363 -0.5339  1.4974
  740MOL0     H99884   4.739   6.493  10.452 -0.9343  1.5099 -1.4289
  740MOL0     H99885   4.774   6.573  10.218 -1.7187 -0.9963  0.6734
  740MOL0     H99886   4.971   6.210   9.698  1.7400  1.1422  0.2283
  740MOL0     H99887   4.989   6.288   9.470 -0.5268  1.5426 -1.2637
  740MOL0     H99888   4.877   6.373   9.294  2.0907  0.3346  0.5381
  740MOL0     H99889   4.925   6.493   9.181 -0.7864  0.7596 -1.3509
  740MOL0     H99890   4.738   6.627   9.240 -1.1511  0.9854  4.3819
  740MOL0     H99891   4.692   6.513   9.362  0.7867  0.3846 -0.5814
  740MOL0     H99892   4.686   6.457   9.050 -1.5446  0.3569 -0.5335
  740MOL0     H99893   4.551   6.479   9.149  1.1616  0.6911  0.2378
  740MOL0     H99894   4.697   6.257   9.250 -0.2505  1.1825  0.7291
  740MOL0     H99895   4.523   6.304   9.234  1.1385  0.8712  0.3137
  740MOL0     H99896   4.568   6.100   8.878  0.3782  1.6405 -0.2888
  740MOL0     H99897   4.826   6.664   9.570  0.7590 -0.4261 -1.9567
  740MOL0     H99898   4.833   6.666   9.893 -2.0278  1.0471  1.0849
  740MOL0     H99899   4.711   6.703   9.768 -1.0519  1.1542  2.0188
  740MOL0     H99900   4.676   6.578   9.871  1.7439 -2.0986 -0.2113
  741MOL0     O99901  10.191   4.282   1.939  0.0415  0.1493  0.4020
  741MOL0     C99902  10.108   4.350   1.881  0.3084 -0.4625 -0.2008
  741MOL0     O99903   9.974   4.342   1.899 -0.5000  0.4227  0.0866
  741MOL0     C99904   9.915   4.229   1.953  0.1639 -0.2548  0.6536
  741MOL0     C99905   9.965   4.101   1.977 -0.6293  0.8692  0.3408
  741MOL0     C99906   9.892   3.993   2.043 -0.1237 -0.1263 -1.3179
  741MOL0     C99907   9.759   4.014   2.067 -0.6001  0.1939 -0.4187
  741MOL0     O99908   9.682   3.913   2.114 -0.4379  0.2557 -0.1582
  741MOL0     C99909   9.549   3.930   2.169 -0.1063  0.2427  0.0266
  741MOL0     C99910   9.508   3.792   2.230 -0.3547 -0.1318 -0.8087
  741MOL0     C99911   9.380   3.789   2.320 -0.3791 -0.3503 -0.6858
  741MOL0     C99912   9.309   3.924   2.344  0.3543  0.5140 -0.9013
  741MOL0     C99913   9.200   3.918   2.456 -0.3401 -0.3445 -0.0555
  741MOL0     C99914   9.253   3.882   2.611 -0.0790 -0.2956 -0.0272
  741MOL0     C99915   9.134   3.866   2.713 -0.1558 -1.0949 -0.2516
  741MOL0     C99916   9.023   3.778   2.672 -0.5917 -0.0198  0.4390
  741MOL0     N99917   8.928   3.753   2.781 -0.8192 -0.2571  0.4248
  741MOL0     C99918   8.875   3.856   2.853  0.1260 -0.0166 -0.5157
  741MOL0     C99919   8.814   3.793   2.959 -0.7941 -0.3605  0.8624
  741MOL0     C99920   8.746   3.855   3.081  0.5572 -0.1954 -0.2124
  741MOL0     C99921   8.598   3.855   3.069  0.7548  0.1983  0.0908
  741MOL0     C99922   8.531   3.897   3.204  0.8787  0.1939 -0.1345
  741MOL0     C99923   8.550   4.033   3.266 -0.8547 -0.9429 -0.0106
  741MOL0     O99924   8.476   4.053   3.388 -0.2393  0.0873  0.4086
  741MOL0     C99925   8.479   4.181   3.436  0.3488  0.1066 -0.7851
  741MOL0     C99926   8.481   4.297   3.360 -0.1946 -0.0902 -0.3253
  741MOL0     C99927   8.472   4.424   3.411 -0.1775  0.6823  0.7488
  741MOL0     C99928   8.459   4.441   3.543  0.4137  0.1986 -0.3291
  741MOL0     C99929   8.425   4.581   3.587  0.3469  0.5497 -0.0625
  741MOL0     O99930   8.408   4.593   3.716 -0.2744  0.0948  0.0027
  741MOL0     C99931   8.499   4.677   3.779 -0.2129 -0.1282  0.0808
  741MOL0     C99932   8.614   4.745   3.734 -0.3278  0.6355 -0.1364
  741MOL0     C99933   8.691   4.820   3.821  0.4280  0.1123 -0.2749
  741MOL0     C99934   8.651   4.819   3.961  0.3374 -0.3079 -0.4413
  741MOL0     O99935   8.701   4.899   4.054 -0.4887 -0.2221 -0.0734
  741MOL0     C99936   8.745   5.027   4.006  1.6527  0.4327 -0.2531
  741MOL0     C99937   8.768   5.121   4.122  0.6586 -0.3790 -0.1251
  741MOL0     C99938   8.857   5.071   4.240  0.3143 -0.1769  0.9458
  741MOL0     C99939   8.976   5.163   4.252 -0.5737 -0.1176  0.8124
  741MOL0     C99940   9.050   5.143   4.378  0.1582 -0.1491  0.0053
  741MOL0     C99941   9.174   5.042   4.372 -0.0440  0.3117 -0.1607
  741MOL0     C99942   9.285   5.090   4.286 -0.0434  0.4383 -0.0251
  741MOL0     C99943   9.398   5.137   4.379 -0.7850  0.6145  0.4320
  741MOL0    Cl99944   9.354   5.285   4.488 -0.2523 -0.5018 -0.4330
  741MOL0     C99945   8.531   4.756   4.001  0.4238  0.3752  0.0171
  741MOL0     C99946   8.460   4.681   3.915  0.3267  0.3609 -0.2703
  741MOL0     O99947   8.430   4.670   3.505  0.4465 -0.5006 -0.0945
  741MOL0     C99948   8.458   4.337   3.623  0.0612  0.6060 -0.3151
  741MOL0     C99949   8.466   4.204   3.573  0.2491 -1.0778 -0.1739
  741MOL0     N99950   8.831   3.658   2.931 -0.1939 -0.7438 -0.6025
  741MOL0     N99951   8.900   3.632   2.830 -0.0711  0.3242  0.1027
  741MOL0     C99952   9.701   4.139   2.032 -0.2122  0.0357 -0.3877
  741MOL0     C99953   9.780   4.244   1.975 -0.4660  0.5234 -1.0961
  741MOL0     C99954  10.163   4.456   1.800 -0.3735  0.2767  0.1073
  741MOL0     C99955  10.128   4.593   1.818 -0.6593 -0.1609 -0.0974
  741MOL0     C99956  10.193   4.696   1.744  0.3839 -0.4384 -0.0525
  741MOL0     C99957  10.282   4.671   1.643  0.1103  0.2621 -0.3759
  741MOL0     O99958  10.344   4.759   1.567 -1.0138 -0.4605 -0.5510
  741MOL0     C99959  10.411   4.867   1.641  0.8083 -0.9679  0.1530
  741MOL0     C99960  10.516   4.938   1.557 -0.1532  0.7932  0.9286
  741MOL0     C99961  10.456   5.018   1.443 -0.8910  0.1968  0.2502
  741MOL0     C99962  10.568   5.104   1.383  0.1381  0.8878 -0.3789
  741MOL0     C99963  10.519   5.181   1.267  0.4507 -0.9080 -0.2949
  741MOL0     C99964  10.480   5.219   1.152 -0.4648  0.2142 -0.6477
  741MOL0     C99965  10.327   4.540   1.636  0.5328 -0.3267 -0.5652
  741MOL0     C99966  10.277   4.434   1.717  0.5771  0.0964 -0.2538
  741MOL0     C99967  10.335   4.288   1.685 -0.3135 -1.1464 -0.3574
  741MOL0     H99968  10.066   4.070   1.953 -1.3945 -1.6647  0.0251
  741MOL0     H99969   9.941   3.897   2.033  2.1266  0.7887  0.1089
  741MOL0     H99970   9.548   4.003   2.251 -1.5695 -0.3457  0.5626
  741MOL0     H99971   9.479   3.953   2.088 -0.1114  0.9589  0.2188
  741MOL0     H99972   9.591   3.745   2.283 -1.3213 -1.8448 -0.7313
  741MOL0     H99973   9.496   3.724   2.145  0.3515  1.6333 -2.3855
  741MOL0     H99974   9.420   3.760   2.418  0.2016 -3.4527 -1.7427
  741MOL0     H99975   9.299   3.725   2.283 -2.0200  1.2219  0.0168
  741MOL0     H99976   9.381   4.002   2.370  1.6438  0.4381 -3.8499
  741MOL0     H99977   9.255   3.954   2.254 -1.4473 -2.1320 -0.8242
  741MOL0     H99978   9.138   4.006   2.472 -1.6130 -1.6970  3.2376
  741MOL0     H99979   9.132   3.838   2.427 -1.2993  1.6613 -4.0921
  741MOL0     H99980   9.317   3.793   2.604  1.7086  0.9333 -0.0055
  741MOL0     H99981   9.325   3.956   2.646 -1.5250  1.7932 -1.2060
  741MOL0     H99982   9.087   3.964   2.722  0.2709 -0.6695 -2.0758
  741MOL0     H99983   9.159   3.826   2.811 -1.9657 -2.1757 -0.1823
  741MOL0     H99984   8.968   3.813   2.584  0.2633  3.4007  1.1434
  741MOL0     H99985   9.071   3.684   2.642  2.4745  1.6439 -0.2851
  741MOL0     H99986   8.867   3.962   2.830 -0.3296  0.2422  0.7676
  741MOL0     H99987   8.780   3.825   3.180  0.8633  3.0781  0.7885
  741MOL0     H99988   8.779   3.960   3.079 -0.2552  0.1845  2.6062
  741MOL0     H99989   8.576   3.934   2.996  3.0341 -0.6532 -1.6544
  741MOL0     H99990   8.567   3.754   3.042 -1.8561  1.2462 -1.2195
  741MOL0     H99991   8.562   3.818   3.273 -0.3877 -0.1697  0.0436
  741MOL0     H99992   8.423   3.885   3.187  1.4424  0.0255 -4.9483
  741MOL0     H99993   8.519   4.102   3.187  0.4518  2.2146  2.0688
  741MOL0     H99994   8.654   4.060   3.286 -1.6553  2.9695 -0.3827
  741MOL0     H99995   8.475   4.299   3.252 -3.0116  2.4561 -0.2357
  741MOL0     H99996   8.448   4.507   3.346 -2.6782  1.2426  2.2303
  741MOL0     H99997   8.654   4.731   3.634  1.4046 -3.8746  0.9663
  741MOL0     H99998   8.770   4.885   3.782 -0.9892  2.4159  0.4900
  741MOL0     H99999   8.830   5.019   3.938 -0.1329  0.6059 -2.6431
  741MOL0     H    0   8.666   5.069   3.942  0.6904 -3.9528 -2.3697
  741MOL0     H    1   8.811   5.211   4.077  1.0767 -2.3048 -4.0325
  741MOL0     H    2   8.671   5.155   4.159  0.6055  1.1016 -1.5182
  741MOL0     H    3   8.798   5.081   4.331 -0.2392 -1.5580  0.7544
  741MOL0     H    4   8.884   4.965   4.245  1.8214  0.1701  0.8157
  741MOL0     H    5   8.942   5.267   4.254  2.4396  1.0410 -1.3067
  741MOL0     H    6   9.041   5.157   4.165 -0.1363  2.7224  0.8771
  741MOL0     H    7   8.988   5.099   4.456  1.2988 -1.3396  0.2750
  741MOL0     H    8   9.087   5.236   4.422 -1.9642  0.9592 -0.4235
  741MOL0     H    9   9.206   5.030   4.475  1.4426 -1.2638 -0.7560
  741MOL0     H   10   9.146   4.950   4.320  2.4141 -1.5404  1.5865
  741MOL0     H   11   9.257   5.167   4.213  1.8208  0.0873 -1.1799
  741MOL0     H   12   9.315   5.007   4.221  0.6966  0.4226  0.3355
  741MOL0     H   13   9.425   5.075   4.465 -2.6341  2.0087  2.1257
  741MOL0     H   14   9.489   5.158   4.322 -0.3956  0.3905  0.9531
  741MOL0     H   15   8.477   4.781   4.092  0.2892  0.6191 -0.1260
  741MOL0     H   16   8.369   4.632   3.949 -0.2419  0.4437 -1.5972
  741MOL0     H   17   8.434   4.351   3.728 -3.4810  1.5126 -1.1229
  741MOL0     H   18   8.464   4.118   3.640  0.1003 -0.4378  0.6700
  741MOL0     H   19   9.593   4.140   2.042 -0.1450 -2.9717  2.0036
  741MOL0     H   20   9.729   4.337   1.950 -4.1936 -0.3313  2.2712
  741MOL0     H   21  10.049   4.619   1.887 -0.7869 -0.9215  0.0510
  741MOL0     H   22  10.172   4.799   1.768 -0.0839 -0.6987  0.6826
  741MOL0     H   23  10.467   4.835   1.729  3.2690  1.0921 -0.5185
  741MOL0     H   24  10.331   4.938   1.665  1.4142  0.2676 -1.2349
  741MOL0     H   25  10.584   4.863   1.515 -0.5156 -0.7212  2.9042
  741MOL0     H   26  10.566   5.013   1.618 -1.7413  1.4057  1.5097
  741MOL0     H   27  10.376   5.087   1.469 -0.8895 -0.0428  0.8975
  741MOL0     H   28  10.408   4.952   1.370  0.7552  1.5658 -2.2152
  741MOL0     H   29  10.616   5.160   1.465 -0.8028 -1.2925  1.7963
  741MOL0     H   30  10.642   5.032   1.349 -0.5268  0.8555 -1.8244
  741MOL0     H   31  10.463   5.260   1.055  3.0887  1.6449 -0.8102
  741MOL0     H   32  10.419   4.532   1.578  2.0859  1.4361  1.4711
  741MOL0     H   33  10.259   4.210   1.690 -1.9189  0.1606 -2.3649
  741MOL0     H   34  10.377   4.277   1.585 -1.3688  0.3518 -1.0038
  741MOL0     H   35  10.414   4.261   1.755  0.0243 -2.2228 -1.1176
  742MOL0     O   36  10.136   7.030   7.469  0.9340 -0.4829 -0.6204
  742MOL0     C   37  10.181   7.016   7.362  0.2062  0.8135  1.4329
  742MOL0     O   38  10.121   6.929   7.274 -0.0545 -0.0387 -0.5655
  742MOL0     C   39  10.040   6.820   7.294 -0.4307  0.2087  0.6027
  742MOL0     C   40  10.021   6.750   7.414  0.2113 -0.1998 -0.3596
  742MOL0     C   41   9.943   6.641   7.418  0.7572  0.0090 -0.8190
  742MOL0     C   42   9.871   6.595   7.314  0.3126 -0.1677  0.7477
  742MOL0     O   43   9.788   6.492   7.308 -0.3570  0.3868 -0.0824
  742MOL0     C   44   9.761   6.420   7.432  0.6339 -0.4199  0.4274
  742MOL0     C   45   9.674   6.504   7.533 -0.5409  0.2220  0.0038
  742MOL0     C   46   9.524   6.516   7.487 -0.2292 -0.0645 -0.3115
  742MOL0     C   47   9.507   6.653   7.411 -0.6580  0.2456  0.9237
  742MOL0     C   48   9.383   6.659   7.326 -0.2698  0.4751 -0.0846
  742MOL0     C   49   9.413   6.674   7.180 -0.3372  0.6423  0.1719
  742MOL0     C   50   9.290   6.668   7.090 -0.3672 -0.1952  0.0905
  742MOL0     C   51   9.316   6.681   6.936 -0.2487  0.6559 -0.4035
  742MOL0     N   52   9.294   6.824   6.884  0.5966  0.3609 -0.1631
  742MOL0     C   53   9.331   6.936   6.952  0.3405 -0.3028  0.9024
  742MOL0     C   54   9.261   7.040   6.895 -0.3941  1.1630 -0.7633
  742MOL0     C   55   9.250   7.185   6.939  0.0768  0.5456 -0.0493
  742MOL0     C   56   9.279   7.277   6.821 -0.4274  0.0009 -0.0831
  742MOL0     C   57   9.420   7.268   6.759  0.6118 -0.4760 -0.6783
  742MOL0     C   58   9.522   7.345   6.834 -0.7299  0.3923 -0.3133
  742MOL0     O   59   9.477   7.474   6.863 -0.5447  0.2299 -0.4529
  742MOL0     C   60   9.528   7.540   6.974 -0.7367  0.2172  0.1243
  742MOL0     C   61   9.661   7.518   7.024 -0.7579 -1.1044  0.7121
  742MOL0     C   62   9.710   7.581   7.146 -0.2360  0.2355 -0.0191
  742MOL0     C   63   9.618   7.656   7.223 -0.2789 -0.1343  0.0887
  742MOL0     C   64   9.667   7.730   7.341  0.4951 -1.6589  0.2316
  742MOL0     O   65   9.565   7.777   7.426  0.0198  0.0044 -0.4686
  742MOL0     C   66   9.593   7.876   7.521  0.5625  0.2016  0.4238
  742MOL0     C   67   9.480   7.891   7.599  1.0731 -0.5896 -0.0497
  742MOL0     C   68   9.474   7.991   7.689  1.0840 -0.6236 -0.3343
  742MOL0     C   69   9.570   8.090   7.689  0.0035 -0.1790 -0.1029
  742MOL0     O   70   9.550   8.196   7.769 -0.0312 -0.1765 -0.0482
  742MOL0     C   71   9.646   8.300   7.786 -0.8139  0.4568 -0.2275
  742MOL0     C   72   9.572   8.407   7.868 -1.0895 -0.0940 -0.2168
  742MOL0     C   73   9.531   8.352   8.010 -0.6601 -0.5052 -0.4865
  742MOL0     C   74   9.536   8.465   8.119  0.1611 -0.8728  0.7296
  742MOL0     C   75   9.408   8.540   8.103  0.1680  0.1227  0.1486
  742MOL0     C   76   9.430   8.677   8.171 -0.0595  0.8527 -0.5743
  742MOL0     C   77   9.310   8.773   8.148 -0.0359 -0.0915 -0.3058
  742MOL0     C   78   9.308   8.900   8.225  0.1732  0.9740 -0.9670
  742MOL0    Cl   79   9.430   9.016   8.165 -0.2867  0.0093 -0.1870
  742MOL0     C   80   9.686   8.086   7.606  0.8579  0.7997  0.3874
  742MOL0     C   81   9.698   7.964   7.532 -0.3835  0.0597 -0.3793
  742MOL0     O   82   9.790   7.752   7.354 -0.0904  0.0936 -0.2364
  742MOL0     C   83   9.478   7.649   7.188 -1.0737 -0.0470 -0.6672
  742MOL0     C   84   9.436   7.593   7.069  0.6562 -0.0457  0.0380
  742MOL0     N   85   9.183   6.983   6.798  0.1727 -0.4597  0.3630
  742MOL0     N   86   9.201   6.856   6.791  0.2075  0.1932  0.5580
  742MOL0     C   87   9.882   6.665   7.195 -0.7967 -0.6698  0.6758
  742MOL0     C   88   9.964   6.772   7.182 -0.4013  0.9043  0.5037
  742MOL0     C   89  10.304   7.081   7.311 -0.1723  0.6085  0.0293
  742MOL0     C   90  10.354   7.053   7.183 -0.2338 -0.1498  0.6455
  742MOL0     C   91  10.482   7.094   7.136  0.5594 -0.3071 -0.0154
  742MOL0     C   92  10.562   7.168   7.227  0.4904 -0.5933 -0.7623
  742MOL0     O   93  10.687   7.221   7.203  0.3409 -0.0380  0.5365
  742MOL0     C   94  10.763   7.179   7.087  0.3058 -0.1502  0.4460
  742MOL0     C   95  10.739   7.271   6.969 -0.5781 -0.2493 -0.3934
  742MOL0     C   96  10.661   7.207   6.853 -0.1673  0.6738  0.2869
  742MOL0     C   97  10.695   7.282   6.718 -0.1662  0.3104  0.0763
  742MOL0     C   98  10.815   7.230   6.649  0.1331  0.7888 -0.7090
  742MOL0     C   99  10.907   7.170   6.594  0.4363  0.5039  0.9763
  742MOL0     C  100  10.507   7.213   7.343  0.0272 -0.5068 -0.5070
  742MOL0     C  101  10.390   7.162   7.390  0.1256  0.6741 -0.6893
  742MOL0     C  102  10.354   7.192   7.539 -0.0336  0.3106  0.4596
  742MOL0     H  103  10.084   6.783   7.496  1.1841 -1.3013 -0.6373
  742MOL0     H  104   9.936   6.578   7.507 -1.6036  1.8634  0.4182
  742MOL0     H  105   9.716   6.324   7.406  1.3548 -0.2651 -1.5012
  742MOL0     H  106   9.857   6.384   7.469  0.6830  0.9489  1.7607
  742MOL0     H  107   9.715   6.600   7.565  0.7808 -0.5805  0.8303
  742MOL0     H  108   9.678   6.450   7.628  0.7310 -1.2776 -0.8541
  742MOL0     H  109   9.456   6.508   7.572 -3.1024 -1.7975 -2.5535
  742MOL0     H  110   9.507   6.431   7.419 -2.9504  3.2211 -4.2278
  742MOL0     H  111   9.506   6.728   7.491 -1.9730  0.3829  0.8091
  742MOL0     H  112   9.592   6.677   7.347 -1.9562  3.0060  0.0949
  742MOL0     H  113   9.314   6.575   7.339 -0.9409  1.0940  0.4594
  742MOL0     H  114   9.341   6.756   7.356 -2.3545 -0.1572 -0.7502
  742MOL0     H  115   9.466   6.769   7.166  0.8856 -0.1635 -0.9098
  742MOL0     H  116   9.474   6.589   7.148 -0.6948  0.4921 -0.1216
  742MOL0     H  117   9.213   6.742   7.117  1.5007  0.7474  3.4151
  742MOL0     H  118   9.252   6.566   7.100  3.6693 -1.7349  2.2302
  742MOL0     H  119   9.413   6.648   6.900  0.3986  0.2952  1.5619
  742MOL0     H  120   9.242   6.621   6.882 -1.3123  0.5521  1.0816
  742MOL0     H  121   9.396   6.949   7.038 -2.0138  1.3052  2.5616
  742MOL0     H  122   9.151   7.214   6.973  0.0124 -0.6965  0.8930
  742MOL0     H  123   9.317   7.199   7.024 -0.2809  3.7116 -0.1654
  742MOL0     H  124   9.210   7.257   6.739  1.0609  1.2574 -1.7323
  742MOL0     H  125   9.263   7.381   6.852 -0.6262 -0.1128  0.1921
  742MOL0     H  126   9.409   7.313   6.660 -1.0818 -0.2569 -0.4155
  742MOL0     H  127   9.453   7.164   6.757 -1.4431 -1.1761 -3.3624
  742MOL0     H  128   9.613   7.356   6.775 -0.5305 -1.7394 -0.4990
  742MOL0     H  129   9.538   7.281   6.921  0.9604 -0.1363 -0.9680
  742MOL0     H  130   9.738   7.461   6.974  2.1233  1.0626  2.4127
  742MOL0     H  131   9.815   7.563   7.162 -0.0170  1.6751  0.2875
  742MOL0     H  132   9.391   7.828   7.589 -1.0014  1.7749  2.0238
  742MOL0     H  133   9.399   8.027   7.759  0.9223  1.0769 -1.3223
  742MOL0     H  134   9.727   8.260   7.847 -0.5573 -1.3120 -1.6503
  742MOL0     H  135   9.691   8.332   7.692  1.4441  0.2249  0.7097
  742MOL0     H  136   9.637   8.495   7.876 -2.1389  0.6516  0.2973
  742MOL0     H  137   9.484   8.425   7.805 -0.7018  3.7200  0.0695
  742MOL0     H  138   9.431   8.306   8.011 -1.5665  1.3500 -1.2700
  742MOL0     H  139   9.611   8.288   8.047  2.7370  0.7773 -4.8005
  742MOL0     H  140   9.625   8.527   8.105 -0.3797 -0.1561  0.4186
  742MOL0     H  141   9.531   8.428   8.221 -0.0986 -0.6439  0.8008
  742MOL0     H  142   9.320   8.489   8.142 -1.4337  0.7244 -2.4521
  742MOL0     H  143   9.383   8.548   7.997 -1.0430 -1.3270  0.2908
  742MOL0     H  144   9.449   8.669   8.278 -1.2013 -0.6434 -0.4502
  742MOL0     H  145   9.516   8.724   8.121 -0.1225 -1.1777 -2.7633
  742MOL0     H  146   9.217   8.718   8.167 -0.7354  0.2627 -2.3959
  742MOL0     H  147   9.315   8.803   8.043 -1.4099 -2.0374 -0.9810
  742MOL0     H  148   9.205   8.936   8.219 -0.3261 -0.1845  0.0654
  742MOL0     H  149   9.324   8.880   8.332 -1.2751  2.5218 -0.4271
  742MOL0     H  150   9.759   8.165   7.593  1.7614  0.1449  1.3031
  742MOL0     H  151   9.781   7.953   7.464  2.1655  2.7224  2.0255
  742MOL0     H  152   9.404   7.698   7.250  0.5386 -0.8082  2.0163
  742MOL0     H  153   9.330   7.579   7.051  0.2381  0.5801  1.8343
  742MOL0     H  154   9.828   6.640   7.105  0.6973  2.3249 -1.1900
  742MOL0     H  155   9.983   6.814   7.084  1.8687 -2.3924 -0.6418
  742MOL0     H  156  10.299   6.986   7.118  0.3756  2.6686 -3.0933
  742MOL0     H  157  10.515   7.067   7.036  1.9876  0.5885  0.1869
  742MOL0     H  158  10.751   7.073   7.060  3.6512 -0.4618 -0.3359
  742MOL0     H  159  10.869   7.186   7.112  0.6979  1.4404 -1.4285
  742MOL0     H  160  10.833   7.299   6.923 -1.2895 -0.8156 -2.2904
  742MOL0     H  161  10.691   7.356   7.018 -2.5609 -2.0701  1.0409
  742MOL0     H  162  10.552   7.219   6.850 -0.6319 -2.7627 -1.9412
  742MOL0     H  163  10.689   7.103   6.836 -1.9677  0.0596  0.8358
  742MOL0     H  164  10.622   7.255   6.642  0.2731  0.6595 -0.4808
  742MOL0     H  165  10.682   7.391   6.716  0.3388  0.3663 -0.6390
  742MOL0     H  166  10.997   7.132   6.550 -0.5929  0.0509 -0.8156
  742MOL0     H  167  10.571   7.268   7.411 -4.4958  1.5956  2.5913
  742MOL0     H  168  10.436   7.244   7.589  1.2378 -2.9580  2.0681
  742MOL0     H  169  10.264   7.254   7.547  0.4298  1.0198  0.3044
  742MOL0     H  170  10.343   7.097   7.592 -0.2374 -0.3837 -0.7788
  743MOL0     O  171   9.160   4.755   6.115  0.1619  0.2066  1.1137
  743MOL0     C  172   9.099   4.823   6.193  0.4679  0.3503 -0.1174
  743MOL0     O  173   9.132   4.957   6.227 -0.0367 -0.3763  0.2946
  743MOL0     C  174   9.223   5.016   6.143 -0.8623  0.1240 -0.7414
  743MOL0     C  175   9.194   5.086   6.021  0.1997  0.8820 -0.2567
  743MOL0     C  176   9.297   5.141   5.949  0.0158  0.2062 -0.5130
  743MOL0     C  177   9.430   5.127   5.982  0.4063 -0.1746 -0.3068
  743MOL0     O  178   9.515   5.178   5.895 -0.9311 -0.0744 -0.7234
  743MOL0     C  179   9.649   5.209   5.953 -0.4689 -0.8591  1.2258
  743MOL0     C  180   9.723   5.305   5.858  0.4802 -0.8411 -0.4680
  743MOL0     C  181   9.874   5.299   5.883 -0.5864 -0.0625 -0.4732
  743MOL0     C  182   9.947   5.394   5.787 -0.1737  0.1809  0.1677
  743MOL0     C  183  10.091   5.356   5.751 -0.7225 -0.1577  0.5317
  743MOL0     C  184  10.185   5.348   5.869  0.5210 -0.2053  0.3337
  743MOL0     C  185  10.325   5.281   5.855 -0.1959  0.5714  0.1625
  743MOL0     C  186  10.305   5.124   5.840  0.1757 -0.8946 -0.4797
  743MOL0     N  187  10.426   5.049   5.842 -0.5033  0.0949 -1.2198
  743MOL0     C  188  10.557   5.081   5.884 -0.3504  0.4490  0.0203
  743MOL0     C  189  10.643   4.983   5.851  0.1202  0.3503  0.0987
  743MOL0     C  190  10.792   4.960   5.846  0.3472  0.1012  0.1117
  743MOL0     C  191  10.837   4.996   5.701 -0.1807  0.1051 -0.6438
  743MOL0     C  192  10.834   5.147   5.666  0.5530  0.4947  0.5011
  743MOL0     C  193  10.884   5.240   5.776 -0.1927 -0.0587 -0.5969
  743MOL0     O  194  10.880   5.363   5.706  0.3314 -0.2795 -0.8985
  743MOL0     C  195  10.805   5.464   5.764  1.5464 -0.5345  0.6695
  743MOL0     C  196  10.847   5.598   5.780 -0.5505  0.6154  0.7554
  743MOL0     C  197  10.774   5.697   5.856 -0.5629 -1.3447  0.1866
  743MOL0     C  198  10.653   5.664   5.911 -0.0111  0.1496 -0.3585
  743MOL0     C  199  10.573   5.770   5.970 -0.0538 -0.4306  0.5751
  743MOL0     O  200  10.443   5.734   5.983  0.1088  0.5657 -0.1580
  743MOL0     C  201  10.348   5.826   6.022 -0.0466 -0.0322  1.0354
  743MOL0     C  202  10.273   5.800   6.133  0.4209 -0.3865 -0.4613
  743MOL0     C  203  10.169   5.888   6.174 -0.2645 -0.4488 -0.8215
  743MOL0     C  204  10.145   6.010   6.117 -0.1181 -0.1992  0.1167
  743MOL0     O  205  10.049   6.098   6.160 -0.5250  0.7097 -0.9790
  743MOL0     C  206   9.924   6.031   6.168  0.5760  0.4237 -0.5358
  743MOL0     C  207   9.885   5.969   6.035  0.3539 -1.1788 -0.6086
  743MOL0     C  208   9.737   5.922   6.047 -0.7288  0.1759  0.5203
  743MOL0     C  209   9.708   5.856   5.921  0.4167 -0.4845  0.1817
  743MOL0     C  210   9.571   5.781   5.916  0.9340 -0.0312  0.1286
  743MOL0     C  211   9.456   5.878   5.877 -0.2280 -0.7498  0.6142
  743MOL0     C  212   9.318   5.837   5.927  0.6845  0.2227 -0.0768
  743MOL0     C  213   9.248   5.743   5.815 -0.1207 -0.0297 -0.2549
  743MOL0    Cl  214   9.334   5.588   5.812  0.4594 -0.3061  0.0100
  743MOL0     C  215  10.223   6.032   5.997  0.3811 -0.4034 -0.5970
  743MOL0     C  216  10.318   5.947   5.950  0.2050  0.0847  0.4523
  743MOL0     O  217  10.625   5.879   6.008  0.3554  0.4903  0.0497
  743MOL0     C  218  10.605   5.526   5.897  0.4406 -0.1555 -0.3595
  743MOL0     C  219  10.681   5.429   5.820  0.8175 -1.1169  0.2643
  743MOL0     N  220  10.558   4.881   5.796  0.4669 -0.4348 -0.1207
  743MOL0     N  221  10.439   4.924   5.783 -0.4015 -0.1262 -0.1368
  743MOL0     C  222   9.457   5.039   6.080  0.0045 -0.1196  0.0645
  743MOL0     C  223   9.357   4.992   6.168 -0.4344  0.4582 -0.0293
  743MOL0     C  224   8.988   4.764   6.272 -0.3380  0.4760  0.2726
  743MOL0     C  225   9.015   4.713   6.398  0.8482 -0.9440 -0.1164
  743MOL0     C  226   8.913   4.688   6.483  0.2625 -0.5003  0.2009
  743MOL0     C  227   8.782   4.695   6.435  0.6295  1.4621 -0.1566
  743MOL0     O  228   8.690   4.641   6.521 -0.2354  0.5441 -0.3572
  743MOL0     C  229   8.553   4.680   6.495 -0.8484 -0.4958 -1.1514
  743MOL0     C  230   8.451   4.642   6.597  1.3155 -0.1405 -0.8684
  743MOL0     C  231   8.350   4.747   6.624 -0.3388 -0.4499  0.1399
  743MOL0     C  232   8.230   4.745   6.524 -0.5385  0.0132 -0.5871
  743MOL0     C  233   8.139   4.850   6.577 -0.4426  0.1307 -1.3413
  743MOL0     C  234   8.061   4.915   6.632  0.1836 -0.4875 -0.3577
  743MOL0     C  235   8.748   4.730   6.299 -1.2833  0.0051 -0.3227
  743MOL0     C  236   8.859   4.753   6.212  0.7225  0.2808 -1.3352
  743MOL0     C  237   8.834   4.770   6.065 -0.0283 -0.2774  0.0519
  743MOL0     H  238   9.092   5.107   5.990 -0.5541 -2.1115 -0.1037
  743MOL0     H  239   9.266   5.200   5.863  2.3472 -1.9143 -3.0018
  743MOL0     H  240   9.644   5.256   6.052 -1.0836 -3.2908  2.4189
  743MOL0     H  241   9.712   5.121   5.967  0.8195 -0.4716 -1.5947
  743MOL0     H  242   9.686   5.405   5.881  1.7683 -0.5982  0.7066
  743MOL0     H  243   9.687   5.279   5.758 -0.3612 -1.2314 -0.0734
  743MOL0     H  244   9.929   5.205   5.867 -1.5173 -1.2188  2.4458
  743MOL0     H  245   9.884   5.325   5.989 -2.8121 -2.3733  0.3952
  743MOL0     H  246   9.901   5.415   5.690 -2.4503  0.2790  1.2266
  743MOL0     H  247   9.948   5.486   5.847  1.6807  1.1629 -1.2326
  743MOL0     H  248  10.092   5.265   5.690 -2.0164  0.8520 -1.0982
  743MOL0     H  249  10.132   5.438   5.691  0.0309 -1.2494 -0.4705
  743MOL0     H  250  10.197   5.451   5.904 -3.4725  1.4308 -2.3886
  743MOL0     H  251  10.132   5.302   5.954  3.3906 -1.0765  1.7962
  743MOL0     H  252  10.387   5.310   5.940 -0.5265  1.9071 -0.0290
  743MOL0     H  253  10.371   5.311   5.760  0.4393 -1.8156 -0.3610
  743MOL0     H  254  10.252   5.091   5.930  0.8833 -0.8133 -0.0333
  743MOL0     H  255  10.237   5.102   5.757  1.1953 -0.3797 -1.4653
  743MOL0     H  256  10.585   5.174   5.933 -2.0000  1.0177 -0.0603
  743MOL0     H  257  10.844   5.017   5.923  0.1742  3.7589 -2.2482
  743MOL0     H  258  10.814   4.858   5.881  0.8463  1.0540  2.7969
  743MOL0     H  259  10.934   4.951   5.679 -0.7950 -1.7006  0.1632
  743MOL0     H  260  10.763   4.950   5.636  0.4544  1.1669 -2.1669
  743MOL0     H  261  10.730   5.166   5.639  0.0301 -3.1843 -0.6148
  743MOL0     H  262  10.897   5.170   5.580  0.8952  1.5891  1.0215
  743MOL0     H  263  10.984   5.207   5.808 -0.3225  0.9461  0.9802
  743MOL0     H  264  10.823   5.229   5.867 -1.2625 -1.2231 -1.4121
  743MOL0     H  265  10.944   5.617   5.734 -1.8520  2.6358 -1.4163
  743MOL0     H  266  10.819   5.796   5.861  0.2454 -1.6101 -1.1555
  743MOL0     H  267  10.282   5.707   6.189  0.6250 -0.0486  0.0728
  743MOL0     H  268  10.120   5.855   6.265 -0.8748 -1.3931 -1.4688
  743MOL0     H  269   9.926   5.955   6.246 -2.2815  3.0846  2.4332
  743MOL0     H  270   9.849   6.098   6.211  0.1742 -0.1100 -0.3902
  743MOL0     H  271   9.913   6.028   5.948  0.0111  0.1623  0.1482
  743MOL0     H  272   9.935   5.872   6.039 -2.2789 -2.6394 -0.3737
  743MOL0     H  273   9.721   5.841   6.120 -0.1855 -1.1014 -0.7231
  743MOL0     H  274   9.671   6.007   6.065  0.3262  1.3590 -0.9793
  743MOL0     H  275   9.787   5.783   5.900  1.0698 -1.4624  4.9230
  743MOL0     H  276   9.699   5.925   5.837  0.2625 -2.3248 -1.3989
  743MOL0     H  277   9.552   5.740   6.016  2.1189  1.6849  1.1012
  743MOL0     H  278   9.566   5.707   5.835 -0.6640  2.0734 -1.8405
  743MOL0     H  279   9.477   5.976   5.921  2.5567 -0.6633 -0.6587
  743MOL0     H  280   9.469   5.901   5.770  3.4606  0.1420  1.1002
  743MOL0     H  281   9.253   5.925   5.933 -0.4076 -0.5641 -0.0783
  743MOL0     H  282   9.327   5.789   6.025 -1.2034  1.3963  0.7334
  743MOL0     H  283   9.141   5.729   5.836  0.3587 -3.9883  0.4308
  743MOL0     H  284   9.250   5.792   5.718 -0.1343 -0.6148 -0.5600
  743MOL0     H  285  10.199   6.122   5.940 -1.3656 -0.2457  0.3087
  743MOL0     H  286  10.373   5.953   5.856  1.8618 -0.6693  1.3212
  743MOL0     H  287  10.498   5.512   5.913  1.1115 -3.3544  2.3885
  743MOL0     H  288  10.622   5.343   5.790  3.2870 -1.8394 -3.0565
  743MOL0     H  289   9.561   5.015   6.100  0.3279 -0.6415 -1.9542
  743MOL0     H  290   9.397   4.940   6.254  5.6629  2.2333 -1.2660
  743MOL0     H  291   9.114   4.718   6.442  0.6628  0.5199  0.1889
  743MOL0     H  292   8.928   4.660   6.587 -2.3099 -0.3064  0.6941
  743MOL0     H  293   8.512   4.636   6.403 -1.4338 -0.6053 -0.8370
  743MOL0     H  294   8.552   4.790   6.494  1.3421 -0.3600  1.2582
  743MOL0     H  295   8.483   4.612   6.697 -1.7855 -1.8832 -0.2726
  743MOL0     H  296   8.402   4.552   6.559 -1.8208  0.9100  0.3185
  743MOL0     H  297   8.398   4.845   6.631  3.6718 -2.1568 -0.6957
  743MOL0     H  298   8.301   4.725   6.719 -1.2903  0.7869 -0.0225
  743MOL0     H  299   8.263   4.770   6.423 -1.1027 -0.0398 -0.7897
  743MOL0     H  300   8.176   4.650   6.527 -0.9279  0.0636 -3.4156
  743MOL0     H  301   7.994   4.976   6.689  0.1804  0.8730 -1.7256
  743MOL0     H  302   8.645   4.730   6.265 -1.0152  2.1318 -1.2270
  743MOL0     H  303   8.879   4.862   6.026 -1.5364  0.9691  1.1346
  743MOL0     H  304   8.885   4.684   6.020  1.5620  0.5182  0.2557
  743MOL0     H  305   8.728   4.767   6.041 -0.5608 -0.2146  2.2099
  744MOL0     O  306  10.282   5.079   3.870  0.1479  0.3593 -0.4471
  744MOL0     C  307  10.268   5.196   3.914 -0.7285 -0.9462 -0.9718
  744MOL0     O  308  10.188   5.288   3.847  0.3485  0.4998  0.1116
  744MOL0     C  309  10.100   5.224   3.761 -0.6837 -0.4941  0.0125
  744MOL0     C  310  10.009   5.121   3.796 -1.0536  0.4506  0.6187
  744MOL0     C  311   9.916   5.064   3.708 -1.2949 -0.2139  0.3367
  744MOL0     C  312   9.909   5.113   3.572 -0.3186 -0.2754 -0.5857
  744MOL0     O  313   9.809   5.062   3.489  0.0884 -0.3718  0.8963
  744MOL0     C  314   9.817   4.916   3.479 -0.0117  0.3218 -0.4305
  744MOL0     C  315   9.724   4.862   3.367  0.0540 -0.7706  0.3303
  744MOL0     C  316   9.800   4.885   3.235  0.8858 -0.2428  0.0653
  744MOL0     C  317   9.702   4.845   3.125  0.8616  0.3265  0.4006
  744MOL0     C  318   9.758   4.863   2.985 -1.1010 -0.6319 -0.6362
  744MOL0     C  319   9.677   4.802   2.870 -0.5972 -0.4975 -0.6395
  744MOL0     C  320   9.540   4.884   2.864 -0.7441 -0.4967  0.1141
  744MOL0     C  321   9.459   4.885   2.739  0.0087  1.3447 -0.0679
  744MOL0     N  322   9.532   4.951   2.632  0.4140 -0.4844 -0.5577
  744MOL0     C  323   9.632   5.040   2.622 -0.6323  0.5628 -0.8327
  744MOL0     C  324   9.639   5.075   2.496 -0.4492  0.0352  0.4974
  744MOL0     C  325   9.725   5.183   2.429 -0.8747  0.1409 -0.0417
  744MOL0     C  326   9.872   5.164   2.467  0.5726  0.2946 -0.3407
  744MOL0     C  327   9.952   5.283   2.542  0.8574  0.5552  0.4495
  744MOL0     C  328   9.913   5.306   2.693  0.0844 -0.5445 -0.0535
  744MOL0     O  329   9.931   5.448   2.734 -0.2041  0.2041 -0.4038
  744MOL0     C  330   9.982   5.474   2.856  0.4626  0.4560  0.5079
  744MOL0     C  331   9.932   5.414   2.975 -0.2158 -0.6905  0.6391
  744MOL0     C  332   9.976   5.460   3.096 -0.9479  1.6241  0.0809
  744MOL0     C  333  10.082   5.552   3.096 -0.4534  1.2600  0.6422
  744MOL0     C  334  10.143   5.594   3.223  0.3018  0.7385  0.5199
  744MOL0     O  335  10.159   5.514   3.334 -0.2083 -0.5586 -0.3141
  744MOL0     C  336  10.215   5.574   3.444 -0.3188 -0.2690 -0.6085
  744MOL0     C  337  10.140   5.651   3.531 -0.9021  0.8538  0.1760
  744MOL0     C  338  10.207   5.732   3.628  0.3414 -0.2954 -0.3984
  744MOL0     C  339  10.338   5.724   3.651 -0.2855 -0.0680  0.1263
  744MOL0     O  340  10.398   5.777   3.761  0.5650 -0.2837 -0.3636
  744MOL0     C  341  10.423   5.684   3.866 -0.5138  0.4202 -0.1261
  744MOL0     C  342  10.301   5.608   3.929  0.4526 -0.1525 -0.3747
  744MOL0     C  343  10.224   5.690   4.032  0.0792 -0.1763  0.9489
  744MOL0     C  344  10.299   5.804   4.106  0.2240 -1.1928  0.3102
  744MOL0     C  345  10.401   5.748   4.204  0.2191  0.1269  0.0872
  744MOL0     C  346  10.472   5.869   4.270  0.2277  0.0280  0.3394
  744MOL0     C  347  10.599   5.806   4.335 -1.2743  0.3600 -0.1229
  744MOL0     C  348  10.688   5.907   4.409  0.5771 -1.3784  0.7323
  744MOL0    Cl  349  10.769   6.022   4.292 -0.1198 -0.3783  0.3287
  744MOL0     C  350  10.416   5.646   3.554 -1.0567 -0.2306 -0.3675
  744MOL0     C  351  10.354   5.582   3.445 -0.2679  0.1827 -0.5720
  744MOL0     O  352  10.156   5.715   3.223 -0.2420  0.0935 -0.1890
  744MOL0     C  353  10.129   5.607   2.976  0.6587 -0.1251 -0.1803
  744MOL0     C  354  10.074   5.570   2.856  0.2564 -0.7250 -0.3070
  744MOL0     N  355   9.564   4.988   2.423  0.1336  0.7378 -0.1427
  744MOL0     N  356   9.495   4.919   2.507  1.2690  0.4166  0.5189
  744MOL0     C  357   9.989   5.225   3.544 -0.3316 -0.4151  0.6754
  744MOL0     C  358  10.085   5.280   3.629 -0.1824 -0.0746  0.2956
  744MOL0     C  359  10.343   5.240   4.039  0.3598  0.5542 -0.2469
  744MOL0     C  360  10.475   5.223   4.035 -0.3580 -0.3761 -0.2044
  744MOL0     C  361  10.546   5.274   4.143 -1.6403 -0.3721 -0.7132
  744MOL0     C  362  10.487   5.358   4.241  0.3940  0.1077  0.2684
  744MOL0     O  363  10.547   5.397   4.360 -0.0575  0.4712  0.3040
  744MOL0     C  364  10.680   5.356   4.392 -0.5903  0.2758  0.0583
  744MOL0     C  365  10.725   5.411   4.524 -0.3168 -0.2352  0.8811
  744MOL0     C  366  10.848   5.315   4.553  0.1735 -0.0130  0.0749
  744MOL0     C  367  10.936   5.351   4.682  0.5431 -0.2062 -1.1742
  744MOL0     C  368  10.993   5.233   4.746  0.3263  0.3063 -1.4225
  744MOL0     C  369  11.039   5.147   4.824  0.4238 -0.3774 -0.4531
  744MOL0     C  370  10.350   5.381   4.240  0.8721  0.4968 -0.4020
  744MOL0     C  371  10.275   5.303   4.151 -0.2049 -0.2667  0.9514
  744MOL0     C  372  10.121   5.310   4.171  0.4971  0.5099  1.1167
  744MOL0     H  373  10.007   5.087   3.899  1.9223  1.8160  1.2417
  744MOL0     H  374   9.843   4.990   3.739  0.0032 -1.2127  1.0990
  744MOL0     H  375   9.918   4.881   3.459 -0.1691  0.3452 -1.3475
  744MOL0     H  376   9.770   4.870   3.566 -3.2229 -0.0257 -2.2056
  744MOL0     H  377   9.630   4.918   3.374  0.5401  0.2290 -0.8793
  744MOL0     H  378   9.705   4.754   3.375 -0.0916 -0.7308  0.5371
  744MOL0     H  379   9.894   4.829   3.226 -0.7712 -3.1512 -0.1220
  744MOL0     H  380   9.826   4.991   3.228 -2.3514  0.6681  0.3208
  744MOL0     H  381   9.672   4.741   3.134  0.9784 -0.0899 -2.8393
  744MOL0     H  382   9.617   4.913   3.128 -1.0557 -1.8285 -1.5316
  744MOL0     H  383   9.790   4.966   2.964 -1.7313 -0.0384  1.1455
  744MOL0     H  384   9.850   4.805   2.971 -1.7934 -1.7055 -0.8687
  744MOL0     H  385   9.746   4.812   2.786  3.3063 -2.0251  2.0856
  744MOL0     H  386   9.664   4.695   2.886  3.8249 -1.2585 -0.7289
  744MOL0     H  387   9.559   4.989   2.890  1.2112 -0.7357 -0.1739
  744MOL0     H  388   9.484   4.848   2.950 -2.0389  0.5447 -0.2633
  744MOL0     H  389   9.430   4.781   2.720 -0.6517  1.5711 -0.3292
  744MOL0     H  390   9.358   4.927   2.744 -2.1989 -3.2843  0.2143
  744MOL0     H  391   9.671   5.102   2.702 -0.9097 -1.0883  0.6350
  744MOL0     H  392   9.708   5.192   2.321 -2.3037  0.4905  0.1996
  744MOL0     H  393   9.695   5.284   2.457  1.7797  0.8016  0.6588
  744MOL0     H  394   9.889   5.077   2.531  3.9869  0.4523 -0.8519
  744MOL0     H  395   9.929   5.150   2.374 -2.3521  2.7272 -2.7116
  744MOL0     H  396   9.925   5.372   2.486  1.1468  1.7162  2.0715
  744MOL0     H  397  10.059   5.264   2.536  0.4429 -2.4609  0.8682
  744MOL0     H  398   9.963   5.233   2.756 -1.2461 -0.8463  0.6876
  744MOL0     H  399   9.806   5.284   2.691  0.4736 -2.6291 -1.7677
  744MOL0     H  400   9.844   5.351   2.967 -0.3140 -0.4282 -0.7179
  744MOL0     H  401   9.917   5.416   3.176 -0.1855 -0.3288 -0.3803
  744MOL0     H  402  10.032   5.661   3.525 -0.6713  3.6337 -0.6480
  744MOL0     H  403  10.149   5.802   3.686  1.3317  0.3617 -0.1709
  744MOL0     H  404  10.484   5.607   3.818 -0.9045  1.9432 -3.2605
  744MOL0     H  405  10.490   5.718   3.946 -0.0711 -1.8495  0.5622
  744MOL0     H  406  10.232   5.560   3.860 -0.7663  0.0453  0.6751
  744MOL0     H  407  10.338   5.531   3.997  0.1038  2.6126  3.2765
  744MOL0     H  408  10.137   5.728   3.977  0.9221  0.2964 -0.0981
  744MOL0     H  409  10.188   5.630   4.115  4.3709  0.4679  3.6139
  744MOL0     H  410  10.222   5.850   4.168  1.1558  0.4084  0.3110
  744MOL0     H  411  10.346   5.869   4.032  1.0598 -0.8718  1.1044
  744MOL0     H  412  10.470   5.686   4.145 -1.7200  1.6212 -4.1724
  744MOL0     H  413  10.363   5.678   4.279 -0.3024 -0.5469 -0.7969
  744MOL0     H  414  10.500   5.936   4.189  1.1609 -0.8223 -0.0561
  744MOL0     H  415  10.405   5.920   4.341  1.1618  1.3500  0.2991
  744MOL0     H  416  10.660   5.765   4.254  0.4774  2.3596  0.1098
  744MOL0     H  417  10.555   5.740   4.411 -1.4754  0.0257 -0.5274
  744MOL0     H  418  10.629   5.962   4.484  0.5420  2.4277 -1.8271
  744MOL0     H  419  10.764   5.847   4.460 -1.6722 -2.0610  3.5768
  744MOL0     H  420  10.523   5.659   3.554 -1.2402  1.7323 -1.0404
  744MOL0     H  421  10.406   5.527   3.368 -1.9137 -1.1419 -0.7997
  744MOL0     H  422  10.200   5.688   2.992 -0.0779 -0.0043  3.1652
  744MOL0     H  423  10.116   5.607   2.763 -0.7485 -0.5541 -0.7041
  744MOL0     H  424   9.957   5.268   3.449  0.0155  0.8712  1.1315
  744MOL0     H  425  10.145   5.365   3.598  0.7403  0.0789  2.3006
  744MOL0     H  426  10.530   5.166   3.961  1.2893  0.3928  0.3724
  744MOL0     H  427  10.652   5.250   4.145 -1.6007 -0.2672  1.8030
  744MOL0     H  428  10.755   5.390   4.320  0.2644  1.6336  1.5549
  744MOL0     H  429  10.684   5.247   4.384  0.3568  0.4190 -2.2439
  744MOL0     H  430  10.646   5.408   4.600  0.2679  0.1998  1.5213
  744MOL0     H  431  10.750   5.515   4.503 -2.3408  0.0202 -0.6231
  744MOL0     H  432  10.917   5.322   4.469 -1.8928  1.4880 -1.5832
  744MOL0     H  433  10.818   5.211   4.567 -3.2989  1.2475  4.3087
  744MOL0     H  434  11.010   5.424   4.651 -2.0307  2.2943 -1.8278
  744MOL0     H  435  10.873   5.388   4.764  3.0829 -0.6487  1.1344
  744MOL0     H  436  11.076   5.078   4.898  1.8584 -0.0183 -0.8035
  744MOL0     H  437  10.298   5.438   4.316 -1.5104  3.0091 -3.6418
  744MOL0     H  438  10.090   5.292   4.274 -1.6080  2.4296  0.9103
  744MOL0     H  439  10.087   5.406   4.131 -0.0234 -0.4680 -0.9363
  744MOL0     H  440  10.075   5.234   4.107  2.1413 -0.7598  1.3597
  745MOL0     O  441   9.303   9.533   6.803  0.4644  0.5111 -0.7937
  745MOL0     C  442   9.223   9.466   6.730 -1.1360  0.6720  0.2998
  745MOL0     O  443   9.229   9.483   6.605  0.3860  0.0858 -0.6035
  745MOL0     C  444   9.327   9.550   6.537  0.5769 -0.4174  0.2222
  745MOL0     C  445   9.459   9.544   6.561  1.3354 -0.3352 -1.3286
  745MOL0     C  446   9.550   9.622   6.488 -0.2095  0.4566  0.2178
  745MOL0     C  447   9.503   9.729   6.399  0.1266  0.3548  1.1873
  745MOL0     O  448   9.580   9.823   6.332 -0.6010 -0.4783  0.4793
  745MOL0     C  449   9.718   9.813   6.367 -0.3498 -1.0255 -0.0185
  745MOL0     C  450   9.801   9.916   6.284 -0.1834 -0.4377 -0.8207
  745MOL0     C  451   9.778   9.909   6.133 -0.0676  0.7145  0.0375
  745MOL0     C  452   9.662   9.988   6.077 -0.1386  0.5236  0.1904
  745MOL0     C  453   9.661   9.982   5.923  0.0822 -0.4063  0.0996
  745MOL0     C  454   9.772  10.059   5.855 -0.2951 -0.2572 -0.0196
  745MOL0     C  455   9.749  10.219   5.867 -0.4448 -0.2805  0.0682
  745MOL0     C  456   9.844  10.312   5.793  0.0976 -0.1232 -0.0583
  745MOL0     N  457   9.794  10.446   5.806  0.3644 -0.3550 -0.1816
  745MOL0     C  458   9.675  10.499   5.756  0.1753  0.6449 -1.1948
  745MOL0     C  459   9.659  10.622   5.812  0.3793 -0.1853  0.7418
  745MOL0     C  460   9.549  10.714   5.784  0.0447  0.4798  0.3020
  745MOL0     C  461   9.485  10.752   5.915 -0.6848 -0.6154 -0.8228
  745MOL0     C  462   9.376  10.847   5.899  0.2274  0.7504 -0.8880
  745MOL0     C  463   9.321  10.882   6.039 -0.0504 -0.6901  0.2081
  745MOL0     O  464   9.190  10.826   6.056  0.3905 -0.4351  0.5667
  745MOL0     C  465   9.164  10.719   6.136 -0.1416 -0.7168  0.1594
  745MOL0     C  466   9.250  10.675   6.232  0.8668  0.0979 -0.7246
  745MOL0     C  467   9.228  10.560   6.303 -0.5444  0.3805  0.8895
  745MOL0     C  468   9.111  10.484   6.290  0.0011 -1.4578 -0.0124
  745MOL0     C  469   9.083  10.357   6.371 -1.9795 -0.4972  0.4986
  745MOL0     O  470   8.961  10.310   6.367  0.2692 -0.2420  0.5092
  745MOL0     C  471   8.917  10.190   6.420 -0.4262 -0.8321 -0.1940
  745MOL0     C  472   9.001  10.085   6.425 -0.4382  0.6318 -0.7804
  745MOL0     C  473   8.962   9.953   6.475  0.8077  1.3624 -0.3856
  745MOL0     C  474   8.833   9.926   6.512  0.1479  0.7712 -1.1373
  745MOL0     O  475   8.789   9.812   6.565  0.3109  0.4969 -0.4377
  745MOL0     C  476   8.879   9.702   6.589  0.6116 -0.0175  0.6167
  745MOL0     C  477   8.817   9.603   6.696  1.3963 -1.1812  0.1402
  745MOL0     C  478   8.718   9.506   6.641  2.1715  0.7801 -0.1827
  745MOL0     C  479   8.605   9.475   6.735 -1.1523 -0.6926  0.8492
  745MOL0     C  480   8.490   9.386   6.677  0.3153 -0.1892  0.3532
  745MOL0     C  481   8.363   9.403   6.758 -0.0748 -0.7991 -0.2856
  745MOL0     C  482   8.241   9.323   6.707  1.3908  0.5152  0.3969
  745MOL0     C  483   8.259   9.171   6.703  0.1517  1.0832  0.1377
  745MOL0    Cl  484   8.372   9.109   6.576 -0.2768 -0.1288 -0.3140
  745MOL0     C  485   8.746  10.036   6.514  0.1883  0.1758 -0.1895
  745MOL0     C  486   8.787  10.167   6.471 -0.0609 -0.8485 -0.1886
  745MOL0     O  487   9.169  10.328   6.452  0.1970 -0.4886  0.1942
  745MOL0     C  488   9.026  10.528   6.180 -1.0101 -0.9667  0.4158
  745MOL0     C  489   9.060  10.644   6.107  0.2149 -0.2628  0.3913
  745MOL0     N  490   9.763  10.641   5.906 -0.8313 -0.1590  0.2773
  745MOL0     N  491   9.845  10.539   5.893 -0.1953 -0.9607  0.3741
  745MOL0     C  492   9.367   9.721   6.354 -0.0397  0.7330  0.3387
  745MOL0     C  493   9.279   9.629   6.424 -0.1566 -0.0519 -0.2300
  745MOL0     C  494   9.117   9.387   6.789 -1.0422  0.0874 -1.1653
  745MOL0     C  495   9.033   9.318   6.696 -0.5310 -0.0457 -0.3728
  745MOL0     C  496   8.920   9.241   6.745  1.0220  0.0117  0.1440
  745MOL0     C  497   8.882   9.243   6.880  1.2770 -1.1531  0.0497
  745MOL0     O  498   8.796   9.143   6.933  0.4406 -0.3270  0.0283
  745MOL0     C  499   8.702   9.169   7.034  1.2603 -0.1594 -0.4823
  745MOL0     C  500   8.564   9.145   6.988 -0.0071  0.1331 -0.1426
  745MOL0     C  501   8.547   9.002   6.932  0.3203  0.2960 -0.4998
  745MOL0     C  502   8.563   8.882   7.038 -0.6401 -1.3012 -0.1981
  745MOL0     C  503   8.552   8.754   6.978 -0.2623  0.4802  0.1013
  745MOL0     C  504   8.552   8.647   6.918  0.6115  0.9250  0.4208
  745MOL0     C  505   8.959   9.320   6.959 -1.2667  0.6326 -0.2910
  745MOL0     C  506   9.079   9.390   6.924 -0.3830  0.1691  1.1519
  745MOL0     C  507   9.157   9.457   7.027 -0.0320  0.4406 -1.0151
  745MOL0     H  508   9.505   9.500   6.649 -3.8584  0.5256  2.2577
  745MOL0     H  509   9.654   9.627   6.518  0.2546  0.0884 -1.2062
  745MOL0     H  510   9.725   9.838   6.473 -0.6679  4.5155 -0.9748
  745MOL0     H  511   9.768   9.717   6.350 -1.4234 -1.8428  1.2443
  745MOL0     H  512   9.910   9.910   6.289  0.0920  3.0404  0.6212
  745MOL0     H  513   9.784  10.021   6.311  2.9584  0.8543 -3.2582
  745MOL0     H  514   9.760   9.805   6.103 -0.1471  0.1947  1.7882
  745MOL0     H  515   9.879   9.934   6.101  1.6469 -3.8923  1.1118
  745MOL0     H  516   9.569   9.944   6.116 -2.7420  4.1781 -1.3243
  745MOL0     H  517   9.667  10.091   6.112  0.6719  1.0928 -1.5295
  745MOL0     H  518   9.658   9.879   5.887 -0.4221 -0.5630  0.5856
  745MOL0     H  519   9.567  10.020   5.884 -0.1930 -1.8124 -0.6751
  745MOL0     H  520   9.868  10.036   5.901 -0.2803 -1.5938 -0.6791
  745MOL0     H  521   9.782  10.037   5.749  2.8791  3.9301 -0.8820
  745MOL0     H  522   9.746  10.250   5.972 -3.8488 -1.1128  0.3130
  745MOL0     H  523   9.645  10.235   5.838 -0.5965 -0.3491  0.5568
  745MOL0     H  524   9.947  10.306   5.829  0.9760  0.1113 -2.3200
  745MOL0     H  525   9.845  10.293   5.685  0.1364  0.2210 -0.1229
  745MOL0     H  526   9.603  10.445   5.695  0.1573 -0.7941  0.0274
  745MOL0     H  527   9.584  10.811   5.747  4.2811 -0.8610  0.1732
  745MOL0     H  528   9.476  10.674   5.714  1.6764 -0.3241 -1.0169
  745MOL0     H  529   9.442  10.664   5.962 -0.0320  0.9446  3.0269
  745MOL0     H  530   9.560  10.798   5.980  0.0278  0.2159 -2.1748
  745MOL0     H  531   9.300  10.796   5.840 -0.1387  0.0130  0.1955
  745MOL0     H  532   9.420  10.935   5.850  2.8783 -0.9946 -1.8289
  745MOL0     H  533   9.311  10.991   6.044  1.2803 -0.4658 -1.1585
  745MOL0     H  534   9.394  10.882   6.121  0.5003  0.3383 -0.2550
  745MOL0     H  535   9.337  10.738   6.245  0.3216  1.5438 -3.3484
  745MOL0     H  536   9.294  10.540   6.387  0.2259 -0.5124  0.0811
  745MOL0     H  537   9.104  10.092   6.393  0.8058  0.3026  2.7177
  745MOL0     H  538   9.043   9.882   6.479 -0.6831 -0.6617 -2.7961
  745MOL0     H  539   8.893   9.641   6.499 -0.4745  0.2556  0.2411
  745MOL0     H  540   8.965   9.745   6.640  0.4894 -0.1374  0.9296
  745MOL0     H  541   8.890   9.542   6.751 -0.9781  0.7693  6.3689
  745MOL0     H  542   8.782   9.659   6.783  2.2802 -2.8437  1.6488
  745MOL0     H  543   8.666   9.548   6.555 -0.8691 -0.3593  0.9463
  745MOL0     H  544   8.756   9.404   6.624 -0.7312 -0.7698  1.8287
  745MOL0     H  545   8.567   9.574   6.762  0.4121  0.3517 -0.5836
  745MOL0     H  546   8.648   9.427   6.824 -1.7197 -0.1458  1.4243
  745MOL0     H  547   8.516   9.279   6.680 -0.4323 -0.4480 -1.4861
  745MOL0     H  548   8.474   9.415   6.573  0.7326 -2.9940 -0.5946
  745MOL0     H  549   8.390   9.383   6.862  0.7629  1.2622 -0.0530
  745MOL0     H  550   8.325   9.505   6.752  0.0834 -0.4667  2.8826
  745MOL0     H  551   8.213   9.355   6.606  1.7051 -0.5429 -0.0372
  745MOL0     H  552   8.166   9.349   6.782 -0.6789  2.0556 -2.0124
  745MOL0     H  553   8.290   9.151   6.806 -2.3954 -0.8827  0.6061
  745MOL0     H  554   8.162   9.128   6.680  0.6441  0.1753 -0.2913
  745MOL0     H  555   8.644  10.026   6.550 -0.5715  3.8149 -0.9588
  745MOL0     H  556   8.709  10.239   6.448  1.1843  0.1612 -1.3866
  745MOL0     H  557   8.947  10.461   6.149 -0.0798 -2.4999  1.1918
  745MOL0     H  558   9.000  10.674   6.021  1.7526 -0.8587 -0.9498
  745MOL0     H  559   9.321   9.786   6.280  0.0760 -1.1824 -1.5237
  745MOL0     H  560   9.173   9.642   6.404 -0.3605  3.5985  2.3491
  745MOL0     H  561   9.053   9.314   6.590 -1.1744 -2.8469 -0.4868
  745MOL0     H  562   8.854   9.184   6.680  1.6855 -0.0794 -0.4548
  745MOL0     H  563   8.707   9.272   7.070  2.0335 -0.7707  1.2330
  745MOL0     H  564   8.719   9.097   7.113  1.3568 -1.1777 -1.4046
  745MOL0     H  565   8.531   9.217   6.913 -2.8028  1.4832  2.1859
  745MOL0     H  566   8.504   9.152   7.078  0.3883  1.3409  0.0405
  745MOL0     H  567   8.607   8.989   6.841  0.2170 -2.1257 -0.2641
  745MOL0     H  568   8.448   8.993   6.888 -0.9396 -0.9008  2.3160
  745MOL0     H  569   8.665   8.890   7.076 -1.4912  0.6025  1.9154
  745MOL0     H  570   8.495   8.901   7.121  0.2559  0.0415  0.2562
  745MOL0     H  571   8.556   8.556   6.862  2.5051  0.5113  1.1498
  745MOL0     H  572   8.930   9.316   7.063  1.9717  0.0390  0.7022
  745MOL0     H  573   9.116   9.443   7.128  1.0888 -0.9896 -0.7188
  745MOL0     H  574   9.262   9.426   7.030 -0.4591 -1.2747 -2.2453
  745MOL0     H  575   9.166   9.563   7.005 -3.2142  1.1133  0.4029
  746MOL0     O  576   4.870   0.440   0.682  0.5327  0.2250 -0.9216
  746MOL0     C  577   4.798   0.503   0.612 -0.2745 -0.6229 -0.1082
  746MOL0     O  578   4.813   0.516   0.478  0.4472 -0.5667  0.4439
  746MOL0     C  579   4.929   0.469   0.430  0.3893  0.5392  0.6144
  746MOL0     C  580   5.063   0.514   0.463  0.5086  0.8055  0.9029
  746MOL0     C  581   5.182   0.463   0.401  0.6978 -0.2026 -0.3261
  746MOL0     C  582   5.167   0.366   0.305  0.3231 -0.0675  0.8563
  746MOL0     O  583   5.277   0.330   0.234  0.8281  0.7006  0.3564
  746MOL0     C  584   5.280   0.330   0.084  0.1223  0.9509 -0.2098
  746MOL0     C  585   5.230   0.464   0.023 -0.1544  0.2407 -0.4859
  746MOL0     C  586   5.206   0.459  -0.132  0.8643  0.2839  0.3261
  746MOL0     C  587   5.352   0.454  -0.194  0.2659 -0.7335  0.2904
  746MOL0     C  588   5.341   0.467  -0.348 -0.9095 -0.2809 -0.6467
  746MOL0     C  589   5.467   0.411  -0.415  0.6144  0.3957  0.0167
  746MOL0     C  590   5.477   0.451  -0.561 -0.3499  0.3841  0.3688
  746MOL0     C  591   5.537   0.592  -0.579 -1.6102  0.0961 -0.0796
  746MOL0     N  592   5.463   0.700  -0.511 -0.2386  0.1485 -0.3603
  746MOL0     C  593   5.525   0.776  -0.417  0.6822 -0.3690 -0.7694
  746MOL0     C  594   5.444   0.877  -0.400  0.5890  0.7628 -0.4913
  746MOL0     C  595   5.456   0.999  -0.325  0.5667  0.0690 -1.2338
  746MOL0     C  596   5.502   1.114  -0.407 -0.2506 -0.3193 -0.2658
  746MOL0     C  597   5.646   1.089  -0.463  0.2666 -0.0502  0.9528
  746MOL0     C  598   5.711   1.215  -0.537 -0.4403 -0.3999  0.1184
  746MOL0     O  599   5.838   1.186  -0.589  0.6106 -0.0768  0.2330
  746MOL0     C  600   5.903   1.271  -0.672  0.4520  0.7471  0.2647
  746MOL0     C  601   5.854   1.397  -0.706  0.3994 -1.0042 -0.3806
  746MOL0     C  602   5.933   1.494  -0.761 -0.1414 -0.6487  0.3157
  746MOL0     C  603   6.074   1.460  -0.777 -0.6179 -0.0343  0.7149
  746MOL0     C  604   6.173   1.554  -0.825 -0.6041  0.7577  0.4698
  746MOL0     O  605   6.306   1.521  -0.862  0.2552  0.0995  0.1436
  746MOL0     C  606   6.398   1.614  -0.889  0.5538 -0.5450 -0.1144
  746MOL0     C  607   6.423   1.726  -0.806  0.0031 -0.9708  0.5145
  746MOL0     C  608   6.528   1.811  -0.845  0.5373 -0.5900 -0.4181
  746MOL0     C  609   6.608   1.786  -0.963  0.7157  0.3217 -0.3335
  746MOL0     O  610   6.697   1.890  -0.997  0.1128  0.2118 -0.3345
  746MOL0     C  611   6.767   1.885  -1.125  0.0709  0.5551  0.1251
  746MOL0     C  612   6.882   1.982  -1.119 -0.1540 -0.3103  0.1727
  746MOL0     C  613   6.916   2.040  -1.260  0.6246  0.3080  0.6381
  746MOL0     C  614   7.008   2.162  -1.238  0.2229  0.2286  0.2277
  746MOL0     C  615   6.966   2.276  -1.148  0.9488 -0.2846  0.5402
  746MOL0     C  616   7.017   2.414  -1.200 -0.3487  0.7554  0.0602
  746MOL0     C  617   7.170   2.409  -1.227  0.4197 -0.1166  0.0336
  746MOL0     C  618   7.222   2.545  -1.270  0.8554 -0.1101  0.0703
  746MOL0    Cl  619   7.214   2.676  -1.132 -0.4350  0.3897 -0.6956
  746MOL0     C  620   6.567   1.682  -1.049 -0.7876 -0.1846  0.7246
  746MOL0     C  621   6.469   1.597  -1.012  0.3991  0.1615 -0.1261
  746MOL0     O  622   6.140   1.672  -0.817 -0.2780  0.0664  0.6013
  746MOL0     C  623   6.123   1.333  -0.749 -0.1334 -0.0454  0.6931
  746MOL0     C  624   6.032   1.240  -0.703 -0.0584 -0.4599  0.3229
  746MOL0     N  625   5.336   0.849  -0.480  0.6528 -0.1312 -0.2175
  746MOL0     N  626   5.350   0.753  -0.554  0.3197  0.2063 -0.1979
  746MOL0     C  627   5.038   0.310   0.274  1.3845  0.1552  0.4552
  746MOL0     C  628   4.919   0.369   0.329 -0.3631 -0.3186 -1.5414
  746MOL0     C  629   4.679   0.558   0.670 -0.8445 -0.4517  0.8112
  746MOL0     C  630   4.690   0.675   0.763 -0.2921  0.3152  1.0501
  746MOL0     C  631   4.575   0.719   0.834 -1.0768 -0.1769 -0.1363
  746MOL0     C  632   4.458   0.649   0.821  0.5792 -0.3021 -0.4549
  746MOL0     O  633   4.336   0.665   0.886 -0.0301 -0.8396 -0.5594
  746MOL0     C  634   4.336   0.744   1.012  0.1445 -0.9099  0.7775
  746MOL0     C  635   4.357   0.650   1.132  0.2472 -0.8201  0.6252
  746MOL0     C  636   4.369   0.727   1.264  0.7228 -0.3987  0.3206
  746MOL0     C  637   4.517   0.723   1.312 -0.9316 -0.5403  0.8222
  746MOL0     C  638   4.600   0.810   1.221 -0.0579 -0.2456  0.2012
  746MOL0     C  639   4.663   0.870   1.143  0.0569 -0.2308  0.1167
  746MOL0     C  640   4.451   0.544   0.732  0.1127  0.3721  0.8095
  746MOL0     C  641   4.557   0.491   0.642 -0.2463 -0.7105  0.2959
  746MOL0     C  642   4.535   0.364   0.560 -0.6559  0.2471  0.6107
  746MOL0     H  643   5.076   0.578   0.549  1.7249  0.2093  1.1757
  746MOL0     H  644   5.279   0.505   0.426  2.1492 -3.6189  0.2474
  746MOL0     H  645   5.386   0.347   0.065  0.7215  0.5467  2.3423
  746MOL0     H  646   5.232   0.239   0.046  1.3231  0.5486 -0.7985
  746MOL0     H  647   5.295   0.547   0.050  1.8288 -1.9686  1.9773
  746MOL0     H  648   5.130   0.481   0.066 -0.9096  0.4364 -2.2226
  746MOL0     H  649   5.156   0.551  -0.164  1.2134  1.1169  2.0174
  746MOL0     H  650   5.155   0.365  -0.156 -1.2324  1.6517 -0.8772
  746MOL0     H  651   5.410   0.537  -0.152  0.8400 -0.9174 -0.1343
  746MOL0     H  652   5.415   0.371  -0.162  1.2107 -0.4934 -0.8716
  746MOL0     H  653   5.254   0.408  -0.377 -1.8412 -0.1563  1.6332
  746MOL0     H  654   5.312   0.571  -0.363  1.1374  0.6177  1.0562
  746MOL0     H  655   5.561   0.441  -0.367  2.0792 -2.2134 -0.9864
  746MOL0     H  656   5.461   0.302  -0.409  2.0664  0.3842  3.0283
  746MOL0     H  657   5.376   0.435  -0.599  0.6985 -2.7019 -1.4618
  746MOL0     H  658   5.530   0.374  -0.618  2.6253  1.8903  0.9348
  746MOL0     H  659   5.638   0.584  -0.539 -1.2624 -0.4112 -1.0278
  746MOL0     H  660   5.550   0.616  -0.685  1.4162 -1.4200 -0.1424
  746MOL0     H  661   5.621   0.763  -0.368  0.2172  2.4537  1.1846
  746MOL0     H  662   5.371   1.014  -0.258  1.1229  0.2172 -0.5411
  746MOL0     H  663   5.532   0.990  -0.246 -2.6698 -3.9729  1.8903
  746MOL0     H  664   5.433   1.120  -0.491 -0.1254 -4.0077 -0.7700
  746MOL0     H  665   5.501   1.209  -0.352 -3.5485  2.0339 -3.8615
  746MOL0     H  666   5.635   1.015  -0.543 -1.4117  0.5761  0.5555
  746MOL0     H  667   5.711   1.052  -0.384 -0.3716 -1.5110  0.8334
  746MOL0     H  668   5.731   1.296  -0.467  0.4537  0.9683 -1.6383
  746MOL0     H  669   5.642   1.248  -0.615 -0.1533 -3.0863 -1.4128
  746MOL0     H  670   5.755   1.425  -0.672  0.6338 -1.9638  1.2133
  746MOL0     H  671   5.901   1.587  -0.807  1.0202 -0.1253  0.5267
  746MOL0     H  672   6.373   1.738  -0.710  1.5708  0.5221  1.2051
  746MOL0     H  673   6.550   1.904  -0.792  2.7590 -1.5220  0.4151
  746MOL0     H  674   6.828   1.794  -1.131 -1.7155 -0.6710 -0.2907
  746MOL0     H  675   6.693   1.909  -1.202 -0.0152  1.0355  0.3536
  746MOL0     H  676   6.863   2.063  -1.048 -2.7027  0.1454 -0.9084
  746MOL0     H  677   6.964   1.922  -1.079 -0.5950 -0.3884  0.9757
  746MOL0     H  678   6.944   1.964  -1.333 -4.1606  0.0948 -1.3435
  746MOL0     H  679   6.833   2.089  -1.312  0.3065  0.4079  1.2279
  746MOL0     H  680   7.032   2.204  -1.336 -2.7856  0.4378 -0.5277
  746MOL0     H  681   7.108   2.137  -1.201  0.2966  0.7216  0.3658
  746MOL0     H  682   6.997   2.261  -1.044  3.4112 -2.1656 -0.3695
  746MOL0     H  683   6.857   2.281  -1.147  0.8538 -1.7863 -0.0702
  746MOL0     H  684   6.977   2.438  -1.299  4.3614 -0.6885 -2.5572
  746MOL0     H  685   6.981   2.486  -1.127 -0.1529  1.7541 -0.7982
  746MOL0     H  686   7.191   2.355  -1.319 -1.1911  2.4880 -1.9794
  746MOL0     H  687   7.235   2.393  -1.140  2.4059  1.7289 -1.0212
  746MOL0     H  688   7.325   2.531  -1.305  0.3839 -2.0621 -0.6578
  746MOL0     H  689   7.160   2.580  -1.353 -0.9001 -2.1150  0.4675
  746MOL0     H  690   6.604   1.675  -1.151 -1.5451 -3.7846  0.5700
  746MOL0     H  691   6.434   1.504  -1.057  1.0916 -0.5847  0.8393
  746MOL0     H  692   6.227   1.308  -0.767 -0.1804  1.6260 -2.6028
  746MOL0     H  693   6.068   1.141  -0.678 -0.3776 -0.3628  1.1846
  746MOL0     H  694   5.036   0.221   0.213  2.0921 -1.1764  2.2903
  746MOL0     H  695   4.818   0.351   0.293 -1.3279  0.7502  0.4904
  746MOL0     H  696   4.786   0.717   0.790  0.3846 -1.0183  0.7585
  746MOL0     H  697   4.571   0.804   0.902 -3.8032 -0.6314  0.3755
  746MOL0     H  698   4.242   0.796   1.031  1.2350 -0.2387  5.8392
  746MOL0     H  699   4.408   0.826   1.017  0.4838 -1.0096 -1.6302
  746MOL0     H  700   4.446   0.587   1.125 -0.0255 -1.3274  1.5953
  746MOL0     H  701   4.275   0.577   1.132 -1.5785  1.1260  1.7711
  746MOL0     H  702   4.295   0.681   1.330 -0.2961 -2.0982 -1.8759
  746MOL0     H  703   4.323   0.826   1.260 -0.0587 -0.6261  2.5713
  746MOL0     H  704   4.527   0.766   1.412 -0.9761 -0.3509  0.7462
  746MOL0     H  705   4.557   0.621   1.312 -0.2832 -0.2940  0.9660
  746MOL0     H  706   4.723   0.929   1.076  2.4062 -0.0462  2.2281
  746MOL0     H  707   4.359   0.489   0.713  0.2725 -0.1038  1.4028
  746MOL0     H  708   4.573   0.278   0.617 -0.9560 -0.1695  0.1929
  746MOL0     H  709   4.427   0.349   0.555 -0.9562  0.8274  3.5409
  746MOL0     H  710   4.571   0.370   0.457 -0.2185 -2.6719  0.5068
  747MOL0     O  711   5.361   8.645   9.626  0.5085  0.2311  0.0221
  747MOL0     C  712   5.400   8.537   9.574  0.6706  0.3683 -0.3097
  747MOL0     O  713   5.411   8.415   9.638  0.1283  0.3158  0.1004
  747MOL0     C  714   5.352   8.384   9.759  0.9383 -0.4404 -0.9530
  747MOL0     C  715   5.239   8.303   9.766 -0.7778 -1.4046  0.8683
  747MOL0     C  716   5.166   8.301   9.879 -0.0469  0.6462 -0.5136
  747MOL0     C  717   5.211   8.356   9.998 -0.0662  0.8357  0.5572
  747MOL0     O  718   5.141   8.322  10.113  0.5658  0.3209  0.2379
  747MOL0     C  719   5.211   8.233  10.204  0.3181  0.2764 -0.5352
  747MOL0     C  720   5.110   8.174  10.313 -0.1526  0.2198 -0.1210
  747MOL0     C  721   5.087   8.264  10.437  0.5862 -0.2869  0.4012
  747MOL0     C  722   5.018   8.185  10.554 -0.6006  0.0480 -0.5110
  747MOL0     C  723   5.120   8.084  10.622 -0.8584  0.1061 -0.3751
  747MOL0     C  724   5.059   8.007  10.740 -0.0836  0.7181 -0.8401
  747MOL0     C  725   5.172   7.933  10.805  0.1566  0.5447 -0.5926
  747MOL0     C  726   5.129   7.888  10.944 -0.9114 -0.0941 -0.2332
  747MOL0     N  727   5.217   7.787  11.002  0.6548 -0.6805 -0.2066
  747MOL0     C  728   5.356   7.794  11.009 -0.2050  0.0125 -1.2477
  747MOL0     C  729   5.399   7.684  11.081  0.6195 -1.3854  0.2505
  747MOL0     C  730   5.537   7.638  11.107 -0.7500  0.6716 -0.5832
  747MOL0     C  731   5.560   7.615  11.262 -0.3792 -0.6012 -0.6189
  747MOL0     C  732   5.567   7.749  11.335 -0.2106  1.1284 -0.3218
  747MOL0     C  733   5.533   7.730  11.485  0.8295 -0.4805 -0.9976
  747MOL0     O  734   5.626   7.663  11.564  0.0071  0.9606 -0.1523
  747MOL0     C  735   5.616   7.671  11.703  0.5477 -0.5712 -0.5400
  747MOL0     C  736   5.533   7.770  11.776  0.2634 -0.2424  0.4370
  747MOL0     C  737   5.541   7.772  11.910  0.6268 -0.1595  0.1071
  747MOL0     C  738   5.622   7.680  11.981  0.2729 -0.2215 -0.1176
  747MOL0     C  739   5.637   7.676  12.137 -0.3984 -0.7165  1.6708
  747MOL0     O  740   5.687   7.561  12.190  0.2166 -0.4022  0.0730
  747MOL0     C  741   5.724   7.549  12.325 -0.0450 -0.3855 -0.5976
  747MOL0     C  742   5.843   7.489  12.349  0.1978  0.8553 -0.2380
  747MOL0     C  743   5.893   7.485  12.486  0.2959  0.0999  0.5875
  747MOL0     C  744   5.818   7.536  12.591 -0.2174  0.1362 -0.8696
  747MOL0     O  745   5.866   7.508  12.720  1.0829 -0.2930 -0.0271
  747MOL0     C  746   5.781   7.460  12.824 -0.4369  0.3461 -1.5319
  747MOL0     C  747   5.837   7.440  12.970  0.1212  0.6748  1.2262
  747MOL0     C  748   5.866   7.555  13.046 -0.2597 -1.0021  0.7598
  747MOL0     C  749   5.913   7.511  13.180  0.3186 -0.6432  0.2739
  747MOL0     C  750   5.934   7.641  13.257  0.8069 -1.1286 -0.0789
  747MOL0     C  751   6.017   7.630  13.390 -0.0984 -0.4918  0.4116
  747MOL0     C  752   6.168   7.589  13.355 -0.0759 -0.4092 -0.3246
  747MOL0     C  753   6.267   7.592  13.481 -0.4973 -0.3832 -0.6096
  747MOL0    Cl  754   6.266   7.457  13.594 -0.6578 -0.1682 -0.2710
  747MOL0     C  755   5.692   7.581  12.569  0.5814  0.5995 -0.6430
  747MOL0     C  756   5.639   7.585  12.437 -0.3166  0.6350 -0.5561
  747MOL0     O  757   5.615   7.775  12.200  0.1161 -0.6165  0.2375
  747MOL0     C  758   5.680   7.580  11.914 -0.4684  0.2344  0.1185
  747MOL0     C  759   5.691   7.588  11.775 -0.3462 -1.1015  0.6306
  747MOL0     N  760   5.286   7.607  11.090 -0.1143 -0.6675  0.2476
  747MOL0     N  761   5.178   7.660  11.046 -0.7146  0.1929 -0.3513
  747MOL0     C  762   5.324   8.434   9.997 -0.4147  0.5611  0.0995
  747MOL0     C  763   5.389   8.452   9.877 -0.1826 -0.4946  0.5107
  747MOL0     C  764   5.404   8.532   9.427 -0.5938 -0.2329  0.7025
  747MOL0     C  765   5.391   8.657   9.357 -0.3446 -0.0927  0.7468
  747MOL0     C  766   5.403   8.676   9.224 -0.2551  0.1596 -0.3943
  747MOL0     C  767   5.399   8.563   9.144 -0.4701 -1.0113  0.2733
  747MOL0     O  768   5.368   8.596   9.010  0.0754  0.3132 -0.2761
  747MOL0     C  769   5.364   8.485   8.925 -0.4551  0.2354 -0.0497
  747MOL0     C  770   5.499   8.439   8.877 -1.1143  0.3058  0.5984
  747MOL0     C  771   5.560   8.534   8.779 -0.3086 -0.3119 -0.3531
  747MOL0     C  772   5.717   8.514   8.748  0.5218 -0.9078  0.3528
  747MOL0     C  773   5.747   8.375   8.695  0.3794  0.5396  0.4984
  747MOL0     C  774   5.759   8.260   8.656  0.2425 -0.4823  0.3394
  747MOL0     C  775   5.395   8.440   9.199  0.3927  0.7763 -0.3789
  747MOL0     C  776   5.392   8.419   9.343  0.3666  0.6232  0.7441
  747MOL0     C  777   5.355   8.277   9.387  0.7749 -1.1803  0.1181
  747MOL0     H  778   5.199   8.267   9.672  1.6506  0.0617 -0.8435
  747MOL0     H  779   5.067   8.258   9.876 -1.4156  3.5269 -0.4047
  747MOL0     H  780   5.259   8.155  10.144  2.3584  1.7879 -0.9519
  747MOL0     H  781   5.289   8.289  10.256 -0.8367  0.8257  0.6709
  747MOL0     H  782   5.139   8.076  10.350  0.3490  0.4811  0.1966
  747MOL0     H  783   5.014   8.166  10.262  0.3635 -0.4683 -1.0154
  747MOL0     H  784   5.039   8.354  10.398 -0.0444 -0.5536  0.5587
  747MOL0     H  785   5.181   8.305  10.476 -0.6798  1.0227  2.2484
  747MOL0     H  786   4.963   8.255  10.617 -0.2638  0.1468 -0.3219
  747MOL0     H  787   4.938   8.119  10.518 -0.6909 -2.9550  4.2382
  747MOL0     H  788   5.151   8.007  10.551  0.3649  2.3340 -2.4151
  747MOL0     H  789   5.201   8.149  10.657 -1.7006  0.9306  0.1123
  747MOL0     H  790   5.028   8.081  10.815 -2.5801 -0.7734 -0.2898
  747MOL0     H  791   4.967   7.951  10.719  0.6657 -0.4250 -1.1006
  747MOL0     H  792   5.267   7.986  10.811  0.5673 -0.3195  1.7106
  747MOL0     H  793   5.178   7.843  10.743 -2.4434 -0.8267  0.9298
  747MOL0     H  794   5.128   7.973  11.013 -0.0319  0.4236 -0.8276
  747MOL0     H  795   5.032   7.838  10.934  0.9001 -3.6078 -2.8376
  747MOL0     H  796   5.416   7.880  10.983 -0.0501 -0.1825 -1.5500
  747MOL0     H  797   5.539   7.544  11.051 -3.0256  0.6440 -0.7213
  747MOL0     H  798   5.616   7.703  11.068  2.2483 -0.4591  3.0064
  747MOL0     H  799   5.479   7.552  11.301 -1.0187  0.5764  0.0080
  747MOL0     H  800   5.656   7.566  11.278 -0.0155 -0.1779 -1.4813
  747MOL0     H  801   5.498   7.829  11.306 -2.8755 -1.4182 -1.5307
  747MOL0     H  802   5.671   7.783  11.340  1.6376 -3.6402 -0.4949
  747MOL0     H  803   5.434   7.684  11.489  2.2071 -3.7039  0.6482
  747MOL0     H  804   5.531   7.835  11.515  2.1650  0.3031 -3.4266
  747MOL0     H  805   5.489   7.854  11.724  0.9728 -0.1131  0.0332
  747MOL0     H  806   5.487   7.848  11.966  0.3912  0.8733 -1.4435
  747MOL0     H  807   5.900   7.453  12.264 -1.2333 -0.5700 -0.6517
  747MOL0     H  808   5.982   7.436  12.525 -0.0863  0.2814  1.7378
  747MOL0     H  809   5.692   7.523  12.827  0.6942  2.0037 -1.6105
  747MOL0     H  810   5.744   7.361  12.793 -0.8501  0.5032 -1.5468
  747MOL0     H  811   5.765   7.384  13.031  0.3798  0.2090  1.1029
  747MOL0     H  812   5.930   7.386  12.957  2.5328  5.1079 -4.5891
  747MOL0     H  813   5.938   7.613  12.988 -0.8170 -1.3361 -0.3035
  747MOL0     H  814   5.772   7.612  13.046  0.4710  0.2485  1.1632
  747MOL0     H  815   6.009   7.459  13.184  0.9112  0.4529  3.2807
  747MOL0     H  816   5.836   7.453  13.233 -0.4719 -0.7986 -1.0043
  747MOL0     H  817   5.839   7.686  13.285 -0.0144 -0.8633 -2.9596
  747MOL0     H  818   5.994   7.710  13.197 -1.4933 -0.4303 -1.6808
  747MOL0     H  819   6.014   7.728  13.439  0.4844  0.1192 -0.7355
  747MOL0     H  820   5.983   7.550  13.456  0.3679 -1.1800 -0.1721
  747MOL0     H  821   6.203   7.672  13.293 -3.0483 -1.0582 -3.1332
  747MOL0     H  822   6.185   7.497  13.298 -0.8761 -1.4248  1.0229
  747MOL0     H  823   6.368   7.583  13.439 -0.4314  3.9956 -1.9182
  747MOL0     H  824   6.255   7.689  13.530  1.3943 -0.1069 -0.6141
  747MOL0     H  825   5.623   7.616  12.645  1.1249 -1.0309  0.6407
  747MOL0     H  826   5.542   7.633  12.440 -0.5830  0.3440  4.7213
  747MOL0     H  827   5.731   7.501  11.969  0.3430  1.5356  1.3016
  747MOL0     H  828   5.756   7.510  11.734  2.0332  0.9623  0.2194
  747MOL0     H  829   5.356   8.484  10.088 -3.4102  1.8633  0.5417
  747MOL0     H  830   5.474   8.519   9.871 -2.0888  1.9964 -0.0758
  747MOL0     H  831   5.391   8.748   9.417 -1.5387  0.4234 -0.0097
  747MOL0     H  832   5.403   8.778   9.186 -1.9797  0.8134  1.1721
  747MOL0     H  833   5.320   8.515   8.830  0.1629  2.3452  0.2849
  747MOL0     H  834   5.297   8.403   8.956  0.3711 -0.7229 -0.7342
  747MOL0     H  835   5.498   8.339   8.832 -1.4086  0.1820  0.8809
  747MOL0     H  836   5.572   8.436   8.959 -0.5753  0.4868  0.1327
  747MOL0     H  837   5.539   8.635   8.815 -0.4305  0.0045 -1.2852
  747MOL0     H  838   5.496   8.513   8.693 -0.6013 -2.8853  0.4179
  747MOL0     H  839   5.729   8.588   8.668 -0.4539  2.2753  2.9114
  747MOL0     H  840   5.792   8.540   8.824  1.7672 -1.7383 -0.5614
  747MOL0     H  841   5.752   8.159   8.622  2.0584 -0.7229  0.5674
  747MOL0     H  842   5.381   8.354   9.134 -0.0865  1.9936 -1.9557
  747MOL0     H  843   5.358   8.214   9.297  0.6809  3.2078 -3.2999
  747MOL0     H  844   5.426   8.254   9.467 -0.6613 -1.9953  1.1961
  747MOL0     H  845   5.257   8.270   9.433  1.4883 -3.6107  1.4556
  748MOL0     O  846   0.767   3.256   6.093  0.6291 -0.0396  0.6923
  748MOL0     C  847   0.780   3.346   6.179 -0.1505 -0.4494 -0.0655
  748MOL0     O  848   0.856   3.328   6.294 -0.2711 -0.3868 -0.1387
  748MOL0     C  849   0.902   3.201   6.327  0.1205 -0.2912 -0.0175
  748MOL0     C  850   1.041   3.175   6.362 -0.2248  0.1483  0.8366
  748MOL0     C  851   1.093   3.056   6.387  0.2025 -0.0035  0.0247
  748MOL0     C  852   1.014   2.938   6.385  0.6020  0.1603 -0.5609
  748MOL0     O  853   1.066   2.804   6.395  0.1186 -0.3902 -0.0552
  748MOL0     C  854   1.209   2.787   6.420  0.7979 -0.4110 -0.8648
  748MOL0     C  855   1.249   2.645   6.397  0.7281 -0.2560 -0.9822
  748MOL0     C  856   1.398   2.639   6.376 -0.2832 -0.6664 -0.7597
  748MOL0     C  857   1.439   2.499   6.390  0.7002  0.5963  0.1892
  748MOL0     C  858   1.572   2.470   6.323  0.6308  0.2294  0.0646
  748MOL0     C  859   1.630   2.338   6.364  0.0539 -0.3228  0.6895
  748MOL0     C  860   1.755   2.291   6.282 -0.3609  0.6122  0.1378
  748MOL0     C  861   1.725   2.291   6.134 -0.7581 -0.0579 -0.3315
  748MOL0     N  862   1.839   2.235   6.058  0.3935 -0.3022 -0.0729
  748MOL0     C  863   1.929   2.320   5.987 -0.9416  0.6017  0.7597
  748MOL0     C  864   2.036   2.240   5.937  0.0683  0.6046  0.3336
  748MOL0     C  865   2.166   2.276   5.873 -0.3429  0.3114  0.1718
  748MOL0     C  866   2.235   2.378   5.952 -0.4939 -0.2709 -0.6216
  748MOL0     C  867   2.372   2.424   5.886 -0.3638 -0.2211 -0.6974
  748MOL0     C  868   2.432   2.538   5.973  0.3456  0.5362  0.0562
  748MOL0     O  869   2.573   2.551   5.946  0.9008  0.2033 -0.6459
  748MOL0     C  870   2.611   2.609   5.822 -0.6386  0.3422 -0.1905
  748MOL0     C  871   2.531   2.684   5.736 -1.4961  0.1718  0.5183
  748MOL0     C  872   2.593   2.743   5.613  0.6158  0.3588 -0.1408
  748MOL0     C  873   2.731   2.722   5.593 -0.4183 -0.8932  0.3886
  748MOL0     C  874   2.790   2.773   5.475 -0.3823  0.5409  0.4396
  748MOL0     O  875   2.749   2.903   5.448  0.4441 -0.7221  0.2267
  748MOL0     C  876   2.818   2.971   5.350  0.1975 -0.3345 -0.4242
  748MOL0     C  877   2.890   3.073   5.405 -0.2151 -0.3033 -0.0031
  748MOL0     C  878   2.968   3.152   5.321 -0.7553 -0.0895 -0.7715
  748MOL0     C  879   2.957   3.131   5.187  0.6847 -0.5242  1.0506
  748MOL0     O  880   3.020   3.200   5.088  0.5122  0.4393 -0.0266
  748MOL0     C  881   3.110   3.301   5.109 -0.1717  0.2471 -0.3635
  748MOL0     C  882   3.192   3.317   4.977  0.4217  0.6337  0.5291
  748MOL0     C  883   3.343   3.347   4.989  1.1694 -0.1299  0.1530
  748MOL0     C  884   3.410   3.273   5.107 -0.1297  0.3724  0.6551
  748MOL0     C  885   3.558   3.286   5.079  0.3301  0.4166 -0.7643
  748MOL0     C  886   3.632   3.206   5.185 -0.1757  0.3120  0.1933
  748MOL0     C  887   3.784   3.208   5.153  0.2246 -0.2671 -0.4418
  748MOL0     C  888   3.865   3.221   5.284 -0.1651  0.4630  0.1039
  748MOL0    Cl  889   3.819   3.385   5.340  0.7273  0.3543  0.0382
  748MOL0     C  890   2.892   3.027   5.131  0.4124  0.7625 -0.7263
  748MOL0     C  891   2.811   2.947   5.219  0.0578  0.4198  0.7605
  748MOL0     O  892   2.865   2.705   5.398 -0.3618  0.2936 -0.2897
  748MOL0     C  893   2.804   2.643   5.682  0.0460  0.4326 -0.5850
  748MOL0     C  894   2.748   2.594   5.800 -0.0308 -0.5334 -0.6827
  748MOL0     N  895   1.990   2.107   5.974 -0.5176 -0.1910 -0.2035
  748MOL0     N  896   1.876   2.103   6.040  0.8326  0.0420 -0.1299
  748MOL0     C  897   0.880   2.956   6.360  0.0639  0.7316  0.0819
  748MOL0     C  898   0.823   3.081   6.333 -0.0801 -0.0344 -0.3156
  748MOL0     C  899   0.715   3.472   6.154  0.3850  0.2150  0.0896
  748MOL0     C  900   0.723   3.521   6.019 -0.1630  0.1080  0.5126
  748MOL0     C  901   0.667   3.648   5.986  1.6920  1.2175  0.9087
  748MOL0     C  902   0.602   3.733   6.082 -0.3478  0.0418  0.2079
  748MOL0     O  903   0.547   3.855   6.038 -0.4191 -0.5573 -0.1121
  748MOL0     C  904   0.544   3.889   5.900 -0.0510  0.2644  0.1642
  748MOL0     C  905   0.470   4.023   5.908  0.8371 -0.4094 -0.8749
  748MOL0     C  906   0.409   4.055   5.768  0.1491  0.4627  0.1555
  748MOL0     C  907   0.355   4.198   5.759 -0.0490 -0.6551  0.2441
  748MOL0     C  908   0.270   4.210   5.642  1.4651 -0.0163 -0.0934
  748MOL0     C  909   0.207   4.235   5.538 -1.1087 -0.3908  0.0484
  748MOL0     C  910   0.591   3.685   6.211  0.4160 -1.1384  0.6628
  748MOL0     C  911   0.642   3.557   6.245  0.9759  0.0182 -0.2665
  748MOL0     C  912   0.625   3.517   6.385  0.6866 -0.2798 -0.2601
  748MOL0     H  913   1.107   3.261   6.352  1.2419 -1.0937 -0.8347
  748MOL0     H  914   1.201   3.045   6.394 -0.0322 -2.3282  0.8392
  748MOL0     H  915   1.258   2.843   6.338 -2.1790 -0.3714 -2.7577
  748MOL0     H  916   1.240   2.828   6.516  2.0105  0.4193 -1.5692
  748MOL0     H  917   1.205   2.619   6.300 -0.6884  2.1672 -1.0666
  748MOL0     H  918   1.218   2.568   6.468  1.9240  0.5201  0.4331
  748MOL0     H  919   1.462   2.677   6.455  4.0280 -3.6428 -2.4247
  748MOL0     H  920   1.419   2.691   6.282 -3.6765  0.8887 -0.7929
  748MOL0     H  921   1.436   2.459   6.491  0.9557 -1.7582 -0.6906
  748MOL0     H  922   1.365   2.440   6.334  2.2121 -1.3349  0.1383
  748MOL0     H  923   1.554   2.467   6.216 -0.2235  0.7756  0.1788
  748MOL0     H  924   1.644   2.552   6.337  2.0237 -1.0650  0.7504
  748MOL0     H  925   1.650   2.324   6.470 -0.1267 -2.6649  0.4639
  748MOL0     H  926   1.559   2.267   6.320  0.7672 -0.2153 -0.7145
  748MOL0     H  927   1.788   2.198   6.329 -0.2349 -0.6101 -2.2564
  748MOL0     H  928   1.829   2.367   6.306  0.4896 -0.4361  0.9461
  748MOL0     H  929   1.631   2.237   6.117 -0.3284 -1.5185  1.6484
  748MOL0     H  930   1.716   2.398   6.113 -4.4567 -0.1843 -0.0973
  748MOL0     H  931   1.922   2.428   5.976  0.0313  0.4535 -2.2286
  748MOL0     H  932   2.223   2.184   5.859 -0.1392  0.8993 -3.8293
  748MOL0     H  933   2.157   2.311   5.770  1.7892 -0.3368 -0.2911
  748MOL0     H  934   2.176   2.466   5.980  2.3668  1.5354  0.0983
  748MOL0     H  935   2.261   2.342   6.051  2.2111 -2.8775 -2.1117
  748MOL0     H  936   2.351   2.459   5.784 -3.1072  2.6547  0.6854
  748MOL0     H  937   2.440   2.338   5.890 -0.7738 -0.5074  2.3000
  748MOL0     H  938   2.437   2.495   6.074 -3.9067 -1.0240 -0.2025
  748MOL0     H  939   2.386   2.637   5.965  2.4531  1.5298 -0.2902
  748MOL0     H  940   2.426   2.702   5.756 -2.0131 -2.3991  0.5071
  748MOL0     H  941   2.529   2.805   5.551  0.4533 -2.5893 -3.2603
  748MOL0     H  942   2.894   3.088   5.512  1.2348  2.2386 -0.3376
  748MOL0     H  943   3.025   3.230   5.370  1.3593 -1.3665 -1.0950
  748MOL0     H  944   3.067   3.396   5.140  1.4110  0.5001  1.1952
  748MOL0     H  945   3.179   3.267   5.186 -0.8162 -0.1932  0.0288
  748MOL0     H  946   3.189   3.224   4.918 -1.3895 -0.2112  1.8506
  748MOL0     H  947   3.146   3.396   4.918 -1.7227 -2.0602 -1.7124
  748MOL0     H  948   3.383   3.313   4.892 -1.2304 -0.2909 -0.8470
  748MOL0     H  949   3.354   3.455   5.003 -1.1032  0.0448  0.9602
  748MOL0     H  950   3.384   3.167   5.115 -0.6359  0.6060  2.5413
  748MOL0     H  951   3.387   3.329   5.198  1.1188  2.2374 -0.1168
  748MOL0     H  952   3.584   3.391   5.091 -0.8033  0.5837  0.3857
  748MOL0     H  953   3.583   3.233   4.986 -0.9715  0.6708 -1.2851
  748MOL0     H  954   3.613   3.243   5.286 -1.5527  0.9505 -0.2697
  748MOL0     H  955   3.603   3.100   5.183  0.5495  0.0924  0.9565
  748MOL0     H  956   3.814   3.289   5.086  0.4815 -1.4373 -1.7837
  748MOL0     H  957   3.816   3.115   5.106  0.6355 -0.7289  0.7215
  748MOL0     H  958   3.846   3.134   5.347 -2.4728  0.6888 -0.1920
  748MOL0     H  959   3.971   3.216   5.259  0.1007  0.0720  1.2740
  748MOL0     H  960   2.898   3.018   5.023  2.9257  0.7005 -0.6410
  748MOL0     H  961   2.754   2.858   5.193 -1.9092  1.4155  1.4312
  748MOL0     H  962   2.907   2.638   5.648  0.2302  3.2916 -0.7290
  748MOL0     H  963   2.794   2.538   5.881 -0.8043  1.9219  1.6022
  748MOL0     H  964   0.826   2.865   6.335  2.3311 -0.6888  0.0242
  748MOL0     H  965   0.717   3.088   6.310 -1.2990 -6.1776  1.5807
  748MOL0     H  966   0.770   3.463   5.941  2.3869  2.9055 -0.2257
  748MOL0     H  967   0.698   3.679   5.887  3.3706  1.3971  1.4468
  748MOL0     H  968   0.492   3.812   5.842 -0.6693  0.1515  0.8507
  748MOL0     H  969   0.649   3.899   5.871  0.4734 -0.8430  1.6042
  748MOL0     H  970   0.524   4.114   5.938 -3.0681  2.5408 -1.8982
  748MOL0     H  971   0.382   4.018   5.974 -2.6709  0.8781 -4.9871
  748MOL0     H  972   0.338   3.980   5.733 -1.0943  1.1097  1.1844
  748MOL0     H  973   0.495   4.044   5.702  0.2460 -0.6421  0.4457
  748MOL0     H  974   0.303   4.220   5.853 -0.8410  1.9138 -0.7053
  748MOL0     H  975   0.445   4.260   5.751  0.6178 -1.6542 -0.0567
  748MOL0     H  976   0.154   4.273   5.454  1.5477  4.0797  0.1122
  748MOL0     H  977   0.549   3.756   6.282 -2.7847 -1.0588 -1.0897
  748MOL0     H  978   0.616   3.612   6.439  2.1386 -1.2973  1.8985
  748MOL0     H  979   0.532   3.461   6.396  0.8954 -0.5985 -0.1171
  748MOL0     H  980   0.709   3.466   6.433  0.1560  1.1887  2.4270
  749MOL0     O  981   8.747   0.650   6.172  1.0111  0.9462  0.0555
  749MOL0     C  982   8.651   0.615   6.100  0.0879  0.8012 -0.7427
  749MOL0     O  983   8.622   0.664   5.978  0.5677  0.3213  0.4760
  749MOL0     C  984   8.709   0.751   5.920  0.1238 -0.1851 -0.5403
  749MOL0     C  985   8.846   0.716   5.899  0.6300 -0.3002  0.3405
  749MOL0     C  986   8.932   0.799   5.823  0.8528  1.4821 -0.3541
  749MOL0     C  987   8.883   0.908   5.760 -1.1632  0.7695 -0.0382
  749MOL0     O  988   8.984   0.984   5.696  0.6733 -0.9815 -0.0852
  749MOL0     C  989   8.942   1.059   5.580 -0.0687 -0.1552 -0.8409
  749MOL0     C  990   9.048   1.092   5.472  0.5416 -0.1349  0.8541
  749MOL0     C  991   9.160   1.174   5.515  0.0310 -0.8714 -0.7800
  749MOL0     C  992   9.116   1.329   5.556 -0.6273 -0.1245  0.0637
  749MOL0     C  993   9.225   1.422   5.542 -0.1284 -0.3926  0.3282
  749MOL0     C  994   9.318   1.428   5.661  0.0029  0.4234  0.4578
  749MOL0     C  995   9.425   1.317   5.648 -0.5137 -0.3267 -0.1079
  749MOL0     C  996   9.517   1.305   5.767 -0.7653  0.2796  0.1558
  749MOL0     N  997   9.450   1.276   5.896  0.1431  0.6818  0.3196
  749MOL0     C  998   9.375   1.163   5.918  0.5235 -0.6272  0.4147
  749MOL0     C  999   9.345   1.158   6.044  1.5262  0.6587  0.2873
  749MOL0     C 1000   9.269   1.044   6.105  0.6230  0.8319  0.1390
  749MOL0     C 1001   9.116   1.057   6.078 -0.1970  0.7812  0.4325
  749MOL0     C 1002   9.042   0.950   6.154  0.6233  0.4782  0.6144
  749MOL0     C 1003   8.887   0.976   6.125 -0.8973 -0.2701  0.6842
  749MOL0     O 1004   8.828   1.088   6.190  0.0278 -0.3174  0.4115
  749MOL0     C 1005   8.795   1.076   6.328 -0.4096 -0.4510  0.3276
  749MOL0     C 1006   8.828   0.961   6.408 -0.4979  0.1510 -0.6372
  749MOL0     C 1007   8.786   0.959   6.546 -0.4808  0.6732 -0.1936
  749MOL0     C 1008   8.731   1.070   6.616  0.4989 -0.0569 -0.5387
  749MOL0     C 1009   8.682   1.070   6.752  0.5677  0.0191  0.8617
  749MOL0     O 1010   8.674   1.183   6.818  0.1538 -0.7284 -0.0341
  749MOL0     C 1011   8.665   1.176   6.956 -0.0626  0.0336  0.1514
  749MOL0     C 1012   8.537   1.142   7.011 -0.1143 -0.4206  0.4182
  749MOL0     C 1013   8.522   1.173   7.146 -0.0379 -0.1686 -0.0980
  749MOL0     C 1014   8.634   1.216   7.227  0.6713 -0.7255 -0.3676
  749MOL0     O 1015   8.608   1.240   7.364 -0.2924  0.3766 -0.0186
  749MOL0     C 1016   8.725   1.236   7.449 -0.5318  0.5740  0.1265
  749MOL0     C 1017   8.686   1.252   7.594  0.7122 -0.2139  0.0875
  749MOL0     C 1018   8.799   1.242   7.692 -0.1481 -0.2466  0.6118
  749MOL0     C 1019   8.750   1.156   7.813  0.3429 -1.2208 -0.4164
  749MOL0     C 1020   8.875   1.126   7.899  0.0099  0.1105 -0.2257
  749MOL0     C 1021   8.835   1.071   8.027  0.1313 -0.7054 -1.0723
  749MOL0     C 1022   8.954   0.997   8.094 -0.7099  0.4531  0.1687
  749MOL0     C 1023   8.964   0.858   8.030 -0.2669  0.0790 -0.0255
  749MOL0    Cl 1024   9.101   0.777   8.106  0.0412  0.0012  0.2764
  749MOL0     C 1025   8.756   1.239   7.169 -0.0916  0.0865 -0.4811
  749MOL0     C 1026   8.771   1.224   7.029 -0.1208  0.6290  0.2201
  749MOL0     O 1027   8.671   0.960   6.802  0.5932  0.6781  0.2044
  749MOL0     C 1028   8.720   1.185   6.535  0.0224 -1.4022 -0.4693
  749MOL0     C 1029   8.749   1.184   6.398  0.2274 -0.0937 -0.1923
  749MOL0     N 1030   9.408   1.259   6.100 -0.1160 -0.2715  0.5883
  749MOL0     N 1031   9.473   1.326   6.018 -0.4783 -0.5501 -0.3729
  749MOL0     C 1032   8.747   0.937   5.774 -0.1083 -0.2248 -0.0645
  749MOL0     C 1033   8.663   0.865   5.865  0.2117  0.3841 -0.4262
  749MOL0     C 1034   8.561   0.514   6.150  0.4903 -0.0261  0.6311
  749MOL0     C 1035   8.428   0.529   6.107  0.7317  0.0833 -0.2809
  749MOL0     C 1036   8.330   0.437   6.133  0.7209  0.1134  0.0867
  749MOL0     C 1037   8.364   0.320   6.187 -0.1083 -0.6299  0.3241
  749MOL0     O 1038   8.274   0.223   6.203 -0.2620 -0.0546 -0.3328
  749MOL0     C 1039   8.200   0.166   6.100 -0.4870 -0.2571 -1.0665
  749MOL0     C 1040   8.304   0.116   5.999  0.5229 -0.0965 -0.5332
  749MOL0     C 1041   8.232   0.044   5.881 -0.0735  0.9710  0.1819
  749MOL0     C 1042   8.331  -0.024   5.783  0.2427 -0.5953  0.3445
  749MOL0     C 1043   8.412   0.088   5.712  0.6408  0.7693 -0.2031
  749MOL0     C 1044   8.484   0.181   5.679  0.0279  0.6629 -0.4856
  749MOL0     C 1045   8.491   0.309   6.250 -0.1791  0.7271  0.4176
  749MOL0     C 1046   8.596   0.401   6.232  0.2215 -0.8963 -0.2169
  749MOL0     C 1047   8.740   0.375   6.283  0.5328 -0.2029  0.4456
  749MOL0     H 1048   8.883   0.626   5.947  2.1986  0.2051  0.1667
  749MOL0     H 1049   9.034   0.767   5.807 -0.0989 -0.8753 -2.5043
  749MOL0     H 1050   8.855   1.019   5.527  0.4814 -0.9816 -1.1287
  749MOL0     H 1051   8.913   1.154   5.627  2.8255  0.7595 -0.6965
  749MOL0     H 1052   9.001   1.140   5.386  0.0180 -2.1105 -0.0216
  749MOL0     H 1053   9.078   0.993   5.435 -0.0689  1.2376 -4.0085
  749MOL0     H 1054   9.237   1.166   5.438 -0.2276 -1.0353 -1.0236
  749MOL0     H 1055   9.205   1.134   5.607  3.2649  1.2492 -1.2838
  749MOL0     H 1056   9.043   1.365   5.483 -1.0379 -0.3695  0.3507
  749MOL0     H 1057   9.061   1.317   5.650 -0.9996 -0.0124 -0.1350
  749MOL0     H 1058   9.278   1.388   5.453  4.2651  0.9603  2.1443
  749MOL0     H 1059   9.188   1.522   5.517  0.0231  0.0664  1.8132
  749MOL0     H 1060   9.371   1.523   5.669  1.0843  0.1841 -2.6473
  749MOL0     H 1061   9.261   1.417   5.754  3.4265  5.1662  3.5858
  749MOL0     H 1062   9.480   1.350   5.560  1.4356  0.2595  1.2468
  749MOL0     H 1063   9.372   1.223   5.631 -3.3683  1.2905 -0.6669
  749MOL0     H 1064   9.595   1.229   5.753 -0.6675 -0.5197  4.0311
  749MOL0     H 1065   9.568   1.401   5.779 -0.6364  0.1308  0.7938
  749MOL0     H 1066   9.344   1.102   5.834  0.4370  0.6840 -0.5223
  749MOL0     H 1067   9.302   0.949   6.061  1.2197  2.6537 -3.8025
  749MOL0     H 1068   9.286   1.041   6.213 -1.2526 -2.9278  0.4974
  749MOL0     H 1069   9.084   1.160   6.098 -0.0287  1.4148 -2.1712
  749MOL0     H 1070   9.103   1.033   5.972 -2.4743 -3.0584  1.4141
  749MOL0     H 1071   9.054   0.944   6.262  0.7086 -0.7564  0.5564
  749MOL0     H 1072   9.057   0.845   6.127 -0.9937 -0.9983  4.7174
  749MOL0     H 1073   8.840   0.878   6.143 -1.2568  0.0270  1.4032
  749MOL0     H 1074   8.875   0.997   6.019 -0.0423 -1.3374  0.3582
  749MOL0     H 1075   8.864   0.868   6.365  0.8335  1.2922 -2.1392
  749MOL0     H 1076   8.813   0.873   6.607  0.7117  0.6199 -0.7660
  749MOL0     H 1077   8.454   1.112   6.947 -0.5125 -0.2079  0.8284
  749MOL0     H 1078   8.428   1.173   7.199  0.0864 -2.3041  0.1992
  749MOL0     H 1079   8.786   1.145   7.448  2.6395  2.2854  4.3285
  749MOL0     H 1080   8.782   1.323   7.416  0.4413  0.7622  2.1022
  749MOL0     H 1081   8.638   1.349   7.606 -3.7017 -1.8720 -2.0018
  749MOL0     H 1082   8.606   1.180   7.614 -0.5369  0.8643 -0.8838
  749MOL0     H 1083   8.880   1.191   7.640 -1.5537  0.2394 -2.2710
  749MOL0     H 1084   8.822   1.335   7.746 -1.1331 -0.2950  1.1496
  749MOL0     H 1085   8.701   1.063   7.780  1.6796 -2.0049 -0.2833
  749MOL0     H 1086   8.675   1.210   7.871 -0.1627  0.1128 -2.2250
  749MOL0     H 1087   8.938   1.214   7.913 -1.3981  1.0535  0.3260
  749MOL0     H 1088   8.941   1.060   7.841  1.5099  0.2619  1.2392
  749MOL0     H 1089   8.803   1.150   8.097  0.2754 -2.6738  1.3601
  749MOL0     H 1090   8.742   1.015   8.021 -1.5580  1.5971  1.3615
  749MOL0     H 1091   8.952   0.994   8.203  0.7600 -1.5425  0.1915
  749MOL0     H 1092   9.056   1.027   8.070  0.8207 -3.8433  0.3536
  749MOL0     H 1093   8.869   0.807   8.048 -2.1272  2.5177 -2.0844
  749MOL0     H 1094   8.975   0.862   7.921 -1.6997 -0.0104 -0.1822
  749MOL0     H 1095   8.839   1.290   7.218 -0.2848  0.6741 -0.7507
  749MOL0     H 1096   8.860   1.253   6.973 -0.4548 -0.6578 -1.0462
  749MOL0     H 1097   8.666   1.268   6.578 -0.7245 -2.9039  1.6713
  749MOL0     H 1098   8.723   1.274   6.343  1.8617 -0.3825 -1.5141
  749MOL0     H 1099   8.711   1.025   5.722  3.9087  0.7001 -1.6873
  749MOL0     H 1100   8.563   0.900   5.887  0.6266  0.0322  2.4286
  749MOL0     H 1101   8.397   0.608   6.039  1.3370  0.3424 -0.2577
  749MOL0     H 1102   8.236   0.450   6.082  2.8334  0.6276 -4.0723
  749MOL0     H 1103   8.126   0.237   6.062 -0.0730  0.2543 -0.9302
  749MOL0     H 1104   8.150   0.079   6.144 -0.0620 -0.7603 -1.5674
  749MOL0     H 1105   8.373   0.044   6.043 -0.4595  0.6203  2.4174
  749MOL0     H 1106   8.359   0.202   5.959  0.7281  1.1387  2.1946
  749MOL0     H 1107   8.165   0.112   5.827 -0.2889  0.3645 -0.3184
  749MOL0     H 1108   8.162  -0.027   5.925  0.4329  0.1510 -0.3275
  749MOL0     H 1109   8.380  -0.098   5.846 -0.9446 -2.0214 -0.3327
  749MOL0     H 1110   8.269  -0.072   5.707  1.2110 -0.5689 -0.4846
  749MOL0     H 1111   8.549   0.264   5.659  2.2178 -0.0632  2.8272
  749MOL0     H 1112   8.517   0.208   6.282  0.3607 -0.1260 -2.3771
  749MOL0     H 1113   8.773   0.444   6.361 -1.3807  2.0354 -0.6014
  749MOL0     H 1114   8.724   0.268   6.300 -2.7893 -0.1002 -1.2285
  749MOL0     H 1115   8.816   0.386   6.205  0.4580 -1.8162  0.1048
  750MOL0     O 1116   4.739   1.675   2.605  0.7610 -0.2503 -0.1517
  750MOL0     C 1117   4.830   1.602   2.589  0.7374  0.8143 -0.7032
  750MOL0     O 1118   4.950   1.616   2.645 -0.5332  0.2238  0.4449
  750MOL0     C 1119   4.989   1.719   2.723 -0.3630 -0.5614 -0.0034
  750MOL0     C 1120   5.124   1.751   2.729 -0.2274 -0.1997 -1.1802
  750MOL0     C 1121   5.173   1.839   2.829 -0.6923  0.2919  0.9909
  750MOL0     C 1122   5.083   1.903   2.915 -0.7482  0.8421  0.1345
  750MOL0     O 1123   5.124   2.001   3.013  0.2605  0.3334 -0.4471
  750MOL0     C 1124   5.253   2.066   2.996 -0.4082 -0.4220  0.9744
  750MOL0     C 1125   5.361   1.993   3.076 -0.2248  0.2358  0.4655
  750MOL0     C 1126   5.313   1.924   3.206  0.6697 -0.0149 -0.2832
  750MOL0     C 1127   5.392   1.802   3.236 -0.7293  0.9800 -0.4813
  750MOL0     C 1128   5.336   1.726   3.365 -0.2512 -0.1757 -0.0222
  750MOL0     C 1129   5.182   1.702   3.376 -0.3526  0.0414  1.2749
  750MOL0     C 1130   5.160   1.575   3.455 -0.5453  0.7458  0.3227
  750MOL0     C 1131   5.025   1.555   3.501  0.0183 -0.1699 -1.0545
  750MOL0     N 1132   5.025   1.468   3.626  0.3714  0.3946  0.0960
  750MOL0     C 1133   4.971   1.340   3.631  0.4664 -0.3137 -0.3116
  750MOL0     C 1134   4.975   1.292   3.760 -0.5437 -0.2297 -0.1477
  750MOL0     C 1135   4.951   1.158   3.819  0.2691 -0.2640  0.0093
  750MOL0     C 1136   4.804   1.135   3.864 -0.5888  0.4531 -0.7839
  750MOL0     C 1137   4.710   1.116   3.739  1.2535 -0.3672 -0.6301
  750MOL0     C 1138   4.555   1.166   3.768 -0.3198  1.1269  0.1121
  750MOL0     O 1139   4.506   1.223   3.651  0.0862  0.6422 -1.1933
  750MOL0     C 1140   4.535   1.355   3.610  0.1550  0.5680  0.5698
  750MOL0     C 1141   4.463   1.383   3.497  0.4206 -0.1996 -1.0140
  750MOL0     C 1142   4.480   1.501   3.422 -0.0107 -0.7488  0.5618
  750MOL0     C 1143   4.577   1.596   3.467 -0.6214 -0.3462  0.3537
  750MOL0     C 1144   4.598   1.723   3.385 -0.5272  0.5807 -1.0641
  750MOL0     O 1145   4.562   1.715   3.253  0.2821  0.0137  0.0353
  750MOL0     C 1146   4.562   1.845   3.179 -0.3980 -0.5523  0.1572
  750MOL0     C 1147   4.550   1.831   3.043 -0.2713  0.7606  0.4028
  750MOL0     C 1148   4.549   1.930   2.946  1.0284 -0.5177 -0.5946
  750MOL0     C 1149   4.557   2.065   2.992 -0.8462 -1.2058  0.8285
  750MOL0     O 1150   4.564   2.175   2.901  0.0787 -0.2087  0.4659
  750MOL0     C 1151   4.531   2.310   2.942 -0.2647  0.8548 -0.2963
  750MOL0     C 1152   4.553   2.412   2.836  0.2308 -0.9554 -0.2071
  750MOL0     C 1153   4.687   2.391   2.760 -0.8749 -0.7291 -0.1968
  750MOL0     C 1154   4.810   2.401   2.851 -0.1506  0.9405  0.6044
  750MOL0     C 1155   4.928   2.349   2.776  0.2732  0.1300 -0.0857
  750MOL0     C 1156   5.055   2.406   2.829  0.2737 -0.4928 -0.1245
  750MOL0     C 1157   5.181   2.364   2.763  0.7766  1.4372 -0.7124
  750MOL0     C 1158   5.286   2.468   2.806  0.4193  0.0118 -0.5982
  750MOL0    Cl 1159   5.357   2.423   2.960  0.0869  0.4593 -0.3271
  750MOL0     C 1160   4.562   2.091   3.126 -0.0878  0.2800 -0.5367
  750MOL0     C 1161   4.570   1.983   3.223  0.2891  1.3684 -0.5690
  750MOL0     O 1162   4.668   1.813   3.430  0.0840 -0.0705 -0.5150
  750MOL0     C 1163   4.649   1.556   3.572 -0.2346 -0.1642 -0.2988
  750MOL0     C 1164   4.630   1.447   3.647  0.4048  0.8898  1.1094
  750MOL0     N 1165   5.034   1.389   3.837 -0.5834 -0.1152 -0.0091
  750MOL0     N 1166   5.067   1.493   3.755 -0.1659 -0.3374 -0.4014
  750MOL0     C 1167   4.943   1.871   2.907  0.3105  0.1801  0.1240
  750MOL0     C 1168   4.902   1.780   2.810  0.1301 -0.0494 -0.4473
  750MOL0     C 1169   4.803   1.483   2.492 -0.4689 -0.2121 -0.2444
  750MOL0     C 1170   4.673   1.458   2.448  0.8450 -0.6381  1.1018
  750MOL0     C 1171   4.631   1.353   2.381  0.1078 -0.4024  0.2750
  750MOL0     C 1172   4.719   1.256   2.338 -0.2508 -0.5691 -0.3452
  750MOL0     O 1173   4.663   1.160   2.262  0.5460  0.1678  0.4777
  750MOL0     C 1174   4.753   1.090   2.175  0.6622 -0.2406  0.0384
  750MOL0     C 1175   4.670   0.998   2.080  0.0636  0.2682 -0.5401
  750MOL0     C 1176   4.767   0.945   1.968  0.5603 -0.1400  0.3330
  750MOL0     C 1177   4.688   0.922   1.839 -0.0041  0.7142 -0.5984
  750MOL0     C 1178   4.604   0.802   1.852 -0.1025 -0.2165 -0.2783
  750MOL0     C 1179   4.527   0.710   1.858  0.1830  1.0789  0.3326
  750MOL0     C 1180   4.855   1.267   2.381 -0.1568 -1.0388  0.0864
  750MOL0     C 1181   4.891   1.375   2.476  0.5967 -0.2918  0.8458
  750MOL0     C 1182   5.028   1.344   2.536 -0.3326 -0.8628  0.0874
  750MOL0     H 1183   5.185   1.689   2.665  1.9476 -0.8360  1.3292
  750MOL0     H 1184   5.276   1.870   2.811 -0.9145  0.0582 -0.8827
  750MOL0     H 1185   5.280   2.092   2.894  0.2817  1.6756  1.6455
  750MOL0     H 1186   5.228   2.166   3.031 -0.0946  0.8519 -2.1248
  750MOL0     H 1187   5.425   2.076   3.110  3.1432 -2.9397  2.6648
  750MOL0     H 1188   5.418   1.922   3.016 -1.7444 -0.0565 -0.6827
  750MOL0     H 1189   5.207   1.897   3.205  0.5566  0.4083  0.2079
  750MOL0     H 1190   5.320   1.985   3.296 -0.9707 -1.0363  0.5860
  750MOL0     H 1191   5.402   1.734   3.151  2.4555  2.1212 -1.1658
  750MOL0     H 1192   5.493   1.834   3.261 -1.7017  1.1547  4.0691
  750MOL0     H 1193   5.404   1.641   3.378 -0.1765 -0.2732 -1.0139
  750MOL0     H 1194   5.353   1.795   3.448 -0.3650 -1.5905  1.2153
  750MOL0     H 1195   5.118   1.782   3.416  1.1107  2.7589 -1.4043
  750MOL0     H 1196   5.143   1.699   3.274  1.3528  0.9754  0.5642
  750MOL0     H 1197   5.224   1.581   3.544  1.6910 -3.1900 -0.8187
  750MOL0     H 1198   5.209   1.491   3.406 -1.2514  1.3200 -1.4628
  750MOL0     H 1199   4.990   1.654   3.532  0.1608  0.4612 -2.8084
  750MOL0     H 1200   4.960   1.515   3.422 -1.2109  0.1214 -0.2203
  750MOL0     H 1201   4.930   1.277   3.554 -0.0667 -0.3217 -0.0262
  750MOL0     H 1202   4.974   1.089   3.737 -2.0957  0.3008 -1.2279
  750MOL0     H 1203   5.022   1.154   3.902  1.9372  0.8215 -1.3129
  750MOL0     H 1204   4.801   1.047   3.930  2.9875  1.2176  0.6087
  750MOL0     H 1205   4.783   1.232   3.909 -1.8159  1.7119 -3.7994
  750MOL0     H 1206   4.704   1.015   3.697 -0.1451 -0.6657  0.2304
  750MOL0     H 1207   4.742   1.194   3.668 -3.1451  0.5390 -1.9341
  750MOL0     H 1208   4.564   1.240   3.849  0.6690  1.4489 -0.2740
  750MOL0     H 1209   4.490   1.080   3.780  2.4142 -0.8387  2.1056
  750MOL0     H 1210   4.390   1.308   3.469 -0.7522  0.3355  0.4153
  750MOL0     H 1211   4.424   1.518   3.331 -0.9292 -1.6118  0.9474
  750MOL0     H 1212   4.538   1.726   3.018  2.8416  0.4759 -0.3008
  750MOL0     H 1213   4.555   1.922   2.838  2.9590  1.4132 -0.7190
  750MOL0     H 1214   4.426   2.308   2.973 -0.1148 -2.1503  0.2962
  750MOL0     H 1215   4.600   2.328   3.025 -1.8870  0.8945  1.0951
  750MOL0     H 1216   4.465   2.407   2.771 -0.5848  0.4107  0.7658
  750MOL0     H 1217   4.563   2.512   2.878  2.9835  0.4549 -3.7544
  750MOL0     H 1218   4.676   2.302   2.698  1.2592 -0.6352 -0.7712
  750MOL0     H 1219   4.691   2.470   2.684  0.0709 -0.5882 -0.0167
  750MOL0     H 1220   4.787   2.335   2.936 -2.1991  2.2344  1.1271
  750MOL0     H 1221   4.807   2.508   2.873 -1.5429  1.8668 -3.1910
  750MOL0     H 1222   4.918   2.371   2.669  0.4250 -0.6467 -0.2687
  750MOL0     H 1223   4.921   2.241   2.787  0.6731 -0.1784 -2.2712
  750MOL0     H 1224   5.042   2.512   2.807  0.1078 -0.6003 -0.5496
  750MOL0     H 1225   5.067   2.403   2.938  1.6500  2.6736 -0.0913
  750MOL0     H 1226   5.175   2.353   2.654  2.0378  0.3115 -0.6868
  750MOL0     H 1227   5.192   2.257   2.782 -3.1655  0.8886 -0.7647
  750MOL0     H 1228   5.365   2.471   2.731  1.5917 -0.7211  0.5498
  750MOL0     H 1229   5.242   2.567   2.819  2.7231  1.0227 -0.0701
  750MOL0     H 1230   4.574   2.190   3.169 -0.5068 -1.4042  3.9831
  750MOL0     H 1231   4.588   2.010   3.327  2.0491  0.5232 -0.6075
  750MOL0     H 1232   4.732   1.622   3.595  2.4879 -2.2312 -3.1851
  750MOL0     H 1233   4.687   1.407   3.731 -0.8465 -2.6100  0.4813
  750MOL0     H 1234   4.872   1.905   2.982  0.4395 -1.8974  1.2302
  750MOL0     H 1235   4.797   1.755   2.822  0.2235  0.3352  1.5975
  750MOL0     H 1236   4.607   1.543   2.466  2.5953  0.9396  0.3600
  750MOL0     H 1237   4.527   1.342   2.351 -0.5644 -1.9243  2.8028
  750MOL0     H 1238   4.815   1.025   2.237  1.4956  2.4018  2.1776
  750MOL0     H 1239   4.822   1.151   2.116  1.8310  1.6639  3.1475
  750MOL0     H 1240   4.581   1.046   2.038 -1.3866 -0.6924  1.2702
  750MOL0     H 1241   4.614   0.921   2.133 -1.0564  2.1255  1.0981
  750MOL0     H 1242   4.815   0.853   2.002 -1.9660 -1.2935  1.0282
  750MOL0     H 1243   4.839   1.025   1.945  1.1234 -0.2806  1.5330
  750MOL0     H 1244   4.619   1.005   1.824 -0.9839 -0.0059 -0.2039
  750MOL0     H 1245   4.748   0.895   1.751  0.4666  1.1452 -0.4112
  750MOL0     H 1246   4.459   0.628   1.848 -0.0543  1.3067  0.0497
  750MOL0     H 1247   4.926   1.191   2.349 -0.1380 -1.5417  1.2679
  750MOL0     H 1248   5.051   1.238   2.524  1.7607 -0.6167  1.4731
  750MOL0     H 1249   5.107   1.405   2.491  0.7254 -2.8947 -0.9538
  750MOL0     H 1250   5.027   1.364   2.643  0.8811  0.4010 -0.1088
  751MOL0     O 1251   4.583   1.011   5.165  0.1210 -0.8183  0.3577
  751MOL0     C 1252   4.693   0.964   5.169 -0.4310  0.8598  1.1422
  751MOL0     O 1253   4.787   0.988   5.072 -0.1642  0.8247  0.4536
  751MOL0     C 1254   4.741   1.019   4.945 -0.5432  0.0015  0.8434
  751MOL0     C 1255   4.829   0.973   4.839 -0.2049 -0.3554 -0.0303
  751MOL0     C 1256   4.796   1.003   4.707  0.0040  0.1831  0.4996
  751MOL0     C 1257   4.681   1.073   4.675  0.2588 -0.4138 -0.6566
  751MOL0     O 1258   4.644   1.120   4.552 -1.2441  0.0523  0.0677
  751MOL0     C 1259   4.713   1.063   4.445 -1.1952 -0.2935 -0.3437
  751MOL0     C 1260   4.665   1.129   4.314  0.0143 -0.1556 -0.5475
  751MOL0     C 1261   4.524   1.064   4.294 -0.4729  0.1491  0.7216
  751MOL0     C 1262   4.456   1.119   4.167  0.0756  1.1545  0.0663
  751MOL0     C 1263   4.324   1.069   4.137  0.7948 -0.5421  0.3128
  751MOL0     C 1264   4.329   0.933   4.073 -0.7341 -0.2106  0.5486
  751MOL0     C 1265   4.188   0.889   4.038  0.9159 -0.9216 -1.0681
  751MOL0     C 1266   4.175   0.750   3.972  0.4157 -0.5501  0.2594
  751MOL0     N 1267   4.032   0.711   3.979 -0.5007  0.3535  0.6905
  751MOL0     C 1268   3.994   0.592   3.926 -0.2210 -0.1737 -0.6457
  751MOL0     C 1269   3.862   0.597   3.959  0.4818  0.4183 -0.4281
  751MOL0     C 1270   3.754   0.483   3.946 -0.7202 -1.5017  0.6815
  751MOL0     C 1271   3.793   0.339   3.993 -0.2120  0.2646 -0.5697
  751MOL0     C 1272   3.857   0.316   4.140  0.4318 -0.5532  0.7789
  751MOL0     C 1273   3.969   0.395   4.190 -0.8867 -0.2974  0.2425
  751MOL0     O 1274   4.084   0.369   4.102 -0.2508  0.2548 -0.1554
  751MOL0     C 1275   4.203   0.427   4.139 -0.0322 -1.3932  0.5655
  751MOL0     C 1276   4.223   0.491   4.260 -0.1694 -0.5690  0.5884
  751MOL0     C 1277   4.347   0.554   4.292  0.0378 -0.0878 -0.3519
  751MOL0     C 1278   4.459   0.536   4.201  0.2615 -0.2345 -0.6747
  751MOL0     C 1279   4.586   0.581   4.246  0.6851 -0.5533 -0.7969
  751MOL0     O 1280   4.691   0.544   4.164  0.0396  0.0690  0.3388
  751MOL0     C 1281   4.815   0.602   4.178  0.2905  0.2156 -0.2640
  751MOL0     C 1282   4.840   0.742   4.206  0.5088 -0.0091 -1.3189
  751MOL0     C 1283   4.961   0.807   4.197  0.0031  0.1804  1.0017
  751MOL0     C 1284   5.064   0.738   4.139 -0.6845 -0.0572  0.4482
  751MOL0     O 1285   5.180   0.796   4.103  0.2956  0.3119  0.1970
  751MOL0     C 1286   5.172   0.928   4.051  0.1913  0.1372 -0.3569
  751MOL0     C 1287   5.305   0.958   3.980  0.4779  0.0204  0.4805
  751MOL0     C 1288   5.328   1.077   3.884  0.1112  0.4794 -0.1779
  751MOL0     C 1289   5.328   1.216   3.967  0.3629  0.6209  0.4327
  751MOL0     C 1290   5.412   1.322   3.890 -0.6598 -0.7122 -0.5116
  751MOL0     C 1291   5.390   1.467   3.954 -0.1775  0.4397 -0.3776
  751MOL0     C 1292   5.445   1.497   4.091 -0.6224 -0.7629 -0.4108
  751MOL0     C 1293   5.593   1.456   4.092  0.3455  0.2145  0.1498
  751MOL0    Cl 1294   5.679   1.514   3.947 -0.5730  0.1943 -0.0671
  751MOL0     C 1295   5.051   0.598   4.123 -1.1647  0.4031  0.6499
  751MOL0     C 1296   4.930   0.532   4.145 -0.5190  0.7021  0.4133
  751MOL0     O 1297   4.600   0.651   4.348  0.4141 -0.0224 -0.1911
  751MOL0     C 1298   4.433   0.467   4.081  0.6195 -0.4356  1.0661
  751MOL0     C 1299   4.308   0.414   4.047 -0.2672 -0.3612  0.2284
  751MOL0     N 1300   3.833   0.721   4.018  0.0573  0.6185  0.0143
  751MOL0     N 1301   3.938   0.783   4.050 -0.2551  0.6287  0.1006
  751MOL0     C 1302   4.605   1.131   4.778 -0.6816 -0.2307 -0.3676
  751MOL0     C 1303   4.632   1.102   4.912  0.3202  0.7694  0.3108
  751MOL0     C 1304   4.746   0.882   5.282 -0.1510 -1.0605 -1.3276
  751MOL0     C 1305   4.705   0.921   5.416  0.0810  1.0830 -0.8240
  751MOL0     C 1306   4.760   0.876   5.526 -0.7764 -0.0488  0.8339
  751MOL0     C 1307   4.865   0.778   5.514  0.0704  0.0170 -0.6899
  751MOL0     O 1308   4.920   0.751   5.642 -0.2962  0.6209  0.4126
  751MOL0     C 1309   5.017   0.632   5.644  0.4638 -0.4928 -0.5648
  751MOL0     C 1310   5.062   0.584   5.783  0.4533 -0.2082 -0.1059
  751MOL0     C 1311   4.955   0.539   5.884  0.4907 -1.1588 -0.5448
  751MOL0     C 1312   4.885   0.414   5.838 -0.7338  0.4764 -0.7000
  751MOL0     C 1313   4.760   0.409   5.895  0.5594 -0.8434 -0.0551
  751MOL0     C 1314   4.646   0.402   5.940  0.1070  0.5327 -0.0202
  751MOL0     C 1315   4.902   0.719   5.393  0.1366  0.0013 -0.0832
  751MOL0     C 1316   4.842   0.774   5.276  0.2526 -0.3225  0.1689
  751MOL0     C 1317   4.906   0.713   5.151 -0.4503  0.1582 -0.6568
  751MOL0     H 1318   4.924   0.924   4.861  2.1502  2.5395 -2.7307
  751MOL0     H 1319   4.865   0.962   4.634  0.6574  1.1296  0.5661
  751MOL0     H 1320   4.822   1.075   4.445 -1.4536  3.0543  0.9676
  751MOL0     H 1321   4.698   0.955   4.442  2.1045 -0.8399 -2.1240
  751MOL0     H 1322   4.732   1.102   4.232 -1.0343 -0.0397 -1.4627
  751MOL0     H 1323   4.672   1.238   4.313  2.9978 -0.2714 -1.5365
  751MOL0     H 1324   4.456   1.080   4.378 -1.9693 -3.2489  0.2957
  751MOL0     H 1325   4.531   0.955   4.293  0.5904  0.2106  0.0730
  751MOL0     H 1326   4.450   1.228   4.180  0.9365  1.0861  1.1547
  751MOL0     H 1327   4.521   1.107   4.080 -2.0068  1.4440 -1.6061
  751MOL0     H 1328   4.261   1.071   4.227  2.0671  1.5368  1.2237
  751MOL0     H 1329   4.277   1.141   4.069  1.2449 -0.6094 -0.0667
  751MOL0     H 1330   4.383   0.931   3.977 -3.3355 -0.6016 -0.9879
  751MOL0     H 1331   4.383   0.862   4.138 -3.1667 -1.1689  1.6294
  751MOL0     H 1332   4.136   0.969   3.986  1.5929  0.7552  0.7165
  751MOL0     H 1333   4.139   0.878   4.135  2.6309 -0.5473 -0.1046
  751MOL0     H 1334   4.214   0.742   3.871  0.1704 -2.3346  0.2758
  751MOL0     H 1335   4.234   0.680   4.032  1.7391 -1.8118 -2.3437
  751MOL0     H 1336   4.054   0.504   3.906 -2.6683 -2.6442  1.9112
  751MOL0     H 1337   3.660   0.518   3.991 -1.3460  0.8028 -2.0438
  751MOL0     H 1338   3.733   0.496   3.839 -4.6114  1.4173  1.5495
  751MOL0     H 1339   3.713   0.264   3.999  0.1947 -0.0511  2.2360
  751MOL0     H 1340   3.863   0.304   3.916  0.1335  1.9884 -1.0895
  751MOL0     H 1341   3.876   0.209   4.155  1.3356 -0.3405  1.1723
  751MOL0     H 1342   3.791   0.345   4.222  2.6589 -0.8475  2.7697
  751MOL0     H 1343   3.991   0.371   4.295  2.0196  2.5142  0.4167
  751MOL0     H 1344   3.945   0.501   4.179  0.1991  0.0670  1.1593
  751MOL0     H 1345   4.140   0.497   4.331  0.5936 -0.3087  1.4804
  751MOL0     H 1346   4.347   0.614   4.383 -0.5907  0.9887 -1.0367
  751MOL0     H 1347   4.758   0.808   4.233 -0.5836 -2.7510  3.0759
  751MOL0     H 1348   4.970   0.913   4.220 -1.0357 -0.2973  4.0310
  751MOL0     H 1349   5.094   0.932   3.974  0.8494 -0.9906 -1.1188
  751MOL0     H 1350   5.159   1.006   4.126 -0.4033  1.5180 -1.8337
  751MOL0     H 1351   5.381   0.959   4.058 -1.6332  1.0540  2.6693
  751MOL0     H 1352   5.302   0.867   3.919 -1.4239  1.0718 -1.1131
  751MOL0     H 1353   5.430   1.051   3.852 -0.2825  1.9562 -2.8953
  751MOL0     H 1354   5.258   1.077   3.801 -0.2507  0.6962  0.1261
  751MOL0     H 1355   5.383   1.205   4.062  2.8176  0.8815 -0.8731
  751MOL0     H 1356   5.226   1.250   3.984  0.7134  0.6946  2.7509
  751MOL0     H 1357   5.379   1.347   3.789 -2.8266 -1.9055 -0.1648
  751MOL0     H 1358   5.514   1.282   3.889 -0.6844 -0.7752 -0.4074
  751MOL0     H 1359   5.429   1.544   3.887  3.9367 -3.1403 -2.5440
  751MOL0     H 1360   5.281   1.482   3.956 -0.0613  1.3535 -0.4031
  751MOL0     H 1361   5.394   1.440   4.169 -1.0010  0.9514  0.6358
  751MOL0     H 1362   5.439   1.605   4.101 -2.0266 -0.3333 -4.1154
  751MOL0     H 1363   5.651   1.491   4.178  1.4295 -0.2932 -0.3584
  751MOL0     H 1364   5.593   1.347   4.096 -4.6100 -0.0227  0.1915
  751MOL0     H 1365   5.141   0.540   4.106 -0.0299  1.6923  1.9749
  751MOL0     H 1366   4.916   0.427   4.120 -2.3012  0.6955  1.2477
  751MOL0     H 1367   4.522   0.437   4.025 -0.6586 -0.8293 -0.8356
  751MOL0     H 1368   4.287   0.344   3.967 -0.9407  0.0499  0.0395
  751MOL0     H 1369   4.523   1.196   4.752 -0.2977  0.3829 -0.0623
  751MOL0     H 1370   4.565   1.157   4.978 -0.8478  1.7718 -1.6186
  751MOL0     H 1371   4.617   0.982   5.435  0.4917  0.8879  2.1174
  751MOL0     H 1372   4.735   0.915   5.625 -2.0149  0.4940  0.3226
  751MOL0     H 1373   5.106   0.663   5.589  1.0770 -0.4398  0.4242
  751MOL0     H 1374   4.973   0.544   5.596 -0.2982 -0.1102 -0.5820
  751MOL0     H 1375   5.120   0.661   5.835 -2.7260  0.4017  2.9097
  751MOL0     H 1376   5.119   0.492   5.765  0.0950 -0.4245 -0.1387
  751MOL0     H 1377   4.887   0.624   5.892  3.5208  1.7801 -2.8369
  751MOL0     H 1378   5.004   0.518   5.979 -1.2108  1.5592  1.0801
  751MOL0     H 1379   4.869   0.400   5.730  0.3997  0.0079 -0.8188
  751MOL0     H 1380   4.937   0.325   5.873  2.1369  2.2927 -0.0768
  751MOL0     H 1381   4.543   0.405   5.970  0.0909 -1.0751  0.2042
  751MOL0     H 1382   4.962   0.629   5.382  1.3298  0.4609  2.0813
  751MOL0     H 1383   4.999   0.766   5.127  0.4516 -1.4692 -0.9090
  751MOL0     H 1384   4.928   0.606   5.155 -1.1046  0.0172 -0.6184
  751MOL0     H 1385   4.836   0.709   5.067 -1.2926 -0.2995  0.0352
  752MOL0     O 1386   5.269   4.572   4.369  0.1874  0.0765  0.8500
  752MOL0     C 1387   5.363   4.617   4.432 -0.2425 -0.4127  0.1797
  752MOL0     O 1388   5.395   4.583   4.558 -0.3798  0.0409 -0.9863
  752MOL0     C 1389   5.296   4.511   4.618  1.0070  0.7165  0.0609
  752MOL0     C 1390   5.192   4.587   4.679  0.1013 -0.3798 -0.7461
  752MOL0     C 1391   5.082   4.516   4.736  0.2686  0.2190  0.4939
  752MOL0     C 1392   5.070   4.374   4.723 -0.8509 -0.6266  0.0440
  752MOL0     O 1393   4.961   4.294   4.759  0.3414  0.1057 -0.2550
  752MOL0     C 1394   4.855   4.333   4.850 -0.1850 -0.8195  1.1234
  752MOL0     C 1395   4.739   4.231   4.828 -0.9955 -0.9225 -0.0148
  752MOL0     C 1396   4.650   4.266   4.717  0.9084 -0.5084  0.5979
  752MOL0     C 1397   4.713   4.301   4.584 -0.5558 -0.5245  0.5053
  752MOL0     C 1398   4.596   4.311   4.480 -0.9228 -0.6413 -0.0821
  752MOL0     C 1399   4.639   4.409   4.364  0.0718  0.4223  0.5051
  752MOL0     C 1400   4.779   4.362   4.308  0.4341  1.2719  0.2767
  752MOL0     C 1401   4.831   4.461   4.204 -0.1931  0.6054  0.4058
  752MOL0     N 1402   4.822   4.598   4.250  0.3327 -0.5091  0.4554
  752MOL0     C 1403   4.888   4.650   4.356  1.1986 -1.2727  0.7355
  752MOL0     C 1404   4.840   4.777   4.364 -0.5621 -0.3376  0.0415
  752MOL0     C 1405   4.891   4.869   4.470  0.9153  0.2556  0.4691
  752MOL0     C 1406   4.787   4.902   4.574  0.0940 -0.2761 -0.0026
  752MOL0     C 1407   4.834   5.011   4.677 -0.6695  0.0817  0.1154
  752MOL0     C 1408   4.972   5.072   4.674  0.0522  0.3451  0.0875
  752MOL0     O 1409   5.068   4.984   4.720 -0.1439 -0.8819  0.5571
  752MOL0     C 1410   5.197   5.020   4.723  0.1599 -0.0094  0.3638
  752MOL0     C 1411   5.254   5.124   4.639  0.0736 -0.3832  0.8563
  752MOL0     C 1412   5.389   5.144   4.653 -0.8853 -0.7246 -1.2022
  752MOL0     C 1413   5.464   5.085   4.753 -0.1193  0.3425  0.2383
  752MOL0     C 1414   5.595   5.142   4.798 -0.4588  0.4889  0.6588
  752MOL0     O 1415   5.630   5.144   4.930  0.4563 -0.9110 -0.4168
  752MOL0     C 1416   5.745   5.209   4.956 -1.2857 -0.2052  0.6812
  752MOL0     C 1417   5.771   5.346   4.946  0.0444 -0.3918  0.1290
  752MOL0     C 1418   5.899   5.405   4.974  0.1839  0.1071  0.9655
  752MOL0     C 1419   6.011   5.322   5.007  0.2396  1.2219  0.4080
  752MOL0     O 1420   6.138   5.364   5.026 -0.3234 -0.1148  0.2537
  752MOL0     C 1421   6.160   5.500   5.012 -0.3762 -0.5171 -0.8002
  752MOL0     C 1422   6.312   5.520   5.040  0.3164 -0.0986  0.1770
  752MOL0     C 1423   6.377   5.413   5.142 -1.0982 -0.1318  0.6771
  752MOL0     C 1424   6.535   5.426   5.143  0.3132  0.0851  0.3671
  752MOL0     C 1425   6.598   5.344   5.252  0.0822 -0.4495 -0.2698
  752MOL0     C 1426   6.752   5.388   5.279  0.8492 -0.0968  0.8885
  752MOL0     C 1427   6.828   5.274   5.351 -1.2456  0.4429 -0.1493
  752MOL0     C 1428   6.799   5.245   5.495 -0.5398  0.4220 -0.6405
  752MOL0    Cl 1429   6.823   5.400   5.600  0.0924 -0.0597  0.0724
  752MOL0     C 1430   5.978   5.191   5.043 -0.0877 -0.1392 -0.8712
  752MOL0     C 1431   5.852   5.134   5.020  0.2272  0.8668  0.2474
  752MOL0     O 1432   5.673   5.181   4.701 -0.1147  0.4036  0.6262
  752MOL0     C 1433   5.411   4.977   4.824  0.0492 -0.1654 -0.8686
  752MOL0     C 1434   5.281   4.941   4.816  0.2141  0.6346  0.0707
  752MOL0     N 1435   4.765   4.800   4.249  0.7762 -0.0856 -0.3934
  752MOL0     N 1436   4.756   4.683   4.181  0.0662 -0.6614 -0.6228
  752MOL0     C 1437   5.169   4.299   4.658  0.3334 -1.1647  0.1672
  752MOL0     C 1438   5.272   4.374   4.594 -0.3713  0.0479  0.9163
  752MOL0     C 1439   5.442   4.726   4.378 -1.0254  0.5284  0.7415
  752MOL0     C 1440   5.569   4.764   4.438  0.4484  0.6002 -0.6909
  752MOL0     C 1441   5.634   4.879   4.395 -0.0772  1.1645 -0.1504
  752MOL0     C 1442   5.600   4.938   4.270 -0.4768  0.7625 -0.1573
  752MOL0     O 1443   5.690   5.019   4.214 -0.2679  0.2376 -0.3174
  752MOL0     C 1444   5.706   5.139   4.286  0.9535  1.3471  0.2626
  752MOL0     C 1445   5.859   5.185   4.283  0.6497  0.0803  0.9736
  752MOL0     C 1446   5.869   5.300   4.387 -0.2786  0.2078 -0.2147
  752MOL0     C 1447   5.784   5.424   4.353 -0.6575 -0.8973 -0.0684
  752MOL0     C 1448   5.821   5.504   4.229 -0.5516  0.9148 -0.1080
  752MOL0     C 1449   5.863   5.560   4.134  0.0432 -1.1477 -0.2699
  752MOL0     C 1450   5.489   4.891   4.201 -0.2879  0.0275 -0.4281
  752MOL0     C 1451   5.406   4.798   4.256 -0.2099  0.8864 -0.2337
  752MOL0     C 1452   5.270   4.781   4.184 -0.9096  0.2220  0.0224
  752MOL0     H 1453   5.195   4.695   4.687 -0.4830 -0.2978 -1.5201
  752MOL0     H 1454   5.005   4.568   4.791  1.4872 -0.4724  2.9990
  752MOL0     H 1455   4.884   4.316   4.954 -0.6087 -1.8106  1.0947
  752MOL0     H 1456   4.815   4.433   4.832 -2.9837 -2.0637 -0.1533
  752MOL0     H 1457   4.673   4.250   4.914  2.6822  3.4068  2.2226
  752MOL0     H 1458   4.764   4.125   4.815  1.6202 -0.6379  1.9978
  752MOL0     H 1459   4.584   4.347   4.748 -1.1857 -2.4435  1.4245
  752MOL0     H 1460   4.586   4.182   4.691  1.6689  0.1914 -4.6099
  752MOL0     H 1461   4.757   4.400   4.602 -0.4883 -0.7489  1.6755
  752MOL0     H 1462   4.787   4.223   4.566 -0.8226 -1.0419  1.5550
  752MOL0     H 1463   4.582   4.215   4.430 -2.5819 -0.3994 -0.1148
  752MOL0     H 1464   4.507   4.349   4.530 -0.9652  0.9501 -1.3005
  752MOL0     H 1465   4.565   4.410   4.284  3.7324 -1.2490 -3.2954
  752MOL0     H 1466   4.647   4.510   4.404  2.0229  1.4055 -2.0855
  752MOL0     H 1467   4.771   4.255   4.288 -2.0431  1.1750  1.3675
  752MOL0     H 1468   4.854   4.368   4.387  2.4369  3.2798 -1.6494
  752MOL0     H 1469   4.938   4.445   4.188 -0.6977 -2.7357 -0.2796
  752MOL0     H 1470   4.780   4.442   4.109 -1.9426 -0.9133  1.5875
  752MOL0     H 1471   4.937   4.594   4.436 -1.6149  0.1313  3.6844
  752MOL0     H 1472   4.969   4.820   4.529  1.5967 -1.1050 -1.4493
  752MOL0     H 1473   4.928   4.963   4.428  1.4955  1.1934  2.9088
  752MOL0     H 1474   4.695   4.942   4.531 -0.1140 -0.8681 -0.1198
  752MOL0     H 1475   4.753   4.810   4.621  2.5443 -0.8467  0.7778
  752MOL0     H 1476   4.824   4.954   4.770 -1.8001 -0.6576 -0.4351
  752MOL0     H 1477   4.759   5.091   4.680  1.1479  1.8258  1.6792
  752MOL0     H 1478   4.986   5.166   4.729  2.2260  0.7424 -1.0254
  752MOL0     H 1479   4.993   5.096   4.570 -2.5315 -0.3558 -0.6657
  752MOL0     H 1480   5.198   5.177   4.563  3.3387  1.6311 -0.3705
  752MOL0     H 1481   5.420   5.231   4.596 -1.4789  1.6039  1.7721
  752MOL0     H 1482   5.698   5.419   4.912  1.1765  0.2028 -1.1194
  752MOL0     H 1483   5.922   5.510   4.959 -2.8501  1.0327  2.1645
  752MOL0     H 1484   6.137   5.539   4.913  0.3196  0.8343 -0.4578
  752MOL0     H 1485   6.097   5.557   5.081 -1.6597 -0.9758 -1.5629
  752MOL0     H 1486   6.360   5.516   4.941 -0.8898 -0.5089 -0.4166
  752MOL0     H 1487   6.339   5.617   5.082  1.9769 -1.2249  1.8275
  752MOL0     H 1488   6.337   5.427   5.243 -2.2488  0.1911  0.1953
  752MOL0     H 1489   6.363   5.305   5.128 -0.6813 -0.2938  1.4667
  752MOL0     H 1490   6.558   5.532   5.156  0.3643  0.4833 -2.5139
  752MOL0     H 1491   6.582   5.404   5.047  0.1318 -5.1805  1.1931
  752MOL0     H 1492   6.584   5.238   5.228 -0.6668 -0.3180 -0.4221
  752MOL0     H 1493   6.556   5.371   5.349  0.3447  0.7776 -0.4815
  752MOL0     H 1494   6.798   5.394   5.180  0.5269 -3.1014  0.4449
  752MOL0     H 1495   6.762   5.487   5.324  0.2511  0.9701 -1.2098
  752MOL0     H 1496   6.935   5.295   5.357 -1.9881  4.8351  3.7799
  752MOL0     H 1497   6.815   5.185   5.290  0.1873 -0.9236  1.4516
  752MOL0     H 1498   6.706   5.198   5.529  0.8543 -0.6083  2.1439
  752MOL0     H 1499   6.874   5.182   5.544 -0.0864  1.8127  0.5173
  752MOL0     H 1500   6.062   5.129   5.073  0.0114  0.3501 -0.1160
  752MOL0     H 1501   5.837   5.027   5.032 -0.0769  0.9494  0.6281
  752MOL0     H 1502   5.479   4.922   4.889 -2.2580 -1.7258  0.3755
  752MOL0     H 1503   5.240   4.864   4.880  3.6155 -0.7463  0.7544
  752MOL0     H 1504   5.163   4.193   4.638 -3.1001 -0.7246 -1.8392
  752MOL0     H 1505   5.354   4.339   4.533 -0.3356  0.6136  0.6333
  752MOL0     H 1506   5.602   4.704   4.523 -0.2781  0.1459 -0.7189
  752MOL0     H 1507   5.725   4.913   4.443  0.7184  2.0997 -2.2077
  752MOL0     H 1508   5.668   5.123   4.387 -1.6906 -0.4798 -0.9060
  752MOL0     H 1509   5.649   5.225   4.249  0.3142  0.2285 -1.4681
  752MOL0     H 1510   5.882   5.235   4.188 -2.4135  1.6520  0.9299
  752MOL0     H 1511   5.936   5.107   4.287  2.0570  1.0845 -2.3097
  752MOL0     H 1512   5.974   5.328   4.395  0.2926 -1.6772 -0.6186
  752MOL0     H 1513   5.830   5.265   4.483  0.6563  0.1630  0.1557
  752MOL0     H 1514   5.678   5.400   4.349 -1.3976  2.1012 -1.2151
  752MOL0     H 1515   5.808   5.477   4.446  0.1978  1.0326 -1.3218
  752MOL0     H 1516   5.884   5.605   4.039 -4.1491  1.5904 -0.1584
  752MOL0     H 1517   5.471   4.931   4.101 -0.8344  1.4058  0.2016
  752MOL0     H 1518   5.263   4.680   4.143  2.9279  0.5490 -1.8296
  752MOL0     H 1519   5.184   4.797   4.250 -0.8550 -0.4459  0.2639
  752MOL0     H 1520   5.273   4.861   4.110  0.6260 -0.9994 -1.2965
  753MOL0     O 1521   1.720  10.225   4.307  0.1364  0.0131 -0.4471
  753MOL0     C 1522   1.634  10.132   4.306 -0.4651 -0.2672 -0.3365
  753MOL0     O 1523   1.512  10.140   4.251  0.1929  0.2828 -0.0215
  753MOL0     C 1524   1.477  10.259   4.194  0.1925  0.3220 -0.5335
  753MOL0     C 1525   1.446  10.376   4.270 -0.0536  0.6612  0.7174
  753MOL0     C 1526   1.405  10.491   4.199  0.0492 -0.5725 -0.5093
  753MOL0     C 1527   1.389  10.484   4.061 -0.9326 -0.8915  0.9661
  753MOL0     O 1528   1.359  10.599   3.989  0.1530 -0.4132 -0.3258
  753MOL0     C 1529   1.239  10.593   3.908 -0.1574 -0.8905 -0.1290
  753MOL0     C 1530   1.276  10.557   3.761 -0.9978 -0.3850 -1.0541
  753MOL0     C 1531   1.252  10.676   3.663 -1.0411 -0.6316 -1.0571
  753MOL0     C 1532   1.366  10.780   3.661 -0.5448  0.3361 -0.0382
  753MOL0     C 1533   1.332  10.907   3.598  0.5660 -1.2152 -0.7160
  753MOL0     C 1534   1.316  10.888   3.453  0.8023  0.0822  0.0382
  753MOL0     C 1535   1.266  11.024   3.404  0.3097  0.2849 -0.1729
  753MOL0     C 1536   1.214  11.005   3.256 -0.1735 -0.8292 -0.6655
  753MOL0     N 1537   1.156  11.132   3.216 -0.5443 -0.2547  0.4091
  753MOL0     C 1538   1.227  11.246   3.193  0.3110 -0.1185 -0.4007
  753MOL0     C 1539   1.139  11.331   3.141 -0.0394  0.0661  0.2489
  753MOL0     C 1540   1.172  11.479   3.102 -0.7925  0.5995 -0.0452
  753MOL0     C 1541   1.315  11.519   3.110 -0.3231  0.5542  0.2474
  753MOL0     C 1542   1.328  11.650   3.027 -0.7363  0.1354 -0.7471
  753MOL0     C 1543   1.472  11.704   3.023 -0.2628 -0.2773  0.8069
  753MOL0     O 1544   1.507  11.721   3.155  0.0092  0.3835 -0.9964
  753MOL0     C 1545   1.618  11.804   3.186  0.2045 -0.1480 -0.2926
  753MOL0     C 1546   1.631  11.835   3.322 -0.6282  1.5559 -0.1749
  753MOL0     C 1547   1.740  11.915   3.368  0.2135  0.4253 -0.0540
  753MOL0     C 1548   1.826  11.976   3.275  0.1728 -0.7845 -0.7755
  753MOL0     C 1549   1.921  12.073   3.330  0.3150 -0.2826  0.1213
  753MOL0     O 1550   1.974  12.046   3.453  0.4090 -0.2347 -0.0159
  753MOL0     C 1551   2.051  12.138   3.510 -1.1654  0.5806 -0.5709
  753MOL0     C 1552   2.185  12.150   3.458 -0.0881 -0.1726  0.5726
  753MOL0     C 1553   2.258  12.265   3.499  0.6911  0.6788 -0.8701
  753MOL0     C 1554   2.217  12.335   3.614  0.5525  0.9659 -0.2520
  753MOL0     O 1555   2.298  12.436   3.655  0.1461  0.1909 -0.4314
  753MOL0     C 1556   2.308  12.563   3.587 -0.8581  0.9601  0.1971
  753MOL0     C 1557   2.333  12.664   3.696  0.4358  0.1405  0.0073
  753MOL0     C 1558   2.385  12.803   3.639 -0.6175 -0.6620 -1.3053
  753MOL0     C 1559   2.523  12.783   3.577 -0.1770 -0.6980 -0.2528
  753MOL0     C 1560   2.557  12.906   3.494 -1.4718  0.4293 -0.0042
  753MOL0     C 1561   2.705  12.894   3.444 -0.6900  0.5768  1.0105
  753MOL0     C 1562   2.743  13.011   3.357  0.6000 -0.0455  0.4867
  753MOL0     C 1563   2.860  12.988   3.264  0.3440 -0.6496 -0.5271
  753MOL0    Cl 1564   2.798  12.877   3.131 -0.3092 -0.0155 -0.1263
  753MOL0     C 1565   2.095  12.300   3.685  0.2319 -0.5339  0.5342
  753MOL0     C 1566   2.018  12.207   3.619  0.7792 -0.3621 -1.1085
  753MOL0     O 1567   1.937  12.168   3.259  0.4095  0.3445 -0.3083
  753MOL0     C 1568   1.801  11.953   3.134 -0.8324  1.0404 -0.2061
  753MOL0     C 1569   1.709  11.855   3.092  0.4111 -0.4937  0.1356
  753MOL0     N 1570   1.024  11.261   3.122 -0.6280  0.0871 -0.1450
  753MOL0     N 1571   1.032  11.142   3.175  0.3240  0.1708 -0.1083
  753MOL0     C 1572   1.408  10.364   3.991  0.3330  0.6850  0.0287
  753MOL0     C 1573   1.451  10.251   4.056 -0.7568 -0.0952  0.3123
  753MOL0     C 1574   1.665  10.012   4.396  0.9231  1.1148  0.8593
  753MOL0     C 1575   1.570   9.909   4.393  0.2686 -0.4801  0.3515
  753MOL0     C 1576   1.584   9.785   4.453 -0.3070  0.0692 -0.8572
  753MOL0     C 1577   1.693   9.756   4.532  0.7341  0.4829 -0.7297
  753MOL0     O 1578   1.705   9.630   4.593 -0.6091  0.6899 -0.1539
  753MOL0     C 1579   1.825   9.595   4.677  0.8563 -0.3552  0.8498
  753MOL0     C 1580   1.948   9.570   4.597  0.3503 -0.7608  0.1217
  753MOL0     C 1581   2.078   9.519   4.676 -0.1885 -0.8139 -0.5614
  753MOL0     C 1582   2.200   9.505   4.587  0.2490 -0.0876  0.6545
  753MOL0     C 1583   2.305   9.416   4.638 -0.3696  0.7502  0.3663
  753MOL0     C 1584   2.382   9.337   4.680  0.5776  0.4252  0.3872
  753MOL0     C 1585   1.782   9.859   4.550 -0.3050  0.3119 -0.6563
  753MOL0     C 1586   1.779   9.984   4.480 -0.7137  0.1572 -0.3460
  753MOL0     C 1587   1.885  10.092   4.525 -0.4565 -0.1822  0.2863
  753MOL0     H 1588   1.465  10.373   4.376 -0.8025 -2.8350  0.8446
  753MOL0     H 1589   1.387  10.586   4.249 -2.5391 -1.8831  1.3122
  753MOL0     H 1590   1.164  10.521   3.944  0.4904 -1.6016 -0.1821
  753MOL0     H 1591   1.199  10.695   3.911  2.7715  0.4167 -1.2703
  753MOL0     H 1592   1.214  10.475   3.723 -1.3354 -1.6569  1.9292
  753MOL0     H 1593   1.383  10.533   3.758 -0.5499  0.9005  1.6083
  753MOL0     H 1594   1.157  10.725   3.687  0.2049  1.1239  0.6305
  753MOL0     H 1595   1.248  10.640   3.559  0.2794 -0.9032 -1.0302
  753MOL0     H 1596   1.400  10.802   3.763 -0.8307 -0.3818  0.2147
  753MOL0     H 1597   1.449  10.729   3.612  0.2039  1.3999  0.0717
  753MOL0     H 1598   1.236  10.946   3.632  2.0308  0.5423  1.6994
  753MOL0     H 1599   1.411  10.978   3.620  1.7411 -2.1819 -1.6578
  753MOL0     H 1600   1.420  10.872   3.423  0.2497  0.6986 -2.4228
  753MOL0     H 1601   1.243  10.809   3.432  0.4625 -0.4386  2.7301
  753MOL0     H 1602   1.345  11.099   3.403 -0.4561  1.2044  1.8786
  753MOL0     H 1603   1.193  11.072   3.470  1.1367 -3.3512  3.7739
  753MOL0     H 1604   1.298  10.974   3.192  0.4446 -1.1597  0.2948
  753MOL0     H 1605   1.141  10.923   3.254  0.9479 -1.8701 -0.0560
  753MOL0     H 1606   1.332  11.259   3.215  0.6410 -3.7439  0.7153
  753MOL0     H 1607   1.135  11.491   2.999 -3.8088  0.0241  0.8484
  753MOL0     H 1608   1.105  11.544   3.159 -1.0617 -0.2778  0.6689
  753MOL0     H 1609   1.348  11.526   3.214  0.0489  2.7286  0.0288
  753MOL0     H 1610   1.371  11.442   3.055  1.9821  3.1637 -1.3690
  753MOL0     H 1611   1.263  11.722   3.077  0.1776 -0.1993  1.0043
  753MOL0     H 1612   1.298  11.628   2.924  4.4425 -3.5662 -1.8666
  753MOL0     H 1613   1.467  11.803   2.977  0.8941 -0.8549 -0.6607
  753MOL0     H 1614   1.528  11.627   2.968 -0.9600 -1.9953  2.3992
  753MOL0     H 1615   1.550  11.809   3.390 -0.7572  0.2184 -0.8171
  753MOL0     H 1616   1.752  11.940   3.473 -0.5615 -1.1880  0.4502
  753MOL0     H 1617   2.217  12.092   3.372 -1.1747  2.5318 -1.8187
  753MOL0     H 1618   2.357  12.274   3.454  1.2730  1.0026  0.4105
  753MOL0     H 1619   2.389  12.571   3.514 -0.5966  0.6523  0.4509
  753MOL0     H 1620   2.218  12.586   3.529 -1.3716  0.6051  0.8407
  753MOL0     H 1621   2.239  12.680   3.750  0.2010 -2.9214  0.6913
  753MOL0     H 1622   2.397  12.620   3.773 -3.1471 -1.3599  2.4137
  753MOL0     H 1623   2.306  12.834   3.570 -1.6958 -0.6699 -0.0976
  753MOL0     H 1624   2.395  12.867   3.727  2.3316 -2.9884  0.2484
  753MOL0     H 1625   2.535  12.693   3.517 -0.3029 -0.6045 -0.4183
  753MOL0     H 1626   2.594  12.787   3.660 -1.1636  2.2616  0.5704
  753MOL0     H 1627   2.556  13.001   3.549  1.8873  1.8039 -2.0223
  753MOL0     H 1628   2.493  12.913   3.405  0.7314  0.8826 -1.6261
  753MOL0     H 1629   2.774  12.885   3.529  0.7864  0.6570 -0.1275
  753MOL0     H 1630   2.708  12.797   3.393 -1.1135  0.3482  1.4091
  753MOL0     H 1631   2.772  13.100   3.415  1.4151  0.0525 -0.0534
  753MOL0     H 1632   2.650  13.051   3.317  1.2585  2.2813  1.0900
  753MOL0     H 1633   2.879  13.089   3.228  0.4910 -0.4921 -0.0099
  753MOL0     H 1634   2.946  12.937   3.309  0.3418 -2.3150 -2.2815
  753MOL0     H 1635   2.052  12.361   3.764 -3.4403 -1.0346 -0.8823
  753MOL0     H 1636   1.926  12.170   3.663  2.1941 -5.1666 -1.6322
  753MOL0     H 1637   1.868  12.008   3.068  0.8280 -0.6671 -0.0151
  753MOL0     H 1638   1.704  11.839   2.985  1.0339  0.5078 -0.0519
  753MOL0     H 1639   1.384  10.347   3.886  1.9310 -2.1326  0.0236
  753MOL0     H 1640   1.469  10.153   4.013 -1.4885 -0.3594  0.5888
  753MOL0     H 1641   1.482   9.927   4.332  0.8650 -0.4366 -0.5245
  753MOL0     H 1642   1.505   9.712   4.438  2.0991 -3.1652  0.9977
  753MOL0     H 1643   1.805   9.501   4.729 -4.2837 -0.7894 -1.2673
  753MOL0     H 1644   1.842   9.677   4.747  0.7830  1.4353 -1.1206
  753MOL0     H 1645   1.969   9.653   4.530 -0.8232 -0.4290  0.1460
  753MOL0     H 1646   1.909   9.493   4.529 -0.0746  1.2813 -2.0713
  753MOL0     H 1647   2.056   9.419   4.714  1.6688 -2.3262 -3.1038
  753MOL0     H 1648   2.110   9.576   4.764  1.6398 -0.1368 -1.6116
  753MOL0     H 1649   2.162   9.460   4.495 -1.8974  0.5691  1.1603
  753MOL0     H 1650   2.247   9.604   4.578  0.2675  0.0497  2.0440
  753MOL0     H 1651   2.454   9.268   4.718  2.1301  0.6209 -1.9912
  753MOL0     H 1652   1.863   9.839   4.619 -1.0737  0.3767  0.2790
  753MOL0     H 1653   1.866  10.198   4.506  1.5144  0.4564  1.5961
  753MOL0     H 1654   1.906  10.074   4.630  0.0699 -0.9761  0.0572
  753MOL0     H 1655   1.971  10.061   4.465 -1.3875 -0.4106 -0.9884
  754MOL0     O 1656   1.791   0.570   4.895  0.1015  0.3486  0.2198
  754MOL0     C 1657   1.806   0.688   4.854  0.0275  0.4574  0.2848
  754MOL0     O 1658   1.861   0.798   4.926  0.1748  0.9040 -0.0540
  754MOL0     C 1659   1.870   0.777   5.062  0.1252 -0.1154  0.7348
  754MOL0     C 1660   1.976   0.709   5.120  0.0967  0.7828 -0.3595
  754MOL0     C 1661   1.977   0.687   5.259  0.2332 -0.1853  0.1028
  754MOL0     C 1662   1.886   0.741   5.346 -0.6043 -1.0952  0.3011
  754MOL0     O 1663   1.893   0.732   5.476  0.5421  0.4644 -0.4148
  754MOL0     C 1664   1.988   0.645   5.535  0.1162 -0.8388  0.7089
  754MOL0     C 1665   1.991   0.676   5.692 -0.7108 -1.4712  0.0481
  754MOL0     C 1666   2.058   0.562   5.760 -0.0107 -1.3015 -0.5896
  754MOL0     C 1667   2.076   0.613   5.905  0.0660 -0.0304  0.3885
  754MOL0     C 1668   2.106   0.496   6.014 -0.0530 -0.0009  0.8263
  754MOL0     C 1669   1.978   0.416   6.045  0.5738  0.2104 -0.0199
  754MOL0     C 1670   1.982   0.356   6.183  0.4946 -0.4028  0.3932
  754MOL0     C 1671   2.078   0.239   6.198  0.6548  0.2306  0.3156
  754MOL0     N 1672   2.070   0.137   6.103  0.7940 -0.2591  0.3297
  754MOL0     C 1673   1.961   0.063   6.065  0.8305 -0.3468  0.0652
  754MOL0     C 1674   2.005  -0.023   5.970  0.3480 -0.9272  0.2544
  754MOL0     C 1675   1.939  -0.128   5.898 -0.4388  0.2592 -0.1353
  754MOL0     C 1676   1.910  -0.249   5.988 -0.7352 -0.2070  0.3023
  754MOL0     C 1677   1.821  -0.353   5.918  0.2763 -0.5193 -0.0953
  754MOL0     C 1678   1.890  -0.406   5.794  0.2032  0.6921 -0.0133
  754MOL0     O 1679   2.002  -0.483   5.838  0.3230 -0.1222 -0.2018
  754MOL0     C 1680   2.123  -0.442   5.778 -0.0461  0.6301  0.5750
  754MOL0     C 1681   2.222  -0.382   5.856 -0.4514  0.6179 -0.1553
  754MOL0     C 1682   2.337  -0.339   5.787  0.2149 -0.2351 -0.8795
  754MOL0     C 1683   2.349  -0.362   5.652 -0.0494 -0.2306 -0.2402
  754MOL0     C 1684   2.475  -0.306   5.591  0.2426  0.0163 -0.0932
  754MOL0     O 1685   2.513  -0.362   5.471 -0.4314 -0.3657 -0.0490
  754MOL0     C 1686   2.638  -0.349   5.418  0.1895 -0.3368 -0.3317
  754MOL0     C 1687   2.753  -0.332   5.484 -0.3400  0.1355  0.1055
  754MOL0     C 1688   2.875  -0.351   5.412 -0.1026  0.1200  0.3171
  754MOL0     C 1689   2.881  -0.383   5.277  0.3950 -0.4148 -0.1165
  754MOL0     O 1690   3.002  -0.411   5.221  0.2728 -0.6439  0.2187
  754MOL0     C 1691   3.040  -0.333   5.104 -0.2921  0.4658 -0.1638
  754MOL0     C 1692   3.191  -0.369   5.075  0.6016 -0.1172 -0.9621
  754MOL0     C 1693   3.204  -0.523   5.024 -0.3301 -0.1628 -0.5402
  754MOL0     C 1694   3.342  -0.580   5.049 -0.6475 -0.9017  0.0957
  754MOL0     C 1695   3.459  -0.496   4.983  0.1636  0.5850 -0.1476
  754MOL0     C 1696   3.445  -0.503   4.825 -0.0250 -0.4987 -0.1923
  754MOL0     C 1697   3.568  -0.427   4.764 -0.0744  0.9608  0.0789
  754MOL0     C 1698   3.595  -0.456   4.617  0.6863 -0.1698 -0.3023
  754MOL0    Cl 1699   3.643  -0.624   4.567  0.0741  0.1875 -0.1182
  754MOL0     C 1700   2.766  -0.400   5.205  0.3663 -0.3287 -0.2700
  754MOL0     C 1701   2.645  -0.387   5.283  0.1918  0.7338  0.7795
  754MOL0     O 1702   2.547  -0.228   5.653 -0.1611  0.4451 -0.0915
  754MOL0     C 1703   2.242  -0.412   5.576 -0.9760 -0.1891 -0.7936
  754MOL0     C 1704   2.124  -0.453   5.641  0.2727 -0.1768 -0.5496
  754MOL0     N 1705   2.138   0.010   5.942 -0.4039  0.8029  0.8275
  754MOL0     N 1706   2.173   0.101   6.014  0.1793 -0.6526  0.0619
  754MOL0     C 1707   1.777   0.800   5.281 -0.0199 -0.1557 -0.1441
  754MOL0     C 1708   1.768   0.829   5.148  0.4016 -0.0807 -0.4269
  754MOL0     C 1709   1.752   0.719   4.725  0.0150  0.3985 -0.1150
  754MOL0     C 1710   1.792   0.639   4.621 -0.3526  0.0378  0.2628
  754MOL0     C 1711   1.729   0.647   4.501  0.3682 -0.8452  0.4774
  754MOL0     C 1712   1.629   0.738   4.480 -0.3276 -0.1838  1.3890
  754MOL0     O 1713   1.540   0.732   4.366  0.7994 -0.5172 -0.1512
  754MOL0     C 1714   1.549   0.620   4.275  0.1927  0.5764 -0.6035
  754MOL0     C 1715   1.573   0.668   4.137 -0.6862 -0.7829 -0.7051
  754MOL0     C 1716   1.721   0.679   4.101  0.0550  0.0862  0.4659
  754MOL0     C 1717   1.737   0.625   3.966 -0.1540 -0.6042 -0.0767
  754MOL0     C 1718   1.867   0.562   3.943 -1.0036  0.3923  0.8960
  754MOL0     C 1719   1.978   0.512   3.940  0.2351 -0.1519  0.3385
  754MOL0     C 1720   1.586   0.821   4.583 -0.1635 -0.0730  0.9921
  754MOL0     C 1721   1.649   0.810   4.705  0.5245 -0.8260  0.7097
  754MOL0     C 1722   1.589   0.890   4.815 -0.3900 -0.1420 -0.9240
  754MOL0     H 1723   2.063   0.677   5.063  3.6226  2.5005  3.5096
  754MOL0     H 1724   2.052   0.615   5.290 -1.0747 -0.0211  4.1462
  754MOL0     H 1725   1.950   0.544   5.520 -4.6705  0.9076 -0.6413
  754MOL0     H 1726   2.089   0.643   5.494  0.5440  2.4540  1.3668
  754MOL0     H 1727   1.896   0.709   5.736  0.1090  1.4084 -0.1814
  754MOL0     H 1728   2.054   0.764   5.705  1.9337 -3.1672 -0.6152
  754MOL0     H 1729   2.150   0.539   5.704 -1.1314  0.2828 -3.2673
  754MOL0     H 1730   1.995   0.474   5.746  1.6007 -2.1997 -2.7812
  754MOL0     H 1731   2.148   0.696   5.901 -0.0084 -0.0111 -0.9556
  754MOL0     H 1732   1.990   0.671   5.941  0.9877 -0.2216  3.1799
  754MOL0     H 1733   2.197   0.440   5.990  1.0756  2.4671 -1.1860
  754MOL0     H 1734   2.131   0.547   6.107 -0.7964 -1.6270  1.9602
  754MOL0     H 1735   1.886   0.476   6.042 -0.4949 -1.2883  1.1352
  754MOL0     H 1736   1.967   0.346   5.962  2.9421 -0.5614  0.2426
  754MOL0     H 1737   1.878   0.331   6.204 -1.2859  0.7295 -5.3672
  754MOL0     H 1738   2.008   0.434   6.255 -1.3401  1.0011 -0.3807
  754MOL0     H 1739   2.180   0.277   6.204  0.2178  1.8281 -1.4336
  754MOL0     H 1740   2.061   0.190   6.295  0.7059  1.2252  0.8363
  754MOL0     H 1741   1.859   0.066   6.101  0.6066  0.8521 -0.6315
  754MOL0     H 1742   1.857  -0.094   5.834  0.2240  4.1415  0.7762
  754MOL0     H 1743   2.017  -0.162   5.830  1.0545 -4.1731  3.3362
  754MOL0     H 1744   2.001  -0.302   6.019 -0.5977 -0.6570 -0.8158
  754MOL0     H 1745   1.860  -0.205   6.075 -0.0483  3.3985 -0.9732
  754MOL0     H 1746   1.722  -0.312   5.897 -0.8054 -2.5287  0.8980
  754MOL0     H 1747   1.800  -0.429   5.993 -1.5169 -0.7167 -0.7533
  754MOL0     H 1748   1.907  -0.326   5.721  1.7167 -0.7685 -1.3599
  754MOL0     H 1749   1.826  -0.477   5.741  0.2910  0.4787  0.1646
  754MOL0     H 1750   2.212  -0.381   5.964 -3.2417  1.3500 -0.3379
  754MOL0     H 1751   2.419  -0.296   5.843 -0.3437 -0.1500 -0.1268
  754MOL0     H 1752   2.760  -0.299   5.587  2.7673  1.5758 -0.4557
  754MOL0     H 1753   2.974  -0.330   5.451  0.5114  0.2852 -1.2345
  754MOL0     H 1754   2.991  -0.354   5.009 -1.6754  0.1293  0.5981
  754MOL0     H 1755   3.014  -0.228   5.124 -3.3218  0.0420 -1.2886
  754MOL0     H 1756   3.228  -0.303   4.995  3.5508  2.2947  2.0767
  754MOL0     H 1757   3.244  -0.350   5.169 -3.0086  0.9935  1.0524
  754MOL0     H 1758   3.137  -0.585   5.084 -1.7808  0.5952 -1.3251
  754MOL0     H 1759   3.165  -0.523   4.921  1.1047 -1.9585 -1.1478
  754MOL0     H 1760   3.363  -0.681   5.012  0.1211 -0.5327 -0.5086
  754MOL0     H 1761   3.342  -0.572   5.158 -0.5931 -0.1415  0.0441
  754MOL0     H 1762   3.557  -0.527   5.021 -0.2829  1.8100  2.2056
  754MOL0     H 1763   3.447  -0.388   4.994 -1.3617  0.7057 -2.3368
  754MOL0     H 1764   3.459  -0.606   4.790  2.5902 -0.2153 -0.1478
  754MOL0     H 1765   3.353  -0.460   4.783  1.7541  4.1761  0.1564
  754MOL0     H 1766   3.652  -0.448   4.831 -0.7331 -1.2754  0.2778
  754MOL0     H 1767   3.555  -0.319   4.772  0.7733  1.0851 -0.0472
  754MOL0     H 1768   3.505  -0.435   4.560  1.0150 -1.1008 -1.1884
  754MOL0     H 1769   3.678  -0.391   4.587  1.5210 -1.2149 -0.3413
  754MOL0     H 1770   2.772  -0.428   5.100  1.0075  0.5292 -0.4678
  754MOL0     H 1771   2.552  -0.412   5.233  1.2115  1.6391 -1.7778
  754MOL0     H 1772   2.260  -0.406   5.469 -1.4327  2.6294 -0.7797
  754MOL0     H 1773   2.032  -0.470   5.586  0.5427 -0.1651 -1.0116
  754MOL0     H 1774   1.703   0.847   5.346 -0.3506  1.9353 -1.9251
  754MOL0     H 1775   1.683   0.880   5.103  1.4678  0.9402 -1.3373
  754MOL0     H 1776   1.860   0.556   4.634 -0.3997 -0.2427 -1.1563
  754MOL0     H 1777   1.762   0.577   4.424  0.3175 -2.2584  1.6963
  754MOL0     H 1778   1.455   0.566   4.285  1.0231 -0.7407  0.5341
  754MOL0     H 1779   1.617   0.538   4.300  0.8757  1.7763  1.8079
  754MOL0     H 1780   1.535   0.770   4.134 -1.1987 -0.9447  0.0852
  754MOL0     H 1781   1.506   0.615   4.069 -1.8940  2.1397 -1.9577
  754MOL0     H 1782   1.790   0.624   4.166  1.6999  1.9950  0.4276
  754MOL0     H 1783   1.748   0.785   4.097 -0.9752  0.3319 -2.2609
  754MOL0     H 1784   1.674   0.537   3.949 -1.5969  0.3677  0.0848
  754MOL0     H 1785   1.709   0.706   3.899  2.3220 -0.5937 -1.2293
  754MOL0     H 1786   2.075   0.477   3.911  0.0148 -0.2440 -0.3169
  754MOL0     H 1787   1.520   0.900   4.551  0.1291 -0.5256 -0.8908
  754MOL0     H 1788   1.499   0.948   4.794 -1.0805  0.7947  3.5811
  754MOL0     H 1789   1.561   0.825   4.898  3.2513  0.2320  0.8172
  754MOL0     H 1790   1.667   0.963   4.840  0.9846 -0.8863 -2.7570
  755MOL0     O 1791   8.584   6.530   3.788 -0.7704  0.8938 -0.4077
  755MOL0     C 1792   8.635   6.613   3.854 -1.1017  0.7716 -0.3706
  755MOL0     O 1793   8.725   6.700   3.805  0.1672  0.2974  0.3749
  755MOL0     C 1794   8.750   6.710   3.670  1.4474 -0.2985  0.7771
  755MOL0     C 1795   8.643   6.708   3.573 -1.1687 -0.9401 -0.3142
  755MOL0     C 1796   8.666   6.732   3.434 -0.0118  0.8815 -0.1361
  755MOL0     C 1797   8.802   6.748   3.396  0.2909 -0.1025  0.5519
  755MOL0     O 1798   8.820   6.771   3.265  0.3408 -0.7095 -0.1071
  755MOL0     C 1799   8.933   6.735   3.185  0.2301 -0.0231  0.9703
  755MOL0     C 1800   8.914   6.580   3.137  0.2977 -0.4665 -0.5194
  755MOL0     C 1801   8.939   6.553   2.988 -0.1974 -0.1482  0.0906
  755MOL0     C 1802   8.843   6.442   2.939  0.2370  0.2984 -0.7613
  755MOL0     C 1803   8.869   6.371   2.804  0.4854 -1.0572 -0.8752
  755MOL0     C 1804   8.771   6.246   2.782 -0.6093 -0.0670  0.6849
  755MOL0     C 1805   8.791   6.200   2.640 -0.2804 -0.5368 -0.5012
  755MOL0     C 1806   8.690   6.083   2.630  0.4275 -0.0557  0.1875
  755MOL0     N 1807   8.683   6.050   2.482  0.3929 -0.4046 -0.5994
  755MOL0     C 1808   8.779   5.987   2.396 -0.2821  0.0500 -0.6767
  755MOL0     C 1809   8.726   5.999   2.273  0.4141  0.6550  1.2147
  755MOL0     C 1810   8.804   5.984   2.140 -0.0439 -0.0810  0.0940
  755MOL0     C 1811   8.919   6.087   2.118  0.3644  0.5505  0.5149
  755MOL0     C 1812   8.860   6.234   2.111 -0.1808  1.3381 -0.8637
  755MOL0     C 1813   8.892   6.309   2.244 -0.7236 -0.2414 -1.2511
  755MOL0     O 1814   9.040   6.325   2.265  0.2149  0.3104  0.7089
  755MOL0     C 1815   9.087   6.362   2.388  0.7070 -0.7857  0.7813
  755MOL0     C 1816   9.204   6.307   2.435 -0.2096  1.0408 -0.1075
  755MOL0     C 1817   9.261   6.341   2.556 -0.9068 -0.4555 -0.7891
  755MOL0     C 1818   9.198   6.440   2.629 -0.7569  0.8043  0.1527
  755MOL0     C 1819   9.266   6.484   2.747 -0.7199  0.4921 -0.5486
  755MOL0     O 1820   9.245   6.620   2.785  0.2114 -0.0048 -0.2845
  755MOL0     C 1821   9.306   6.668   2.891 -0.6113 -0.0222 -1.0537
  755MOL0     C 1822   9.378   6.793   2.880  0.5081  0.7809 -0.0048
  755MOL0     C 1823   9.449   6.847   2.988 -0.0741  0.4136 -0.1864
  755MOL0     C 1824   9.452   6.773   3.109  0.1176 -0.8686 -0.2357
  755MOL0     O 1825   9.515   6.856   3.206  0.4616  1.1399  0.2898
  755MOL0     C 1826   9.490   6.836   3.346  1.0153  0.0259  0.3730
  755MOL0     C 1827   9.620   6.895   3.425  0.0863 -0.4151 -0.5430
  755MOL0     C 1828   9.635   7.044   3.402  0.1029  0.0762 -0.7559
  755MOL0     C 1829   9.778   7.092   3.465  0.4992  0.2492  0.6077
  755MOL0     C 1830   9.783   7.246   3.497 -0.6814  0.4381 -0.4555
  755MOL0     C 1831   9.763   7.335   3.380 -0.0215 -0.0576 -0.0779
  755MOL0     C 1832   9.872   7.312   3.274  0.0550 -0.1385 -0.4409
  755MOL0     C 1833   9.872   7.431   3.176 -0.1871 -0.3980  0.4250
  755MOL0    Cl 1834   9.917   7.589   3.242  0.0950  0.2847  0.0302
  755MOL0     C 1835   9.366   6.662   3.139  0.5241  0.6613  0.4565
  755MOL0     C 1836   9.292   6.618   3.028  0.1281 -0.3992  0.3266
  755MOL0     O 1837   9.349   6.411   2.801 -0.4431  0.6635  0.1561
  755MOL0     C 1838   9.085   6.509   2.587 -0.1904  0.5935 -0.2740
  755MOL0     C 1839   9.030   6.474   2.465  0.1113 -0.9211  0.8082
  755MOL0     N 1840   8.607   6.065   2.290  0.5060  0.4122  0.9419
  755MOL0     N 1841   8.586   6.105   2.406  0.2901 -0.3269  0.2826
  755MOL0     C 1842   8.905   6.763   3.494 -0.6149 -0.0894  0.2108
  755MOL0     C 1843   8.877   6.741   3.627  0.3544 -0.4509  0.0354
  755MOL0     C 1844   8.621   6.615   3.999  0.4304 -0.0787 -0.4101
  755MOL0     C 1845   8.730   6.651   4.080 -0.7698 -1.3144 -0.1486
  755MOL0     C 1846   8.733   6.641   4.213 -0.2586 -0.3257 -0.5469
  755MOL0     C 1847   8.619   6.592   4.277 -0.0609 -0.4782 -0.2467
  755MOL0     O 1848   8.618   6.583   4.416  0.2985 -0.0465  0.3206
  755MOL0     C 1849   8.521   6.515   4.488  0.1099  0.4561 -0.0279
  755MOL0     C 1850   8.521   6.360   4.480  0.7584 -0.4748 -0.8027
  755MOL0     C 1851   8.457   6.306   4.612 -0.7690 -0.3455  0.2778
  755MOL0     C 1852   8.303   6.312   4.639  0.5016 -0.2330 -0.3187
  755MOL0     C 1853   8.267   6.447   4.675  0.2017 -0.8446  0.3651
  755MOL0     C 1854   8.233   6.563   4.691  0.1256  0.3897  0.9764
  755MOL0     C 1855   8.509   6.555   4.202  0.2208 -0.3459 -0.7589
  755MOL0     C 1856   8.512   6.558   4.063 -0.5232 -0.4547  0.1090
  755MOL0     C 1857   8.394   6.493   3.996 -0.7443  0.1028 -0.1187
  755MOL0     H 1858   8.541   6.695   3.608 -0.3238 -0.4274  2.6061
  755MOL0     H 1859   8.583   6.712   3.366 -0.9027  0.2138  1.1018
  755MOL0     H 1860   8.928   6.800   3.097 -0.2328 -0.6021  0.5634
  755MOL0     H 1861   9.028   6.751   3.237  0.4198 -1.8559  1.2423
  755MOL0     H 1862   8.809   6.556   3.158  0.8684 -0.5690  2.7174
  755MOL0     H 1863   8.986   6.516   3.188 -0.5437 -1.7361 -0.8977
  755MOL0     H 1864   9.042   6.518   2.981  0.0794  0.1783  1.9663
  755MOL0     H 1865   8.918   6.629   2.912 -1.1291 -0.9906 -0.5254
  755MOL0     H 1866   8.860   6.359   3.008 -0.6205 -0.7363 -1.7668
  755MOL0     H 1867   8.740   6.477   2.937  0.0479 -0.1966 -0.1453
  755MOL0     H 1868   8.846   6.442   2.723  1.4084 -1.1753 -1.2584
  755MOL0     H 1869   8.976   6.351   2.797  0.2285 -3.0068  0.1355
  755MOL0     H 1870   8.795   6.168   2.855  0.4713  1.3316  1.8940
  755MOL0     H 1871   8.674   6.296   2.792  0.2462  2.6750 -2.7469
  755MOL0     H 1872   8.893   6.161   2.624  0.2844  1.3974 -1.8840
  755MOL0     H 1873   8.771   6.290   2.582 -1.1402  1.1202  2.2071
  755MOL0     H 1874   8.727   5.995   2.684 -1.1048 -2.4930 -2.4748
  755MOL0     H 1875   8.587   6.108   2.659  0.1746 -0.6269 -0.1848
  755MOL0     H 1876   8.878   5.954   2.428 -0.3772  1.5378  1.3162
  755MOL0     H 1877   8.843   5.882   2.135 -3.4822 -1.4923 -1.0336
  755MOL0     H 1878   8.724   5.995   2.066 -1.4974 -0.8125  1.4707
  755MOL0     H 1879   8.993   6.077   2.198 -1.0705  1.5724  2.0460
  755MOL0     H 1880   8.975   6.064   2.026  0.7865  1.9749  0.3883
  755MOL0     H 1881   8.752   6.234   2.095 -0.9258  0.8207  3.0112
  755MOL0     H 1882   8.908   6.295   2.034 -1.6846  1.2868 -1.8783
  755MOL0     H 1883   8.861   6.258   2.335  1.8683  1.5544  0.7829
  755MOL0     H 1884   8.840   6.405   2.241  0.5613  0.5007 -0.5762
  755MOL0     H 1885   9.236   6.237   2.358 -0.9050  1.4709 -0.8095
  755MOL0     H 1886   9.344   6.292   2.606  0.2622  0.8851 -1.3228
  755MOL0     H 1887   9.390   6.823   2.776 -0.3383 -2.8468 -1.2939
  755MOL0     H 1888   9.525   6.924   2.974  2.8893 -1.8153  2.2043
  755MOL0     H 1889   9.399   6.891   3.372 -1.0370 -2.7276 -0.4905
  755MOL0     H 1890   9.474   6.731   3.372 -0.4152  0.8881  3.3468
  755MOL0     H 1891   9.609   6.878   3.532 -2.1392 -1.4586 -0.8999
  755MOL0     H 1892   9.701   6.836   3.382  1.5528  0.5666  0.7393
  755MOL0     H 1893   9.624   7.067   3.296  2.4939 -3.4429 -1.9674
  755MOL0     H 1894   9.550   7.090   3.454  0.0141  0.7286 -1.4542
  755MOL0     H 1895   9.861   7.066   3.399 -1.1436  0.3936 -1.5994
  755MOL0     H 1896   9.804   7.028   3.550  1.6897 -0.2589 -0.1080
  755MOL0     H 1897   9.878   7.273   3.543 -1.0033  1.9364 -0.6363
  755MOL0     H 1898   9.713   7.275   3.576  0.1340 -1.5506  1.0767
  755MOL0     H 1899   9.667   7.313   3.332 -0.4273  2.0145 -0.3216
  755MOL0     H 1900   9.769   7.442   3.402  0.0351 -0.1509  0.3699
  755MOL0     H 1901   9.854   7.216   3.226  1.8975 -1.9206  2.1855
  755MOL0     H 1902   9.973   7.303   3.315 -1.1572  0.2053  2.9155
  755MOL0     H 1903   9.943   7.416   3.094 -0.6493  0.4639 -0.1493
  755MOL0     H 1904   9.783   7.433   3.111 -1.7904  0.9165  2.5353
  755MOL0     H 1905   9.341   6.617   3.234 -3.3684  2.4028  0.4631
  755MOL0     H 1906   9.226   6.534   3.048 -3.0941  1.7610 -0.3704
  755MOL0     H 1907   9.034   6.592   2.637 -0.0625  0.7106 -0.3378
  755MOL0     H 1908   8.945   6.529   2.425  0.4575 -0.3680  0.8270
  755MOL0     H 1909   9.007   6.787   3.468 -0.0863 -0.5979  1.7072
  755MOL0     H 1910   8.942   6.738   3.714 -1.0507  2.6388  1.3092
  755MOL0     H 1911   8.827   6.678   4.038  0.3552 -1.8975  1.9200
  755MOL0     H 1912   8.825   6.669   4.264 -0.9232  2.6686 -0.8137
  755MOL0     H 1913   8.425   6.562   4.463  0.2543  2.2676  2.5077
  755MOL0     H 1914   8.545   6.528   4.594  2.1118 -0.8537 -0.2672
  755MOL0     H 1915   8.625   6.329   4.467  1.6707  0.2860  3.4064
  755MOL0     H 1916   8.463   6.310   4.402  0.6173 -1.3568 -0.1484
  755MOL0     H 1917   8.512   6.348   4.698  2.1929 -2.3499 -0.4617
  755MOL0     H 1918   8.486   6.200   4.607  0.6576  0.0741 -1.4741
  755MOL0     H 1919   8.258   6.280   4.545 -0.7600  4.4888 -1.6016
  755MOL0     H 1920   8.268   6.251   4.723 -1.3509 -0.2674 -1.0663
  755MOL0     H 1921   8.210   6.666   4.710 -0.3961  1.0286 -2.5694
  755MOL0     H 1922   8.420   6.517   4.252  0.5531  0.5338  0.5609
  755MOL0     H 1923   8.366   6.557   3.912 -4.9712 -1.1102  0.1560
  755MOL0     H 1924   8.399   6.387   3.970 -1.4164 -1.0593  3.8758
  755MOL0     H 1925   8.309   6.486   4.064 -0.6133 -0.0050  0.0375
  756MOL0     O 1926   5.600   0.044  11.123  0.1022 -0.2474  1.8225
  756MOL0     C 1927   5.622  -0.079  11.101 -0.5413 -1.0647 -0.4181
  756MOL0     O 1928   5.571  -0.187  11.175 -0.6620  0.2632  0.5328
  756MOL0     C 1929   5.490  -0.165  11.279 -0.0788 -0.1065 -0.3166
  756MOL0     C 1930   5.426  -0.274  11.339 -0.0487  0.4498  0.3060
  756MOL0     C 1931   5.349  -0.271  11.457  0.5382 -0.2059 -0.6399
  756MOL0     C 1932   5.359  -0.153  11.533  1.0510  0.4300 -0.4643
  756MOL0     O 1933   5.287  -0.152  11.656  0.5615 -0.3480  0.7650
  756MOL0     C 1934   5.334  -0.261  11.745  0.2211 -0.5115  0.4890
  756MOL0     C 1935   5.274  -0.251  11.882  0.7185 -0.7737 -0.9517
  756MOL0     C 1936   5.116  -0.249  11.876  0.1725 -0.6815 -1.9433
  756MOL0     C 1937   5.049  -0.359  11.795 -0.1801  0.8341 -0.7271
  756MOL0     C 1938   4.906  -0.386  11.832  0.2773 -0.6832 -0.3786
  756MOL0     C 1939   4.887  -0.443  11.973  0.0323 -0.1873 -0.1854
  756MOL0     C 1940   4.750  -0.476  12.017 -0.8068  0.3716  0.0504
  756MOL0     C 1941   4.697  -0.608  11.963 -0.4931 -0.9717 -0.0801
  756MOL0     N 1942   4.576  -0.646  12.038 -0.7399  0.1055  0.2068
  756MOL0     C 1943   4.449  -0.593  12.015 -0.5796 -0.0406 -0.4575
  756MOL0     C 1944   4.365  -0.660  12.099  0.3741 -0.5849 -0.5930
  756MOL0     C 1945   4.221  -0.622  12.124 -0.7512 -0.3621 -0.7514
  756MOL0     C 1946   4.138  -0.678  12.007 -0.7031  0.0676 -0.3219
  756MOL0     C 1947   3.995  -0.715  12.047 -0.1030 -0.3201 -1.3464
  756MOL0     C 1948   3.984  -0.863  12.074 -0.9379  0.8436 -0.1531
  756MOL0     O 1949   3.994  -0.942  11.954 -0.5058 -0.4239 -0.5957
  756MOL0     C 1950   3.899  -1.039  11.944 -0.5019 -0.0343  0.2508
  756MOL0     C 1951   3.933  -1.176  11.950  0.4350  0.2247 -0.3355
  756MOL0     C 1952   3.841  -1.275  11.931 -0.2304 -0.1064 -0.2273
  756MOL0     C 1953   3.705  -1.239  11.892  0.4053 -0.4648 -0.3022
  756MOL0     C 1954   3.604  -1.341  11.857 -0.2397 -0.2672  0.1280
  756MOL0     O 1955   3.482  -1.302  11.801 -0.1845  0.6406 -0.0481
  756MOL0     C 1956   3.389  -1.401  11.779  0.5600 -0.3462  0.4780
  756MOL0     C 1957   3.256  -1.357  11.799  0.2201 -0.6133 -0.2206
  756MOL0     C 1958   3.146  -1.442  11.773  0.0820  0.8370  0.1866
  756MOL0     C 1959   3.168  -1.575  11.727 -0.5025 -0.1012 -0.5813
  756MOL0     O 1960   3.059  -1.654  11.691  0.8107 -0.6979 -0.1565
  756MOL0     C 1961   3.063  -1.748  11.582  0.5368  0.3011 -0.1189
  756MOL0     C 1962   3.059  -1.897  11.635  1.5860 -0.5279 -0.1686
  756MOL0     C 1963   3.184  -1.951  11.695 -0.1604  0.2881  0.4510
  756MOL0     C 1964   3.163  -2.080  11.776 -0.7818  0.0555 -0.4270
  756MOL0     C 1965   3.301  -2.110  11.854 -1.0665  0.6835 -0.8483
  756MOL0     C 1966   3.296  -2.235  11.954  0.0291 -0.7629 -0.8116
  756MOL0     C 1967   3.207  -2.198  12.076 -0.2127 -0.2113  0.0064
  756MOL0     C 1968   3.177  -2.318  12.159 -0.2316 -0.8804 -0.6996
  756MOL0    Cl 1969   3.103  -2.263  12.319 -0.3404  0.0949 -0.4930
  756MOL0     C 1970   3.303  -1.614  11.714  0.1796  0.9905 -0.8472
  756MOL0     C 1971   3.408  -1.538  11.755 -0.8811  0.5224 -0.3664
  756MOL0     O 1972   3.636  -1.459  11.889  0.1252  0.0446  0.2954
  756MOL0     C 1973   3.671  -1.108  11.899 -0.2187  0.1744  0.3500
  756MOL0     C 1974   3.767  -1.007  11.917  0.7214  0.3845  0.1790
  756MOL0     N 1975   4.442  -0.735  12.191  0.7079 -0.0544  0.3105
  756MOL0     N 1976   4.567  -0.735  12.141  1.0727  0.6014  0.3002
  756MOL0     C 1977   5.418  -0.042  11.484 -0.6425  0.5639  0.3594
  756MOL0     C 1978   5.488  -0.044  11.360 -0.0599  0.4077 -0.2793
  756MOL0     C 1979   5.664  -0.103  10.951  0.0722 -0.5450 -0.4194
  756MOL0     C 1980   5.627  -0.234  10.903  0.5791 -0.6024 -1.4796
  756MOL0     C 1981   5.671  -0.273  10.774  0.3979 -0.3337  0.8590
  756MOL0     C 1982   5.752  -0.192  10.694  0.1188  0.5400 -0.5639
  756MOL0     O 1983   5.795  -0.237  10.565 -0.2978 -0.2782 -0.2157
  756MOL0     C 1984   5.848  -0.142  10.468 -0.6004  0.3291 -0.5855
  756MOL0     C 1985   5.831  -0.177  10.318 -1.1643 -0.0626  0.9170
  756MOL0     C 1986   5.684  -0.180  10.263 -0.3391  0.5503 -0.4360
  756MOL0     C 1987   5.628  -0.318  10.205  0.0210 -0.9416 -0.2072
  756MOL0     C 1988   5.619  -0.430  10.310  0.0073  0.4959 -0.7685
  756MOL0     C 1989   5.635  -0.528  10.391  0.5577  0.9516 -0.0458
  756MOL0     C 1990   5.793  -0.070  10.747 -0.1427  0.7353 -1.0389
  756MOL0     C 1991   5.739  -0.021  10.872  0.1098 -0.1006  1.0870
  756MOL0     C 1992   5.800   0.113  10.921  0.3899 -0.5417 -0.4326
  756MOL0     H 1993   5.419  -0.365  11.280 -0.2401  1.9051 -2.0431
  756MOL0     H 1994   5.296  -0.359  11.493  0.0457  0.0452 -0.7557
  756MOL0     H 1995   5.308  -0.361  11.709  2.5547 -0.7153 -0.8854
  756MOL0     H 1996   5.441  -0.242  11.755  0.2298 -0.8980  1.1685
  756MOL0     H 1997   5.303  -0.166  11.944 -1.0649  0.1369 -1.2964
  756MOL0     H 1998   5.320  -0.339  11.927 -0.7725 -1.1464 -0.1061
  756MOL0     H 1999   5.082  -0.156  11.829 -1.8367 -0.9862 -1.1983
  756MOL0     H 2000   5.062  -0.229  11.969 -1.1468 -0.2645 -2.7624
  756MOL0     H 2001   5.058  -0.323  11.692 -2.0889 -1.0747 -1.6451
  756MOL0     H 2002   5.117  -0.445  11.793 -2.2635 -1.0264  1.4600
  756MOL0     H 2003   4.859  -0.288  11.830  0.2457 -0.7016 -1.6450
  756MOL0     H 2004   4.864  -0.454  11.757 -0.7039 -0.4943 -0.0060
  756MOL0     H 2005   4.948  -0.533  11.987  1.5995  1.0674  1.5512
  756MOL0     H 2006   4.914  -0.364  12.043 -0.6279  1.1295 -1.3730
  756MOL0     H 2007   4.684  -0.394  11.987 -1.8328 -0.8157 -1.0575
  756MOL0     H 2008   4.750  -0.482  12.126  2.6559  3.0161  0.3620
  756MOL0     H 2009   4.672  -0.592  11.858  1.3332 -2.8619 -0.8842
  756MOL0     H 2010   4.774  -0.686  11.966  0.7536  0.2152 -0.1300
  756MOL0     H 2011   4.411  -0.519  11.945 -3.5147 -0.6194  0.3763
  756MOL0     H 2012   4.187  -0.656  12.223 -1.8294  0.6697 -0.7493
  756MOL0     H 2013   4.214  -0.513  12.123 -1.6461 -0.3794  0.5527
  756MOL0     H 2014   4.155  -0.611  11.922  1.0601  1.6904  1.2196
  756MOL0     H 2015   4.183  -0.768  11.963  2.3818  1.3318 -0.0015
  756MOL0     H 2016   3.914  -0.689  11.978 -0.1528  1.5460 -0.6596
  756MOL0     H 2017   3.964  -0.664  12.139 -3.0338 -2.5701 -0.9443
  756MOL0     H 2018   3.889  -0.880  12.127 -1.2856 -1.3673 -1.3627
  756MOL0     H 2019   4.063  -0.894  12.143 -2.4187 -0.3813  1.0702
  756MOL0     H 2020   4.033  -1.200  11.984 -0.0309  1.7757  2.4839
  756MOL0     H 2021   3.873  -1.377  11.946 -0.5529 -0.1478  0.1989
  756MOL0     H 2022   3.226  -1.258  11.831 -1.2339 -1.0829 -0.0314
  756MOL0     H 2023   3.043  -1.405  11.777  0.9593  4.0761 -2.5191
  756MOL0     H 2024   2.982  -1.714  11.517  0.4928  2.3215  0.9447
  756MOL0     H 2025   3.156  -1.732  11.528  0.6820  0.5095  0.1917
  756MOL0     H 2026   2.985  -1.896  11.716  2.3387  0.7920  0.5271
  756MOL0     H 2027   3.036  -1.965  11.552 -0.0966 -0.1312 -0.0788
  756MOL0     H 2028   3.266  -1.966  11.625  1.9729  1.6952  2.5202
  756MOL0     H 2029   3.225  -1.881  11.768 -1.7705  0.6543  1.0596
  756MOL0     H 2030   3.129  -2.172  11.726  1.8182 -0.3468 -1.6482
  756MOL0     H 2031   3.088  -2.050  11.850 -0.6639  0.1393 -0.3412
  756MOL0     H 2032   3.345  -2.026  11.909  1.1000 -1.6972  1.3352
  756MOL0     H 2033   3.368  -2.148  11.776 -1.4852  0.8317 -1.2805
  756MOL0     H 2034   3.263  -2.319  11.893  2.5353 -2.4932  0.0759
  756MOL0     H 2035   3.393  -2.262  11.996 -0.9687 -3.6101 -0.1525
  756MOL0     H 2036   3.111  -2.159  12.040  0.6086  1.8715 -0.0867
  756MOL0     H 2037   3.257  -2.116  12.129  4.2065 -1.4319 -1.8072
  756MOL0     H 2038   3.104  -2.372  12.097  0.4373  0.4651 -2.7513
  756MOL0     H 2039   3.258  -2.391  12.169  0.5936  0.0410 -0.6131
  756MOL0     H 2040   3.327  -1.710  11.670  0.9535  1.9613 -2.6742
  756MOL0     H 2041   3.508  -1.580  11.745 -1.4369 -1.4114  1.5723
  756MOL0     H 2042   3.567  -1.083  11.884 -0.7894 -2.7937 -1.3136
  756MOL0     H 2043   3.722  -0.908  11.915  0.2581  0.1566 -1.0516
  756MOL0     H 2044   5.425   0.044  11.550  3.4105  3.0256 -2.7946
  756MOL0     H 2045   5.530   0.051  11.328  1.2870  0.1789  0.7096
  756MOL0     H 2046   5.576  -0.306  10.966  0.9571 -0.7451 -1.3368
  756MOL0     H 2047   5.632  -0.368  10.739 -2.1151  1.5448 -1.9959
  756MOL0     H 2048   5.955  -0.131  10.485 -0.2408 -4.0644  1.1054
  756MOL0     H 2049   5.798  -0.045  10.478  0.0584  0.7301 -1.1125
  756MOL0     H 2050   5.875  -0.275  10.297 -1.0235  0.1082  0.4074
  756MOL0     H 2051   5.880  -0.101  10.255  0.0722 -1.5522  0.0200
  756MOL0     H 2052   5.663  -0.100  10.191 -2.1963  0.2354 -0.2723
  756MOL0     H 2053   5.617  -0.162  10.348 -0.4850 -0.2601 -0.3764
  756MOL0     H 2054   5.525  -0.304  10.171  0.4329 -2.8722 -2.5251
  756MOL0     H 2055   5.688  -0.335  10.115 -0.6774 -1.4412 -0.5887
  756MOL0     H 2056   5.633  -0.613  10.457 -0.7951  2.5991  2.1458
  756MOL0     H 2057   5.855  -0.003  10.689 -0.1753  0.6433 -1.1811
  756MOL0     H 2058   5.864   0.161  10.847  0.7991 -1.3774 -0.6317
  756MOL0     H 2059   5.720   0.181  10.949 -1.5658 -2.2253 -1.6525
  756MOL0     H 2060   5.862   0.084  11.007  1.2372 -4.3038 -2.0879
  757MOL0     O 2061  10.863   9.388  11.021 -1.1984  0.6803 -0.2977
  757MOL0     C 2062  10.881   9.460  10.924 -0.5291  0.3545 -0.5519
  757MOL0     O 2063  10.842   9.594  10.933 -0.5954 -0.8404  0.0129
  757MOL0     C 2064  10.776   9.670  11.023  1.0366 -0.2479  0.1260
  757MOL0     C 2065  10.703   9.633  11.136  0.1187 -0.6195 -0.4005
  757MOL0     C 2066  10.650   9.725  11.224 -0.3584 -0.7313 -0.1298
  757MOL0     C 2067  10.650   9.862  11.201 -0.5692  0.0154 -0.2087
  757MOL0     O 2068  10.577   9.947  11.270  0.6671  0.6188 -0.1525
  757MOL0     C 2069  10.630   9.979  11.396 -0.0448  0.3255  1.0589
  757MOL0     C 2070  10.595  10.130  11.411  0.3840  0.0043  0.2867
  757MOL0     C 2071  10.629  10.177  11.554  0.3603  0.0148  0.0764
  757MOL0     C 2072  10.519  10.145  11.654  0.2540  0.9069  0.6976
  757MOL0     C 2073  10.540  10.238  11.768 -0.2136  0.8885 -0.4172
  757MOL0     C 2074  10.509  10.165  11.900 -0.2488  0.6203  0.2218
  757MOL0     C 2075  10.519  10.268  12.013  0.4287  0.4004  0.8752
  757MOL0     C 2076  10.548  10.189  12.145  0.0612  0.1332 -0.2211
  757MOL0     N 2077  10.649  10.261  12.236 -0.0239  0.1509 -0.3053
  757MOL0     C 2078  10.759  10.343  12.199 -0.2964  0.2069 -0.7847
  757MOL0     C 2079  10.777  10.420  12.315  0.0338 -0.1680 -0.0472
  757MOL0     C 2080  10.879  10.537  12.332  0.7588 -0.1817  0.1589
  757MOL0     C 2081  10.800  10.652  12.368  0.3676  0.6244 -0.7358
  757MOL0     C 2082  10.887  10.772  12.364 -0.3721  0.5485  1.5753
  757MOL0     C 2083  10.802  10.888  12.413  0.5271 -0.4344 -0.4846
  757MOL0     O 2084  10.880  11.020  12.409 -0.5637  0.5588  0.1391
  757MOL0     C 2085  10.809  11.136  12.382 -0.5466 -0.0370  0.8772
  757MOL0     C 2086  10.793  11.235  12.471  0.0549  0.1362 -0.2179
  757MOL0     C 2087  10.717  11.342  12.434 -0.4686  1.0871  0.1743
  757MOL0     C 2088  10.647  11.353  12.317  1.2242 -1.0360 -0.2576
  757MOL0     C 2089  10.567  11.483  12.288 -0.3363  0.3077 -0.1324
  757MOL0     O 2090  10.488  11.483  12.177 -0.1401  0.0374 -0.5220
  757MOL0     C 2091  10.424  11.599  12.141  0.6605 -0.0478  0.7042
  757MOL0     C 2092  10.354  11.684  12.229  0.9707 -0.1249  0.4316
  757MOL0     C 2093  10.295  11.798  12.182  0.7470 -0.0871 -0.0683
  757MOL0     C 2094  10.292  11.829  12.044 -0.7404  0.7488  0.7177
  757MOL0     O 2095  10.213  11.933  12.008 -0.2051 -0.2751  0.2551
  757MOL0     C 2096  10.226  11.991  11.876 -0.2822 -0.1246 -0.6413
  757MOL0     C 2097  10.173  12.138  11.879 -0.1872  0.9891  0.3766
  757MOL0     C 2098  10.148  12.182  11.739  0.0119  0.6138 -0.7327
  757MOL0     C 2099  10.125  12.334  11.727 -0.0614  1.7295  0.0327
  757MOL0     C 2100  10.107  12.361  11.573 -0.1198  0.6175  0.5861
  757MOL0     C 2101  10.239  12.391  11.507  0.4481 -0.0233 -0.6650
  757MOL0     C 2102  10.324  12.504  11.557  0.3957 -0.4062 -0.4908
  757MOL0     C 2103  10.253  12.636  11.526  0.5151  1.1545  0.1961
  757MOL0    Cl 2104  10.342  12.761  11.613  0.2732  0.0424  0.1082
  757MOL0     C 2105  10.366  11.745  11.956 -0.2291 -0.8346 -0.1307
  757MOL0     C 2106  10.430  11.624  12.003  1.1565 -0.2826  0.1915
  757MOL0     O 2107  10.576  11.571  12.369 -0.1794 -0.1719  0.4007
  757MOL0     C 2108  10.660  11.240  12.229  0.2820 -0.7389  0.9416
  757MOL0     C 2109  10.746  11.138  12.262  0.6985  0.3381  0.1424
  757MOL0     N 2110  10.685  10.382  12.412  0.8536  0.1078  0.1537
  757MOL0     N 2111  10.610  10.287  12.364  0.9393 -0.7371 -0.2036
  757MOL0     C 2112  10.723   9.897  11.087  0.3708 -0.1784  0.5152
  757MOL0     C 2113  10.788   9.808  11.004 -0.7309  0.2677  0.1104
  757MOL0     C 2114  10.922   9.416  10.800 -0.4218  0.3090  0.1559
  757MOL0     C 2115  10.879   9.484  10.679  0.3377  0.0600  0.3200
  757MOL0     C 2116  10.911   9.437  10.554  0.0886  0.3071  0.0789
  757MOL0     C 2117  10.994   9.327  10.541 -0.8477  0.5811  0.2521
  757MOL0     O 2118  11.051   9.289  10.418 -0.2692 -0.0095  0.1687
  757MOL0     C 2119  11.004   9.346  10.284 -0.3985 -0.9179  0.1482
  757MOL0     C 2120  10.854   9.323  10.251 -0.3993  0.3058 -0.0741
  757MOL0     C 2121  10.794   9.399  10.135  1.1030  0.6807 -0.1219
  757MOL0     C 2122  10.649   9.345  10.105  0.5595  0.7479  0.2573
  757MOL0     C 2123  10.576   9.430  10.016  0.3303 -0.1061  0.6366
  757MOL0     C 2124  10.517   9.517   9.950  0.8563 -0.0404 -0.0770
  757MOL0     C 2125  11.045   9.267  10.655 -1.2276 -0.1085 -0.3503
  757MOL0     C 2126  11.014   9.302  10.784 -0.3649 -0.2333  0.0403
  757MOL0     C 2127  11.060   9.216  10.895 -0.1615  0.3812  0.2948
  757MOL0     H 2128  10.697   9.525  11.142 -1.3577 -0.5941 -1.2209
  757MOL0     H 2129  10.601   9.687  11.313 -1.2110  1.4583  0.4080
  757MOL0     H 2130  10.577   9.921  11.472 -1.0031 -0.1008  0.0977
  757MOL0     H 2131  10.736   9.953  11.402 -0.3701 -3.4936 -3.6517
  757MOL0     H 2132  10.487  10.147  11.397  0.2445 -0.0175  1.2565
  757MOL0     H 2133  10.659  10.182  11.339  1.2112 -3.6081 -1.8411
  757MOL0     H 2134  10.652  10.284  11.547 -2.0263  0.4819 -3.2901
  757MOL0     H 2135  10.728  10.135  11.570  0.9481  0.2706 -2.4550
  757MOL0     H 2136  10.413  10.144  11.626 -0.0572 -0.9964  1.7464
  757MOL0     H 2137  10.542  10.040  11.676  0.4869  0.6435 -0.6952
  757MOL0     H 2138  10.634  10.292  11.773 -0.6212  1.5207  1.4794
  757MOL0     H 2139  10.474  10.324  11.755  0.5362  1.6179  0.4945
  757MOL0     H 2140  10.408  10.123  11.892  0.7144 -1.8543  0.1427
  757MOL0     H 2141  10.568  10.074  11.913 -3.0445 -1.0148  3.0918
  757MOL0     H 2142  10.419  10.311  12.024 -0.1687 -0.9284  0.8289
  757MOL0     H 2143  10.602  10.336  11.989  0.6691  0.0525  0.7103
  757MOL0     H 2144  10.457  10.155  12.195 -0.5393  0.2062 -1.2378
  757MOL0     H 2145  10.592  10.093  12.116  0.8066  1.4929 -4.1476
  757MOL0     H 2146  10.814  10.344  12.106  2.3596  0.3992  0.7088
  757MOL0     H 2147  10.950  10.511  12.411  0.2797 -1.5504  0.1654
  757MOL0     H 2148  10.924  10.552  12.234 -0.7953  2.7880 -0.2262
  757MOL0     H 2149  10.712  10.664  12.304 -1.9561 -3.2062  1.3427
  757MOL0     H 2150  10.762  10.644  12.471  1.8733 -0.9672 -0.2513
  757MOL0     H 2151  10.919  10.797  12.263  1.1388 -1.6482  1.4339
  757MOL0     H 2152  10.977  10.755  12.425 -0.4396  1.6798  2.0058
  757MOL0     H 2153  10.758  10.872  12.512 -4.6803 -1.4371 -2.6592
  757MOL0     H 2154  10.715  10.889  12.348  1.2793 -1.2566 -1.5415
  757MOL0     H 2155  10.850  11.236  12.563  0.8843  0.7365 -0.7280
  757MOL0     H 2156  10.714  11.421  12.508  2.0340  1.2715  0.1427
  757MOL0     H 2157  10.328  11.664  12.332 -0.5973  3.5808  0.9297
  757MOL0     H 2158  10.244  11.844  12.265  0.3973 -1.3420  0.4451
  757MOL0     H 2159  10.329  11.997  11.839 -0.1620  3.9104 -0.0726
  757MOL0     H 2160  10.160  11.931  11.813  1.1823 -1.5678 -0.8965
  757MOL0     H 2161  10.070  12.126  11.913  0.1357 -2.9723  0.4101
  757MOL0     H 2162  10.230  12.209  11.940  2.4876 -0.5265 -0.1940
  757MOL0     H 2163  10.220  12.146  11.665 -0.2636 -0.4205 -0.5124
  757MOL0     H 2164  10.059  12.126  11.710  0.1265 -1.5587  2.5926
  757MOL0     H 2165  10.207  12.392  11.771 -0.5068  1.5891  1.0775
  757MOL0     H 2166  10.034  12.353  11.785 -0.3627 -2.8004  1.4514
  757MOL0     H 2167  10.047  12.449  11.547 -0.5143 -0.3216 -1.9478
  757MOL0     H 2168  10.060  12.277  11.520  1.0988 -0.6837  1.5125
  757MOL0     H 2169  10.300  12.301  11.490 -0.1035 -0.4720 -0.2981
  757MOL0     H 2170  10.214  12.425  11.406 -1.3621  1.1761  0.1316
  757MOL0     H 2171  10.420  12.480  11.510  2.3522 -1.1883  3.5072
  757MOL0     H 2172  10.338  12.494  11.665 -1.2982 -2.4547 -0.3815
  757MOL0     H 2173  10.241  12.644  11.418  0.2083 -2.1777 -0.1300
  757MOL0     H 2174  10.149  12.645  11.561  0.3859 -0.4825  0.3178
  757MOL0     H 2175  10.370  11.773  11.851  0.9199 -0.5144 -0.0141
  757MOL0     H 2176  10.484  11.553  11.940 -0.8249 -0.0273 -1.9174
  757MOL0     H 2177  10.626  11.235  12.126 -2.2435 -2.0371  1.7358
  757MOL0     H 2178  10.766  11.067  12.183 -0.6218  2.1970 -2.0147
  757MOL0     H 2179  10.732  10.000  11.053  2.6143 -0.5846 -0.2192
  757MOL0     H 2180  10.849   9.841  10.921 -0.6599 -1.6909 -0.6675
  757MOL0     H 2181  10.842   9.585  10.690  2.1463  0.6965  0.8179
  757MOL0     H 2182  10.889   9.514  10.481 -1.4859  1.9435  2.1541
  757MOL0     H 2183  11.058   9.298  10.202  0.3144 -3.0126  1.7258
  757MOL0     H 2184  11.021   9.454  10.292 -1.9589 -0.7513  1.6657
  757MOL0     H 2185  10.796   9.355  10.338 -1.6357  0.7818 -1.0442
  757MOL0     H 2186  10.839   9.217  10.230 -0.7729  0.0368  1.4052
  757MOL0     H 2187  10.865   9.401  10.052  2.6179  1.3765  1.1316
  757MOL0     H 2188  10.798   9.500  10.177  3.1722  0.8941 -0.7190
  757MOL0     H 2189  10.659   9.246  10.061  0.8019  0.6491  0.5333
  757MOL0     H 2190  10.596   9.343  10.200 -0.0316 -0.6075 -0.0792
  757MOL0     H 2191  10.456   9.587   9.897 -3.3925 -2.3587  1.2109
  757MOL0     H 2192  11.099   9.177  10.626  1.5819  1.5698 -0.7459
  757MOL0     H 2193  11.098   9.118  10.868  1.6684  1.0974  0.1157
  757MOL0     H 2194  11.137   9.263  10.958 -0.8819  0.4586  1.1394
  757MOL0     H 2195  10.969   9.201  10.954  0.8606  0.6256  2.0139
  758MOL0     O 2196  10.901   6.833  11.385 -0.3761 -0.4730 -0.2804
  758MOL0     C 2197  10.840   6.870  11.286  0.3762 -1.0595 -0.5048
  758MOL0     O 2198  10.705   6.891  11.289 -0.5661  0.1445 -0.7139
  758MOL0     C 2199  10.627   6.820  11.383  0.2358  0.0401  0.0515
  758MOL0     C 2200  10.636   6.687  11.393 -0.5793  1.1204  0.7948
  758MOL0     C 2201  10.563   6.613  11.496  0.1761  0.4973  0.0574
  758MOL0     C 2202  10.466   6.677  11.569 -1.4684 -0.6528  0.2756
  758MOL0     O 2203  10.397   6.605  11.671  0.2337  0.2502 -0.5279
  758MOL0     C 2204  10.256   6.627  11.695  0.2961  0.2939 -1.1061
  758MOL0     C 2205  10.167   6.570  11.573 -0.4466  0.1329 -0.1808
  758MOL0     C 2206  10.014   6.570  11.597 -0.1937  0.5668  0.0231
  758MOL0     C 2207   9.932   6.545  11.479 -0.8164  0.4979  0.2360
  758MOL0     C 2208   9.783   6.571  11.510 -0.3759  0.2431 -0.5715
  758MOL0     C 2209   9.695   6.553  11.383 -0.0654  0.0885  0.6991
  758MOL0     C 2210   9.580   6.456  11.405  1.0579  0.9161 -0.1614
  758MOL0     C 2211   9.469   6.506  11.502 -0.8596  0.4177 -0.4463
  758MOL0     N 2212   9.405   6.615  11.427  0.0772  0.6054 -0.2195
  758MOL0     C 2213   9.327   6.599  11.315 -0.7421  1.5826  0.1672
  758MOL0     C 2214   9.319   6.722  11.261  1.1492  0.3638 -0.0698
  758MOL0     C 2215   9.240   6.750  11.134 -0.2475  0.6894 -0.0371
  758MOL0     C 2216   9.235   6.902  11.117  0.1771 -0.3377  0.3104
  758MOL0     C 2217   9.152   6.940  10.992 -0.1753 -0.6689 -0.0165
  758MOL0     C 2218   9.159   7.087  10.978 -0.6030 -0.5720  0.5608
  758MOL0     O 2219   9.297   7.127  10.963  0.0842 -0.5949  0.1163
  758MOL0     C 2220   9.342   7.212  10.858  0.1788 -2.0407  0.1231
  758MOL0     C 2221   9.468   7.202  10.802 -0.1935 -0.5425  0.0142
  758MOL0     C 2222   9.506   7.294  10.697 -0.2191 -0.0582 -0.6976
  758MOL0     C 2223   9.430   7.381  10.628  0.6608 -0.2815  1.1454
  758MOL0     C 2224   9.481   7.480  10.526  0.4004 -0.1256  0.9276
  758MOL0     O 2225   9.604   7.453  10.474  0.6504 -0.2216  0.0192
  758MOL0     C 2226   9.686   7.544  10.402  0.0439 -0.1474 -1.2201
  758MOL0     C 2227   9.682   7.687  10.419  0.2628 -0.2058 -0.3088
  758MOL0     C 2228   9.778   7.776  10.370  0.0317 -1.1176 -0.0149
  758MOL0     C 2229   9.874   7.727  10.281  0.0348 -0.2591 -0.1601
  758MOL0     O 2230   9.973   7.801  10.217 -0.0010  0.8982  0.3803
  758MOL0     C 2231  10.002   7.926  10.267  0.4347 -0.2674  0.3074
  758MOL0     C 2232  10.093   7.995  10.171  0.2739 -0.3321 -0.0099
  758MOL0     C 2233  10.221   7.927  10.160  0.1281 -0.5181 -1.0151
  758MOL0     C 2234  10.319   8.028  10.085  0.1061  0.3126 -0.7888
  758MOL0     C 2235  10.457   7.972  10.046  0.2637 -0.8299 -1.2174
  758MOL0     C 2236  10.516   8.058   9.928 -0.2287  0.4130  0.7812
  758MOL0     C 2237  10.673   8.030   9.917 -0.2096 -0.3059  0.9501
  758MOL0     C 2238  10.726   8.021   9.775  0.4700  0.7845 -0.3463
  758MOL0    Cl 2239  10.914   8.011   9.771  0.5338 -0.2423  0.0427
  758MOL0     C 2240   9.887   7.586  10.275 -0.0507 -0.1395  0.2404
  758MOL0     C 2241   9.797   7.497  10.327 -0.0400 -0.0542 -0.2462
  758MOL0     O 2242   9.404   7.570  10.487 -0.0427 -0.2708 -0.0876
  758MOL0     C 2243   9.303   7.388  10.684  0.3668  0.0398  0.1738
  758MOL0     C 2244   9.255   7.298  10.786  0.5694  0.1983  0.6274
  758MOL0     N 2245   9.375   6.810  11.352 -0.6844  0.7565  0.3421
  758MOL0     N 2246   9.432   6.745  11.446 -0.0668  0.6440  0.1693
  758MOL0     C 2247  10.456   6.820  11.554 -0.7776 -0.6870  0.4408
  758MOL0     C 2248  10.530   6.895  11.462 -0.2500 -0.1030  0.4195
  758MOL0     C 2249  10.914   6.912  11.160  0.0397 -0.6316  0.1595
  758MOL0     C 2250  10.843   6.982  11.060  0.2173 -0.2923 -0.7199
  758MOL0     C 2251  10.904   7.034  10.951 -0.1257  0.2330 -0.4256
  758MOL0     C 2252  11.036   7.013  10.935  0.2214  0.0871  0.8160
  758MOL0     O 2253  11.112   7.066  10.831 -0.4382  0.0659  0.4646
  758MOL0     C 2254  11.074   7.193  10.787  0.8324 -0.2728 -0.4021
  758MOL0     C 2255  11.207   7.254  10.747 -0.0820  0.8915  0.1945
  758MOL0     C 2256  11.184   7.386  10.671 -0.6458 -0.0243 -0.0402
  758MOL0     C 2257  11.314   7.452  10.650  0.4859 -0.7145  0.3613
  758MOL0     C 2258  11.355   7.523  10.775  1.2274  0.4128 -0.4588
  758MOL0     C 2259  11.396   7.573  10.876  0.0991  0.4266 -1.1786
  758MOL0     C 2260  11.101   6.914  11.019 -0.1503 -0.1389  0.1860
  758MOL0     C 2261  11.046   6.877  11.137 -0.8763 -0.7014 -0.0338
  758MOL0     C 2262  11.128   6.788  11.230  1.5308  0.8627  0.0456
  758MOL0     H 2263  10.702   6.632  11.327 -1.0819 -0.0369  1.2344
  758MOL0     H 2264  10.574   6.506  11.511  0.2777  0.5668  0.4764
  758MOL0     H 2265  10.227   6.580  11.789 -2.9922 -2.0733 -3.0877
  758MOL0     H 2266  10.229   6.732  11.712 -1.5007 -0.7155  3.8165
  758MOL0     H 2267  10.204   6.473  11.538 -0.6769  0.1956 -0.6071
  758MOL0     H 2268  10.178   6.639  11.489 -3.7878 -0.1017 -0.9477
  758MOL0     H 2269   9.983   6.668  11.635 -4.0992  0.0085 -1.3385
  758MOL0     H 2270   9.993   6.503  11.681 -0.2595  2.0430  1.2388
  758MOL0     H 2271   9.966   6.613  11.401 -1.8694  0.7204 -0.0450
  758MOL0     H 2272   9.946   6.444  11.438 -0.6078  1.2585 -1.6662
  758MOL0     H 2273   9.751   6.526  11.604  1.6454 -0.9301 -0.3885
  758MOL0     H 2274   9.774   6.677  11.535 -1.6989  0.5147 -2.0440
  758MOL0     H 2275   9.649   6.645  11.347 -1.1281 -0.3991  0.7534
  758MOL0     H 2276   9.764   6.512  11.308  0.6932  2.9827 -0.3063
  758MOL0     H 2277   9.626   6.366  11.444  0.4637  1.8607  3.0568
  758MOL0     H 2278   9.541   6.430  11.307 -2.2427  1.6347  0.8064
  758MOL0     H 2279   9.394   6.431  11.530 -1.1862  1.5382  1.9189
  758MOL0     H 2280   9.522   6.543  11.590  1.8260 -0.7111 -1.4645
  758MOL0     H 2281   9.270   6.510  11.290  0.0869  1.5380 -1.7229
  758MOL0     H 2282   9.285   6.684  11.059 -3.8790 -4.1220  1.4850
  758MOL0     H 2283   9.140   6.707  11.147  0.2518 -0.8371 -0.9380
  758MOL0     H 2284   9.189   6.943  11.207  3.4323  1.0834  1.4514
  758MOL0     H 2285   9.333   6.950  11.126 -0.0650  0.2171  0.0616
  758MOL0     H 2286   9.048   6.909  11.004 -0.6673  0.9757  0.2880
  758MOL0     H 2287   9.183   6.900  10.895 -1.1524 -3.0907  0.6087
  758MOL0     H 2288   9.110   7.133  11.064  1.1580  0.2726  1.1757
  758MOL0     H 2289   9.102   7.110  10.888  1.1689  0.2195 -0.4231
  758MOL0     H 2290   9.534   7.129  10.850  4.9492  0.9896 -3.8386
  758MOL0     H 2291   9.613   7.311  10.690  0.0411  1.1605  3.3576
  758MOL0     H 2292   9.599   7.726  10.478 -0.6939  2.0414 -2.9131
  758MOL0     H 2293   9.770   7.880  10.401 -1.7963  0.4964 -4.9568
  758MOL0     H 2294   9.907   7.978  10.251  0.0001 -1.2873 -0.6014
  758MOL0     H 2295  10.032   7.930  10.372  2.2626 -2.2940 -0.0654
  758MOL0     H 2296  10.052   8.017  10.072  0.8727  0.5035 -0.0818
  758MOL0     H 2297  10.104   8.097  10.208 -0.7036  0.7378 -2.4952
  758MOL0     H 2298  10.261   7.910  10.261  0.4952 -2.3678 -1.4255
  758MOL0     H 2299  10.200   7.831  10.111 -0.3692 -0.7083 -0.4418
  758MOL0     H 2300  10.326   8.124  10.136 -2.8958 -1.8030  4.4619
  758MOL0     H 2301  10.273   8.048   9.988 -0.0885  1.1092 -0.5345
  758MOL0     H 2302  10.456   7.865  10.025  0.0700 -0.7837 -1.4481
  758MOL0     H 2303  10.529   7.992  10.126 -0.8226 -0.6436 -0.2646
  758MOL0     H 2304  10.468   8.031   9.834  0.6696  0.8285  0.1904
  758MOL0     H 2305  10.496   8.164   9.943  0.6627  0.7598 -0.3370
  758MOL0     H 2306  10.692   7.933   9.965 -1.4833 -0.7999  0.5224
  758MOL0     H 2307  10.712   8.118   9.968 -2.9609  1.6628 -0.1296
  758MOL0     H 2308  10.689   7.929   9.730 -0.0219  0.0531  1.4905
  758MOL0     H 2309  10.697   8.104   9.709  3.2074 -1.3963 -4.7553
  758MOL0     H 2310   9.963   7.547  10.208 -1.1423 -1.0015 -0.5552
  758MOL0     H 2311   9.802   7.391  10.304  0.4258 -0.1460  0.2708
  758MOL0     H 2312   9.235   7.461  10.642 -0.4527 -0.8699 -0.1004
  758MOL0     H 2313   9.157   7.330  10.819  0.5962  1.6164 -0.5360
  758MOL0     H 2314  10.383   6.867  11.619 -0.5039  0.4308 -0.0330
  758MOL0     H 2315  10.519   7.001  11.447  0.5103 -0.0885 -0.1261
  758MOL0     H 2316  10.738   7.006  11.065  0.7004  2.4676 -2.3513
  758MOL0     H 2317  10.834   7.073  10.878 -1.5658 -1.7018 -0.1626
  758MOL0     H 2318  11.019   7.254  10.859 -0.9193  1.6066 -3.1347
  758MOL0     H 2319  11.013   7.167  10.701  0.0668  0.1672  0.0018
  758MOL0     H 2320  11.264   7.182  10.688  1.1820  0.5588  1.7355
  758MOL0     H 2321  11.271   7.261  10.836 -2.7596  1.5964  2.1917
  758MOL0     H 2322  11.127   7.450  10.739 -1.1478 -0.0564 -0.4285
  758MOL0     H 2323  11.124   7.353  10.586 -2.3456 -2.3971  1.9215
  758MOL0     H 2324  11.383   7.377  10.611 -0.4196 -0.9399 -0.8994
  758MOL0     H 2325  11.295   7.519  10.565  0.6331 -0.0793  0.8249
  758MOL0     H 2326  11.426   7.611  10.972 -1.9091 -0.3757 -0.1700
  758MOL0     H 2327  11.201   6.882  10.991  0.9080  0.8794  2.4926
  758MOL0     H 2328  11.153   6.826  11.329  1.7434 -2.1897  1.2610
  758MOL0     H 2329  11.065   6.704  11.260 -0.0125  2.0298  0.2023
  758MOL0     H 2330  11.222   6.748  11.191  0.9502  0.9989 -1.5584
  759MOL0     O 2331   3.079   6.710   8.962 -0.0579 -0.0918 -0.4988
  759MOL0     C 2332   2.985   6.784   8.983 -0.3598  0.1465 -1.0097
  759MOL0     O 2333   2.937   6.817   9.107 -0.0577 -0.4827 -1.1051
  759MOL0     C 2334   2.996   6.784   9.222 -0.6925 -0.7099  0.5820
  759MOL0     C 2335   2.925   6.735   9.320  0.2282  0.0010 -0.3219
  759MOL0     C 2336   2.974   6.720   9.444 -0.3984  1.4957 -0.2534
  759MOL0     C 2337   3.111   6.742   9.468 -0.4986 -0.1907  0.3371
  759MOL0     O 2338   3.157   6.742   9.596  0.1260 -0.7774  0.3335
  759MOL0     C 2339   3.234   6.627   9.622 -0.2876 -0.1730 -0.1450
  759MOL0     C 2340   3.386   6.671   9.628  0.4591 -0.9119 -0.6781
  759MOL0     C 2341   3.417   6.808   9.690  0.1502 -0.5440 -0.0574
  759MOL0     C 2342   3.501   6.815   9.813 -0.9102  0.2788  0.7223
  759MOL0     C 2343   3.451   6.714   9.926 -0.2274  0.5450 -0.2850
  759MOL0     C 2344   3.523   6.759  10.056 -0.3206 -0.2874 -1.0966
  759MOL0     C 2345   3.446   6.696  10.174  0.8456 -0.1184  0.7338
  759MOL0     C 2346   3.510   6.725  10.301  1.1521  0.0804 -0.1797
  759MOL0     N 2347   3.458   6.643  10.410  0.1394 -0.3920 -0.0284
  759MOL0     C 2348   3.336   6.638  10.454  0.8919  0.2744  0.5323
  759MOL0     C 2349   3.345   6.550  10.559 -0.7439  0.7138 -0.4967
  759MOL0     C 2350   3.240   6.510  10.665  0.5496 -0.0605  0.5438
  759MOL0     C 2351   3.102   6.465  10.611  0.6005  0.0107 -0.2939
  759MOL0     C 2352   3.006   6.578  10.584  0.1386 -0.2899 -0.5362
  759MOL0     C 2353   2.858   6.519  10.573  0.4126  0.7324 -0.6183
  759MOL0     O 2354   2.849   6.428  10.464 -0.1798 -1.0401  0.4944
  759MOL0     C 2355   2.725   6.371  10.454 -1.0688  0.0211  0.1342
  759MOL0     C 2356   2.705   6.312  10.335 -0.3286  1.3873 -0.4539
  759MOL0     C 2357   2.596   6.221  10.304 -0.7366  0.2799  0.4599
  759MOL0     C 2358   2.502   6.185  10.397 -0.4187  0.0323  0.5651
  759MOL0     C 2359   2.379   6.110  10.361 -0.7445 -0.3455  0.6204
  759MOL0     O 2360   2.363   6.083  10.229 -0.4716  0.5816  0.3042
  759MOL0     C 2361   2.266   6.004  10.167  0.3138  1.2040 -0.7398
  759MOL0     C 2362   2.169   5.934  10.236  0.2166 -0.1418 -0.5121
  759MOL0     C 2363   2.062   5.864  10.172  0.4270  0.7612  0.6877
  759MOL0     C 2364   2.053   5.869  10.032  0.2978  0.3788  0.7096
  759MOL0     O 2365   1.942   5.834   9.952 -0.3887  0.0500  0.3376
  759MOL0     C 2366   1.823   5.775  10.012 -0.1873  0.0365  0.6917
  759MOL0     C 2367   1.841   5.629  10.011 -0.1192  0.4252  0.0469
  759MOL0     C 2368   1.868   5.571   9.869 -0.5653 -0.0735 -0.1705
  759MOL0     C 2369   1.913   5.430   9.865  0.2879  0.4059 -1.0531
  759MOL0     C 2370   1.900   5.368   9.718 -0.2387  0.0247 -0.8030
  759MOL0     C 2371   1.943   5.215   9.722 -0.0588  0.6801 -0.1985
  759MOL0     C 2372   1.927   5.144   9.580  0.5101 -1.5022 -0.2114
  759MOL0     C 2373   1.940   4.997   9.573 -0.6526  0.0137  0.9387
  759MOL0    Cl 2374   1.845   4.898   9.686  0.0589 -0.0105  0.4329
  759MOL0     C 2375   2.156   5.937   9.967 -0.0540 -0.5377 -1.5653
  759MOL0     C 2376   2.253   6.003  10.031 -1.4635 -0.1614 -0.6391
  759MOL0     O 2377   2.319   6.056  10.447  0.5342 -0.3251 -0.0960
  759MOL0     C 2378   2.517   6.248  10.525 -0.5862  0.4224 -0.8591
  759MOL0     C 2379   2.624   6.341  10.549 -0.3503 -0.6304 -0.3736
  759MOL0     N 2380   3.476   6.497  10.558  0.3789 -0.2455 -0.0384
  759MOL0     N 2381   3.542   6.550  10.465  0.4067 -0.3090  0.4742
  759MOL0     C 2382   3.198   6.774   9.354 -0.1033  0.5238 -0.5106
  759MOL0     C 2383   3.136   6.797   9.234  0.0531  0.3452 -0.0749
  759MOL0     C 2384   2.914   6.840   8.862 -0.3329 -1.2419 -0.2547
  759MOL0     C 2385   2.809   6.921   8.895  0.1174 -0.2494  0.6917
  759MOL0     C 2386   2.738   6.979   8.792 -0.3041 -0.5799 -0.5955
  759MOL0     C 2387   2.776   6.969   8.657  0.1229 -0.4937 -0.5680
  759MOL0     O 2388   2.710   7.043   8.559 -0.5023  0.2256  0.1080
  759MOL0     C 2389   2.673   7.179   8.585  0.7456  0.5927 -0.3381
  759MOL0     C 2390   2.798   7.274   8.605 -0.3568  0.1564 -0.1285
  759MOL0     C 2391   2.881   7.283   8.476  0.5541  0.4029  1.1875
  759MOL0     C 2392   2.986   7.399   8.482  0.0791  1.2200 -0.2255
  759MOL0     C 2393   3.067   7.405   8.365  0.1154  0.2235  0.4652
  759MOL0     C 2394   3.119   7.427   8.257 -0.1563  0.5688 -0.9008
  759MOL0     C 2395   2.881   6.885   8.626 -0.3668 -1.1134 -0.0261
  759MOL0     C 2396   2.945   6.805   8.723 -0.2758  0.4086 -1.0670
  759MOL0     C 2397   3.045   6.703   8.662 -0.3171  0.9990 -0.0313
  759MOL0     H 2398   2.817   6.727   9.320  0.0634  1.6525  0.9366
  759MOL0     H 2399   2.902   6.691   9.520  0.8035 -0.6886  0.1560
  759MOL0     H 2400   3.205   6.588   9.720 -1.5595 -1.2867 -0.9289
  759MOL0     H 2401   3.211   6.541   9.557 -0.5863  1.7752 -2.7945
  759MOL0     H 2402   3.421   6.670   9.525 -1.0531 -4.5166 -1.3353
  759MOL0     H 2403   3.444   6.594   9.680 -1.7969 -0.5679  2.6906
  759MOL0     H 2404   3.330   6.864   9.726  1.4668  1.7156 -0.2287
  759MOL0     H 2405   3.464   6.865   9.610 -1.1778 -0.0871 -0.5477
  759MOL0     H 2406   3.605   6.782   9.801 -0.1745  1.9505  1.9359
  759MOL0     H 2407   3.499   6.915   9.859 -5.6083  0.2971  0.9093
  759MOL0     H 2408   3.345   6.739   9.927 -0.2057  0.7411 -1.3399
  759MOL0     H 2409   3.479   6.609   9.910 -0.3983  0.5302 -0.4874
  759MOL0     H 2410   3.631   6.750  10.045 -0.0886  2.0295 -1.1822
  759MOL0     H 2411   3.521   6.868  10.066  2.9340 -0.2653  0.5610
  759MOL0     H 2412   3.442   6.587  10.163  0.3433 -0.1493  1.1679
  759MOL0     H 2413   3.346   6.740  10.167  0.3822 -1.2642 -0.1669
  759MOL0     H 2414   3.618   6.707  10.299  0.7097 -3.9164  1.4086
  759MOL0     H 2415   3.493   6.828  10.333 -1.6843  0.7037 -3.2036
  759MOL0     H 2416   3.242   6.691  10.440 -0.5203 -2.0192  0.7788
  759MOL0     H 2417   3.285   6.436  10.732  0.8875  0.5708  1.0275
  759MOL0     H 2418   3.234   6.603  10.723 -1.3710  0.9043 -1.0954
  759MOL0     H 2419   3.125   6.418  10.515 -0.3367  3.0495 -2.1477
  759MOL0     H 2420   3.062   6.403  10.692  2.9735  1.3778  2.0953
  759MOL0     H 2421   3.047   6.627  10.496  3.3019 -0.4374  0.7175
  759MOL0     H 2422   2.994   6.647  10.668 -1.9452 -2.5564  1.1683
  759MOL0     H 2423   2.785   6.600  10.562  1.3364  2.2407  3.0091
  759MOL0     H 2424   2.831   6.467  10.665  0.5290  3.8042  1.2727
  759MOL0     H 2425   2.788   6.318  10.265 -0.5860  3.4127 -0.6469
  759MOL0     H 2426   2.589   6.170  10.208  1.4961  1.4757 -0.4260
  759MOL0     H 2427   2.173   5.919  10.343  0.7023  2.0341 -0.1667
  759MOL0     H 2428   1.986   5.808  10.226 -0.2641  0.2972 -0.7239
  759MOL0     H 2429   1.800   5.805  10.115 -1.4928 -1.6776  0.9433
  759MOL0     H 2430   1.735   5.799   9.953  0.3348  0.1370 -0.0609
  759MOL0     H 2431   1.918   5.587  10.077 -1.0454 -5.1301 -1.8171
  759MOL0     H 2432   1.748   5.584  10.047  0.7830 -2.8976 -1.3560
  759MOL0     H 2433   1.780   5.583   9.805  0.0096 -0.7398 -1.1181
  759MOL0     H 2434   1.950   5.629   9.824 -0.3091  0.8596  1.4272
  759MOL0     H 2435   1.856   5.368   9.936  1.2696  2.4371  1.6630
  759MOL0     H 2436   2.016   5.423   9.902 -0.1995 -4.8898  0.2295
  759MOL0     H 2437   1.962   5.421   9.645 -0.4315  0.1690 -0.8652
  759MOL0     H 2438   1.801   5.389   9.675 -0.0816 -0.2374 -1.3029
  759MOL0     H 2439   2.046   5.210   9.759 -0.4646  2.9192  1.4366
  759MOL0     H 2440   1.877   5.157   9.788  1.4046  1.0242  1.6521
  759MOL0     H 2441   2.000   5.198   9.518 -0.1198  3.3853  2.7361
  759MOL0     H 2442   1.832   5.182   9.539 -0.1441 -0.3314  2.1930
  759MOL0     H 2443   1.915   4.968   9.470  1.1806  2.7795 -0.4131
  759MOL0     H 2444   2.047   4.979   9.589 -1.0081 -0.2240  3.3434
  759MOL0     H 2445   2.153   5.955   9.860  0.0029  0.3606 -1.4208
  759MOL0     H 2446   2.330   6.063   9.982 -1.0857  1.4881  1.7832
  759MOL0     H 2447   2.437   6.231  10.597 -1.2117  0.7010 -1.4739
  759MOL0     H 2448   2.642   6.379  10.649  0.6659  1.1050 -1.1629
  759MOL0     H 2449   3.304   6.786   9.369 -0.2235 -0.5554  1.6908
  759MOL0     H 2450   3.205   6.827   9.156  0.3809 -1.0387 -0.3373
  759MOL0     H 2451   2.782   6.946   8.998 -0.2416 -1.0513  0.7937
  759MOL0     H 2452   2.654   7.041   8.821  0.9958  1.9668 -1.8734
  759MOL0     H 2453   2.608   7.195   8.672  1.5792  2.6788 -0.0457
  759MOL0     H 2454   2.614   7.210   8.498 -0.2574 -1.0670 -0.2870
  759MOL0     H 2455   2.863   7.221   8.674  0.0912  3.4840  2.2551
  759MOL0     H 2456   2.779   7.372   8.650 -0.9116  0.4712 -1.0133
  759MOL0     H 2457   2.813   7.304   8.393 -2.0302 -3.0797  2.1965
  759MOL0     H 2458   2.914   7.180   8.459  2.1206  0.9729  0.5866
  759MOL0     H 2459   2.925   7.489   8.472  0.5210  1.3640 -2.0661
  759MOL0     H 2460   3.047   7.383   8.571  0.7427  1.1764 -0.6798
  759MOL0     H 2461   3.176   7.445   8.169  0.3838 -2.1234 -1.1951
  759MOL0     H 2462   2.891   6.867   8.519 -1.7459 -1.4709 -0.1120
  759MOL0     H 2463   3.149   6.720   8.689  0.6534 -1.9092 -1.4750
  759MOL0     H 2464   3.000   6.607   8.691  1.9535 -0.7771 -1.9586
  759MOL0     H 2465   3.045   6.705   8.553 -2.1626 -2.0981 -0.2047
  760MOL0     O 2466   6.364   0.446  10.039  0.4533 -0.1733  0.3231
  760MOL0     C 2467   6.340   0.538  10.109  1.2605 -0.4393  0.2085
  760MOL0     O 2468   6.213   0.562  10.146 -0.2196 -0.3542 -0.2105
  760MOL0     C 2469   6.115   0.471  10.131 -0.4190 -0.2464  0.3073
  760MOL0     C 2470   6.135   0.339  10.170 -0.8239 -0.2768  0.5786
  760MOL0     C 2471   6.033   0.238  10.166  1.6496 -0.2187  0.7511
  760MOL0     C 2472   5.902   0.275  10.135 -0.3018 -0.3820  0.2206
  760MOL0     O 2473   5.806   0.176  10.146 -0.5759 -0.0230  0.4855
  760MOL0     C 2474   5.673   0.197  10.092 -0.5020  0.3999  0.2185
  760MOL0     C 2475   5.589   0.260  10.209 -0.5874  0.6006 -1.4662
  760MOL0     C 2476   5.564   0.158  10.322 -0.2412  1.0264  0.1373
  760MOL0     C 2477   5.561   0.216  10.456 -0.1796  0.2957 -0.0284
  760MOL0     C 2478   5.497   0.116  10.559 -0.1213  0.1597  0.2571
  760MOL0     C 2479   5.497   0.184  10.697 -0.5474 -0.0497 -0.0287
  760MOL0     C 2480   5.423   0.101  10.800  0.3387 -0.8710 -0.2536
  760MOL0     C 2481   5.269   0.134  10.816 -0.9954  1.0051  0.4062
  760MOL0     N 2482   5.203   0.052  10.911  0.3925  0.3203  0.1979
  760MOL0     C 2483   5.243   0.043  11.044  0.1612 -0.8287  1.4601
  760MOL0     C 2484   5.140  -0.017  11.107  0.1374  0.5096 -0.1617
  760MOL0     C 2485   5.126  -0.069  11.243  0.1210 -0.1550 -0.3238
  760MOL0     C 2486   5.052   0.041  11.327  0.1274 -0.9256 -0.1685
  760MOL0     C 2487   5.038   0.013  11.481  0.1016  0.0044  0.3036
  760MOL0     C 2488   4.962  -0.119  11.503 -0.6437 -0.4890 -0.4498
  760MOL0     O 2489   4.845  -0.136  11.417 -0.4229 -0.0438  0.3661
  760MOL0     C 2490   4.768  -0.249  11.458  0.4977  0.1691  0.6174
  760MOL0     C 2491   4.711  -0.252  11.589 -0.5384 -0.3144  0.3490
  760MOL0     C 2492   4.614  -0.343  11.619 -0.5962 -0.0373 -0.4054
  760MOL0     C 2493   4.577  -0.446  11.533  0.8221 -0.7665  1.1283
  760MOL0     C 2494   4.471  -0.548  11.567 -0.7608  0.0589  0.3684
  760MOL0     O 2495   4.379  -0.581  11.471  0.7716 -0.4513  0.3564
  760MOL0     C 2496   4.292  -0.681  11.488 -0.4618 -0.2901  0.2378
  760MOL0     C 2497   4.293  -0.779  11.395  0.8413 -0.3332  0.1357
  760MOL0     C 2498   4.203  -0.884  11.403  0.3271  1.1768 -0.6375
  760MOL0     C 2499   4.117  -0.899  11.518 -0.6489 -0.7966  0.6799
  760MOL0     O 2500   4.037  -1.007  11.549 -0.8632  0.6662  0.3517
  760MOL0     C 2501   4.028  -1.121  11.457  0.2637  0.0402 -0.2035
  760MOL0     C 2502   3.923  -1.214  11.508  0.2245 -0.4628  0.8850
  760MOL0     C 2503   3.901  -1.335  11.420  0.2872 -0.2554  0.1579
  760MOL0     C 2504   3.787  -1.420  11.483  1.6361 -0.0543 -1.2206
  760MOL0     C 2505   3.783  -1.553  11.415 -0.5984  0.2627  0.3258
  760MOL0     C 2506   3.648  -1.619  11.426 -0.0077  0.1489  0.3838
  760MOL0     C 2507   3.643  -1.749  11.348  0.1523 -1.1074  1.0657
  760MOL0     C 2508   3.543  -1.859  11.384  1.7019 -0.7658 -1.1627
  760MOL0    Cl 2509   3.363  -1.805  11.362 -0.3208  0.0894  0.0442
  760MOL0     C 2510   4.111  -0.796  11.611  0.3106 -0.7688  0.0662
  760MOL0     C 2511   4.207  -0.696  11.603 -0.2824 -0.4821  0.8128
  760MOL0     O 2512   4.472  -0.591  11.683 -0.2845 -0.3170  0.6892
  760MOL0     C 2513   4.653  -0.460  11.410 -0.0310 -0.0726 -0.0044
  760MOL0     C 2514   4.743  -0.357  11.369  1.0941 -0.4013  0.6208
  760MOL0     N 2515   5.034  -0.039  11.014  0.7206 -0.9074 -0.1077
  760MOL0     N 2516   5.073   0.011  10.903 -0.2781 -0.8261  0.2650
  760MOL0     C 2517   5.887   0.410  10.090 -0.7342 -0.1031  0.7234
  760MOL0     C 2518   5.992   0.503  10.081  0.5426 -0.2356 -0.0770
  760MOL0     C 2519   6.434   0.621  10.182  0.1866 -0.4469  0.1598
  760MOL0     C 2520   6.382   0.700  10.285  0.1238  0.0055 -0.3656
  760MOL0     C 2521   6.460   0.783  10.363  0.4649 -0.1655  0.1333
  760MOL0     C 2522   6.602   0.789  10.347  0.6607 -0.8745 -0.9520
  760MOL0     O 2523   6.673   0.866  10.435  0.3730 -0.0916 -0.5394
  760MOL0     C 2524   6.617   0.994  10.486 -0.9735 -0.1927  0.1659
  760MOL0     C 2525   6.736   1.071  10.554  0.2733  0.1175  0.4711
  760MOL0     C 2526   6.715   1.212  10.610  0.9547 -1.3663 -0.6378
  760MOL0     C 2527   6.736   1.338  10.519 -0.8314  0.0118  0.2399
  760MOL0     C 2528   6.687   1.329  10.379 -0.1311 -1.0981  0.6110
  760MOL0     C 2529   6.647   1.350  10.266  0.0580 -1.0620  0.7845
  760MOL0     C 2530   6.659   0.704  10.256  0.0905 -0.0655 -0.3720
  760MOL0     C 2531   6.574   0.627  10.168 -1.2691  0.8985 -0.5625
  760MOL0     C 2532   6.651   0.572  10.055 -0.3669 -0.2341  0.7349
  760MOL0     H 2533   6.234   0.306  10.199 -0.7106 -2.3547 -1.8580
  760MOL0     H 2534   6.051   0.136  10.198  0.3757 -1.2098 -1.4897
  760MOL0     H 2535   5.661   0.249   9.997 -0.3088  0.6224  0.3177
  760MOL0     H 2536   5.619   0.105  10.068 -0.6946  0.5452  0.0883
  760MOL0     H 2537   5.492   0.297  10.175  0.1093  2.4528 -1.5494
  760MOL0     H 2538   5.648   0.344  10.246  0.3246 -0.3131 -0.7992
  760MOL0     H 2539   5.645   0.085  10.318  3.3017  4.6107  0.2681
  760MOL0     H 2540   5.476   0.097  10.299  0.9680 -1.1929  1.0742
  760MOL0     H 2541   5.657   0.254  10.491 -1.1984 -0.8562  4.7344
  760MOL0     H 2542   5.493   0.301  10.461  0.0237  0.4036  1.3782
  760MOL0     H 2543   5.395   0.100  10.524  0.9346 -3.9630 -1.6265
  760MOL0     H 2544   5.551   0.021  10.563 -2.0686 -1.0074  0.1340
  760MOL0     H 2545   5.601   0.198  10.727 -0.7530 -0.9020  1.1699
  760MOL0     H 2546   5.461   0.287  10.694  1.5123  0.9399  3.4314
  760MOL0     H 2547   5.473   0.130  10.892 -0.0483  4.3040 -1.4017
  760MOL0     H 2548   5.451  -0.005  10.791 -1.0898 -1.4602  1.4790
  760MOL0     H 2549   5.254   0.240  10.838  0.1067  0.8854  1.8881
  760MOL0     H 2550   5.230   0.116  10.715  2.0132  0.2653 -0.7347
  760MOL0     H 2551   5.336   0.091  11.075  0.6383 -0.5577 -0.2489
  760MOL0     H 2552   5.070  -0.163  11.251  0.0768 -0.2871 -1.8837
  760MOL0     H 2553   5.223  -0.075  11.293 -0.6487  2.0457  1.6458
  760MOL0     H 2554   5.113   0.130  11.310 -0.4768 -0.7868 -1.8108
  760MOL0     H 2555   4.954   0.065  11.283  0.5670 -2.6852 -2.2938
  760MOL0     H 2556   4.990   0.105  11.515  1.3271  2.4145 -3.8143
  760MOL0     H 2557   5.134   0.004  11.532  0.7154  1.0687 -0.6223
  760MOL0     H 2558   4.933  -0.117  11.608  1.3256 -0.8742  0.1206
  760MOL0     H 2559   5.032  -0.201  11.484  1.3076  0.4701  2.1663
  760MOL0     H 2560   4.724  -0.164  11.652  1.0989 -1.1549  1.2637
  760MOL0     H 2561   4.559  -0.337  11.712  0.5815 -1.2242  0.3950
  760MOL0     H 2562   4.349  -0.764  11.303 -1.1977  1.5599 -0.8798
  760MOL0     H 2563   4.191  -0.960  11.327 -0.4263 -1.7121  2.1439
  760MOL0     H 2564   4.006  -1.090  11.354 -0.3249 -1.0417 -0.4226
  760MOL0     H 2565   4.124  -1.172  11.467 -0.1677 -0.7212  0.1230
  760MOL0     H 2566   3.959  -1.246  11.607 -1.4256 -2.7706  0.8239
  760MOL0     H 2567   3.830  -1.156  11.512  0.6814  0.2427  2.5514
  760MOL0     H 2568   3.860  -1.310  11.322 -2.3752  1.8403  1.6533
  760MOL0     H 2569   3.996  -1.389  11.411 -1.2360 -3.2504  0.5068
  760MOL0     H 2570   3.694  -1.365  11.470  1.6731  0.2047 -0.4513
  760MOL0     H 2571   3.796  -1.434  11.591  0.6719 -2.0570 -1.3528
  760MOL0     H 2572   3.853  -1.621  11.464  0.4669  0.1408 -1.3098
  760MOL0     H 2573   3.814  -1.535  11.312  0.2254  0.9145  0.6881
  760MOL0     H 2574   3.629  -1.640  11.532  0.1716 -2.3194 -0.0122
  760MOL0     H 2575   3.570  -1.549  11.395  0.8813  0.1400 -2.1195
  760MOL0     H 2576   3.736  -1.799  11.376  0.6316 -1.4800 -0.9974
  760MOL0     H 2577   3.656  -1.721  11.243  0.5742 -0.3653  1.3030
  760MOL0     H 2578   3.564  -1.944  11.319 -3.2517 -2.6707 -0.7064
  760MOL0     H 2579   3.563  -1.897  11.485 -0.8123 -0.3568 -0.4581
  760MOL0     H 2580   4.031  -0.791  11.684 -0.7069 -1.8913 -0.9379
  760MOL0     H 2581   4.214  -0.626  11.686  1.1369  0.6205 -0.1861
  760MOL0     H 2582   4.618  -0.528  11.333  1.5288 -0.3631 -0.5039
  760MOL0     H 2583   4.791  -0.352  11.272  0.3483  2.8377  0.3042
  760MOL0     H 2584   5.793   0.450  10.051  0.5683  3.1875  0.6777
  760MOL0     H 2585   5.972   0.606  10.054 -2.2818 -0.7515 -0.3011
  760MOL0     H 2586   6.278   0.703  10.317 -0.3211 -3.0452 -1.2799
  760MOL0     H 2587   6.416   0.841  10.443  1.5999 -1.4007  1.7252
  760MOL0     H 2588   6.536   0.989  10.560 -0.5414  0.2696  0.6807
  760MOL0     H 2589   6.583   1.057  10.403  2.7146  0.5226 -0.9661
  760MOL0     H 2590   6.814   1.091  10.480  0.1615  1.3623  0.6640
  760MOL0     H 2591   6.773   1.010  10.638  2.4380 -2.0332 -1.8756
  760MOL0     H 2592   6.782   1.234  10.694 -0.5114  2.7013 -0.3336
  760MOL0     H 2593   6.611   1.212  10.642  0.9265 -1.0135 -0.7259
  760MOL0     H 2594   6.713   1.429  10.576  1.1853 -0.2874  1.6599
  760MOL0     H 2595   6.844   1.351  10.506 -0.9554  0.5989 -0.2560
  760MOL0     H 2596   6.604   1.353  10.168  2.7809 -0.6777 -0.4797
  760MOL0     H 2597   6.767   0.700  10.244  0.2602 -3.4015  1.0906
  760MOL0     H 2598   6.619   0.622   9.963  0.5095  3.2984  2.1780
  760MOL0     H 2599   6.758   0.565  10.078  0.1163  1.7480 -0.5684
  760MOL0     H 2600   6.614   0.473  10.029 -0.3636  0.1937 -1.0521
  761MOL0     O 2601   3.419   6.352   2.290  1.0250  0.3169 -0.1005
  761MOL0     C 2602   3.460   6.315   2.182  0.6297 -0.1236 -0.4286
  761MOL0     O 2603   3.502   6.400   2.088  0.0398  0.2899 -0.2994
  761MOL0     C 2604   3.523   6.535   2.103  0.7375 -0.3067  0.6907
  761MOL0     C 2605   3.502   6.604   1.987  0.2392 -0.7133  0.0008
  761MOL0     C 2606   3.523   6.740   1.995 -0.0453 -1.2056 -1.2644
  761MOL0     C 2607   3.559   6.811   2.121  0.1856  0.2774 -0.2172
  761MOL0     O 2608   3.589   6.945   2.135  0.4313 -1.0881  0.1616
  761MOL0     C 2609   3.572   7.034   2.020  0.3876 -1.2163  0.3944
  761MOL0     C 2610   3.625   7.179   2.052 -1.0736 -0.3116 -0.1257
  761MOL0     C 2611   3.664   7.257   1.928  0.3457  0.2521 -0.1550
  761MOL0     C 2612   3.719   7.395   1.966  0.2357 -0.3508  0.2359
  761MOL0     C 2613   3.779   7.473   1.849 -0.3808  0.6577  0.2668
  761MOL0     C 2614   3.669   7.533   1.767  0.1484 -0.7222 -0.2292
  761MOL0     C 2615   3.727   7.628   1.657 -0.3219  0.0760 -0.0617
  761MOL0     C 2616   3.630   7.704   1.565 -0.3240  0.5298 -0.3426
  761MOL0     N 2617   3.704   7.826   1.524 -0.0696 -0.0579  1.9065
  761MOL0     C 2618   3.806   7.841   1.422 -0.7642  0.1966 -0.8399
  761MOL0     C 2619   3.814   7.972   1.408 -0.2573 -0.8707 -0.3214
  761MOL0     C 2620   3.922   8.045   1.320  0.4432  0.3556 -0.2270
  761MOL0     C 2621   3.864   8.102   1.190 -0.4607 -0.2160 -0.4426
  761MOL0     C 2622   3.761   8.214   1.221 -0.3259 -0.1609 -0.3309
  761MOL0     C 2623   3.725   8.292   1.100  0.7698  0.3040 -0.0518
  761MOL0     O 2624   3.622   8.382   1.133  0.5576 -0.8961  0.2054
  761MOL0     C 2625   3.649   8.499   1.207 -0.1868  1.0222 -0.7108
  761MOL0     C 2626   3.533   8.576   1.234 -0.7392 -0.0380  0.2399
  761MOL0     C 2627   3.549   8.695   1.309 -0.0017 -0.2921 -0.2322
  761MOL0     C 2628   3.681   8.742   1.353  0.5782 -0.8094 -0.3946
  761MOL0     C 2629   3.691   8.844   1.461 -0.0187  0.0252 -0.5234
  761MOL0     O 2630   3.795   8.832   1.549 -0.1519 -0.0640  0.0163
  761MOL0     C 2631   3.803   8.929   1.650  0.7371  0.2864 -0.1546
  761MOL0     C 2632   3.778   9.070   1.638  1.0803 -0.0039  0.7576
  761MOL0     C 2633   3.779   9.148   1.757  0.2825  0.8454 -0.1534
  761MOL0     C 2634   3.807   9.088   1.879 -0.3497 -0.6931  0.3930
  761MOL0     O 2635   3.810   9.148   2.007  0.0744 -0.1189 -0.0625
  761MOL0     C 2636   3.763   9.279   2.034  0.6189 -0.6025  0.1251
  761MOL0     C 2637   3.613   9.293   2.061 -0.1619  0.3291 -0.0927
  761MOL0     C 2638   3.578   9.439   2.031 -0.1137 -0.5527 -0.0766
  761MOL0     C 2639   3.426   9.463   2.041 -0.8150  0.9586 -0.5997
  761MOL0     C 2640   3.393   9.610   2.087  0.0155  0.4963 -0.3705
  761MOL0     C 2641   3.407   9.711   1.978 -0.4562  0.5284 -0.7314
  761MOL0     C 2642   3.425   9.868   2.033  0.3717  0.8242  0.3365
  761MOL0     C 2643   3.490   9.962   1.942 -0.8907 -0.2281 -0.2262
  761MOL0    Cl 2644   3.421   9.949   1.792 -0.1671 -0.2994 -0.6195
  761MOL0     C 2645   3.851   8.955   1.882 -0.4872  0.5705  0.6810
  761MOL0     C 2646   3.857   8.881   1.775  0.1613  0.8206  0.0983
  761MOL0     O 2647   3.609   8.933   1.463  0.4557  0.0338  0.2054
  761MOL0     C 2648   3.792   8.669   1.325 -0.1070 -0.3985 -0.4081
  761MOL0     C 2649   3.774   8.549   1.241 -0.4506 -0.4801 -0.0030
  761MOL0     N 2650   3.731   8.032   1.501  0.4577 -0.6508  0.5590
  761MOL0     N 2651   3.673   7.949   1.570  0.1071  0.2325 -0.0862
  761MOL0     C 2652   3.574   6.732   2.238  1.3695  0.4872  0.3966
  761MOL0     C 2653   3.552   6.595   2.228 -0.1831 -0.5455  0.4488
  761MOL0     C 2654   3.467   6.173   2.154 -0.2996  0.1885 -0.4081
  761MOL0     C 2655   3.354   6.097   2.174  0.1071 -0.2248  0.3909
  761MOL0     C 2656   3.339   5.965   2.140 -0.0507  0.3285 -0.3713
  761MOL0     C 2657   3.430   5.902   2.060 -0.2912  0.1542 -0.6774
  761MOL0     O 2658   3.394   5.785   1.998 -0.2292  0.1939  0.0561
  761MOL0     C 2659   3.472   5.716   1.909  0.0558  0.1199 -0.0470
  761MOL0     C 2660   3.444   5.565   1.900  0.8883  0.5898  0.3348
  761MOL0     C 2661   3.522   5.478   1.995 -0.3939 -0.8960  1.3848
  761MOL0     C 2662   3.482   5.324   1.983 -0.1710 -1.0593  0.8200
  761MOL0     C 2663   3.469   5.254   2.109 -0.0974 -0.9596  0.4007
  761MOL0     C 2664   3.472   5.190   2.213  0.0421 -0.5968 -0.6375
  761MOL0     C 2665   3.548   5.970   2.027  0.4517  0.1730 -0.1691
  761MOL0     C 2666   3.568   6.106   2.079 -0.2813 -0.3118  0.1252
  761MOL0     C 2667   3.705   6.174   2.042  0.9327  0.4507 -0.6896
  761MOL0     H 2668   3.473   6.552   1.896 -0.9362  1.0104 -0.6557
  761MOL0     H 2669   3.507   6.787   1.899 -3.3009 -2.2303 -1.3570
  761MOL0     H 2670   3.635   6.993   1.940  5.1726  4.9334  0.2810
  761MOL0     H 2671   3.466   7.040   1.995 -0.1124 -1.6244  2.2749
  761MOL0     H 2672   3.717   7.159   2.108 -0.2053 -1.3738 -1.8621
  761MOL0     H 2673   3.555   7.232   2.117 -0.2515  0.9331 -0.2232
  761MOL0     H 2674   3.576   7.254   1.862 -2.1253 -3.1429  2.9126
  761MOL0     H 2675   3.737   7.192   1.879  1.3774  1.1924  0.0869
  761MOL0     H 2676   3.635   7.457   2.001 -1.4776 -2.5346  0.2068
  761MOL0     H 2677   3.795   7.379   2.043  0.9202 -1.4449 -0.6369
  761MOL0     H 2678   3.830   7.563   1.883  0.5916 -0.1587  1.0175
  761MOL0     H 2679   3.839   7.411   1.782 -2.8140 -0.4688 -1.0111
  761MOL0     H 2680   3.622   7.454   1.707  0.4933  0.0526 -1.5602
  761MOL0     H 2681   3.582   7.576   1.817 -1.8463 -3.1265 -1.4206
  761MOL0     H 2682   3.784   7.567   1.587 -1.4022  0.5761 -1.4147
  761MOL0     H 2683   3.808   7.690   1.698  0.0324 -0.1838 -0.3640
  761MOL0     H 2684   3.602   7.636   1.484  0.5657  1.4644 -1.4626
  761MOL0     H 2685   3.542   7.735   1.623  1.0914  3.1108  0.6126
  761MOL0     H 2686   3.868   7.769   1.370  0.8689  1.8136 -1.2477
  761MOL0     H 2687   3.962   8.129   1.378  2.0228 -0.5861  0.1256
  761MOL0     H 2688   4.010   7.981   1.309 -1.2048 -2.3297  1.1930
  761MOL0     H 2689   3.942   8.150   1.129  0.2610  0.0061  0.6353
  761MOL0     H 2690   3.822   8.024   1.125 -0.0401  0.1614 -1.1843
  761MOL0     H 2691   3.801   8.280   1.298 -1.6775  0.9719 -0.5586
  761MOL0     H 2692   3.672   8.167   1.264  1.5271 -1.1880  2.7301
  761MOL0     H 2693   3.684   8.237   1.015  3.3464 -0.0558 -1.1391
  761MOL0     H 2694   3.813   8.342   1.059  1.3686 -0.3119  0.4870
  761MOL0     H 2695   3.433   8.535   1.226  0.1273 -1.9025 -1.9508
  761MOL0     H 2696   3.465   8.749   1.351  0.6172  0.1877  0.4125
  761MOL0     H 2697   3.748   9.115   1.544  0.7963  1.8287  1.6866
  761MOL0     H 2698   3.736   9.247   1.745  0.7907  0.9825 -0.9712
  761MOL0     H 2699   3.802   9.317   2.129 -1.4751  0.8500  0.4710
  761MOL0     H 2700   3.799   9.358   1.968  1.1079  0.2044  1.3124
  761MOL0     H 2701   3.556   9.226   1.996  2.4676  0.2475 -2.4821
  761MOL0     H 2702   3.590   9.267   2.165 -1.6464  1.2533 -0.1518
  761MOL0     H 2703   3.624   9.504   2.106 -1.4196 -0.8426  1.0264
  761MOL0     H 2704   3.609   9.472   1.931 -2.5459  0.9868 -0.4093
  761MOL0     H 2705   3.392   9.389   2.114 -0.2786  1.4970  0.2222
  761MOL0     H 2706   3.380   9.433   1.947  0.2367 -2.7359 -0.1123
  761MOL0     H 2707   3.457   9.641   2.170  0.6024 -1.5155 -0.0203
  761MOL0     H 2708   3.289   9.630   2.115 -0.1400  3.3551 -2.5392
  761MOL0     H 2709   3.496   9.688   1.920 -1.6697  0.6487 -2.7503
  761MOL0     H 2710   3.323   9.701   1.908 -0.0008 -3.3911 -0.9135
  761MOL0     H 2711   3.483   9.867   2.125 -1.2448  0.6548  1.3891
  761MOL0     H 2712   3.324   9.902   2.058  1.4995  5.0893 -0.2049
  761MOL0     H 2713   3.475  10.068   1.967  4.9150  0.8767 -0.0697
  761MOL0     H 2714   3.599   9.948   1.943 -0.3104  3.1394  2.4984
  761MOL0     H 2715   3.903   8.938   1.976  0.1225  1.0115  0.4261
  761MOL0     H 2716   3.897   8.781   1.790  0.5604  0.9519 -0.0718
  761MOL0     H 2717   3.894   8.695   1.353  0.2221  1.4230 -2.9404
  761MOL0     H 2718   3.862   8.505   1.194  0.9663  1.2351  0.9017
  761MOL0     H 2719   3.607   6.769   2.334  3.1669 -0.8957  0.3616
  761MOL0     H 2720   3.565   6.536   2.318 -0.5815  1.2616  1.7229
  761MOL0     H 2721   3.277   6.134   2.241  2.8854  0.8200  3.2458
  761MOL0     H 2722   3.261   5.899   2.177 -0.9725  0.1541 -2.4603
  761MOL0     H 2723   3.580   5.723   1.925 -0.1682 -1.0474  2.4463
  761MOL0     H 2724   3.442   5.756   1.811 -2.8902 -0.7670  0.3821
  761MOL0     H 2725   3.465   5.528   1.799 -3.3387  0.0186 -0.5299
  761MOL0     H 2726   3.337   5.548   1.914  0.2117  0.8357 -3.4204
  761MOL0     H 2727   3.491   5.511   2.095 -0.8711 -0.1223  0.9796
  761MOL0     H 2728   3.625   5.509   1.976 -0.9879  0.7735  0.7714
  761MOL0     H 2729   3.379   5.318   1.944  0.8686 -1.1848 -2.1887
  761MOL0     H 2730   3.544   5.259   1.921  0.0946 -1.2853  1.3222
  761MOL0     H 2731   3.470   5.150   2.312  1.0024  0.9123  0.0372
  761MOL0     H 2732   3.628   5.930   1.966 -0.8114  0.1829 -1.8756
  761MOL0     H 2733   3.713   6.277   2.077  1.8105 -0.2127  1.2023
  761MOL0     H 2734   3.792   6.120   2.079  1.9509  3.3958  1.5646
  761MOL0     H 2735   3.717   6.178   1.933  1.8840 -4.0536 -0.9746
  762MOL0     O 2736   2.392   5.099  10.650  0.0172  0.7735  0.2590
  762MOL0     C 2737   2.470   5.037  10.570 -0.4904  0.0414  0.4126
  762MOL0     O 2738   2.486   4.909  10.560  0.1732  0.4301 -0.3210
  762MOL0     C 2739   2.392   4.824  10.616  0.1057 -0.8820  0.4773
  762MOL0     C 2740   2.259   4.859  10.666 -0.3372  0.3312 -0.4027
  762MOL0     C 2741   2.184   4.755  10.723 -0.6126 -1.1491 -0.8629
  762MOL0     C 2742   2.236   4.623  10.734  0.2311 -0.6225 -0.3063
  762MOL0     O 2743   2.176   4.511  10.796  0.6622 -0.0122 -0.3652
  762MOL0     C 2744   2.038   4.523  10.836  0.2265 -1.2969 -0.4586
  762MOL0     C 2745   1.994   4.385  10.845  0.0302 -0.0920 -0.4412
  762MOL0     C 2746   1.848   4.386  10.883  0.4291 -1.5102  0.5239
  762MOL0     C 2747   1.790   4.254  10.884  0.1449 -0.0701 -0.8702
  762MOL0     C 2748   1.774   4.184  10.746 -1.1018 -0.8682  0.3443
  762MOL0     C 2749   1.681   4.056  10.760 -0.8783  0.0054 -0.3273
  762MOL0     C 2750   1.674   3.970  10.635 -0.6484  0.4556  0.4272
  762MOL0     C 2751   1.568   4.022  10.532 -0.0924  0.3763 -0.8340
  762MOL0     N 2752   1.554   3.938  10.418 -1.3000 -0.6903  0.7507
  762MOL0     C 2753   1.559   3.793  10.406 -1.1973 -0.2136 -0.9085
  762MOL0     C 2754   1.494   3.768  10.291  0.5503 -0.1964 -0.4653
  762MOL0     C 2755   1.486   3.640  10.219 -0.4557 -0.1108 -0.6454
  762MOL0     C 2756   1.559   3.656  10.079  0.4929  0.2636  0.0978
  762MOL0     C 2757   1.536   3.536   9.992  0.6258 -0.2037  0.7613
  762MOL0     C 2758   1.616   3.415  10.021  0.9905 -1.2045  0.2097
  762MOL0     O 2759   1.750   3.442  10.004  0.5233 -0.7156  0.3329
  762MOL0     C 2760   1.835   3.343   9.992  0.5207  0.6658  0.5658
  762MOL0     C 2761   1.944   3.335   9.897  1.1771 -0.3705 -0.7213
  762MOL0     C 2762   2.035   3.229   9.896 -0.5762  0.2453 -0.4510
  762MOL0     C 2763   2.043   3.148  10.007 -0.2084  0.6394  0.5572
  762MOL0     C 2764   2.145   3.044  10.023 -0.3274  0.4232 -0.0467
  762MOL0     O 2765   2.149   2.969  10.138 -0.2078 -0.0129  0.5922
  762MOL0     C 2766   2.236   2.862  10.158 -0.3901  0.0452  0.0649
  762MOL0     C 2767   2.257   2.759  10.063 -0.0474 -0.7152  0.3124
  762MOL0     C 2768   2.332   2.650  10.096  0.6642 -0.2511  0.3589
  762MOL0     C 2769   2.396   2.637  10.221  1.0732 -0.1372 -0.3339
  762MOL0     O 2770   2.447   2.529  10.274  0.2206  0.2823 -0.7226
  762MOL0     C 2771   2.483   2.423  10.194  0.3407  0.2603 -0.1812
  762MOL0     C 2772   2.532   2.312  10.288  0.5942 -0.0167 -1.0858
  762MOL0     C 2773   2.650   2.356  10.370 -0.7764  0.2070 -0.2325
  762MOL0     C 2774   2.686   2.246  10.478  0.1112 -0.0877  0.4073
  762MOL0     C 2775   2.802   2.287  10.558 -0.5928 -0.6354 -0.1153
  762MOL0     C 2776   2.833   2.179  10.656 -0.0938  0.7311 -0.3185
  762MOL0     C 2777   2.914   2.236  10.766 -0.8336 -0.3695  0.0324
  762MOL0     C 2778   2.996   2.127  10.848  0.8645  0.0904  0.4758
  762MOL0    Cl 2779   2.878   2.017  10.937  0.0126  0.1514  0.2052
  762MOL0     C 2780   2.374   2.744  10.315  0.9372 -0.7360  0.4551
  762MOL0     C 2781   2.297   2.850  10.283  0.1729 -0.7957 -0.8401
  762MOL0     O 2782   2.212   3.027   9.922  0.0745  0.6533 -0.6064
  762MOL0     C 2783   1.950   3.167  10.110  0.5675  0.0772 -0.2472
  762MOL0     C 2784   1.850   3.262  10.101  0.5314  0.3044  0.4618
  762MOL0     N 2785   1.423   3.876  10.247  0.2569 -0.0237 -0.2539
  762MOL0     N 2786   1.454   3.974  10.334  0.0839  0.3800 -0.2032
  762MOL0     C 2787   2.358   4.598  10.672  0.1709 -0.4932  0.6125
  762MOL0     C 2788   2.436   4.698  10.621  0.4678 -0.2326  0.4093
  762MOL0     C 2789   2.576   5.117  10.491  0.7769  0.7208 -0.4535
  762MOL0     C 2790   2.646   5.051  10.388 -0.0646 -0.0718  0.1472
  762MOL0     C 2791   2.738   5.137  10.318  1.2407  0.4282  0.3868
  762MOL0     C 2792   2.753   5.270  10.347 -0.0996 -0.3278 -0.8328
  762MOL0     O 2793   2.834   5.352  10.270 -0.1188 -0.1981 -0.0225
  762MOL0     C 2794   2.926   5.287  10.184  0.9301 -0.0198  0.2371
  762MOL0     C 2795   3.029   5.389  10.140  0.2061  0.5371 -0.3630
  762MOL0     C 2796   3.099   5.450  10.267 -0.7652 -0.0317 -0.1093
  762MOL0     C 2797   3.202   5.556  10.242 -0.3824 -1.0245  0.4697
  762MOL0     C 2798   3.129   5.662  10.170  0.1879  0.8920  0.2719
  762MOL0     C 2799   3.047   5.747  10.121  0.0236 -1.2490 -0.0077
  762MOL0     C 2800   2.691   5.331  10.452 -0.5539 -0.3949  0.2435
  762MOL0     C 2801   2.603   5.253  10.526  0.0616 -0.2159 -0.0238
  762MOL0     C 2802   2.552   5.323  10.652 -0.3739 -0.4676  0.7185
  762MOL0     H 2803   2.213   4.956  10.680 -0.9619 -0.3032  2.9274
  762MOL0     H 2804   2.093   4.767  10.781 -0.9799 -0.0069 -1.6401
  762MOL0     H 2805   2.027   4.588  10.923 -0.8876 -3.9938  1.5515
  762MOL0     H 2806   1.982   4.559  10.749  0.9906 -0.7251 -0.7270
  762MOL0     H 2807   2.047   4.331  10.923  0.6303  1.1008  0.0066
  762MOL0     H 2808   2.009   4.337  10.748  2.2529 -1.5739  0.5569
  762MOL0     H 2809   1.783   4.446  10.819 -2.0913 -2.4347  2.0344
  762MOL0     H 2810   1.834   4.419  10.987 -2.3792  1.2754 -0.5900
  762MOL0     H 2811   1.843   4.184  10.949  0.4999  1.3713  0.4336
  762MOL0     H 2812   1.687   4.255  10.921 -0.0692 -1.2183 -1.3791
  762MOL0     H 2813   1.720   4.255  10.682 -1.6115 -2.2076 -0.7584
  762MOL0     H 2814   1.865   4.150  10.697  0.3049  2.1235  0.6486
  762MOL0     H 2815   1.720   3.986  10.834  1.3201  1.9194  0.4597
  762MOL0     H 2816   1.581   4.082  10.796 -1.2790  2.3125 -2.8077
  762MOL0     H 2817   1.647   3.867  10.657  2.4762 -0.8905 -1.4768
  762MOL0     H 2818   1.768   3.962  10.581 -1.6710  0.6891 -1.4808
  762MOL0     H 2819   1.471   4.024  10.582 -0.1427  1.1190 -0.9535
  762MOL0     H 2820   1.603   4.122  10.505  0.5181  0.7391  1.1553
  762MOL0     H 2821   1.627   3.722  10.453 -1.7436 -0.7685 -0.9541
  762MOL0     H 2822   1.537   3.559  10.272 -1.4111  0.8663  1.9251
  762MOL0     H 2823   1.379   3.618  10.211 -0.3874 -1.4004  1.3123
  762MOL0     H 2824   1.525   3.746  10.027 -1.6546 -1.0852 -0.9770
  762MOL0     H 2825   1.665   3.671  10.098  0.5453 -0.6635  0.5708
  762MOL0     H 2826   1.536   3.549   9.884 -2.7074  0.1415  0.7021
  762MOL0     H 2827   1.433   3.522  10.026  0.2225 -0.7513 -0.6168
  762MOL0     H 2828   1.581   3.342   9.947  1.2625 -0.5125 -0.6208
  762MOL0     H 2829   1.595   3.379  10.122 -1.6858 -1.1176 -0.2330
  762MOL0     H 2830   1.964   3.416   9.827 -1.5142  1.3701  0.3712
  762MOL0     H 2831   2.098   3.224   9.807 -3.9656 -3.1849 -3.0046
  762MOL0     H 2832   2.207   2.753   9.967  1.3685 -1.7657 -0.3776
  762MOL0     H 2833   2.332   2.574  10.017 -0.5221 -1.3373  1.3560
  762MOL0     H 2834   2.390   2.394  10.143 -0.2554  1.4456  0.1752
  762MOL0     H 2835   2.557   2.452  10.119  0.2450  1.0486  0.0202
  762MOL0     H 2836   2.445   2.290  10.351  1.1201 -2.0177 -0.9664
  762MOL0     H 2837   2.573   2.230  10.228  1.8026  0.1617 -0.5222
  762MOL0     H 2838   2.736   2.386  10.310  1.4518 -1.4836  1.9279
  762MOL0     H 2839   2.631   2.455  10.412 -3.8582  0.1933 -1.3348
  762MOL0     H 2840   2.693   2.147  10.432  3.3320  1.1361 -2.0993
  762MOL0     H 2841   2.606   2.250  10.552 -0.4062  3.8452 -0.1204
  762MOL0     H 2842   2.783   2.379  10.614  1.1229 -0.4655  0.2429
  762MOL0     H 2843   2.879   2.326  10.491  0.4873  0.6617  1.7776
  762MOL0     H 2844   2.751   2.145  10.720  0.1942  3.2797  1.5757
  762MOL0     H 2845   2.880   2.089  10.615 -3.2890 -1.1240 -0.2433
  762MOL0     H 2846   2.847   2.284  10.838 -2.3807 -0.1650 -1.5013
  762MOL0     H 2847   2.992   2.297  10.720 -2.0827 -0.9210 -3.0476
  762MOL0     H 2848   3.072   2.080  10.784  1.1641  2.1584 -0.7761
  762MOL0     H 2849   3.064   2.166  10.924  1.5248 -0.5693  0.2482
  762MOL0     H 2850   2.420   2.740  10.413  1.1126  2.2219  0.5794
  762MOL0     H 2851   2.274   2.924  10.359 -0.8772 -0.2721 -1.6407
  762MOL0     H 2852   1.954   3.111  10.203 -0.8341  0.6814  0.2062
  762MOL0     H 2853   1.788   3.275  10.189  0.5374 -1.1362  0.7110
  762MOL0     H 2854   2.405   4.502  10.688 -1.9750 -1.5205  1.1477
  762MOL0     H 2855   2.535   4.676  10.584  0.5558  0.9760 -0.1093
  762MOL0     H 2856   2.630   4.944  10.375 -3.3408 -0.0637  2.7365
  762MOL0     H 2857   2.799   5.089  10.242  1.4958  2.2548 -0.6196
  762MOL0     H 2858   2.875   5.244  10.098  0.7331 -4.2910  2.2572
  762MOL0     H 2859   2.976   5.207  10.239  0.0340 -1.5603 -1.1023
  762MOL0     H 2860   2.967   5.464  10.089 -0.3324  0.2585 -0.1187
  762MOL0     H 2861   3.103   5.333  10.083  0.6520  1.0633 -0.3076
  762MOL0     H 2862   3.146   5.370  10.325  0.1426  1.6135  1.5452
  762MOL0     H 2863   3.021   5.482  10.336 -2.7068  1.3917 -2.7473
  762MOL0     H 2864   3.234   5.591  10.340  1.6703  1.0477 -0.8178
  762MOL0     H 2865   3.277   5.508  10.178 -1.9716 -2.1489 -0.6384
  762MOL0     H 2866   2.990   5.826  10.079  2.7686  0.3305 -1.0242
  762MOL0     H 2867   2.723   5.433  10.470 -2.4229  0.7579 -2.4225
  762MOL0     H 2868   2.444   5.332  10.636 -0.0561  2.4431 -0.3879
  762MOL0     H 2869   2.587   5.269  10.740  1.0322 -0.8930 -0.0639
  762MOL0     H 2870   2.590   5.425  10.654 -2.0466  0.5364 -4.1674
  763MOL0     O 2871   6.711   6.536  10.876 -1.0275  0.2206 -0.3433
  763MOL0     C 2872   6.617   6.497  10.940  1.0514  0.1751 -0.1276
  763MOL0     O 2873   6.621   6.459  11.071  0.4859 -0.9728  0.7932
  763MOL0     C 2874   6.730   6.473  11.142  0.3457 -1.1689 -0.3927
  763MOL0     C 2875   6.792   6.599  11.149 -0.7572 -0.7381 -0.3151
  763MOL0     C 2876   6.916   6.606  11.214  0.3513  0.7382 -0.4695
  763MOL0     C 2877   6.973   6.496  11.277 -0.4085 -0.3545  0.3610
  763MOL0     O 2878   7.102   6.505  11.331  1.2715 -0.3987  0.1020
  763MOL0     C 2879   7.180   6.389  11.369 -0.1720  0.0416 -0.2724
  763MOL0     C 2880   7.336   6.401  11.385 -1.0741 -0.0522  0.5658
  763MOL0     C 2881   7.403   6.429  11.242  0.1547  0.0626  0.8684
  763MOL0     C 2882   7.529   6.505  11.254 -0.4452  0.1129 -0.1363
  763MOL0     C 2883   7.574   6.549  11.111  0.8947 -0.0594 -0.2335
  763MOL0     C 2884   7.725   6.582  11.108 -0.7869  0.2934  0.2297
  763MOL0     C 2885   7.756   6.688  10.995  0.6862 -0.5107 -0.4361
  763MOL0     C 2886   7.788   6.634  10.852 -1.0589  0.1629 -0.6702
  763MOL0     N 2887   7.810   6.747  10.762 -0.3505  0.6429 -0.0752
  763MOL0     C 2888   7.923   6.820  10.754 -0.6550 -0.9934 -0.5731
  763MOL0     C 2889   7.902   6.916  10.664  0.0452  0.2864  0.1874
  763MOL0     C 2890   7.985   7.042  10.652  0.2920  0.1083 -0.2508
  763MOL0     C 2891   8.127   7.002  10.598 -0.6100  0.5255  0.1195
  763MOL0     C 2892   8.124   6.917  10.466  0.3833 -1.6259  0.5409
  763MOL0     C 2893   8.067   6.989  10.345 -0.6338  0.8930  0.0442
  763MOL0     O 2894   8.113   7.130  10.337  0.3938  0.3618  0.3278
  763MOL0     C 2895   8.059   7.209  10.236 -1.2604  0.2607 -0.3879
  763MOL0     C 2896   8.109   7.343  10.239 -0.3329  0.8451  0.1555
  763MOL0     C 2897   8.078   7.442  10.149  0.5102  0.5263  0.2465
  763MOL0     C 2898   7.994   7.401  10.035 -0.5305  0.8213 -0.0879
  763MOL0     C 2899   7.956   7.505   9.945  0.6672 -0.5038 -0.2020
  763MOL0     O 2900   8.023   7.627   9.962 -0.2331 -0.0697 -0.6229
  763MOL0     C 2901   7.958   7.727   9.898 -0.0812 -0.9611 -0.1831
  763MOL0     C 2902   7.841   7.797   9.949 -0.0023  0.9772  0.3462
  763MOL0     C 2903   7.756   7.882   9.876 -1.0469 -0.5845  0.6928
  763MOL0     C 2904   7.793   7.901   9.738 -0.6086 -0.3800  0.3116
  763MOL0     O 2905   7.721   7.975   9.648 -0.1640 -0.0547  0.2921
  763MOL0     C 2906   7.694   7.914   9.517  0.2952  0.6764 -0.7557
  763MOL0     C 2907   7.620   7.781   9.515 -0.2889  0.0866 -0.0108
  763MOL0     C 2908   7.494   7.781   9.602 -0.6071 -0.1550  0.1974
  763MOL0     C 2909   7.366   7.780   9.515 -0.0564  1.3629 -0.7246
  763MOL0     C 2910   7.242   7.756   9.603  0.5672 -0.4154  0.1971
  763MOL0     C 2911   7.124   7.755   9.505 -0.6030  0.0807  0.3547
  763MOL0     C 2912   7.013   7.689   9.594 -0.5914 -0.0835 -0.0437
  763MOL0     C 2913   6.867   7.703   9.524  0.0433 -0.1010 -1.0516
  763MOL0    Cl 2914   6.851   7.571   9.405 -0.0236  0.1304 -0.1801
  763MOL0     C 2915   7.904   7.834   9.689 -0.5540 -0.3840  0.1223
  763MOL0     C 2916   7.982   7.743   9.757 -0.3176 -0.0699 -0.3480
  763MOL0     O 2917   7.869   7.481   9.868 -0.2156 -0.2025  0.1777
  763MOL0     C 2918   7.944   7.267  10.033 -0.7500  0.1331 -0.7022
  763MOL0     C 2919   7.973   7.166  10.131  0.4071  0.3894 -0.2238
  763MOL0     N 2920   7.783   6.892  10.601 -0.6698 -0.3980 -0.2709
  763MOL0     N 2921   7.720   6.803  10.668  0.2938  0.0920 -0.6760
  763MOL0     C 2922   6.898   6.378  11.277 -1.3759 -0.6013  0.6793
  763MOL0     C 2923   6.780   6.365  11.211 -0.5616 -0.3163 -0.4247
  763MOL0     C 2924   6.482   6.499  10.875 -0.9122 -0.7631  0.0284
  763MOL0     C 2925   6.407   6.383  10.877 -0.2068  0.5500 -0.0920
  763MOL0     C 2926   6.290   6.365  10.802 -0.9404 -0.1588 -0.0735
  763MOL0     C 2927   6.244   6.475  10.727  0.0022  0.4677 -0.3187
  763MOL0     O 2928   6.131   6.454  10.650  0.2882  0.0411  0.1349
  763MOL0     C 2929   6.151   6.398  10.524 -0.4570  0.1347 -0.7490
  763MOL0     C 2930   6.023   6.388  10.432  1.2735  0.1665 -0.7611
  763MOL0     C 2931   5.927   6.276  10.487 -0.5846 -1.0769 -0.4844
  763MOL0     C 2932   5.829   6.236  10.390 -0.4565 -0.2414  0.8921
  763MOL0     C 2933   5.727   6.149  10.439  0.1267  0.3376 -0.3164
  763MOL0     C 2934   5.636   6.069  10.460 -0.2115  1.7373  0.5661
  763MOL0     C 2935   6.309   6.602  10.735 -1.5139 -0.0363 -0.0076
  763MOL0     C 2936   6.432   6.614  10.804  0.7095 -0.3925 -0.1157
  763MOL0     C 2937   6.489   6.759  10.829 -0.5529  0.3706  0.5193
  763MOL0     H 2938   6.760   6.693  11.106 -1.5210 -1.0380 -0.4195
  763MOL0     H 2939   6.976   6.696  11.205  2.4616 -0.3230  1.7200
  763MOL0     H 2940   7.139   6.367  11.468 -0.3127  0.5640 -0.2102
  763MOL0     H 2941   7.156   6.313  11.295 -0.4831  0.7266 -0.8837
  763MOL0     H 2942   7.386   6.314  11.428 -1.0283  0.1592  0.9485
  763MOL0     H 2943   7.364   6.481  11.454  0.4225 -0.5771  0.6071
  763MOL0     H 2944   7.331   6.502  11.203 -0.7919 -0.3039  1.8539
  763MOL0     H 2945   7.411   6.340  11.180 -0.6347 -0.9915  2.2193
  763MOL0     H 2946   7.522   6.594  11.317 -0.2474  1.2972 -1.7182
  763MOL0     H 2947   7.602   6.431  11.288 -1.5555 -0.6272  0.7477
  763MOL0     H 2948   7.559   6.469  11.038  0.0811  0.7910 -1.0317
  763MOL0     H 2949   7.507   6.630  11.081  1.1146 -0.8069 -2.9885
  763MOL0     H 2950   7.752   6.621  11.207 -1.1088 -1.2201  0.9366
  763MOL0     H 2951   7.782   6.491  11.092 -0.5323  0.1967  1.5719
  763MOL0     H 2952   7.841   6.751  11.022  1.2881 -2.3340  2.3527
  763MOL0     H 2953   7.666   6.750  10.989  0.2886 -0.6775  2.4120
  763MOL0     H 2954   7.878   6.573  10.855  1.9590  4.2449  1.7721
  763MOL0     H 2955   7.712   6.559  10.827 -1.8777  1.0837 -1.0286
  763MOL0     H 2956   8.006   6.803  10.821 -0.8160 -2.6244 -0.7534
  763MOL0     H 2957   7.929   7.101  10.580  0.4279 -0.1519 -0.5701
  763MOL0     H 2958   7.997   7.093  10.749  2.9764 -2.6438  1.0311
  763MOL0     H 2959   8.181   7.097  10.599  0.2058  0.0735  0.1780
  763MOL0     H 2960   8.178   6.938  10.671 -0.5279  4.4153  3.9088
  763MOL0     H 2961   8.072   6.821  10.477  0.4430 -1.8636 -0.9803
  763MOL0     H 2962   8.229   6.896  10.443  0.6279  1.7085 -2.0718
  763MOL0     H 2963   7.959   6.983  10.358 -0.8132  0.9349 -1.3420
  763MOL0     H 2964   8.090   6.919  10.264  2.0624 -2.0788  3.0512
  763MOL0     H 2965   8.177   7.365  10.322  2.2151  0.3614 -1.6805
  763MOL0     H 2966   8.127   7.539  10.153  0.7130  0.3922  1.2114
  763MOL0     H 2967   7.815   7.780  10.053 -0.6414  3.5192  0.6487
  763MOL0     H 2968   7.660   7.920   9.910  0.1529  1.6098  1.8189
  763MOL0     H 2969   7.632   7.982   9.459 -2.4452 -3.6002 -3.4223
  763MOL0     H 2970   7.780   7.881   9.457  0.1115 -3.2595  0.8493
  763MOL0     H 2971   7.585   7.765   9.412  0.6178  1.9735 -0.6407
  763MOL0     H 2972   7.697   7.710   9.546  1.3257  0.1823 -3.3068
  763MOL0     H 2973   7.487   7.692   9.664  0.9092 -1.4659 -1.4146
  763MOL0     H 2974   7.493   7.870   9.666 -1.1286 -0.8058  1.1171
  763MOL0     H 2975   7.374   7.693   9.448  0.3844 -0.1413  1.2113
  763MOL0     H 2976   7.367   7.870   9.452  1.8770  1.6876 -0.2796
  763MOL0     H 2977   7.234   7.843   9.669  1.1813 -0.2614  0.0712
  763MOL0     H 2978   7.258   7.666   9.663 -3.1003 -1.5349 -0.2597
  763MOL0     H 2979   7.090   7.856   9.483 -0.4659  0.7125  2.6948
  763MOL0     H 2980   7.131   7.703   9.409 -3.8695 -1.7770  0.9856
  763MOL0     H 2981   7.021   7.738   9.692  0.3067  0.4122 -0.3540
  763MOL0     H 2982   7.038   7.584   9.610  1.2988  0.6229  2.1667
  763MOL0     H 2983   6.791   7.687   9.601 -0.8240  2.0768 -1.3920
  763MOL0     H 2984   6.854   7.804   9.484  0.6126 -0.2598 -1.6445
  763MOL0     H 2985   7.932   7.873   9.592 -0.5907 -0.0663  0.2392
  763MOL0     H 2986   8.074   7.711   9.710 -1.4790 -0.2607 -2.6702
  763MOL0     H 2987   7.881   7.230   9.953 -0.0562 -2.3412 -0.1809
  763MOL0     H 2988   7.929   7.068  10.121 -0.4192  0.4541  2.0400
  763MOL0     H 2989   6.927   6.281  11.315  0.1454 -1.4400 -2.2660
  763MOL0     H 2990   6.719   6.276  11.224 -0.7614 -0.2506 -0.8802
  763MOL0     H 2991   6.440   6.298  10.935  3.4673  1.0013 -1.2821
  763MOL0     H 2992   6.244   6.268  10.785 -0.2855 -0.5011  0.0458
  763MOL0     H 2993   6.210   6.307  10.540  0.3007  1.1899  3.7622
  763MOL0     H 2994   6.221   6.465  10.472  1.4967 -2.1111 -1.2336
  763MOL0     H 2995   6.037   6.366  10.326 -3.8962  5.0467 -2.9853
  763MOL0     H 2996   5.969   6.483  10.439 -1.4755 -1.3988  1.9161
  763MOL0     H 2997   5.871   6.327  10.566 -0.4081  0.0458 -1.0614
  763MOL0     H 2998   5.986   6.195  10.530  0.4969 -0.5843 -1.0199
  763MOL0     H 2999   5.779   6.321  10.343  3.5698  1.9089  0.0251
  763MOL0     H 3000   5.881   6.187  10.307 -1.5940  1.1052 -0.6946
  763MOL0     H 3001   5.566   5.995  10.491 -1.4313  2.1255 -1.0943
  763MOL0     H 3002   6.272   6.689  10.681 -1.1047  0.1328 -0.0235
  763MOL0     H 3003   6.401   6.824  10.828 -0.5990  0.3085  0.6438
  763MOL0     H 3004   6.534   6.759  10.929 -2.2628  0.7026  1.3191
  763MOL0     H 3005   6.566   6.787  10.756  1.3074 -0.0177  2.2305
  764MOL0     O 3006   4.254   3.371   8.345  0.2380 -0.3511  0.7797
  764MOL0     C 3007   4.321   3.478   8.358 -1.7222  0.5405 -0.4953
  764MOL0     O 3008   4.271   3.602   8.379  0.2941  0.6768  0.2703
  764MOL0     C 3009   4.135   3.616   8.365 -0.6662  0.5240  0.3445
  764MOL0     C 3010   4.052   3.603   8.483 -0.6104  0.6930 -0.0899
  764MOL0     C 3011   3.916   3.590   8.462  1.1053  0.4224  1.0058
  764MOL0     C 3012   3.861   3.612   8.335 -0.2077  0.3296  0.9316
  764MOL0     O 3013   3.731   3.602   8.328  0.4622  0.8156  0.3132
  764MOL0     C 3014   3.660   3.654   8.207  0.2332 -0.4367 -0.0002
  764MOL0     C 3015   3.518   3.691   8.239 -0.4127 -0.1696 -0.3649
  764MOL0     C 3016   3.485   3.796   8.347  1.5068  0.2517  0.1846
  764MOL0     C 3017   3.530   3.773   8.489  0.0247  0.2812 -0.5011
  764MOL0     C 3018   3.454   3.647   8.535  0.0247  1.1916  0.2071
  764MOL0     C 3019   3.494   3.584   8.667 -0.9325 -0.1079  0.8414
  764MOL0     C 3020   3.401   3.479   8.723 -0.6479  0.8849  0.0461
  764MOL0     C 3021   3.428   3.412   8.850  0.5783 -0.6161  0.4294
  764MOL0     N 3022   3.472   3.494   8.967  0.6539 -0.8121 -0.8356
  764MOL0     C 3023   3.385   3.563   9.041  0.4073  0.5135  0.7033
  764MOL0     C 3024   3.446   3.616   9.147  0.0949  0.1692 -0.2721
  764MOL0     C 3025   3.384   3.703   9.260 -0.0990  0.2169 -0.0405
  764MOL0     C 3026   3.479   3.818   9.304 -0.0173  0.1451  0.3228
  764MOL0     C 3027   3.423   3.905   9.421 -0.0914  0.5129  0.6374
  764MOL0     C 3028   3.345   3.834   9.529  0.8651 -0.0883 -0.6653
  764MOL0     O 3029   3.205   3.837   9.486 -0.5009 -0.2052  0.1164
  764MOL0     C 3030   3.117   3.750   9.545  0.2092  0.0084 -0.3255
  764MOL0     C 3031   2.979   3.771   9.519  0.0227 -0.3558 -1.6492
  764MOL0     C 3032   2.874   3.700   9.584 -0.6219 -1.0864  0.7382
  764MOL0     C 3033   2.908   3.605   9.680  0.2845  0.7952  0.4882
  764MOL0     C 3034   2.804   3.530   9.765  0.7313 -0.2484  0.3616
  764MOL0     O 3035   2.676   3.541   9.718 -0.4499  0.6989  0.6921
  764MOL0     C 3036   2.563   3.527   9.797 -0.1759 -1.0808 -0.0581
  764MOL0     C 3037   2.560   3.534   9.938 -0.4459  0.6628  0.0403
  764MOL0     C 3038   2.437   3.557   9.998 -0.5528 -0.1935  0.0079
  764MOL0     C 3039   2.313   3.566   9.928 -0.7744  0.0954 -0.1073
  764MOL0     O 3040   2.189   3.606   9.970  0.5245  0.3675 -0.7625
  764MOL0     C 3041   2.147   3.563  10.099 -0.7383  0.3623  0.0379
  764MOL0     C 3042   2.030   3.651  10.146  0.1154 -0.2267  0.2891
  764MOL0     C 3043   2.072   3.794  10.138  0.3888 -0.4136 -1.0416
  764MOL0     C 3044   1.950   3.875  10.198  0.1273  0.2273 -0.0839
  764MOL0     C 3045   1.973   4.023  10.148  0.3126  0.5969 -0.0411
  764MOL0     C 3046   1.883   4.115  10.229  0.1884  0.4286 -0.5119
  764MOL0     C 3047   1.896   4.260  10.184  0.1350 -0.2911  0.4235
  764MOL0     C 3048   1.797   4.344  10.258 -0.1351 -0.4663  1.0408
  764MOL0    Cl 3049   1.866   4.392  10.426 -0.3428  0.1813  0.4930
  764MOL0     C 3050   2.326   3.556   9.788  0.5128 -0.8071  0.1756
  764MOL0     C 3051   2.444   3.529   9.722 -0.8829 -0.2467 -0.2853
  764MOL0     O 3052   2.838   3.471   9.866 -0.3283  0.2058 -0.0286
  764MOL0     C 3053   3.044   3.584   9.707  0.6406 -0.4092 -0.2900
  764MOL0     C 3054   3.152   3.645   9.635  0.5728 -0.2265 -1.1393
  764MOL0     N 3055   3.580   3.590   9.124  0.6385 -0.2507  0.2401
  764MOL0     N 3056   3.596   3.510   9.018  0.4915 -0.2859 -0.2623
  764MOL0     C 3057   3.944   3.651   8.227 -0.8814  0.2359 -0.8752
  764MOL0     C 3058   4.080   3.655   8.242 -1.1996 -0.3696  0.3927
  764MOL0     C 3059   4.472   3.464   8.315 -0.1134 -0.7203  0.4264
  764MOL0     C 3060   4.542   3.349   8.345  0.6635 -0.8451  0.7509
  764MOL0     C 3061   4.672   3.334   8.293  0.6125  0.8100 -0.0094
  764MOL0     C 3062   4.733   3.433   8.233 -0.7486 -0.0685  0.1790
  764MOL0     O 3063   4.867   3.398   8.202 -0.6041  0.0571  0.5826
  764MOL0     C 3064   4.963   3.491   8.139  1.0368 -1.2637  1.6759
  764MOL0     C 3065   4.949   3.506   7.991 -0.3064  0.1366  0.3681
  764MOL0     C 3066   5.038   3.623   7.943 -0.2240  0.3376  0.6263
  764MOL0     C 3067   5.011   3.643   7.796  0.1152  0.7455 -0.6672
  764MOL0     C 3068   5.103   3.742   7.748  0.1614 -1.1084  0.5664
  764MOL0     C 3069   5.178   3.818   7.692 -0.4256 -0.3036 -0.8456
  764MOL0     C 3070   4.673   3.557   8.211 -0.2420  0.0412  0.7433
  764MOL0     C 3071   4.540   3.574   8.248  0.0212 -0.5823 -0.5555
  764MOL0     C 3072   4.487   3.708   8.223  0.3482  0.4570 -0.3858
  764MOL0     H 3073   4.097   3.597   8.581  1.5846  0.0014 -1.0762
  764MOL0     H 3074   3.846   3.566   8.542  0.9915 -0.2919  0.7069
  764MOL0     H 3075   3.706   3.749   8.178 -1.1856  0.6127  1.0581
  764MOL0     H 3076   3.659   3.574   8.131  1.0621  1.2730 -1.9063
  764MOL0     H 3077   3.475   3.591   8.255  1.3841 -0.7523  1.1724
  764MOL0     H 3078   3.473   3.724   8.145 -0.8726 -0.0942 -0.1205
  764MOL0     H 3079   3.378   3.774   8.348  1.9822 -2.4711 -0.4065
  764MOL0     H 3080   3.492   3.899   8.311  1.4242 -0.1733 -1.1075
  764MOL0     H 3081   3.638   3.766   8.506 -0.2912 -1.4456  1.1034
  764MOL0     H 3082   3.502   3.853   8.558  1.7694  0.8432 -0.3887
  764MOL0     H 3083   3.355   3.685   8.561  0.1454  2.0142 -0.5100
  764MOL0     H 3084   3.458   3.565   8.463  2.8608  0.4495  1.0733
  764MOL0     H 3085   3.600   3.558   8.657 -0.0475  3.2143  0.2351
  764MOL0     H 3086   3.495   3.671   8.733 -2.6626  0.3169  0.3359
  764MOL0     H 3087   3.402   3.395   8.654 -1.8743  1.0043 -0.1456
  764MOL0     H 3088   3.301   3.521   8.741 -0.9583 -0.2007  1.0261
  764MOL0     H 3089   3.350   3.344   8.887  0.9885  0.0645  2.7511
  764MOL0     H 3090   3.503   3.338   8.820 -2.6025 -3.2259 -1.8208
  764MOL0     H 3091   3.280   3.578   9.019  0.4457  1.8205  1.3231
  764MOL0     H 3092   3.299   3.753   9.214  0.1093  2.0443  1.4368
  764MOL0     H 3093   3.353   3.630   9.336  0.1899 -2.7369 -2.5630
  764MOL0     H 3094   3.574   3.779   9.340 -1.0384 -0.8760  2.0500
  764MOL0     H 3095   3.498   3.880   9.216  0.3658  0.8732  0.9142
  764MOL0     H 3096   3.360   3.987   9.385 -0.1939 -0.8346 -2.5840
  764MOL0     H 3097   3.512   3.950   9.466  1.0853  0.0817 -1.1427
  764MOL0     H 3098   3.358   3.878   9.628 -2.7545 -1.8487  0.8190
  764MOL0     H 3099   3.362   3.727   9.544  1.2980  0.2986  2.1065
  764MOL0     H 3100   2.956   3.856   9.456 -1.4406  2.2755  2.0910
  764MOL0     H 3101   2.770   3.729   9.567  0.5636  3.9698  0.5210
  764MOL0     H 3102   2.650   3.556   9.996 -0.0036 -2.1293  0.5775
  764MOL0     H 3103   2.446   3.570  10.105 -0.8782  4.0187 -0.3107
  764MOL0     H 3104   2.128   3.456  10.094  1.7674 -0.1121 -3.3132
  764MOL0     H 3105   2.227   3.569  10.173 -1.0627 -2.4507  0.7359
  764MOL0     H 3106   1.952   3.627  10.074  0.2331  0.3678 -0.0439
  764MOL0     H 3107   2.000   3.622  10.247 -0.0701 -1.9088 -0.2210
  764MOL0     H 3108   2.158   3.805  10.205 -0.2719 -1.1427 -0.0427
  764MOL0     H 3109   2.091   3.817  10.033  3.5420 -1.3790 -0.7856
  764MOL0     H 3110   1.945   3.873  10.307  0.1154 -2.4857 -0.0635
  764MOL0     H 3111   1.856   3.834  10.162  0.5975 -2.1988  1.2178
  764MOL0     H 3112   1.957   4.032  10.040 -1.7088 -0.3602  0.1280
  764MOL0     H 3113   2.078   4.044  10.169  1.2689 -1.9241 -1.8309
  764MOL0     H 3114   1.785   4.068  10.212  0.4860 -0.9743  1.3731
  764MOL0     H 3115   1.907   4.123  10.336 -0.9562 -0.0206 -0.1980
  764MOL0     H 3116   1.871   4.260  10.078 -3.5358 -0.9608  1.1398
  764MOL0     H 3117   1.996   4.301  10.200  1.0566 -2.3766  0.3293
  764MOL0     H 3118   1.797   4.437  10.199 -0.0224 -0.2878  1.3237
  764MOL0     H 3119   1.698   4.297  10.267 -2.1552  2.5726 -2.2587
  764MOL0     H 3120   2.237   3.568   9.726  1.5447  0.8085 -1.0728
  764MOL0     H 3121   2.438   3.522   9.614 -0.6235 -0.9891 -0.2558
  764MOL0     H 3122   3.078   3.528   9.794  2.3617 -0.5028 -0.9982
  764MOL0     H 3123   3.246   3.609   9.676  0.0256  0.1568  0.5452
  764MOL0     H 3124   3.892   3.664   8.132 -0.1053  0.2898 -1.3027
  764MOL0     H 3125   4.154   3.669   8.164  0.8324  0.0944  2.2934
  764MOL0     H 3126   4.487   3.271   8.396  0.8907 -0.7084  1.2047
  764MOL0     H 3127   4.715   3.234   8.299 -2.0288 -0.3732  0.4749
  764MOL0     H 3128   5.061   3.447   8.159  1.4909 -0.7974  0.5467
  764MOL0     H 3129   4.949   3.588   8.187  0.5638 -0.1214 -0.6351
  764MOL0     H 3130   4.843   3.524   7.976 -0.3864  1.7744  2.4213
  764MOL0     H 3131   4.992   3.416   7.946 -0.2488  0.2855  0.1247
  764MOL0     H 3132   5.144   3.599   7.961  0.6372  0.8389 -3.0232
  764MOL0     H 3133   4.999   3.710   7.996  3.6955  2.7925 -0.0893
  764MOL0     H 3134   5.021   3.562   7.724  0.1042  2.7721 -3.0676
  764MOL0     H 3135   4.910   3.685   7.786 -0.5534 -0.6785 -0.2319
  764MOL0     H 3136   5.233   3.878   7.622 -0.6545 -0.6048 -1.2919
  764MOL0     H 3137   4.731   3.625   8.150  1.8557  0.5936  3.1568
  764MOL0     H 3138   4.544   3.762   8.147  0.0964 -0.1465 -1.0092
  764MOL0     H 3139   4.386   3.696   8.184  1.3863 -2.5429 -2.5020
  764MOL0     H 3140   4.470   3.768   8.313  1.7770  0.8972 -0.3874
  765MOL0     O 3141   1.114   6.846   7.387 -0.9029  0.0305  0.1357
  765MOL0     C 3142   1.003   6.883   7.355 -1.2959  0.6257  0.7725
  765MOL0     O 3143   0.989   6.972   7.256  0.7045 -1.3050  0.4670
  765MOL0     C 3144   1.078   7.027   7.166 -0.3604 -0.5248  0.2503
  765MOL0     C 3145   1.200   6.964   7.124 -0.3388 -0.0423 -0.4118
  765MOL0     C 3146   1.274   7.042   7.025  0.2048 -0.1125 -1.0784
  765MOL0     C 3147   1.231   7.164   6.978  0.6035 -0.3017 -0.4133
  765MOL0     O 3148   1.305   7.237   6.892  0.7167  0.4983  0.3490
  765MOL0     C 3149   1.309   7.373   6.895  0.2327 -0.5685  0.2845
  765MOL0     C 3150   1.384   7.429   7.017 -0.1516  0.8111  0.1193
  765MOL0     C 3151   1.522   7.361   7.034  0.4075 -0.1662  1.6454
  765MOL0     C 3152   1.624   7.438   6.937 -0.0765 -0.2311  0.2251
  765MOL0     C 3153   1.770   7.396   6.948  0.7191  0.0388  0.4665
  765MOL0     C 3154   1.855   7.499   6.871  0.6638  0.2416  0.3660
  765MOL0     C 3155   2.003   7.457   6.839 -0.5612 -0.3844  0.4906
  765MOL0     C 3156   2.063   7.516   6.701 -0.1795  0.6741  0.1558
  765MOL0     N 3157   2.059   7.665   6.695 -0.5117  0.6313  0.4965
  765MOL0     C 3158   1.940   7.736   6.704  0.1135  0.0801  0.1000
  765MOL0     C 3159   1.985   7.865   6.714  0.9169 -0.0473 -0.5724
  765MOL0     C 3160   1.878   7.979   6.721 -0.9063 -1.5679  0.0112
  765MOL0     C 3161   1.903   8.092   6.835  0.0084  0.8396 -0.3279
  765MOL0     C 3162   1.861   8.038   6.975  0.1744  0.3546  0.1535
  765MOL0     C 3163   1.713   8.040   7.012  1.2857 -0.2980  0.2593
  765MOL0     O 3164   1.617   7.975   6.921 -0.1752  0.2092 -0.5998
  765MOL0     C 3165   1.488   7.950   6.968 -0.0173 -0.0023  0.2289
  765MOL0     C 3166   1.411   7.859   6.900 -0.2131 -0.0452 -0.4917
  765MOL0     C 3167   1.303   7.808   6.959  0.5746 -0.5721 -0.8052
  765MOL0     C 3168   1.269   7.815   7.095  0.1875  0.7701 -0.0123
  765MOL0     C 3169   1.158   7.739   7.145  0.8580  0.8490 -0.5194
  765MOL0     O 3170   1.139   7.746   7.285 -0.3090 -0.4160 -0.4294
  765MOL0     C 3171   1.010   7.743   7.335  0.5918  0.3707  1.1348
  765MOL0     C 3172   0.920   7.646   7.296  1.1448  0.0243  0.4728
  765MOL0     C 3173   0.793   7.662   7.348  0.1629  0.0223  0.1399
  765MOL0     C 3174   0.755   7.749   7.449  1.4653 -0.6478  0.2839
  765MOL0     O 3175   0.621   7.754   7.491 -0.4255 -1.0669 -0.5511
  765MOL0     C 3176   0.588   7.819   7.612 -0.0716 -0.8015 -0.0060
  765MOL0     C 3177   0.470   7.756   7.684  0.7324  0.2415  0.3984
  765MOL0     C 3178   0.343   7.828   7.653 -0.0219 -0.3137 -0.2995
  765MOL0     C 3179   0.213   7.764   7.698  1.9155  0.6741 -0.6877
  765MOL0     C 3180   0.078   7.848   7.686 -0.4318 -0.6243 -1.3383
  765MOL0     C 3181   0.083   7.976   7.765 -0.2372 -0.3649 -1.2304
  765MOL0     C 3182  -0.056   8.048   7.779 -0.1298 -0.6728  0.3815
  765MOL0     C 3183  -0.168   7.960   7.822 -0.6978 -0.4069  1.0613
  765MOL0    Cl 3184  -0.311   8.066   7.845 -0.1137  0.7428  0.3391
  765MOL0     C 3185   0.853   7.844   7.488  0.6074  0.0088 -0.6685
  765MOL0     C 3186   0.979   7.840   7.422  0.9139  0.4860 -0.3335
  765MOL0     O 3187   1.088   7.676   7.064  0.2947 -1.0349  0.3003
  765MOL0     C 3188   1.344   7.913   7.159  0.0490  0.8717 -0.3257
  765MOL0     C 3189   1.449   7.987   7.100 -0.9081 -0.2499  1.1023
  765MOL0     N 3190   2.123   7.866   6.713 -0.2238  0.7656  0.0096
  765MOL0     N 3191   2.167   7.753   6.689  0.6276 -0.3152 -0.6617
  765MOL0     C 3192   1.111   7.220   7.035 -0.2190  0.4006 -0.5230
  765MOL0     C 3193   1.031   7.148   7.118 -1.0167  1.0986 -0.7258
  765MOL0     C 3194   0.886   6.834   7.424  0.1579  0.4450 -0.4432
  765MOL0     C 3195   0.867   6.855   7.558 -0.2489  0.2496  0.6847
  765MOL0     C 3196   0.745   6.825   7.617  0.7587 -1.2641 -0.5341
  765MOL0     C 3197   0.632   6.803   7.547 -0.1188  1.2275  0.5984
  765MOL0     O 3198   0.518   6.791   7.617  0.3620  0.0448  0.3669
  765MOL0     C 3199   0.388   6.754   7.558  0.0091 -0.6434  0.2557
  765MOL0     C 3200   0.276   6.795   7.655  0.4392 -0.5319 -0.1838
  765MOL0     C 3201   0.136   6.754   7.594 -0.2903 -0.4759 -0.2586
  765MOL0     C 3202   0.091   6.863   7.484 -0.5778  0.9371 -0.0355
  765MOL0     C 3203  -0.029   6.803   7.424 -0.2136 -0.3658  0.8207
  765MOL0     C 3204  -0.117   6.751   7.359 -0.6107 -0.2580  0.4853
  765MOL0     C 3205   0.647   6.783   7.411 -0.3419  0.1189  0.0479
  765MOL0     C 3206   0.774   6.783   7.351  0.3914  0.0884  1.3620
  765MOL0     C 3207   0.787   6.760   7.197 -0.5808 -0.5022  0.4400
  765MOL0     H 3208   1.247   6.871   7.155  1.6790  0.3925 -1.9437
  765MOL0     H 3209   1.363   7.015   6.969  1.3396  4.0083 -1.6081
  765MOL0     H 3210   1.360   7.404   6.804 -0.2986 -0.9260 -0.1386
  765MOL0     H 3211   1.214   7.426   6.895  1.1585  1.2047  1.8567
  765MOL0     H 3212   1.316   7.395   7.096 -2.1921 -2.4419 -2.7490
  765MOL0     H 3213   1.393   7.538   7.012 -0.3256  0.7964 -0.6415
  765MOL0     H 3214   1.518   7.255   7.009  2.5031  0.1473 -0.3790
  765MOL0     H 3215   1.559   7.365   7.137 -0.4673 -3.5082  2.2068
  765MOL0     H 3216   1.593   7.422   6.833  2.7737 -2.4193 -0.4202
  765MOL0     H 3217   1.611   7.546   6.949  0.3753 -0.2150  0.5640
  765MOL0     H 3218   1.798   7.372   7.051  0.3708 -2.7668 -0.0038
  765MOL0     H 3219   1.781   7.296   6.903  0.7541 -0.4231  1.4805
  765MOL0     H 3220   1.809   7.506   6.771  0.5677  0.6706  0.4400
  765MOL0     H 3221   1.859   7.598   6.916 -0.4492  0.4657  0.0013
  765MOL0     H 3222   2.012   7.348   6.840  1.2614 -0.4136 -2.9192
  765MOL0     H 3223   2.071   7.501   6.912  1.0009  0.2602 -1.2445
  765MOL0     H 3224   2.164   7.476   6.685 -1.3718 -1.9320 -1.5755
  765MOL0     H 3225   2.011   7.476   6.614 -1.6138  0.7013  0.9653
  765MOL0     H 3226   1.836   7.713   6.723  0.7478 -0.8765  2.8674
  765MOL0     H 3227   1.887   8.018   6.619  0.6014 -1.3828  0.1986
  765MOL0     H 3228   1.780   7.930   6.721 -0.7368 -1.9823  2.0467
  765MOL0     H 3229   2.009   8.120   6.839  0.0072  0.9339 -0.8602
  765MOL0     H 3230   1.849   8.184   6.810 -0.1436  0.5835 -0.9805
  765MOL0     H 3231   1.917   8.086   7.056 -0.2734  0.0415  0.6621
  765MOL0     H 3232   1.893   7.934   6.983  1.9562  0.7782 -0.9381
  765MOL0     H 3233   1.683   8.145   7.018 -0.9395 -0.9726  2.0946
  765MOL0     H 3234   1.705   8.013   7.117 -2.6416  2.5972  0.9300
  765MOL0     H 3235   1.462   7.827   6.810  2.9079  1.9958  0.3744
  765MOL0     H 3236   1.244   7.740   6.898 -2.0527  1.6505 -0.9238
  765MOL0     H 3237   0.939   7.574   7.217 -1.5440  1.2146 -1.4112
  765MOL0     H 3238   0.719   7.586   7.325 -3.3267  3.2173 -0.2154
  765MOL0     H 3239   0.672   7.812   7.682 -0.3310  1.1232  0.5598
  765MOL0     H 3240   0.561   7.923   7.592  0.3502 -0.8708 -1.0027
  765MOL0     H 3241   0.461   7.650   7.656  2.9617 -0.0843  0.7470
  765MOL0     H 3242   0.488   7.763   7.791 -0.1940 -0.0774  0.5868
  765MOL0     H 3243   0.349   7.922   7.708  1.0502 -1.0131  0.8411
  765MOL0     H 3244   0.332   7.854   7.547  2.9904 -2.8626 -1.3782
  765MOL0     H 3245   0.241   7.730   7.799 -0.1768  2.4904  0.6071
  765MOL0     H 3246   0.201   7.679   7.630 -0.0258 -0.0206  0.4340
  765MOL0     H 3247  -0.003   7.787   7.728  0.3254 -0.2045  0.8948
  765MOL0     H 3248   0.065   7.878   7.582  1.7012  1.8744 -0.9709
  765MOL0     H 3249   0.116   7.937   7.862  0.8147  0.8444 -1.0661
  765MOL0     H 3250   0.150   8.044   7.711  0.2115 -2.3867 -3.3691
  765MOL0     H 3251  -0.080   8.103   7.688 -0.2647 -1.9731 -0.3906
  765MOL0     H 3252  -0.043   8.125   7.856  1.3683 -0.3118 -0.1839
  765MOL0     H 3253  -0.206   7.878   7.760 -2.7878  2.6562 -2.0095
  765MOL0     H 3254  -0.148   7.923   7.923 -0.6026  1.9542  1.9668
  765MOL0     H 3255   0.819   7.926   7.550 -0.1528  0.4528 -1.6465
  765MOL0     H 3256   1.052   7.914   7.451  0.8735  0.3493  0.1302
  765MOL0     H 3257   1.332   7.929   7.266 -1.4145 -2.4548  0.1569
  765MOL0     H 3258   1.503   8.047   7.172  1.6416  0.0663 -0.9329
  765MOL0     H 3259   1.070   7.320   7.022 -2.4262 -0.3409  0.2893
  765MOL0     H 3260   0.928   7.171   7.145 -0.2672 -0.1429  4.1859
  765MOL0     H 3261   0.948   6.881   7.625 -1.1754  0.7068  1.6640
  765MOL0     H 3262   0.739   6.827   7.725  1.6947  0.8294 -0.4813
  765MOL0     H 3263   0.387   6.646   7.542  0.6219 -0.3398 -2.2202
  765MOL0     H 3264   0.370   6.807   7.465  1.6251  0.1695  0.3718
  765MOL0     H 3265   0.274   6.904   7.667 -2.2423 -0.3358 -1.5871
  765MOL0     H 3266   0.287   6.740   7.749 -2.3911  2.1336  1.9117
  765MOL0     H 3267   0.061   6.753   7.673  0.5943  1.0880  0.6511
  765MOL0     H 3268   0.137   6.653   7.551 -1.6284 -0.3755 -0.5606
  765MOL0     H 3269   0.047   6.948   7.537 -0.3447  2.1562 -1.7123
  765MOL0     H 3270   0.165   6.887   7.408  0.3146  3.4763  1.5099
  765MOL0     H 3271  -0.178   6.709   7.281 -2.6979 -1.1931  2.4991
  765MOL0     H 3272   0.566   6.770   7.340 -1.1326  0.7656  0.8142
  765MOL0     H 3273   0.889   6.726   7.176 -0.0211  0.7044  1.0461
  765MOL0     H 3274   0.709   6.692   7.162 -1.8403  1.7661 -1.4363
  765MOL0     H 3275   0.772   6.848   7.134 -0.8131 -2.3559 -2.2278
  766MOL0     O 3276   6.749   5.060   2.056  0.0440  0.1513 -0.5537
  766MOL0     C 3277   6.656   5.057   2.139 -0.2511 -0.3427  0.9911
  766MOL0     O 3278   6.521   5.035   2.128 -0.5342 -0.6845  0.1039
  766MOL0     C 3279   6.480   4.917   2.067 -0.3689  0.3036 -0.8603
  766MOL0     C 3280   6.560   4.818   2.027 -0.0495  0.4188 -0.2881
  766MOL0     C 3281   6.497   4.701   1.973  0.5234  0.6995 -0.0950
  766MOL0     C 3282   6.358   4.688   1.948  0.1779  0.8074  0.3000
  766MOL0     O 3283   6.324   4.597   1.854  0.0668 -0.2944  0.5019
  766MOL0     C 3284   6.207   4.621   1.771  0.5277 -0.2367  0.1836
  766MOL0     C 3285   6.184   4.529   1.655  0.4585  0.2131  0.0308
  766MOL0     C 3286   6.294   4.529   1.551 -0.4646 -0.5957 -0.0599
  766MOL0     C 3287   6.436   4.495   1.602 -0.8914  0.3767  0.1788
  766MOL0     C 3288   6.532   4.450   1.484 -0.6098 -0.2881 -0.9992
  766MOL0     C 3289   6.660   4.398   1.537 -0.1398 -0.4953  0.2863
  766MOL0     C 3290   6.766   4.381   1.431 -0.1932  0.3938  0.8193
  766MOL0     C 3291   6.892   4.317   1.477  0.0191  0.0177 -0.1641
  766MOL0     N 3292   6.969   4.408   1.565 -0.6736 -0.5924 -0.3106
  766MOL0     C 3293   6.935   4.416   1.694  0.2086  0.0038 -0.0563
  766MOL0     C 3294   7.026   4.491   1.750 -0.2622  0.6138 -0.4128
  766MOL0     C 3295   7.040   4.523   1.900 -1.0476 -0.7857  0.5182
  766MOL0     C 3296   6.913   4.517   1.986 -0.7431  0.2662 -0.6781
  766MOL0     C 3297   6.955   4.533   2.136 -0.4525  0.2312 -0.8619
  766MOL0     C 3298   6.995   4.390   2.200 -0.3760 -0.1231 -0.2702
  766MOL0     O 3299   6.916   4.364   2.315 -0.2923  0.6144  0.5432
  766MOL0     C 3300   6.959   4.296   2.422 -0.1875 -0.2577  0.3612
  766MOL0     C 3301   7.071   4.206   2.421 -0.6208 -0.0080  0.0754
  766MOL0     C 3302   7.106   4.132   2.538 -0.5664 -0.5244 -0.5706
  766MOL0     C 3303   7.038   4.147   2.654  0.6017  0.0824 -0.4916
  766MOL0     C 3304   7.065   4.064   2.770 -0.4667 -0.9647 -0.4337
  766MOL0     O 3305   7.190   4.017   2.788 -0.8160  0.4537 -0.4950
  766MOL0     C 3306   7.229   3.996   2.918 -0.1618 -0.0433  0.0037
  766MOL0     C 3307   7.314   4.099   2.969  0.7776  0.8381  0.3303
  766MOL0     C 3308   7.391   4.068   3.082  0.9094  0.5316  0.1335
  766MOL0     C 3309   7.379   3.948   3.159  0.6575 -0.0031  0.5401
  766MOL0     O 3310   7.457   3.915   3.259 -0.6288  0.5648  0.2658
  766MOL0     C 3311   7.492   4.018   3.351  0.7363  0.4560 -0.6521
  766MOL0     C 3312   7.483   3.942   3.491  0.2876 -1.0571 -0.3367
  766MOL0     C 3313   7.605   3.848   3.528 -0.8201 -0.1585  0.4249
  766MOL0     C 3314   7.667   3.899   3.658  0.0191  0.5431 -1.0120
  766MOL0     C 3315   7.774   3.799   3.714  0.2403 -0.0562  0.5850
  766MOL0     C 3316   7.878   3.879   3.788 -0.1214  0.2950 -0.4636
  766MOL0     C 3317   7.997   3.794   3.815 -0.2757  0.3183 -1.0781
  766MOL0     C 3318   7.969   3.673   3.914 -0.0215  0.2521  0.4885
  766MOL0    Cl 3319   7.925   3.741   4.069  0.4591 -0.2984 -0.0762
  766MOL0     C 3320   7.299   3.851   3.101  0.4289  0.1871  0.6168
  766MOL0     C 3321   7.212   3.876   2.995  0.4745 -0.2495 -0.4847
  766MOL0     O 3322   6.970   4.044   2.849 -0.1478  0.2174  0.0102
  766MOL0     C 3323   6.927   4.237   2.661  0.3293  0.9475 -0.6693
  766MOL0     C 3324   6.888   4.308   2.544  0.0390 -0.8174  0.4017
  766MOL0     N 3325   7.108   4.536   1.647 -0.2669 -0.0994 -0.3486
  766MOL0     N 3326   7.075   4.486   1.536  0.3939  0.6006 -0.4365
  766MOL0     C 3327   6.280   4.790   1.997  0.0952 -0.6304  0.0090
  766MOL0     C 3328   6.337   4.904   2.047 -0.3709 -0.0680 -0.1367
  766MOL0     C 3329   6.700   5.099   2.277 -0.0613 -0.3926 -0.1451
  766MOL0     C 3330   6.655   5.222   2.332 -0.3037  0.3638  0.3089
  766MOL0     C 3331   6.673   5.251   2.467  0.2206  0.0818 -0.2840
  766MOL0     C 3332   6.724   5.141   2.553  0.0988 -0.4263 -0.1873
  766MOL0     O 3333   6.723   5.168   2.690 -0.3546  0.4208 -0.9064
  766MOL0     C 3334   6.661   5.078   2.785  0.9836  0.6518  0.3530
  766MOL0     C 3335   6.511   5.040   2.750 -0.2633 -0.5309  0.4481
  766MOL0     C 3336   6.417   5.162   2.754 -0.4635 -0.0019  0.2474
  766MOL0     C 3337   6.286   5.147   2.687  0.3041  0.1627 -0.4193
  766MOL0     C 3338   6.309   5.175   2.549  0.1783 -0.2991  0.9717
  766MOL0     C 3339   6.343   5.189   2.436  0.7592  0.0817 -0.2466
  766MOL0     C 3340   6.781   5.036   2.496  0.3631 -0.5898  0.9501
  766MOL0     C 3341   6.765   5.006   2.357  0.4350 -0.4097  0.3603
  766MOL0     C 3342   6.812   4.876   2.294  0.9947  0.1593  0.7132
  766MOL0     H 3343   6.666   4.816   2.045 -0.1680  3.1810  1.2726
  766MOL0     H 3344   6.557   4.620   1.934  0.5813  0.4387  0.5218
  766MOL0     H 3345   6.113   4.605   1.825 -1.6879 -1.1814 -3.5835
  766MOL0     H 3346   6.207   4.725   1.736  0.6151  0.0816  1.1032
  766MOL0     H 3347   6.095   4.562   1.602 -1.3403 -0.0314  2.6994
  766MOL0     H 3348   6.162   4.427   1.688 -0.3578 -0.3596 -2.1349
  766MOL0     H 3349   6.294   4.630   1.509 -0.0936 -0.8147 -0.6007
  766MOL0     H 3350   6.254   4.454   1.482 -3.3374  0.7306  0.0282
  766MOL0     H 3351   6.472   4.585   1.653 -3.7936  1.7805  0.0051
  766MOL0     H 3352   6.423   4.420   1.680  0.3611  1.6181  1.6439
  766MOL0     H 3353   6.499   4.366   1.421  2.3641 -2.0249 -0.4090
  766MOL0     H 3354   6.540   4.543   1.427  2.3205 -0.8981 -1.7469
  766MOL0     H 3355   6.699   4.474   1.605 -0.1375 -0.3979  0.1758
  766MOL0     H 3356   6.655   4.303   1.590  1.2662 -0.0229  1.3076
  766MOL0     H 3357   6.783   4.474   1.375  2.6089 -1.6263 -2.0406
  766MOL0     H 3358   6.730   4.314   1.352 -0.8722 -0.0488  1.4918
  766MOL0     H 3359   6.866   4.219   1.518  0.0716 -0.1228 -0.4576
  766MOL0     H 3360   6.947   4.286   1.388 -2.6992 -2.1840 -1.2103
  766MOL0     H 3361   6.852   4.364   1.740 -1.0603  0.6192 -1.5480
  766MOL0     H 3362   7.116   4.454   1.937 -0.4963  0.5248  1.9587
  766MOL0     H 3363   7.072   4.628   1.900 -1.0231 -0.7671 -1.0752
  766MOL0     H 3364   6.845   4.596   1.955 -0.1442  1.4410  0.8516
  766MOL0     H 3365   6.859   4.423   1.979  1.8805 -1.4778  0.7891
  766MOL0     H 3366   6.868   4.571   2.189 -0.2693 -0.5483  0.0190
  766MOL0     H 3367   7.035   4.604   2.159 -0.2916 -0.6711  1.5482
  766MOL0     H 3368   7.099   4.391   2.232 -0.7065  3.4749  1.1191
  766MOL0     H 3369   6.973   4.312   2.126 -0.4938  0.8578 -1.3027
  766MOL0     H 3370   7.137   4.202   2.335 -0.1088 -0.2753  0.4753
  766MOL0     H 3371   7.203   4.084   2.546 -1.4240 -2.1736  0.3964
  766MOL0     H 3372   7.332   4.188   2.910  1.0629 -0.6975 -2.0389
  766MOL0     H 3373   7.442   4.156   3.121 -1.8462  1.3377  2.2691
  766MOL0     H 3374   7.595   4.053   3.338 -0.5129  5.0806 -0.0994
  766MOL0     H 3375   7.419   4.099   3.346 -0.6805 -0.5442  1.7079
  766MOL0     H 3376   7.475   4.020   3.568 -2.7650 -1.2388 -0.3482
  766MOL0     H 3377   7.389   3.887   3.497 -0.5809  0.4675  0.8245
  766MOL0     H 3378   7.555   3.752   3.544 -0.1615 -0.8031 -1.2257
  766MOL0     H 3379   7.665   3.818   3.442 -0.9677 -2.0933  0.9457
  766MOL0     H 3380   7.594   3.902   3.740  1.6247  0.1578  0.4845
  766MOL0     H 3381   7.715   3.992   3.625 -0.8987  0.5756 -2.3625
  766MOL0     H 3382   7.807   3.726   3.640 -1.3491 -0.8212  0.5845
  766MOL0     H 3383   7.725   3.739   3.791 -0.7249 -0.7657 -0.5480
  766MOL0     H 3384   7.912   3.955   3.717 -0.5109 -0.4081 -1.4275
  766MOL0     H 3385   7.843   3.928   3.880 -0.9053 -0.8647 -0.1126
  766MOL0     H 3386   8.060   3.869   3.863 -0.0660  0.2786 -1.2943
  766MOL0     H 3387   8.051   3.745   3.733 -0.5250  0.0542 -1.0868
  766MOL0     H 3388   7.887   3.605   3.890 -0.9132  0.9569  1.4280
  766MOL0     H 3389   8.058   3.610   3.925  0.7132  1.3712  1.0567
  766MOL0     H 3390   7.288   3.764   3.166  2.8816  1.1690  2.4911
  766MOL0     H 3391   7.150   3.793   2.963  1.4939 -1.5695  0.8124
  766MOL0     H 3392   6.869   4.254   2.751  1.5137  0.8518  0.1432
  766MOL0     H 3393   6.806   4.379   2.540 -1.7428 -2.8280 -2.8811
  766MOL0     H 3394   6.173   4.801   1.978 -0.0076  2.4613  1.6780
  766MOL0     H 3395   6.280   4.985   2.090 -1.3508  1.4790 -3.9436
  766MOL0     H 3396   6.606   5.291   2.264  2.1442  0.7541 -1.2008
  766MOL0     H 3397   6.620   5.337   2.507 -1.3623 -0.3572 -1.3225
  766MOL0     H 3398   6.672   5.129   2.881 -0.0687  2.4047 -0.4198
  766MOL0     H 3399   6.713   4.982   2.787 -3.5029 -2.0144  0.6053
  766MOL0     H 3400   6.475   4.965   2.821 -4.2147 -0.9064 -1.6698
  766MOL0     H 3401   6.500   4.993   2.652  2.5347 -0.5417  0.0365
  766MOL0     H 3402   6.463   5.257   2.723  2.4919 -0.8722  1.5890
  766MOL0     H 3403   6.398   5.179   2.861 -3.5746 -1.1795 -0.0391
  766MOL0     H 3404   6.254   5.044   2.697  0.8751  0.1830  2.4393
  766MOL0     H 3405   6.206   5.211   2.725 -1.4790 -1.6924 -0.8710
  766MOL0     H 3406   6.374   5.215   2.337  1.1376 -1.0266 -0.4335
  766MOL0     H 3407   6.825   4.954   2.553  1.7330 -1.5318 -1.3295
  766MOL0     H 3408   6.850   4.884   2.192 -1.1660  1.9703 -0.0281
  766MOL0     H 3409   6.887   4.830   2.359 -0.0753 -2.5281  0.1673
  766MOL0     H 3410   6.725   4.810   2.294 -0.8264  2.4251  0.2441
  767MOL0     O 3411  10.882   0.131   8.117  0.2620 -0.0521 -0.8092
  767MOL0     C 3412  10.968   0.152   8.199 -0.8452 -0.1483  0.6954
  767MOL0     O 3413  11.068   0.240   8.183 -0.6512  0.4483  0.6981
  767MOL0     C 3414  11.091   0.301   8.065 -0.6715 -1.0735 -0.3328
  767MOL0     C 3415  11.046   0.437   8.036  0.1836  0.0842  0.4418
  767MOL0     C 3416  11.079   0.480   7.907  0.6142  0.0648 -0.2030
  767MOL0     C 3417  11.144   0.403   7.811 -0.2910  1.0483 -0.2069
  767MOL0     O 3418  11.171   0.436   7.681  0.2990 -0.0287  0.1352
  767MOL0     C 3419  11.189   0.574   7.651 -0.6861  0.3536 -0.7913
  767MOL0     C 3420  11.222   0.578   7.503  0.2507  0.1439  0.2073
  767MOL0     C 3421  11.206   0.723   7.463  0.9544  1.3422  0.2991
  767MOL0     C 3422  11.308   0.772   7.357 -0.2033 -0.1299 -0.6306
  767MOL0     C 3423  11.265   0.916   7.314  1.1238  0.1897  0.1116
  767MOL0     C 3424  11.272   1.015   7.431  0.2592 -1.4125  0.1440
  767MOL0     C 3425  11.304   1.158   7.374 -0.5452  0.3027  0.1960
  767MOL0     C 3426  11.208   1.205   7.268 -0.3426  0.6312  0.4601
  767MOL0     N 3427  11.223   1.349   7.244  0.0272  0.0797  0.6661
  767MOL0     C 3428  11.320   1.412   7.169 -0.0074 -0.4069  0.5712
  767MOL0     C 3429  11.261   1.532   7.140 -0.3077 -0.4541 -0.4667
  767MOL0     C 3430  11.326   1.656   7.089  1.0262  0.7370  0.9362
  767MOL0     C 3431  11.278   1.671   6.945  0.9912 -0.5268  0.2926
  767MOL0     C 3432  11.324   1.808   6.884  0.1209  0.6743 -0.2367
  767MOL0     C 3433  11.283   1.929   6.973  0.5852 -0.1153  0.3459
  767MOL0     O 3434  11.289   2.055   6.906  0.5657 -0.1632  0.7089
  767MOL0     C 3435  11.184   2.100   6.831 -0.2371  0.2228  0.2479
  767MOL0     C 3436  11.163   2.239   6.828 -0.6841 -0.7119 -0.2120
  767MOL0     C 3437  11.050   2.293   6.774  0.6736 -0.2166 -0.0525
  767MOL0     C 3438  10.948   2.216   6.714  0.2326  0.4896  0.4708
  767MOL0     C 3439  10.836   2.285   6.638 -0.3987 -0.7749 -0.5680
  767MOL0     O 3440  10.866   2.414   6.597 -1.2901  0.6852  0.2524
  767MOL0     C 3441  10.776   2.480   6.516  1.0020  0.0549  0.1849
  767MOL0     C 3442  10.694   2.564   6.578 -0.0525  0.2349 -0.7770
  767MOL0     C 3443  10.621   2.653   6.501 -0.6734 -0.2790 -0.6960
  767MOL0     C 3444  10.639   2.666   6.365 -0.2296 -1.1544  0.5556
  767MOL0     O 3445  10.562   2.758   6.299  0.1982 -0.1905  0.0350
  767MOL0     C 3446  10.611   2.808   6.175 -0.0023  0.8521 -0.1181
  767MOL0     C 3447  10.544   2.948   6.150 -0.5975  0.1034  0.7760
  767MOL0     C 3448  10.586   3.003   6.012  0.2434 -0.9166  0.2412
  767MOL0     C 3449  10.487   3.112   5.955 -0.7347  1.2618 -0.7254
  767MOL0     C 3450  10.558   3.231   5.916 -0.0291 -0.0274  0.8291
  767MOL0     C 3451  10.657   3.215   5.793  0.7156 -0.7583 -0.4189
  767MOL0     C 3452  10.588   3.210   5.655 -0.1614  0.4107 -0.2436
  767MOL0     C 3453  10.521   3.348   5.606 -0.8269 -0.6225  0.6874
  767MOL0    Cl 3454  10.650   3.467   5.568 -0.2434  0.1301  0.3686
  767MOL0     C 3455  10.714   2.570   6.305 -0.5392  0.3552 -0.2658
  767MOL0     C 3456  10.782   2.474   6.377 -0.0561  0.9610 -0.2601
  767MOL0     O 3457  10.729   2.232   6.619 -0.6391  0.5439  0.1483
  767MOL0     C 3458  10.957   2.076   6.722  0.2066  0.0894  0.6064
  767MOL0     C 3459  11.079   2.023   6.779  0.6382 -0.3078  0.2028
  767MOL0     N 3460  11.136   1.545   7.207 -0.0410 -0.2382 -0.0863
  767MOL0     N 3461  11.121   1.433   7.258  0.5805  0.7477 -0.2275
  767MOL0     C 3462  11.170   0.268   7.837 -0.5075  1.3047  0.4328
  767MOL0     C 3463  11.154   0.226   7.968 -0.0352  0.7156 -0.5595
  767MOL0     C 3464  10.961   0.074   8.324  0.2246 -0.6217 -0.5917
  767MOL0     C 3465  11.067   0.091   8.418 -0.2163  0.7417  1.0420
  767MOL0     C 3466  11.077   0.016   8.535 -0.3450  0.9791 -0.0294
  767MOL0     C 3467  10.974  -0.078   8.578 -0.1403  0.2467 -0.5512
  767MOL0     O 3468  10.983  -0.165   8.689 -0.0703  0.4424 -0.6473
  767MOL0     C 3469  11.098  -0.253   8.698 -0.4130  0.2370  0.1584
  767MOL0     C 3470  11.208  -0.191   8.777  0.5518 -0.4095  0.5554
  767MOL0     C 3471  11.286  -0.299   8.848 -0.7335  0.6582  0.1373
  767MOL0     C 3472  11.201  -0.371   8.963  0.3868 -0.4001  0.2048
  767MOL0     C 3473  11.286  -0.450   9.049  0.4615 -0.3652 -0.8479
  767MOL0     C 3474  11.348  -0.522   9.128  0.3237 -0.6152 -0.5837
  767MOL0     C 3475  10.871  -0.097   8.488  0.5119 -0.5325 -0.3657
  767MOL0     C 3476  10.861  -0.023   8.367 -0.5992  0.0047 -0.7439
  767MOL0     C 3477  10.750  -0.070   8.273 -0.0862 -0.5223  0.3647
  767MOL0     H 3478  10.987   0.498   8.104 -0.8453 -0.0374 -0.3031
  767MOL0     H 3479  11.047   0.578   7.872 -1.0287 -0.4360 -0.1375
  767MOL0     H 3480  11.097   0.630   7.668  0.1840  2.2884 -2.0082
  767MOL0     H 3481  11.272   0.618   7.707 -1.2996  0.7447 -0.1908
  767MOL0     H 3482  11.154   0.521   7.440  2.3233 -0.1189 -1.9604
  767MOL0     H 3483  11.324   0.543   7.482  1.1908  2.1359  1.1070
  767MOL0     H 3484  11.218   0.789   7.549  1.3694  2.3097 -0.4847
  767MOL0     H 3485  11.105   0.734   7.421  0.2180 -1.3142  1.0947
  767MOL0     H 3486  11.407   0.786   7.400 -0.3794  0.5855 -0.4387
  767MOL0     H 3487  11.310   0.705   7.271 -2.5412  0.0854 -0.9229
  767MOL0     H 3488  11.316   0.948   7.223  0.8632 -0.5151 -0.2884
  767MOL0     H 3489  11.163   0.913   7.277  1.5384 -0.8959 -0.9944
  767MOL0     H 3490  11.179   1.018   7.489  1.5301  1.3637  2.2509
  767MOL0     H 3491  11.349   1.005   7.508  1.2448  2.2823 -0.1648
  767MOL0     H 3492  11.404   1.156   7.329 -0.3168 -1.5945  0.7124
  767MOL0     H 3493  11.312   1.214   7.468  2.4575  0.8782 -0.2883
  767MOL0     H 3494  11.224   1.138   7.183  2.1794  3.5314 -1.5581
  767MOL0     H 3495  11.107   1.189   7.308 -0.2923 -2.4100 -0.3743
  767MOL0     H 3496  11.425   1.384   7.165  0.7010  1.9388 -4.1931
  767MOL0     H 3497  11.296   1.737   7.157  0.9202  0.1876  1.5564
  767MOL0     H 3498  11.435   1.646   7.085  1.0782  0.4888  2.3883
  767MOL0     H 3499  11.307   1.592   6.876 -2.7808  0.5595 -2.9557
  767MOL0     H 3500  11.170   1.678   6.923  1.5479  0.8157 -2.5232
  767MOL0     H 3501  11.271   1.795   6.790  0.5932 -2.1272 -0.2050
  767MOL0     H 3502  11.433   1.809   6.875  0.2137  0.0587  0.5981
  767MOL0     H 3503  11.352   1.928   7.058  1.5963 -0.7041 -0.4617
  767MOL0     H 3504  11.184   1.899   7.010  0.5460 -0.2661  0.1184
  767MOL0     H 3505  11.242   2.303   6.866 -0.4903  0.3496 -2.2349
  767MOL0     H 3506  11.051   2.402   6.770 -2.7190 -0.0001  1.2628
  767MOL0     H 3507  10.691   2.577   6.686  0.0869 -4.8411  0.0632
  767MOL0     H 3508  10.566   2.725   6.561  1.7491 -0.4104  1.8996
  767MOL0     H 3509  10.719   2.796   6.168 -0.3926 -3.9762 -1.2650
  767MOL0     H 3510  10.573   2.736   6.101 -2.8581  1.8834  0.2089
  767MOL0     H 3511  10.436   2.935   6.142 -0.3128 -1.2835 -3.0760
  767MOL0     H 3512  10.576   3.017   6.229  0.3025  1.6990 -0.8919
  767MOL0     H 3513  10.689   3.041   6.009 -0.7356  2.0529 -3.2240
  767MOL0     H 3514  10.583   2.928   5.933  0.8760 -1.2175  0.4944
  767MOL0     H 3515  10.426   3.151   6.037 -0.9012 -1.9053  0.8173
  767MOL0     H 3516  10.423   3.068   5.877 -1.9090  1.5899  0.0242
  767MOL0     H 3517  10.611   3.252   6.009  4.4959 -0.6043 -1.3858
  767MOL0     H 3518  10.484   3.308   5.889  0.1776 -0.0214  0.2652
  767MOL0     H 3519  10.731   3.295   5.790  0.6860 -0.5392  2.0994
  767MOL0     H 3520  10.716   3.126   5.814 -2.7372 -2.4372  3.9350
  767MOL0     H 3521  10.514   3.132   5.675 -1.8557  1.9886 -0.1455
  767MOL0     H 3522  10.654   3.180   5.573  0.0426 -1.7141  0.6192
  767MOL0     H 3523  10.471   3.326   5.511 -2.1322  3.8005  0.1089
  767MOL0     H 3524  10.438   3.377   5.671  1.7081  0.1294  3.8564
  767MOL0     H 3525  10.728   2.577   6.197  1.8459  1.0977  0.0508
  767MOL0     H 3526  10.841   2.389   6.345  1.5404  1.3235  1.5565
  767MOL0     H 3527  10.872   2.020   6.685 -0.5106  2.1601 -1.1021
  767MOL0     H 3528  11.080   1.916   6.796  0.7190 -0.0230  2.1469
  767MOL0     H 3529  11.211   0.203   7.760  0.8057  0.2261  1.9667
  767MOL0     H 3530  11.194   0.129   7.996 -0.3430 -0.2372 -3.1391
  767MOL0     H 3531  11.155   0.148   8.393  0.3681 -1.1173 -1.4809
  767MOL0     H 3532  11.173   0.002   8.582 -1.7121  0.7392  2.8931
  767MOL0     H 3533  11.141  -0.291   8.604  0.2561 -0.0812  0.5916
  767MOL0     H 3534  11.059  -0.344   8.744 -0.1860 -0.3693 -0.8242
  767MOL0     H 3535  11.169  -0.136   8.864 -0.4039 -0.4867  0.1777
  767MOL0     H 3536  11.266  -0.119   8.719 -2.3522  0.4776 -1.4930
  767MOL0     H 3537  11.372  -0.249   8.891 -0.6949  1.3778 -0.7452
  767MOL0     H 3538  11.310  -0.373   8.770  0.9725  0.7336  0.5445
  767MOL0     H 3539  11.150  -0.294   9.022  3.2084 -1.3428  4.3306
  767MOL0     H 3540  11.125  -0.439   8.922 -2.1568 -0.5757  4.5244
  767MOL0     H 3541  11.393  -0.599   9.187  3.0655 -0.8888 -2.8231
  767MOL0     H 3542  10.798  -0.173   8.511  0.2413  0.4344  2.3547
  767MOL0     H 3543  10.677  -0.142   8.311 -1.3985  0.2251 -0.6552
  767MOL0     H 3544  10.692   0.017   8.239 -1.4859 -1.8569 -0.8360
  767MOL0     H 3545  10.816  -0.101   8.191  0.3414  0.1541  0.4423
  768MOL0     O 3546   9.664   8.457   8.584 -0.3003 -0.2960  0.4238
  768MOL0     C 3547   9.739   8.426   8.495  0.5126  0.2524 -0.1676
  768MOL0     O 3548   9.785   8.304   8.467  0.3000  0.1490 -0.8111
  768MOL0     C 3549   9.728   8.200   8.548 -0.5769  0.3204 -0.4114
  768MOL0     C 3550   9.598   8.156   8.528  0.2915  0.4648 -0.4241
  768MOL0     C 3551   9.555   8.031   8.582 -0.9758 -0.5372  0.4653
  768MOL0     C 3552   9.642   7.960   8.670 -0.1340  0.2711 -0.5165
  768MOL0     O 3553   9.606   7.854   8.745  0.0110 -0.1625  0.7309
  768MOL0     C 3554   9.509   7.761   8.689 -0.0028 -0.1304 -0.0403
  768MOL0     C 3555   9.497   7.640   8.781 -0.0290 -0.6551  0.0273
  768MOL0     C 3556   9.357   7.587   8.768  0.3948  0.3071  0.7404
  768MOL0     C 3557   9.354   7.469   8.864 -0.3773 -0.5056  0.0510
  768MOL0     C 3558   9.225   7.392   8.846 -0.2350  0.2330 -0.2863
  768MOL0     C 3559   9.232   7.261   8.929  0.9468  0.6939 -0.2557
  768MOL0     C 3560   9.105   7.175   8.894  0.4198 -0.4177  0.8373
  768MOL0     C 3561   9.102   7.044   8.977 -0.1761 -0.6354  0.3991
  768MOL0     N 3562   8.986   6.960   8.946  0.8389  1.6179 -0.2482
  768MOL0     C 3563   8.860   6.986   9.001  0.1329 -0.3138 -0.2947
  768MOL0     C 3564   8.782   6.880   8.978 -0.6550 -0.6400 -0.2440
  768MOL0     C 3565   8.645   6.868   9.012 -0.3442 -0.1739  0.3418
  768MOL0     C 3566   8.597   6.729   9.042  0.8690 -0.2051  0.4352
  768MOL0     C 3567   8.670   6.672   9.171 -0.0643 -0.2229  0.1783
  768MOL0     C 3568   8.617   6.541   9.203  0.5684 -0.5751  0.9223
  768MOL0     O 3569   8.658   6.505   9.340  0.0358 -0.6533  0.1770
  768MOL0     C 3570   8.731   6.396   9.380 -0.6322  0.5632  0.3634
  768MOL0     C 3571   8.811   6.418   9.486 -1.0772  0.5178 -1.2234
  768MOL0     C 3572   8.902   6.323   9.531 -0.3023  0.2883 -0.7232
  768MOL0     C 3573   8.915   6.191   9.471  0.3157  1.4675  0.1860
  768MOL0     C 3574   8.993   6.077   9.533  0.0710 -0.4583 -0.3797
  768MOL0     O 3575   9.002   5.959   9.463 -0.1007 -0.0296 -0.1595
  768MOL0     C 3576   9.058   5.850   9.530 -0.5196  1.2911  0.0933
  768MOL0     C 3577   9.165   5.783   9.478  0.1014  0.0989 -0.4499
  768MOL0     C 3578   9.227   5.677   9.543  0.3985 -0.3902  0.6584
  768MOL0     C 3579   9.177   5.625   9.660  0.2558 -0.3318 -0.0889
  768MOL0     O 3580   9.219   5.517   9.731 -1.0328 -0.6618 -0.6021
  768MOL0     C 3581   9.356   5.481   9.734 -0.1279 -1.4380 -0.2322
  768MOL0     C 3582   9.387   5.408   9.861 -1.2045 -0.0268 -0.4346
  768MOL0     C 3583   9.374   5.252   9.855 -0.2006 -0.5637 -0.4633
  768MOL0     C 3584   9.376   5.197  10.003  0.5542  0.4256 -0.2232
  768MOL0     C 3585   9.354   5.050  10.003  0.0497  0.0510  0.5660
  768MOL0     C 3586   9.351   4.988  10.146 -0.0318 -0.6656 -0.0788
  768MOL0     C 3587   9.323   4.838  10.140  0.7396 -0.2857 -0.4919
  768MOL0     C 3588   9.298   4.783  10.273  0.1700  0.4504 -0.9302
  768MOL0    Cl 3589   9.227   4.624  10.254  0.0374  0.4378  0.2550
  768MOL0     C 3590   9.070   5.691   9.715 -0.1420  0.2063  0.2487
  768MOL0     C 3591   9.011   5.803   9.654 -0.3856  0.2929 -0.8854
  768MOL0     O 3592   9.035   6.099   9.653  0.2714  0.3527 -0.6074
  768MOL0     C 3593   8.851   6.181   9.348  0.2275 -0.1459  0.1109
  768MOL0     C 3594   8.753   6.277   9.308  0.4037  0.3052  0.1529
  768MOL0     N 3595   8.857   6.792   8.904  0.4130  0.4863 -0.2027
  768MOL0     N 3596   8.975   6.836   8.884  0.2334 -0.6205 -0.0685
  768MOL0     C 3597   9.774   8.008   8.693  0.3431  0.0637  0.4843
  768MOL0     C 3598   9.820   8.119   8.623 -0.6870  0.5022  0.3198
  768MOL0     C 3599   9.784   8.533   8.392 -0.2308  0.5361  0.3308
  768MOL0     C 3600   9.711   8.655   8.380  1.3045 -0.3650 -0.5508
  768MOL0     C 3601   9.755   8.770   8.312  0.1393  1.1370 -0.4876
  768MOL0     C 3602   9.876   8.756   8.236  0.5726 -0.6764 -0.6767
  768MOL0     O 3603   9.901   8.859   8.155  0.0700 -0.1674 -0.8897
  768MOL0     C 3604  10.033   8.877   8.105  0.7285  0.6011 -0.5998
  768MOL0     C 3605  10.065   9.002   8.020  0.7953  0.8246 -0.3812
  768MOL0     C 3606  10.206   9.033   8.007 -0.8828 -0.2238 -0.7557
  768MOL0     C 3607  10.241   9.185   7.989  0.1988 -0.6317 -0.2605
  768MOL0     C 3608  10.173   9.259   7.884 -0.2142  0.5944 -0.2600
  768MOL0     C 3609  10.132   9.324   7.792  0.5416 -0.6426 -0.4247
  768MOL0     C 3610   9.955   8.629   8.244  0.8960 -0.6218  0.0563
  768MOL0     C 3611   9.904   8.526   8.325  0.0720  0.5747  0.0081
  768MOL0     C 3612  10.003   8.409   8.319  0.9868 -0.1300 -0.1275
  768MOL0     H 3613   9.536   8.223   8.469  0.6627  1.3054  0.1219
  768MOL0     H 3614   9.455   7.999   8.554 -0.2043  0.1555 -3.6855
  768MOL0     H 3615   9.420   7.823   8.698 -0.3424 -0.7016  0.6022
  768MOL0     H 3616   9.526   7.729   8.586 -0.2234  0.9524 -0.4307
  768MOL0     H 3617   9.522   7.671   8.883  2.9342  2.7376 -1.5047
  768MOL0     H 3618   9.574   7.565   8.760  0.0527 -1.3742  2.5672
  768MOL0     H 3619   9.319   7.556   8.670 -2.0809  1.1597  1.3589
  768MOL0     H 3620   9.283   7.661   8.798 -0.1233  1.5799 -3.1002
  768MOL0     H 3621   9.438   7.403   8.839  0.3841  0.8539 -1.1450
  768MOL0     H 3622   9.363   7.496   8.969  2.9524 -2.8525  0.5246
  768MOL0     H 3623   9.140   7.455   8.873 -0.6360 -0.3823 -0.0809
  768MOL0     H 3624   9.212   7.361   8.742 -3.2071 -1.6297  0.5059
  768MOL0     H 3625   9.328   7.209   8.918  0.7555 -0.2765  2.0528
  768MOL0     H 3626   9.218   7.288   9.034 -1.7312  3.0932 -1.0987
  768MOL0     H 3627   9.084   7.163   8.787  1.9981  0.8190  0.3608
  768MOL0     H 3628   9.022   7.240   8.925  0.6052  1.3892 -2.0770
  768MOL0     H 3629   9.199   7.005   8.944 -0.1138 -1.8850  1.9362
  768MOL0     H 3630   9.107   7.052   9.086  1.5222 -2.5891  0.5217
  768MOL0     H 3631   8.818   7.079   9.038  1.5965  0.6073 -0.8503
  768MOL0     H 3632   8.630   6.933   9.098  0.9749  0.9775 -0.2600
  768MOL0     H 3633   8.595   6.905   8.922 -2.2944  1.2538  1.9285
  768MOL0     H 3634   8.491   6.734   9.069  1.4406 -0.6003  3.0028
  768MOL0     H 3635   8.610   6.677   8.946  3.8672  1.9026 -0.4384
  768MOL0     H 3636   8.668   6.733   9.262  2.1952  4.8205 -2.7305
  768MOL0     H 3637   8.776   6.660   9.148  0.9747  3.9969  1.7890
  768MOL0     H 3638   8.642   6.464   9.129 -1.1162 -0.6938  0.4316
  768MOL0     H 3639   8.508   6.537   9.213  0.4654 -1.6976 -0.3112
  768MOL0     H 3640   8.795   6.508   9.545  1.1883  1.6388 -2.2080
  768MOL0     H 3641   8.964   6.349   9.617  0.6195 -2.3682 -0.4801
  768MOL0     H 3642   9.191   5.829   9.384 -2.3767  3.6228  0.3948
  768MOL0     H 3643   9.319   5.649   9.494 -0.0030  0.0679 -0.3754
  768MOL0     H 3644   9.397   5.420   9.653  2.1374  1.6095 -1.5802
  768MOL0     H 3645   9.420   5.570   9.729  2.6849 -3.1620  1.8811
  768MOL0     H 3646   9.487   5.434   9.898 -2.3826  0.1809  2.9684
  768MOL0     H 3647   9.323   5.448   9.939  1.3663  0.2901  1.6557
  768MOL0     H 3648   9.282   5.226   9.802  0.6457 -2.3277 -1.1516
  768MOL0     H 3649   9.454   5.209   9.794 -0.3495  0.8678 -1.7324
  768MOL0     H 3650   9.291   5.234  10.060  0.7154 -2.2191  1.9224
  768MOL0     H 3651   9.471   5.220  10.051  0.6882 -2.0688  0.8722
  768MOL0     H 3652   9.436   5.004   9.947  1.1354  2.0613  0.3985
  768MOL0     H 3653   9.262   5.021   9.952  0.4020 -0.2802  0.1137
  768MOL0     H 3654   9.446   5.003  10.198 -0.3489 -1.4532  0.7733
  768MOL0     H 3655   9.271   5.040  10.201  0.3528 -0.2357  0.0818
  768MOL0     H 3656   9.406   4.781  10.096  1.1958 -0.1413  0.1830
  768MOL0     H 3657   9.242   4.818  10.069  1.9671 -1.7136 -1.5921
  768MOL0     H 3658   9.396   4.778  10.322  0.3316 -1.2787 -1.3749
  768MOL0     H 3659   9.228   4.835  10.339 -0.5511 -3.3384  1.6216
  768MOL0     H 3660   9.022   5.661   9.808  0.2281  2.0551  1.1038
  768MOL0     H 3661   8.917   5.840   9.694  0.0866 -0.0576  0.5900
  768MOL0     H 3662   8.879   6.091   9.293 -0.3137 -1.1573  1.4252
  768MOL0     H 3663   8.704   6.264   9.212  0.5904 -1.1233  0.2276
  768MOL0     H 3664   9.839   7.944   8.753  3.2119  1.5654 -0.8200
  768MOL0     H 3665   9.926   8.137   8.636  0.0141 -1.6459 -1.8110
  768MOL0     H 3666   9.629   8.653   8.452 -0.5843 -1.5134 -2.6190
  768MOL0     H 3667   9.698   8.863   8.310 -2.5234 -0.4180 -1.9142
  768MOL0     H 3668  10.067   8.792   8.044 -1.4614 -1.1829  0.5294
  768MOL0     H 3669  10.094   8.893   8.194  0.9607  0.3466 -0.7110
  768MOL0     H 3670  10.011   9.063   8.093  3.3754 -0.5862  3.0027
  768MOL0     H 3671  10.009   8.995   7.926  1.8235  1.3974 -1.0427
  768MOL0     H 3672  10.243   8.977   7.921  0.0472  0.8962 -1.1110
  768MOL0     H 3673  10.256   9.024   8.104  0.7036 -1.5977 -1.6515
  768MOL0     H 3674  10.220   9.233   8.085 -2.1317 -2.0283  0.0052
  768MOL0     H 3675  10.346   9.199   7.963  0.5135 -0.9410  0.7848
  768MOL0     H 3676  10.105   9.401   7.723  0.1236  0.5769  1.0242
  768MOL0     H 3677  10.034   8.620   8.170  1.8008  0.7699  0.8093
  768MOL0     H 3678  10.088   8.432   8.255 -0.1772 -4.4664 -3.7905
  768MOL0     H 3679  10.034   8.378   8.420 -1.6080  0.6005  0.9806
  768MOL0     H 3680   9.959   8.321   8.270 -1.2362  0.3526  0.8690
  769MOL0     O 3681   9.965   7.020  10.036  0.3647 -0.0399 -0.1483
  769MOL0     C 3682   9.987   6.979   9.922 -0.5496 -0.0745  0.5368
  769MOL0     O 3683  10.046   7.067   9.822  0.0744 -1.0033 -0.4590
  769MOL0     C 3684  10.052   7.199   9.841  0.1695 -0.6107 -0.0271
  769MOL0     C 3685   9.939   7.273   9.883 -0.4096 -0.1520 -0.8361
  769MOL0     C 3686   9.944   7.420   9.872  0.2424 -0.1449 -0.9057
  769MOL0     C 3687  10.058   7.487   9.842 -0.1002  0.3889 -0.5985
  769MOL0     O 3688  10.070   7.624   9.845 -0.1813 -0.1135 -0.2975
  769MOL0     C 3689   9.952   7.708   9.845 -0.0518  0.1879 -0.2588
  769MOL0     C 3690   9.988   7.850   9.814 -0.3953 -0.1474 -0.3769
  769MOL0     C 3691  10.044   7.882   9.668 -0.4367 -0.7684  0.3629
  769MOL0     C 3692   9.998   8.021   9.628  0.0111 -0.0162 -0.3821
  769MOL0     C 3693   9.851   8.020   9.567  0.9747 -0.4924 -0.0803
  769MOL0     C 3694   9.811   8.149   9.500  0.7266 -0.2987  0.5648
  769MOL0     C 3695   9.659   8.177   9.472  0.2442  0.3824 -0.1922
  769MOL0     C 3696   9.606   8.260   9.578  0.1745  0.1800 -0.3922
  769MOL0     N 3697   9.586   8.205   9.710  0.0257  0.0985 -0.5740
  769MOL0     C 3698   9.666   8.201   9.817 -0.0250  0.2435 -0.1628
  769MOL0     C 3699   9.594   8.150   9.923 -0.3530 -0.5501  1.0584
  769MOL0     C 3700   9.644   8.094  10.050 -0.6103  0.2531  0.0706
  769MOL0     C 3701   9.565   7.973  10.110  0.1972  0.3285 -0.2632
  769MOL0     C 3702   9.445   8.027  10.184 -0.2659 -0.1231 -0.2724
  769MOL0     C 3703   9.429   7.962  10.325  0.2769 -0.5424  0.4467
  769MOL0     O 3704   9.506   8.035  10.418 -0.6430  0.0797  0.2495
  769MOL0     C 3705   9.520   7.971  10.539  0.0268 -0.1114  0.5315
  769MOL0     C 3706   9.426   7.891  10.606 -0.1079  1.0948  0.1267
  769MOL0     C 3707   9.454   7.852  10.740  0.7065  0.6846 -0.1268
  769MOL0     C 3708   9.568   7.877  10.804  1.1523 -0.4304 -0.7851
  769MOL0     C 3709   9.602   7.804  10.931  0.2844  0.2938 -0.1402
  769MOL0     O 3710   9.529   7.698  10.962  0.1700 -0.0144 -0.3527
  769MOL0     C 3711   9.554   7.641  11.083  1.0091  1.0138  0.5864
  769MOL0     C 3712   9.525   7.699  11.209 -1.1587  0.5681  0.6919
  769MOL0     C 3713   9.569   7.625  11.324  0.3573  0.0974 -0.0785
  769MOL0     C 3714   9.619   7.493  11.308  0.1828  0.0288 -0.4057
  769MOL0     O 3715   9.634   7.414  11.414 -0.8185 -0.6914  0.9047
  769MOL0     C 3716   9.758   7.432  11.482  0.1890 -0.6849 -0.5211
  769MOL0     C 3717   9.788   7.291  11.543 -0.4304  0.3294  0.6314
  769MOL0     C 3718   9.838   7.194  11.437 -0.2341 -0.3511  0.6548
  769MOL0     C 3719   9.886   7.061  11.479  0.0685  0.2911  0.4683
  769MOL0     C 3720   9.951   6.985  11.364  0.6871 -0.0863  0.6088
  769MOL0     C 3721   9.840   6.894  11.293  0.5153 -0.1301 -0.1508
  769MOL0     C 3722   9.740   6.962  11.204 -0.1229  0.0432  0.4345
  769MOL0     C 3723   9.795   7.053  11.090  0.1286 -0.0829  0.1447
  769MOL0    Cl 3724   9.810   6.969  10.934 -0.3064  0.3987  0.0068
  769MOL0     C 3725   9.639   7.439  11.182  0.9249  0.3617 -0.6656
  769MOL0     C 3726   9.606   7.512  11.072  0.4631 -0.3141  0.2371
  769MOL0     O 3727   9.697   7.850  10.994  0.2681  0.6953 -1.3418
  769MOL0     C 3728   9.665   7.960  10.739 -0.8776 -1.1972 -0.2085
  769MOL0     C 3729   9.634   8.000  10.604  0.3579  0.3458 -0.6318
  769MOL0     N 3730   9.460   8.137   9.867 -0.5257  0.1178  0.7908
  769MOL0     N 3731   9.463   8.167   9.742  1.1699 -0.5632  0.1058
  769MOL0     C 3732  10.158   7.404   9.790  0.3871  0.8335  0.0892
  769MOL0     C 3733  10.165   7.271   9.786  0.6727 -0.1272  1.2187
  769MOL0     C 3734   9.961   6.834   9.898  1.0953  0.2875  0.1615
  769MOL0     C 3735   9.936   6.749  10.006 -0.1639  0.7995 -0.8770
  769MOL0     C 3736   9.879   6.623   9.985 -0.2598 -0.2700 -0.9616
  769MOL0     C 3737   9.866   6.565   9.858 -0.5654 -0.4559 -0.2516
  769MOL0     O 3738   9.828   6.433   9.844  0.7088  0.4269 -0.5986
  769MOL0     C 3739   9.862   6.357   9.730  1.3101 -0.2914  0.1890
  769MOL0     C 3740   9.915   6.222   9.752  0.4709  0.1852  0.1778
  769MOL0     C 3741   9.985   6.169   9.630 -0.3782 -0.4109  0.1689
  769MOL0     C 3742  10.098   6.077   9.686 -0.0208 -0.0401  1.4003
  769MOL0     C 3743  10.137   5.983   9.582  0.7696 -0.5556 -0.1680
  769MOL0     C 3744  10.174   5.905   9.500 -0.1764 -0.3363 -0.7466
  769MOL0     C 3745   9.909   6.651   9.754 -0.6532  0.1816 -0.1425
  769MOL0     C 3746   9.950   6.785   9.767 -1.4954 -0.1359 -0.4242
  769MOL0     C 3747   9.968   6.862   9.639  0.2395 -0.8111 -0.0065
  769MOL0     H 3748   9.855   7.211   9.913  0.6545 -2.6035 -2.5906
  769MOL0     H 3749   9.853   7.472   9.897  1.1557 -0.0401  2.6648
  769MOL0     H 3750   9.879   7.664   9.777  2.3846 -1.7066 -1.8553
  769MOL0     H 3751   9.920   7.705   9.950  1.9301  1.8468  0.4719
  769MOL0     H 3752  10.064   7.878   9.887 -2.3545  1.1252  1.2640
  769MOL0     H 3753   9.907   7.916   9.846  3.1724  1.9682  6.0631
  769MOL0     H 3754  10.001   7.812   9.595  1.7396 -0.0900 -1.6560
  769MOL0     H 3755  10.151   7.871   9.685 -0.1838  1.9441  0.8818
  769MOL0     H 3756   9.997   8.090   9.714 -3.2407 -0.9989  0.5047
  769MOL0     H 3757  10.073   8.053   9.555 -0.5054 -1.1041 -1.4194
  769MOL0     H 3758   9.830   7.935   9.501  2.8588  1.0173 -2.8623
  769MOL0     H 3759   9.779   8.002   9.647  0.5637  1.7827  0.1365
  769MOL0     H 3760   9.841   8.238   9.555  1.3665  1.1714 -1.9988
  769MOL0     H 3761   9.866   8.166   9.407 -3.5031 -1.7054 -2.5081
  769MOL0     H 3762   9.615   8.078   9.457  3.9628 -1.2718 -1.4454
  769MOL0     H 3763   9.642   8.228   9.377 -4.4864  0.4486  0.4608
  769MOL0     H 3764   9.656   8.357   9.592 -1.3381  1.0633 -0.8838
  769MOL0     H 3765   9.504   8.287   9.549 -0.1612  0.7298  1.1783
  769MOL0     H 3766   9.774   8.207   9.801 -0.2675 -2.1015 -3.4281
  769MOL0     H 3767   9.747   8.060  10.043 -1.1169 -2.6521  3.5531
  769MOL0     H 3768   9.646   8.175  10.123 -2.0178  1.0257 -0.7014
  769MOL0     H 3769   9.526   7.899  10.039 -0.1745  0.7230 -0.4793
  769MOL0     H 3770   9.627   7.924  10.184 -0.2190 -2.3522 -1.5737
  769MOL0     H 3771   9.355   8.009  10.124  1.9281 -1.6519 -3.3704
  769MOL0     H 3772   9.441   8.134  10.206  0.0612  0.0012 -0.7872
  769MOL0     H 3773   9.467   7.859  10.328 -1.5622 -1.2403  1.4441
  769MOL0     H 3774   9.321   7.970  10.343  0.4298 -0.5854  1.4237
  769MOL0     H 3775   9.334   7.869  10.554 -0.8126  2.9238  0.5178
  769MOL0     H 3776   9.384   7.782  10.786  1.2183  2.3420  3.4662
  769MOL0     H 3777   9.488   7.801  11.218  0.7421  1.2471  1.2849
  769MOL0     H 3778   9.548   7.673  11.419 -1.6880 -2.8868  1.1265
  769MOL0     H 3779   9.837   7.466  11.414 -1.3201 -0.2301 -2.1097
  769MOL0     H 3780   9.752   7.506  11.562  5.2661  0.3930 -0.7908
  769MOL0     H 3781   9.858   7.290  11.628  0.4847 -2.1405 -0.0537
  769MOL0     H 3782   9.699   7.249  11.592 -0.7026  1.4457  1.1194
  769MOL0     H 3783   9.770   7.173  11.355  0.3997 -1.0687  0.3006
  769MOL0     H 3784   9.922   7.241  11.386  0.4507 -3.4715 -1.3951
  769MOL0     H 3785   9.802   7.012  11.527  1.5258 -0.7396  2.0879
  769MOL0     H 3786   9.967   7.077  11.551 -1.3396  2.1595  1.7385
  769MOL0     H 3787  10.036   6.921  11.390 -0.0122 -1.4583 -0.3153
  769MOL0     H 3788   9.986   7.050  11.283  0.8343  0.3462  1.0182
  769MOL0     H 3789   9.897   6.825  11.231 -0.8244 -0.4941 -1.0240
  769MOL0     H 3790   9.787   6.823  11.358 -1.0207  1.3958  0.3491
  769MOL0     H 3791   9.667   7.007  11.272  0.3684 -0.2955  1.2024
  769MOL0     H 3792   9.686   6.881  11.154  3.3408 -1.3003 -1.4776
  769MOL0     H 3793   9.724   7.136  11.082 -2.8311 -2.3080  1.3505
  769MOL0     H 3794   9.894   7.088  11.119  1.9680 -1.8934 -3.2581
  769MOL0     H 3795   9.679   7.341  11.158 -2.0091 -0.9141 -0.8201
  769MOL0     H 3796   9.613   7.473  10.971 -0.4870  0.4907 -0.1570
  769MOL0     H 3797   9.762   7.982  10.783  0.4005 -3.7161 -1.5607
  769MOL0     H 3798   9.711   8.044  10.541  1.9532 -2.0586 -0.5084
  769MOL0     H 3799  10.245   7.451   9.744 -0.1979  1.5679 -0.2850
  769MOL0     H 3800  10.243   7.212   9.739  0.6658 -0.6365  1.8411
  769MOL0     H 3801   9.970   6.776  10.106 -1.1808  1.6387 -0.7470
  769MOL0     H 3802   9.869   6.562  10.074 -0.7245 -0.7384 -1.3301
  769MOL0     H 3803   9.936   6.405   9.665 -1.0872  2.0971 -0.9732
  769MOL0     H 3804   9.780   6.355   9.658  3.1072  0.9007 -2.0383
  769MOL0     H 3805   9.832   6.163   9.792  0.9234  2.0018  4.2937
  769MOL0     H 3806   9.991   6.240   9.828 -1.9307 -0.3055  2.9109
  769MOL0     H 3807  10.021   6.247   9.563  3.7855  0.5723  3.1459
  769MOL0     H 3808   9.912   6.116   9.568  1.4540 -4.5918  1.2327
  769MOL0     H 3809  10.187   6.139   9.697  2.1530 -2.9576  1.4150
  769MOL0     H 3810  10.078   6.035   9.785  1.9691 -3.7069  0.4323
  769MOL0     H 3811  10.208   5.820   9.444  0.8526 -1.4872  1.4912
  769MOL0     H 3812   9.917   6.608   9.655  1.0637  0.1697 -0.0349
  769MOL0     H 3813   9.927   6.814   9.550  2.0961 -2.0206 -0.2532
  769MOL0     H 3814   9.938   6.967   9.646  2.6217 -0.2117  3.4520
  769MOL0     H 3815  10.077   6.867   9.639  0.2024  1.4922  1.2142
  770MOL0     O 3816   1.432  10.774   7.014 -0.1804 -0.3295  0.0116
  770MOL0     C 3817   1.463  10.756   6.892  0.0205 -0.5073 -1.0442
  770MOL0     O 3818   1.387  10.808   6.799  0.1412  0.0970 -0.2964
  770MOL0     C 3819   1.255  10.828   6.837 -0.4322 -1.1710  0.1461
  770MOL0     C 3820   1.219  10.934   6.916 -0.9863 -0.9403  0.0247
  770MOL0     C 3821   1.086  10.962   6.934 -0.3004  0.6773  0.5124
  770MOL0     C 3822   0.990  10.890   6.862 -0.6018  0.7163  0.0709
  770MOL0     O 3823   0.855  10.908   6.875  0.0472 -0.4493  0.4355
  770MOL0     C 3824   0.810  10.951   7.003 -0.6424 -0.1322 -0.1892
  770MOL0     C 3825   0.656  10.997   6.996  0.4390 -0.8816 -0.9830
  770MOL0     C 3826   0.645  11.134   6.920 -0.1757  0.1674 -0.0899
  770MOL0     C 3827   0.708  11.266   6.984  0.7262 -0.4072 -0.0528
  770MOL0     C 3828   0.659  11.404   6.923 -0.1793  0.3417  0.0380
  770MOL0     C 3829   0.750  11.517   6.967  0.1667  0.2192 -0.1844
  770MOL0     C 3830   0.720  11.654   6.913 -0.1052 -0.4069 -0.0817
  770MOL0     C 3831   0.824  11.714   6.833 -0.2417  0.1531 -0.4443
  770MOL0     N 3832   0.794  11.861   6.807 -0.1555  1.0879  0.9060
  770MOL0     C 3833   0.690  11.896   6.732 -0.8119 -0.0933 -0.7607
  770MOL0     C 3834   0.662  12.025   6.754  0.2343 -1.3561  0.0096
  770MOL0     C 3835   0.541  12.098   6.688  0.2955  0.3666  0.4187
  770MOL0     C 3836   0.410  12.066   6.772 -0.0675 -0.5325  0.8902
  770MOL0     C 3837   0.284  12.118   6.705  0.0357  0.1813  0.5685
  770MOL0     C 3838   0.160  12.081   6.780  0.2266  1.2471 -0.5036
  770MOL0     O 3839   0.042  12.085   6.701  0.1012  0.3528 -0.2284
  770MOL0     C 3840  -0.018  12.194   6.649 -0.0489  0.7019 -0.2101
  770MOL0     C 3841   0.018  12.327   6.682  0.5063 -0.0303  0.0085
  770MOL0     C 3842  -0.052  12.436   6.621 -1.1191 -0.7085  0.1374
  770MOL0     C 3843  -0.151  12.407   6.520 -0.0751  0.3703 -0.0533
  770MOL0     C 3844  -0.238  12.514   6.464  0.3793 -0.6085 -0.0997
  770MOL0     O 3845  -0.242  12.641   6.509  0.0634  0.1235  0.4296
  770MOL0     C 3846  -0.317  12.733   6.437  0.5255 -1.0742 -0.3931
  770MOL0     C 3847  -0.258  12.843   6.369 -0.2993 -0.2323 -0.6604
  770MOL0     C 3848  -0.339  12.928   6.289  0.4532  0.4243  0.5461
  770MOL0     C 3849  -0.477  12.896   6.274  0.4340 -0.3283  0.7743
  770MOL0     O 3850  -0.550  12.971   6.188 -0.6665 -0.7578 -0.3065
  770MOL0     C 3851  -0.620  12.894   6.096  0.4320 -0.7821  0.1812
  770MOL0     C 3852  -0.657  12.981   5.972 -0.2474 -0.1714  1.1281
  770MOL0     C 3853  -0.563  12.963   5.852  0.2066  0.1203  0.0031
  770MOL0     C 3854  -0.622  13.038   5.737 -0.7046 -0.6425  0.6672
  770MOL0     C 3855  -0.526  13.053   5.621 -0.0295  0.5737 -0.2017
  770MOL0     C 3856  -0.422  13.157   5.648 -0.0696 -0.0579 -0.0830
  770MOL0     C 3857  -0.310  13.160   5.537  0.8917 -1.0790 -0.2524
  770MOL0     C 3858  -0.250  13.303   5.539 -0.2931  0.3172  0.3060
  770MOL0    Cl 3859  -0.163  13.340   5.388 -0.3040 -0.7937 -0.2884
  770MOL0     C 3860  -0.535  12.792   6.339 -0.6770 -0.1131 -0.2078
  770MOL0     C 3861  -0.456  12.709   6.426  0.6256 -0.1160  0.3373
  770MOL0     O 3862  -0.312  12.468   6.377 -0.5967  0.7356  0.4156
  770MOL0     C 3863  -0.186  12.276   6.498  0.4143  0.0128  0.7108
  770MOL0     C 3864  -0.124  12.171   6.560 -0.0116 -0.7260  0.3435
  770MOL0     N 3865   0.746  12.069   6.853  0.4241 -0.7211 -0.0905
  770MOL0     N 3866   0.827  11.972   6.881 -0.3523  1.3958 -0.2741
  770MOL0     C 3867   1.027  10.782   6.787  0.4230  0.0677  0.1677
  770MOL0     C 3868   1.159  10.749   6.774  0.3024 -0.5882  0.7727
  770MOL0     C 3869   1.590  10.675   6.873 -0.3552 -0.8901  0.2800
  770MOL0     C 3870   1.651  10.694   6.745  0.1957  0.1795 -1.3653
  770MOL0     C 3871   1.770  10.632   6.704  0.0619  0.0735 -0.1435
  770MOL0     C 3872   1.831  10.543   6.790 -0.6242  0.4245 -0.1853
  770MOL0     O 3873   1.944  10.471   6.746  0.6719 -0.4275 -0.2023
  770MOL0     C 3874   2.039  10.425   6.837  0.1085  0.7803  0.4235
  770MOL0     C 3875   2.154  10.358   6.754 -0.8027  0.4674  0.6152
  770MOL0     C 3876   2.277  10.450   6.740 -0.7413 -0.1157  1.0711
  770MOL0     C 3877   2.251  10.574   6.648 -0.3878  0.0399  0.2757
  770MOL0     C 3878   2.370  10.638   6.590 -0.3267 -0.6412 -0.0716
  770MOL0     C 3879   2.469  10.700   6.547  0.4562  0.4878 -0.3606
  770MOL0     C 3880   1.777  10.528   6.919  0.6774  0.4618  0.0463
  770MOL0     C 3881   1.650  10.584   6.963  0.6851 -0.5381  0.8075
  770MOL0     C 3882   1.598  10.554   7.093  0.4148  0.2415 -0.0279
  770MOL0     H 3883   1.285  11.012   6.954  1.2824 -2.3583 -0.7886
  770MOL0     H 3884   1.062  11.053   6.988 -0.3200 -0.4156  2.4461
  770MOL0     H 3885   0.821  10.871   7.076  0.7085 -0.2199 -0.4690
  770MOL0     H 3886   0.876  11.026   7.047  1.6995 -1.6055 -1.0563
  770MOL0     H 3887   0.625  11.019   7.099  0.9780  0.8280 -1.1515
  770MOL0     H 3888   0.592  10.919   6.954  1.8097 -2.2075 -0.6992
  770MOL0     H 3889   0.540  11.158   6.898 -0.6281  1.0211  2.6256
  770MOL0     H 3890   0.682  11.120   6.818 -0.8745  0.2669 -0.3645
  770MOL0     H 3891   0.671  11.262   7.087  0.5189  1.5121 -0.0207
  770MOL0     H 3892   0.817  11.264   6.996  0.5062 -0.0683  2.5888
  770MOL0     H 3893   0.667  11.403   6.814  0.1304  3.9542 -0.0871
  770MOL0     H 3894   0.556  11.425   6.954 -1.4299 -0.9677 -2.8504
  770MOL0     H 3895   0.741  11.504   7.075 -0.8891  0.1634 -0.2713
  770MOL0     H 3896   0.856  11.490   6.955 -0.0747 -1.4202  0.9875
  770MOL0     H 3897   0.691  11.718   6.997 -0.2984 -1.4668  0.6782
  770MOL0     H 3898   0.630  11.660   6.851 -0.3257 -3.9895 -0.3010
  770MOL0     H 3899   0.914  11.691   6.891 -0.8508  0.6781  0.7440
  770MOL0     H 3900   0.841  11.654   6.743  0.5837 -0.3034  0.0130
  770MOL0     H 3901   0.629  11.837   6.664 -1.7465 -0.2177  0.1613
  770MOL0     H 3902   0.560  12.206   6.682  0.5853  0.2516 -1.5278
  770MOL0     H 3903   0.527  12.055   6.589  0.2038 -2.9358  1.7488
  770MOL0     H 3904   0.413  11.959   6.795  1.1925 -0.7002  0.0167
  770MOL0     H 3905   0.413  12.134   6.858 -0.2824  1.6946 -0.7688
  770MOL0     H 3906   0.288  12.069   6.607 -0.9624  4.9771 -2.1968
  770MOL0     H 3907   0.290  12.227   6.705 -0.0060  0.1833  0.7009
  770MOL0     H 3908   0.146  12.127   6.879  0.0618 -0.3343  0.2333
  770MOL0     H 3909   0.171  11.977   6.812 -0.1694  1.5694  0.7673
  770MOL0     H 3910   0.095  12.343   6.757 -1.5348 -0.4385  2.3237
  770MOL0     H 3911  -0.023  12.538   6.642  1.0173 -0.4137 -3.4319
  770MOL0     H 3912  -0.152  12.869   6.364 -0.0259 -1.3863 -1.1317
  770MOL0     H 3913  -0.309  13.008   6.222 -1.5872 -0.5200 -1.6572
  770MOL0     H 3914  -0.571  12.800   6.071  0.5862 -0.3563 -1.1756
  770MOL0     H 3915  -0.717  12.869   6.141  1.0926 -3.4203  0.2946
  770MOL0     H 3916  -0.753  12.963   5.921 -0.8573  2.2991  1.2775
  770MOL0     H 3917  -0.666  13.087   5.995  0.7893  1.4070 -4.2086
  770MOL0     H 3918  -0.467  13.000   5.889  1.8023 -1.3940 -2.3456
  770MOL0     H 3919  -0.558  12.857   5.826 -0.9159  0.8944 -4.2357
  770MOL0     H 3920  -0.659  13.136   5.768 -0.3784 -0.3730  0.2278
  770MOL0     H 3921  -0.711  12.996   5.690  2.1046 -3.3046 -2.8612
  770MOL0     H 3922  -0.588  13.083   5.536 -1.7999  1.3875  1.3270
  770MOL0     H 3923  -0.471  12.959   5.607  2.1642  1.7328  0.3107
  770MOL0     H 3924  -0.463  13.257   5.661 -2.3320 -0.6832 -1.7323
  770MOL0     H 3925  -0.369  13.130   5.741  1.1140  1.5643 -0.2502
  770MOL0     H 3926  -0.365  13.140   5.444 -2.3315 -1.9317  1.6913
  770MOL0     H 3927  -0.235  13.083   5.556  3.5098  1.7564  1.6812
  770MOL0     H 3928  -0.322  13.384   5.556  0.6817  1.1879  0.4246
  770MOL0     H 3929  -0.178  13.298   5.622  1.7668  2.0344 -1.2627
  770MOL0     H 3930  -0.642  12.774   6.340 -0.7646  0.4036 -0.1480
  770MOL0     H 3931  -0.500  12.620   6.470  0.3788  0.6449  1.7013
  770MOL0     H 3932  -0.273  12.254   6.438  0.8632  2.6957 -1.0769
  770MOL0     H 3933  -0.150  12.070   6.528  3.3829 -1.5693 -0.2075
  770MOL0     H 3934   0.953  10.729   6.728  0.2474  0.0673  0.3865
  770MOL0     H 3935   1.178  10.665   6.707 -3.6551 -0.4538 -0.7795
  770MOL0     H 3936   1.600  10.761   6.677 -2.5979  0.3682  0.7244
  770MOL0     H 3937   1.809  10.649   6.604  0.3258  0.7909  0.0813
  770MOL0     H 3938   1.993  10.353   6.905  1.2321 -1.0561 -0.6682
  770MOL0     H 3939   2.087  10.504   6.896  1.1318 -0.3272  1.1396
  770MOL0     H 3940   2.112  10.328   6.657  0.3262 -0.9721  0.5439
  770MOL0     H 3941   2.183  10.265   6.802 -0.4263 -0.3027 -1.0402
  770MOL0     H 3942   2.358  10.396   6.689 -2.0881 -0.2374 -1.0731
  770MOL0     H 3943   2.305  10.497   6.835  0.2204 -1.9848  1.7524
  770MOL0     H 3944   2.176  10.554   6.570  1.1692 -0.9978 -1.0390
  770MOL0     H 3945   2.193  10.645   6.707 -0.2709  0.4168 -0.0582
  770MOL0     H 3946   2.554  10.736   6.492 -0.5502  0.3051 -2.0863
  770MOL0     H 3947   1.827  10.450   6.975  1.0547 -1.5271 -2.8235
  770MOL0     H 3948   1.665  10.477   7.132  2.4320  0.2131 -3.2056
  770MOL0     H 3949   1.617  10.643   7.154  0.2393 -1.0344  1.9931
  770MOL0     H 3950   1.495  10.518   7.092 -0.0362  1.3659 -3.1419
  771MOL0     O 3951  11.451   4.967   1.398 -0.1378 -0.0100 -0.2691
  771MOL0     C 3952  11.423   4.851   1.378  0.4057  0.5822  0.0750
  771MOL0     O 3953  11.374   4.802   1.259 -0.2762 -0.7508 -0.0253
  771MOL0     C 3954  11.331   4.900   1.162  0.0879 -0.4399 -0.6858
  771MOL0     C 3955  11.426   4.960   1.083 -0.0042  0.0376 -0.0650
  771MOL0     C 3956  11.390   5.075   1.009 -0.6929  0.2890 -0.0641
  771MOL0     C 3957  11.255   5.114   0.988 -0.6785 -0.1261 -0.6821
  771MOL0     O 3958  11.211   5.211   0.916  0.3526 -0.2597 -0.8010
  771MOL0     C 3959  11.274   5.254   0.792  0.3886 -0.1120 -0.4164
  771MOL0     C 3960  11.223   5.175   0.662 -1.0301  0.6801  0.9673
  771MOL0     C 3961  11.311   5.221   0.547  0.1626  0.2064  0.1205
  771MOL0     C 3962  11.253   5.156   0.413  0.0577  0.5679 -0.0003
  771MOL0     C 3963  11.363   5.159   0.303  0.2529  0.8961  0.0224
  771MOL0     C 3964  11.401   5.303   0.252  0.0093  0.0026  0.2382
  771MOL0     C 3965  11.521   5.301   0.157 -0.1675 -0.3803  0.2812
  771MOL0     C 3966  11.495   5.239   0.011 -0.2227  1.4300 -0.7597
  771MOL0     N 3967  11.382   5.280  -0.070  0.4316 -0.8721 -0.0574
  771MOL0     C 3968  11.296   5.199  -0.130  0.0889  0.8486 -0.7120
  771MOL0     C 3969  11.200   5.274  -0.187  0.7849  0.1751  0.3180
  771MOL0     C 3970  11.082   5.213  -0.258  0.1017 -0.0572 -0.6161
  771MOL0     C 3971  10.954   5.206  -0.169 -0.9005 -0.1738  0.1861
  771MOL0     C 3972  10.976   5.144  -0.034  0.6258 -0.4086 -0.3943
  771MOL0     C 3973  10.848   5.174   0.046  0.3914  0.4113  0.1051
  771MOL0     O 3974  10.738   5.109  -0.014 -0.2049 -0.2052 -0.3280
  771MOL0     C 3975  10.734   4.973  -0.004  0.3812  1.2421  0.9339
  771MOL0     C 3976  10.780   4.903   0.112 -1.1902  0.6218  1.0263
  771MOL0     C 3977  10.821   4.770   0.094 -0.6612  0.1005  0.2257
  771MOL0     C 3978  10.797   4.700  -0.025  0.8578 -1.1244 -0.3551
  771MOL0     C 3979  10.835   4.559  -0.042 -0.3881  0.6795  0.3148
  771MOL0     O 3980  10.927   4.515   0.053  0.4474 -0.1473  0.3297
  771MOL0     C 3981  10.967   4.386   0.047  0.2590  1.0517 -0.4688
  771MOL0     C 3982  10.868   4.289   0.063 -0.2778 -0.4073 -0.1299
  771MOL0     C 3983  10.905   4.154   0.067  0.3924 -0.2071 -0.9441
  771MOL0     C 3984  11.044   4.114   0.054  0.1554 -0.1997 -0.4087
  771MOL0     O 3985  11.071   3.980   0.052 -0.4132 -0.5558  0.8401
  771MOL0     C 3986  11.190   3.929   0.116  0.2911  0.5856 -0.0891
  771MOL0     C 3987  11.182   3.780   0.120 -0.1367  0.8745 -0.0628
  771MOL0     C 3988  11.303   3.724   0.196 -0.0487  0.8635 -1.3323
  771MOL0     C 3989  11.265   3.576   0.226  0.1192 -0.6978  0.5113
  771MOL0     C 3990  11.388   3.512   0.290 -0.8772 -0.4633 -0.4488
  771MOL0     C 3991  11.351   3.378   0.347  0.3356  0.1411 -0.4485
  771MOL0     C 3992  11.459   3.325   0.441  0.2768 -0.7932  0.2635
  771MOL0     C 3993  11.582   3.266   0.368 -0.1754  1.0525  0.3106
  771MOL0    Cl 3994  11.664   3.180   0.495  0.4230  0.1307 -0.6731
  771MOL0     C 3995  11.140   4.215   0.052  0.6372 -0.3526 -0.6301
  771MOL0     C 3996  11.101   4.357   0.055  0.2638  0.6352 -0.4773
  771MOL0     O 3997  10.804   4.495  -0.145 -0.6132 -0.3492 -0.5165
  771MOL0     C 3998  10.723   4.769  -0.127 -0.3923 -0.3761 -1.2837
  771MOL0     C 3999  10.695   4.911  -0.127 -0.0296  0.4168  0.1782
  771MOL0     N 4000  11.234   5.406  -0.174 -0.8427  0.5197 -0.1939
  771MOL0     N 4001  11.340   5.416  -0.102 -0.2518 -0.0313 -0.0416
  771MOL0     C 4002  11.164   5.052   1.076 -0.4027  0.2306  0.0789
  771MOL0     C 4003  11.196   4.940   1.149  0.1063  0.4667  0.1926
  771MOL0     C 4004  11.454   4.760   1.493 -0.1340  0.7301 -0.0603
  771MOL0     C 4005  11.487   4.809   1.622  0.1361  0.4605 -0.1179
  771MOL0     C 4006  11.511   4.732   1.727  0.3317  0.2949 -0.2897
  771MOL0     C 4007  11.507   4.591   1.712 -0.0573 -0.7305  0.1503
  771MOL0     O 4008  11.529   4.514   1.826 -0.1637 -0.6855  0.7632
  771MOL0     C 4009  11.423   4.516   1.917 -0.2584 -0.4350  0.6056
  771MOL0     C 4010  11.386   4.378   1.979 -1.3196 -1.0400 -0.7753
  771MOL0     C 4011  11.493   4.344   2.072  0.0613 -0.1317  0.7700
  771MOL0     C 4012  11.452   4.219   2.158  0.3073  0.0037  0.3658
  771MOL0     C 4013  11.447   4.096   2.073  0.1328 -0.2178  0.2177
  771MOL0     C 4014  11.426   4.005   1.987  1.0259  0.8820 -0.6272
  771MOL0     C 4015  11.488   4.540   1.587  0.1597  0.6940 -0.1604
  771MOL0     C 4016  11.460   4.624   1.473  0.4869 -0.1589 -0.9846
  771MOL0     C 4017  11.449   4.559   1.339  0.4921  0.3135 -0.4259
  771MOL0     H 4018  11.529   4.929   1.079 -0.8381 -2.8691 -1.6567
  771MOL0     H 4019  11.459   5.131   0.947  1.0562  0.9737  2.3324
  771MOL0     H 4020  11.252   5.358   0.770  2.3028 -0.3641 -4.5331
  771MOL0     H 4021  11.382   5.238   0.786  0.4901  1.0181 -2.0183
  771MOL0     H 4022  11.118   5.191   0.638 -0.7867 -0.1686 -0.8319
  771MOL0     H 4023  11.247   5.069   0.675  3.2393  1.5389  1.5900
  771MOL0     H 4024  11.416   5.202   0.571  0.3773 -2.2039 -2.2478
  771MOL0     H 4025  11.304   5.330   0.542  0.4404  0.1879 -0.8349
  771MOL0     H 4026  11.222   5.055   0.443 -1.8192  1.1414  0.1331
  771MOL0     H 4027  11.162   5.199   0.370 -0.1752  0.6848  0.5959
  771MOL0     H 4028  11.447   5.104   0.347 -1.0365 -0.6291  0.7090
  771MOL0     H 4029  11.338   5.090   0.222 -0.3770 -1.0102  1.7620
  771MOL0     H 4030  11.327   5.364   0.199  0.4385  0.9232  0.6781
  771MOL0     H 4031  11.440   5.362   0.335  2.8766 -1.9118  0.3843
  771MOL0     H 4032  11.596   5.242   0.211 -1.9327 -1.9011  1.1975
  771MOL0     H 4033  11.571   5.398   0.149  0.7453 -0.7768  0.9942
  771MOL0     H 4034  11.582   5.247  -0.055 -0.1103  0.6357 -0.7231
  771MOL0     H 4035  11.476   5.131   0.013  0.8971  1.2190 -0.8023
  771MOL0     H 4036  11.288   5.092  -0.115 -0.4077  0.7212 -1.7863
  771MOL0     H 4037  11.060   5.277  -0.343  1.0460  2.1459  0.7027
  771MOL0     H 4038  11.115   5.117  -0.299  0.9776 -1.6914  3.4197
  771MOL0     H 4039  10.920   5.310  -0.161 -2.9055 -0.9258  2.8314
  771MOL0     H 4040  10.888   5.139  -0.225 -2.2405  1.4969 -0.3349
  771MOL0     H 4041  11.070   5.175   0.013  1.3591 -0.4133 -1.8136
  771MOL0     H 4042  10.987   5.036  -0.047  0.3544 -0.6545  1.1545
  771MOL0     H 4043  10.828   5.281   0.051 -3.5041 -0.1486  0.0216
  771MOL0     H 4044  10.855   5.133   0.147  1.4836 -1.2616 -0.5874
  771MOL0     H 4045  10.783   4.954   0.207 -2.3970  1.0841  0.8436
  771MOL0     H 4046  10.867   4.719   0.177  0.5085  1.1897  0.2752
  771MOL0     H 4047  10.764   4.317   0.057 -0.4809 -0.0900  3.1180
  771MOL0     H 4048  10.828   4.077   0.067 -0.0446  0.1937  1.0381
  771MOL0     H 4049  11.273   3.945   0.047  1.1629 -0.0476  0.7844
  771MOL0     H 4050  11.221   3.971   0.212 -0.6010  1.3823 -0.1337
  771MOL0     H 4051  11.087   3.757   0.169  1.7116 -1.6679  2.6227
  771MOL0     H 4052  11.168   3.750   0.016 -0.2138  1.0503 -0.1043
  771MOL0     H 4053  11.395   3.743   0.140  0.4667  2.0325 -0.1359
  771MOL0     H 4054  11.313   3.778   0.290  1.0237 -0.6858 -0.5175
  771MOL0     H 4055  11.229   3.513   0.144 -3.7049 -0.2367  1.6594
  771MOL0     H 4056  11.181   3.562   0.294 -1.9630 -1.5138 -2.0421
  771MOL0     H 4057  11.439   3.572   0.366 -0.8155 -1.1844  0.0909
  771MOL0     H 4058  11.467   3.501   0.214  2.8282  0.9810  2.8559
  771MOL0     H 4059  11.257   3.385   0.402 -0.2038  1.4104 -1.4674
  771MOL0     H 4060  11.331   3.309   0.264 -1.8975  0.9831 -0.6686
  771MOL0     H 4061  11.411   3.248   0.502 -1.9958  1.2132  1.1491
  771MOL0     H 4062  11.491   3.409   0.504  1.1632  0.1328 -1.3577
  771MOL0     H 4063  11.550   3.201   0.286  1.0872 -0.8537  1.2616
  771MOL0     H 4064  11.650   3.339   0.323  3.0551 -1.8833  0.0371
  771MOL0     H 4065  11.243   4.191   0.029  0.1055  0.4030 -4.5684
  771MOL0     H 4066  11.171   4.440   0.055 -0.2966  1.1163 -0.4750
  771MOL0     H 4067  10.696   4.715  -0.217  2.3017  0.6762 -2.8246
  771MOL0     H 4068  10.638   4.962  -0.204  1.3157  1.7043 -0.0274
  771MOL0     H 4069  11.061   5.087   1.073  0.2588  2.3034 -1.7962
  771MOL0     H 4070  11.107   4.896   1.192  0.2243  0.6385  0.6159
  771MOL0     H 4071  11.485   4.917   1.634 -2.6386  0.3197  1.4663
  771MOL0     H 4072  11.524   4.784   1.821  0.1297 -0.3023  0.0784
  771MOL0     H 4073  11.336   4.552   1.861  1.4449  2.9881 -0.1604
  771MOL0     H 4074  11.448   4.586   1.997  0.1841 -0.6975  0.7001
  771MOL0     H 4075  11.363   4.311   1.896  2.2483 -1.9399 -1.1958
  771MOL0     H 4076  11.290   4.385   2.030 -1.2980 -0.5367 -0.7973
  771MOL0     H 4077  11.522   4.429   2.135  2.6900  0.1533 -0.6884
  771MOL0     H 4078  11.583   4.325   2.013 -1.6110 -3.3573 -1.0310
  771MOL0     H 4079  11.524   4.208   2.239  0.5352  2.4606  0.5811
  771MOL0     H 4080  11.361   4.234   2.216 -0.4632 -0.5468 -0.6472
  771MOL0     H 4081  11.396   3.928   1.918  3.2953 -0.4281 -0.2690
  771MOL0     H 4082  11.475   4.433   1.577  1.1424  0.3785  1.5018
  771MOL0     H 4083  11.522   4.612   1.278  0.1178  0.6463 -0.5854
  771MOL0     H 4084  11.479   4.455   1.357 -1.7439 -0.2632  0.2402
  771MOL0     H 4085  11.349   4.565   1.297 -0.0039  2.1104  0.8954
  772MOL0     O 4086  11.336   2.028   0.896  0.8486 -0.1770  0.7896
  772MOL0     C 4087  11.417   2.008   0.803  0.8036 -0.4152 -0.9565
  772MOL0     O 4088  11.472   2.101   0.732  0.4664 -0.5814  0.0188
  772MOL0     C 4089  11.425   2.231   0.762 -0.0893  0.1452 -0.4445
  772MOL0     C 4090  11.312   2.282   0.689  0.4836  0.2419  0.3785
  772MOL0     C 4091  11.273   2.417   0.705 -0.7565  0.2432 -0.2664
  772MOL0     C 4092  11.366   2.506   0.759 -0.4533  0.3623  0.3322
  772MOL0     O 4093  11.323   2.640   0.753 -0.3056  0.7295 -0.4161
  772MOL0     C 4094  11.403   2.734   0.823  0.9769 -0.6573  0.9969
  772MOL0     C 4095  11.473   2.830   0.730 -1.2909 -0.4677 -0.2059
  772MOL0     C 4096  11.588   2.764   0.669 -0.0650  0.8944  0.3741
  772MOL0     C 4097  11.692   2.857   0.613 -0.6948  0.7203  0.8205
  772MOL0     C 4098  11.811   2.794   0.543 -0.1772  0.3971  0.4438
  772MOL0     C 4099  11.776   2.695   0.420 -1.1568  0.0714  0.0076
  772MOL0     C 4100  11.677   2.751   0.312 -0.5059 -0.3341 -0.1081
  772MOL0     C 4101  11.675   2.642   0.207 -1.5471  0.3626  0.0598
  772MOL0     N 4102  11.561   2.651   0.116 -0.9822  0.8369  0.7181
  772MOL0     C 4103  11.439   2.699   0.143  0.0934  0.0389 -0.3787
  772MOL0     C 4104  11.375   2.726   0.026  0.0022 -0.6160 -0.2207
  772MOL0     C 4105  11.239   2.798   0.014 -0.4553  0.3174  0.0890
  772MOL0     C 4106  11.249   2.952   0.026 -0.2559 -0.0498 -0.2158
  772MOL0     C 4107  11.297   3.018  -0.108  0.4957 -0.0632  0.6796
  772MOL0     C 4108  11.303   3.172  -0.101 -0.2388  0.8675 -0.1249
  772MOL0     O 4109  11.418   3.208  -0.025  1.0529  0.2594 -1.1368
  772MOL0     C 4110  11.476   3.335  -0.035 -0.5675  0.0496  0.1279
  772MOL0     C 4111  11.412   3.455  -0.078 -0.0469 -0.7356 -0.4495
  772MOL0     C 4112  11.485   3.572  -0.097  0.1827 -0.2466  0.8036
  772MOL0     C 4113  11.617   3.588  -0.046  0.0944  0.1751  0.6833
  772MOL0     C 4114  11.677   3.724  -0.079 -0.0793  0.2845 -0.0422
  772MOL0     O 4115  11.811   3.722  -0.079 -0.1057  0.3678 -0.8449
  772MOL0     C 4116  11.875   3.840  -0.114 -0.1014 -0.2468  0.5051
  772MOL0     C 4117  11.876   3.948  -0.031 -1.1569  0.9325  0.2451
  772MOL0     C 4118  11.943   4.063  -0.062  0.3262 -0.6626  0.7872
  772MOL0     C 4119  11.999   4.081  -0.197  0.2855 -0.4643 -1.2379
  772MOL0     O 4120  12.091   4.175  -0.217  0.3399 -0.1946 -0.5350
  772MOL0     C 4121  12.042   4.304  -0.244 -0.5383  0.0981  0.5979
  772MOL0     C 4122  11.995   4.294  -0.396  0.1580  0.2263 -0.1387
  772MOL0     C 4123  11.936   4.432  -0.437 -0.3944 -0.0275  0.0914
  772MOL0     C 4124  11.789   4.443  -0.414  0.2715 -0.2169 -1.3381
  772MOL0     C 4125  11.736   4.582  -0.449  0.3844 -0.1933 -0.2454
  772MOL0     C 4126  11.776   4.699  -0.353 -0.1924  0.0908  0.1923
  772MOL0     C 4127  11.696   4.823  -0.373  0.5032 -0.8115  0.0611
  772MOL0     C 4128  11.758   4.939  -0.297 -0.0464 -0.2684 -0.6378
  772MOL0    Cl 4129  11.726   4.917  -0.117  0.0692 -0.7007  0.2063
  772MOL0     C 4130  11.994   3.978  -0.287  0.4810 -0.0061  0.6783
  772MOL0     C 4131  11.927   3.858  -0.246 -0.2168 -0.0681  0.9487
  772MOL0     O 4132  11.607   3.819  -0.105  0.6361 -0.0526  0.6542
  772MOL0     C 4133  11.679   3.475   0.009 -0.4958 -0.2979 -0.1232
  772MOL0     C 4134  11.604   3.355   0.011  0.8851  0.8739 -0.3770
  772MOL0     N 4135  11.457   2.690  -0.075 -0.3615 -0.6466 -0.0794
  772MOL0     N 4136  11.559   2.635  -0.030 -0.5661  0.3332 -0.6387
  772MOL0     C 4137  11.486   2.460   0.805 -0.4878  0.3449 -0.3914
  772MOL0     C 4138  11.511   2.327   0.817  0.2527  0.6575 -0.2846
  772MOL0     C 4139  11.455   1.870   0.763 -0.4991 -0.3688 -0.4851
  772MOL0     C 4140  11.578   1.853   0.690 -0.5111 -0.0341 -0.1023
  772MOL0     C 4141  11.615   1.726   0.645  0.5018 -0.1620  0.9085
  772MOL0     C 4142  11.530   1.613   0.659 -0.1702 -0.5685 -0.3282
  772MOL0     O 4143  11.558   1.482   0.618  0.4966  0.2362  0.0410
  772MOL0     C 4144  11.674   1.452   0.535  1.0701 -0.0646 -0.1466
  772MOL0     C 4145  11.789   1.383   0.603 -0.1965 -0.4884 -0.5453
  772MOL0     C 4146  11.898   1.348   0.498  0.5224  0.0598  1.4688
  772MOL0     C 4147  11.992   1.458   0.448 -0.1172  0.7004  0.1269
  772MOL0     C 4148  11.951   1.527   0.327 -0.7747 -0.0185  0.2982
  772MOL0     C 4149  11.916   1.591   0.232  0.8867 -0.8251 -0.7922
  772MOL0     C 4150  11.407   1.632   0.725 -0.1360  0.5520  0.6349
  772MOL0     C 4151  11.371   1.752   0.780  0.4265  1.0806  0.7735
  772MOL0     C 4152  11.236   1.761   0.856 -0.5119  0.4034 -0.9146
  772MOL0     H 4153  11.245   2.219   0.632  0.3316  2.2769 -1.8422
  772MOL0     H 4154  11.176   2.450   0.667 -0.4380 -1.9649 -3.3648
  772MOL0     H 4155  11.327   2.786   0.882  1.8414  5.3782 -2.3503
  772MOL0     H 4156  11.465   2.688   0.900  0.8724 -2.0115  0.2992
  772MOL0     H 4157  11.499   2.919   0.788 -3.4945 -0.1327  0.3789
  772MOL0     H 4158  11.406   2.865   0.651  1.6013 -0.8121 -2.9842
  772MOL0     H 4159  11.540   2.699   0.595 -4.0297  0.0303  3.3833
  772MOL0     H 4160  11.637   2.698   0.741 -3.1384 -1.6159  0.3495
  772MOL0     H 4161  11.638   2.909   0.534  3.2518 -1.1088 -3.5017
  772MOL0     H 4162  11.736   2.933   0.678  1.9935  2.8478 -3.1024
  772MOL0     H 4163  11.869   2.874   0.497  0.4608 -0.2224  0.1455
  772MOL0     H 4164  11.877   2.751   0.620 -0.3592  0.0399  0.4042
  772MOL0     H 4165  11.871   2.670   0.371 -0.0666 -2.2234  2.9608
  772MOL0     H 4166  11.727   2.604   0.455 -2.2921  0.6665  0.0021
  772MOL0     H 4167  11.698   2.851   0.273 -1.5635  0.3670  1.0309
  772MOL0     H 4168  11.576   2.757   0.354 -0.5577  3.1010 -0.4506
  772MOL0     H 4169  11.773   2.641   0.159 -1.2494 -0.6981  0.6636
  772MOL0     H 4170  11.654   2.546   0.254 -5.0134  0.9901  0.0827
  772MOL0     H 4171  11.396   2.723   0.240 -3.6993 -1.8786 -1.3963
  772MOL0     H 4172  11.179   2.762  -0.070  0.0591  0.2167 -0.2363
  772MOL0     H 4173  11.180   2.765   0.100 -1.5920 -1.1375 -1.1934
  772MOL0     H 4174  11.155   2.995   0.061  0.3706  1.1853  0.0034
  772MOL0     H 4175  11.326   2.978   0.100 -0.8310 -0.4267  0.5343
  772MOL0     H 4176  11.236   2.985  -0.192  0.6883  0.2155  0.4308
  772MOL0     H 4177  11.394   2.970  -0.122 -0.6806 -1.8100 -2.8416
  772MOL0     H 4178  11.213   3.208  -0.050  0.3610 -1.7796  3.1111
  772MOL0     H 4179  11.313   3.212  -0.202  3.6931  3.2910  0.9763
  772MOL0     H 4180  11.304   3.458  -0.092 -0.0781 -2.8647 -0.9384
  772MOL0     H 4181  11.432   3.654  -0.145  1.0089  0.5313  1.1781
  772MOL0     H 4182  11.843   3.922   0.069 -1.0377 -4.1386 -0.8023
  772MOL0     H 4183  11.966   4.145   0.005  0.3958 -1.6661  2.0074
  772MOL0     H 4184  11.970   4.341  -0.170 -1.2460  2.1386 -1.0275
  772MOL0     H 4185  12.117   4.381  -0.226 -1.0398  0.3251  1.8482
  772MOL0     H 4186  12.085   4.260  -0.448  0.1760  0.7438 -0.4432
  772MOL0     H 4187  11.917   4.219  -0.414 -1.0822  1.0809  1.4150
  772MOL0     H 4188  11.992   4.507  -0.381 -0.0112  0.1668 -0.5502
  772MOL0     H 4189  11.965   4.452  -0.540  2.6221 -0.7718  0.6926
  772MOL0     H 4190  11.768   4.424  -0.308  0.0051 -4.4652 -1.9578
  772MOL0     H 4191  11.730   4.366  -0.466  2.4824 -4.0189  1.2247
  772MOL0     H 4192  11.627   4.587  -0.442  0.4192 -1.1126  1.4370
  772MOL0     H 4193  11.762   4.616  -0.550 -0.5424  3.0332  0.4911
  772MOL0     H 4194  11.756   4.660  -0.252  0.9311  1.5652  1.0159
  772MOL0     H 4195  11.880   4.731  -0.362 -0.7401  1.8104 -0.5044
  772MOL0     H 4196  11.593   4.823  -0.337  0.7243  4.8950  1.5911
  772MOL0     H 4197  11.693   4.858  -0.476  1.3933 -3.3524 -0.9254
  772MOL0     H 4198  11.866   4.948  -0.312  1.1288 -4.4632  2.9758
  772MOL0     H 4199  11.704   5.026  -0.336  0.5002 -0.0632 -0.9482
  772MOL0     H 4200  12.037   3.995  -0.385 -2.2578  3.1208 -0.1842
  772MOL0     H 4201  11.915   3.777  -0.318  0.3083 -0.0744  0.8605
  772MOL0     H 4202  11.772   3.490   0.062 -1.1479 -4.6556  2.7282
  772MOL0     H 4203  11.659   3.271   0.052  1.6275  2.7696  2.9156
  772MOL0     H 4204  11.566   2.531   0.823  0.7340 -0.7677 -1.2892
  772MOL0     H 4205  11.608   2.286   0.843 -0.6161 -0.9055  0.6515
  772MOL0     H 4206  11.642   1.939   0.674 -2.7538  1.7016 -0.2693
  772MOL0     H 4207  11.705   1.710   0.585  1.2122 -1.6157  2.2774
  772MOL0     H 4208  11.707   1.544   0.485 -1.2713  0.5807 -0.6367
  772MOL0     H 4209  11.625   1.399   0.452 -0.0705 -1.6299  1.4525
  772MOL0     H 4210  11.764   1.289   0.654  2.6881  0.0281  2.0800
  772MOL0     H 4211  11.828   1.442   0.686  3.5655 -2.0121 -1.0584
  772MOL0     H 4212  11.851   1.302   0.411 -0.9984  1.7323  1.3501
  772MOL0     H 4213  11.959   1.267   0.539  3.4870 -0.6629 -3.4907
  772MOL0     H 4214  12.005   1.520   0.537  0.7922 -0.0579  0.5417
  772MOL0     H 4215  12.085   1.402   0.436 -1.7031 -2.2555  0.5445
  772MOL0     H 4216  11.903   1.646   0.141 -2.0814  0.5187  0.3047
  772MOL0     H 4217  11.337   1.550   0.720 -2.8833  2.1913  5.5756
  772MOL0     H 4218  11.262   1.798   0.956 -1.3602  2.2655 -1.3443
  772MOL0     H 4219  11.173   1.838   0.812 -1.1286  1.2321  1.3139
  772MOL0     H 4220  11.183   1.665   0.854 -0.5472  0.4369 -1.6665
  773MOL0     O 4221   8.075   9.220   8.697  0.0088 -0.0528  0.1410
  773MOL0     C 4222   8.100   9.293   8.789 -0.8179  0.1897 -0.4337
  773MOL0     O 4223   8.092   9.433   8.783  0.3481 -0.4796 -0.0233
  773MOL0     C 4224   8.064   9.479   8.656 -0.0355  0.6047 -0.4005
  773MOL0     C 4225   7.932   9.516   8.626 -0.8977  0.5830  0.5223
  773MOL0     C 4226   7.914   9.586   8.508  0.4222 -0.3336 -2.0370
  773MOL0     C 4227   8.014   9.618   8.420 -1.0651  0.3777 -0.7369
  773MOL0     O 4228   7.998   9.686   8.305 -0.3070  0.5626  0.3947
  773MOL0     C 4229   7.872   9.673   8.232  0.1726 -1.9036  0.5547
  773MOL0     C 4230   7.879   9.753   8.097 -0.1354  0.9622 -0.9573
  773MOL0     C 4231   7.767   9.722   8.008  0.7076 -0.6001 -0.5943
  773MOL0     C 4232   7.774   9.577   7.959 -0.4635  0.3644  0.3069
  773MOL0     C 4233   7.749   9.568   7.801  0.0058  0.3291 -0.1666
  773MOL0     C 4234   7.718   9.425   7.762  0.5058  0.1475 -0.0133
  773MOL0     C 4235   7.704   9.397   7.612  0.3088  0.0396 -0.6345
  773MOL0     C 4236   7.829   9.414   7.519  0.0361 -0.3998 -0.6398
  773MOL0     N 4237   7.946   9.338   7.574 -0.2586  0.0524 -0.3296
  773MOL0     C 4238   7.972   9.197   7.565 -0.7745 -0.3250  0.1617
  773MOL0     C 4239   8.059   9.168   7.671 -0.8110 -0.8374  0.6612
  773MOL0     C 4240   8.113   9.038   7.712  0.0250 -0.3192  0.5796
  773MOL0     C 4241   8.246   9.015   7.635 -0.3363 -0.3754 -0.3510
  773MOL0     C 4242   8.356   9.065   7.730  0.2263  0.4678  0.4725
  773MOL0     C 4243   8.484   9.101   7.652  0.4637 -0.4479 -0.5873
  773MOL0     O 4244   8.520   9.013   7.547  0.1479 -0.4698  0.0454
  773MOL0     C 4245   8.645   9.037   7.491  0.9989  1.1039  0.2684
  773MOL0     C 4246   8.688   8.945   7.388 -0.1824 -0.7005  0.5058
  773MOL0     C 4247   8.820   8.945   7.340  0.7503 -0.0002  0.5218
  773MOL0     C 4248   8.909   9.042   7.385 -1.0291 -0.2949 -0.3560
  773MOL0     C 4249   9.051   9.044   7.339  0.1507  0.0222  0.1147
  773MOL0     O 4250   9.137   9.140   7.380  0.1024 -0.4767  0.0389
  773MOL0     C 4251   9.265   9.137   7.322  1.3394  0.0061 -1.2547
  773MOL0     C 4252   9.317   9.266   7.307  0.1521  0.3618  0.2047
  773MOL0     C 4253   9.447   9.274   7.262 -0.2824  0.8113 -0.8966
  773MOL0     C 4254   9.525   9.159   7.228 -0.5575 -0.4788  0.6159
  773MOL0     O 4255   9.652   9.187   7.200 -0.2228  0.2364 -0.5907
  773MOL0     C 4256   9.733   9.229   7.314 -0.0700  0.2960  0.0917
  773MOL0     C 4257   9.787   9.096   7.385  0.1134 -0.1184  0.4729
  773MOL0     C 4258   9.895   9.116   7.493  0.9406  0.9264 -0.0144
  773MOL0     C 4259  10.015   9.024   7.486 -0.0138  0.2105  0.5812
  773MOL0     C 4260  10.002   8.880   7.525 -0.5671  0.6763  0.8776
  773MOL0     C 4261   9.982   8.867   7.672  0.6885  0.3548  0.7273
  773MOL0     C 4262   9.983   8.715   7.697  0.2471 -0.1736  0.2855
  773MOL0     C 4263   9.902   8.670   7.814 -0.1473  0.0844  0.3928
  773MOL0    Cl 4264   9.927   8.484   7.817  0.4007 -0.6306  0.2542
  773MOL0     C 4265   9.464   9.033   7.241 -0.0882 -0.2511  0.6180
  773MOL0     C 4266   9.336   9.019   7.294 -0.1368  0.2489  0.8598
  773MOL0     O 4267   9.076   8.965   7.248  0.8850 -0.5810 -1.2997
  773MOL0     C 4268   8.868   9.139   7.471 -0.9525 -0.8580  0.6016
  773MOL0     C 4269   8.738   9.140   7.521 -0.8237  0.0614 -0.6374
  773MOL0     N 4270   8.094   9.288   7.730 -0.3065  0.7853  0.7289
  773MOL0     N 4271   8.031   9.389   7.668  0.2820  0.7822 -0.3918
  773MOL0     C 4272   8.143   9.580   8.447 -0.4918  1.2615 -0.1313
  773MOL0     C 4273   8.176   9.510   8.570 -0.2171 -0.4157  0.2041
  773MOL0     C 4274   8.143   9.227   8.912 -0.2029 -0.0426 -0.7624
  773MOL0     C 4275   8.140   9.091   8.922  0.9834 -0.7758 -0.3443
  773MOL0     C 4276   8.183   9.019   9.034 -0.5960  0.2945  0.4142
  773MOL0     C 4277   8.227   9.090   9.150  0.2007 -1.1183  0.0199
  773MOL0     O 4278   8.254   9.039   9.278 -0.5603  0.1011  0.2738
  773MOL0     C 4279   8.309   8.911   9.305  0.3553 -0.8884 -0.6429
  773MOL0     C 4280   8.318   8.888   9.462  0.0727  0.7641  0.2233
  773MOL0     C 4281   8.182   8.889   9.533  0.6093  0.1730  0.3214
  773MOL0     C 4282   8.187   8.814   9.674 -0.2256 -0.3905  0.1830
  773MOL0     C 4283   8.211   8.673   9.652 -0.2635  0.0966 -0.6876
  773MOL0     C 4284   8.223   8.554   9.644  0.0708  1.3381 -0.2284
  773MOL0     C 4285   8.217   9.229   9.146  0.2216 -0.1448 -0.8664
  773MOL0     C 4286   8.183   9.295   9.032  0.4691 -0.8505  0.8850
  773MOL0     C 4287   8.213   9.443   9.036  0.0700 -0.0172  0.7645
  773MOL0     H 4288   7.837   9.515   8.678 -1.7414  1.5571 -0.9659
  773MOL0     H 4289   7.812   9.618   8.490  0.0194 -1.0755 -1.1743
  773MOL0     H 4290   7.851   9.569   8.204 -5.4907 -0.6036 -1.4399
  773MOL0     H 4291   7.787   9.720   8.282  0.6607  1.5766 -1.5813
  773MOL0     H 4292   7.973   9.733   8.045 -0.0984 -0.0509 -0.5201
  773MOL0     H 4293   7.874   9.860   8.120 -0.9539  1.0182 -1.3680
  773MOL0     H 4294   7.786   9.776   7.915  3.0492 -1.5959 -0.7772
  773MOL0     H 4295   7.669   9.751   8.047  0.4719 -3.6788  1.4749
  773MOL0     H 4296   7.869   9.522   7.966 -0.0664  1.1991  1.8690
  773MOL0     H 4297   7.701   9.515   8.012  1.1941 -0.3061  1.9392
  773MOL0     H 4298   7.669   9.632   7.760 -1.3666 -2.0178 -1.3528
  773MOL0     H 4299   7.846   9.590   7.756 -0.3805  1.1573 -0.6397
  773MOL0     H 4300   7.781   9.346   7.803 -1.1659 -0.7546  0.9405
  773MOL0     H 4301   7.617   9.414   7.802  0.3614  1.7439  0.1111
  773MOL0     H 4302   7.640   9.478   7.576 -0.5236 -0.0243  0.6761
  773MOL0     H 4303   7.675   9.293   7.597 -0.6828 -0.0183  1.4445
  773MOL0     H 4304   7.801   9.387   7.417  1.3435 -1.7308 -0.6843
  773MOL0     H 4305   7.852   9.521   7.506  1.1768 -0.9018 -3.5871
  773MOL0     H 4306   7.923   9.126   7.499 -1.0968  1.1047 -1.2056
  773MOL0     H 4307   8.132   9.033   7.820  0.5220 -0.8493  0.4683
  773MOL0     H 4308   8.034   8.968   7.681 -2.0413  2.0717  0.1265
  773MOL0     H 4309   8.252   8.909   7.608 -2.4009 -0.5988 -0.1296
  773MOL0     H 4310   8.246   9.068   7.539 -0.7624  1.9722  0.8680
  773MOL0     H 4311   8.387   8.988   7.802 -0.4979  2.2567  2.8181
  773MOL0     H 4312   8.331   9.156   7.786  0.9032  3.2809 -3.4173
  773MOL0     H 4313   8.566   9.112   7.724  0.8321 -1.9140 -0.7329
  773MOL0     H 4314   8.467   9.201   7.612 -4.4940 -0.4289  0.9955
  773MOL0     H 4315   8.613   8.869   7.365  0.7291 -0.7850 -2.6532
  773MOL0     H 4316   8.853   8.874   7.266  2.4643  1.9120 -0.6478
  773MOL0     H 4317   9.255   9.347   7.343 -0.7016 -0.6703  1.1664
  773MOL0     H 4318   9.488   9.374   7.252  2.0969 -0.0303 -0.2699
  773MOL0     H 4319   9.815   9.297   7.287 -1.1345  2.7538  2.4610
  773MOL0     H 4320   9.680   9.289   7.389 -0.8131  0.3696 -0.4813
  773MOL0     H 4321   9.700   9.048   7.432  1.6794 -2.5833  1.0447
  773MOL0     H 4322   9.841   9.037   7.311  4.1753  1.4839  1.8987
  773MOL0     H 4323   9.934   9.218   7.502  0.8361  1.0037 -0.4007
  773MOL0     H 4324   9.850   9.086   7.588  0.5849  0.3211 -0.3714
  773MOL0     H 4325  10.103   9.066   7.533  0.5046  0.7746 -0.8253
  773MOL0     H 4326  10.036   9.008   7.379  0.7285 -3.8639  1.1638
  773MOL0     H 4327  10.084   8.812   7.499 -2.0604 -1.0408  0.4288
  773MOL0     H 4328   9.917   8.837   7.471 -0.3987  3.0753 -1.5474
  773MOL0     H 4329  10.068   8.907   7.725 -0.0819  3.1400  0.0230
  773MOL0     H 4330   9.893   8.923   7.701  0.5257  1.7514 -2.0966
  773MOL0     H 4331  10.087   8.694   7.722 -0.3968 -1.7449  1.9068
  773MOL0     H 4332   9.954   8.650   7.614  1.2681 -1.3344  0.8078
  773MOL0     H 4333   9.938   8.729   7.898 -1.0019 -1.0949  1.6315
  773MOL0     H 4334   9.795   8.690   7.808  0.2778  2.2661 -3.8490
  773MOL0     H 4335   9.525   8.944   7.224  0.5561  0.4797 -1.0941
  773MOL0     H 4336   9.296   8.926   7.332  1.9784 -1.2373 -0.3454
  773MOL0     H 4337   8.933   9.223   7.494  1.3827 -1.7964 -1.8981
  773MOL0     H 4338   8.705   9.223   7.583 -1.7826  0.0873 -1.1572
  773MOL0     H 4339   8.212   9.591   8.365  0.7103 -1.0400  0.4628
  773MOL0     H 4340   8.271   9.481   8.613 -2.3313 -1.7755  4.5759
  773MOL0     H 4341   8.105   9.026   8.843  0.7609  0.9429 -1.7067
  773MOL0     H 4342   8.170   8.912   9.028 -2.0079  0.3438  1.8730
  773MOL0     H 4343   8.408   8.909   9.258  0.4985  4.0383 -1.0693
  773MOL0     H 4344   8.239   8.843   9.255 -0.2726 -0.3709 -0.4721
  773MOL0     H 4345   8.395   8.958   9.497  0.4920  0.8175 -0.7690
  773MOL0     H 4346   8.358   8.788   9.481  0.4063  0.9765  0.6601
  773MOL0     H 4347   8.097   8.844   9.480  2.3954 -0.8567 -1.8418
  773MOL0     H 4348   8.151   8.991   9.556  2.2230  0.3780  1.7636
  773MOL0     H 4349   8.267   8.847   9.741  0.8559 -0.4157 -1.0524
  773MOL0     H 4350   8.091   8.829   9.725  1.0034 -0.4150  2.6821
  773MOL0     H 4351   8.234   8.448   9.637 -2.5783  1.0373 -0.7618
  773MOL0     H 4352   8.245   9.273   9.241  0.1065 -2.4412  0.2999
  773MOL0     H 4353   8.292   9.490   8.976  0.0792  0.5214  1.1899
  773MOL0     H 4354   8.128   9.509   9.016  2.1302  2.3373 -0.9692
  773MOL0     H 4355   8.241   9.468   9.139  1.4181  2.3047 -0.0688
  774MOL0     O 4356   9.265   9.823  10.931  0.5096  0.5173  0.0389
  774MOL0     C 4357   9.300   9.710  10.889 -0.3556  0.0212  0.0734
  774MOL0     O 4358   9.303   9.590  10.969 -0.0051 -0.1290 -0.8514
  774MOL0     C 4359   9.330   9.595  11.106 -0.0763  1.0403  0.4689
  774MOL0     C 4360   9.243   9.639  11.201 -0.2691  0.0063 -0.0632
  774MOL0     C 4361   9.281   9.631  11.332  0.6009 -0.8241  0.2694
  774MOL0     C 4362   9.405   9.572  11.371  0.0127  0.3247 -1.0227
  774MOL0     O 4363   9.455   9.550  11.498  0.5753  0.5757 -0.5586
  774MOL0     C 4364   9.381   9.584  11.604  0.4195 -0.2820 -0.6410
  774MOL0     C 4365   9.436   9.513  11.736  0.1574  0.7213  0.4022
  774MOL0     C 4366   9.586   9.516  11.742  0.8596 -0.3144 -0.3444
  774MOL0     C 4367   9.646   9.571  11.878  0.0938 -0.0001  0.4006
  774MOL0     C 4368   9.679   9.463  11.975  0.6906 -0.1067 -0.5111
  774MOL0     C 4369   9.728   9.521  12.112 -0.7261 -0.6113 -0.4326
  774MOL0     C 4370   9.759   9.415  12.225  0.9471  0.4439 -0.8499
  774MOL0     C 4371   9.639   9.361  12.300  0.6606  0.1884  0.7319
  774MOL0     N 4372   9.683   9.298  12.413 -0.1932  0.3964  0.1765
  774MOL0     C 4373   9.791   9.217  12.422 -0.2335 -0.3687  0.3671
  774MOL0     C 4374   9.810   9.187  12.549 -0.6211  1.0379  0.0424
  774MOL0     C 4375   9.919   9.107  12.612 -0.3029 -0.1113  0.5995
  774MOL0     C 4376  10.000   9.195  12.708  0.1624 -0.2058 -0.1561
  774MOL0     C 4377  10.103   9.104  12.791  0.5171 -0.3281  0.6891
  774MOL0     C 4378  10.152   9.181  12.918 -0.2626 -0.4626 -0.0372
  774MOL0     O 4379  10.190   9.070  13.003  0.3726  0.0397 -0.0434
  774MOL0     C 4380  10.207   9.096  13.134  0.1584  0.4117  0.2898
  774MOL0     C 4381  10.166   9.005  13.235 -0.9637  0.5982  0.5886
  774MOL0     C 4382  10.180   9.025  13.371 -0.0419 -0.3054 -0.4245
  774MOL0     C 4383  10.231   9.143  13.420  0.7039  0.1138 -0.6625
  774MOL0     C 4384  10.246   9.158  13.566 -0.6274 -0.0631 -0.2720
  774MOL0     O 4385  10.210   9.046  13.645  0.1360 -0.3749 -0.1707
  774MOL0     C 4386  10.143   9.081  13.760 -0.3533  0.2020  0.1812
  774MOL0     C 4387  10.008   9.061  13.768 -0.2576  0.1843 -0.7165
  774MOL0     C 4388   9.942   9.098  13.887  0.2489  1.2392  0.2132
  774MOL0     C 4389  10.018   9.133  13.998 -0.5598  0.1525 -0.9542
  774MOL0     O 4390   9.960   9.182  14.113  0.8061 -0.2416 -0.0410
  774MOL0     C 4391   9.826   9.240  14.101 -0.9391 -0.2719  0.3398
  774MOL0     C 4392   9.796   9.341  14.217 -0.2714 -0.2504 -0.1182
  774MOL0     C 4393   9.880   9.464  14.200 -0.4947 -0.1057  0.5592
  774MOL0     C 4394   9.881   9.577  14.305 -0.7933  0.6287  0.9339
  774MOL0     C 4395   9.913   9.554  14.460  1.0427 -0.1759  0.5748
  774MOL0     C 4396   9.796   9.483  14.533 -0.8264  0.4754 -0.0024
  774MOL0     C 4397   9.665   9.558  14.533 -0.2091  0.4795  0.1587
  774MOL0     C 4398   9.562   9.485  14.632  0.8907 -0.1075  0.1326
  774MOL0    Cl 4399   9.399   9.527  14.602 -0.2799  0.3071 -0.3280
  774MOL0     C 4400  10.155   9.141  13.997 -0.1329  0.3195 -0.2976
  774MOL0     C 4401  10.217   9.116  13.880 -0.1974  0.0252  0.6565
  774MOL0     O 4402  10.282   9.263  13.616 -0.1088 -0.3756 -0.1808
  774MOL0     C 4403  10.267   9.239  13.319 -0.3512  1.1766 -0.8384
  774MOL0     C 4404  10.265   9.217  13.174 -0.0020  1.2184  0.5357
  774MOL0     N 4405   9.722   9.271  12.621 -0.0077 -0.7715  0.0199
  774MOL0     N 4406   9.636   9.323  12.541  0.1037  0.2024 -0.2135
  774MOL0     C 4407   9.495   9.529  11.273 -0.0898  0.2829  0.5925
  774MOL0     C 4408   9.459   9.538  11.140  0.2876 -0.1564 -0.7001
  774MOL0     C 4409   9.350   9.696  10.750 -0.1780 -0.2809  0.1985
  774MOL0     C 4410   9.469   9.624  10.732  0.3607  0.5222  0.3896
  774MOL0     C 4411   9.514   9.605  10.600 -0.4852 -0.2285  0.9432
  774MOL0     C 4412   9.448   9.658  10.489 -0.3376  0.1255 -0.3208
  774MOL0     O 4413   9.504   9.656  10.362 -0.6191  0.1063  0.1985
  774MOL0     C 4414   9.504   9.531  10.298 -0.5122  0.3832  0.1900
  774MOL0     C 4415   9.380   9.485  10.221 -0.0357  0.0412 -0.5863
  774MOL0     C 4416   9.405   9.351  10.156  0.2159 -1.0809 -1.3406
  774MOL0     C 4417   9.475   9.360  10.026 -0.0442 -0.1726  0.1745
  774MOL0     C 4418   9.484   9.234   9.950  0.1021 -0.8182  1.3743
  774MOL0     C 4419   9.498   9.134   9.882 -0.7711 -0.0542 -0.1597
  774MOL0     C 4420   9.331   9.746  10.509  0.8809  0.4741 -0.2376
  774MOL0     C 4421   9.286   9.764  10.641 -0.7920  0.0684 -0.1099
  774MOL0     C 4422   9.167   9.855  10.660 -0.5376  0.3179  0.1370
  774MOL0     H 4423   9.139   9.661  11.178 -1.2828 -1.6165  2.4916
  774MOL0     H 4424   9.201   9.649  11.402 -0.7155 -4.2985 -0.1546
  774MOL0     H 4425   9.385   9.692  11.621 -1.6786  0.0639 -1.9541
  774MOL0     H 4426   9.277   9.554  11.590  0.5007 -0.1600 -1.5802
  774MOL0     H 4427   9.393   9.413  11.738  0.6953  0.4966  0.7861
  774MOL0     H 4428   9.383   9.566  11.816 -1.8916  4.4750 -3.0028
  774MOL0     H 4429   9.621   9.598  11.678 -3.2619  1.7488 -0.2441
  774MOL0     H 4430   9.622   9.419  11.706 -2.0005 -1.8516  0.6724
  774MOL0     H 4431   9.740   9.618  11.849 -0.0108 -1.1820 -2.1681
  774MOL0     H 4432   9.565   9.633  11.919 -3.8152 -2.9709 -2.0989
  774MOL0     H 4433   9.590   9.405  11.999 -1.2105  3.2098  1.2624
  774MOL0     H 4434   9.762   9.400  11.941  0.0038  0.0713 -2.7055
  774MOL0     H 4435   9.829   9.555  12.087  0.0083 -1.4630  1.1958
  774MOL0     H 4436   9.660   9.599  12.145 -1.7435 -1.6267 -0.0518
  774MOL0     H 4437   9.818   9.468  12.300  0.8546 -0.6287 -0.0077
  774MOL0     H 4438   9.814   9.335  12.175 -1.1316 -2.0166  0.5638
  774MOL0     H 4439   9.552   9.427  12.310  0.9895  0.9048 -0.8110
  774MOL0     H 4440   9.594   9.291  12.230  1.5431 -0.0707  0.4058
  774MOL0     H 4441   9.843   9.187  12.332 -3.2777  0.8812 -2.0055
  774MOL0     H 4442   9.882   9.014  12.655  1.1568 -0.9307  0.1625
  774MOL0     H 4443   9.991   9.071  12.538  1.0709  2.1148  0.7537
  774MOL0     H 4444  10.050   9.266  12.642 -1.4576  0.3731 -0.8146
  774MOL0     H 4445   9.935   9.253  12.774  1.6175  1.7827 -0.3739
  774MOL0     H 4446  10.187   9.068  12.730 -0.3038  0.6174 -1.0868
  774MOL0     H 4447  10.040   9.024  12.831 -2.3435  2.0944  1.3488
  774MOL0     H 4448  10.074   9.245  12.960  1.7941  0.9221  1.9325
  774MOL0     H 4449  10.237   9.246  12.892  0.1542 -1.6553 -1.8104
  774MOL0     H 4450  10.113   8.914  13.205  0.3742 -0.2302  0.6312
  774MOL0     H 4451  10.147   8.948  13.440 -1.3141  1.5320  1.1264
  774MOL0     H 4452   9.951   9.033  13.680 -1.3130 -2.8703  0.7928
  774MOL0     H 4453   9.834   9.090  13.881  0.3898 -3.4448 -0.0551
  774MOL0     H 4454   9.835   9.298  14.009  1.3181 -2.6337 -1.0715
  774MOL0     H 4455   9.746   9.165  14.094 -0.6962 -0.7234  1.9620
  774MOL0     H 4456   9.693   9.377  14.215  0.2487  1.3630  0.6025
  774MOL0     H 4457   9.822   9.298  14.314  3.2773  2.0935  0.1557
  774MOL0     H 4458   9.988   9.449  14.183  0.0408  0.9512  2.7250
  774MOL0     H 4459   9.836   9.515  14.113 -0.2338  0.8047  0.9473
  774MOL0     H 4460   9.782   9.624  14.311 -0.4500  1.1988  2.6735
  774MOL0     H 4461   9.960   9.644  14.272  0.0981 -1.1805 -0.8371
  774MOL0     H 4462   9.921   9.657  14.498  2.5370  0.3586 -1.0490
  774MOL0     H 4463  10.009   9.505  14.474  1.2780  0.2607  0.4971
  774MOL0     H 4464   9.784   9.383  14.489 -1.0040  0.4248  0.1561
  774MOL0     H 4465   9.831   9.463  14.635  2.1818 -1.8880 -1.3264
  774MOL0     H 4466   9.613   9.560  14.436  1.5762  0.2391 -0.8361
  774MOL0     H 4467   9.678   9.662  14.566  0.1335  0.6927 -0.6249
  774MOL0     H 4468   9.556   9.379  14.608 -2.4006  0.5069 -2.5676
  774MOL0     H 4469   9.587   9.498  14.737 -1.5216  2.7102  0.5113
  774MOL0     H 4470  10.205   9.200  14.074 -1.6754  1.2373  0.0337
  774MOL0     H 4471  10.326   9.120  13.874 -0.2097  4.0252  0.5476
  774MOL0     H 4472  10.268   9.339  13.361 -2.7889  0.6624  0.6452
  774MOL0     H 4473  10.283   9.299  13.104 -3.2170  2.5462  1.1056
  774MOL0     H 4474   9.591   9.482  11.291  2.5221  3.8859 -2.4581
  774MOL0     H 4475   9.529   9.499  11.067  0.9267 -0.6545  0.1585
  774MOL0     H 4476   9.531   9.578  10.809 -0.2346 -2.2273 -0.6426
  774MOL0     H 4477   9.607   9.553  10.581 -0.4183  0.3511 -0.4396
  774MOL0     H 4478   9.518   9.453  10.374 -2.6403 -2.6127 -2.1990
  774MOL0     H 4479   9.592   9.527  10.232 -1.1658 -0.1379 -0.6745
  774MOL0     H 4480   9.350   9.557  10.144 -2.4951 -1.2751 -0.9604
  774MOL0     H 4481   9.293   9.489  10.288  0.9495  1.1280  0.7038
  774MOL0     H 4482   9.315   9.292  10.140 -1.1607  0.8718 -1.2110
  774MOL0     H 4483   9.462   9.292  10.229 -2.3941 -4.0620 -1.5274
  774MOL0     H 4484   9.407   9.425   9.971 -1.7809 -0.0061  2.3897
  774MOL0     H 4485   9.564   9.423  10.043 -0.6387  0.1375  2.4383
  774MOL0     H 4486   9.526   9.051   9.821 -1.5794 -1.4230  1.2550
  774MOL0     H 4487   9.286   9.798  10.425  0.9546  2.3787  0.8405
  774MOL0     H 4488   9.094   9.792  10.711 -0.8791  0.5671 -0.0459
  774MOL0     H 4489   9.212   9.932  10.723  0.2830  0.7906 -0.9919
  774MOL0     H 4490   9.128   9.905  10.571  1.6709  0.9237 -0.5614
  775MOL0     O 4491   1.750  10.521   5.078  0.1677 -0.0871  0.1056
  775MOL0     C 4492   1.869  10.547   5.082  0.4322 -0.4268  0.5422
  775MOL0     O 4493   1.956  10.473   5.155 -0.1983  0.9190 -0.3650
  775MOL0     C 4494   1.918  10.358   5.217 -0.7379 -0.7621 -1.2652
  775MOL0     C 4495   1.880  10.358   5.348 -0.2231  0.2491 -0.5163
  775MOL0     C 4496   1.863  10.245   5.423  0.5553  0.5436 -0.1219
  775MOL0     C 4497   1.870  10.126   5.366  0.1891  0.6167  0.0599
  775MOL0     O 4498   1.872  10.015   5.446 -0.7849  0.2045 -0.6759
  775MOL0     C 4499   1.797   9.899   5.403  0.2199 -0.0742  0.7410
  775MOL0     C 4500   1.725   9.828   5.517  0.5857 -0.7477  0.7729
  775MOL0     C 4501   1.825   9.781   5.625  0.0169 -0.2092 -0.2541
  775MOL0     C 4502   1.756   9.695   5.735 -1.5691  0.4766  0.1727
  775MOL0     C 4503   1.839   9.680   5.853 -0.3227  0.0976 -0.9142
  775MOL0     C 4504   1.976   9.614   5.821  0.0093  0.5707 -0.2763
  775MOL0     C 4505   2.017   9.509   5.924  0.9848  0.2971 -0.1479
  775MOL0     C 4506   2.171   9.498   5.919  0.5884  0.4561 -1.1018
  775MOL0     N 4507   2.220   9.419   6.039  0.3248  1.3531 -0.9405
  775MOL0     C 4508   2.301   9.475   6.138 -0.2842  0.4304 -0.6896
  775MOL0     C 4509   2.334   9.366   6.212 -0.7705  0.2614 -0.0117
  775MOL0     C 4510   2.413   9.371   6.339  0.3483 -1.2203  0.2381
  775MOL0     C 4511   2.317   9.371   6.452  0.0189  0.0148 -0.4545
  775MOL0     C 4512   2.379   9.430   6.574 -0.2104  0.4684 -0.1213
  775MOL0     C 4513   2.288   9.395   6.695  0.2294  0.3307  0.2818
  775MOL0     O 4514   2.219   9.274   6.693  0.0401  1.1293 -0.0969
  775MOL0     C 4515   2.150   9.229   6.808  0.2733 -0.5105 -0.2272
  775MOL0     C 4516   2.221   9.204   6.929 -0.1381  0.4999 -0.3789
  775MOL0     C 4517   2.142   9.148   7.037 -0.1914 -0.5600  1.2893
  775MOL0     C 4518   2.005   9.120   7.028  0.4732 -0.7058 -0.1575
  775MOL0     C 4519   1.929   9.058   7.137 -0.5039 -0.1230 -1.2503
  775MOL0     O 4520   2.001   8.992   7.235  0.5869  0.1600 -0.0386
  775MOL0     C 4521   1.953   8.913   7.340  0.5294  0.1133 -1.0966
  775MOL0     C 4522   2.042   8.882   7.447  0.7044  0.8123  0.3648
  775MOL0     C 4523   2.008   8.793   7.549  0.5409  0.2340 -0.7531
  775MOL0     C 4524   1.888   8.711   7.554 -0.3516  0.3154 -0.8832
  775MOL0     O 4525   1.874   8.613   7.652  0.3075 -0.0084  0.0619
  775MOL0     C 4526   1.746   8.615   7.712  0.2246  0.6966 -0.8427
  775MOL0     C 4527   1.761   8.592   7.863  0.5218  0.6282  0.3709
  775MOL0     C 4528   1.625   8.575   7.929  0.0523  0.0004  0.1839
  775MOL0     C 4529   1.636   8.505   8.061  0.3205 -0.1406 -0.6143
  775MOL0     C 4530   1.504   8.523   8.141 -0.4163 -0.0578  0.9377
  775MOL0     C 4531   1.479   8.656   8.205 -0.1978 -0.2261 -0.2302
  775MOL0     C 4532   1.366   8.653   8.307 -0.0564 -0.4905  0.0025
  775MOL0     C 4533   1.384   8.776   8.403 -0.5248  0.9273  0.2688
  775MOL0    Cl 4534   1.480   8.731   8.548  0.4083 -0.0528 -0.4355
  775MOL0     C 4535   1.797   8.745   7.448 -0.0796  0.7778 -0.1950
  775MOL0     C 4536   1.825   8.840   7.346 -0.9986  0.3910 -0.2977
  775MOL0     O 4537   1.808   9.064   7.129  0.0317  0.2952 -0.2634
  775MOL0     C 4538   1.935   9.154   6.912  0.6066 -0.0215  1.1041
  775MOL0     C 4539   2.003   9.206   6.802 -0.5703  0.2942  0.5819
  775MOL0     N 4540   2.303   9.245   6.146  0.3362  0.4179  0.8768
  775MOL0     N 4541   2.232   9.282   6.041 -0.5628 -0.2496 -0.0870
  775MOL0     C 4542   1.902  10.120   5.228 -0.5338  0.1290  0.2001
  775MOL0     C 4543   1.936  10.235   5.159  0.5710  0.3607  0.3308
  775MOL0     C 4544   1.923  10.670   5.024  0.6645 -0.4713 -0.5149
  775MOL0     C 4545   1.843  10.784   5.028  0.1368 -0.2399 -0.4258
  775MOL0     C 4546   1.870  10.891   4.945 -0.1827 -0.1618 -0.2533
  775MOL0     C 4547   1.998  10.898   4.882  0.4571  0.2432 -0.6648
  775MOL0     O 4548   2.039  11.016   4.815 -0.2834  0.1635 -0.3099
  775MOL0     C 4549   1.944  11.123   4.779  0.6721 -0.9089  0.3054
  775MOL0     C 4550   2.012  11.246   4.719 -0.5282 -0.4589 -0.1324
  775MOL0     C 4551   2.077  11.196   4.584  0.3659  0.0744  1.0009
  775MOL0     C 4552   1.996  11.240   4.457 -0.2752 -0.0005 -0.0079
  775MOL0     C 4553   1.854  11.202   4.446 -1.2302 -0.4605 -0.5869
  775MOL0     C 4554   1.730  11.205   4.439 -0.0745 -0.2986 -0.3215
  775MOL0     C 4555   2.085  10.790   4.883  0.4050  1.2766  0.3861
  775MOL0     C 4556   2.047  10.672   4.947  1.3133 -0.1287  0.7690
  775MOL0     C 4557   2.131  10.551   4.929  0.2901  0.8537 -0.2565
  775MOL0     H 4558   1.860  10.450   5.402  0.0603  0.9357 -1.5558
  775MOL0     H 4559   1.833  10.245   5.527 -3.1550  0.1302 -1.0536
  775MOL0     H 4560   1.731   9.925   5.320  4.6254  1.1051 -2.7162
  775MOL0     H 4561   1.866   9.835   5.348 -2.0820  1.7374 -5.0048
  775MOL0     H 4562   1.658   9.750   5.480 -2.1964  3.1820 -3.7884
  775MOL0     H 4563   1.654   9.899   5.562 -1.0413 -2.8665  1.7222
  775MOL0     H 4564   1.868   9.867   5.677  0.1171 -1.6300  2.1547
  775MOL0     H 4565   1.910   9.730   5.578 -0.0169  2.5382 -3.6918
  775MOL0     H 4566   1.675   9.759   5.771 -1.3683  0.7465  0.1458
  775MOL0     H 4567   1.711   9.601   5.702  0.4843 -1.6384  2.8585
  775MOL0     H 4568   1.846   9.779   5.899 -1.6851  0.3016 -1.0803
  775MOL0     H 4569   1.778   9.634   5.931 -3.1158  4.1809 -0.3417
  775MOL0     H 4570   1.983   9.582   5.716  2.1145  1.0406 -0.3333
  775MOL0     H 4571   2.046   9.698   5.828  0.0358  0.6259 -1.0812
  775MOL0     H 4572   1.975   9.409   5.909 -0.4513  1.0371 -1.2519
  775MOL0     H 4573   1.985   9.539   6.024 -1.6184  2.1030 -1.4197
  775MOL0     H 4574   2.199   9.449   5.825  0.8203 -0.9637 -0.3322
  775MOL0     H 4575   2.210   9.600   5.922 -1.6337  1.3371  1.4631
  775MOL0     H 4576   2.327   9.579   6.155  0.3044  0.1491  0.1864
  775MOL0     H 4577   2.470   9.278   6.347 -1.8101 -2.5385  1.0977
  775MOL0     H 4578   2.464   9.468   6.330 -0.1125 -1.0202 -0.2541
  775MOL0     H 4579   2.215   9.410   6.443  0.1750  0.0820 -2.1828
  775MOL0     H 4580   2.296   9.265   6.468 -0.6469 -0.1904 -2.4304
  775MOL0     H 4581   2.387   9.539   6.570  1.9979  0.3417  0.0723
  775MOL0     H 4582   2.478   9.391   6.596  2.7207  4.4602 -4.2846
  775MOL0     H 4583   2.211   9.473   6.691 -2.1485 -1.8415  1.1480
  775MOL0     H 4584   2.353   9.408   6.782  1.3092 -2.4615 -0.0364
  775MOL0     H 4585   2.327   9.220   6.944  0.3018 -1.3323 -1.3258
  775MOL0     H 4586   2.199   9.120   7.124 -0.5801 -2.7881  0.9025
  775MOL0     H 4587   2.141   8.921   7.467  1.8202 -2.1705  1.2667
  775MOL0     H 4588   2.094   8.766   7.609  2.8288  1.2507 -3.2907
  775MOL0     H 4589   1.690   8.708   7.697 -1.7654  0.0577  1.7636
  775MOL0     H 4590   1.694   8.534   7.660 -1.2131  2.1668 -1.8108
  775MOL0     H 4591   1.816   8.499   7.876 -1.0063 -0.4097 -0.2528
  775MOL0     H 4592   1.812   8.679   7.905  0.1483  1.1223 -0.1921
  775MOL0     H 4593   1.578   8.674   7.932 -0.7441 -0.3837  0.3834
  775MOL0     H 4594   1.561   8.512   7.867  3.2414 -1.1108 -2.2364
  775MOL0     H 4595   1.714   8.550   8.123 -0.1391 -0.0856 -0.0730
  775MOL0     H 4596   1.656   8.400   8.038  4.2721 -0.0766  1.6211
  775MOL0     H 4597   1.514   8.439   8.210 -1.2493 -0.8908  0.0705
  775MOL0     H 4598   1.422   8.506   8.070  0.3862  5.1368 -1.7518
  775MOL0     H 4599   1.563   8.707   8.253 -1.5301  2.5633 -0.6049
  775MOL0     H 4600   1.451   8.725   8.125  0.2941  3.0717  2.2303
  775MOL0     H 4601   1.365   8.558   8.360 -1.8246 -2.1588 -2.7140
  775MOL0     H 4602   1.274   8.665   8.249 -0.8241 -1.7607  0.9147
  775MOL0     H 4603   1.442   8.854   8.354 -0.8402 -0.1395 -1.9081
  775MOL0     H 4604   1.283   8.816   8.418 -1.3991 -1.1379  0.2355
  775MOL0     H 4605   1.697   8.702   7.446 -0.4390  1.2632  2.7244
  775MOL0     H 4606   1.764   8.865   7.260 -1.9473  1.1296  0.5806
  775MOL0     H 4607   1.836   9.117   6.887  1.4429 -2.2200  0.8972
  775MOL0     H 4608   1.943   9.230   6.715 -0.2571 -1.5589 -0.1814
  775MOL0     H 4609   1.916  10.028   5.171  1.0693  1.3165 -1.4331
  775MOL0     H 4610   1.990  10.241   5.065 -2.4875  1.1327 -1.5227
  775MOL0     H 4611   1.751  10.773   5.085 -0.9840  2.3423 -1.5844
  775MOL0     H 4612   1.810  10.980   4.930 -0.7841 -0.4864  0.1539
  775MOL0     H 4613   1.884  11.166   4.860 -0.7638 -0.6303 -0.8727
  775MOL0     H 4614   1.871  11.087   4.707 -0.9576 -0.0907  1.4848
  775MOL0     H 4615   2.089  11.277   4.789  0.3844 -0.5526 -1.0667
  775MOL0     H 4616   1.942  11.330   4.710  0.7959  0.5141 -2.3465
  775MOL0     H 4617   2.108  11.091   4.576 -0.6015 -0.0954 -1.5549
  775MOL0     H 4618   2.177  11.240   4.571 -0.4297  1.8360  0.5419
  775MOL0     H 4619   2.012  11.347   4.446 -3.9621  0.7847  0.9572
  775MOL0     H 4620   2.047  11.190   4.374 -1.4500 -0.8594 -0.2387
  775MOL0     H 4621   1.626  11.231   4.438 -0.0321  0.0713  1.4920
  775MOL0     H 4622   2.179  10.788   4.828  1.9004 -1.6080  2.7600
  775MOL0     H 4623   2.209  10.565   4.853  0.0928 -1.3120 -0.9165
  775MOL0     H 4624   2.173  10.524   5.026 -2.1822 -7.7034 -0.7354
  775MOL0     H 4625   2.061  10.476   4.892 -1.3424  1.7819  0.8627
  776MOL0     O 4626   9.109   2.457   9.553  0.4007  0.9153 -0.1875
  776MOL0     C 4627   9.082   2.572   9.573  0.5391 -0.2106  0.1816
  776MOL0     O 4628   9.164   2.666   9.634  0.5802 -0.0462 -0.4260
  776MOL0     C 4629   9.297   2.629   9.652 -0.4349 -0.3105 -0.2599
  776MOL0     C 4630   9.324   2.551   9.760  0.3956  0.1160  1.2265
  776MOL0     C 4631   9.453   2.507   9.778 -0.2780  0.4360 -0.5392
  776MOL0     C 4632   9.554   2.556   9.696  0.1451  1.8842  0.2039
  776MOL0     O 4633   9.684   2.541   9.735 -0.2901 -0.2567 -0.5102
  776MOL0     C 4634   9.717   2.395   9.741 -1.0431 -0.3478  0.3666
  776MOL0     C 4635   9.870   2.372   9.727 -0.1599 -0.7521  0.1648
  776MOL0     C 4636   9.961   2.470   9.803  0.4833  0.2058  0.2067
  776MOL0     C 4637  10.099   2.483   9.754 -0.2413  0.0527  0.6043
  776MOL0     C 4638  10.185   2.357   9.745 -0.8831  0.7360  0.2459
  776MOL0     C 4639  10.330   2.394   9.715  0.1679  0.3045  0.3090
  776MOL0     C 4640  10.436   2.295   9.709 -0.0386 -0.2574  0.5354
  776MOL0     C 4641  10.570   2.354   9.648  0.0439  0.2034  0.7378
  776MOL0     N 4642  10.676   2.261   9.685 -0.2784 -0.4390 -0.5595
  776MOL0     C 4643  10.742   2.176   9.604 -0.0311 -0.0059 -0.4925
  776MOL0     C 4644  10.845   2.129   9.670 -0.3404  0.0680 -0.6188
  776MOL0     C 4645  10.947   2.034   9.620 -1.0825 -0.2632 -0.3278
  776MOL0     C 4646  11.030   2.102   9.516 -0.6767 -0.1476  0.7857
  776MOL0     C 4647  11.105   2.223   9.579 -0.1665 -0.8518  0.2103
  776MOL0     C 4648  11.144   2.336   9.473  0.6090  0.5119  0.2103
  776MOL0     O 4649  11.188   2.467   9.510 -0.4960  0.6466  0.4210
  776MOL0     C 4650  11.096   2.560   9.549  0.6183  1.0302  0.2152
  776MOL0     C 4651  11.155   2.690   9.541 -0.1016 -0.2102 -0.6917
  776MOL0     C 4652  11.058   2.795   9.555 -0.6461  0.4848  0.2728
  776MOL0     C 4653  10.920   2.766   9.588 -0.3531 -0.7203 -0.5376
  776MOL0     C 4654  10.845   2.881   9.604 -0.1094 -1.0280  0.1535
  776MOL0     O 4655  10.909   3.004   9.606 -0.0979 -1.0758  0.3320
  776MOL0     C 4656  10.824   3.115   9.587  0.5696  0.0500 -0.7662
  776MOL0     C 4657  10.821   3.225   9.673 -0.1990 -0.7834 -0.2614
  776MOL0     C 4658  10.746   3.340   9.655  0.2764  0.1775  0.2738
  776MOL0     C 4659  10.668   3.343   9.539 -0.1310 -0.4113  0.1317
  776MOL0     O 4660  10.595   3.456   9.520  0.5972 -0.3164 -0.3106
  776MOL0     C 4661  10.574   3.566   9.616  0.5575 -0.2886 -1.2580
  776MOL0     C 4662  10.478   3.655   9.540 -0.3211 -0.5422 -0.4516
  776MOL0     C 4663  10.334   3.611   9.526  0.1250 -0.4023 -0.2120
  776MOL0     C 4664  10.257   3.725   9.458 -0.9450  1.1492  0.2363
  776MOL0     C 4665  10.110   3.705   9.483 -0.1730  0.2952  0.3326
  776MOL0     C 4666  10.045   3.590   9.405  0.5276  0.2595  0.9664
  776MOL0     C 4667   9.894   3.563   9.453 -0.7890 -1.3540  0.3565
  776MOL0     C 4668   9.851   3.436   9.382  1.3591  0.1335  0.2887
  776MOL0    Cl 4669   9.695   3.362   9.460 -0.5266  0.4804 -0.2576
  776MOL0     C 4670  10.667   3.244   9.443 -0.2269 -0.0537  0.3053
  776MOL0     C 4671  10.743   3.133   9.470  1.1036  0.0057 -0.4029
  776MOL0     O 4672  10.723   2.867   9.618  0.2734 -0.7864 -0.2008
  776MOL0     C 4673  10.866   2.631   9.591 -0.4772 -0.7659  0.1756
  776MOL0     C 4674  10.964   2.537   9.557 -0.4794 -0.8041 -0.0299
  776MOL0     N 4675  10.836   2.186   9.798 -1.0654 -0.2347  0.1411
  776MOL0     N 4676  10.736   2.264   9.803 -0.3423 -0.2866 -0.6775
  776MOL0     C 4677   9.524   2.648   9.594  0.0038  0.5403  0.2767
  776MOL0     C 4678   9.391   2.685   9.566 -0.2892 -0.0266 -0.2039
  776MOL0     C 4679   8.931   2.601   9.555  0.3205 -0.6118 -0.0673
  776MOL0     C 4680   8.886   2.723   9.628 -0.7033  0.3348 -0.3943
  776MOL0     C 4681   8.750   2.759   9.614  0.2478 -0.4644  0.3741
  776MOL0     C 4682   8.665   2.682   9.533 -0.1018  0.1404 -0.0445
  776MOL0     O 4683   8.533   2.717   9.507 -0.4211  0.7484  0.0897
  776MOL0     C 4684   8.465   2.838   9.550 -0.5565 -0.2053 -0.0544
  776MOL0     C 4685   8.436   2.935   9.437 -0.0352  0.2222 -0.1893
  776MOL0     C 4686   8.318   2.888   9.342 -0.1836  0.7864 -0.1072
  776MOL0     C 4687   8.187   2.862   9.419 -0.0429  0.8905 -0.1408
  776MOL0     C 4688   8.070   2.888   9.332 -0.0473  0.4265  0.2254
  776MOL0     C 4689   7.975   2.910   9.263  0.0005  0.2810 -0.7346
  776MOL0     C 4690   8.713   2.574   9.470  0.2179 -0.1693 -0.0377
  776MOL0     C 4691   8.847   2.530   9.468 -0.3864  0.1629 -1.0953
  776MOL0     C 4692   8.891   2.408   9.378 -0.5075 -0.0072 -0.6754
  776MOL0     H 4693   9.245   2.511   9.822 -0.1273 -4.1183 -1.7410
  776MOL0     H 4694   9.475   2.443   9.863 -1.2298 -0.4876 -0.9527
  776MOL0     H 4695   9.673   2.355   9.832 -0.9330 -0.1875  0.4904
  776MOL0     H 4696   9.661   2.355   9.656  1.0773 -1.4565 -0.6030
  776MOL0     H 4697   9.890   2.361   9.620 -4.8499 -0.0927 -0.9748
  776MOL0     H 4698   9.886   2.269   9.762 -1.8089 -0.9727  0.3369
  776MOL0     H 4699   9.962   2.453   9.911 -0.4567 -0.4680  0.1241
  776MOL0     H 4700   9.919   2.569   9.785 -2.0381 -0.7615  0.4128
  776MOL0     H 4701  10.092   2.519   9.651  0.7639 -1.8519 -0.1664
  776MOL0     H 4702  10.147   2.560   9.816 -0.0218 -0.8043  1.5166
  776MOL0     H 4703  10.187   2.294   9.834  1.3486 -2.1443 -1.6432
  776MOL0     H 4704  10.158   2.286   9.667  1.9372  0.6274 -0.7551
  776MOL0     H 4705  10.328   2.465   9.632 -1.5045 -1.2069 -0.9936
  776MOL0     H 4706  10.349   2.456   9.804 -3.2150  0.6491  0.9129
  776MOL0     H 4707  10.398   2.209   9.653 -1.1519  1.1449 -0.9467
  776MOL0     H 4708  10.474   2.261   9.806  1.4680 -0.0528  0.0426
  776MOL0     H 4709  10.566   2.365   9.539  1.8312  0.2901  0.6462
  776MOL0     H 4710  10.587   2.456   9.681  1.3786  0.5941 -1.0028
  776MOL0     H 4711  10.708   2.156   9.503 -0.3157 -1.8931 -0.0564
  776MOL0     H 4712  11.011   2.011   9.705 -0.1357  1.9444 -0.3878
  776MOL0     H 4713  10.908   1.940   9.580  0.9189 -0.5242 -1.8252
  776MOL0     H 4714  11.105   2.027   9.488  0.6066 -0.0282  3.5500
  776MOL0     H 4715  10.961   2.135   9.438  0.3851  2.2051  0.7586
  776MOL0     H 4716  11.200   2.187   9.620 -0.3646 -1.2137  0.3480
  776MOL0     H 4717  11.050   2.281   9.654 -0.1008  0.4118 -0.6910
  776MOL0     H 4718  11.058   2.340   9.405 -1.2455 -0.2287  2.3854
  776MOL0     H 4719  11.217   2.285   9.410  0.4137 -0.9934  1.1401
  776MOL0     H 4720  11.261   2.710   9.530 -0.2062 -0.8736 -3.4551
  776MOL0     H 4721  11.092   2.897   9.542  0.0995  0.0104 -2.0283
  776MOL0     H 4722  10.888   3.233   9.758 -2.7458 -0.1318  1.7948
  776MOL0     H 4723  10.768   3.421   9.724  4.2787 -2.2056  2.2420
  776MOL0     H 4724  10.527   3.535   9.710  1.6304  2.8423  0.4410
  776MOL0     H 4725  10.668   3.621   9.626 -0.8607  2.8265 -3.2785
  776MOL0     H 4726  10.476   3.751   9.592 -0.7419  1.8297 -4.5189
  776MOL0     H 4727  10.527   3.688   9.449  2.7423 -1.7619  0.6081
  776MOL0     H 4728  10.313   3.516   9.476  2.0918 -1.3131  0.5768
  776MOL0     H 4729  10.310   3.606   9.633  1.0249 -2.0476 -0.0624
  776MOL0     H 4730  10.295   3.722   9.356  2.5655  0.0968  1.4519
  776MOL0     H 4731  10.298   3.806   9.519  0.7180 -0.3598  1.1987
  776MOL0     H 4732  10.050   3.791   9.454 -1.5258 -0.0755  1.8896
  776MOL0     H 4733  10.103   3.707   9.592 -1.6236  3.7220  0.2760
  776MOL0     H 4734  10.034   3.629   9.303 -2.5424 -1.9167  0.3005
  776MOL0     H 4735  10.110   3.502   9.406 -0.5206 -0.5445  0.7014
  776MOL0     H 4736   9.839   3.647   9.408  0.1880 -1.5778 -1.3376
  776MOL0     H 4737   9.876   3.554   9.561 -1.9105  1.0801  0.4516
  776MOL0     H 4738   9.821   3.458   9.279 -2.1915  0.9337  1.3807
  776MOL0     H 4739   9.935   3.365   9.378  0.3103 -1.1397  0.3045
  776MOL0     H 4740  10.608   3.252   9.352 -0.7133 -0.4765  0.5803
  776MOL0     H 4741  10.729   3.057   9.394 -0.5223  1.5639 -1.7590
  776MOL0     H 4742  10.763   2.606   9.613 -0.1931 -0.1295  2.5125
  776MOL0     H 4743  10.938   2.432   9.569  3.7539 -1.9899  0.7078
  776MOL0     H 4744   9.606   2.687   9.535  0.9310 -1.2580  0.3225
  776MOL0     H 4745   9.368   2.757   9.488  0.9588  0.6209  0.0053
  776MOL0     H 4746   8.947   2.776   9.700  1.2304 -1.7330 -0.4281
  776MOL0     H 4747   8.707   2.845   9.665  0.6947 -0.4396  0.7165
  776MOL0     H 4748   8.528   2.896   9.618 -2.9057 -1.0523  3.1473
  776MOL0     H 4749   8.376   2.814   9.610 -2.3041  4.1464 -0.5471
  776MOL0     H 4750   8.522   2.943   9.369 -1.1537 -5.1190 -2.8306
  776MOL0     H 4751   8.412   3.037   9.470  1.9774  1.4108 -2.0858
  776MOL0     H 4752   8.347   2.800   9.284 -2.3438  0.6538 -1.0691
  776MOL0     H 4753   8.306   2.964   9.265 -1.7411  0.3238 -0.3641
  776MOL0     H 4754   8.188   2.760   9.460  0.3527  0.8399 -0.2695
  776MOL0     H 4755   8.182   2.935   9.500  0.7015  1.0226 -0.2085
  776MOL0     H 4756   7.895   2.925   9.193 -2.7449  0.1284  2.1181
  776MOL0     H 4757   8.646   2.502   9.425 -1.5813  1.3489  0.0836
  776MOL0     H 4758   8.817   2.366   9.310 -1.0614 -2.7981  1.4809
  776MOL0     H 4759   8.989   2.439   9.338 -1.0354  1.7071 -0.6978
  776MOL0     H 4760   8.908   2.326   9.448 -1.2359 -1.1049 -1.7474
  777MOL0     O 4761   2.920   9.561   8.614 -0.5793 -0.1932 -0.0030
  777MOL0     C 4762   2.961   9.617   8.510  0.3287 -0.6239  0.2917
  777MOL0     O 4763   2.890   9.707   8.438 -0.1071 -0.0215  0.0516
  777MOL0     C 4764   2.760   9.723   8.457 -0.7053  0.2968  0.6703
  777MOL0     C 4765   2.707   9.851   8.499 -0.2317  0.7814  0.3975
  777MOL0     C 4766   2.584   9.874   8.537  0.0946 -0.4624  1.3124
  777MOL0     C 4767   2.489   9.780   8.542 -0.1566  0.8135  0.3760
  777MOL0     O 4768   2.376   9.799   8.604  0.2218 -0.2187 -0.9485
  777MOL0     C 4769   2.266   9.700   8.580  0.0966  0.0882 -0.1268
  777MOL0     C 4770   2.160   9.727   8.678  0.3093 -0.1843  0.3213
  777MOL0     C 4771   2.071   9.844   8.635 -1.4760 -0.1024  0.7291
  777MOL0     C 4772   1.981   9.805   8.518  1.1081  0.3588 -0.6496
  777MOL0     C 4773   1.864   9.907   8.507 -0.6122  0.4932 -1.4888
  777MOL0     C 4774   1.900  10.051   8.468  0.0317  0.3862  0.8647
  777MOL0     C 4775   1.780  10.150   8.476 -0.5353  0.1057  0.5237
  777MOL0     C 4776   1.804  10.290   8.411 -0.4962 -0.5848 -0.0553
  777MOL0     N 4777   1.688  10.383   8.419  0.4185  0.4518  0.7292
  777MOL0     C 4778   1.600  10.419   8.322 -0.1968  1.0973 -0.5239
  777MOL0     C 4779   1.505  10.483   8.390 -1.1835  0.4648  0.3736
  777MOL0     C 4780   1.378  10.543   8.335 -0.5291  0.3080 -1.5589
  777MOL0     C 4781   1.396  10.632   8.215  0.5515  0.6111 -0.5401
  777MOL0     C 4782   1.266  10.722   8.208 -0.2865 -0.0145  0.4623
  777MOL0     C 4783   1.134  10.665   8.173  0.1703 -0.7066 -0.4222
  777MOL0     O 4784   1.080  10.568   8.262 -0.0582  0.2244 -0.4474
  777MOL0     C 4785   0.945  10.547   8.261 -0.2907 -0.6944  0.3895
  777MOL0     C 4786   0.888  10.517   8.386 -0.8240  0.1921  0.1290
  777MOL0     C 4787   0.755  10.475   8.404 -0.3484  0.3781 -0.2188
  777MOL0     C 4788   0.675  10.475   8.288 -0.5656  1.0692 -0.4577
  777MOL0     C 4789   0.534  10.433   8.301  0.0651 -0.4799  0.1309
  777MOL0     O 4790   0.488  10.423   8.429  0.1907 -0.0052 -0.2824
  777MOL0     C 4791   0.365  10.380   8.463 -0.2562 -0.0987 -0.2378
  777MOL0     C 4792   0.247  10.379   8.385 -0.8622 -0.6387  0.1339
  777MOL0     C 4793   0.130  10.348   8.444  0.3485 -0.8934  0.5273
  777MOL0     C 4794   0.110  10.311   8.571  0.9172  0.1336  0.0980
  777MOL0     O 4795  -0.014  10.278   8.626  0.6953 -0.2560  0.2857
  777MOL0     C 4796  -0.053  10.360   8.741  0.0709  0.9532 -0.4233
  777MOL0     C 4797  -0.159  10.457   8.706  0.7332 -0.1642 -0.0852
  777MOL0     C 4798  -0.280  10.390   8.643 -0.4580 -0.6039  0.0757
  777MOL0     C 4799  -0.408  10.482   8.681 -0.3117  0.6947 -0.0054
  777MOL0     C 4800  -0.535  10.411   8.629  0.3923 -0.7324 -0.1248
  777MOL0     C 4801  -0.671  10.453   8.697  0.4024 -0.2013  1.0199
  777MOL0     C 4802  -0.790  10.405   8.611 -1.4059  0.1863 -0.3155
  777MOL0     C 4803  -0.925  10.455   8.664 -0.0278  0.6152 -0.4682
  777MOL0    Cl 4804  -1.041  10.482   8.517 -0.5142  0.4195  0.2557
  777MOL0     C 4805   0.234  10.284   8.641  0.4144 -0.6449 -0.2924
  777MOL0     C 4806   0.351  10.326   8.591 -0.0485  1.2010 -0.2358
  777MOL0     O 4807   0.473  10.391   8.197  0.0973  0.4637 -0.2582
  777MOL0     C 4808   0.737  10.505   8.163  0.4647 -1.8950 -0.0494
  777MOL0     C 4809   0.872  10.551   8.150  0.0162  0.7986  0.3917
  777MOL0     N 4810   1.540  10.500   8.517 -0.2713 -1.0767  0.2694
  777MOL0     N 4811   1.654  10.444   8.533  0.8862 -0.2854  0.2920
  777MOL0     C 4812   2.528   9.653   8.482  0.5218  0.0186  0.2498
  777MOL0     C 4813   2.662   9.622   8.440  0.0223 -0.5007  1.4270
  777MOL0     C 4814   3.097   9.603   8.476  0.0046  1.1928  0.3272
  777MOL0     C 4815   3.175   9.716   8.462 -0.0296 -0.4894  0.4079
  777MOL0     C 4816   3.310   9.711   8.421  0.1339  0.1693 -0.8617
  777MOL0     C 4817   3.373   9.591   8.392 -0.4127  0.2675 -1.0712
  777MOL0     O 4818   3.504   9.594   8.350  0.2191 -0.7573 -0.6546
  777MOL0     C 4819   3.586   9.478   8.386 -0.3596  0.1523  0.1635
  777MOL0     C 4820   3.728   9.518   8.369 -0.5232  0.5777 -0.4582
  777MOL0     C 4821   3.776   9.643   8.452 -0.5100  0.6538 -0.1211
  777MOL0     C 4822   3.930   9.651   8.448 -0.1555  0.3763  0.1712
  777MOL0     C 4823   3.994   9.568   8.541 -0.2043 -0.4463  0.1953
  777MOL0     C 4824   4.049   9.515   8.628 -0.5210 -0.1016  0.3933
  777MOL0     C 4825   3.298   9.470   8.420  0.2029 -0.4012  0.1438
  777MOL0     C 4826   3.160   9.477   8.447 -0.1790  0.1297  0.0738
  777MOL0     C 4827   3.096   9.344   8.470  0.2215 -0.2362  0.6500
  777MOL0     H 4828   2.775   9.936   8.505 -0.2607  0.9564 -1.2104
  777MOL0     H 4829   2.567   9.978   8.566  0.3333 -1.3131  5.0789
  777MOL0     H 4830   2.225   9.718   8.481  2.7959  2.0354 -1.0374
  777MOL0     H 4831   2.298   9.598   8.603 -2.0604 -0.2835  1.5811
  777MOL0     H 4832   2.191   9.743   8.782 -1.9014 -0.0935  1.0185
  777MOL0     H 4833   2.094   9.640   8.684  0.2596 -0.1821 -0.1441
  777MOL0     H 4834   2.137   9.928   8.611 -2.0029 -0.0038 -0.4362
  777MOL0     H 4835   2.007   9.882   8.716  0.7261 -1.0506  3.0488
  777MOL0     H 4836   2.029   9.817   8.420  0.9417  0.4725 -0.7184
  777MOL0     H 4837   1.948   9.702   8.530 -1.0363  1.2640  2.2385
  777MOL0     H 4838   1.790   9.865   8.438 -3.5643 -2.4172  2.9185
  777MOL0     H 4839   1.823   9.896   8.608  0.3525 -2.5651 -1.3171
  777MOL0     H 4840   1.976  10.101   8.529 -0.2972  3.1174 -0.8130
  777MOL0     H 4841   1.951  10.051   8.371  2.7011 -1.1322  2.1527
  777MOL0     H 4842   1.754  10.166   8.580 -0.1069  3.7442  0.2062
  777MOL0     H 4843   1.696  10.101   8.426 -1.1445  2.2691 -0.7205
  777MOL0     H 4844   1.886  10.346   8.458 -3.4307  2.2506  2.0929
  777MOL0     H 4845   1.839  10.276   8.308 -0.0459  0.0128  0.0066
  777MOL0     H 4846   1.604  10.391   8.217 -0.7226 -2.1244  0.2219
  777MOL0     H 4847   1.309  10.461   8.313 -1.1417  0.9898 -2.2298
  777MOL0     H 4848   1.338  10.604   8.417  1.7580  0.0278 -0.1511
  777MOL0     H 4849   1.475  10.704   8.240  1.7981 -0.7064 -0.5366
  777MOL0     H 4850   1.392  10.573   8.123 -1.6180  1.6118 -1.1515
  777MOL0     H 4851   1.291  10.804   8.140  3.3407 -2.3008 -1.2965
  777MOL0     H 4852   1.258  10.780   8.300  2.7362 -0.9111  1.4062
  777MOL0     H 4853   1.146  10.624   8.073 -0.0046  0.2446 -0.8434
  777MOL0     H 4854   1.077  10.759   8.165  2.0314  0.5328  0.1543
  777MOL0     H 4855   0.963  10.523   8.464 -0.0913 -1.0957 -0.4412
  777MOL0     H 4856   0.729  10.459   8.508 -0.2122  0.6420 -0.1447
  777MOL0     H 4857   0.247  10.391   8.277 -0.0932 -2.0378 -0.0481
  777MOL0     H 4858   0.050  10.325   8.374 -1.7572  0.6628  2.2906
  777MOL0     H 4859  -0.101  10.289   8.809  1.4753 -0.4343 -0.8135
  777MOL0     H 4860   0.035  10.404   8.789 -0.1828  0.8811  0.1109
  777MOL0     H 4861  -0.189  10.505   8.799 -0.2744 -5.3768  2.6565
  777MOL0     H 4862  -0.119  10.544   8.653  1.5515  0.8329  2.0797
  777MOL0     H 4863  -0.259  10.386   8.536  1.3188  0.0357  0.3746
  777MOL0     H 4864  -0.306  10.289   8.677 -0.6673 -1.2243 -1.8233
  777MOL0     H 4865  -0.410  10.580   8.632  1.7891  1.9270  2.1682
  777MOL0     H 4866  -0.424  10.489   8.789 -0.0690 -2.7008  0.3529
  777MOL0     H 4867  -0.524  10.304   8.645  3.4002 -1.3694 -4.5439
  777MOL0     H 4868  -0.543  10.434   8.522  1.3623 -1.1058 -0.2888
  777MOL0     H 4869  -0.668  10.413   8.799 -0.9440  1.7384  1.8640
  777MOL0     H 4870  -0.679  10.562   8.699 -0.5620 -0.2083 -0.5226
  777MOL0     H 4871  -0.789  10.296   8.604 -0.8620  0.0386  1.5794
  777MOL0     H 4872  -0.790  10.436   8.506 -2.3162  1.9556  0.1690
  777MOL0     H 4873  -0.963  10.376   8.730  1.4666 -0.7658 -1.1742
  777MOL0     H 4874  -0.915  10.539   8.734  0.2282 -1.8501  2.6838
  777MOL0     H 4875   0.228  10.228   8.733 -1.3094  0.5931  0.3851
  777MOL0     H 4876   0.442  10.293   8.642  1.0089 -2.0718 -3.7557
  777MOL0     H 4877   0.679  10.489   8.073  0.2448 -1.6057  0.0414
  777MOL0     H 4878   0.903  10.577   8.049 -2.1967  2.2135  0.0075
  777MOL0     H 4879   2.450   9.580   8.465 -0.6443  0.3296  3.5151
  777MOL0     H 4880   2.684   9.535   8.379 -0.4306  2.0428 -2.7526
  777MOL0     H 4881   3.129   9.811   8.486  1.1416  0.4992 -1.0827
  777MOL0     H 4882   3.365   9.797   8.384 -1.0743  0.2654 -2.5736
  777MOL0     H 4883   3.568   9.392   8.320 -1.5087 -1.6662  2.6881
  777MOL0     H 4884   3.567   9.450   8.490  0.0277 -1.9790 -0.2903
  777MOL0     H 4885   3.748   9.528   8.262  0.7911 -2.7196 -0.6237
  777MOL0     H 4886   3.792   9.434   8.397  1.3761  1.7620 -1.0612
  777MOL0     H 4887   3.743   9.647   8.556 -0.6796 -1.2050 -0.0580
  777MOL0     H 4888   3.736   9.735   8.408  0.8035  1.6464  0.6765
  777MOL0     H 4889   3.958   9.630   8.344 -0.2616  1.2900 -0.0498
  777MOL0     H 4890   3.956   9.755   8.467  1.1631 -0.0094  0.6057
  777MOL0     H 4891   4.101   9.492   8.719 -1.8044  1.6524  1.6350
  777MOL0     H 4892   3.350   9.376   8.432 -0.7659 -0.8133  1.4596
  777MOL0     H 4893   3.174   9.266   8.473  1.7050  1.2139  1.9804
  777MOL0     H 4894   3.060   9.336   8.573 -3.0996  1.7201 -0.2145
  777MOL0     H 4895   3.023   9.330   8.390  0.6904 -0.9257  0.3289
  778MOL0     O 4896  10.554  11.533   3.224 -0.0508  0.2511  0.1568
  778MOL0     C 4897  10.554  11.418   3.261  0.4784  0.7773  0.1300
  778MOL0     O 4898  10.665  11.346   3.285  0.0796  0.1802  0.8676
  778MOL0     C 4899  10.789  11.402   3.277  0.1198  1.2342 -0.0346
  778MOL0     C 4900  10.832  11.524   3.331  1.3616  0.0111 -0.1386
  778MOL0     C 4901  10.964  11.568   3.350  0.3228  0.6796 -0.4583
  778MOL0     C 4902  11.072  11.478   3.315 -0.6509  0.1977 -0.4474
  778MOL0     O 4903  11.206  11.485   3.349  0.8700  0.0455 -0.2786
  778MOL0     C 4904  11.251  11.602   3.417  0.3964 -1.0973 -0.4330
  778MOL0     C 4905  11.405  11.595   3.430  0.9649  0.2728  0.5608
  778MOL0     C 4906  11.452  11.724   3.502  0.2666  0.3073 -0.1507
  778MOL0     C 4907  11.609  11.733   3.503 -0.5122  0.9609  0.3908
  778MOL0     C 4908  11.665  11.842   3.602 -0.3206  0.1578  0.4448
  778MOL0     C 4909  11.819  11.854   3.588 -0.1690  0.0966  0.1489
  778MOL0     C 4910  11.880  11.933   3.708  0.7516 -0.1612  1.2145
  778MOL0     C 4911  11.937  11.841   3.819  0.8010 -1.0834  0.4729
  778MOL0     N 4912  11.829  11.796   3.907 -0.7896 -0.4791 -0.8760
  778MOL0     C 4913  11.769  11.886   3.997 -0.2037 -0.0248  0.1431
  778MOL0     C 4914  11.678  11.812   4.063  0.4258 -0.2651  0.2314
  778MOL0     C 4915  11.575  11.863   4.160  0.1254  0.2887 -0.5918
  778MOL0     C 4916  11.465  11.771   4.209 -0.4492  0.8122  0.7123
  778MOL0     C 4917  11.333  11.835   4.248  0.3786  0.6397  0.5752
  778MOL0     C 4918  11.350  11.948   4.348  0.1596 -0.3415 -0.1374
  778MOL0     O 4919  11.420  11.895   4.458 -0.1376  0.0221 -0.5439
  778MOL0     C 4920  11.339  11.847   4.561 -0.1757 -0.1446  0.1169
  778MOL0     C 4921  11.235  11.927   4.626 -0.4088  0.0685  0.4028
  778MOL0     C 4922  11.191  11.879   4.755 -0.0144 -0.5575  0.5640
  778MOL0     C 4923  11.225  11.755   4.797  0.2449  0.0118  0.1445
  778MOL0     C 4924  11.162  11.699   4.914 -0.9443 -0.1740  0.4190
  778MOL0     O 4925  11.142  11.788   5.018  0.0718 -0.3478 -0.8606
  778MOL0     C 4926  11.070  11.744   5.129  0.0454 -0.4568 -0.4057
  778MOL0     C 4927  11.139  11.670   5.227  0.2694  0.6396  0.2316
  778MOL0     C 4928  11.073  11.635   5.345 -0.6192  0.4882 -1.4097
  778MOL0     C 4929  10.954  11.695   5.380 -0.7788  0.3591  0.4217
  778MOL0     O 4930  10.893  11.657   5.496  0.1583  0.2802  0.2414
  778MOL0     C 4931  10.763  11.712   5.514 -0.1876 -0.5608 -1.4264
  778MOL0     C 4932  10.692  11.647   5.627  0.1252 -0.3245  0.1671
  778MOL0     C 4933  10.739  11.703   5.760 -0.4928  0.0951  1.4084
  778MOL0     C 4934  10.627  11.684   5.871 -0.4898  0.3039 -0.5342
  778MOL0     C 4935  10.676  11.714   6.010  0.1927 -0.5680  0.2931
  778MOL0     C 4936  10.581  11.673   6.127 -0.7275  1.0762 -0.0616
  778MOL0     C 4937  10.430  11.700   6.111  0.5918  0.2363  0.1267
  778MOL0     C 4938  10.336  11.686   6.236  0.3011 -1.1951 -0.7009
  778MOL0    Cl 4939  10.405  11.760   6.389  0.5461 -0.0800 -0.0666
  778MOL0     C 4940  10.897  11.785   5.288 -0.3260 -0.1049  1.1776
  778MOL0     C 4941  10.952  11.813   5.167  0.8544  0.4008  0.4634
  778MOL0     O 4942  11.115  11.585   4.903 -0.0742 -0.7383  0.0482
  778MOL0     C 4943  11.310  11.671   4.728 -0.2483 -0.2300  0.2144
  778MOL0     C 4944  11.376  11.723   4.616 -0.0973 -0.3730 -0.0735
  778MOL0     N 4945  11.685  11.688   4.016 -1.0009  0.3811 -0.4668
  778MOL0     N 4946  11.787  11.672   3.931 -0.4050  0.5317  0.1372
  778MOL0     C 4947  11.033  11.359   3.250 -0.7689 -0.0480 -0.1139
  778MOL0     C 4948  10.891  11.319   3.236 -1.3582 -0.3307 -0.4652
  778MOL0     C 4949  10.412  11.352   3.269 -0.8799 -0.1701  0.4838
  778MOL0     C 4950  10.318  11.402   3.179  0.7113  0.4651 -0.6746
  778MOL0     C 4951  10.179  11.362   3.198 -0.3284  0.0091 -0.0646
  778MOL0     C 4952  10.132  11.295   3.321 -0.1418 -0.1571  0.6645
  778MOL0     O 4953  10.001  11.256   3.346  0.3663  0.5672 -0.5297
  778MOL0     C 4954   9.893  11.314   3.270  0.0972  0.7918  0.0076
  778MOL0     C 4955   9.764  11.316   3.356  1.3773  0.2591  0.2761
  778MOL0     C 4956   9.774  11.358   3.502  0.3709 -0.3008  0.3333
  778MOL0     C 4957   9.656  11.316   3.583 -1.2639 -0.8657 -0.0799
  778MOL0     C 4958   9.651  11.387   3.714 -0.5496  0.1088  0.1999
  778MOL0     C 4959   9.650  11.451   3.806  0.4374 -1.6442 -0.4029
  778MOL0     C 4960  10.239  11.243   3.393 -0.2216  0.1503 -0.6607
  778MOL0     C 4961  10.381  11.265   3.378  1.2976 -0.5612 -0.0395
  778MOL0     C 4962  10.473  11.219   3.481  0.4685  0.9133 -0.0273
  778MOL0     H 4963  10.757  11.594   3.366  1.8726  0.9528 -0.9043
  778MOL0     H 4964  10.990  11.659   3.403 -1.0402  0.7722  0.0724
  778MOL0     H 4965  11.228  11.695   3.364  1.9667  0.4885  1.5179
  778MOL0     H 4966  11.192  11.612   3.509  0.4363 -0.5193 -0.4614
  778MOL0     H 4967  11.457  11.588   3.334  3.5485  0.3057  1.8732
  778MOL0     H 4968  11.430  11.519   3.504  1.1711 -1.7913 -1.5108
  778MOL0     H 4969  11.406  11.728   3.601 -0.1039  2.1495 -0.3494
  778MOL0     H 4970  11.409  11.806   3.444 -1.6228 -0.4113  0.1774
  778MOL0     H 4971  11.641  11.631   3.527 -0.2731  0.9087 -0.1469
  778MOL0     H 4972  11.639  11.758   3.401 -1.5498 -2.8735 -1.0313
  778MOL0     H 4973  11.617  11.940   3.598 -0.0151  0.3199  0.6577
  778MOL0     H 4974  11.658  11.800   3.703 -0.9853  1.6566  1.0599
  778MOL0     H 4975  11.861  11.754   3.577  0.4271  0.3894 -0.2821
  778MOL0     H 4976  11.846  11.898   3.492 -2.4430  3.2860  0.7924
  778MOL0     H 4977  11.794  11.992   3.740  1.8604  0.5625  3.0673
  778MOL0     H 4978  11.957  12.004   3.676 -0.3330  0.6236  0.2891
  778MOL0     H 4979  11.975  11.750   3.771 -0.7487 -2.5890  1.9712
  778MOL0     H 4980  12.006  11.902   3.878  2.5280 -0.7494 -1.7667
  778MOL0     H 4981  11.782  11.994   4.000  0.9188 -0.1822  2.2969
  778MOL0     H 4982  11.623  11.908   4.248 -0.4280 -0.1038 -0.0800
  778MOL0     H 4983  11.530  11.952   4.115 -2.6151  0.1655  1.6622
  778MOL0     H 4984  11.446  11.699   4.129  3.3845  1.2665 -0.7778
  778MOL0     H 4985  11.504  11.704   4.286 -2.5034 -0.9079  0.3548
  778MOL0     H 4986  11.269  11.755   4.287  1.6735 -0.9123 -0.3810
  778MOL0     H 4987  11.283  11.876   4.160  2.5406 -1.4444 -1.8040
  778MOL0     H 4988  11.254  11.989   4.380  0.1425 -1.3497  1.2168
  778MOL0     H 4989  11.415  12.027   4.310 -0.1426 -0.2941 -0.5540
  778MOL0     H 4990  11.189  12.017   4.588  0.5034  1.0544  1.5201
  778MOL0     H 4991  11.130  11.931   4.828  0.0638 -2.5016  2.0911
  778MOL0     H 4992  11.242  11.642   5.204 -0.0675 -0.1807 -0.3466
  778MOL0     H 4993  11.120  11.578   5.425  1.9069  1.6055 -1.9748
  778MOL0     H 4994  10.769  11.819   5.535 -0.8119 -0.4176 -1.9344
  778MOL0     H 4995  10.703  11.702   5.423  1.1007 -1.5206 -2.2023
  778MOL0     H 4996  10.586  11.672   5.617  0.3718  0.0588 -1.8836
  778MOL0     H 4997  10.721  11.543   5.612 -2.3370 -0.6722 -3.4787
  778MOL0     H 4998  10.822  11.640   5.793 -0.1583 -0.3993 -0.2912
  778MOL0     H 4999  10.775  11.806   5.758 -0.4418  0.0763  1.3412
  778MOL0     H 5000  10.598  11.578   5.869  0.9037 -0.2449  2.8226
  778MOL0     H 5001  10.545  11.753   5.849 -0.4800  0.5237  0.1221
  778MOL0     H 5002  10.675  11.823   6.013  0.3903 -0.5826  1.6771
  778MOL0     H 5003  10.779  11.679   6.022  0.1609 -0.7403  0.0831
  778MOL0     H 5004  10.601  11.566   6.127  0.7375  1.3290 -0.1115
  778MOL0     H 5005  10.615  11.719   6.221  1.8934 -0.5177 -0.1126
  778MOL0     H 5006  10.395  11.632   6.033 -0.9636  1.9818 -0.7752
  778MOL0     H 5007  10.431  11.806   6.083  2.1434  0.4396  0.8559
  778MOL0     H 5008  10.237  11.730   6.219  1.6228  2.5774  0.3223
  778MOL0     H 5009  10.302  11.586   6.262 -0.5223 -0.1852  2.6680
  778MOL0     H 5010  10.807  11.840   5.312 -0.9860 -1.2699  1.4601
  778MOL0     H 5011  10.904  11.864   5.084  0.5011 -3.4102 -1.9148
  778MOL0     H 5012  11.344  11.575   4.766 -2.1024 -1.5465 -1.2404
  778MOL0     H 5013  11.460  11.677   4.565  1.3433  3.6239 -1.7781
  778MOL0     H 5014  11.116  11.301   3.210  0.6448  3.1288 -2.2028
  778MOL0     H 5015  10.876  11.220   3.196  0.0835 -0.1125 -1.6753
  778MOL0     H 5016  10.340  11.478   3.104  1.0680  1.2118  0.1749
  778MOL0     H 5017  10.114  11.410   3.125  0.4258  2.1595  0.6002
  778MOL0     H 5018   9.878  11.255   3.179  2.1658  0.8394 -0.4193
  778MOL0     H 5019   9.910  11.417   3.239 -2.0327  1.2742  0.2878
  778MOL0     H 5020   9.709  11.224   3.338  0.6668  0.9902 -1.5862
  778MOL0     H 5021   9.691  11.387   3.316  1.1997 -0.2489 -0.3065
  778MOL0     H 5022   9.783  11.466   3.512  1.0654 -0.4584  1.5895
  778MOL0     H 5023   9.853  11.303   3.554  2.2576  0.2807 -1.7546
  778MOL0     H 5024   9.563  11.330   3.527  0.0629  4.3529 -1.4358
  778MOL0     H 5025   9.674  11.211   3.611  1.9992 -0.0531  1.3059
  778MOL0     H 5026   9.650  11.516   3.891 -0.3601 -1.8564 -0.2283
  778MOL0     H 5027  10.212  11.194   3.487  1.0540 -0.5665 -0.6513
  778MOL0     H 5028  10.425  11.155   3.556  2.7307 -0.0048  0.7178
  778MOL0     H 5029  10.554  11.158   3.439  1.1909 -0.1843  2.7663
  778MOL0     H 5030  10.517  11.307   3.528 -0.5678 -0.1211  3.1070
  779MOL0     O 5031   3.671   2.886   8.843 -0.0665 -0.1288  0.5744
  779MOL0     C 5032   3.712   2.949   8.743 -0.5035  0.7461  0.2922
  779MOL0     O 5033   3.698   2.899   8.612 -0.1423 -0.0926  0.5624
  779MOL0     C 5034   3.651   2.772   8.578  0.5690 -0.3836  0.2104
  779MOL0     C 5035   3.708   2.710   8.470 -0.1372  0.0245  0.1335
  779MOL0     C 5036   3.672   2.587   8.431 -0.3988  1.2330  0.3994
  779MOL0     C 5037   3.564   2.520   8.489 -0.4773 -0.2805 -0.5835
  779MOL0     O 5038   3.524   2.400   8.435 -0.5672  0.2232 -0.4493
  779MOL0     C 5039   3.531   2.293   8.531 -1.7810 -0.8481 -0.8170
  779MOL0     C 5040   3.431   2.188   8.501  0.2713  0.8222 -0.1705
  779MOL0     C 5041   3.495   2.049   8.472 -0.7499 -0.8160  0.3859
  779MOL0     C 5042   3.390   1.946   8.439  0.1042 -0.1546  0.0010
  779MOL0     C 5043   3.318   1.892   8.569  0.1249 -0.0128 -0.4329
  779MOL0     C 5044   3.174   1.844   8.542  0.7360 -0.2306 -0.5140
  779MOL0     C 5045   3.134   1.744   8.657  0.3809  0.4624 -0.9650
  779MOL0     C 5046   2.988   1.703   8.658  0.6418  0.2208 -0.6765
  779MOL0     N 5047   2.969   1.575   8.729  0.3867  0.3473  0.3783
  779MOL0     C 5048   2.944   1.449   8.678  0.1897  0.0700 -0.1045
  779MOL0     C 5049   2.914   1.368   8.784  0.0097  0.1726 -0.7441
  779MOL0     C 5050   2.879   1.224   8.776  0.8024  0.0735 -0.4611
  779MOL0     C 5051   2.782   1.190   8.889 -1.7633 -0.1211 -0.2084
  779MOL0     C 5052   2.853   1.153   9.026  0.5940 -0.2276  0.7903
  779MOL0     C 5053   2.738   1.179   9.133 -0.1410  0.6893 -0.1578
  779MOL0     O 5054   2.699   1.315   9.161  0.1289 -0.0832  0.0621
  779MOL0     C 5055   2.649   1.326   9.290  0.2293 -0.7768  0.1249
  779MOL0     C 5056   2.643   1.457   9.336  0.5717  0.0664 -0.1110
  779MOL0     C 5057   2.583   1.498   9.450 -0.2046 -0.0758  0.0681
  779MOL0     C 5058   2.510   1.400   9.528  0.1290 -0.8851  0.3831
  779MOL0     C 5059   2.441   1.442   9.654 -0.1704 -0.0633  0.1343
  779MOL0     O 5060   2.409   1.571   9.665  0.8947  0.4714  0.7156
  779MOL0     C 5061   2.341   1.602   9.781 -0.5246  0.3240 -0.8093
  779MOL0     C 5062   2.228   1.533   9.826  0.3295 -0.3629  0.7999
  779MOL0     C 5063   2.157   1.569   9.934  0.3135  0.3740 -0.3176
  779MOL0     C 5064   2.221   1.673  10.015  0.1082  0.2762 -0.2072
  779MOL0     O 5065   2.179   1.717  10.134  0.0259  0.6551  0.6609
  779MOL0     C 5066   2.092   1.629  10.204 -1.1457 -0.4056 -0.1928
  779MOL0     C 5067   2.068   1.672  10.349 -0.7295 -0.4087 -0.7335
  779MOL0     C 5068   1.970   1.570  10.422  0.3991  0.4054 -0.5613
  779MOL0     C 5069   1.969   1.624  10.562  0.3658 -0.2746 -0.0244
  779MOL0     C 5070   1.881   1.527  10.655 -0.5844 -0.4795 -0.2228
  779MOL0     C 5071   1.729   1.521  10.632 -0.4399  0.6802  0.7002
  779MOL0     C 5072   1.648   1.650  10.652 -0.0446 -0.6888 -0.6555
  779MOL0     C 5073   1.496   1.627  10.620 -0.0866 -0.1295 -0.1326
  779MOL0    Cl 5074   1.456   1.620  10.438 -0.0381  0.1786  0.3080
  779MOL0     C 5075   2.320   1.746   9.968 -0.1086 -0.4910 -0.2714
  779MOL0     C 5076   2.374   1.715   9.852 -0.1670 -0.6740 -0.3601
  779MOL0     O 5077   2.424   1.359   9.738 -0.3797  0.2088  0.1591
  779MOL0     C 5078   2.509   1.270   9.493 -0.3208  0.6638 -0.9664
  779MOL0     C 5079   2.584   1.230   9.376 -0.2532 -1.2523  0.1452
  779MOL0     N 5080   2.941   1.444   8.890  0.3228  0.4999  0.5923
  779MOL0     N 5081   2.975   1.562   8.865 -1.1012  0.5108 -0.0895
  779MOL0     C 5082   3.492   2.578   8.599  0.3292 -1.3316 -0.4324
  779MOL0     C 5083   3.542   2.704   8.644  0.7050 -0.0589 -0.1127
  779MOL0     C 5084   3.774   3.086   8.756 -0.1258  0.1535  0.6041
  779MOL0     C 5085   3.834   3.141   8.644 -0.0419 -0.0827 -0.4606
  779MOL0     C 5086   3.885   3.268   8.638 -0.1316  0.2645 -0.1237
  779MOL0     C 5087   3.883   3.342   8.751 -0.0062 -0.0541  0.3869
  779MOL0     O 5088   3.934   3.464   8.752 -0.8159  0.4710  0.6309
  779MOL0     C 5089   3.936   3.554   8.855 -0.5493 -0.3897  0.2678
  779MOL0     C 5090   4.039   3.525   8.966  0.1453  0.6467  0.2880
  779MOL0     C 5091   4.041   3.640   9.077 -0.1714  0.2239 -0.0531
  779MOL0     C 5092   3.931   3.617   9.180 -0.4498 -0.0746  0.2331
  779MOL0     C 5093   3.981   3.559   9.302 -0.3529 -0.4487  0.2428
  779MOL0     C 5094   4.024   3.511   9.410 -0.5522 -0.6387 -0.3803
  779MOL0     C 5095   3.800   3.298   8.858  0.5307 -0.1847  0.4949
  779MOL0     C 5096   3.762   3.164   8.870 -0.1151 -0.7220 -0.2160
  779MOL0     C 5097   3.715   3.115   9.000 -0.9871 -0.3793 -0.1481
  779MOL0     H 5098   3.799   2.754   8.430  0.3479 -1.5424 -0.5347
  779MOL0     H 5099   3.727   2.537   8.351  1.0621  1.2006  1.3963
  779MOL0     H 5100   3.631   2.250   8.527 -2.1305 -1.6094 -1.9496
  779MOL0     H 5101   3.521   2.326   8.635  3.3832  0.2954 -0.4208
  779MOL0     H 5102   3.369   2.224   8.419  0.6435  3.0085  0.4305
  779MOL0     H 5103   3.369   2.175   8.590  1.0674  0.2000  0.3090
  779MOL0     H 5104   3.541   2.015   8.565 -2.2024 -1.0818  1.0477
  779MOL0     H 5105   3.571   2.061   8.395 -0.5979  1.4616  0.8293
  779MOL0     H 5106   3.319   1.998   8.374 -1.7070  0.3224  2.2462
  779MOL0     H 5107   3.423   1.861   8.379  4.4582 -0.4045  2.2962
  779MOL0     H 5108   3.385   1.814   8.607 -0.2765 -0.5966 -0.8874
  779MOL0     H 5109   3.318   1.967   8.648  3.6284 -1.5569  1.2577
  779MOL0     H 5110   3.104   1.925   8.521 -0.3069 -1.2588 -1.1180
  779MOL0     H 5111   3.174   1.784   8.450 -0.8163  0.5895 -1.0923
  779MOL0     H 5112   3.139   1.791   8.756 -0.3096 -0.4758 -0.4713
  779MOL0     H 5113   3.193   1.652   8.654 -4.0605 -2.7695  0.2475
  779MOL0     H 5114   2.926   1.780   8.706  0.7205 -1.1112  1.7421
  779MOL0     H 5115   2.961   1.681   8.554  0.6281 -4.6470  0.1325
  779MOL0     H 5116   2.937   1.418   8.574 -1.8103 -1.1959  0.3752
  779MOL0     H 5117   2.825   1.198   8.684 -2.2321  0.1370  1.1974
  779MOL0     H 5118   2.970   1.162   8.776 -0.9398 -2.7400  2.2057
  779MOL0     H 5119   2.713   1.272   8.912 -2.2087 -0.6308  0.3393
  779MOL0     H 5120   2.719   1.106   8.857 -1.6006 -0.4703  0.3804
  779MOL0     H 5121   2.938   1.215   9.057  0.5596 -0.0646  0.5572
  779MOL0     H 5122   2.898   1.053   9.020 -1.0813 -1.0774  1.7702
  779MOL0     H 5123   2.789   1.130   9.217  1.7144  1.8882 -0.5245
  779MOL0     H 5124   2.651   1.117   9.112  0.8557 -0.7607 -0.1794
  779MOL0     H 5125   2.691   1.532   9.274 -2.8171  2.1976 -0.4233
  779MOL0     H 5126   2.601   1.595   9.495  1.5507  0.3721 -1.4964
  779MOL0     H 5127   2.205   1.449   9.761  0.7223  0.5124 -0.5243
  779MOL0     H 5128   2.066   1.517   9.964  0.7239  0.5733  1.4072
  779MOL0     H 5129   1.996   1.625  10.153 -2.2423  3.9754  1.0750
  779MOL0     H 5130   2.143   1.533  10.206 -2.2674 -1.1189 -2.3457
  779MOL0     H 5131   2.167   1.672  10.396 -0.9016  2.3304 -0.2073
  779MOL0     H 5132   2.029   1.774  10.345  0.1421 -0.0986 -2.1137
  779MOL0     H 5133   1.868   1.581  10.384  0.5239  1.1809 -0.6985
  779MOL0     H 5134   2.005   1.467  10.415 -2.6350 -0.5831 -3.4101
  779MOL0     H 5135   1.922   1.723  10.569 -0.5502 -0.6438 -0.7162
  779MOL0     H 5136   2.071   1.637  10.600 -0.1256  1.0801  0.9010
  779MOL0     H 5137   1.900   1.548  10.760  0.4304  2.7076 -0.9205
  779MOL0     H 5138   1.912   1.423  10.643 -0.9310 -0.7127  0.8268
  779MOL0     H 5139   1.724   1.493  10.527  1.8979 -0.3354  0.8037
  779MOL0     H 5140   1.687   1.436  10.686 -0.3660 -0.4916 -1.0376
  779MOL0     H 5141   1.668   1.735  10.586 -2.5360 -0.6043 -1.4151
  779MOL0     H 5142   1.650   1.685  10.756 -0.8275 -0.7611 -0.6089
  779MOL0     H 5143   1.460   1.535  10.667  2.7139  0.0743  2.7757
  779MOL0     H 5144   1.440   1.710  10.663 -0.8238 -1.0871  0.8029
  779MOL0     H 5145   2.358   1.833  10.020 -1.3429  0.2778 -0.5974
  779MOL0     H 5146   2.450   1.787   9.822 -2.8205  1.5199 -2.2851
  779MOL0     H 5147   2.467   1.199   9.563 -1.4613 -0.3338 -2.5979
  779MOL0     H 5148   2.584   1.127   9.342 -0.5690 -1.3335  0.3904
  779MOL0     H 5149   3.412   2.522   8.646 -0.3090  0.9370  1.3501
  779MOL0     H 5150   3.493   2.754   8.728 -2.9987 -0.5959 -1.7361
  779MOL0     H 5151   3.851   3.081   8.555  2.4700 -0.4225  0.1707
  779MOL0     H 5152   3.929   3.312   8.549 -0.1815 -2.3363 -1.5202
  779MOL0     H 5153   3.839   3.555   8.906 -0.8834  0.9067 -0.3569
  779MOL0     H 5154   3.947   3.654   8.813 -0.9982 -1.2264 -1.9806
  779MOL0     H 5155   4.136   3.528   8.914  0.3262  2.6656  0.6754
  779MOL0     H 5156   4.029   3.424   9.006 -0.4126 -0.1208 -1.6938
  779MOL0     H 5157   4.026   3.732   9.020 -2.4862 -0.4334 -0.6376
  779MOL0     H 5158   4.138   3.640   9.127 -0.8905  1.2062  1.3913
  779MOL0     H 5159   3.881   3.709   9.209  0.3789  0.5604 -0.3091
  779MOL0     H 5160   3.856   3.545   9.144  0.1426 -0.3972 -0.3753
  779MOL0     H 5161   4.059   3.466   9.501  0.5360  2.9654  1.1968
  779MOL0     H 5162   3.806   3.352   8.952  0.5654 -0.5770  0.7206
  779MOL0     H 5163   3.612   3.081   8.992  0.1649 -4.1511 -1.0654
  779MOL0     H 5164   3.773   3.030   9.037  3.2777  2.9630  1.8022
  779MOL0     H 5165   3.726   3.188   9.081 -1.7113 -0.2593 -0.1560
  780MOL0     O 5166   4.652   7.249   3.184  0.1434  0.8408  0.2469
  780MOL0     C 5167   4.769   7.212   3.192  0.3447  0.0963 -0.0747
  780MOL0     O 5168   4.807   7.088   3.216 -0.0457  0.5026  0.1730
  780MOL0     C 5169   4.736   6.975   3.172 -0.6624  0.8336  0.2649
  780MOL0     C 5170   4.799   6.851   3.172  0.5495 -0.0113 -0.5738
  780MOL0     C 5171   4.735   6.733   3.128 -0.5800 -0.2183  0.1718
  780MOL0     C 5172   4.602   6.743   3.080  0.2839 -0.2818 -0.2486
  780MOL0     O 5173   4.548   6.622   3.040 -0.4417 -0.6276 -0.2036
  780MOL0     C 5174   4.470   6.645   2.922  0.5647  0.5036 -0.5051
  780MOL0     C 5175   4.471   6.510   2.854 -0.0339  0.5319  0.2022
  780MOL0     C 5176   4.611   6.477   2.775  0.8054 -0.1368 -0.1143
  780MOL0     C 5177   4.607   6.514   2.625  0.6893 -0.0019 -0.4626
  780MOL0     C 5178   4.735   6.480   2.551 -0.6298 -0.7275  0.4681
  780MOL0     C 5179   4.713   6.497   2.395 -0.5609 -0.3672 -0.4107
  780MOL0     C 5180   4.835   6.585   2.353  0.3137  0.6182 -0.3582
  780MOL0     C 5181   4.856   6.613   2.206  0.3366 -0.7142 -0.0371
  780MOL0     N 5182   4.916   6.493   2.142 -0.4151  0.0378  0.0156
  780MOL0     C 5183   4.848   6.390   2.085 -1.3180 -0.7252 -0.4978
  780MOL0     C 5184   4.942   6.337   2.008  0.3658  0.7658 -0.0875
  780MOL0     C 5185   4.925   6.226   1.919  0.2087  0.7820  1.0846
  780MOL0     C 5186   4.955   6.254   1.763 -0.3253  0.8215 -0.6220
  780MOL0     C 5187   4.972   6.118   1.694 -0.7492 -0.1670 -0.6024
  780MOL0     C 5188   4.983   6.136   1.546  0.3807 -0.9923 -0.0428
  780MOL0     O 5189   5.083   6.051   1.490 -0.4527 -0.3841 -0.1971
  780MOL0     C 5190   5.067   5.929   1.429 -0.0196 -0.2779 -0.1528
  780MOL0     C 5191   4.956   5.854   1.448  0.5450 -0.0113 -0.3681
  780MOL0     C 5192   4.938   5.736   1.380  0.3257  0.0233  0.2755
  780MOL0     C 5193   5.041   5.681   1.301 -0.1765 -0.2234  0.1728
  780MOL0     C 5194   5.022   5.554   1.233  0.5125 -0.3010 -1.0225
  780MOL0     O 5195   4.933   5.458   1.276  0.2690 -0.4893  0.2508
  780MOL0     C 5196   4.905   5.353   1.185  0.5615 -0.6408 -0.8640
  780MOL0     C 5197   4.865   5.370   1.053  0.1559 -0.3005  0.3485
  780MOL0     C 5198   4.835   5.255   0.976  0.3828 -0.2778  0.3284
  780MOL0     C 5199   4.851   5.123   1.030  0.5099 -0.4276 -0.9074
  780MOL0     O 5200   4.806   5.018   0.955 -0.5343 -0.1535 -0.0293
  780MOL0     C 5201   4.892   4.910   0.956  0.5829 -0.0861 -0.8210
  780MOL0     C 5202   4.881   4.827   0.831 -1.5396 -0.9878  0.8674
  780MOL0     C 5203   4.903   4.683   0.870 -0.4323 -0.3745  0.1746
  780MOL0     C 5204   4.863   4.590   0.753 -0.4390 -0.3651  1.0324
  780MOL0     C 5205   4.882   4.439   0.784 -0.1941  0.0686  0.3003
  780MOL0     C 5206   4.812   4.352   0.681 -0.0791  0.3538 -0.9161
  780MOL0     C 5207   4.840   4.203   0.720  0.2721  0.3081  0.6030
  780MOL0     C 5208   4.749   4.099   0.641 -0.5384 -0.2642 -0.6817
  780MOL0    Cl 5209   4.578   4.129   0.689  0.0424  0.1433 -0.1276
  780MOL0     C 5210   4.884   5.106   1.170  0.4567 -0.2776  0.1551
  780MOL0     C 5211   4.895   5.224   1.242 -1.2151  1.1100  0.5571
  780MOL0     O 5212   5.095   5.533   1.139  0.1960  0.2205 -0.3038
  780MOL0     C 5213   5.158   5.770   1.277 -0.2749 -0.3968 -0.2311
  780MOL0     C 5214   5.170   5.884   1.351  0.7490 -0.5944  0.3338
  780MOL0     N 5215   5.054   6.411   2.013 -0.7617 -0.5680 -0.6469
  780MOL0     N 5216   5.039   6.502   2.090  0.0117  0.1435  0.3769
  780MOL0     C 5217   4.539   6.862   3.069 -0.0081  0.8460 -0.4705
  780MOL0     C 5218   4.602   6.976   3.116 -0.2463  0.3768 -0.0929
  780MOL0     C 5219   4.866   7.315   3.205  0.5349 -0.0296 -0.6608
  780MOL0     C 5220   4.964   7.288   3.300 -0.2933  0.1559 -0.1136
  780MOL0     C 5221   5.047   7.393   3.336 -1.1187  0.5504  0.3825
  780MOL0     C 5222   5.069   7.504   3.257 -0.3462 -0.0705 -0.4599
  780MOL0     O 5223   5.154   7.606   3.296 -1.0537 -0.4036 -0.2866
  780MOL0     C 5224   5.140   7.631   3.438  0.9700  0.2811  0.1156
  780MOL0     C 5225   5.203   7.765   3.467  0.2493 -0.1664  0.8663
  780MOL0     C 5226   5.348   7.783   3.415  0.1521 -0.3027  0.5623
  780MOL0     C 5227   5.453   7.689   3.494  0.4345 -0.4799 -0.6272
  780MOL0     C 5228   5.474   7.744   3.631  0.3559  0.2159  0.2697
  780MOL0     C 5229   5.495   7.786   3.747 -0.0026 -0.5921 -1.0033
  780MOL0     C 5230   4.981   7.531   3.154  1.0152 -0.2253 -0.1579
  780MOL0     C 5231   4.871   7.438   3.137 -0.1304 -0.8356  0.3658
  780MOL0     C 5232   4.789   7.484   3.016 -0.2647  0.8561 -0.4294
  780MOL0     H 5233   4.901   6.844   3.210 -0.8499 -0.5409  3.6389
  780MOL0     H 5234   4.784   6.637   3.130 -0.4005 -0.1181  1.3537
  780MOL0     H 5235   4.373   6.686   2.951  0.1544  0.3543 -1.6192
  780MOL0     H 5236   4.512   6.728   2.865 -1.8825  1.9200 -0.4119
  780MOL0     H 5237   4.385   6.501   2.787  0.3138  1.6330 -0.4206
  780MOL0     H 5238   4.449   6.433   2.929 -1.3203 -1.0233 -1.6757
  780MOL0     H 5239   4.627   6.370   2.791  1.0835 -0.0405  0.2686
  780MOL0     H 5240   4.694   6.533   2.821 -0.5686  1.2175  0.8494
  780MOL0     H 5241   4.530   6.448   2.583  0.7277  0.1055 -0.7066
  780MOL0     H 5242   4.586   6.621   2.616 -1.9656 -0.3141  1.1201
  780MOL0     H 5243   4.804   6.547   2.601 -0.9947  0.2416 -0.2996
  780MOL0     H 5244   4.755   6.374   2.570 -0.5744 -0.8474 -0.2147
  780MOL0     H 5245   4.703   6.404   2.338 -5.2657 -0.3257 -0.0121
  780MOL0     H 5246   4.624   6.557   2.373 -0.0605  1.0034  1.0873
  780MOL0     H 5247   4.932   6.554   2.394  1.0581  2.6237 -0.5000
  780MOL0     H 5248   4.823   6.678   2.409  1.9340  0.5229  0.1949
  780MOL0     H 5249   4.762   6.650   2.166  0.3043 -1.5425 -0.7660
  780MOL0     H 5250   4.929   6.695   2.203 -0.8237  0.3938  0.9822
  780MOL0     H 5251   4.748   6.353   2.107 -0.9610 -0.9315  0.8113
  780MOL0     H 5252   4.981   6.138   1.951 -2.5399 -0.6946  2.1543
  780MOL0     H 5253   4.821   6.193   1.934 -0.3286  2.4733  1.3520
  780MOL0     H 5254   4.873   6.315   1.724 -1.3534 -0.6285 -0.8085
  780MOL0     H 5255   5.053   6.301   1.749  1.1562 -1.8315  0.1366
  780MOL0     H 5256   4.882   6.056   1.700 -0.9267  0.1137 -0.3042
  780MOL0     H 5257   5.057   6.056   1.723 -0.9394 -0.4478 -0.6381
  780MOL0     H 5258   5.007   6.238   1.513 -0.4177 -0.4055  1.1190
  780MOL0     H 5259   4.885   6.118   1.500 -0.3378  0.7522  0.7332
  780MOL0     H 5260   4.864   5.876   1.501 -0.7784 -3.9148 -0.7148
  780MOL0     H 5261   4.839   5.694   1.391 -0.9016  3.1788  2.6277
  780MOL0     H 5262   4.860   5.471   1.013 -1.7449  0.6065  2.5969
  780MOL0     H 5263   4.802   5.277   0.875 -1.3145  1.3193  1.1837
  780MOL0     H 5264   4.995   4.938   0.979  0.4560 -0.8301  0.7784
  780MOL0     H 5265   4.858   4.850   1.041  0.4768 -1.0003 -1.4916
  780MOL0     H 5266   4.795   4.828   0.764  0.5136  0.4235 -1.9335
  780MOL0     H 5267   4.963   4.848   0.762 -1.5756  2.4286  1.6458
  780MOL0     H 5268   5.006   4.664   0.898  0.3428  1.0151 -1.5346
  780MOL0     H 5269   4.838   4.644   0.949  2.4056 -0.2504  2.7618
  780MOL0     H 5270   4.923   4.617   0.665  0.5151  0.9971  2.0546
  780MOL0     H 5271   4.757   4.613   0.740  0.0961  1.8145  0.0076
  780MOL0     H 5272   4.851   4.410   0.885  0.7318  0.9851  0.8700
  780MOL0     H 5273   4.989   4.420   0.769 -0.1235  0.7655 -0.1115
  780MOL0     H 5274   4.704   4.371   0.682 -0.0907  0.3158 -1.4160
  780MOL0     H 5275   4.853   4.377   0.583 -0.7747 -0.1323 -1.3377
  780MOL0     H 5276   4.813   4.187   0.825 -3.6247 -0.3207 -0.3664
  780MOL0     H 5277   4.947   4.194   0.697  0.2729  3.1110 -1.0174
  780MOL0     H 5278   4.781   4.108   0.537  0.4619  1.5374 -0.2529
  780MOL0     H 5279   4.774   3.996   0.667  2.9451 -0.0444 -2.5413
  780MOL0     H 5280   4.881   5.007   1.215  1.2845 -2.1447 -3.4551
  780MOL0     H 5281   4.910   5.222   1.349  0.2930  0.1941  0.3600
  780MOL0     H 5282   5.241   5.738   1.215  1.3376  3.3162 -0.2454
  780MOL0     H 5283   5.261   5.942   1.361 -0.5771  1.4378  1.4447
  780MOL0     H 5284   4.435   6.863   3.038  0.0301 -2.1455 -0.9683
  780MOL0     H 5285   4.541   7.065   3.106  0.3336  0.8958  0.8754
  780MOL0     H 5286   4.937   7.204   3.363 -2.1675  0.4288 -0.5174
  780MOL0     H 5287   5.127   7.379   3.408  1.3396 -0.6464 -2.3597
  780MOL0     H 5288   5.189   7.553   3.496 -0.9590 -3.6424 -2.9867
  780MOL0     H 5289   5.033   7.631   3.460  1.2769 -1.2678  1.8351
  780MOL0     H 5290   5.201   7.798   3.571 -0.1956  2.8839 -0.0137
  780MOL0     H 5291   5.146   7.837   3.408  3.8782  1.5066 -0.9656
  780MOL0     H 5292   5.382   7.885   3.432  2.9068 -1.2547  1.2907
  780MOL0     H 5293   5.356   7.772   3.307  2.5250  2.9752  0.2750
  780MOL0     H 5294   5.419   7.585   3.487  3.9777 -1.6723 -3.2560
  780MOL0     H 5295   5.557   7.684   3.459  0.7984  1.2278  0.1164
  780MOL0     H 5296   5.526   7.810   3.846 -1.7297 -0.7263 -0.3950
  780MOL0     H 5297   4.989   7.624   3.098  0.1762 -0.6733 -1.0505
  780MOL0     H 5298   4.683   7.495   3.038  0.6549  3.4538  3.9841
  780MOL0     H 5299   4.823   7.582   2.981  1.8553  0.5995  0.7085
  780MOL0     H 5300   4.805   7.416   2.932 -0.1872 -0.3835  0.5504
  781MOL0     O 5301   2.147   1.031   5.015  0.5096 -0.0314 -0.9938
  781MOL0     C 5302   2.126   1.000   4.899 -0.3703 -0.4199  0.5326
  781MOL0     O 5303   2.053   1.083   4.807  0.5581 -0.5687  0.3876
  781MOL0     C 5304   1.948   1.162   4.858 -0.3348  0.3676 -0.3492
  781MOL0     C 5305   1.920   1.279   4.784  0.4243  0.0634  0.6597
  781MOL0     C 5306   1.809   1.362   4.820 -0.0599  0.7972  0.5746
  781MOL0     C 5307   1.740   1.338   4.946 -1.1656  0.2495  0.1990
  781MOL0     O 5308   1.639   1.410   5.006 -0.0590 -0.6906 -0.2604
  781MOL0     C 5309   1.622   1.536   4.939  0.0904 -0.4595  1.0895
  781MOL0     C 5310   1.527   1.610   5.025  0.5263  0.3597 -1.3498
  781MOL0     C 5311   1.389   1.544   5.038 -0.0091  0.1350  0.6454
  781MOL0     C 5312   1.338   1.515   5.178  0.2234  0.3443 -0.4989
  781MOL0     C 5313   1.203   1.440   5.161  0.3039  0.4359 -0.6751
  781MOL0     C 5314   1.123   1.457   5.289  0.9528 -0.1576  0.8307
  781MOL0     C 5315   1.182   1.390   5.420  1.4487 -0.9360 -0.6664
  781MOL0     C 5316   1.075   1.404   5.531 -0.0599 -0.0460 -0.5384
  781MOL0     N 5317   1.128   1.349   5.652  0.8798  0.2788  0.1840
  781MOL0     C 5318   1.198   1.421   5.749 -0.3352  0.3866  0.6683
  781MOL0     C 5319   1.236   1.321   5.830  0.8796  0.6100 -0.6579
  781MOL0     C 5320   1.332   1.341   5.949  0.2817 -0.0427 -0.4330
  781MOL0     C 5321   1.253   1.401   6.084  0.5387 -0.0863  0.2312
  781MOL0     C 5322   1.342   1.474   6.187  0.6120  0.2614 -0.0986
  781MOL0     C 5323   1.430   1.376   6.271 -0.2733  0.0920  0.0949
  781MOL0     O 5324   1.542   1.319   6.198 -0.0323  0.7216 -0.4755
  781MOL0     C 5325   1.626   1.234   6.279 -0.9772 -0.1061 -0.2427
  781MOL0     C 5326   1.747   1.189   6.221 -0.3425  0.2703  0.2468
  781MOL0     C 5327   1.840   1.122   6.290 -0.2586  0.1979 -0.1855
  781MOL0     C 5328   1.816   1.090   6.431  0.6221 -0.2681 -0.8529
  781MOL0     C 5329   1.907   1.006   6.507 -0.2007  0.4467 -0.1381
  781MOL0     O 5330   2.034   1.026   6.481 -0.2604 -0.3667 -0.2109
  781MOL0     C 5331   2.140   1.002   6.560 -0.8269  0.1941 -0.6983
  781MOL0     C 5332   2.127   0.952   6.690  0.1733  0.5324  0.2239
  781MOL0     C 5333   2.247   0.939   6.769  0.2933  0.5057 -1.4076
  781MOL0     C 5334   2.379   0.970   6.722  1.1535 -0.8496 -0.4517
  781MOL0     O 5335   2.484   0.956   6.805 -0.3505  0.6307 -0.6732
  781MOL0     C 5336   2.570   1.073   6.822  1.0546  0.4722 -0.1290
  781MOL0     C 5337   2.674   1.053   6.928 -0.2642  1.0404  0.1897
  781MOL0     C 5338   2.606   1.044   7.063 -0.4393 -0.2338  0.6204
  781MOL0     C 5339   2.714   1.029   7.165 -0.8085  0.6051  0.8268
  781MOL0     C 5340   2.669   0.992   7.302  0.2909 -0.9230 -0.8131
  781MOL0     C 5341   2.794   0.965   7.384  0.3360 -0.1276 -0.5985
  781MOL0     C 5342   2.770   0.950   7.535  0.4038  0.3798 -0.3715
  781MOL0     C 5343   2.747   1.088   7.615 -0.4044 -0.9498 -0.1552
  781MOL0    Cl 5344   2.899   1.185   7.574 -0.3331  0.3936 -0.1480
  781MOL0     C 5345   2.391   1.009   6.590  0.3232  0.1185 -0.7068
  781MOL0     C 5346   2.274   1.020   6.510 -0.0488  0.2519 -0.2110
  781MOL0     O 5347   1.859   0.933   6.599 -0.0129 -0.0025 -0.4008
  781MOL0     C 5348   1.699   1.144   6.489  0.0443 -0.3727 -0.3680
  781MOL0     C 5349   1.601   1.215   6.416 -1.6336  0.3102  0.2271
  781MOL0     N 5350   1.182   1.192   5.779 -0.4128 -0.1917 -0.7244
  781MOL0     N 5351   1.113   1.216   5.680  0.1349  0.0647 -0.2263
  781MOL0     C 5352   1.775   1.216   5.019  0.5854 -0.6522 -0.9162
  781MOL0     C 5353   1.877   1.135   4.973  0.5771  0.4158  0.3976
  781MOL0     C 5354   2.173   0.855   4.860  0.5080 -0.0174  0.7695
  781MOL0     C 5355   2.106   0.801   4.748  0.1538 -0.6815 -0.5612
  781MOL0     C 5356   2.144   0.670   4.710 -0.4034 -0.2103  0.4579
  781MOL0     C 5357   2.250   0.601   4.773 -0.4681  0.2129  0.1445
  781MOL0     O 5358   2.287   0.473   4.741 -0.3751  0.2424 -0.0996
  781MOL0     C 5359   2.244   0.426   4.609  0.0915  0.0133  0.4856
  781MOL0     C 5360   2.313   0.299   4.560  0.7239 -0.3734  0.1852
  781MOL0     C 5361   2.284   0.179   4.650 -0.3443 -0.0483  0.7913
  781MOL0     C 5362   2.348   0.048   4.604 -0.1570 -0.3899  0.2208
  781MOL0     C 5363   2.346  -0.047   4.715 -0.7141 -1.0404  0.0954
  781MOL0     C 5364   2.351  -0.127   4.809 -0.2226 -0.4040 -0.2062
  781MOL0     C 5365   2.322   0.662   4.872  0.2040 -0.0324 -0.9094
  781MOL0     C 5366   2.285   0.788   4.917  0.1900  0.1187 -1.6927
  781MOL0     C 5367   2.361   0.844   5.039  0.4287 -0.6996  0.7985
  781MOL0     H 5368   1.990   1.310   4.707  0.7803  2.5803  1.9011
  781MOL0     H 5369   1.781   1.449   4.761  3.1261  1.2046 -0.5310
  781MOL0     H 5370   1.721   1.582   4.938  1.2846 -2.8848 -0.6486
  781MOL0     H 5371   1.566   1.538   4.845  0.8945 -0.7695  0.5977
  781MOL0     H 5372   1.515   1.715   4.996  1.5873  1.3482  1.4356
  781MOL0     H 5373   1.562   1.616   5.129 -0.6401  1.7113 -1.0005
  781MOL0     H 5374   1.374   1.454   4.978 -0.2699 -0.1281  1.1012
  781MOL0     H 5375   1.311   1.603   4.989 -0.5516 -0.8930  0.2307
  781MOL0     H 5376   1.412   1.450   5.226 -0.3912 -0.2064 -0.2795
  781MOL0     H 5377   1.333   1.600   5.247  0.9721 -1.0365  1.3277
  781MOL0     H 5378   1.152   1.480   5.073  2.1569 -1.7181 -2.9069
  781MOL0     H 5379   1.225   1.335   5.139 -2.3038  0.0781 -1.9822
  781MOL0     H 5380   1.102   1.562   5.310  1.7002  0.2852 -0.5060
  781MOL0     H 5381   1.027   1.411   5.264 -0.0578  0.4472  3.2736
  781MOL0     H 5382   1.278   1.430   5.454  0.3556  0.6921  0.7031
  781MOL0     H 5383   1.191   1.282   5.406  0.0062 -0.8367 -2.9091
  781MOL0     H 5384   1.039   1.507   5.538  1.6134  0.6095 -1.0659
  781MOL0     H 5385   0.981   1.352   5.511 -1.3888  0.8250  2.7429
  781MOL0     H 5386   1.222   1.526   5.749 -1.1449  0.6512 -2.2358
  781MOL0     H 5387   1.380   1.250   5.986 -0.4223  0.5528  2.0952
  781MOL0     H 5388   1.411   1.413   5.927 -0.6054  1.3732  0.8256
  781MOL0     H 5389   1.182   1.476   6.050 -0.7023 -0.7791  1.2272
  781MOL0     H 5390   1.208   1.319   6.140  0.3185 -0.0417  0.1199
  781MOL0     H 5391   1.282   1.541   6.249  1.3987  1.5810 -0.7118
  781MOL0     H 5392   1.419   1.535   6.137  1.8673  0.3589  1.8541
  781MOL0     H 5393   1.362   1.298   6.308 -1.3983  0.8049 -0.4266
  781MOL0     H 5394   1.491   1.418   6.351 -2.1062 -0.9426  2.1620
  781MOL0     H 5395   1.751   1.213   6.115 -3.6150  2.6610  0.5293
  781MOL0     H 5396   1.928   1.086   6.237 -1.1965  0.1374 -1.7451
  781MOL0     H 5397   2.042   0.933   6.754  0.7164 -0.7017  0.6152
  781MOL0     H 5398   2.236   0.902   6.870  0.2701 -2.0368 -2.2718
  781MOL0     H 5399   2.617   1.083   6.724  1.0211  2.6294  0.0350
  781MOL0     H 5400   2.515   1.164   6.847  2.0033  0.9351  0.3423
  781MOL0     H 5401   2.721   0.959   6.897 -0.6439  0.8792  0.0972
  781MOL0     H 5402   2.746   1.133   6.910  2.5035 -1.3660 -0.1460
  781MOL0     H 5403   2.544   1.132   7.078 -0.5972 -0.2222 -0.0338
  781MOL0     H 5404   2.539   0.957   7.067  0.8775 -1.3236 -0.0646
  781MOL0     H 5405   2.758   1.127   7.188 -0.5956  0.6873  0.0767
  781MOL0     H 5406   2.788   0.959   7.126 -1.6503  0.5481 -0.7615
  781MOL0     H 5407   2.602   0.905   7.294 -0.1979 -0.4553 -1.9590
  781MOL0     H 5408   2.609   1.070   7.350 -0.5694 -0.7567 -2.1022
  781MOL0     H 5409   2.843   0.871   7.356 -0.3554 -0.3592 -1.0388
  781MOL0     H 5410   2.873   1.037   7.359 -0.4460  0.5620 -1.1164
  781MOL0     H 5411   2.861   0.907   7.577 -1.0830 -0.8901  1.7506
  781MOL0     H 5412   2.687   0.881   7.552 -1.3677  1.8176 -2.6230
  781MOL0     H 5413   2.652   1.126   7.578 -0.4376  0.3333  1.1678
  781MOL0     H 5414   2.754   1.073   7.724  4.0382 -2.6538 -0.4460
  781MOL0     H 5415   2.478   1.025   6.528  0.9859 -1.5274 -0.2535
  781MOL0     H 5416   2.284   1.063   6.411  1.6811  1.3073  0.3802
  781MOL0     H 5417   1.668   1.119   6.590 -2.4702 -1.3462 -1.3087
  781MOL0     H 5418   1.517   1.258   6.470 -1.4502 -0.0175  0.7840
  781MOL0     H 5419   1.735   1.206   5.120  2.7178 -0.2852  0.0212
  781MOL0     H 5420   1.886   1.046   5.035 -0.8893 -0.5726 -0.7355
  781MOL0     H 5421   2.021   0.856   4.710 -2.7966 -0.9113  4.6831
  781MOL0     H 5422   2.088   0.611   4.638  3.0130 -3.0551 -0.1906
  781MOL0     H 5423   2.250   0.503   4.532 -2.4255 -0.0735  0.1214
  781MOL0     H 5424   2.137   0.408   4.619 -0.1751  2.0167  2.0131
  781MOL0     H 5425   2.420   0.318   4.569  1.4016 -3.9109  1.0177
  781MOL0     H 5426   2.298   0.277   4.454  0.7661 -0.0407  0.1094
  781MOL0     H 5427   2.178   0.157   4.638 -0.3913 -0.5643  1.9790
  781MOL0     H 5428   2.294   0.209   4.755  2.9164  2.2922  0.0002
  781MOL0     H 5429   2.305   0.004   4.514  2.6023 -1.0580 -0.8665
  781MOL0     H 5430   2.451   0.074   4.582 -0.4597  1.2256  0.5759
  781MOL0     H 5431   2.364  -0.189   4.896  0.2698  1.3632  1.0439
  781MOL0     H 5432   2.400   0.608   4.924  0.3266  0.2171 -0.8309
  781MOL0     H 5433   2.411   0.935   5.003 -0.2105  0.7771  3.4113
  781MOL0     H 5434   2.305   0.865   5.130  2.2710  0.7611  1.6745
  781MOL0     H 5435   2.439   0.775   5.073 -0.8267 -3.1096 -0.9110
  782MOL0     O 5436   7.103   2.913   7.991  0.1061 -0.6868 -0.6492
  782MOL0     C 5437   7.146   3.020   8.027  0.9871  0.5022 -0.6527
  782MOL0     O 5438   7.066   3.132   8.055  0.2976 -0.4485 -0.0925
  782MOL0     C 5439   6.936   3.131   7.999 -0.8990 -0.0472 -0.0240
  782MOL0     C 5440   6.828   3.066   8.055 -0.1931 -0.4112  0.2087
  782MOL0     C 5441   6.708   3.049   7.988  0.4747  0.1675  0.1537
  782MOL0     C 5442   6.693   3.115   7.862  0.7147  0.5889  0.4568
  782MOL0     O 5443   6.571   3.098   7.802 -0.3575  0.8875 -0.3673
  782MOL0     C 5444   6.519   3.228   7.754 -0.2684 -0.5747  0.4433
  782MOL0     C 5445   6.377   3.206   7.698  0.1470  0.9009 -0.2614
  782MOL0     C 5446   6.361   3.091   7.599 -0.0173  0.1049 -0.0453
  782MOL0     C 5447   6.282   3.131   7.482 -0.0336 -0.9703  0.8770
  782MOL0     C 5448   6.239   3.029   7.377 -0.0257  0.7518  0.3086
  782MOL0     C 5449   6.135   2.925   7.421  0.3244  0.5295 -0.1051
  782MOL0     C 5450   6.069   2.823   7.327 -0.7273 -1.0263  0.3967
  782MOL0     C 5451   6.019   2.880   7.183 -0.1228  0.0034 -0.0743
  782MOL0     N 5452   5.960   2.771   7.106 -0.2425 -0.1022  0.0708
  782MOL0     C 5453   5.944   2.778   6.967 -0.3836  0.6046  0.8082
  782MOL0     C 5454   5.877   2.666   6.932  0.3639 -0.2820  0.6066
  782MOL0     C 5455   5.857   2.607   6.795  0.1324 -0.3522  0.0472
  782MOL0     C 5456   5.931   2.478   6.795  0.3916 -0.0840  0.2738
  782MOL0     C 5457   5.910   2.388   6.673  0.3615 -0.1126  0.1492
  782MOL0     C 5458   5.926   2.241   6.691  0.5728  0.4102  0.0797
  782MOL0     O 5459   5.887   2.168   6.575 -0.3143 -0.5933 -0.4602
  782MOL0     C 5460   5.984   2.076   6.530  0.2169  0.5726 -0.1906
  782MOL0     C 5461   6.039   1.982   6.616 -0.0999  0.0495 -0.2087
  782MOL0     C 5462   6.131   1.888   6.560  0.1942 -0.2897  1.0353
  782MOL0     C 5463   6.163   1.888   6.421  0.0821 -0.4043 -0.5352
  782MOL0     C 5464   6.254   1.791   6.365 -0.5504 -0.2873  0.2246
  782MOL0     O 5465   6.333   1.716   6.451  0.6711  0.5293 -0.1512
  782MOL0     C 5466   6.451   1.673   6.385  0.2705  0.6743 -0.6484
  782MOL0     C 5467   6.555   1.768   6.335 -0.4248 -0.1268  0.3196
  782MOL0     C 5468   6.656   1.722   6.243  0.4468 -1.2024 -0.5932
  782MOL0     C 5469   6.662   1.585   6.215  0.6025 -0.3612  1.4086
  782MOL0     O 5470   6.747   1.544   6.114 -0.2775  0.2970  0.3600
  782MOL0     C 5471   6.827   1.426   6.135 -0.6940  0.1055  0.8746
  782MOL0     C 5472   6.899   1.375   6.015 -0.1212 -0.0591  0.5904
  782MOL0     C 5473   6.944   1.233   6.038  0.5999  0.5582 -0.3505
  782MOL0     C 5474   7.009   1.197   5.906 -0.2931 -0.9944  1.2896
  782MOL0     C 5475   7.141   1.132   5.921 -0.9198 -0.1891 -0.1457
  782MOL0     C 5476   7.247   1.231   5.972  0.2027  0.4953 -0.7350
  782MOL0     C 5477   7.383   1.165   5.961 -0.1586  0.0750 -0.1114
  782MOL0     C 5478   7.475   1.243   6.049  0.0099  0.9335 -0.1234
  782MOL0    Cl 5479   7.632   1.158   6.028  0.4966  0.1304  0.4035
  782MOL0     C 5480   6.568   1.494   6.273 -1.0261 -0.4831  0.5323
  782MOL0     C 5481   6.469   1.539   6.353  0.4778 -0.1652 -0.1935
  782MOL0     O 5482   6.266   1.792   6.240 -0.3102 -0.2680  0.2791
  782MOL0     C 5483   6.096   1.981   6.336 -0.2167  0.5115  0.3099
  782MOL0     C 5484   6.016   2.082   6.393  0.2994  0.7911  0.0558
  782MOL0     N 5485   5.843   2.607   7.053  0.5250 -0.2271 -0.1045
  782MOL0     N 5486   5.894   2.667   7.161  0.3120 -0.1280 -0.0171
  782MOL0     C 5487   6.795   3.194   7.812 -0.2434 -0.5796  0.6489
  782MOL0     C 5488   6.915   3.203   7.880 -0.3890 -0.7574 -0.4927
  782MOL0     C 5489   7.290   3.029   8.052 -0.1921  0.4661  0.3013
  782MOL0     C 5490   7.344   3.163   8.072  0.0066  0.0534  0.0701
  782MOL0     C 5491   7.475   3.191   8.112  0.5152  0.2913 -0.1822
  782MOL0     C 5492   7.567   3.084   8.120  0.2415  0.7349  1.1294
  782MOL0     O 5493   7.702   3.101   8.143  0.7977  0.3714 -0.5302
  782MOL0     C 5494   7.779   3.169   8.043  0.6302 -0.8667 -0.2230
  782MOL0     C 5495   7.915   3.178   8.101 -0.0128  0.2754 -0.1093
  782MOL0     C 5496   8.000   3.042   8.069 -0.5092 -0.8047 -0.4694
  782MOL0     C 5497   8.061   3.066   7.931  0.4020 -0.5561  0.2946
  782MOL0     C 5498   8.132   2.957   7.872 -0.6665 -1.1199  0.4026
  782MOL0     C 5499   8.204   2.867   7.829  0.3522  1.0585 -0.1164
  782MOL0     C 5500   7.521   2.955   8.076 -0.2488 -1.0121  0.4236
  782MOL0     C 5501   7.387   2.924   8.045 -0.1498 -0.7328 -0.6909
  782MOL0     C 5502   7.358   2.780   8.007 -0.0108 -0.4183 -0.6888
  782MOL0     H 5503   6.842   3.014   8.149  0.3196  2.2652  1.7249
  782MOL0     H 5504   6.625   2.988   8.022  0.6502  0.2937  0.8202
  782MOL0     H 5505   6.512   3.308   7.828  0.7726 -0.6971  0.6895
  782MOL0     H 5506   6.583   3.268   7.675  2.2689  2.6459  3.7541
  782MOL0     H 5507   6.353   3.302   7.653  0.9236 -0.6141 -4.2991
  782MOL0     H 5508   6.323   3.174   7.789 -2.9485 -3.6050 -3.2378
  782MOL0     H 5509   6.301   3.012   7.646  2.5903 -2.4070 -0.6553
  782MOL0     H 5510   6.456   3.042   7.579 -0.4781 -0.3172 -1.3122
  782MOL0     H 5511   6.196   3.188   7.518  0.4006  1.9275 -2.2070
  782MOL0     H 5512   6.343   3.205   7.429 -0.5331 -2.5875 -2.1799
  782MOL0     H 5513   6.207   3.078   7.284  1.6614 -0.8623 -1.1881
  782MOL0     H 5514   6.336   2.988   7.350 -0.8875 -3.2907  2.4860
  782MOL0     H 5515   6.184   2.870   7.501  0.5586 -0.7781 -1.1056
  782MOL0     H 5516   6.052   2.982   7.465  0.5976  1.0504 -0.2509
  782MOL0     H 5517   5.983   2.779   7.377 -0.8768 -0.5178  0.5908
  782MOL0     H 5518   6.143   2.744   7.308 -0.0073 -0.2957  0.0774
  782MOL0     H 5519   5.933   2.945   7.202 -1.2224 -0.5718 -2.7079
  782MOL0     H 5520   6.099   2.930   7.129 -0.0244  1.2489  1.1709
  782MOL0     H 5521   5.980   2.844   6.889 -0.0470  0.3898  0.7814
  782MOL0     H 5522   5.752   2.593   6.768  0.5180 -3.2407 -0.3287
  782MOL0     H 5523   5.894   2.675   6.718 -0.4434  0.9737  0.9076
  782MOL0     H 5524   6.040   2.484   6.804  0.3042  0.2978  1.2819
  782MOL0     H 5525   5.896   2.414   6.877 -3.7560 -0.3178 -1.4189
  782MOL0     H 5526   5.985   2.422   6.600 -1.2339  0.3787 -1.3160
  782MOL0     H 5527   5.817   2.413   6.622  1.4170  2.8942 -0.5081
  782MOL0     H 5528   5.851   2.201   6.760 -1.0062 -0.0946 -1.8305
  782MOL0     H 5529   6.026   2.217   6.728  0.2682  2.3363  2.4467
  782MOL0     H 5530   6.007   1.979   6.719 -3.1965 -0.0999 -1.0704
  782MOL0     H 5531   6.170   1.809   6.625  4.0465  0.3861 -0.2084
  782MOL0     H 5532   6.560   1.874   6.357  1.8666 -0.4919  1.8779
  782MOL0     H 5533   6.723   1.798   6.203  0.3566 -0.8330 -0.0549
  782MOL0     H 5534   6.905   1.439   6.210  0.5890 -0.0582 -0.3845
  782MOL0     H 5535   6.764   1.341   6.161 -1.0487 -1.0702 -3.1720
  782MOL0     H 5536   6.829   1.379   5.932  0.9694 -1.5186 -0.4405
  782MOL0     H 5537   6.984   1.439   5.988  2.8851 -4.1636 -0.8149
  782MOL0     H 5538   7.009   1.211   6.124 -0.4651  0.2931  0.4123
  782MOL0     H 5539   6.852   1.174   6.042  0.7285  0.3582 -0.3256
  782MOL0     H 5540   6.998   1.278   5.834  2.2363 -1.8804 -0.2160
  782MOL0     H 5541   6.955   1.117   5.856 -2.0397  1.0324 -0.2343
  782MOL0     H 5542   7.169   1.098   5.820  2.1071  0.5787  0.3367
  782MOL0     H 5543   7.136   1.044   5.986 -1.6863 -0.0298  0.0115
  782MOL0     H 5544   7.236   1.330   5.928 -2.0464  1.4333  1.6863
  782MOL0     H 5545   7.225   1.242   6.079  0.6757  0.3211 -0.6185
  782MOL0     H 5546   7.428   1.174   5.861 -0.2127  1.3972 -0.0343
  782MOL0     H 5547   7.377   1.059   5.986  1.1849  0.0782  0.2701
  782MOL0     H 5548   7.474   1.349   6.021  3.0626  0.9069 -0.6606
  782MOL0     H 5549   7.444   1.229   6.153  1.5332  0.2747  0.2692
  782MOL0     H 5550   6.573   1.393   6.234 -1.4710  0.4368 -2.1267
  782MOL0     H 5551   6.399   1.470   6.399  0.6854  0.8028  1.6368
  782MOL0     H 5552   6.106   1.985   6.228 -0.1582  0.8036  0.3258
  782MOL0     H 5553   5.959   2.150   6.330  0.0847 -0.2504 -0.9188
  782MOL0     H 5554   6.776   3.244   7.717  1.4169  0.4695  0.8219
  782MOL0     H 5555   7.006   3.237   7.832  0.3836 -2.5931 -0.4009
  782MOL0     H 5556   7.269   3.241   8.068  0.2615  0.3165  0.3597
  782MOL0     H 5557   7.501   3.296   8.118  1.8798 -0.0987  1.5026
  782MOL0     H 5558   7.731   3.267   8.030 -0.2498 -1.4461 -1.4577
  782MOL0     H 5559   7.778   3.114   7.949 -1.3997  2.1930 -2.2066
  782MOL0     H 5560   7.904   3.211   8.205 -0.5775  0.7812 -0.3199
  782MOL0     H 5561   7.957   3.267   8.054 -2.3369  2.4243  1.6145
  782MOL0     H 5562   7.938   2.953   8.088 -0.4572 -0.5047  1.3396
  782MOL0     H 5563   8.084   3.042   8.139 -0.5543  1.1501 -0.3857
  782MOL0     H 5564   7.986   3.103   7.860 -0.1839  2.7844  2.4243
  782MOL0     H 5565   8.131   3.150   7.936  0.6267 -0.7733  0.8747
  782MOL0     H 5566   8.279   2.800   7.792  0.5234  0.2164  1.6180
  782MOL0     H 5567   7.591   2.872   8.086 -1.0687 -1.7528  0.1392
  782MOL0     H 5568   7.323   2.781   7.904 -1.7763 -2.0168 -0.1611
  782MOL0     H 5569   7.453   2.726   8.017  0.8109  1.3042  1.7956
  782MOL0     H 5570   7.286   2.731   8.073  1.5374 -0.6540  0.9074
  783MOL0     O 5571   3.598  11.256   6.406 -0.9290  0.2923 -0.5080
  783MOL0     C 5572   3.510  11.237   6.322 -0.6797 -0.4276 -0.3930
  783MOL0     O 5573   3.456  11.325   6.234  0.6576 -0.4037 -0.0835
  783MOL0     C 5574   3.525  11.412   6.159  0.0763  0.5892  1.0356
  783MOL0     C 5575   3.460  11.511   6.096  0.7916 -0.8601  0.1342
  783MOL0     C 5576   3.526  11.614   6.021 -0.3545 -0.5828 -0.4278
  783MOL0     C 5577   3.665  11.618   6.016 -0.3013 -0.6418 -0.3194
  783MOL0     O 5578   3.753  11.717   5.953 -0.3679 -0.8159  0.8377
  783MOL0     C 5579   3.694  11.816   5.858 -0.4218 -0.2248 -0.0207
  783MOL0     C 5580   3.800  11.922   5.808  0.1097 -0.5951  0.0867
  783MOL0     C 5581   3.883  11.994   5.916 -0.5231  0.3404  0.1686
  783MOL0     C 5582   3.798  12.106   5.984  0.4245 -1.1873 -0.0052
  783MOL0     C 5583   3.887  12.212   6.049 -0.5266 -0.3696 -1.2255
  783MOL0     C 5584   3.946  12.307   5.939  0.2378  0.2612 -0.0457
  783MOL0     C 5585   4.074  12.383   5.993  0.6044 -0.7015  1.3038
  783MOL0     C 5586   4.077  12.531   5.936 -0.2537 -0.0402 -0.5849
  783MOL0     N 5587   3.994  12.629   6.008  0.9410 -0.7419  0.7648
  783MOL0     C 5588   3.870  12.593   6.058 -0.5282  0.2171  0.1509
  783MOL0     C 5589   3.819  12.714   6.087  0.4180 -0.3652  0.0383
  783MOL0     C 5590   3.684  12.742   6.150 -0.4537  0.0555 -0.5858
  783MOL0     C 5591   3.677  12.720   6.307 -0.7911 -0.3953  0.2778
  783MOL0     C 5592   3.542  12.771   6.365 -0.4971 -0.5503  1.9699
  783MOL0     C 5593   3.556  12.806   6.510  0.6492  0.5715 -1.1832
  783MOL0     O 5594   3.592  12.700   6.599 -0.2881 -0.5740  0.1131
  783MOL0     C 5595   3.504  12.596   6.634 -0.2765 -0.1606  0.2016
  783MOL0     C 5596   3.548  12.485   6.703 -0.1514  0.3230 -1.4546
  783MOL0     C 5597   3.468  12.374   6.736 -1.1862  0.2992  0.1344
  783MOL0     C 5598   3.335  12.371   6.688 -0.2686 -0.1039  0.6722
  783MOL0     C 5599   3.244  12.257   6.708  1.0190 -0.5613  0.3952
  783MOL0     O 5600   3.297  12.133   6.741 -0.3272 -0.0147 -0.4674
  783MOL0     C 5601   3.216  12.026   6.765  0.2892 -0.7694  0.4664
  783MOL0     C 5602   3.082  11.997   6.721  0.0053 -1.3370 -0.3302
  783MOL0     C 5603   3.002  11.892   6.754 -0.4380  0.1733  1.2891
  783MOL0     C 5604   3.063  11.793   6.837  0.7274 -0.0979 -1.4638
  783MOL0     O 5605   2.988  11.690   6.879  0.1098 -0.2405  0.1698
  783MOL0     C 5606   2.876  11.724   6.963 -1.1109 -0.1432  0.0873
  783MOL0     C 5607   2.807  11.596   7.009 -1.3197  1.0280 -0.0582
  783MOL0     C 5608   2.746  11.615   7.151  0.5544 -0.6544 -0.8458
  783MOL0     C 5609   2.646  11.509   7.192  0.8395  0.5122 -1.1112
  783MOL0     C 5610   2.598  11.535   7.337  0.5464 -0.1141 -0.8100
  783MOL0     C 5611   2.454  11.482   7.365 -0.3331 -0.2326  0.4085
  783MOL0     C 5612   2.432  11.327   7.380 -0.2459  0.0567  0.0777
  783MOL0     C 5613   2.287  11.287   7.405 -0.4053  0.5451 -0.9411
  783MOL0    Cl 5614   2.259  11.294   7.580  0.1939  0.6159 -0.1191
  783MOL0     C 5615   3.196  11.817   6.883  0.2180  0.1978  0.5192
  783MOL0     C 5616   3.271  11.935   6.853  0.7189  0.2554  0.5231
  783MOL0     O 5617   3.125  12.279   6.690 -0.2551  0.6598  0.2088
  783MOL0     C 5618   3.282  12.487   6.612  0.1055  0.7145 -0.6759
  783MOL0     C 5619   3.369  12.596   6.590  0.5080  0.2221 -0.9085
  783MOL0     N 5620   3.918  12.808   6.058 -0.4008  0.2434  0.0799
  783MOL0     N 5621   4.023  12.762   6.016 -0.5127  0.2801  0.7493
  783MOL0     C 5622   3.723  11.509   6.072 -0.2285  0.5897  0.5200
  783MOL0     C 5623   3.664  11.408   6.152  0.0990 -0.0097  0.1235
  783MOL0     C 5624   3.464  11.091   6.298 -0.6750  0.3993 -0.0501
  783MOL0     C 5625   3.505  11.007   6.403 -0.0948 -0.6261 -0.1697
  783MOL0     C 5626   3.483  10.871   6.404  0.7817 -0.7409 -0.4013
  783MOL0     C 5627   3.420  10.806   6.299  0.2964 -0.5163  0.4078
  783MOL0     O 5628   3.419  10.670   6.303  0.1575 -0.7211 -0.0471
  783MOL0     C 5629   3.420  10.595   6.179  0.1918 -0.1019 -0.3088
  783MOL0     C 5630   3.496  10.468   6.183  0.2380 -0.6437  0.3955
  783MOL0     C 5631   3.453  10.367   6.085  0.3067  0.1707 -0.2031
  783MOL0     C 5632   3.499  10.216   6.098  0.4250  0.0345  0.2888
  783MOL0     C 5633   3.639  10.197   6.043  0.4151 -0.2651 -0.3692
  783MOL0     C 5634   3.748  10.184   6.007 -0.3280 -0.1387  0.8470
  783MOL0     C 5635   3.377  10.892   6.194  1.6929  0.3804  0.0856
  783MOL0     C 5636   3.390  11.032   6.194 -0.5436  0.1689 -0.2438
  783MOL0     C 5637   3.325  11.104   6.093 -0.6575  0.1342  0.5086
  783MOL0     H 5638   3.353  11.518   6.118 -0.1311 -4.0782 -2.5421
  783MOL0     H 5639   3.456  11.689   5.986 -0.1820  1.2873  2.8763
  783MOL0     H 5640   3.671  11.768   5.762  2.5927 -0.0461 -0.9279
  783MOL0     H 5641   3.611  11.858   5.915 -0.6128 -0.8971  0.2066
  783MOL0     H 5642   3.743  12.001   5.759  1.4797 -0.7163 -1.8007
  783MOL0     H 5643   3.871  11.884   5.735  0.1201  0.4748 -0.4918
  783MOL0     H 5644   3.969  12.039   5.865  0.7876  0.1058  2.0552
  783MOL0     H 5645   3.925  11.920   5.985  0.9732 -0.7640 -1.8154
  783MOL0     H 5646   3.730  12.154   5.912 -0.9627 -1.8011  0.8458
  783MOL0     H 5647   3.726  12.082   6.063  1.0447 -0.1782  0.8872
  783MOL0     H 5648   3.839  12.275   6.125 -3.3254 -1.6471 -1.8165
  783MOL0     H 5649   3.968  12.163   6.103 -2.6127 -0.3163  2.2512
  783MOL0     H 5650   3.991  12.242   5.864 -0.0051 -0.8584  0.7507
  783MOL0     H 5651   3.862  12.375   5.920 -0.1169  0.3765  1.6943
  783MOL0     H 5652   4.164  12.334   5.954 -0.2806 -0.3740 -1.4079
  783MOL0     H 5653   4.088  12.371   6.101 -0.4098 -2.9409  1.2552
  783MOL0     H 5654   4.181  12.561   5.952  0.5530 -3.6777  2.2534
  783MOL0     H 5655   4.038  12.531   5.834 -1.4969 -1.3666 -0.1422
  783MOL0     H 5656   3.826  12.495   6.075  4.5393 -2.2015  1.0349
  783MOL0     H 5657   3.664  12.848   6.132  0.3067  0.9293  2.9764
  783MOL0     H 5658   3.602  12.681   6.112  0.2564 -0.5788 -1.1240
  783MOL0     H 5659   3.698  12.617   6.338 -0.4708 -0.0314  1.3077
  783MOL0     H 5660   3.760  12.774   6.353  0.7899  0.6515 -3.4131
  783MOL0     H 5661   3.469  12.689   6.354 -1.5042 -0.2747  5.3571
  783MOL0     H 5662   3.511  12.857   6.305  0.9195 -0.5123  1.2523
  783MOL0     H 5663   3.463  12.852   6.546 -0.7240 -0.5728 -3.0480
  783MOL0     H 5664   3.635  12.879   6.528  0.8651  0.5390 -1.9711
  783MOL0     H 5665   3.646  12.490   6.751  0.0571 -0.5656 -1.7730
  783MOL0     H 5666   3.507  12.297   6.801 -0.8106  1.0804  0.8387
  783MOL0     H 5667   3.028  12.068   6.660  1.7255  0.9319  0.6512
  783MOL0     H 5668   2.907  11.893   6.702  0.0456  1.8625  0.3616
  783MOL0     H 5669   2.913  11.770   7.055  0.5175  0.6073 -0.9093
  783MOL0     H 5670   2.804  11.790   6.914  0.2625  1.8854  0.6786
  783MOL0     H 5671   2.738  11.567   6.929 -1.1471  2.5707 -0.8085
  783MOL0     H 5672   2.873  11.509   7.008 -0.7267  1.4747 -0.2654
  783MOL0     H 5673   2.828  11.613   7.224  0.5553  0.1801 -0.8173
  783MOL0     H 5674   2.699  11.713   7.160  2.8321  0.4951 -0.8891
  783MOL0     H 5675   2.689  11.409   7.192 -2.3104 -0.9455 -2.4177
  783MOL0     H 5676   2.557  11.507   7.128 -2.6548  0.8915  3.2297
  783MOL0     H 5677   2.593  11.642   7.361 -1.0604  0.0604 -1.8116
  783MOL0     H 5678   2.672  11.491   7.405  0.8074 -0.2171 -1.1627
  783MOL0     H 5679   2.416  11.523   7.459 -2.3176 -0.5796 -0.1988
  783MOL0     H 5680   2.394  11.520   7.282 -1.4381  1.9794  2.1141
  783MOL0     H 5681   2.497  11.301   7.464  1.3122  0.5588 -0.9360
  783MOL0     H 5682   2.461  11.286   7.283  2.3768  4.8598 -1.4452
  783MOL0     H 5683   2.219  11.354   7.351 -1.7920 -1.0092 -1.2188
  783MOL0     H 5684   2.259  11.191   7.361  0.9589  1.8591 -5.1306
  783MOL0     H 5685   3.250  11.739   6.936  3.3178  1.6272 -0.3061
  783MOL0     H 5686   3.372  11.967   6.880  0.7839  0.1827  0.3675
  783MOL0     H 5687   3.181  12.489   6.574 -0.4193  1.9192  0.6987
  783MOL0     H 5688   3.323  12.676   6.532 -0.8872  0.1532  0.0457
  783MOL0     H 5689   3.830  11.495   6.065 -0.3820 -0.4494 -0.0826
  783MOL0     H 5690   3.732  11.333   6.191  0.4345  0.8442  1.2408
  783MOL0     H 5691   3.531  11.051   6.499 -2.1479  0.7644 -0.1863
  783MOL0     H 5692   3.509  10.822   6.496 -0.3415 -1.9525 -0.7070
  783MOL0     H 5693   3.450  10.660   6.097  0.5620 -0.9504 -0.8613
  783MOL0     H 5694   3.314  10.571   6.170  0.0898  0.0911  0.3108
  783MOL0     H 5695   3.485  10.415   6.278  1.3392  1.0877  1.5363
  783MOL0     H 5696   3.602  10.493   6.171  0.2687 -1.7874 -2.9143
  783MOL0     H 5697   3.460  10.402   5.982 -1.9996  2.6814  0.3780
  783MOL0     H 5698   3.347  10.364   6.113 -0.5763 -1.2104 -3.2866
  783MOL0     H 5699   3.487  10.178   6.200  1.1503  0.1666  0.4344
  783MOL0     H 5700   3.418  10.155   6.057 -2.8204  0.6826  4.9850
  783MOL0     H 5701   3.846  10.193   5.964 -0.2301  1.5694  1.3422
  783MOL0     H 5702   3.349  10.841   6.103 -1.0330  1.7508  0.0764
  783MOL0     H 5703   3.269  11.030   6.035  1.2950 -0.8160 -0.2552
  783MOL0     H 5704   3.253  11.178   6.131 -0.2218  2.3524 -2.5891
  783MOL0     H 5705   3.391  11.151   6.019 -0.6566 -1.1093 -0.3103
  784MOL0     O 5706   4.758   4.790   7.542  0.6452  0.3428  0.8304
  784MOL0     C 5707   4.636   4.820   7.579 -0.6895  0.3688 -0.5935
  784MOL0     O 5708   4.544   4.729   7.625  0.1734  0.5004 -0.0610
  784MOL0     C 5709   4.598   4.615   7.681  0.2677 -0.5840  0.1845
  784MOL0     C 5710   4.559   4.591   7.812 -0.2518  0.8218  0.4768
  784MOL0     C 5711   4.600   4.472   7.879  0.1112 -0.5994 -0.5008
  784MOL0     C 5712   4.683   4.378   7.812 -0.3879  0.9054  0.6328
  784MOL0     O 5713   4.732   4.267   7.874 -0.1883  0.3216  0.3414
  784MOL0     C 5714   4.714   4.244   8.018 -0.1495 -0.4907 -0.1064
  784MOL0     C 5715   4.758   4.100   8.061  0.5672 -0.2007  0.3567
  784MOL0     C 5716   4.912   4.108   8.086 -0.2111  0.4904  0.4450
  784MOL0     C 5717   4.989   4.051   7.964  0.0733 -0.1185 -0.4703
  784MOL0     C 5718   5.142   4.056   7.985 -0.0204 -0.0395  0.5439
  784MOL0     C 5719   5.200   3.922   8.034 -0.1118  0.5060  0.2384
  784MOL0     C 5720   5.327   3.950   8.114 -0.6665 -0.7023 -0.4444
  784MOL0     C 5721   5.389   3.818   8.166  0.6558 -0.2890  0.3897
  784MOL0     N 5722   5.324   3.764   8.278  0.0051  0.0390 -0.4590
  784MOL0     C 5723   5.342   3.785   8.407  0.1161  0.1395 -0.8486
  784MOL0     C 5724   5.254   3.703   8.472  0.0600 -0.7180 -0.4259
  784MOL0     C 5725   5.227   3.695   8.622  0.2771 -0.8265  0.2351
  784MOL0     C 5726   5.136   3.579   8.669 -0.0681  0.8326 -0.4271
  784MOL0     C 5727   5.215   3.460   8.716  0.2230 -0.1682 -0.6739
  784MOL0     C 5728   5.148   3.333   8.752  0.3786 -0.8807 -0.3236
  784MOL0     O 5729   5.185   3.296   8.884 -0.3747  0.1294  0.0988
  784MOL0     C 5730   5.145   3.176   8.949 -0.6457 -0.0073  0.1221
  784MOL0     C 5731   5.055   3.078   8.912 -0.5128 -1.4694  0.5632
  784MOL0     C 5732   5.025   2.962   8.984 -1.1508  0.2774 -0.2859
  784MOL0     C 5733   5.104   2.938   9.101 -0.6827  0.0610  0.4971
  784MOL0     C 5734   5.087   2.815   9.175  1.5705 -0.3769 -0.7251
  784MOL0     O 5735   5.157   2.811   9.290 -0.9292  0.3390  0.4818
  784MOL0     C 5736   5.165   2.692   9.358 -0.3760  0.7500 -0.7121
  784MOL0     C 5737   5.065   2.586   9.360  0.4261  0.6073  0.4026
  784MOL0     C 5738   5.074   2.476   9.442 -0.5473 -0.2847 -0.9133
  784MOL0     C 5739   5.172   2.478   9.548  0.5252 -0.2794  1.2050
  784MOL0     O 5740   5.197   2.364   9.634 -0.1606  0.2384 -0.4989
  784MOL0     C 5741   5.080   2.295   9.691  0.2922  0.1853 -0.1232
  784MOL0     C 5742   5.098   2.290   9.853  0.2391  0.3934  0.9846
  784MOL0     C 5743   4.967   2.330   9.924  0.0549 -0.3036  0.3197
  784MOL0     C 5744   4.945   2.483   9.914 -0.0934  0.0998  0.2143
  784MOL0     C 5745   4.821   2.536   9.993 -0.3267 -0.3408 -0.0516
  784MOL0     C 5746   4.790   2.492  10.143  1.2310 -0.0397  0.7847
  784MOL0     C 5747   4.659   2.540  10.194  0.1224 -0.9445 -0.0005
  784MOL0     C 5748   4.601   2.454  10.296 -0.2658  0.4339 -0.4521
  784MOL0    Cl 5749   4.562   2.301  10.215  0.0507 -0.0577 -0.6689
  784MOL0     C 5750   5.276   2.583   9.549  0.8375  0.4125 -0.7133
  784MOL0     C 5751   5.266   2.699   9.458  0.6672  0.9455  0.1514
  784MOL0     O 5752   5.011   2.730   9.133 -0.1753  0.7859  0.5401
  784MOL0     C 5753   5.215   3.020   9.131  0.3826 -0.9671  0.0880
  784MOL0     C 5754   5.231   3.142   9.057  0.6752 -0.4275 -0.3472
  784MOL0     N 5755   5.177   3.637   8.382  0.5702 -0.8998 -0.7287
  784MOL0     N 5756   5.227   3.663   8.265  1.0578  0.1372  0.3335
  784MOL0     C 5757   4.715   4.397   7.676 -0.6068  0.1088  0.5658
  784MOL0     C 5758   4.672   4.514   7.616 -0.3061 -1.0051 -0.3172
  784MOL0     C 5759   4.584   4.959   7.544 -0.0862 -0.6228  0.0190
  784MOL0     C 5760   4.683   5.056   7.525 -0.3762  0.2146  0.0121
  784MOL0     C 5761   4.666   5.193   7.516  0.2169 -0.3193 -0.8761
  784MOL0     C 5762   4.535   5.242   7.513  0.1595  0.1150  0.3947
  784MOL0     O 5763   4.532   5.383   7.502 -0.4675  0.9796 -0.4464
  784MOL0     C 5764   4.407   5.443   7.539 -0.3240  0.0408 -0.3263
  784MOL0     C 5765   4.416   5.597   7.532  0.4896  0.1169 -0.1744
  784MOL0     C 5766   4.543   5.664   7.568 -0.5374  0.0509 -0.2763
  784MOL0     C 5767   4.578   5.649   7.712 -0.2937  0.3593  0.8010
  784MOL0     C 5768   4.723   5.684   7.731  0.5294 -0.1090 -0.3697
  784MOL0     C 5769   4.837   5.701   7.759  0.3444 -0.6209 -0.4806
  784MOL0     C 5770   4.435   5.141   7.499 -0.0409  0.1689  0.1684
  784MOL0     C 5771   4.452   5.003   7.520  0.0996 -0.4334  0.6536
  784MOL0     C 5772   4.325   4.919   7.525 -0.6956 -0.2256  1.0365
  784MOL0     H 5773   4.497   4.670   7.855  2.3532  3.5861 -0.5077
  784MOL0     H 5774   4.578   4.452   7.983  2.8054 -3.0877 -0.2749
  784MOL0     H 5775   4.773   4.317   8.073  0.2733  1.0363 -2.4188
  784MOL0     H 5776   4.607   4.260   8.037 -1.0027  1.0312 -4.7884
  784MOL0     H 5777   4.728   4.022   7.990 -2.8108  0.4184  0.9070
  784MOL0     H 5778   4.693   4.078   8.146 -1.4354 -2.9694 -1.6749
  784MOL0     H 5779   4.941   4.041   8.168 -1.0059  0.1141  0.4369
  784MOL0     H 5780   4.965   4.199   8.114  2.6816 -0.9051 -0.1273
  784MOL0     H 5781   4.965   3.946   7.943  3.6585 -1.9263  3.1712
  784MOL0     H 5782   4.966   4.108   7.874  0.9612 -0.3879 -0.8817
  784MOL0     H 5783   5.187   4.064   7.886  1.5911  1.0568  1.3187
  784MOL0     H 5784   5.174   4.141   8.046  1.7919  1.0302 -1.7388
  784MOL0     H 5785   5.121   3.884   8.100  0.5941  0.5084  1.1051
  784MOL0     H 5786   5.222   3.845   7.960  2.2167  0.0642  1.3169
  784MOL0     H 5787   5.307   4.011   8.202  0.0721 -3.7335  1.9884
  784MOL0     H 5788   5.408   3.998   8.058  4.1431  0.7114  6.4521
  784MOL0     H 5789   5.382   3.743   8.086 -0.8252  0.1399  0.0740
  784MOL0     H 5790   5.493   3.834   8.192  0.6880  0.5352 -0.1983
  784MOL0     H 5791   5.400   3.861   8.460  1.5834  0.8102 -3.2669
  784MOL0     H 5792   5.318   3.686   8.681  0.5316  2.2296  0.4942
  784MOL0     H 5793   5.171   3.785   8.649 -4.8782 -2.1266 -4.1670
  784MOL0     H 5794   5.071   3.621   8.746 -2.0385  0.4041 -1.7812
  784MOL0     H 5795   5.072   3.547   8.586  0.0333  0.9321 -0.5425
  784MOL0     H 5796   5.285   3.488   8.796  1.2303 -2.0628 -0.8313
  784MOL0     H 5797   5.279   3.431   8.631 -1.7363 -3.0461 -1.3174
  784MOL0     H 5798   5.170   3.255   8.678 -0.2748  0.3208 -1.8309
  784MOL0     H 5799   5.040   3.350   8.743  0.6947  1.6643  0.0368
  784MOL0     H 5800   5.003   3.095   8.818  1.7150 -1.5745 -0.7888
  784MOL0     H 5801   4.943   2.896   8.956 -0.1080 -0.2476 -2.2814
  784MOL0     H 5802   4.979   2.572   9.294  1.2832 -3.3894 -0.1409
  784MOL0     H 5803   4.998   2.398   9.440 -1.2827  0.1530  2.7925
  784MOL0     H 5804   4.985   2.341   9.662 -0.5484 -0.5022  1.4270
  784MOL0     H 5805   5.076   2.189   9.665  0.5703  0.4612 -1.3738
  784MOL0     H 5806   5.130   2.194   9.895  1.0695  0.4747  0.5621
  784MOL0     H 5807   5.174   2.367   9.874  0.4205  0.0509  1.6004
  784MOL0     H 5808   4.891   2.260   9.886 -1.8859  0.3443  2.7248
  784MOL0     H 5809   4.984   2.303  10.028 -3.1190 -2.2446  0.4866
  784MOL0     H 5810   4.930   2.515   9.811  2.0821  2.0080  0.4091
  784MOL0     H 5811   5.035   2.536   9.946  1.4292 -1.2767 -1.5174
  784MOL0     H 5812   4.734   2.513   9.930 -1.2089 -0.7665  1.2927
  784MOL0     H 5813   4.834   2.644   9.987 -0.6764 -0.3664 -2.3712
  784MOL0     H 5814   4.804   2.386  10.161  0.2495 -0.2788  0.2441
  784MOL0     H 5815   4.871   2.538  10.200  0.9736  0.0514  1.0781
  784MOL0     H 5816   4.585   2.551  10.115  0.7532 -1.2201 -0.6484
  784MOL0     H 5817   4.682   2.640  10.233  2.3969  0.0823 -3.4938
  784MOL0     H 5818   4.670   2.436  10.378 -0.1824 -1.2672 -0.8491
  784MOL0     H 5819   4.514   2.503  10.340  0.0802 -0.6906  1.6257
  784MOL0     H 5820   5.355   2.583   9.623  1.5317  1.4527 -1.4214
  784MOL0     H 5821   5.332   2.785   9.454  2.7756 -0.3869  3.0960
  784MOL0     H 5822   5.289   2.998   9.208 -0.4770 -0.8933  0.9521
  784MOL0     H 5823   5.315   3.205   9.085  0.7766 -0.1953 -1.1550
  784MOL0     H 5824   4.777   4.348   7.602 -4.3820  0.6852 -3.4038
  784MOL0     H 5825   4.702   4.547   7.517 -0.8359 -0.8999 -0.4443
  784MOL0     H 5826   4.788   5.028   7.525 -0.6940 -1.0792  0.8691
  784MOL0     H 5827   4.742   5.270   7.524  1.0489 -1.2821  1.5927
  784MOL0     H 5828   4.380   5.415   7.641 -2.5454 -1.9110 -1.3504
  784MOL0     H 5829   4.321   5.416   7.477 -0.4881  1.6353 -0.8557
  784MOL0     H 5830   4.331   5.645   7.582 -0.6099 -1.7062 -0.2115
  784MOL0     H 5831   4.394   5.616   7.426  0.1311 -1.4631 -0.4029
  784MOL0     H 5832   4.538   5.772   7.556 -0.9437 -0.0086 -0.6890
  784MOL0     H 5833   4.622   5.636   7.498  1.4193 -0.4595  2.0181
  784MOL0     H 5834   4.518   5.722   7.769  0.4472 -1.4679  4.1729
  784MOL0     H 5835   4.550   5.553   7.757 -1.0761  0.0984 -0.2156
  784MOL0     H 5836   4.933   5.729   7.796 -0.9790  1.2288  1.7855
  784MOL0     H 5837   4.333   5.177   7.484 -1.0477 -1.5837  2.2600
  784MOL0     H 5838   4.278   4.921   7.426  0.5688 -1.5707  0.3687
  784MOL0     H 5839   4.332   4.814   7.555 -5.2292 -0.7389  0.9110
  784MOL0     H 5840   4.262   4.960   7.604  0.3723 -1.7855  2.7537
  785MOL0     O 5841   8.063   0.898   3.075 -0.3607 -0.0677 -0.4799
  785MOL0     C 5842   8.001   0.801   3.113  1.1839 -0.5293 -0.7149
  785MOL0     O 5843   8.043   0.703   3.196  1.0116  0.0796 -0.2246
  785MOL0     C 5844   8.165   0.720   3.257  0.6924 -0.3411  0.5483
  785MOL0     C 5845   8.188   0.660   3.378  0.4359  0.5112 -0.3687
  785MOL0     C 5846   8.308   0.669   3.452  0.3761  0.4373  0.1140
  785MOL0     C 5847   8.417   0.744   3.403 -0.7361 -0.6204  0.2267
  785MOL0     O 5848   8.538   0.771   3.466 -0.6491  0.5898 -0.1480
  785MOL0     C 5849   8.547   0.748   3.609  0.6377 -0.0683 -0.0696
  785MOL0     C 5850   8.696   0.760   3.639 -0.3275  0.4848 -1.0866
  785MOL0     C 5851   8.722   0.746   3.789 -0.0556 -0.5915 -0.7507
  785MOL0     C 5852   8.740   0.598   3.832  0.9996 -0.0273  0.3534
  785MOL0     C 5853   8.873   0.554   3.790 -0.0650  0.4387  0.4975
  785MOL0     C 5854   8.858   0.421   3.713 -0.0044  0.7029 -0.0590
  785MOL0     C 5855   8.997   0.381   3.659  0.1346 -0.1420  0.5796
  785MOL0     C 5856   9.000   0.242   3.599 -0.6669  0.6374  0.2141
  785MOL0     N 5857   8.896   0.209   3.507 -0.0986  0.0451  0.9442
  785MOL0     C 5858   8.845   0.289   3.410  0.3795 -0.6737  0.6235
  785MOL0     C 5859   8.744   0.220   3.355  0.2361  0.8674 -1.1844
  785MOL0     C 5860   8.653   0.259   3.242 -0.1449  0.4172  0.2115
  785MOL0     C 5861   8.529   0.320   3.291  0.4453 -0.0558  0.8976
  785MOL0     C 5862   8.457   0.387   3.170  0.1337 -0.0412 -0.3477
  785MOL0     C 5863   8.459   0.315   3.037 -0.2953 -0.3263 -0.9018
  785MOL0     O 5864   8.413   0.402   2.938  0.7208  0.3938 -0.9344
  785MOL0     C 5865   8.294   0.381   2.865 -0.0848 -0.0121 -0.0027
  785MOL0     C 5866   8.271   0.481   2.776  0.5393  0.0816  0.4656
  785MOL0     C 5867   8.140   0.490   2.716 -0.2542  0.6300  0.0947
  785MOL0     C 5868   8.041   0.391   2.743  0.4194  0.2631  0.3166
  785MOL0     C 5869   7.906   0.405   2.687 -0.2319  1.0786 -0.9759
  785MOL0     O 5870   7.850   0.523   2.662  0.2630  0.0401  0.5888
  785MOL0     C 5871   7.722   0.539   2.609  0.9948 -0.7000 -1.4090
  785MOL0     C 5872   7.665   0.666   2.644 -0.1774 -0.7379  0.5285
  785MOL0     C 5873   7.533   0.696   2.604 -0.0613 -0.4667  0.0888
  785MOL0     C 5874   7.467   0.612   2.517  0.8377 -0.1003  0.3012
  785MOL0     O 5875   7.339   0.638   2.480  0.1544  0.3679  0.0452
  785MOL0     C 5876   7.327   0.748   2.381  0.9156 -0.0888 -0.0866
  785MOL0     C 5877   7.181   0.759   2.342 -0.8054  0.6794 -0.4432
  785MOL0     C 5878   7.116   0.826   2.468 -0.7380 -0.4962 -0.0724
  785MOL0     C 5879   6.956   0.838   2.452 -0.3157 -0.5129  0.5061
  785MOL0     C 5880   6.902   0.983   2.426 -0.3075 -0.5423  0.5030
  785MOL0     C 5881   6.943   1.048   2.293  0.7525 -0.6944  0.0006
  785MOL0     C 5882   6.854   0.998   2.182 -0.1640  0.1079 -0.1112
  785MOL0     C 5883   6.953   0.957   2.069 -0.2382 -0.1823  0.3765
  785MOL0    Cl 5884   7.077   1.091   2.025  0.2675 -0.3802  0.5000
  785MOL0     C 5885   7.520   0.491   2.479  0.2481  0.4287  0.4467
  785MOL0     C 5886   7.650   0.458   2.521 -0.4722 -0.1434  0.7738
  785MOL0     O 5887   7.842   0.300   2.689 -0.1571  0.8298 -0.8229
  785MOL0     C 5888   8.066   0.291   2.831 -1.0562 -0.5149 -0.8340
  785MOL0     C 5889   8.193   0.292   2.903  0.0994 -0.5484  0.0896
  785MOL0     N 5890   8.739   0.101   3.425  0.3142  0.5620 -0.8208
  785MOL0     N 5891   8.841   0.088   3.502  0.5933  0.1622 -0.7563
  785MOL0     C 5892   8.397   0.808   3.283 -0.7744  0.1218  0.3679
  785MOL0     C 5893   8.277   0.797   3.209 -0.7703  0.1090  0.9038
  785MOL0     C 5894   7.858   0.788   3.061  0.6789 -0.7551  0.9047
  785MOL0     C 5895   7.818   0.660   3.014 -0.4772  0.3701  0.1129
  785MOL0     C 5896   7.692   0.646   2.962  0.0820  0.5365  1.3111
  785MOL0     C 5897   7.594   0.742   2.972 -0.1286 -0.3509 -0.4787
  785MOL0     O 5898   7.467   0.727   2.913 -0.0997  0.0491 -0.0590
  785MOL0     C 5899   7.413   0.587   2.914 -0.0726  0.3872  0.7390
  785MOL0     C 5900   7.268   0.603   2.858 -0.6067 -0.4024 -0.0785
  785MOL0     C 5901   7.185   0.691   2.945 -0.0244  0.2500 -0.3624
  785MOL0     C 5902   7.036   0.705   2.902 -0.3510  0.5975  0.3927
  785MOL0     C 5903   6.945   0.769   2.992 -1.6809  0.1360 -0.4936
  785MOL0     C 5904   6.874   0.805   3.081 -0.1617 -0.7913 -0.2844
  785MOL0     C 5905   7.635   0.866   3.026  0.2972 -0.4758  0.3478
  785MOL0     C 5906   7.762   0.890   3.072 -0.1972 -0.5081  0.1257
  785MOL0     C 5907   7.801   1.023   3.124  0.4472 -0.4616  0.4477
  785MOL0     H 5908   8.114   0.611   3.440  2.0181  0.4115  1.5440
  785MOL0     H 5909   8.310   0.614   3.546 -1.1531 -0.2107 -0.1856
  785MOL0     H 5910   8.487   0.821   3.665  1.4461 -0.0277  0.7533
  785MOL0     H 5911   8.507   0.650   3.637 -1.7508 -0.1469 -3.1235
  785MOL0     H 5912   8.724   0.861   3.607 -1.7944  1.3190  0.1643
  785MOL0     H 5913   8.753   0.689   3.578 -0.2476 -1.4447  1.1148
  785MOL0     H 5914   8.643   0.797   3.844  0.2473  2.0393 -2.5502
  785MOL0     H 5915   8.812   0.792   3.832 -1.3186  0.5663  0.7767
  785MOL0     H 5916   8.726   0.567   3.936 -0.1222 -0.8301 -0.0208
  785MOL0     H 5917   8.661   0.535   3.789  2.7623 -2.4569  0.4837
  785MOL0     H 5918   8.913   0.635   3.727 -1.4773  0.7805  0.0018
  785MOL0     H 5919   8.945   0.540   3.871 -0.2512  0.3091  0.6412
  785MOL0     H 5920   8.830   0.338   3.779 -0.1923  1.5025  0.8995
  785MOL0     H 5921   8.782   0.427   3.635 -2.3062  0.4483  2.0364
  785MOL0     H 5922   9.072   0.385   3.739  3.3971  3.6240 -2.2542
  785MOL0     H 5923   9.026   0.456   3.585 -0.4850  0.1317  0.6092
  785MOL0     H 5924   9.097   0.222   3.553 -1.1580 -1.1006 -0.1377
  785MOL0     H 5925   8.996   0.159   3.669 -0.3838  1.2635  0.9906
  785MOL0     H 5926   8.881   0.389   3.389 -1.4248  0.0984  1.0050
  785MOL0     H 5927   8.696   0.327   3.168  0.8101 -0.2609  0.1341
  785MOL0     H 5928   8.629   0.162   3.198 -3.6890 -1.0089  4.4718
  785MOL0     H 5929   8.464   0.247   3.339  0.2926 -1.6521 -1.5496
  785MOL0     H 5930   8.572   0.398   3.355  3.4581  0.6547 -1.6616
  785MOL0     H 5931   8.481   0.494   3.171  2.5084 -0.4888  2.0856
  785MOL0     H 5932   8.350   0.398   3.189 -0.6955  2.2468 -4.8423
  785MOL0     H 5933   8.421   0.213   3.050  0.1949 -0.6036 -1.5622
  785MOL0     H 5934   8.563   0.309   3.004 -0.5660  0.0449 -1.8527
  785MOL0     H 5935   8.346   0.556   2.755  1.4086  0.5201  4.3895
  785MOL0     H 5936   8.112   0.562   2.639 -1.5894 -0.3118 -0.3351
  785MOL0     H 5937   7.730   0.730   2.702  2.4411 -0.8321 -2.0552
  785MOL0     H 5938   7.489   0.783   2.652  1.9972  0.6912  0.0367
  785MOL0     H 5939   7.364   0.837   2.432  0.8932  1.6483 -2.9334
  785MOL0     H 5940   7.384   0.719   2.292  0.1122  1.2817 -1.0754
  785MOL0     H 5941   7.176   0.808   2.244 -0.0621  1.7742  0.0419
  785MOL0     H 5942   7.142   0.657   2.338  0.6386  0.1317 -1.2055
  785MOL0     H 5943   7.133   0.759   2.553 -1.4191 -0.4459  0.1054
  785MOL0     H 5944   7.167   0.918   2.497 -0.7829 -1.0724  1.9357
  785MOL0     H 5945   6.922   0.791   2.545 -0.6338 -1.7642 -0.2132
  785MOL0     H 5946   6.932   0.760   2.379  2.7098  0.8657 -2.1762
  785MOL0     H 5947   6.955   1.044   2.500  0.9593  0.7521 -1.3883
  785MOL0     H 5948   6.793   0.984   2.443 -0.1488  0.3787  1.6175
  785MOL0     H 5949   6.928   1.156   2.309  1.6544 -0.4950 -0.4717
  785MOL0     H 5950   7.052   1.042   2.287  1.0824  2.8067  0.0488
  785MOL0     H 5951   6.783   1.073   2.144 -2.8066 -1.9429  0.4359
  785MOL0     H 5952   6.789   0.917   2.218 -0.9787  0.9156  0.2764
  785MOL0     H 5953   7.011   0.871   2.104  1.0160  0.0944 -0.9252
  785MOL0     H 5954   6.894   0.928   1.981 -2.1060  3.8961  0.0452
  785MOL0     H 5955   7.476   0.411   2.419 -1.5434 -0.1230  2.3435
  785MOL0     H 5956   7.702   0.372   2.480  1.5405  0.5077  1.8361
  785MOL0     H 5957   7.985   0.225   2.861 -1.0269 -0.4615 -0.6347
  785MOL0     H 5958   8.201   0.230   2.991 -1.4014  0.5970  1.0755
  785MOL0     H 5959   8.472   0.873   3.238 -1.5912  2.0143  1.6218
  785MOL0     H 5960   8.263   0.843   3.111 -4.2326 -2.6935 -0.1366
  785MOL0     H 5961   7.883   0.577   2.987 -0.2863  0.2836  0.8059
  785MOL0     H 5962   7.675   0.557   2.902  2.2237  1.7045 -1.2806
  785MOL0     H 5963   7.424   0.538   3.011  0.3930 -1.1303 -0.0513
  785MOL0     H 5964   7.472   0.531   2.841 -1.1799  1.5187 -1.1041
  785MOL0     H 5965   7.231   0.503   2.836  0.0597 -0.0828 -3.0419
  785MOL0     H 5966   7.281   0.661   2.766  1.1028 -1.9342 -0.8588
  785MOL0     H 5967   7.235   0.787   2.933  0.4645 -0.1390 -1.6934
  785MOL0     H 5968   7.187   0.663   3.050 -0.8718  0.6414 -0.2383
  785MOL0     H 5969   7.034   0.766   2.811  2.9688 -2.5425 -2.0400
  785MOL0     H 5970   7.001   0.604   2.881 -1.5044  0.8991  0.8004
  785MOL0     H 5971   6.826   0.839   3.171 -1.0222 -0.2503 -0.9313
  785MOL0     H 5972   7.573   0.954   3.015  0.9266  0.2174  2.0961
  785MOL0     H 5973   7.851   1.022   3.221  1.2947  1.1042  0.0639
  785MOL0     H 5974   7.860   1.080   3.052 -1.8397  1.6526  0.1195
  785MOL0     H 5975   7.712   1.086   3.137  0.3868 -0.5757  0.5970
  786MOL0     O 5976   3.433   7.009   4.080  0.6094  0.4596  0.3496
  786MOL0     C 5977   3.508   7.099   4.100  0.3798  0.2930  0.1636
  786MOL0     O 5978   3.640   7.093   4.063 -0.1288  0.2464  0.3749
  786MOL0     C 5979   3.705   6.971   4.037 -0.3749  0.7638 -0.6945
  786MOL0     C 5980   3.674   6.898   3.922 -0.8916 -0.2717 -0.2156
  786MOL0     C 5981   3.752   6.782   3.890 -0.6406 -0.2892  0.3062
  786MOL0     C 5982   3.848   6.734   3.976  0.5943 -0.2390 -0.2791
  786MOL0     O 5983   3.905   6.619   3.932  0.0597  0.0051  0.6169
  786MOL0     C 5984   4.047   6.592   3.955  0.4190  0.2128  0.1922
  786MOL0     C 5985   4.104   6.527   3.827  0.4464  0.0559 -1.2562
  786MOL0     C 5986   4.250   6.542   3.810 -0.3988 -0.4576  0.8722
  786MOL0     C 5987   4.321   6.410   3.782  0.0982 -0.4924  0.3095
  786MOL0     C 5988   4.481   6.424   3.780 -0.0329 -1.5927  0.8849
  786MOL0     C 5989   4.544   6.286   3.744  0.2116 -0.1690  0.2240
  786MOL0     C 5990   4.673   6.306   3.663  0.9751 -0.2150  0.1475
  786MOL0     C 5991   4.644   6.340   3.520 -0.4191 -0.3788 -0.8409
  786MOL0     N 5992   4.579   6.228   3.449  0.6350  0.3521 -0.2175
  786MOL0     C 5993   4.516   6.236   3.328 -0.6083  0.6495 -0.1167
  786MOL0     C 5994   4.476   6.106   3.312 -0.8232  0.3900 -0.2896
  786MOL0     C 5995   4.420   6.061   3.177 -0.6240  0.7267  0.3431
  786MOL0     C 5996   4.300   6.132   3.134 -0.3114  0.0710  0.8265
  786MOL0     C 5997   4.220   6.046   3.032 -0.6073 -0.6284 -0.2392
  786MOL0     C 5998   4.289   6.056   2.895 -0.8675 -0.1179 -0.0108
  786MOL0     O 5999   4.285   6.192   2.833 -0.0505  0.2684 -0.6881
  786MOL0     C 6000   4.322   6.204   2.701 -0.0142  0.3473  0.1347
  786MOL0     C 6001   4.414   6.124   2.633 -0.5718  0.2081  0.4080
  786MOL0     C 6002   4.458   6.153   2.501 -0.2198  0.3593  0.3819
  786MOL0     C 6003   4.389   6.249   2.429 -0.6426  0.4872  0.2671
  786MOL0     C 6004   4.427   6.269   2.293  0.3903 -0.3525  1.1283
  786MOL0     O 6005   4.533   6.203   2.239  0.2690 -0.3189 -0.4134
  786MOL0     C 6006   4.546   6.189   2.103 -0.1850  0.2781 -0.3886
  786MOL0     C 6007   4.516   6.279   1.994  0.8265 -0.1926  0.3770
  786MOL0     C 6008   4.538   6.231   1.863 -0.3165 -0.1709 -0.4492
  786MOL0     C 6009   4.586   6.093   1.838 -0.0057  0.5041  0.5980
  786MOL0     O 6010   4.594   6.061   1.709  0.0077 -0.2856 -0.1502
  786MOL0     C 6011   4.457   6.018   1.662 -0.4647 -1.1826  0.4617
  786MOL0     C 6012   4.467   5.960   1.521  0.2962  0.0403  0.3213
  786MOL0     C 6013   4.530   5.814   1.498 -0.5851 -0.6168 -0.2157
  786MOL0     C 6014   4.544   5.803   1.344 -1.1076 -1.4488 -0.1005
  786MOL0     C 6015   4.537   5.659   1.313  0.3186  0.8987  0.9498
  786MOL0     C 6016   4.559   5.630   1.159 -0.6663 -0.4048 -1.2398
  786MOL0     C 6017   4.677   5.699   1.087  0.0959 -0.4019 -0.5145
  786MOL0     C 6018   4.685   5.663   0.941 -0.2868 -0.0222  0.3337
  786MOL0    Cl 6019   4.847   5.710   0.882 -0.2641  0.2902 -0.2477
  786MOL0     C 6020   4.630   6.013   1.945  0.5345 -0.3591 -0.6244
  786MOL0     C 6021   4.615   6.067   2.079 -0.2560 -0.3482 -0.1514
  786MOL0     O 6022   4.353   6.342   2.223  0.2427  0.2087  0.2378
  786MOL0     C 6023   4.280   6.316   2.495  0.7340  0.1480  0.3255
  786MOL0     C 6024   4.247   6.304   2.631 -0.4020  0.0737  0.9419
  786MOL0     N 6025   4.518   6.023   3.417 -0.1516 -0.1752  0.5615
  786MOL0     N 6026   4.581   6.096   3.492 -0.9501  0.1660  0.2370
  786MOL0     C 6027   3.888   6.813   4.090  0.5674  0.4922  0.2317
  786MOL0     C 6028   3.815   6.930   4.122 -0.5451 -0.3055  1.7854
  786MOL0     C 6029   3.456   7.210   4.179  0.8644  0.5665  0.2901
  786MOL0     C 6030   3.552   7.274   4.252  1.2339 -0.1720  0.7959
  786MOL0     C 6031   3.511   7.378   4.343 -0.2350  0.8825  0.0938
  786MOL0     C 6032   3.375   7.413   4.362 -0.1065 -0.1795 -0.1095
  786MOL0     O 6033   3.320   7.513   4.439  0.0862 -0.1968  0.2007
  786MOL0     C 6034   3.404   7.615   4.491  0.4440  0.1122 -0.1178
  786MOL0     C 6035   3.470   7.703   4.381 -0.1666  0.0836  0.7054
  786MOL0     C 6036   3.372   7.733   4.267 -0.6010 -0.4289 -0.1654
  786MOL0     C 6037   3.231   7.788   4.287 -0.8562 -0.3083 -0.0531
  786MOL0     C 6038   3.243   7.897   4.391 -0.1139 -0.5087  0.3916
  786MOL0     C 6039   3.263   7.983   4.472 -0.8462 -0.1821  0.8417
  786MOL0     C 6040   3.286   7.349   4.284  0.6056  0.9150  0.0362
  786MOL0     C 6041   3.313   7.246   4.197 -0.5184 -0.6799  0.1393
  786MOL0     C 6042   3.223   7.195   4.098 -0.2513  0.1642  0.1484
  786MOL0     H 6043   3.595   6.917   3.849  1.0780  0.0397 -2.3862
  786MOL0     H 6044   3.731   6.731   3.796 -0.6124 -1.7513  1.0652
  786MOL0     H 6045   4.105   6.684   3.968 -0.0746  0.6724 -0.7067
  786MOL0     H 6046   4.057   6.524   4.039 -2.6458 -2.8167 -1.6277
  786MOL0     H 6047   4.049   6.568   3.742  0.0414  1.4857 -0.3253
  786MOL0     H 6048   4.080   6.421   3.841  0.1870  0.2731  0.0348
  786MOL0     H 6049   4.308   6.575   3.897  0.1821 -0.7987  0.6222
  786MOL0     H 6050   4.252   6.604   3.720 -3.6337 -1.3201  0.0845
  786MOL0     H 6051   4.293   6.331   3.853  4.8289 -0.0793  3.0513
  786MOL0     H 6052   4.296   6.378   3.680 -0.0042  0.8922 -0.1193
  786MOL0     H 6053   4.502   6.507   3.712 -0.9982 -0.9989  1.2832
  786MOL0     H 6054   4.526   6.456   3.874  0.6798  1.4489 -0.3551
  786MOL0     H 6055   4.551   6.218   3.829 -1.9681 -2.2519 -1.1246
  786MOL0     H 6056   4.477   6.232   3.676  1.5175  1.7131 -2.8186
  786MOL0     H 6057   4.721   6.207   3.667  0.5400 -0.5235 -1.6664
  786MOL0     H 6058   4.743   6.378   3.705  1.4486  0.5410 -1.8319
  786MOL0     H 6059   4.574   6.424   3.517  1.6489  1.3782 -2.1388
  786MOL0     H 6060   4.731   6.383   3.471  0.1155  1.5518  1.5902
  786MOL0     H 6061   4.511   6.328   3.270  3.8550  1.0484 -0.1837
  786MOL0     H 6062   4.507   6.063   3.111 -1.5679 -3.0964 -1.3266
  786MOL0     H 6063   4.409   5.953   3.189  0.5733  0.6393  0.8224
  786MOL0     H 6064   4.234   6.158   3.218 -1.2580 -0.3259  0.2087
  786MOL0     H 6065   4.315   6.234   3.096  2.4270 -1.0311 -1.4381
  786MOL0     H 6066   4.118   6.086   3.032  0.8192  3.7152 -2.8436
  786MOL0     H 6067   4.211   5.944   3.070 -0.1422  0.4743  3.2981
  786MOL0     H 6068   4.245   5.981   2.830  1.4498 -0.0494 -1.7792
  786MOL0     H 6069   4.394   6.026   2.901 -1.6310 -2.9650  0.7294
  786MOL0     H 6070   4.466   6.050   2.693 -2.0417 -0.9660  0.2879
  786MOL0     H 6071   4.532   6.097   2.446  1.7070  2.2822  0.8742
  786MOL0     H 6072   4.470   6.377   1.994 -1.1751 -1.0185 -2.9274
  786MOL0     H 6073   4.518   6.295   1.778 -0.4443  2.5318  1.4687
  786MOL0     H 6074   4.417   5.942   1.730 -1.4212 -1.8587 -0.8138
  786MOL0     H 6075   4.394   6.107   1.661 -2.0578 -2.2506  1.0455
  786MOL0     H 6076   4.367   5.951   1.478  0.8691  0.4586 -1.1758
  786MOL0     H 6077   4.512   6.033   1.453  0.0854 -1.3640 -1.4123
  786MOL0     H 6078   4.634   5.804   1.528  0.6105 -2.1675 -4.2167
  786MOL0     H 6079   4.474   5.734   1.546  1.3196 -2.7098 -1.3347
  786MOL0     H 6080   4.641   5.849   1.320 -1.0484 -1.5953 -0.1449
  786MOL0     H 6081   4.466   5.864   1.299  1.8838  3.9652  1.1535
  786MOL0     H 6082   4.443   5.617   1.350  0.9769 -2.3314 -0.6403
  786MOL0     H 6083   4.625   5.616   1.361 -0.1898  0.2099  1.2900
  786MOL0     H 6084   4.582   5.524   1.147  2.6030  0.3485 -2.8988
  786MOL0     H 6085   4.470   5.662   1.105  0.7573  1.0608 -2.8540
  786MOL0     H 6086   4.770   5.674   1.140  0.1291 -0.0260 -0.3970
  786MOL0     H 6087   4.666   5.806   1.105 -0.6906 -1.1445  5.8296
  786MOL0     H 6088   4.666   5.557   0.922  0.3835  0.3267 -2.8102
  786MOL0     H 6089   4.601   5.711   0.889 -0.7494 -1.1151  0.0362
  786MOL0     H 6090   4.685   5.919   1.947  1.2381  0.0303  1.9826
  786MOL0     H 6091   4.663   6.007   2.156  0.3656 -3.7978 -2.9437
  786MOL0     H 6092   4.213   6.377   2.436  0.1217 -1.6082 -0.8709
  786MOL0     H 6093   4.170   6.353   2.690  0.8374  1.2507  1.6421
  786MOL0     H 6094   3.972   6.771   4.143  2.8899 -1.4537 -4.4021
  786MOL0     H 6095   3.843   6.998   4.202  0.7583 -0.9020  1.8596
  786MOL0     H 6096   3.656   7.246   4.244  0.3102 -3.6129 -1.5172
  786MOL0     H 6097   3.580   7.438   4.401 -0.1029  3.0974 -2.1900
  786MOL0     H 6098   3.471   7.569   4.564  0.8405 -0.5012 -0.8547
  786MOL0     H 6099   3.339   7.682   4.548  2.9726  1.0868  1.8002
  786MOL0     H 6100   3.547   7.645   4.330 -0.8127  1.0863 -1.5197
  786MOL0     H 6101   3.522   7.789   4.423  4.8225 -1.8696 -0.7167
  786MOL0     H 6102   3.357   7.650   4.198 -0.8074 -0.7151  0.2236
  786MOL0     H 6103   3.423   7.792   4.190 -2.2552  0.2809 -0.7895
  786MOL0     H 6104   3.185   7.826   4.195 -1.1281  0.8190  0.5214
  786MOL0     H 6105   3.170   7.707   4.329 -3.7982  0.4055 -2.5014
  786MOL0     H 6106   3.282   8.065   4.538  3.0451 -0.9834  0.9428
  786MOL0     H 6107   3.183   7.377   4.305 -0.5096 -0.3891 -3.0403
  786MOL0     H 6108   3.137   7.261   4.087  0.6776  1.2580 -0.8377
  786MOL0     H 6109   3.277   7.183   4.004  1.1881 -0.0213  0.9734
  786MOL0     H 6110   3.189   7.103   4.147  3.5434 -1.4056  0.2050
  787MOL0     O 6111   6.335  10.746  10.537 -0.4923  0.2349 -0.1076
  787MOL0     C 6112   6.408  10.779  10.629 -0.2294 -0.8871 -0.4214
  787MOL0     O 6113   6.497  10.872  10.626  0.2430  0.0647  0.4332
  787MOL0     C 6114   6.482  10.993  10.554 -0.0069 -0.8859 -0.6471
  787MOL0     C 6115   6.357  11.046  10.522  0.5141 -0.0839  0.3041
  787MOL0     C 6116   6.348  11.160  10.436  0.1390  0.3947 -0.7653
  787MOL0     C 6117   6.451  11.232  10.382  0.1586  0.5230  0.1385
  787MOL0     O 6118   6.439  11.350  10.317  0.5363 -0.5055  0.1451
  787MOL0     C 6119   6.315  11.425  10.335  0.0786 -0.0487 -1.0312
  787MOL0     C 6120   6.329  11.578  10.298  0.1458  0.4753 -0.4726
  787MOL0     C 6121   6.462  11.660  10.334 -1.3188 -0.8682  0.1939
  787MOL0     C 6122   6.549  11.685  10.210  0.3306  0.4575 -0.3455
  787MOL0     C 6123   6.644  11.807  10.223 -0.1576  0.5450  0.7625
  787MOL0     C 6124   6.762  11.766  10.314 -0.0321 -1.0033  0.4002
  787MOL0     C 6125   6.856  11.663  10.262  0.3766 -0.4443  0.0931
  787MOL0     C 6126   6.994  11.688  10.314  0.5159 -0.1130 -0.5266
  787MOL0     N 6127   7.004  11.705  10.467  0.3196 -0.4631  0.6800
  787MOL0     C 6128   7.028  11.820  10.537  0.0808 -0.1467 -0.0356
  787MOL0     C 6129   7.084  11.774  10.657 -0.0351  0.5683 -0.4350
  787MOL0     C 6130   7.145  11.855  10.762  1.0915 -1.0170  0.2379
  787MOL0     C 6131   7.038  11.939  10.839 -0.8152  0.6394  0.4355
  787MOL0     C 6132   7.101  12.011  10.968  0.3059  0.4569  1.4929
  787MOL0     C 6133   7.046  11.939  11.092  1.2097  0.3625 -0.6393
  787MOL0     O 6134   6.901  11.951  11.108  0.3194  0.1701  0.1527
  787MOL0     C 6135   6.842  12.068  11.143 -0.2007 -0.7543 -0.2628
  787MOL0     C 6136   6.710  12.086  11.100  0.4117  0.3905  0.9794
  787MOL0     C 6137   6.652  12.215  11.113  0.3547 -0.7407 -0.9217
  787MOL0     C 6138   6.719  12.317  11.191 -0.0508  0.6226  0.2863
  787MOL0     C 6139   6.648  12.447  11.194 -0.9481  0.5214 -0.1686
  787MOL0     O 6140   6.556  12.464  11.091  0.1844  0.1087  0.1894
  787MOL0     C 6141   6.519  12.601  11.069  0.0101  0.4478 -0.2684
  787MOL0     C 6142   6.412  12.664  11.144  1.2773 -0.3803  0.5334
  787MOL0     C 6143   6.364  12.799  11.110 -0.4164 -0.4262 -0.3183
  787MOL0     C 6144   6.423  12.869  11.004 -0.3685 -0.7769 -0.3587
  787MOL0     O 6145   6.394  13.002  10.972 -0.0736 -0.5075  0.0505
  787MOL0     C 6146   6.452  13.094  11.065  0.0866 -0.7786 -0.2467
  787MOL0     C 6147   6.348  13.159  11.165 -0.2761 -0.5361  0.2979
  787MOL0     C 6148   6.416  13.226  11.279 -0.4320  0.2632 -0.3278
  787MOL0     C 6149   6.325  13.298  11.381  0.1649  1.2016  1.2595
  787MOL0     C 6150   6.399  13.348  11.495  1.1627  0.3676  0.2237
  787MOL0     C 6151   6.488  13.469  11.467  0.1908 -0.1312  0.5418
  787MOL0     C 6152   6.521  13.550  11.596 -0.0015  1.1883  0.1918
  787MOL0     C 6153   6.642  13.653  11.591  0.1960 -0.6689 -0.4348
  787MOL0    Cl 6154   6.574  13.812  11.543 -0.3211 -0.0955  0.1087
  787MOL0     C 6155   6.532  12.811  10.939  0.4143 -0.1499 -0.7955
  787MOL0     C 6156   6.583  12.678  10.969  0.3450  0.8843 -0.1465
  787MOL0     O 6157   6.700  12.535  11.256  0.2515 -0.3777  0.0970
  787MOL0     C 6158   6.846  12.290  11.254 -0.4820  0.1951  0.5510
  787MOL0     C 6159   6.907  12.164  11.225  0.2388 -0.7099 -0.2622
  787MOL0     N 6160   7.086  11.638  10.652  0.0452  0.5946  0.6924
  787MOL0     N 6161   7.036  11.594  10.538 -0.2962  0.4782  0.2836
  787MOL0     C 6162   6.581  11.168  10.405  0.0164  0.2909 -0.3882
  787MOL0     C 6163   6.590  11.055  10.495 -1.5869 -0.8569  0.6657
  787MOL0     C 6164   6.432  10.685  10.731  0.0377 -1.0824 -0.1106
  787MOL0     C 6165   6.568  10.634  10.760 -0.1647 -0.0297 -0.4592
  787MOL0     C 6166   6.578  10.525  10.854 -0.1978 -0.7765 -0.4014
  787MOL0     C 6167   6.462  10.474  10.909  0.0633 -0.0073 -0.7392
  787MOL0     O 6168   6.474  10.359  10.988  0.0156  0.3082  0.2380
  787MOL0     C 6169   6.372  10.324  11.089  0.1649  0.5524  0.3328
  787MOL0     C 6170   6.360  10.439  11.186  0.5443  1.1529  0.3425
  787MOL0     C 6171   6.259  10.414  11.302 -0.0032  0.5467  0.4322
  787MOL0     C 6172   6.124  10.359  11.258  0.1350  0.4772  0.8795
  787MOL0     C 6173   6.056  10.468  11.182  0.0584  0.6106  0.7062
  787MOL0     C 6174   5.986  10.547  11.129  0.1854 -0.0946  0.2594
  787MOL0     C 6175   6.342  10.523  10.873  0.0005  0.5217  0.6042
  787MOL0     C 6176   6.327  10.634  10.796 -0.8516 -1.1812  0.6678
  787MOL0     C 6177   6.184  10.671  10.769  0.0276  0.5631  0.2120
  787MOL0     H 6178   6.270  10.991  10.557 -2.2981  1.2944 -3.7514
  787MOL0     H 6179   6.255  11.211  10.415 -0.1927 -0.7587 -2.2513
  787MOL0     H 6180   6.226  11.391  10.281 -1.4504  1.8312  0.1661
  787MOL0     H 6181   6.284  11.409  10.438  1.4456 -2.2271 -0.8984
  787MOL0     H 6182   6.240  11.628  10.338 -0.3739 -1.1664  0.5622
  787MOL0     H 6183   6.319  11.588  10.190 -1.8974  1.4093 -0.2333
  787MOL0     H 6184   6.519  11.595  10.402  0.2014  0.6550  0.4517
  787MOL0     H 6185   6.427  11.754  10.375 -2.3998 -2.3425  2.9075
  787MOL0     H 6186   6.602  11.593  10.187 -0.7078 -1.2004  3.2243
  787MOL0     H 6187   6.492  11.720  10.123 -4.1982  0.3451  2.2915
  787MOL0     H 6188   6.693  11.825  10.127  1.5735  2.0714  1.8671
  787MOL0     H 6189   6.596  11.897  10.261 -1.6591 -0.1703  0.6592
  787MOL0     H 6190   6.804  11.865  10.333  0.1785 -1.2231  1.0872
  787MOL0     H 6191   6.730  11.753  10.417  2.4949  1.1781  1.5659
  787MOL0     H 6192   6.863  11.664  10.153 -0.4960  3.1258 -0.0250
  787MOL0     H 6193   6.822  11.564  10.293  1.3638 -2.2697 -3.9219
  787MOL0     H 6194   7.067  11.611  10.285  1.9372  0.5525  1.1277
  787MOL0     H 6195   7.031  11.781  10.270  2.1757  0.3905  1.7273
  787MOL0     H 6196   7.010  11.918  10.497  0.0245 -0.3847 -0.5964
  787MOL0     H 6197   7.197  11.794  10.836  0.8614 -2.0433 -0.4317
  787MOL0     H 6198   7.223  11.923  10.725  0.6511 -1.1121 -0.9031
  787MOL0     H 6199   7.008  12.022  10.774 -2.4460  1.2848  1.9327
  787MOL0     H 6200   6.955  11.872  10.861 -1.9540  1.1949 -1.8533
  787MOL0     H 6201   7.080  12.118  10.970  0.5719  0.5230  0.7304
  787MOL0     H 6202   7.210  12.004  10.976  0.4397 -0.7432 -0.8014
  787MOL0     H 6203   7.093  11.977  11.184 -1.5345  3.6617 -0.3571
  787MOL0     H 6204   7.058  11.832  11.073  1.4065  0.7257 -2.8306
  787MOL0     H 6205   6.651  12.016  11.041  0.6794 -0.6920  1.9435
  787MOL0     H 6206   6.555  12.230  11.066  0.9562  1.9818 -1.4669
  787MOL0     H 6207   6.364  12.601  11.217  0.0149  1.5712  1.4729
  787MOL0     H 6208   6.300  12.860  11.174  2.8956 -1.3425  4.3688
  787MOL0     H 6209   6.532  13.044  11.120  0.5144  1.7059  1.5743
  787MOL0     H 6210   6.505  13.179  11.020 -2.2607  1.5625  1.1008
  787MOL0     H 6211   6.282  13.227  11.111  0.7753  0.5889  0.3708
  787MOL0     H 6212   6.291  13.073  11.201  0.1047 -0.6250  0.7126
  787MOL0     H 6213   6.473  13.154  11.339 -2.9208  1.0605  3.3504
  787MOL0     H 6214   6.493  13.295  11.241  2.6025 -2.3564  0.5790
  787MOL0     H 6215   6.250  13.229  11.420 -0.7564  0.6535 -1.2981
  787MOL0     H 6216   6.261  13.376  11.338 -1.6499 -1.1354 -0.5529
  787MOL0     H 6217   6.441  13.255  11.536  0.8925  0.8352  1.6185
  787MOL0     H 6218   6.327  13.387  11.568  2.9046  0.7204  1.8502
  787MOL0     H 6219   6.576  13.441  11.409 -1.2279  0.7951 -2.2225
  787MOL0     H 6220   6.437  13.535  11.397  2.2606 -0.7453 -1.6597
  787MOL0     H 6221   6.539  13.476  11.675 -1.0085  0.9294  0.1871
  787MOL0     H 6222   6.428  13.603  11.614 -1.3395 -1.7516  2.9423
  787MOL0     H 6223   6.689  13.663  11.690  3.7951  0.6076 -2.0926
  787MOL0     H 6224   6.725  13.616  11.529 -2.4748 -2.5581 -3.1475
  787MOL0     H 6225   6.589  12.850  10.855 -1.1108  0.1391 -1.7325
  787MOL0     H 6226   6.641  12.622  10.896  1.3077 -0.9878  1.9497
  787MOL0     H 6227   6.904  12.347  11.326  2.1107 -2.2748  0.6147
  787MOL0     H 6228   7.008  12.138  11.253 -0.2512 -3.0342 -0.4584
  787MOL0     H 6229   6.674  11.216  10.376  0.6984  1.1133  2.7321
  787MOL0     H 6230   6.684  11.009  10.522 -0.7280  0.2587 -0.3244
  787MOL0     H 6231   6.658  10.680  10.721 -0.1690  3.0455  2.6440
  787MOL0     H 6232   6.678  10.491  10.878 -0.7602 -1.1161  1.6921
  787MOL0     H 6233   6.390  10.228  11.139  1.5669 -0.3276 -1.7466
  787MOL0     H 6234   6.275  10.303  11.043  1.2787  0.5525 -2.1687
  787MOL0     H 6235   6.321  10.522  11.125 -2.6705 -0.1224  0.4895
  787MOL0     H 6236   6.456  10.463  11.233  0.0479  1.9034  1.0079
  787MOL0     H 6237   6.250  10.511  11.352  0.8909  2.0467 -2.1449
  787MOL0     H 6238   6.309  10.341  11.366 -0.7226 -0.2853  0.0563
  787MOL0     H 6239   6.137  10.265  11.204  0.4696 -0.1939  2.0848
  787MOL0     H 6240   6.066  10.326  11.345  0.4472  0.2496  1.0039
  787MOL0     H 6241   5.924  10.629  11.096  1.6450  0.1876 -1.9140
  787MOL0     H 6242   6.257  10.476  10.921  0.1278 -0.4612 -0.0947
  787MOL0     H 6243   6.126  10.590  10.723 -0.3987  2.4618 -2.8781
  787MOL0     H 6244   6.129  10.685  10.863  0.8446  1.5156  0.5663
  787MOL0     H 6245   6.161  10.765  10.719 -2.4169 -0.1516 -0.1448
  788MOL0     O 6246   7.637   6.719   4.120 -0.4108  0.3203  1.1604
  788MOL0     C 6247   7.558   6.816   4.123 -0.6374 -0.6011 -0.5352
  788MOL0     O 6248   7.541   6.900   4.022  0.0132 -0.0309  0.7543
  788MOL0     C 6249   7.604   6.905   3.895  0.7520  0.6238 -0.3104
  788MOL0     C 6250   7.662   6.796   3.828 -0.1438 -0.0563  0.5181
  788MOL0     C 6251   7.713   6.805   3.700  0.3765 -0.7074 -0.2971
  788MOL0     C 6252   7.710   6.930   3.634  0.4594  0.0661 -0.3754
  788MOL0     O 6253   7.759   6.952   3.509 -0.9938  0.1100  0.2639
  788MOL0     C 6254   7.794   6.831   3.430  0.0648 -0.3905 -0.4046
  788MOL0     C 6255   7.856   6.867   3.292 -1.0348 -0.2706 -0.1839
  788MOL0     C 6256   7.992   6.920   3.312  0.2738  1.2725  0.2576
  788MOL0     C 6257   8.086   6.845   3.219  0.1862 -0.4696 -0.3142
  788MOL0     C 6258   8.233   6.876   3.257  0.5019 -0.4868  0.0541
  788MOL0     C 6259   8.328   6.836   3.147 -0.5041 -0.2300  0.9963
  788MOL0     C 6260   8.336   6.688   3.128 -0.3618  0.7812 -0.2102
  788MOL0     C 6261   8.440   6.661   3.019  0.6281  1.2026 -0.0437
  788MOL0     N 6262   8.411   6.512   2.977  0.0118 -0.6597 -0.6956
  788MOL0     C 6263   8.372   6.483   2.848 -0.3690  0.0355  0.0554
  788MOL0     C 6264   8.399   6.349   2.833  0.2990  0.2992 -0.1955
  788MOL0     C 6265   8.349   6.284   2.709  0.1599  0.4273  0.1247
  788MOL0     C 6266   8.200   6.299   2.683  0.3333 -0.1980  0.3919
  788MOL0     C 6267   8.167   6.214   2.560  0.2429  0.2507  0.6592
  788MOL0     C 6268   8.219   6.281   2.432 -0.6993  0.1169 -0.2787
  788MOL0     O 6269   8.152   6.403   2.416 -0.2460  0.7346 -0.4577
  788MOL0     C 6270   8.036   6.412   2.349 -0.0161  0.6247  1.2659
  788MOL0     C 6271   7.991   6.312   2.260  0.4348 -0.4927 -0.4278
  788MOL0     C 6272   7.857   6.330   2.222  0.1033  0.5757  0.4492
  788MOL0     C 6273   7.767   6.424   2.267  0.0507  0.4214  0.5353
  788MOL0     C 6274   7.624   6.419   2.223  0.1336  0.3858 -0.7468
  788MOL0     O 6275   7.598   6.344   2.119  0.0575  0.0538 -0.0503
  788MOL0     C 6276   7.472   6.334   2.073 -0.2832 -0.0644  0.1642
  788MOL0     C 6277   7.399   6.233   2.126  0.5905 -1.3722  0.3369
  788MOL0     C 6278   7.262   6.234   2.097  0.0999  0.9023  0.0233
  788MOL0     C 6279   7.210   6.330   2.009  0.8103 -0.7621  0.7952
  788MOL0     O 6280   7.080   6.337   1.969 -0.0652  0.2305 -0.1547
  788MOL0     C 6281   6.988   6.275   2.056  0.1188 -0.1122 -0.0151
  788MOL0     C 6282   6.851   6.296   1.996 -0.2387 -0.0993  0.0049
  788MOL0     C 6283   6.805   6.452   2.006  0.5432 -0.5788  0.7243
  788MOL0     C 6284   6.774   6.507   2.144  0.0523  1.3435 -0.7776
  788MOL0     C 6285   6.711   6.648   2.161 -0.8343 -0.8873  1.2008
  788MOL0     C 6286   6.797   6.747   2.088 -0.2555 -0.0561 -0.1594
  788MOL0     C 6287   6.934   6.777   2.144  0.1942 -0.3891 -0.8780
  788MOL0     C 6288   6.982   6.916   2.095  0.1553  0.1009 -1.0374
  788MOL0    Cl 6289   6.959   6.911   1.928 -0.3069  0.2482  0.2165
  788MOL0     C 6290   7.290   6.427   1.951  0.8640  0.7385 -0.0987
  788MOL0     C 6291   7.416   6.436   1.993  1.1592 -0.6969 -0.1641
  788MOL0     O 6292   7.547   6.493   2.283 -0.2719  0.4752  0.0603
  788MOL0     C 6293   7.821   6.528   2.357 -0.3910  1.7761 -0.2015
  788MOL0     C 6294   7.958   6.511   2.394 -0.0983 -0.2200  0.5832
  788MOL0     N 6295   8.466   6.297   2.941 -0.2187 -0.5766  0.0599
  788MOL0     N 6296   8.469   6.397   3.030  0.0809  0.6348 -0.3853
  788MOL0     C 6297   7.659   7.037   3.697 -1.0657 -0.6320  0.6040
  788MOL0     C 6298   7.597   7.029   3.822 -0.4411 -0.0231 -0.4024
  788MOL0     C 6299   7.475   6.831   4.248  0.0518 -0.3248 -0.3910
  788MOL0     C 6300   7.383   6.945   4.261 -0.0420 -1.0512 -0.8567
  788MOL0     C 6301   7.323   6.987   4.385  0.4863 -0.1140 -0.2169
  788MOL0     C 6302   7.358   6.909   4.495  0.1935 -0.9525 -0.4398
  788MOL0     O 6303   7.288   6.958   4.607  0.5519  0.4602 -0.2290
  788MOL0     C 6304   7.326   6.898   4.734  0.9290  0.3762  0.0144
  788MOL0     C 6305   7.210   6.942   4.820 -0.3089 -1.3838  0.3860
  788MOL0     C 6306   7.222   6.902   4.965  0.3377  0.5248 -0.8736
  788MOL0     C 6307   7.085   6.920   5.032  0.7160  0.8335 -0.3024
  788MOL0     C 6308   7.101   6.906   5.175  0.4645  0.4013  0.4734
  788MOL0     C 6309   7.113   6.897   5.291 -0.3334 -0.0515  0.1439
  788MOL0     C 6310   7.449   6.812   4.486 -0.1438 -0.1829 -0.5373
  788MOL0     C 6311   7.501   6.757   4.367  0.2596 -0.8375 -1.0570
  788MOL0     C 6312   7.590   6.642   4.381 -1.1640  0.4603 -0.1400
  788MOL0     H 6313   7.655   6.701   3.880 -1.3088 -1.0315 -1.3228
  788MOL0     H 6314   7.749   6.711   3.662  1.7948  0.2439 -1.4194
  788MOL0     H 6315   7.865   6.760   3.473 -0.5351 -0.7810 -0.0467
  788MOL0     H 6316   7.703   6.772   3.416 -0.0803 -0.0601 -0.8501
  788MOL0     H 6317   7.781   6.940   3.258 -4.4452 -1.7364  3.4255
  788MOL0     H 6318   7.848   6.781   3.225 -1.7180  0.3514 -0.9225
  788MOL0     H 6319   8.028   6.902   3.413 -1.7078  0.4777  0.8776
  788MOL0     H 6320   7.991   7.027   3.289  2.8515  0.7219 -3.3094
  788MOL0     H 6321   8.064   6.739   3.234 -0.7408 -0.1877  0.3958
  788MOL0     H 6322   8.059   6.872   3.116  0.8331  0.7120 -0.1939
  788MOL0     H 6323   8.246   6.984   3.264 -0.6882 -0.3680  0.6624
  788MOL0     H 6324   8.267   6.822   3.346  2.5099  2.7040  1.3671
  788MOL0     H 6325   8.299   6.879   3.051  1.0762 -1.6419 -0.1907
  788MOL0     H 6326   8.428   6.875   3.167  0.8416 -4.2418  3.2179
  788MOL0     H 6327   8.241   6.646   3.094  1.4511 -2.8809 -1.2739
  788MOL0     H 6328   8.379   6.643   3.218 -1.8279  1.0562  0.6633
  788MOL0     H 6329   8.422   6.729   2.935 -2.8282  3.4846  2.3032
  788MOL0     H 6330   8.538   6.676   3.063  0.6502  0.2304  0.2713
  788MOL0     H 6331   8.339   6.555   2.774  3.1273  0.6554 -1.0857
  788MOL0     H 6332   8.409   6.311   2.621  0.3891 -2.7069 -0.8088
  788MOL0     H 6333   8.358   6.176   2.721 -0.7793  0.1707 -1.1565
  788MOL0     H 6334   8.144   6.256   2.766  0.2672  4.2950  2.9979
  788MOL0     H 6335   8.172   6.405   2.684 -1.2683 -0.5874  1.6820
  788MOL0     H 6336   8.058   6.202   2.557  0.3521 -1.4093  1.9145
  788MOL0     H 6337   8.213   6.116   2.571  0.4533  0.4883  2.0361
  788MOL0     H 6338   8.195   6.212   2.351  1.3820 -2.8138  1.3687
  788MOL0     H 6339   8.326   6.300   2.418 -0.2007 -1.3389  1.1990
  788MOL0     H 6340   8.045   6.228   2.217  0.4557  0.6275 -2.7402
  788MOL0     H 6341   7.812   6.251   2.161 -0.7462  1.5376 -0.2130
  788MOL0     H 6342   7.437   6.168   2.204  1.1968 -1.1904  0.1955
  788MOL0     H 6343   7.204   6.151   2.137  1.6540 -1.9044 -3.0410
  788MOL0     H 6344   6.992   6.166   2.062 -2.4920 -0.1670  3.4303
  788MOL0     H 6345   7.000   6.308   2.159 -0.1416 -1.2320  0.3827
  788MOL0     H 6346   6.835   6.257   1.895  0.5404 -0.8210  0.1516
  788MOL0     H 6347   6.781   6.239   2.058  1.5851 -2.9084 -0.3561
  788MOL0     H 6348   6.892   6.510   1.975  0.4429 -0.9864 -0.3701
  788MOL0     H 6349   6.713   6.460   1.946 -1.1463 -1.6136  3.0342
  788MOL0     H 6350   6.873   6.497   2.189  0.2106 -1.0066 -1.5133
  788MOL0     H 6351   6.701   6.436   2.186 -0.2022  2.8643  1.5572
  788MOL0     H 6352   6.710   6.672   2.267 -2.5351 -0.2769  1.0816
  788MOL0     H 6353   6.607   6.657   2.131 -1.2699 -2.5352  2.1489
  788MOL0     H 6354   6.808   6.702   1.989  2.3441 -1.1800  0.5541
  788MOL0     H 6355   6.737   6.839   2.091 -1.2197 -0.6756  2.2461
  788MOL0     H 6356   7.008   6.710   2.098 -0.6895 -1.1107 -1.2665
  788MOL0     H 6357   6.926   6.759   2.252  0.4843 -0.1922 -0.8200
  788MOL0     H 6358   6.919   6.982   2.154  0.7881  1.7529 -2.1203
  788MOL0     H 6359   7.089   6.930   2.116  0.1883  2.3024 -2.3426
  788MOL0     H 6360   7.241   6.501   1.888 -1.2923 -0.8850 -0.4261
  788MOL0     H 6361   7.478   6.523   1.971  0.4338  0.1030  0.8651
  788MOL0     H 6362   7.769   6.604   2.414  1.0488  2.4304  0.3022
  788MOL0     H 6363   7.998   6.570   2.477  0.9291 -0.6650  0.4173
  788MOL0     H 6364   7.660   7.130   3.642 -0.2878 -0.2896  1.1617
  788MOL0     H 6365   7.557   7.114   3.877 -1.4593 -1.5711  1.4009
  788MOL0     H 6366   7.358   7.008   4.176  0.5458 -0.2956 -0.4852
  788MOL0     H 6367   7.244   7.061   4.377  0.5809 -0.2049 -3.7083
  788MOL0     H 6368   7.422   6.934   4.771  0.8113 -0.1515  0.8442
  788MOL0     H 6369   7.337   6.789   4.731 -0.9388  0.1153  1.1410
  788MOL0     H 6370   7.119   6.901   4.775 -1.3208  0.3007  0.8328
  788MOL0     H 6371   7.198   7.050   4.811 -1.4294 -1.3503  1.8907
  788MOL0     H 6372   7.305   6.944   5.023  2.2669 -4.1013  0.1547
  788MOL0     H 6373   7.238   6.794   4.970 -0.0658  0.3878 -2.1698
  788MOL0     H 6374   7.040   7.018   5.016 -0.8027  0.5514  1.8577
  788MOL0     H 6375   7.013   6.843   5.001  0.8716 -1.0833  3.5413
  788MOL0     H 6376   7.135   6.907   5.395 -1.0752  1.9797  0.1538
  788MOL0     H 6377   7.471   6.757   4.578 -0.2578 -1.2291 -1.1177
  788MOL0     H 6378   7.564   6.568   4.305  0.2488 -0.7879  0.5473
  788MOL0     H 6379   7.693   6.672   4.360 -0.6813 -1.9180 -1.5228
  788MOL0     H 6380   7.589   6.592   4.478  0.2522 -0.7588 -0.7063
  789MOL0     O 6381   4.327   5.812   0.924 -0.1522 -0.1710 -0.1389
  789MOL0     C 6382   4.331   5.917   0.987 -0.4901 -0.5054  0.1278
  789MOL0     O 6383   4.432   6.005   0.979 -0.1417  0.0962  0.0720
  789MOL0     C 6384   4.526   5.993   0.875  0.7341  0.5465  0.7034
  789MOL0     C 6385   4.658   6.007   0.887 -0.9484 -0.1385  0.2199
  789MOL0     C 6386   4.752   6.011   0.781  0.3669 -0.8478 -0.2507
  789MOL0     C 6387   4.704   6.008   0.649 -0.0557 -0.4481 -0.9348
  789MOL0     O 6388   4.789   6.022   0.542 -0.9768 -0.4544  0.2525
  789MOL0     C 6389   4.908   5.942   0.550 -0.3384  0.0700  0.3852
  789MOL0     C 6390   4.969   5.906   0.408 -0.5546 -0.6460  0.6512
  789MOL0     C 6391   5.117   5.863   0.430  1.2025  0.1707  0.4008
  789MOL0     C 6392   5.176   5.844   0.288  0.7901  1.3072  1.0456
  789MOL0     C 6393   5.332   5.850   0.305 -0.7281  0.4807  0.6459
  789MOL0     C 6394   5.428   5.827   0.182  0.3304  0.7537  0.5238
  789MOL0     C 6395   5.568   5.876   0.216 -0.1191  0.4495  0.3216
  789MOL0     C 6396   5.637   5.765   0.293  0.0445 -0.4825  0.2362
  789MOL0     N 6397   5.772   5.805   0.338 -0.3049  0.8226 -0.5989
  789MOL0     C 6398   5.816   5.844   0.458 -0.1166 -0.0480  0.3920
  789MOL0     C 6399   5.954   5.835   0.455 -0.1140 -0.3777  0.3852
  789MOL0     C 6400   6.050   5.886   0.558  0.1916 -0.0391  0.9432
  789MOL0     C 6401   5.994   5.991   0.663  0.1796 -1.2546  0.5364
  789MOL0     C 6402   5.957   6.121   0.587  0.0165 -0.2145 -0.3728
  789MOL0     C 6403   5.864   6.218   0.660 -0.7329 -0.8863  0.0655
  789MOL0     O 6404   5.734   6.186   0.625  0.0862 -0.1458  0.4486
  789MOL0     C 6405   5.625   6.256   0.677 -0.2725 -0.1782  1.3316
  789MOL0     C 6406   5.504   6.206   0.662  0.0097 -0.3414 -0.1401
  789MOL0     C 6407   5.395   6.259   0.731 -0.1528 -0.0030  0.0439
  789MOL0     C 6408   5.405   6.384   0.802  0.1739  0.5096  0.7564
  789MOL0     C 6409   5.281   6.460   0.847 -0.9303  0.2274 -0.2020
  789MOL0     O 6410   5.293   6.577   0.912  0.2791  0.0133 -0.1145
  789MOL0     C 6411   5.197   6.639   0.982 -0.2872  0.6995  1.1517
  789MOL0     C 6412   5.071   6.657   0.914 -0.9583 -0.2416 -0.0918
  789MOL0     C 6413   4.976   6.730   0.983 -0.4947 -0.2316  0.1898
  789MOL0     C 6414   5.004   6.807   1.102 -0.4850 -1.3612  0.3491
  789MOL0     O 6415   4.899   6.879   1.161 -0.2476  0.7028 -0.2680
  789MOL0     C 6416   4.945   6.977   1.254  0.1443 -0.5706 -0.8189
  789MOL0     C 6417   4.830   7.070   1.277  0.2002 -0.8161 -0.5711
  789MOL0     C 6418   4.712   6.997   1.334 -0.6427 -0.3739  0.0972
  789MOL0     C 6419   4.602   7.097   1.360  0.6077  0.0802 -1.0938
  789MOL0     C 6420   4.466   7.037   1.402 -0.1459  0.7203 -0.5435
  789MOL0     C 6421   4.419   6.926   1.298  0.2759 -0.1061  0.8689
  789MOL0     C 6422   4.275   6.879   1.323  1.4327 -0.4143 -0.0399
  789MOL0     C 6423   4.242   6.817   1.464  0.4422 -0.0180  0.1529
  789MOL0    Cl 6424   4.086   6.738   1.464  0.5161 -0.5176 -0.3769
  789MOL0     C 6425   5.134   6.787   1.165  0.4142 -0.3520 -0.0618
  789MOL0     C 6426   5.220   6.698   1.107  1.1032 -0.6894  0.7681
  789MOL0     O 6427   5.182   6.404   0.813 -0.3359  0.3825  0.7946
  789MOL0     C 6428   5.533   6.451   0.806 -0.3088  0.1050 -0.1764
  789MOL0     C 6429   5.640   6.378   0.749  1.1496  0.3822 -0.1583
  789MOL0     N 6430   5.987   5.794   0.329  0.3051 -0.4571  1.4189
  789MOL0     N 6431   5.881   5.776   0.260 -0.1612 -0.0694 -0.0019
  789MOL0     C 6432   4.565   6.018   0.626 -0.3255  0.0963  0.2834
  789MOL0     C 6433   4.482   6.006   0.739  0.9169  0.5969  0.3176
  789MOL0     C 6434   4.229   5.942   1.095  0.2891  0.4608 -0.0447
  789MOL0     C 6435   4.143   5.840   1.112 -0.2754  0.1109 -0.0754
  789MOL0     C 6436   4.036   5.853   1.202  0.0524 -0.4382  0.7427
  789MOL0     C 6437   4.012   5.962   1.278 -0.4266  0.0117  0.4604
  789MOL0     O 6438   3.920   5.943   1.376 -0.4940  0.2410 -0.0816
  789MOL0     C 6439   3.942   6.029   1.490  0.1456 -0.7845  0.5719
  789MOL0     C 6440   4.065   5.985   1.578  0.9917  0.0266 -0.2449
  789MOL0     C 6441   4.037   5.845   1.648  0.2586 -0.5341  0.3420
  789MOL0     C 6442   4.144   5.792   1.745  0.2648 -0.6288 -0.0793
  789MOL0     C 6443   4.176   5.901   1.846  0.1345 -0.0704 -0.6130
  789MOL0     C 6444   4.198   5.987   1.933 -0.5139  0.2530  0.5503
  789MOL0     C 6445   4.102   6.063   1.267 -0.9662  0.0114  0.6059
  789MOL0     C 6446   4.211   6.060   1.173  0.7266  0.5308 -0.2204
  789MOL0     C 6447   4.305   6.182   1.174  0.0207 -0.4909  1.1600
  789MOL0     H 6448   4.705   5.996   0.984 -1.8775 -2.0908  0.5134
  789MOL0     H 6449   4.859   6.011   0.798  0.4950  1.4154 -0.8080
  789MOL0     H 6450   4.985   5.994   0.607 -1.4806 -0.9846  3.0339
  789MOL0     H 6451   4.887   5.845   0.595 -0.4710 -0.3362 -0.5271
  789MOL0     H 6452   4.974   5.997   0.347  1.3857 -0.6266  0.7690
  789MOL0     H 6453   4.903   5.830   0.365  1.7379 -3.3054  1.5561
  789MOL0     H 6454   5.122   5.780   0.500  0.1259 -0.0566  0.2322
  789MOL0     H 6455   5.175   5.940   0.481 -1.7661  1.5715  1.9109
  789MOL0     H 6456   5.157   5.741   0.256  1.8959  1.5437 -0.4897
  789MOL0     H 6457   5.132   5.916   0.219 -0.5989 -0.0283  0.4870
  789MOL0     H 6458   5.366   5.937   0.362 -1.8709  0.2898  1.6609
  789MOL0     H 6459   5.354   5.764   0.369  0.1660  0.5936  0.5050
  789MOL0     H 6460   5.416   5.722   0.156 -1.1822  0.6142  1.6942
  789MOL0     H 6461   5.409   5.891   0.096  3.2790  2.0806  0.7275
  789MOL0     H 6462   5.574   5.959   0.287  1.7731 -0.8314  1.7845
  789MOL0     H 6463   5.633   5.886   0.129 -0.1817  0.4857  0.2806
  789MOL0     H 6464   5.578   5.746   0.383 -1.4941 -1.7775 -0.9986
  789MOL0     H 6465   5.641   5.670   0.239 -0.9102 -1.6946  2.1763
  789MOL0     H 6466   5.755   5.866   0.545  0.5749 -1.4824  1.2713
  789MOL0     H 6467   6.074   5.797   0.617  1.4233  0.5505  1.3654
  789MOL0     H 6468   6.143   5.923   0.514  0.6534  1.2182  2.8654
  789MOL0     H 6469   5.897   5.957   0.699 -2.5559  1.3304 -3.4435
  789MOL0     H 6470   6.073   6.001   0.738  0.2459 -1.2067  0.4614
  789MOL0     H 6471   5.915   6.095   0.489 -1.9502 -1.4582  0.7466
  789MOL0     H 6472   6.045   6.186   0.574  0.2283 -0.0461  1.5696
  789MOL0     H 6473   5.881   6.312   0.607 -1.8157 -0.8018 -0.1600
  789MOL0     H 6474   5.888   6.208   0.767 -0.2556 -1.5197 -0.0952
  789MOL0     H 6475   5.482   6.121   0.597 -0.7797 -0.8176  0.7227
  789MOL0     H 6476   5.304   6.201   0.744 -0.3935  0.2776 -0.4033
  789MOL0     H 6477   5.062   6.615   0.814 -4.5890 -3.7522  1.4567
  789MOL0     H 6478   4.880   6.756   0.939 -0.5193 -0.3748  0.1612
  789MOL0     H 6479   4.980   6.930   1.346  0.3744  0.9225 -0.1124
  789MOL0     H 6480   5.030   7.031   1.212  1.5324 -2.7046 -0.9251
  789MOL0     H 6481   4.857   7.149   1.348  0.0064 -1.7353  0.5532
  789MOL0     H 6482   4.804   7.122   1.185  2.9908  0.2418 -0.8802
  789MOL0     H 6483   4.677   6.926   1.258 -0.3885  0.4577 -0.8314
  789MOL0     H 6484   4.729   6.945   1.428 -3.4020  2.2632  2.2342
  789MOL0     H 6485   4.588   7.149   1.265 -0.8953  3.2077  0.7175
  789MOL0     H 6486   4.633   7.172   1.434  0.1292 -0.9762  0.2197
  789MOL0     H 6487   4.383   7.109   1.403 -0.5671  0.3085 -2.4621
  789MOL0     H 6488   4.489   6.998   1.502  1.0694  2.3945 -0.1187
  789MOL0     H 6489   4.435   6.972   1.200  3.7356  0.8156  1.7225
  789MOL0     H 6490   4.477   6.836   1.323  0.7178  0.2672  1.2136
  789MOL0     H 6491   4.245   6.806   1.247 -0.4247 -1.5182  1.6418
  789MOL0     H 6492   4.220   6.972   1.304  1.2293 -0.6331 -0.5548
  789MOL0     H 6493   4.320   6.742   1.480 -2.5050 -3.2003  0.7928
  789MOL0     H 6494   4.234   6.904   1.529 -3.1487  2.3294 -2.9543
  789MOL0     H 6495   5.161   6.840   1.255 -1.4078  2.1885 -0.9164
  789MOL0     H 6496   5.316   6.686   1.155  0.1723 -1.5691  2.4906
  789MOL0     H 6497   5.539   6.546   0.858  2.0433 -0.1600  0.1487
  789MOL0     H 6498   5.745   6.399   0.766  2.3294 -1.7103 -3.7484
  789MOL0     H 6499   4.535   6.019   0.521  2.3881 -2.8172 -0.6766
  789MOL0     H 6500   4.374   6.004   0.734  0.8075 -2.9750  1.3373
  789MOL0     H 6501   4.146   5.748   1.054 -0.8153 -0.0231  0.0984
  789MOL0     H 6502   3.956   5.779   1.205 -2.5568  2.1507  0.4768
  789MOL0     H 6503   3.847   6.024   1.544 -0.2533 -0.8898 -0.1319
  789MOL0     H 6504   3.940   6.136   1.469 -3.2464 -0.7542  0.5569
  789MOL0     H 6505   4.081   6.057   1.659  1.5847  1.7252 -1.7736
  789MOL0     H 6506   4.156   5.986   1.516  0.9584 -2.7625 -0.4618
  789MOL0     H 6507   4.015   5.771   1.571  2.7584  0.9810 -1.9805
  789MOL0     H 6508   3.952   5.877   1.709  1.7691  2.1493  1.2004
  789MOL0     H 6509   4.102   5.704   1.794 -0.3479 -0.9851 -1.2249
  789MOL0     H 6510   4.234   5.767   1.688 -0.0058 -0.1515 -0.7190
  789MOL0     H 6511   4.228   6.058   2.007 -1.3583 -1.3923  2.5782
  789MOL0     H 6512   4.101   6.147   1.336  0.5220 -1.0421  1.9767
  789MOL0     H 6513   4.320   6.205   1.069 -1.0280 -2.6138  0.4906
  789MOL0     H 6514   4.250   6.269   1.211  1.0281  1.5892 -1.9377
  789MOL0     H 6515   4.407   6.173   1.211  1.4218 -0.4223 -2.3997
  790MOL0     O 6516   1.819   5.791   1.885 -0.1114 -0.2942  0.6013
  790MOL0     C 6517   1.936   5.765   1.850 -0.8049 -1.0720 -0.6269
  790MOL0     O 6518   1.970   5.669   1.758 -0.1756 -0.1519 -1.1621
  790MOL0     C 6519   1.877   5.610   1.673 -0.0269  0.2497 -0.2074
  790MOL0     C 6520   1.754   5.557   1.716  0.1953  0.3650  0.0688
  790MOL0     C 6521   1.656   5.504   1.630  0.0365 -0.8769  0.6494
  790MOL0     C 6522   1.688   5.483   1.492  0.4422 -0.4471 -0.1852
  790MOL0     O 6523   1.596   5.457   1.392  0.9514  0.7812 -0.2221
  790MOL0     C 6524   1.463   5.423   1.436  0.0529 -0.6504 -0.9422
  790MOL0     C 6525   1.378   5.412   1.316 -0.7861 -0.6052 -0.0798
  790MOL0     C 6526   1.238   5.350   1.342  0.1155 -1.3992 -0.0613
  790MOL0     C 6527   1.144   5.385   1.221 -0.0358  0.0478  0.4518
  790MOL0     C 6528   1.002   5.341   1.272  0.2885  0.1683 -0.5215
  790MOL0     C 6529   0.886   5.393   1.177 -0.1715  0.9268 -0.4133
  790MOL0     C 6530   0.746   5.349   1.228 -0.3950  1.5711 -1.7242
  790MOL0     C 6531   0.633   5.402   1.143 -0.3882 -0.3255 -1.3609
  790MOL0     N 6532   0.654   5.356   1.003 -0.5571 -0.6096  0.9075
  790MOL0     C 6533   0.582   5.259   0.942 -0.1053 -0.0930 -0.3254
  790MOL0     C 6534   0.612   5.271   0.810 -0.3446 -0.1433  0.1975
  790MOL0     C 6535   0.564   5.182   0.697 -0.1191 -0.2506  0.2777
  790MOL0     C 6536   0.618   5.035   0.724 -0.1573 -0.8967  0.0191
  790MOL0     C 6537   0.525   4.947   0.811 -0.3626 -0.3812  0.2257
  790MOL0     C 6538   0.609   4.835   0.872  0.9099 -0.7753  0.1729
  790MOL0     O 6539   0.735   4.864   0.938  1.1594 -0.2486  0.7769
  790MOL0     C 6540   0.779   4.777   1.037  1.1717  0.9460  0.5448
  790MOL0     C 6541   0.857   4.827   1.131 -0.7977  0.0105 -0.7808
  790MOL0     C 6542   0.882   4.759   1.246 -0.3051  1.5983  0.0372
  790MOL0     C 6543   0.839   4.623   1.265 -0.1592 -0.3328  0.1769
  790MOL0     C 6544   0.862   4.550   1.391  0.5422  0.4433  1.4759
  790MOL0     O 6545   0.827   4.420   1.397  0.1971 -0.7615 -0.3299
  790MOL0     C 6546   0.814   4.359   1.517  0.1267 -0.0833  0.3350
  790MOL0     C 6547   0.690   4.336   1.569 -0.5558  1.4773  0.8854
  790MOL0     C 6548   0.666   4.304   1.704 -0.3285  0.4046 -0.3055
  790MOL0     C 6549   0.778   4.293   1.788 -0.4425  0.0330  0.5628
  790MOL0     O 6550   0.756   4.281   1.924  0.1908  0.3730  0.1486
  790MOL0     C 6551   0.868   4.241   1.999  0.5311  0.2704 -0.3715
  790MOL0     C 6552   0.830   4.215   2.150  0.8568  0.9455 -0.6402
  790MOL0     C 6553   0.772   4.072   2.153 -0.2879  0.0345 -0.0693
  790MOL0     C 6554   0.751   4.030   2.290  0.6702 -0.5674 -0.9144
  790MOL0     C 6555   0.870   3.970   2.360  0.7381 -0.6075  0.4271
  790MOL0     C 6556   0.832   3.916   2.505  0.3268 -0.2626 -1.3581
  790MOL0     C 6557   0.791   3.777   2.546  0.5318  1.0022 -0.5273
  790MOL0     C 6558   0.912   3.683   2.520  0.1050 -0.5328  0.0851
  790MOL0    Cl 6559   0.847   3.513   2.546  0.0315 -0.3593  0.0310
  790MOL0     C 6560   0.903   4.311   1.737  0.0860 -0.0250 -0.1864
  790MOL0     C 6561   0.921   4.357   1.606 -1.2142 -0.5222 -0.1906
  790MOL0     O 6562   0.896   4.624   1.482 -0.0608 -0.2885 -0.2483
  790MOL0     C 6563   0.767   4.564   1.157 -1.2052 -0.7591 -0.5166
  790MOL0     C 6564   0.744   4.639   1.046  0.4477  0.7206  1.7206
  790MOL0     N 6565   0.704   5.376   0.795  0.5635  0.2761  0.0940
  790MOL0     N 6566   0.729   5.425   0.906 -0.3207  0.1510 -0.6918
  790MOL0     C 6567   1.814   5.515   1.451 -0.2460  0.5929 -0.6783
  790MOL0     C 6568   1.907   5.586   1.536  0.7303 -1.4435  0.5021
  790MOL0     C 6569   2.038   5.854   1.926  0.5109 -0.5950 -0.0842
  790MOL0     C 6570   1.997   5.974   1.987  0.6021  0.2383  0.1262
  790MOL0     C 6571   2.094   6.053   2.053  0.1874  0.6333 -0.5299
  790MOL0     C 6572   2.230   6.021   2.043 -0.1757 -0.4434  0.5029
  790MOL0     O 6573   2.313   6.121   2.088 -0.0026  0.5806  0.6145
  790MOL0     C 6574   2.448   6.118   2.051  0.1963 -0.6021 -0.0491
  790MOL0     C 6575   2.461   6.161   1.901 -0.9099  0.2470  0.6089
  790MOL0     C 6576   2.391   6.297   1.868 -0.3011  0.0245  0.0499
  790MOL0     C 6577   2.471   6.409   1.941  0.5713 -0.6590  0.9160
  790MOL0     C 6578   2.395   6.524   1.892  0.5214 -0.2895 -0.4946
  790MOL0     C 6579   2.334   6.616   1.842 -0.6111 -0.3602 -0.4521
  790MOL0     C 6580   2.270   5.905   1.988 -0.7273 -0.0171 -0.2670
  790MOL0     C 6581   2.177   5.824   1.925  0.1163  1.0375  0.2548
  790MOL0     C 6582   2.227   5.700   1.861 -0.4238  0.0309 -0.2063
  790MOL0     H 6583   1.732   5.565   1.822 -1.3676  1.8971 -0.3242
  790MOL0     H 6584   1.565   5.464   1.676  0.3905 -2.9417 -0.3117
  790MOL0     H 6585   1.470   5.323   1.479 -0.5137  0.2988  1.5802
  790MOL0     H 6586   1.431   5.508   1.498  1.9384  0.1947 -1.0658
  790MOL0     H 6587   1.428   5.353   1.238 -3.1862  1.8784 -3.8636
  790MOL0     H 6588   1.361   5.515   1.283  3.8789  1.1016  1.9904
  790MOL0     H 6589   1.187   5.408   1.419 -1.6026 -0.4789 -1.7989
  790MOL0     H 6590   1.232   5.243   1.365 -1.5239 -1.5657 -1.0811
  790MOL0     H 6591   1.132   5.493   1.206 -1.3194 -0.2861 -1.1114
  790MOL0     H 6592   1.176   5.344   1.125  1.6656 -0.7494  1.3164
  790MOL0     H 6593   1.005   5.234   1.295  3.0797  0.1389 -0.6898
  790MOL0     H 6594   0.971   5.391   1.365 -2.5788 -0.9797 -0.7636
  790MOL0     H 6595   0.894   5.502   1.179  0.7582  0.9209 -2.1153
  790MOL0     H 6596   0.911   5.357   1.077  0.3912 -0.8317  0.3021
  790MOL0     H 6597   0.726   5.360   1.335 -1.5258 -1.7120 -1.4743
  790MOL0     H 6598   0.752   5.240   1.213  0.3379  1.2799  0.4333
  790MOL0     H 6599   0.537   5.372   1.187 -0.1366  0.3663 -0.3063
  790MOL0     H 6600   0.637   5.511   1.150 -1.9972 -0.3325  0.4149
  790MOL0     H 6601   0.513   5.195   0.996 -1.7117  1.2890 -0.6747
  790MOL0     H 6602   0.456   5.173   0.681  0.0887  1.5500 -3.2310
  790MOL0     H 6603   0.581   5.225   0.598 -0.2723 -0.4175  0.1768
  790MOL0     H 6604   0.622   4.992   0.623  0.9763 -1.4833  0.2951
  790MOL0     H 6605   0.721   5.038   0.760 -1.1762  2.9009  3.2629
  790MOL0     H 6606   0.434   4.904   0.767 -1.5599  1.4235  0.8344
  790MOL0     H 6607   0.489   5.008   0.894 -4.0098  0.6049 -1.8879
  790MOL0     H 6608   0.631   4.769   0.788 -1.4749  1.4565 -2.4308
  790MOL0     H 6609   0.543   4.778   0.939  0.9038 -0.4233  0.4688
  790MOL0     H 6610   0.893   4.929   1.117 -2.1872  0.5388 -0.6235
  790MOL0     H 6611   0.927   4.802   1.335 -1.1641  0.7879  0.8824
  790MOL0     H 6612   0.606   4.332   1.500 -1.2239  3.2978  1.5389
  790MOL0     H 6613   0.564   4.287   1.738  0.3322  0.6406  1.9842
  790MOL0     H 6614   0.917   4.152   1.959 -5.9176 -3.0801 -2.1883
  790MOL0     H 6615   0.936   4.324   2.017  1.4189 -0.7106  0.9835
  790MOL0     H 6616   0.918   4.208   2.214  1.7274  0.9362 -1.7952
  790MOL0     H 6617   0.764   4.286   2.199  1.6087  0.0025  1.8743
  790MOL0     H 6618   0.675   4.081   2.104 -1.4215  0.5470  2.1096
  790MOL0     H 6619   0.845   4.014   2.096  3.3106  5.0605 -1.2046
  790MOL0     H 6620   0.686   3.944   2.273  2.3396 -1.7513 -1.5912
  790MOL0     H 6621   0.695   4.094   2.359 -0.4778 -1.5172 -0.9259
  790MOL0     H 6622   0.941   4.052   2.376 -1.3381  1.1470  1.1508
  790MOL0     H 6623   0.910   3.889   2.299  2.8597  0.3158  0.4984
  790MOL0     H 6624   0.928   3.929   2.556  1.8322 -1.5227 -3.7005
  790MOL0     H 6625   0.765   3.986   2.556 -0.4336 -0.4394 -2.1018
  790MOL0     H 6626   0.708   3.755   2.478 -0.1438 -1.6470  1.0502
  790MOL0     H 6627   0.754   3.775   2.648 -0.7897  0.5545 -1.0007
  790MOL0     H 6628   0.951   3.704   2.420 -3.2509  1.3678 -0.9664
  790MOL0     H 6629   0.994   3.703   2.591 -0.0356 -0.5802  0.2630
  790MOL0     H 6630   0.996   4.307   1.794 -0.5672 -2.5870  0.8459
  790MOL0     H 6631   1.012   4.409   1.581  0.0278 -2.2028  0.6464
  790MOL0     H 6632   0.726   4.464   1.167 -2.4342 -0.1679  0.6608
  790MOL0     H 6633   0.676   4.607   0.967  2.0146  0.2128  0.5294
  790MOL0     H 6634   1.850   5.503   1.349  1.0292  1.2891 -0.3367
  790MOL0     H 6635   2.002   5.620   1.496  1.5959 -4.3753 -0.2133
  790MOL0     H 6636   1.897   6.014   1.999  1.4397  2.4477  0.1144
  790MOL0     H 6637   2.052   6.138   2.106 -2.4999  0.1017 -1.6699
  790MOL0     H 6638   2.502   6.028   2.082 -3.7313 -2.7822  1.2198
  790MOL0     H 6639   2.495   6.202   2.104  1.4022 -0.1499 -1.7547
  790MOL0     H 6640   2.410   6.078   1.853 -1.3846 -0.6737  2.6116
  790MOL0     H 6641   2.567   6.169   1.876 -1.2692 -0.6136 -1.3498
  790MOL0     H 6642   2.288   6.302   1.906 -0.0774 -3.4638  1.5606
  790MOL0     H 6643   2.385   6.316   1.761 -4.4141 -0.2857  0.0480
  790MOL0     H 6644   2.459   6.401   2.050 -2.5653  1.0242  0.8025
  790MOL0     H 6645   2.573   6.418   1.904 -0.2499  4.9874 -0.8931
  790MOL0     H 6646   2.312   6.700   1.780  4.2373  3.1900  1.9499
  790MOL0     H 6647   2.377   5.891   1.982 -0.9500 -1.4386 -1.3922
  790MOL0     H 6648   2.334   5.694   1.880 -0.2066  1.8531 -0.6068
  790MOL0     H 6649   2.167   5.615   1.895 -0.5007  1.0703  2.4882
  790MOL0     H 6650   2.230   5.697   1.751  3.1113  1.3568 -0.2822
  791MOL0     O 6651   1.518  11.401   7.624 -0.2071  0.3668 -0.8247
  791MOL0     C 6652   1.537  11.417   7.502  0.2437 -0.6122 -0.0054
  791MOL0     O 6653   1.480  11.511   7.417 -1.1102 -0.1220 -0.1273
  791MOL0     C 6654   1.450  11.634   7.463 -0.6982  0.7709  0.6445
  791MOL0     C 6655   1.553  11.719   7.482 -1.6787 -0.3469 -0.1873
  791MOL0     C 6656   1.530  11.843   7.544 -0.0013 -0.5044  0.5199
  791MOL0     C 6657   1.403  11.883   7.592  0.7174  0.2128  0.4223
  791MOL0     O 6658   1.370  11.999   7.658 -0.1794 -0.1375  1.0528
  791MOL0     C 6659   1.481  12.090   7.678 -0.6294 -0.7200 -0.3232
  791MOL0     C 6660   1.432  12.226   7.714  1.4751  0.1647  1.6116
  791MOL0     C 6661   1.331  12.293   7.601 -0.1986  0.7462 -0.6321
  791MOL0     C 6662   1.394  12.275   7.456 -0.3967  0.7919 -0.2186
  791MOL0     C 6663   1.346  12.368   7.334 -0.0178  0.1512 -0.2907
  791MOL0     C 6664   1.189  12.390   7.334 -1.1432 -0.1046 -0.6317
  791MOL0     C 6665   1.111  12.271   7.285  0.1380  0.5247  0.6610
  791MOL0     C 6666   1.132  12.236   7.138  0.0265  0.2022 -0.6678
  791MOL0     N 6667   1.065  12.326   7.053 -0.1061  0.0529  0.4201
  791MOL0     C 6668   0.946  12.307   6.990  0.4351  0.6544  0.1215
  791MOL0     C 6669   0.947  12.404   6.889 -0.9444  0.7685 -0.1007
  791MOL0     C 6670   0.842  12.445   6.805  0.1954 -0.3586 -0.0758
  791MOL0     C 6671   0.877  12.436   6.655  0.3271  0.6075 -0.0584
  791MOL0     C 6672   0.752  12.463   6.566 -0.0606  0.3120 -0.6458
  791MOL0     C 6673   0.804  12.476   6.423 -0.2721  0.3711  1.0253
  791MOL0     O 6674   0.715  12.546   6.337  0.3499 -0.0765  0.0518
  791MOL0     C 6675   0.712  12.680   6.336 -0.3044 -1.0265  0.2375
  791MOL0     C 6676   0.616  12.750   6.268  0.9540  0.0137 -0.0685
  791MOL0     C 6677   0.612  12.892   6.259 -0.9298  0.4054 -0.1059
  791MOL0     C 6678   0.712  12.970   6.312  0.3700  0.5587  0.4488
  791MOL0     C 6679   0.710  13.121   6.295 -0.0892 -0.2621 -0.4295
  791MOL0     O 6680   0.788  13.188   6.385 -0.0672 -0.5025 -0.2560
  791MOL0     C 6681   0.769  13.326   6.371 -0.3446  0.1962 -0.1832
  791MOL0     C 6682   0.654  13.384   6.427 -0.0840 -0.3451 -0.6862
  791MOL0     C 6683   0.644  13.519   6.432 -0.6060  0.2681 -0.1970
  791MOL0     C 6684   0.743  13.604   6.381  0.5496 -0.6692 -0.0183
  791MOL0     O 6685   0.736  13.742   6.388 -0.3582  0.1386  0.7657
  791MOL0     C 6686   0.730  13.803   6.517  0.0357 -0.2525  0.0332
  791MOL0     C 6687   0.728  13.948   6.508 -0.1774  0.4413  1.1988
  791MOL0     C 6688   0.651  14.011   6.628  0.1983  0.0526  0.1930
  791MOL0     C 6689   0.697  14.166   6.650  0.7120 -0.1516  0.1245
  791MOL0     C 6690   0.630  14.220   6.778  0.1822  0.0756  0.0263
  791MOL0     C 6691   0.470  14.196   6.788 -0.4150 -0.5451 -0.1871
  791MOL0     C 6692   0.374  14.301   6.847  0.2100 -0.1818 -0.2750
  791MOL0     C 6693   0.373  14.428   6.770 -0.2894  0.4072  0.3195
  791MOL0    Cl 6694   0.253  14.543   6.839  0.3723  0.0173 -0.1478
  791MOL0     C 6695   0.852  13.544   6.315 -0.8294  0.4339 -0.3467
  791MOL0     C 6696   0.872  13.402   6.312 -0.0941 -0.0573  0.3252
  791MOL0     O 6697   0.625  13.162   6.218 -0.0060  0.9835  0.4613
  791MOL0     C 6698   0.805  12.909   6.393  0.5695 -0.3172  0.1631
  791MOL0     C 6699   0.803  12.766   6.412  0.4792  0.2259  0.4640
  791MOL0     N 6700   1.066  12.472   6.895 -0.0261 -0.8662  0.3250
  791MOL0     N 6701   1.135  12.425   6.994  0.1446 -0.0356  0.4752
  791MOL0     C 6702   1.300  11.786   7.580 -0.0502 -0.5047 -0.7822
  791MOL0     C 6703   1.318  11.669   7.510  0.0135  0.2357  0.2356
  791MOL0     C 6704   1.629  11.317   7.431 -0.3956 -0.3336 -0.6037
  791MOL0     C 6705   1.679  11.358   7.308 -0.1270 -0.0511 -0.9234
  791MOL0     C 6706   1.772  11.281   7.238  1.2159 -1.0701  0.8988
  791MOL0     C 6707   1.799  11.151   7.278  0.9790 -0.4277 -0.9190
  791MOL0     O 6708   1.887  11.068   7.212  0.9809 -0.2552  0.5814
  791MOL0     C 6709   1.961  11.139   7.107  0.4036 -0.3796  0.0511
  791MOL0     C 6710   2.064  11.044   7.056 -0.1817  0.5402 -0.0014
  791MOL0     C 6711   1.996  10.957   6.946  0.3087  0.4770  0.7680
  791MOL0     C 6712   2.085  10.835   6.891 -0.3101  0.3179 -0.9832
  791MOL0     C 6713   2.220  10.881   6.856 -0.4734 -0.5460 -1.2873
  791MOL0     C 6714   2.338  10.907   6.834  0.1344 -0.1855 -1.0261
  791MOL0     C 6715   1.756  11.100   7.403 -0.0877 -0.6205 -0.0592
  791MOL0     C 6716   1.675  11.194   7.479 -0.5982 -0.4261 -0.5128
  791MOL0     C 6717   1.626  11.130   7.595 -0.3221 -0.4959  0.1684
  791MOL0     H 6718   1.651  11.681   7.456 -2.7476 -2.6850 -1.0849
  791MOL0     H 6719   1.608  11.912   7.577 -0.2680  0.4702 -0.8062
  791MOL0     H 6720   1.553  12.042   7.745 -0.9470 -0.6790  0.0556
  791MOL0     H 6721   1.540  12.103   7.587  0.6327 -1.3135  0.3855
  791MOL0     H 6722   1.509  12.302   7.694 -0.4709  1.7181 -0.5659
  791MOL0     H 6723   1.392  12.220   7.815 -1.5341 -2.0645  0.4082
  791MOL0     H 6724   1.311  12.396   7.629 -3.6982  1.0092 -3.4227
  791MOL0     H 6725   1.231  12.248   7.606 -0.5756  1.3770 -2.0841
  791MOL0     H 6726   1.502  12.285   7.472 -0.1859 -1.4722  0.1146
  791MOL0     H 6727   1.381  12.172   7.422 -1.3077  0.8168  0.0208
  791MOL0     H 6728   1.390  12.466   7.350 -0.1071  0.4700 -1.8324
  791MOL0     H 6729   1.380  12.332   7.236 -2.5979 -1.5632 -0.6778
  791MOL0     H 6730   1.174  12.414   7.440  4.4616  1.0200  0.2447
  791MOL0     H 6731   1.162  12.475   7.270 -3.3736 -0.9405 -0.8879
  791MOL0     H 6732   1.006  12.292   7.305  0.4362  2.0386  0.6907
  791MOL0     H 6733   1.145  12.188   7.348 -0.2271  0.9426  1.4106
  791MOL0     H 6734   1.237  12.232   7.109  0.1825  3.2015 -0.8397
  791MOL0     H 6735   1.095  12.134   7.122 -0.6085  0.3426 -0.1273
  791MOL0     H 6736   0.864  12.251   7.033  3.4103 -1.3112  3.9981
  791MOL0     H 6737   0.753  12.382   6.819  0.0789 -0.4149 -0.9892
  791MOL0     H 6738   0.818  12.547   6.837 -0.2872 -1.2360  2.6787
  791MOL0     H 6739   0.958  12.508   6.639 -0.0709  0.6281 -2.1787
  791MOL0     H 6740   0.920  12.340   6.624 -0.2176  0.8764 -1.7426
  791MOL0     H 6741   0.712  12.562   6.592 -2.0397 -1.2895  3.3013
  791MOL0     H 6742   0.677  12.387   6.588  0.1354  0.8970  2.4646
  791MOL0     H 6743   0.818  12.372   6.393 -0.1559  0.8738 -0.7786
  791MOL0     H 6744   0.910  12.501   6.412 -0.5959  0.6044 -2.6906
  791MOL0     H 6745   0.532  12.695   6.227  0.4966 -1.0879  2.1983
  791MOL0     H 6746   0.526  12.939   6.213  0.4537  1.6522 -1.5311
  791MOL0     H 6747   0.589  13.314   6.478 -0.3721 -0.4136 -1.1457
  791MOL0     H 6748   0.560  13.563   6.484 -0.9018 -0.6910  0.1469
  791MOL0     H 6749   0.639  13.777   6.571 -2.1092  3.1168 -1.6496
  791MOL0     H 6750   0.806  13.771   6.590 -1.4746  0.3885  1.9866
  791MOL0     H 6751   0.832  13.982   6.513  0.8459 -1.8975 -1.5016
  791MOL0     H 6752   0.678  13.973   6.414  3.3326  0.6292 -0.7968
  791MOL0     H 6753   0.544  14.004   6.610  0.2094 -0.0183  0.1548
  791MOL0     H 6754   0.682  13.950   6.714  2.4409 -3.2506 -2.6762
  791MOL0     H 6755   0.650  14.224   6.570 -0.0768 -2.5996 -1.2938
  791MOL0     H 6756   0.806  14.172   6.646  0.7662 -1.4958 -2.7493
  791MOL0     H 6757   0.651  14.325   6.798 -1.6393  0.7123 -1.1830
  791MOL0     H 6758   0.683  14.170   6.860 -0.7521  3.3093  2.8236
  791MOL0     H 6759   0.431  14.170   6.689  0.7797  1.2153 -1.1653
  791MOL0     H 6760   0.465  14.105   6.849  1.3973 -1.2749 -1.0392
  791MOL0     H 6761   0.395  14.321   6.953 -0.3719 -1.9722  0.2252
  791MOL0     H 6762   0.271  14.264   6.839  0.4762 -0.7331 -1.2547
  791MOL0     H 6763   0.476  14.464   6.765  1.0579 -3.2345 -0.7077
  791MOL0     H 6764   0.328  14.407   6.672  0.1195 -1.1691  0.4428
  791MOL0     H 6765   0.935  13.594   6.266  1.0421 -0.3755  1.8087
  791MOL0     H 6766   0.952  13.344   6.267 -0.7999  0.8804 -2.3375
  791MOL0     H 6767   0.885  12.968   6.439  1.1130 -0.5856 -0.4210
  791MOL0     H 6768   0.882  12.742   6.483  0.6085 -1.2268 -0.1393
  791MOL0     H 6769   1.208  11.800   7.636 -1.2049 -0.7102 -2.5467
  791MOL0     H 6770   1.248  11.586   7.516  0.7568 -0.3271  1.4424
  791MOL0     H 6771   1.670  11.465   7.290 -2.9391  0.4934  2.5463
  791MOL0     H 6772   1.803  11.347   7.158  0.2129  0.4775  1.7394
  791MOL0     H 6773   2.011  11.221   7.160  0.2709 -1.1602  1.4510
  791MOL0     H 6774   1.888  11.169   7.032 -1.9662  0.6419  2.5761
  791MOL0     H 6775   2.109  10.987   7.138  4.9844  1.3070 -1.9210
  791MOL0     H 6776   2.156  11.075   7.006 -1.1946  0.2528 -2.1831
  791MOL0     H 6777   1.972  11.028   6.867 -2.3671 -1.0693  0.0397
  791MOL0     H 6778   1.905  10.908   6.982  2.4807 -2.1738  3.2182
  791MOL0     H 6779   2.082  10.755   6.966 -2.9137  0.9137 -0.3459
  791MOL0     H 6780   2.036  10.786   6.807  0.0123 -2.6118  0.3989
  791MOL0     H 6781   2.440  10.929   6.813  0.4227  1.0885  1.3106
  791MOL0     H 6782   1.794  11.010   7.450 -1.1966  0.3361  2.9144
  791MOL0     H 6783   1.654  11.025   7.594 -3.8434 -1.6009  1.2066
  791MOL0     H 6784   1.654  11.186   7.685  1.3601 -3.5802  1.6899
  791MOL0     H 6785   1.516  11.128   7.599 -0.3606 -1.5424 -0.8351
  792MOL0     O 6786   4.089   3.696   7.796  0.0034  0.4087 -0.4207
  792MOL0     C 6787   3.984   3.668   7.863 -0.8868  0.4835  0.0125
  792MOL0     O 6788   3.967   3.546   7.924  0.5356 -0.9631 -0.0797
  792MOL0     C 6789   4.038   3.437   7.884 -0.5872  0.6973 -0.7805
  792MOL0     C 6790   3.988   3.375   7.771 -0.2048 -0.1903  0.4747
  792MOL0     C 6791   4.020   3.246   7.734  0.4922 -0.4500  0.6384
  792MOL0     C 6792   4.118   3.177   7.813 -0.6293  0.1734 -0.3831
  792MOL0     O 6793   4.163   3.048   7.790 -0.4793 -0.0813 -0.2057
  792MOL0     C 6794   4.079   2.945   7.737 -0.6113 -0.4431 -0.7151
  792MOL0     C 6795   4.088   2.944   7.586  0.2349 -0.1497 -0.0206
  792MOL0     C 6796   4.000   2.831   7.512  0.0951  0.5050 -0.2986
  792MOL0     C 6797   4.050   2.824   7.369  0.6746  0.4474  0.5688
  792MOL0     C 6798   3.965   2.739   7.273  0.5622 -0.7297  0.3072
  792MOL0     C 6799   3.946   2.591   7.299 -0.5367 -0.1252 -0.2359
  792MOL0     C 6800   4.082   2.517   7.274  0.3284  0.0802  0.1749
  792MOL0     C 6801   4.067   2.378   7.321  0.1754  1.0611  0.0919
  792MOL0     N 6802   4.198   2.311   7.344  0.1304 -0.4267  0.6199
  792MOL0     C 6803   4.292   2.338   7.438 -0.5050  0.1720 -0.0480
  792MOL0     C 6804   4.402   2.254   7.410  0.3694  0.0238  0.2455
  792MOL0     C 6805   4.538   2.238   7.486 -0.1928  0.1343 -0.2452
  792MOL0     C 6806   4.637   2.355   7.455  0.4207  0.0900  0.5520
  792MOL0     C 6807   4.611   2.472   7.550  0.1871  0.4852  0.0539
  792MOL0     C 6808   4.678   2.608   7.489 -0.0525  0.0838 -0.7721
  792MOL0     O 6809   4.670   2.723   7.580  0.1619  0.7767  0.4602
  792MOL0     C 6810   4.593   2.821   7.530 -0.5181 -1.0043 -0.4460
  792MOL0     C 6811   4.514   2.889   7.624  0.5230  1.3083 -0.7554
  792MOL0     C 6812   4.440   3.005   7.597  0.0010 -0.0329  0.0893
  792MOL0     C 6813   4.454   3.065   7.472 -0.2142 -0.5006  0.8623
  792MOL0     C 6814   4.380   3.183   7.434  0.6360  0.5988  0.3837
  792MOL0     O 6815   4.275   3.232   7.516  0.1982 -0.1825 -0.2362
  792MOL0     C 6816   4.199   3.329   7.453  0.2609  0.4310 -0.9555
  792MOL0     C 6817   4.110   3.302   7.351 -0.2085  0.5457 -1.1071
  792MOL0     C 6818   4.010   3.395   7.309 -0.4031  0.0157 -0.0449
  792MOL0     C 6819   4.023   3.524   7.362 -0.8304 -0.3122  0.0336
  792MOL0     O 6820   3.933   3.612   7.309  0.6144 -0.3245  0.1717
  792MOL0     C 6821   3.986   3.745   7.309 -0.2210 -0.6299  0.0105
  792MOL0     C 6822   3.893   3.843   7.242  0.5482 -0.9111  1.2210
  792MOL0     C 6823   3.880   3.808   7.091  0.0322  0.1329  0.1122
  792MOL0     C 6824   3.794   3.910   7.027 -0.4108  0.2165 -0.1805
  792MOL0     C 6825   3.875   4.034   6.997 -1.0437  0.5360  0.1972
  792MOL0     C 6826   3.788   4.144   6.937 -0.0828 -0.0708 -0.6725
  792MOL0     C 6827   3.879   4.257   6.865  0.2751  0.3612  0.2584
  792MOL0     C 6828   3.791   4.366   6.818 -0.0799 -0.9565  0.0439
  792MOL0    Cl 6829   3.659   4.285   6.723  0.3449  0.0709 -0.2247
  792MOL0     C 6830   4.118   3.554   7.471 -0.2272 -0.1863  0.5430
  792MOL0     C 6831   4.195   3.453   7.514  0.6585  0.1688  0.3089
  792MOL0     O 6832   4.401   3.230   7.322 -0.1974  0.1076 -0.0001
  792MOL0     C 6833   4.538   3.008   7.373 -0.1899 -0.1732  0.9901
  792MOL0     C 6834   4.608   2.887   7.408  0.1261 -0.2379 -1.3029
  792MOL0     N 6835   4.362   2.180   7.292 -0.2668 -0.7068 -0.9307
  792MOL0     N 6836   4.247   2.213   7.265  0.3334 -0.0326  0.2352
  792MOL0     C 6837   4.170   3.239   7.924 -1.2275  0.3993 -0.2418
  792MOL0     C 6838   4.132   3.365   7.962 -0.5017 -0.7849 -0.3175
  792MOL0     C 6839   3.879   3.770   7.883  0.3254  0.4164 -1.9342
  792MOL0     C 6840   3.739   3.740   7.874  0.2798 -0.2120 -0.0667
  792MOL0     C 6841   3.638   3.828   7.911 -0.4349  0.3892  0.6294
  792MOL0     C 6842   3.670   3.952   7.964 -0.5047  0.2074  0.4392
  792MOL0     O 6843   3.589   4.038   8.023 -0.2184  0.1714 -0.2609
  792MOL0     C 6844   3.450   4.012   8.031 -0.6772 -0.1694 -1.1412
  792MOL0     C 6845   3.369   4.025   7.911 -0.8042  0.8107  0.7680
  792MOL0     C 6846   3.339   4.172   7.866  0.2797  0.6461 -0.4143
  792MOL0     C 6847   3.242   4.185   7.746  0.1579 -0.0401 -0.7739
  792MOL0     C 6848   3.256   4.325   7.703 -0.2345  0.2761  0.4498
  792MOL0     C 6849   3.278   4.443   7.675  0.0794  0.3900  1.2210
  792MOL0     C 6850   3.810   3.989   7.965 -0.1858  0.2441  0.0539
  792MOL0     C 6851   3.911   3.902   7.920  0.2321  0.5070  0.5538
  792MOL0     C 6852   4.054   3.951   7.915 -0.3207 -0.6027 -0.4975
  792MOL0     H 6853   3.908   3.417   7.709 -1.2647 -2.1014  0.4740
  792MOL0     H 6854   3.992   3.207   7.637  1.3401 -0.2898  0.3189
  792MOL0     H 6855   4.123   2.860   7.790 -0.9231 -0.3506 -0.3051
  792MOL0     H 6856   3.977   2.965   7.773 -0.3461  0.7584 -0.5767
  792MOL0     H 6857   4.192   2.942   7.553  0.3350  0.6954  0.1975
  792MOL0     H 6858   4.068   3.042   7.540  1.3431 -0.2845 -0.8315
  792MOL0     H 6859   3.894   2.857   7.517 -1.0279 -3.5421  1.2678
  792MOL0     H 6860   4.019   2.735   7.561 -0.6102  1.2741  1.5596
  792MOL0     H 6861   4.059   2.929   7.340 -1.4054 -0.1767 -2.9679
  792MOL0     H 6862   4.151   2.781   7.374 -0.2683 -1.7357  2.1989
  792MOL0     H 6863   3.866   2.782   7.259  1.2781  0.6799 -0.6959
  792MOL0     H 6864   4.015   2.760   7.178 -2.1581  2.5197 -0.5751
  792MOL0     H 6865   3.910   2.569   7.399  2.3121  0.1851  0.9678
  792MOL0     H 6866   3.876   2.555   7.224  2.5716  0.0852 -3.5474
  792MOL0     H 6867   4.158   2.562   7.339  0.1813  0.1661  0.2883
  792MOL0     H 6868   4.120   2.513   7.172 -2.0563 -5.6623 -0.8815
  792MOL0     H 6869   4.005   2.374   7.410  0.2138 -4.3473  0.1810
  792MOL0     H 6870   4.024   2.322   7.238  2.0222 -1.7957  0.9132
  792MOL0     H 6871   4.271   2.403   7.522 -1.5334  2.3096 -1.8622
  792MOL0     H 6872   4.528   2.226   7.595  0.8265 -2.0149 -0.3397
  792MOL0     H 6873   4.578   2.142   7.455 -0.0656  0.9034 -2.6774
  792MOL0     H 6874   4.740   2.319   7.459 -0.1108 -2.2195 -2.5376
  792MOL0     H 6875   4.611   2.398   7.357 -0.4845  1.3053  1.2961
  792MOL0     H 6876   4.636   2.434   7.650  4.2426  0.5136 -0.7912
  792MOL0     H 6877   4.502   2.474   7.557 -0.0740 -3.1458 -0.9281
  792MOL0     H 6878   4.628   2.632   7.395 -2.5618  1.5653  0.8007
  792MOL0     H 6879   4.785   2.595   7.475 -0.0650 -0.0523 -0.7403
  792MOL0     H 6880   4.497   2.844   7.721  0.1560  0.0004 -1.4112
  792MOL0     H 6881   4.367   3.031   7.672  1.1654  1.0489  0.8984
  792MOL0     H 6882   4.112   3.204   7.303  0.1692  0.0156 -0.0318
  792MOL0     H 6883   3.935   3.375   7.233 -1.5360  2.4139  0.3570
  792MOL0     H 6884   3.988   3.777   7.413 -1.7508  1.0996 -0.4419
  792MOL0     H 6885   4.083   3.747   7.260 -0.3093 -2.3485 -0.2788
  792MOL0     H 6886   3.796   3.848   7.292  0.6599  4.9052  1.4676
  792MOL0     H 6887   3.941   3.940   7.250  0.1098 -0.3437 -1.6685
  792MOL0     H 6888   3.978   3.786   7.048 -0.4199 -1.4308 -0.1971
  792MOL0     H 6889   3.827   3.713   7.094 -0.4492  0.3899 -0.0498
  792MOL0     H 6890   3.714   3.940   7.094  0.2518 -0.7663  1.0798
  792MOL0     H 6891   3.760   3.880   6.927 -0.8633 -0.9811  0.3260
  792MOL0     H 6892   3.942   3.996   6.919  0.5930 -1.9184  2.5972
  792MOL0     H 6893   3.933   4.076   7.079  0.8062 -1.9166  0.2671
  792MOL0     H 6894   3.717   4.101   6.865  0.0859 -1.0992 -0.2397
  792MOL0     H 6895   3.761   4.186   7.034  0.6142 -0.9528 -0.0861
  792MOL0     H 6896   3.911   4.219   6.767 -1.5745  0.9398 -0.6152
  792MOL0     H 6897   3.964   4.296   6.921  0.9426 -2.5745  1.4540
  792MOL0     H 6898   3.748   4.425   6.899 -0.0919  1.5762 -1.6876
  792MOL0     H 6899   3.841   4.447   6.763 -1.3467 -0.0349  0.2121
  792MOL0     H 6900   4.136   3.650   7.519  5.3707 -1.2023  1.0849
  792MOL0     H 6901   4.264   3.473   7.594  1.8057  2.6040 -1.1658
  792MOL0     H 6902   4.541   3.045   7.271 -3.7108  0.9867  1.1869
  792MOL0     H 6903   4.682   2.847   7.339  1.7987  1.6027 -0.6739
  792MOL0     H 6904   4.249   3.190   7.978 -0.6578 -1.7514 -2.8222
  792MOL0     H 6905   4.166   3.386   8.063  0.9130  0.9447 -1.1021
  792MOL0     H 6906   3.717   3.639   7.841  0.5163  0.5985 -2.9895
  792MOL0     H 6907   3.537   3.792   7.895 -0.2708  0.7497 -1.4888
  792MOL0     H 6908   3.403   4.083   8.099  1.8579 -2.1494  3.0541
  792MOL0     H 6909   3.434   3.913   8.075  0.3695 -0.6687 -1.8459
  792MOL0     H 6910   3.269   3.984   7.929 -0.8671  0.3892 -0.4544
  792MOL0     H 6911   3.413   3.969   7.828  0.6950 -0.7552  2.5259
  792MOL0     H 6912   3.436   4.212   7.836  0.9060  1.8255  2.7668
  792MOL0     H 6913   3.306   4.233   7.950  0.0299 -1.3744  1.0300
  792MOL0     H 6914   3.262   4.116   7.664  1.4791 -1.6958  0.8782
  792MOL0     H 6915   3.143   4.162   7.786  0.5613  0.9296  0.8741
  792MOL0     H 6916   3.310   4.543   7.652  2.0978 -0.3833  0.5044
  792MOL0     H 6917   3.832   4.085   8.011  0.7454 -1.0350  2.4853
  792MOL0     H 6918   4.079   3.959   7.809  0.0185 -3.1643 -0.6705
  792MOL0     H 6919   4.043   4.045   7.971 -2.5018 -0.8979 -0.3753
  792MOL0     H 6920   4.123   3.888   7.972 -0.3759 -0.3311 -0.1256
  793MOL0     O 6921   1.860   8.445   8.684  0.1209  0.6204 -0.4793
  793MOL0     C 6922   1.785   8.362   8.738 -0.5674 -0.3553 -0.1275
  793MOL0     O 6923   1.803   8.318   8.862 -0.2379  0.4364  0.6134
  793MOL0     C 6924   1.887   8.384   8.941 -0.7214  0.5175 -1.1460
  793MOL0     C 6925   1.838   8.488   9.015  0.4279 -0.0039  0.0373
  793MOL0     C 6926   1.907   8.537   9.125 -0.1314  0.2919 -1.1016
  793MOL0     C 6927   2.038   8.505   9.153 -0.8100 -0.1605  0.2092
  793MOL0     O 6928   2.083   8.550   9.276 -0.5939  0.0609  0.2077
  793MOL0     C 6929   2.224   8.560   9.288 -0.2605  0.6427 -0.0385
  793MOL0     C 6930   2.271   8.625   9.413  0.6072  0.0078 -0.1550
  793MOL0     C 6931   2.223   8.535   9.532  0.5454 -0.5166  0.2547
  793MOL0     C 6932   2.305   8.570   9.666 -0.2596 -0.2528  0.3776
  793MOL0     C 6933   2.281   8.471   9.775  0.5385 -0.1281 -0.1812
  793MOL0     C 6934   2.133   8.455   9.827 -0.6365  0.1893 -0.1985
  793MOL0     C 6935   2.087   8.586   9.879 -0.1888 -0.5208 -0.5987
  793MOL0     C 6936   1.944   8.577   9.928 -0.0799  0.0881 -0.6768
  793MOL0     N 6937   1.944   8.525  10.064 -0.1292  0.7937  0.5330
  793MOL0     C 6938   1.836   8.538  10.160 -0.9172 -0.1948  0.1769
  793MOL0     C 6939   1.895   8.496  10.274  0.4644  0.1592  0.2490
  793MOL0     C 6940   1.813   8.509  10.406  0.8478  0.1191 -0.1527
  793MOL0     C 6941   1.860   8.627  10.489 -0.8998 -0.1026  0.3148
  793MOL0     C 6942   1.845   8.593  10.642 -0.1727 -0.0271  0.2441
  793MOL0     C 6943   1.704   8.608  10.691 -0.0836  0.8595  0.3004
  793MOL0     O 6944   1.680   8.526  10.808  0.0218  0.1172  0.0299
  793MOL0     C 6945   1.555   8.525  10.866 -0.5045  0.6409 -0.3904
  793MOL0     C 6946   1.453   8.614  10.836 -0.4198 -0.2850  0.3042
  793MOL0     C 6947   1.324   8.610  10.893 -0.0565 -0.2209 -0.4184
  793MOL0     C 6948   1.293   8.503  10.978 -0.2076 -0.5566 -0.1391
  793MOL0     C 6949   1.157   8.501  11.041  0.4510 -0.2081  0.7836
  793MOL0     O 6950   1.156   8.435  11.165  0.0158  0.4336  0.9923
  793MOL0     C 6951   1.033   8.423  11.226  0.3689  0.7223 -0.3897
  793MOL0     C 6952   0.975   8.293  11.226  1.5030 -0.6462 -0.3463
  793MOL0     C 6953   0.846   8.268  11.277 -0.7284 -0.0885  0.6442
  793MOL0     C 6954   0.786   8.374  11.339 -0.6273  0.3020  0.4150
  793MOL0     O 6955   0.664   8.344  11.393  0.5003 -0.1213  1.3761
  793MOL0     C 6956   0.546   8.426  11.384 -0.5545 -0.2032  0.2158
  793MOL0     C 6957   0.436   8.331  11.418  0.5039  0.9353 -0.2278
  793MOL0     C 6958   0.332   8.383  11.516 -0.2186 -1.5219  0.2210
  793MOL0     C 6959   0.239   8.261  11.562  0.5309  0.2087 -0.1913
  793MOL0     C 6960   0.138   8.288  11.675 -0.3812  0.1951 -0.3446
  793MOL0     C 6961   0.025   8.184  11.663  0.6090  0.5541 -0.1064
  793MOL0     C 6962  -0.033   8.128  11.792  0.4648  0.2163 -0.0996
  793MOL0     C 6963  -0.179   8.068  11.776 -0.0912  0.6993 -0.0835
  793MOL0    Cl 6964  -0.214   7.938  11.896  0.8106 -0.0663 -0.4904
  793MOL0     C 6965   0.848   8.505  11.353  0.1541 -0.0542  0.5126
  793MOL0     C 6966   0.971   8.523  11.302 -0.3760  0.9773  0.0830
  793MOL0     O 6967   1.056   8.552  10.982 -1.2493  0.1389  0.8727
  793MOL0     C 6968   1.398   8.413  11.013  0.0847 -0.2401 -0.1127
  793MOL0     C 6969   1.525   8.429  10.962 -0.1015 -1.8186  0.8504
  793MOL0     N 6970   2.025   8.460  10.255  0.0114  0.6808 -0.4054
  793MOL0     N 6971   2.047   8.458  10.127  0.0087  0.4203 -0.0763
  793MOL0     C 6972   2.086   8.404   9.075 -0.2923  1.6364 -0.0958
  793MOL0     C 6973   2.012   8.338   8.979 -0.5838  0.4420  0.4400
  793MOL0     C 6974   1.655   8.319   8.665 -0.5305  0.2338 -0.6175
  793MOL0     C 6975   1.586   8.201   8.717 -0.2587 -0.2345 -0.1866
  793MOL0     C 6976   1.466   8.165   8.640 -0.1248  0.0311  0.0650
  793MOL0     C 6977   1.432   8.214   8.528 -0.4137  0.6477  0.4145
  793MOL0     O 6978   1.318   8.184   8.457 -0.0356 -0.2419  0.4992
  793MOL0     C 6979   1.194   8.228   8.519 -0.2075 -0.0988 -0.3611
  793MOL0     C 6980   1.172   8.378   8.499  0.5021 -0.3073  0.1491
  793MOL0     C 6981   1.054   8.422   8.584  0.7565 -0.8706 -1.0598
  793MOL0     C 6982   1.030   8.578   8.587 -1.0160  0.0468  0.1269
  793MOL0     C 6983   0.975   8.623   8.462  0.2411 -0.7817 -0.1619
  793MOL0     C 6984   0.919   8.661   8.362  0.0046  0.2092 -0.7709
  793MOL0     C 6985   1.503   8.322   8.481 -0.0751  1.0267 -0.1536
  793MOL0     C 6986   1.609   8.380   8.548  0.9334  0.3701 -0.6385
  793MOL0     C 6987   1.680   8.479   8.471  0.4354 -0.0541  0.8299
  793MOL0     H 6988   1.733   8.510   9.005  0.0530 -1.6502  0.0571
  793MOL0     H 6989   1.862   8.609   9.193  1.5934  1.2142 -0.8988
  793MOL0     H 6990   2.281   8.468   9.272 -0.0185 -0.0109  3.7282
  793MOL0     H 6991   2.256   8.612   9.197  0.0504 -0.4691 -0.5833
  793MOL0     H 6992   2.225   8.724   9.410  1.9942  0.6626 -0.2486
  793MOL0     H 6993   2.379   8.638   9.415  0.6752 -0.2920 -1.2302
  793MOL0     H 6994   2.239   8.427   9.526  2.7781 -0.2304  0.2850
  793MOL0     H 6995   2.119   8.567   9.549  1.0302  0.3458  1.8109
  793MOL0     H 6996   2.411   8.573   9.639 -0.4934  1.3622 -0.4835
  793MOL0     H 6997   2.286   8.673   9.698  0.4086  0.0464 -0.1641
  793MOL0     H 6998   2.316   8.373   9.742 -3.8200 -2.1867  0.6641
  793MOL0     H 6999   2.350   8.492   9.858  0.8963  0.8008 -0.7011
  793MOL0     H 7000   2.071   8.408   9.750 -0.0205  1.6500 -1.6450
  793MOL0     H 7001   2.131   8.378   9.904  0.8693 -0.3792 -0.6856
  793MOL0     H 7002   2.091   8.656   9.795  0.3516  0.1173 -0.0569
  793MOL0     H 7003   2.164   8.634   9.941  1.0552  1.7424 -3.6306
  793MOL0     H 7004   1.893   8.674   9.922 -0.4979 -0.0779  0.0230
  793MOL0     H 7005   1.884   8.505   9.870 -1.8154 -1.6358  2.9428
  793MOL0     H 7006   1.740   8.586  10.145 -1.3410 -0.1681  2.5554
  793MOL0     H 7007   1.711   8.528  10.372  0.6725  0.5183  0.5613
  793MOL0     H 7008   1.835   8.408  10.443 -0.3902 -1.0667 -2.4701
  793MOL0     H 7009   1.964   8.649  10.462 -1.2053  0.5069 -0.3810
  793MOL0     H 7010   1.813   8.721  10.459  0.4650 -0.0320 -1.8684
  793MOL0     H 7011   1.908   8.672  10.683  0.7162  1.2219 -3.1650
  793MOL0     H 7012   1.890   8.495  10.661  0.6191  0.0209 -1.2167
  793MOL0     H 7013   1.646   8.558  10.613 -0.4288  1.9457 -0.1556
  793MOL0     H 7014   1.682   8.715  10.695  2.6516  1.6335 -1.8178
  793MOL0     H 7015   1.465   8.693  10.762 -0.0511 -2.7854 -2.5158
  793MOL0     H 7016   1.247   8.684  10.880 -1.1478 -1.1572  0.5002
  793MOL0     H 7017   1.023   8.206  11.183  0.2734 -0.0815 -3.0232
  793MOL0     H 7018   0.809   8.166  11.268 -0.1353 -0.1801 -1.2124
  793MOL0     H 7019   0.549   8.508  11.457 -0.5957 -1.5241  1.7639
  793MOL0     H 7020   0.524   8.464  11.284 -1.2916 -2.1728 -0.4086
  793MOL0     H 7021   0.387   8.305  11.324  1.3217 -1.5737 -0.0239
  793MOL0     H 7022   0.475   8.240  11.465  2.9393  1.8065 -0.4691
  793MOL0     H 7023   0.381   8.418  11.608 -2.2101  1.0045  0.4591
  793MOL0     H 7024   0.279   8.465  11.467  0.7867 -0.3854  0.9525
  793MOL0     H 7025   0.302   8.185  11.609 -0.3465 -0.8009 -0.6021
  793MOL0     H 7026   0.180   8.242  11.471  0.9390  4.0299 -1.4722
  793MOL0     H 7027   0.102   8.391  11.669 -3.9459 -0.7501  1.7227
  793MOL0     H 7028   0.186   8.278  11.773  3.6433 -2.0969 -2.2692
  793MOL0     H 7029  -0.047   8.249  11.613  1.1312  0.9651 -0.3314
  793MOL0     H 7030   0.047   8.104  11.592  1.6188  0.1377  0.6373
  793MOL0     H 7031  -0.027   8.204  11.871  3.2161  3.1016 -2.8007
  793MOL0     H 7032   0.039   8.049  11.816  2.3317  0.4439 -4.0770
  793MOL0     H 7033  -0.249   8.146  11.806 -0.7555 -1.0694  3.4581
  793MOL0     H 7034  -0.201   8.034  11.674  0.4185 -0.7540  0.2667
  793MOL0     H 7035   0.785   8.581  11.398  0.0603  1.8829 -2.5628
  793MOL0     H 7036   1.016   8.621  11.315  2.3406 -0.0898 -0.6140
  793MOL0     H 7037   1.367   8.333  11.080 -2.1072 -0.9131 -1.8089
  793MOL0     H 7038   1.602   8.362  10.999  1.1303 -0.2362  1.2463
  793MOL0     H 7039   2.185   8.364   9.097  0.7560  1.2937 -4.5296
  793MOL0     H 7040   2.055   8.255   8.924  0.4100  0.8652  0.5696
  793MOL0     H 7041   1.618   8.141   8.802  2.4203 -0.6375 -1.4004
  793MOL0     H 7042   1.412   8.077   8.673 -1.8091  0.8626 -0.3558
  793MOL0     H 7043   1.194   8.194   8.623 -4.7317 -4.2832 -1.3916
  793MOL0     H 7044   1.118   8.171   8.466 -2.7751  0.2531  2.6561
  793MOL0     H 7045   1.167   8.403   8.393  0.2007 -1.1425 -0.0474
  793MOL0     H 7046   1.259   8.427   8.543 -0.8777  0.2236  2.4492
  793MOL0     H 7047   1.060   8.393   8.690 -1.1661  0.9633 -0.3745
  793MOL0     H 7048   0.963   8.366   8.559 -0.7852  0.5615  0.9531
  793MOL0     H 7049   0.955   8.601   8.663 -1.2231 -1.2623  0.3436
  793MOL0     H 7050   1.120   8.630   8.623 -2.7196  0.9776  3.4354
  793MOL0     H 7051   0.870   8.670   8.267 -1.8539 -0.9441  0.0138
  793MOL0     H 7052   1.477   8.366   8.385 -0.3204  0.4184 -0.3654
  793MOL0     H 7053   1.624   8.516   8.385 -0.0894 -0.4641  0.9918
  793MOL0     H 7054   1.710   8.559   8.540 -0.1113  0.6504  0.2591
  793MOL0     H 7055   1.764   8.423   8.430 -0.6249 -1.5583  0.6182
  794MOL0     O 7056   7.868   6.000   1.928  0.6456 -0.0149 -0.2608
  794MOL0     C 7057   7.811   5.905   1.872  0.0992  0.1837  0.3087
  794MOL0     O 7058   7.850   5.773   1.879 -1.2526 -0.8933 -0.3588
  794MOL0     C 7059   7.961   5.746   1.967  0.6995 -0.6543  0.3782
  794MOL0     C 7060   8.078   5.693   1.915 -0.4010  0.2226  0.5345
  794MOL0     C 7061   8.178   5.649   1.991 -0.5558 -0.3708  0.5236
  794MOL0     C 7062   8.168   5.656   2.136 -0.7944  0.2875  0.6123
  794MOL0     O 7063   8.281   5.626   2.215  0.0033  0.3610  0.3981
  794MOL0     C 7064   8.369   5.742   2.238  0.3668 -0.3333  0.0680
  794MOL0     C 7065   8.499   5.703   2.307  0.8343  0.5913  0.2061
  794MOL0     C 7066   8.485   5.644   2.451 -0.4781  0.0660  0.4491
  794MOL0     C 7067   8.459   5.741   2.568 -0.2173  0.3607  0.8090
  794MOL0     C 7068   8.465   5.651   2.690  0.9538  0.3213  0.4156
  794MOL0     C 7069   8.470   5.732   2.822  0.2653  0.5479  0.0358
  794MOL0     C 7070   8.328   5.807   2.840  0.1026  0.1135 -0.6522
  794MOL0     C 7071   8.271   5.815   2.980  0.2835 -0.2172  0.0572
  794MOL0     N 7072   8.138   5.857   2.977  1.0949 -0.1052 -0.2020
  794MOL0     C 7073   8.068   5.918   2.881  0.8600  0.2908  0.5971
  794MOL0     C 7074   7.940   5.938   2.935 -0.4608 -0.0082  0.2207
  794MOL0     C 7075   7.817   5.994   2.868  0.3717 -0.3147  0.6578
  794MOL0     C 7076   7.819   6.150   2.869  0.3239  0.1845 -0.1767
  794MOL0     C 7077   7.724   6.224   2.784 -0.0883 -0.3541 -0.1000
  794MOL0     C 7078   7.773   6.238   2.642  0.0754  0.7431  0.0378
  794MOL0     O 7079   7.804   6.113   2.577  0.7179 -1.0883  0.8404
  794MOL0     C 7080   7.701   6.062   2.498 -0.3038 -0.3500  0.0437
  794MOL0     C 7081   7.736   5.951   2.422  0.0494  0.9328 -0.1576
  794MOL0     C 7082   7.645   5.868   2.355  0.4591 -0.1093  0.8181
  794MOL0     C 7083   7.517   5.911   2.339 -0.0621 -0.6275 -0.2906
  794MOL0     C 7084   7.428   5.833   2.253 -0.1155  0.1593 -1.0926
  794MOL0     O 7085   7.484   5.735   2.176 -0.3012 -0.6452 -0.3220
  794MOL0     C 7086   7.407   5.645   2.113  0.1446  0.3345  0.4108
  794MOL0     C 7087   7.460   5.601   1.990 -0.2076  0.1467 -0.2155
  794MOL0     C 7088   7.384   5.508   1.911  0.3820 -0.7124 -0.5063
  794MOL0     C 7089   7.261   5.442   1.961  0.0862 -0.0488  0.0450
  794MOL0     O 7090   7.199   5.368   1.868  0.5989 -0.5198  0.6092
  794MOL0     C 7091   7.070   5.307   1.898 -0.8843  0.7969 -0.0976
  794MOL0     C 7092   7.071   5.181   1.995 -0.0950  0.0760 -1.2401
  794MOL0     C 7093   7.152   5.054   1.956  0.8912  0.2937  0.6712
  794MOL0     C 7094   7.096   4.979   1.837  0.4821  0.4054  0.1866
  794MOL0     C 7095   7.184   4.850   1.790 -0.2010  0.7956 -0.1316
  794MOL0     C 7096   7.316   4.888   1.720  0.4310 -0.1062  0.0176
  794MOL0     C 7097   7.403   4.764   1.664 -0.4366 -0.0965 -0.3631
  794MOL0     C 7098   7.525   4.817   1.588 -0.8780  0.6077 -0.5245
  794MOL0    Cl 7099   7.627   4.671   1.543  0.9285 -0.3082 -0.2773
  794MOL0     C 7100   7.217   5.477   2.089 -0.1596  0.1361  0.1052
  794MOL0     C 7101   7.289   5.582   2.156 -0.3891  0.4377  0.2921
  794MOL0     O 7102   7.312   5.855   2.275  0.0125 -0.7239  0.0589
  794MOL0     C 7103   7.482   6.026   2.406  0.9572  0.0306 -0.0227
  794MOL0     C 7104   7.570   6.105   2.486  0.3530 -0.0521  0.0102
  794MOL0     N 7105   7.945   5.897   3.071 -0.1940 -0.7994 -0.0965
  794MOL0     N 7106   8.061   5.845   3.088 -0.2527 -0.6073 -0.4916
  794MOL0     C 7107   8.056   5.721   2.190 -0.0689  0.2636 -0.1641
  794MOL0     C 7108   7.951   5.765   2.113  0.4903  0.2470 -0.1950
  794MOL0     C 7109   7.676   5.920   1.823 -0.3331 -0.8603 -1.2772
  794MOL0     C 7110   7.598   6.028   1.872 -0.9771  0.6681 -0.3407
  794MOL0     C 7111   7.468   6.049   1.837 -0.9218 -0.2688 -0.1946
  794MOL0     C 7112   7.401   5.963   1.751 -0.1251  0.5685  0.4078
  794MOL0     O 7113   7.270   5.997   1.720  0.6817 -0.2830  0.6426
  794MOL0     C 7114   7.164   5.975   1.822 -1.1555  0.2135  0.4901
  794MOL0     C 7115   7.146   5.820   1.834  0.1832 -0.2036 -0.3925
  794MOL0     C 7116   7.009   5.806   1.914 -0.0120 -0.5676  0.0115
  794MOL0     C 7117   6.998   5.863   2.057  0.6195  1.0072 -0.6591
  794MOL0     C 7118   6.866   5.909   2.097  0.1614 -0.5705  0.3467
  794MOL0     C 7119   6.753   5.953   2.124  0.0369  0.2726 -0.5920
  794MOL0     C 7120   7.474   5.849   1.703  0.0159 -0.6338 -0.4639
  794MOL0     C 7121   7.614   5.835   1.738 -0.1578  0.3229  1.0026
  794MOL0     C 7122   7.682   5.731   1.651 -0.1389 -0.2722 -0.0035
  794MOL0     H 7123   8.085   5.686   1.807 -2.4498 -2.8342  0.4758
  794MOL0     H 7124   8.276   5.614   1.959  0.0591  0.9220  0.9228
  794MOL0     H 7125   8.395   5.800   2.150  1.9520 -0.0409  0.6896
  794MOL0     H 7126   8.312   5.810   2.302 -0.3338  0.4268 -1.3173
  794MOL0     H 7127   8.542   5.800   2.332  0.4731  0.1831  2.5912
  794MOL0     H 7128   8.559   5.649   2.233  0.9223 -0.4514  1.0194
  794MOL0     H 7129   8.581   5.599   2.476 -0.3192 -0.1895 -0.5513
  794MOL0     H 7130   8.410   5.564   2.452  0.5405 -0.9210  0.4916
  794MOL0     H 7131   8.539   5.815   2.569  2.0365 -1.9548  0.9340
  794MOL0     H 7132   8.364   5.793   2.547 -0.2261 -1.1886 -4.4821
  794MOL0     H 7133   8.378   5.585   2.690  1.6052 -0.5743 -0.7532
  794MOL0     H 7134   8.556   5.591   2.702  1.1464  0.9838  3.0633
  794MOL0     H 7135   8.496   5.669   2.908  1.6927  1.9493  0.6835
  794MOL0     H 7136   8.539   5.817   2.827 -2.1643  2.6315  5.2363
  794MOL0     H 7137   8.261   5.757   2.769  1.7784 -1.3768 -1.2835
  794MOL0     H 7138   8.350   5.906   2.800 -2.7945  1.2420  0.3120
  794MOL0     H 7139   8.263   5.722   3.036  0.2515 -0.9801 -1.1693
  794MOL0     H 7140   8.325   5.888   3.041  1.9186 -1.4024  0.1017
  794MOL0     H 7141   8.108   5.951   2.787 -2.4749  2.6819 -0.1646
  794MOL0     H 7142   7.808   5.958   2.765  1.3687 -0.2154  0.5302
  794MOL0     H 7143   7.735   5.951   2.926  0.3031  2.8675  3.2368
  794MOL0     H 7144   7.793   6.179   2.972  1.2694  0.4022  0.0094
  794MOL0     H 7145   7.921   6.189   2.857  1.2433 -0.4441  4.0731
  794MOL0     H 7146   7.692   6.323   2.817 -1.2347 -0.3891 -1.0460
  794MOL0     H 7147   7.627   6.175   2.784 -1.3658  1.9795  1.5359
  794MOL0     H 7148   7.862   6.301   2.626  1.4672 -1.1811 -0.1601
  794MOL0     H 7149   7.694   6.283   2.582 -2.7893 -2.6857  0.9060
  794MOL0     H 7150   7.834   5.905   2.429  0.0586  0.7340 -1.3104
  794MOL0     H 7151   7.684   5.774   2.317  2.9386  0.9810  0.4400
  794MOL0     H 7152   7.556   5.638   1.956  1.7998 -5.0047 -1.0240
  794MOL0     H 7153   7.409   5.467   1.814  3.2240 -1.4164  0.4362
  794MOL0     H 7154   7.009   5.380   1.953 -1.6939 -0.3577  0.5877
  794MOL0     H 7155   7.015   5.279   1.808 -3.1279  0.5966  1.2552
  794MOL0     H 7156   7.123   5.215   2.085  0.3613 -0.8198 -1.1458
  794MOL0     H 7157   6.971   5.151   2.027 -0.8417  2.8819 -0.6756
  794MOL0     H 7158   7.253   5.094   1.939  0.8619 -0.3419 -1.1933
  794MOL0     H 7159   7.156   4.989   2.044  2.5706  1.9673  1.9211
  794MOL0     H 7160   7.107   5.051   1.755  1.3514  1.7879  1.4544
  794MOL0     H 7161   6.995   4.946   1.863  0.4576  0.6820  0.4545
  794MOL0     H 7162   7.129   4.784   1.722  1.1732 -2.3033  1.5356
  794MOL0     H 7163   7.202   4.779   1.871 -3.3630 -0.5010 -0.4073
  794MOL0     H 7164   7.293   4.951   1.633 -1.1418  1.6105  1.5853
  794MOL0     H 7165   7.383   4.937   1.792  1.6644 -0.4429 -0.8684
  794MOL0     H 7166   7.352   4.688   1.604 -2.6354 -0.2808  1.6069
  794MOL0     H 7167   7.427   4.711   1.757 -0.1324 -0.2649 -0.5349
  794MOL0     H 7168   7.485   4.882   1.509 -0.9302  3.2521  1.5251
  794MOL0     H 7169   7.591   4.881   1.647  2.8902 -1.0960 -2.5212
  794MOL0     H 7170   7.129   5.442   2.142 -0.9829  1.5381 -0.2846
  794MOL0     H 7171   7.249   5.598   2.256 -1.9953  1.0421 -0.4127
  794MOL0     H 7172   7.380   6.055   2.386  1.5223 -0.0116 -3.5247
  794MOL0     H 7173   7.535   6.202   2.519  0.6779 -0.7010  2.3909
  794MOL0     H 7174   8.054   5.735   2.297 -1.4977 -1.5652  0.0878
  794MOL0     H 7175   7.855   5.801   2.147  1.6116 -0.6816  4.6415
  794MOL0     H 7176   7.637   6.093   1.949 -2.6066  1.8470 -0.4593
  794MOL0     H 7177   7.417   6.138   1.873 -1.5729 -1.4937  2.0485
  794MOL0     H 7178   7.078   6.027   1.780 -0.8825  1.4473  1.4133
  794MOL0     H 7179   7.201   6.021   1.914  1.9137 -1.6206  0.3012
  794MOL0     H 7180   7.220   5.773   1.899 -4.1939 -4.2116  2.3472
  794MOL0     H 7181   7.142   5.768   1.738 -1.1093 -0.0416 -0.4489
  794MOL0     H 7182   6.980   5.701   1.923 -0.0812 -0.5592 -0.1096
  794MOL0     H 7183   6.928   5.852   1.857 -2.7105 -0.4619  3.6671
  794MOL0     H 7184   7.037   5.790   2.128 -0.6705  0.7220 -0.2161
  794MOL0     H 7185   7.070   5.941   2.084  1.5733 -0.9350  3.1453
  794MOL0     H 7186   6.662   5.974   2.175  1.2061  2.4779  0.7382
  794MOL0     H 7187   7.417   5.793   1.629 -1.3263  0.1268 -0.0507
  794MOL0     H 7188   7.692   5.634   1.701 -0.1292  0.3543  1.2526
  794MOL0     H 7189   7.637   5.722   1.552  0.6851  1.1936 -0.5419
  794MOL0     H 7190   7.788   5.757   1.640  0.0147 -0.3451  1.1239
  795MOL0     O 7191   3.515   9.486   4.064  0.4510  0.4046  0.0320
  795MOL0     C 7192   3.416   9.517   3.996 -0.0512  0.5693  0.0731
  795MOL0     O 7193   3.359   9.430   3.906  0.0231  0.1767  0.0226
  795MOL0     C 7194   3.430   9.310   3.871  0.5193 -1.6056 -1.4573
  795MOL0     C 7195   3.512   9.323   3.762 -0.5877 -0.8409 -0.6395
  795MOL0     C 7196   3.585   9.217   3.715  0.4851 -0.3526 -0.4552
  795MOL0     C 7197   3.567   9.093   3.791  0.4330 -0.7583 -0.2131
  795MOL0     O 7198   3.638   8.989   3.747  0.3095  0.0935 -0.6785
  795MOL0     C 7199   3.572   8.861   3.751 -0.3919  0.0480 -0.0006
  795MOL0     C 7200   3.583   8.781   3.623  0.0515 -0.0362  1.0952
  795MOL0     C 7201   3.525   8.853   3.503 -0.5106 -0.1480  1.0791
  795MOL0     C 7202   3.548   8.768   3.371 -0.2526  0.0764  0.0553
  795MOL0     C 7203   3.504   8.842   3.247 -0.3222 -0.2452 -0.1435
  795MOL0     C 7204   3.538   8.767   3.119 -0.0267 -0.7284 -1.4377
  795MOL0     C 7205   3.499   8.851   2.993 -0.6022  1.1166  0.2672
  795MOL0     C 7206   3.563   8.806   2.856  0.7293  0.5450  0.1471
  795MOL0     N 7207   3.556   8.658   2.830  0.5362 -0.7138 -0.4644
  795MOL0     C 7208   3.607   8.559   2.905  1.2223  1.2213 -1.6158
  795MOL0     C 7209   3.583   8.435   2.851  0.1125  0.2984 -0.1162
  795MOL0     C 7210   3.603   8.299   2.918 -0.1049 -1.0750  0.3727
  795MOL0     C 7211   3.524   8.191   2.841  0.0584  0.6140 -1.0895
  795MOL0     C 7212   3.528   8.059   2.922 -0.2051 -0.6432  0.0936
  795MOL0     C 7213   3.674   8.011   2.951  0.1831  0.2315  0.3242
  795MOL0     O 7214   3.722   8.070   3.082  0.3207  0.1771  0.4287
  795MOL0     C 7215   3.856   8.037   3.116 -0.1721  0.4564  0.5949
  795MOL0     C 7216   3.920   7.920   3.072  0.0383  0.6761 -0.1437
  795MOL0     C 7217   4.058   7.904   3.070 -0.8110 -0.0281 -0.8517
  795MOL0     C 7218   4.140   8.010   3.128 -0.0893 -0.1920  0.3536
  795MOL0     C 7219   4.291   7.998   3.122 -0.5772 -0.6626  0.5664
  795MOL0     O 7220   4.345   7.959   3.000  0.4957 -0.1673 -0.5288
  795MOL0     C 7221   4.479   7.948   2.979  0.6602  0.4971  0.0723
  795MOL0     C 7222   4.586   8.023   3.026 -0.2173  0.3840  1.2372
  795MOL0     C 7223   4.712   7.988   2.995 -1.1264  0.7088  0.2187
  795MOL0     C 7224   4.737   7.871   2.915 -0.2160 -0.0321  0.4852
  795MOL0     O 7225   4.865   7.821   2.885  1.1610 -0.1290  0.5763
  795MOL0     C 7226   4.975   7.865   2.956 -0.6206 -0.3039  0.2181
  795MOL0     C 7227   5.036   8.008   2.896  0.0686  1.1091 -0.1145
  795MOL0     C 7228   5.127   8.078   3.011 -0.6308 -0.1669 -1.0562
  795MOL0     C 7229   5.042   8.137   3.119  0.8036 -0.1083 -0.4456
  795MOL0     C 7230   5.118   8.217   3.231 -0.1806  0.9597 -0.4630
  795MOL0     C 7231   5.234   8.295   3.173 -0.2623 -0.3732  1.1923
  795MOL0     C 7232   5.302   8.402   3.270  1.0161 -0.2989 -0.2961
  795MOL0     C 7233   5.205   8.518   3.300  1.1775  0.0685  0.0228
  795MOL0    Cl 7234   5.292   8.633   3.416 -0.2750 -0.0371  0.1200
  795MOL0     C 7235   4.626   7.811   2.854  0.6764  0.1490  0.0577
  795MOL0     C 7236   4.498   7.841   2.891  0.3109  0.2199  0.2000
  795MOL0     O 7237   4.349   8.026   3.223 -0.0098  0.1570 -0.0629
  795MOL0     C 7238   4.074   8.125   3.178  0.5443 -0.9815 -0.4324
  795MOL0     C 7239   3.940   8.137   3.179 -0.1300 -1.3073 -0.2953
  795MOL0     N 7240   3.527   8.468   2.728  0.9068  0.6315 -0.0004
  795MOL0     N 7241   3.510   8.597   2.711  0.1959 -0.9273  0.2904
  795MOL0     C 7242   3.483   9.083   3.898  0.8126  0.2038  0.3910
  795MOL0     C 7243   3.420   9.198   3.944  0.0811  1.0250  0.1534
  795MOL0     C 7244   3.354   9.644   4.019  1.0153 -0.4677 -0.4997
  795MOL0     C 7245   3.436   9.747   4.064 -0.3303 -0.2049 -0.3667
  795MOL0     C 7246   3.393   9.876   4.091 -0.0149  0.5895  0.2636
  795MOL0     C 7247   3.249   9.903   4.071 -0.2380 -0.1373  0.6446
  795MOL0     O 7248   3.189  10.028   4.087  0.0645  0.6111  0.4750
  795MOL0     C 7249   3.262  10.133   4.158 -0.7549 -0.4610 -0.4828
  795MOL0     C 7250   3.170  10.199   4.258 -0.3793  0.9286 -0.3896
  795MOL0     C 7251   3.088  10.310   4.187  0.5021 -0.5400  0.2285
  795MOL0     C 7252   2.973  10.356   4.265 -1.4708  0.6177  0.6166
  795MOL0     C 7253   3.013  10.418   4.392  0.3089  0.4739 -0.2648
  795MOL0     C 7254   3.069  10.458   4.497 -0.3525  0.5010 -0.2893
  795MOL0     C 7255   3.168   9.799   4.019 -0.0292 -0.8951 -0.0542
  795MOL0     C 7256   3.218   9.677   3.978 -0.6816  0.9973 -0.0615
  795MOL0     C 7257   3.110   9.572   3.936  0.6281  0.3882  0.3963
  795MOL0     H 7258   3.518   9.421   3.716  0.0938 -0.4091  0.3487
  795MOL0     H 7259   3.654   9.230   3.632  3.3529 -0.3393  1.7836
  795MOL0     H 7260   3.621   8.799   3.828 -1.6116 -1.4031 -0.3388
  795MOL0     H 7261   3.465   8.877   3.768 -0.2380  2.1166 -0.6808
  795MOL0     H 7262   3.529   8.689   3.648  2.0645 -1.0891  1.7886
  795MOL0     H 7263   3.690   8.759   3.611 -0.3027 -0.5863 -2.0715
  795MOL0     H 7264   3.586   8.940   3.474 -0.9439 -0.6183 -1.5294
  795MOL0     H 7265   3.424   8.887   3.523  0.4789  1.8968  2.9999
  795MOL0     H 7266   3.656   8.756   3.385 -0.7854 -4.4638  2.2708
  795MOL0     H 7267   3.502   8.669   3.373  0.7437 -0.4030  0.1918
  795MOL0     H 7268   3.397   8.860   3.258 -0.3119 -1.2706  2.3046
  795MOL0     H 7269   3.555   8.939   3.248  1.7053 -1.2076 -1.5387
  795MOL0     H 7270   3.646   8.757   3.109 -0.1840 -1.6577 -2.3738
  795MOL0     H 7271   3.474   8.678   3.118 -1.3640  0.1645  0.3087
  795MOL0     H 7272   3.533   8.955   2.999  0.8750  0.8334 -2.0173
  795MOL0     H 7273   3.390   8.860   2.980 -0.4837  2.1499 -0.1294
  795MOL0     H 7274   3.502   8.856   2.780  0.0012  0.6311  0.7770
  795MOL0     H 7275   3.667   8.840   2.862  0.7817  0.7814 -1.6301
  795MOL0     H 7276   3.667   8.570   2.995  3.0382 -0.1079 -2.6101
  795MOL0     H 7277   3.710   8.279   2.931 -0.3223 -1.9715  0.8530
  795MOL0     H 7278   3.568   8.308   3.022 -2.6052 -0.4908 -0.4705
  795MOL0     H 7279   3.420   8.215   2.817 -0.6889 -0.5204  0.7808
  795MOL0     H 7280   3.569   8.181   2.742 -0.1869 -0.4808 -1.0996
  795MOL0     H 7281   3.476   7.976   2.874 -0.1947 -2.2000  2.5968
  795MOL0     H 7282   3.479   8.093   3.014  0.6246  3.7953 -0.8694
  795MOL0     H 7283   3.741   8.041   2.869 -0.2337 -3.1142 -1.4490
  795MOL0     H 7284   3.663   7.902   2.945 -2.4901  0.3934  1.1305
  795MOL0     H 7285   3.857   7.834   3.050  1.4644  0.1116 -2.3441
  795MOL0     H 7286   4.109   7.811   3.046  2.1906  0.9081  1.3008
  795MOL0     H 7287   4.572   8.105   3.097 -0.0754  1.5793 -0.0672
  795MOL0     H 7288   4.787   8.036   3.057  0.4708 -2.2748  0.7765
  795MOL0     H 7289   4.946   7.879   3.060 -2.2452  1.6932 -0.4326
  795MOL0     H 7290   5.057   7.794   2.949 -0.4792 -0.0917 -0.3720
  795MOL0     H 7291   5.087   7.992   2.801 -1.5742 -1.3355 -0.6730
  795MOL0     H 7292   4.954   8.074   2.869  1.0033  2.8868  1.1758
  795MOL0     H 7293   5.205   8.012   3.050  1.4962  2.3871 -0.6787
  795MOL0     H 7294   5.180   8.156   2.957 -1.3530  0.6271 -0.6334
  795MOL0     H 7295   4.990   8.050   3.161  2.2109 -2.8988 -3.8669
  795MOL0     H 7296   4.959   8.199   3.083 -1.0199 -3.0863 -1.7709
  795MOL0     H 7297   5.162   8.153   3.307  1.0495  2.4101  0.0895
  795MOL0     H 7298   5.042   8.276   3.283  0.5651  0.1202  1.6559
  795MOL0     H 7299   5.312   8.225   3.141  2.2596  1.9239  1.9144
  795MOL0     H 7300   5.188   8.343   3.086  2.3458  3.1737  1.5791
  795MOL0     H 7301   5.391   8.440   3.219 -0.5225  3.2751 -0.5842
  795MOL0     H 7302   5.334   8.343   3.356  0.9706 -0.1390 -0.1688
  795MOL0     H 7303   5.187   8.568   3.205  3.0393  0.3629 -0.2120
  795MOL0     H 7304   5.113   8.470   3.336  0.5669 -0.6391 -2.3072
  795MOL0     H 7305   4.640   7.735   2.778 -1.2846 -0.6176  0.3939
  795MOL0     H 7306   4.406   7.808   2.845  1.1083  0.0230 -1.2978
  795MOL0     H 7307   4.134   8.213   3.200  0.6650 -0.5326 -2.3351
  795MOL0     H 7308   3.890   8.229   3.210  0.7270 -0.0546 -2.4069
  795MOL0     H 7309   3.462   8.988   3.947  1.1378 -0.6348 -1.0274
  795MOL0     H 7310   3.352   9.169   4.024 -0.4533 -3.6316 -1.6762
  795MOL0     H 7311   3.542   9.731   4.081  0.3243  1.3838 -2.4602
  795MOL0     H 7312   3.469   9.950   4.115  0.2084  0.5107 -0.1889
  795MOL0     H 7313   3.311  10.210   4.097 -1.5621  1.2760  0.9911
  795MOL0     H 7314   3.346  10.083   4.207  0.9023 -0.7047 -3.3542
  795MOL0     H 7315   3.234  10.239   4.337  0.3875 -1.1989  0.1484
  795MOL0     H 7316   3.099  10.126   4.300 -2.0460  2.2159 -0.8616
  795MOL0     H 7317   3.030  10.265   4.106 -0.7463  1.1648  0.1197
  795MOL0     H 7318   3.158  10.390   4.163 -1.0140  1.2420  1.4821
  795MOL0     H 7319   2.909  10.420   4.203  0.7461  1.3136 -1.0963
  795MOL0     H 7320   2.921  10.263   4.289  0.8625 -0.9309  0.0172
  795MOL0     H 7321   3.118  10.484   4.589 -2.2233 -1.3450  1.3512
  795MOL0     H 7322   3.063   9.820   4.001  0.2135 -0.1444 -0.6457
  795MOL0     H 7323   3.127   9.553   3.830 -5.2785  1.2397 -1.0890
  795MOL0     H 7324   3.127   9.477   3.988  0.3571 -1.3713 -2.4831
  795MOL0     H 7325   3.006   9.604   3.945  0.4375 -0.4553  1.4250
  796MOL0     O 7326   7.052   1.685   5.729  0.3071  0.9958 -1.0569
  796MOL0     C 7327   6.977   1.720   5.815 -0.3695  0.7453 -0.0716
  796MOL0     O 7328   7.018   1.750   5.947 -0.8304  0.3184 -0.0165
  796MOL0     C 7329   7.137   1.702   5.992 -0.3447 -0.1542 -0.0332
  796MOL0     C 7330   7.257   1.719   5.921  0.6180 -0.3668 -0.7399
  796MOL0     C 7331   7.381   1.673   5.970  0.3096 -0.1503 -0.5566
  796MOL0     C 7332   7.385   1.601   6.088 -0.1951  0.5872  0.1859
  796MOL0     O 7333   7.498   1.553   6.153 -1.0721  0.3545 -0.0009
  796MOL0     C 7334   7.636   1.605   6.123  0.1134 -0.3241 -0.2077
  796MOL0     C 7335   7.737   1.506   6.170 -0.3942 -0.3541  0.1009
  796MOL0     C 7336   7.880   1.555   6.119  0.2520  0.0259 -0.3509
  796MOL0     C 7337   7.884   1.506   5.968  0.2107  0.0260 -0.1536
  796MOL0     C 7338   8.027   1.495   5.925  0.8125  0.5977 -0.5388
  796MOL0     C 7339   8.039   1.425   5.791 -0.0060 -0.4420  0.1413
  796MOL0     C 7340   8.169   1.341   5.769  1.1046 -1.0727  0.6114
  796MOL0     C 7341   8.271   1.443   5.740 -0.1160  0.4503  0.2121
  796MOL0     N 7342   8.402   1.376   5.746  1.0070 -0.0562  0.2061
  796MOL0     C 7343   8.453   1.316   5.857  0.4746  0.0162 -0.4512
  796MOL0     C 7344   8.581   1.290   5.813  0.1092 -0.6971 -0.0487
  796MOL0     C 7345   8.690   1.243   5.912 -0.2075  0.5650 -0.1345
  796MOL0     C 7346   8.735   1.349   6.016  0.1864  0.0745  0.5090
  796MOL0     C 7347   8.792   1.477   5.939 -1.6862  0.3428  0.8723
  796MOL0     C 7348   8.924   1.445   5.856  0.8306  0.5366 -0.4390
  796MOL0     O 7349   9.005   1.562   5.846  0.1545  0.2117  0.5244
  796MOL0     C 7350   8.985   1.661   5.751 -0.4049  0.2099  0.5818
  796MOL0     C 7351   9.085   1.762   5.750  0.2526 -0.8820  0.5922
  796MOL0     C 7352   9.086   1.866   5.655 -0.0779  0.0845 -0.0003
  796MOL0     C 7353   8.986   1.874   5.557 -1.1944 -0.0331 -0.6546
  796MOL0     C 7354   8.975   2.000   5.484  0.6994 -0.6513  0.2858
  796MOL0     O 7355   8.845   2.024   5.449 -0.0351  0.7089 -0.5875
  796MOL0     C 7356   8.819   2.147   5.388  0.0504  0.1142  0.8979
  796MOL0     C 7357   8.896   2.205   5.286 -1.0175 -0.5361 -0.2922
  796MOL0     C 7358   8.856   2.327   5.234  1.4605 -0.3211  0.2849
  796MOL0     C 7359   8.749   2.397   5.291  0.0018  0.4302 -0.0939
  796MOL0     O 7360   8.711   2.510   5.233  1.0641 -0.2389 -0.2292
  796MOL0     C 7361   8.649   2.609   5.314  0.3937 -0.0002  0.8755
  796MOL0     C 7362   8.618   2.731   5.226 -0.3255  0.0352  0.9015
  796MOL0     C 7363   8.574   2.842   5.324 -0.3638  0.9721 -0.1261
  796MOL0     C 7364   8.554   2.990   5.268  0.5119  0.9815  0.2470
  796MOL0     C 7365   8.544   3.087   5.378 -0.5162  0.1000  0.5251
  796MOL0     C 7366   8.440   3.064   5.484 -0.2197 -0.5989 -0.1333
  796MOL0     C 7367   8.299   3.057   5.427 -0.2821 -1.2621  0.6502
  796MOL0     C 7368   8.189   3.045   5.531  0.7264 -0.6668 -0.4722
  796MOL0    Cl 7369   8.180   2.893   5.616 -0.9555 -0.2694 -0.2090
  796MOL0     C 7370   8.682   2.335   5.390 -0.4478  1.1172  0.7797
  796MOL0     C 7371   8.711   2.209   5.445 -0.3334  0.2054 -0.4648
  796MOL0     O 7372   9.069   2.065   5.455 -0.7883  0.3353 -0.2690
  796MOL0     C 7373   8.890   1.773   5.562  0.8354  0.0132 -0.0576
  796MOL0     C 7374   8.900   1.661   5.645 -0.4644 -0.1403  1.2565
  796MOL0     N 7375   8.602   1.333   5.677  0.4075 -0.1497  0.0367
  796MOL0     N 7376   8.491   1.398   5.647 -0.4828  0.1917  0.2969
  796MOL0     C 7377   7.265   1.576   6.151 -0.6929  0.1795 -0.5118
  796MOL0     C 7378   7.143   1.630   6.104 -0.7021  0.8313  0.0745
  796MOL0     C 7379   6.825   1.720   5.784  0.6356  0.3777 -0.3994
  796MOL0     C 7380   6.745   1.786   5.878  0.7389 -0.5155  0.0127
  796MOL0     C 7381   6.604   1.782   5.876 -0.6885  0.1942  0.1727
  796MOL0     C 7382   6.532   1.728   5.767  1.2280 -0.9527 -0.3498
  796MOL0     O 7383   6.396   1.712   5.758  0.7352  0.1491  0.4041
  796MOL0     C 7384   6.305   1.777   5.856 -0.5139 -1.3686  0.1812
  796MOL0     C 7385   6.259   1.920   5.805 -0.4179  0.7921  0.7889
  796MOL0     C 7386   6.156   1.980   5.911  0.1394 -0.5815 -0.2854
  796MOL0     C 7387   6.008   1.996   5.866  0.2414 -0.1540 -0.3951
  796MOL0     C 7388   5.994   2.097   5.763 -0.0856 -0.1579  0.2226
  796MOL0     C 7389   6.012   2.182   5.686 -0.3165 -0.4601 -0.2339
  796MOL0     C 7390   6.605   1.679   5.661 -0.2625 -0.3356 -0.6163
  796MOL0     C 7391   6.748   1.664   5.671 -0.0839  1.2562  0.0288
  796MOL0     C 7392   6.808   1.571   5.569 -0.2788 -0.3629  0.5155
  796MOL0     H 7393   7.242   1.791   5.841  1.2877  1.2834  0.5544
  796MOL0     H 7394   7.461   1.713   5.909  0.6396 -1.6383 -1.1704
  796MOL0     H 7395   7.632   1.613   6.014 -2.1232 -2.5441 -0.3731
  796MOL0     H 7396   7.651   1.705   6.165 -0.2049 -0.0563 -0.7280
  796MOL0     H 7397   7.716   1.405   6.133 -0.3215 -0.5817  0.6630
  796MOL0     H 7398   7.729   1.491   6.278 -0.1714  3.4802  0.7892
  796MOL0     H 7399   7.960   1.509   6.178 -0.1614 -0.3951 -0.1060
  796MOL0     H 7400   7.891   1.663   6.136 -0.6724 -0.1957  2.1096
  796MOL0     H 7401   7.843   1.405   5.961  0.4277 -0.0826  0.1109
  796MOL0     H 7402   7.833   1.566   5.893  1.6149  1.0398 -0.3375
  796MOL0     H 7403   8.073   1.594   5.926  0.6746  0.6932  2.2700
  796MOL0     H 7404   8.065   1.420   5.995 -0.2205 -1.7445 -2.3254
  796MOL0     H 7405   7.955   1.355   5.779 -0.5130  0.5846 -3.4376
  796MOL0     H 7406   8.015   1.505   5.721 -1.5733 -0.0760  1.0495
  796MOL0     H 7407   8.152   1.289   5.674  0.5062  2.6535 -1.5068
  796MOL0     H 7408   8.181   1.274   5.855 -2.2257 -2.6451  0.0296
  796MOL0     H 7409   8.246   1.473   5.638  1.6667 -1.6318 -0.9222
  796MOL0     H 7410   8.255   1.522   5.814 -0.0606 -1.0880  1.9586
  796MOL0     H 7411   8.404   1.309   5.954  1.3455  1.3016  0.1111
  796MOL0     H 7412   8.644   1.160   5.966  5.1133 -2.5021  0.4637
  796MOL0     H 7413   8.776   1.205   5.856  0.3439 -0.8851  1.5634
  796MOL0     H 7414   8.655   1.387   6.080  2.7815  0.1624  3.9701
  796MOL0     H 7415   8.809   1.307   6.084  0.2128  0.1486  0.5251
  796MOL0     H 7416   8.814   1.565   6.000  0.6255 -0.8661  1.9656
  796MOL0     H 7417   8.719   1.510   5.865 -0.4074 -0.4025 -0.7876
  796MOL0     H 7418   8.893   1.398   5.762  1.7696  0.4076 -0.6926
  796MOL0     H 7419   8.985   1.379   5.918 -1.5107 -0.9691  0.4210
  796MOL0     H 7420   9.162   1.753   5.827  0.9935 -4.6741 -0.3784
  796MOL0     H 7421   9.160   1.945   5.661 -1.7557  1.7619 -0.3023
  796MOL0     H 7422   8.996   2.178   5.252 -0.3097  1.8161 -0.2929
  796MOL0     H 7423   8.918   2.379   5.161  1.2312 -0.5819 -0.1031
  796MOL0     H 7424   8.562   2.563   5.362  1.8673 -2.6264  1.2383
  796MOL0     H 7425   8.714   2.639   5.398  1.6301  3.2575 -1.0635
  796MOL0     H 7426   8.701   2.774   5.169 -3.4095  0.9102 -3.3947
  796MOL0     H 7427   8.558   2.697   5.142  1.0971  2.0568 -1.0724
  796MOL0     H 7428   8.475   2.808   5.356  0.2768 -1.4981 -0.5106
  796MOL0     H 7429   8.641   2.849   5.411  1.3184 -1.3994 -1.1076
  796MOL0     H 7430   8.478   2.996   5.190 -1.2697 -3.7628  1.2602
  796MOL0     H 7431   8.647   3.011   5.216  2.0640 -0.2378  2.3609
  796MOL0     H 7432   8.537   3.190   5.342 -0.5274 -0.7746 -2.2638
  796MOL0     H 7433   8.645   3.083   5.420  1.8876  1.5160 -4.3462
  796MOL0     H 7434   8.453   2.971   5.540  0.5738 -0.5123 -0.1658
  796MOL0     H 7435   8.456   3.136   5.564 -2.3042 -0.3753  0.1339
  796MOL0     H 7436   8.304   2.978   5.351  3.5703  0.9195 -1.7229
  796MOL0     H 7437   8.284   3.145   5.363  2.9519 -0.3900  0.9044
  796MOL0     H 7438   8.208   3.128   5.600 -1.7971  0.9410 -1.5568
  796MOL0     H 7439   8.093   3.064   5.481 -0.1956 -0.3265  1.3353
  796MOL0     H 7440   8.587   2.366   5.432 -2.1833  0.4607 -2.3959
  796MOL0     H 7441   8.654   2.169   5.528 -0.4202 -1.4760 -1.2914
  796MOL0     H 7442   8.811   1.769   5.488  0.0800 -0.5448  0.7620
  796MOL0     H 7443   8.825   1.583   5.653 -0.3909 -0.1359  2.1649
  796MOL0     H 7444   7.260   1.504   6.232  1.2044 -0.4739 -0.9190
  796MOL0     H 7445   7.050   1.625   6.159  0.1834 -2.8844  1.5899
  796MOL0     H 7446   6.789   1.839   5.962  0.3076  0.5475 -0.4173
  796MOL0     H 7447   6.555   1.812   5.968 -0.1188 -0.5939  0.7401
  796MOL0     H 7448   6.351   1.785   5.955 -1.4526  1.1799  0.4764
  796MOL0     H 7449   6.217   1.715   5.874 -1.2810 -0.3287  0.0967
  796MOL0     H 7450   6.211   1.909   5.707 -1.2831  2.6987  0.9628
  796MOL0     H 7451   6.351   1.973   5.777 -0.5959 -0.3172 -2.3234
  796MOL0     H 7452   6.196   2.075   5.948  0.2480 -1.3790  1.8130
  796MOL0     H 7453   6.159   1.906   5.992  2.6223 -1.9175 -1.4736
  796MOL0     H 7454   5.971   1.898   5.831 -3.2624  1.3548 -1.3686
  796MOL0     H 7455   5.942   2.016   5.950  0.4000  2.5720 -0.8513
  796MOL0     H 7456   6.006   2.258   5.610 -1.3054  1.6001  1.8017
  796MOL0     H 7457   6.550   1.626   5.584  0.6518  0.8937 -2.1685
  796MOL0     H 7458   6.890   1.508   5.606 -2.1464 -3.7665 -0.6402
  796MOL0     H 7459   6.740   1.487   5.553 -1.0465  0.1175  1.1767
  796MOL0     H 7460   6.851   1.616   5.479 -5.4114 -2.2063 -3.4055
  797MOL0     O 7461   4.917   0.628   2.066  0.3329 -0.1678  0.0596
  797MOL0     C 7462   4.865   0.584   1.967 -0.7566  0.7105 -1.2629
  797MOL0     O 7463   4.748   0.513   1.982  0.0822  0.4518 -0.1780
  797MOL0     C 7464   4.708   0.479   2.115 -0.1499 -0.7602 -0.2010
  797MOL0     C 7465   4.731   0.351   2.172  0.7712 -0.3274 -0.0713
  797MOL0     C 7466   4.680   0.322   2.297 -0.1895 -0.3323 -0.5534
  797MOL0     C 7467   4.597   0.407   2.375  0.0760  0.6377  0.5727
  797MOL0     O 7468   4.561   0.367   2.503 -0.2329  0.3135  0.3584
  797MOL0     C 7469   4.502   0.462   2.595  0.2282  0.3393  0.5844
  797MOL0     C 7470   4.516   0.423   2.741 -0.9375 -0.4850  0.0827
  797MOL0     C 7471   4.665   0.416   2.801  0.6734 -0.7548 -0.5001
  797MOL0     C 7472   4.664   0.319   2.914 -0.7305 -0.3933  0.1759
  797MOL0     C 7473   4.781   0.340   3.001 -0.8175 -0.0576 -0.5174
  797MOL0     C 7474   4.792   0.242   3.123 -0.4008  0.3611 -0.2200
  797MOL0     C 7475   4.918   0.264   3.221  0.0191  0.0093  0.1163
  797MOL0     C 7476   4.896   0.352   3.341 -0.8038 -0.2905 -1.4884
  797MOL0     N 7477   4.789   0.316   3.436  0.4130  0.4901  1.0201
  797MOL0     C 7478   4.787   0.226   3.542  1.3285  0.3501  0.1127
  797MOL0     C 7479   4.670   0.256   3.603  0.2072 -0.6700 -0.0466
  797MOL0     C 7480   4.621   0.205   3.735  0.5226  0.9838  0.9065
  797MOL0     C 7481   4.480   0.142   3.705 -0.3354  1.2106  0.3766
  797MOL0     C 7482   4.433   0.070   3.838  0.8411  0.0215  0.3753
  797MOL0     C 7483   4.508  -0.062   3.878 -0.3760  0.3058 -0.4781
  797MOL0     O 7484   4.412  -0.168   3.913 -0.0226  0.2857  0.0115
  797MOL0     C 7485   4.363  -0.173   4.044  0.9945 -0.5879  1.2326
  797MOL0     C 7486   4.420  -0.122   4.155 -0.2900 -0.6055  0.2197
  797MOL0     C 7487   4.354  -0.123   4.274  0.2511  1.1561  0.4053
  797MOL0     C 7488   4.224  -0.182   4.296  0.0606 -1.3374  0.9441
  797MOL0     C 7489   4.138  -0.140   4.415  0.2191 -0.5562  0.1454
  797MOL0     O 7490   3.995  -0.123   4.397 -0.6130 -0.0616 -0.0465
  797MOL0     C 7491   3.904  -0.079   4.489 -1.3927 -0.2471 -0.1053
  797MOL0     C 7492   3.928  -0.060   4.629 -0.3069  0.2039 -0.0008
  797MOL0     C 7493   3.830  -0.033   4.720  0.0159 -1.0962  0.0964
  797MOL0     C 7494   3.697  -0.032   4.674 -0.0968  0.6690  0.6988
  797MOL0     O 7495   3.598  -0.001   4.763  0.1520  0.0084 -1.0964
  797MOL0     C 7496   3.523   0.123   4.743 -1.3480  0.1504  0.1005
  797MOL0     C 7497   3.607   0.238   4.809 -0.4958 -0.9036  0.9079
  797MOL0     C 7498   3.536   0.372   4.809 -0.0508  0.6839  0.5200
  797MOL0     C 7499   3.610   0.497   4.858 -0.0462 -0.8144 -0.2429
  797MOL0     C 7500   3.683   0.479   4.988  0.6311 -0.6082 -0.2147
  797MOL0     C 7501   3.754   0.606   5.035 -0.8513 -0.3675  0.0345
  797MOL0     C 7502   3.656   0.710   5.079  0.6124  0.4077  0.1989
  797MOL0     C 7503   3.702   0.797   5.201  0.3093  0.2381  0.2037
  797MOL0    Cl 7504   3.831   0.901   5.144  0.2468  0.1222  0.0353
  797MOL0     C 7505   3.668  -0.048   4.532 -0.9397  0.0225 -0.4999
  797MOL0     C 7506   3.773  -0.082   4.441 -0.5164  0.1336 -0.1717
  797MOL0     O 7507   4.200  -0.107   4.511 -0.0362  0.9451  0.3110
  797MOL0     C 7508   4.173  -0.236   4.177  0.1678  0.9517  0.7497
  797MOL0     C 7509   4.244  -0.236   4.054 -0.3955 -0.2182  0.7854
  797MOL0     N 7510   4.593   0.347   3.532  0.5026 -0.2225 -0.3818
  797MOL0     N 7511   4.664   0.386   3.427 -0.2613 -0.4145 -0.8618
  797MOL0     C 7512   4.569   0.533   2.321  0.3523 -1.4002  0.1116
  797MOL0     C 7513   4.615   0.568   2.187  0.3957  0.8348  0.1141
  797MOL0     C 7514   4.904   0.624   1.833 -0.4633  0.0961  0.3227
  797MOL0     C 7515   4.829   0.567   1.725 -0.7763 -0.4187  0.0773
  797MOL0     C 7516   4.864   0.589   1.592 -0.7440 -0.1277 -0.0319
  797MOL0     C 7517   4.968   0.675   1.556  0.6303  0.3237  0.2370
  797MOL0     O 7518   5.021   0.699   1.431 -0.0902  0.2156 -0.2264
  797MOL0     C 7519   4.946   0.649   1.320  0.0988  0.0269  1.6281
  797MOL0     C 7520   5.027   0.669   1.177  0.1887  0.0336 -0.3201
  797MOL0     C 7521   4.958   0.577   1.073 -0.7617 -0.6641 -0.1175
  797MOL0     C 7522   5.060   0.514   0.989 -0.2657 -0.4191  0.2822
  797MOL0     C 7523   5.099   0.620   0.887  0.2122  0.7990  0.1574
  797MOL0     C 7524   5.147   0.692   0.794  0.5368  0.2752  0.2541
  797MOL0     C 7525   5.031   0.742   1.659  0.4384  0.0887  0.1337
  797MOL0     C 7526   5.006   0.711   1.793 -0.3247 -0.6961  0.9476
  797MOL0     C 7527   5.104   0.768   1.894  0.2153  0.4529 -0.2866
  797MOL0     H 7528   4.792   0.279   2.119  0.2971  0.3499 -1.5936
  797MOL0     H 7529   4.701   0.227   2.348 -0.1064  0.2155  0.4640
  797MOL0     H 7530   4.554   0.555   2.570  0.3892  0.7922  2.4157
  797MOL0     H 7531   4.399   0.482   2.565  0.5894  0.4342 -0.6611
  797MOL0     H 7532   4.478   0.322   2.759  0.3162 -1.2066 -1.0704
  797MOL0     H 7533   4.466   0.506   2.792 -0.5240  0.3562 -0.8499
  797MOL0     H 7534   4.685   0.518   2.837 -0.1262 -0.7862  0.0632
  797MOL0     H 7535   4.745   0.393   2.731  3.1040 -0.1969  1.8793
  797MOL0     H 7536   4.580   0.334   2.982 -0.2179  3.8499  0.1092
  797MOL0     H 7537   4.669   0.218   2.872 -1.9077 -1.4395  2.3910
  797MOL0     H 7538   4.868   0.323   2.937 -0.3639 -0.1709  0.1205
  797MOL0     H 7539   4.772   0.443   3.037  1.0354 -0.8677  2.5693
  797MOL0     H 7540   4.707   0.235   3.190  2.2780 -3.4945  3.2563
  797MOL0     H 7541   4.802   0.148   3.067 -3.0566  0.5102 -1.0828
  797MOL0     H 7542   5.005   0.308   3.172  0.0849  1.0178  1.0973
  797MOL0     H 7543   4.941   0.163   3.259  1.2498 -0.4594 -1.7469
  797MOL0     H 7544   4.986   0.357   3.403 -1.3811 -0.4320 -0.6160
  797MOL0     H 7545   4.875   0.455   3.313 -1.8767 -0.6626 -2.1546
  797MOL0     H 7546   4.866   0.159   3.573  1.8150  0.6767 -0.3912
  797MOL0     H 7547   4.698   0.139   3.777  1.2642  2.0748  1.2834
  797MOL0     H 7548   4.606   0.286   3.807 -1.9042 -0.6175  2.3668
  797MOL0     H 7549   4.417   0.231   3.699 -1.7045  0.2611  0.3102
  797MOL0     H 7550   4.470   0.089   3.610 -0.6870  1.6909  0.1398
  797MOL0     H 7551   4.326   0.046   3.843 -0.1317  3.8610  1.6728
  797MOL0     H 7552   4.451   0.143   3.917 -1.8721  0.7446  0.4254
  797MOL0     H 7553   4.576  -0.049   3.962  0.5707 -2.8592 -0.6057
  797MOL0     H 7554   4.571  -0.095   3.795  1.5426  0.8162  0.7074
  797MOL0     H 7555   4.512  -0.064   4.159  0.8493 -1.9934 -2.5774
  797MOL0     H 7556   4.408  -0.073   4.355  2.7290  0.0395 -0.4369
  797MOL0     H 7557   4.023  -0.073   4.679 -0.5066 -2.7625 -0.1893
  797MOL0     H 7558   3.848  -0.002   4.822  4.1311  2.7585 -1.4642
  797MOL0     H 7559   3.491   0.136   4.639  1.8227 -0.5633 -1.0596
  797MOL0     H 7560   3.436   0.128   4.809 -1.3625  3.9264  0.0069
  797MOL0     H 7561   3.647   0.215   4.908  0.1831 -1.6752  0.4659
  797MOL0     H 7562   3.697   0.258   4.751 -2.3502  1.8438 -1.2920
  797MOL0     H 7563   3.505   0.398   4.708 -0.2764  3.6083  1.2350
  797MOL0     H 7564   3.451   0.360   4.878 -0.7379 -0.2058 -0.4520
  797MOL0     H 7565   3.533   0.570   4.884 -0.0091 -1.5980  2.2739
  797MOL0     H 7566   3.676   0.547   4.787  1.2200 -1.3166  0.5520
  797MOL0     H 7567   3.756   0.399   4.984  0.9914 -0.4036  1.5596
  797MOL0     H 7568   3.605   0.446   5.057  1.4801 -2.2493 -0.0008
  797MOL0     H 7569   3.820   0.573   5.115  0.5434  0.3448 -0.7910
  797MOL0     H 7570   3.812   0.634   4.947 -0.9270  0.1824  0.1552
  797MOL0     H 7571   3.567   0.659   5.115  0.9352 -0.7200 -0.5691
  797MOL0     H 7572   3.624   0.772   4.995 -2.3703  1.9002  2.2559
  797MOL0     H 7573   3.617   0.833   5.260 -2.0652 -2.8428 -1.0388
  797MOL0     H 7574   3.745   0.731   5.277 -2.0972  1.0442  2.4329
  797MOL0     H 7575   3.566  -0.045   4.493 -1.1512 -0.8021 -0.0365
  797MOL0     H 7576   3.734  -0.091   4.340  1.0628  2.3791 -1.0712
  797MOL0     H 7577   4.076  -0.284   4.186  0.5461 -1.0079 -3.4151
  797MOL0     H 7578   4.185  -0.273   3.970  0.0121  2.2236 -0.6874
  797MOL0     H 7579   4.505   0.607   2.369  1.9171  0.4236 -0.4720
  797MOL0     H 7580   4.587   0.663   2.144  2.2643  2.0293  1.3951
  797MOL0     H 7581   4.754   0.489   1.740 -0.3590 -0.5145  1.7893
  797MOL0     H 7582   4.812   0.541   1.510 -0.5451  0.3358 -0.4336
  797MOL0     H 7583   4.851   0.698   1.296  0.4332 -0.2554 -0.4855
  797MOL0     H 7584   4.937   0.541   1.335  1.4674 -0.4906 -0.7465
  797MOL0     H 7585   5.133   0.652   1.194  0.1531 -0.2057 -0.3291
  797MOL0     H 7586   5.014   0.770   1.137 -2.0215  0.5287  1.4395
  797MOL0     H 7587   4.880   0.617   1.007 -1.3347 -3.3857 -1.2265
  797MOL0     H 7588   4.908   0.497   1.128 -1.4450 -0.1814 -0.0301
  797MOL0     H 7589   5.147   0.496   1.053  0.9753  3.0695 -0.2383
  797MOL0     H 7590   5.020   0.424   0.941 -3.8861  0.8745  0.5208
  797MOL0     H 7591   5.190   0.750   0.715  2.4589 -0.6146  0.5798
  797MOL0     H 7592   5.103   0.817   1.629 -3.2365  2.9613 -2.4250
  797MOL0     H 7593   5.158   0.693   1.951  0.7208  1.2098  0.2357
  797MOL0     H 7594   5.173   0.836   1.843  1.2667 -2.0134 -2.4145
  797MOL0     H 7595   5.049   0.831   1.964  0.9735  0.5115  0.2551
  798MOL0     O 7596   9.069   1.629   9.137 -0.2354 -0.2305 -0.2707
  798MOL0     C 7597   9.042   1.515   9.168 -0.5066  0.8261  0.2295
  798MOL0     O 7598   8.980   1.476   9.291 -0.2043 -0.0025 -0.4119
  798MOL0     C 7599   8.936   1.582   9.370 -0.0376 -0.4264  0.5813
  798MOL0     C 7600   8.806   1.624   9.350  0.6248  0.1679  0.7136
  798MOL0     C 7601   8.740   1.716   9.432 -0.2859  0.0707 -0.1268
  798MOL0     C 7602   8.806   1.749   9.553  1.9153  0.0777 -0.4574
  798MOL0     O 7603   8.745   1.833   9.639 -0.0590 -0.1502  0.2425
  798MOL0     C 7604   8.637   1.932   9.606  0.6207  0.4833  0.4056
  798MOL0     C 7605   8.617   2.027   9.727  0.6649 -0.6124  0.1574
  798MOL0     C 7606   8.504   2.127   9.709 -0.3447 -0.2824  0.6504
  798MOL0     C 7607   8.548   2.243   9.620  1.1786  0.0180 -0.0356
  798MOL0     C 7608   8.486   2.374   9.660  0.4232 -1.0689 -0.0134
  798MOL0     C 7609   8.337   2.380   9.662 -0.3033  0.1305  0.5724
  798MOL0     C 7610   8.268   2.512   9.688 -0.4158  0.7085  0.2997
  798MOL0     C 7611   8.123   2.490   9.720  0.1948 -0.0320  0.1335
  798MOL0     N 7612   8.058   2.617   9.727 -0.0017  0.1586  0.0108
  798MOL0     C 7613   8.076   2.704   9.832 -0.1314 -0.6038  0.9614
  798MOL0     C 7614   8.004   2.811   9.788  0.1506  1.1561  0.7233
  798MOL0     C 7615   7.987   2.948   9.850 -0.3648  0.0647 -0.6437
  798MOL0     C 7616   8.083   3.063   9.797 -0.5510 -0.2635 -0.5394
  798MOL0     C 7617   8.209   3.074   9.883  0.2011  0.7593 -0.6809
  798MOL0     C 7618   8.318   3.178   9.841  0.4892 -0.3249 -0.2561
  798MOL0     O 7619   8.384   3.143   9.720  0.6526 -0.4112 -0.1418
  798MOL0     C 7620   8.472   3.238   9.690 -0.1149  0.9406  1.3803
  798MOL0     C 7621   8.608   3.215   9.707 -1.2758 -0.7795  0.1380
  798MOL0     C 7622   8.710   3.304   9.660 -0.1895 -0.8017  0.5901
  798MOL0     C 7623   8.670   3.421   9.592 -0.5567 -0.1953 -0.6581
  798MOL0     C 7624   8.769   3.504   9.535 -0.6467 -0.0802  0.3407
  798MOL0     O 7625   8.717   3.613   9.465  0.1219 -0.0504  0.2468
  798MOL0     C 7626   8.781   3.737   9.456 -0.6374  0.3297 -0.2225
  798MOL0     C 7627   8.811   3.793   9.331  0.0720  1.1189  0.3565
  798MOL0     C 7628   8.884   3.907   9.319 -0.4198 -0.1848 -0.1121
  798MOL0     C 7629   8.929   3.974   9.433 -0.4647  0.7939 -0.2356
  798MOL0     O 7630   9.003   4.081   9.437  0.0475  0.5340  1.0651
  798MOL0     C 7631   8.976   4.183   9.344 -0.7721  0.6981  0.1433
  798MOL0     C 7632   8.854   4.270   9.377 -0.0678 -0.2393 -0.2593
  798MOL0     C 7633   8.873   4.340   9.516 -0.2753 -0.5301  0.1207
  798MOL0     C 7634   8.748   4.406   9.572 -0.4490 -0.2137  0.0797
  798MOL0     C 7635   8.763   4.414   9.726 -1.0105 -0.3497 -0.1450
  798MOL0     C 7636   8.651   4.473   9.805  0.4720 -0.1997 -0.4049
  798MOL0     C 7637   8.560   4.355   9.845 -0.2753  0.0703  0.2496
  798MOL0     C 7638   8.486   4.394   9.978  0.0308  0.0368  0.3602
  798MOL0    Cl 7639   8.591   4.396  10.124  0.1078  0.4668  0.1292
  798MOL0     C 7640   8.903   3.923   9.562 -0.9723  0.3156 -0.4978
  798MOL0     C 7641   8.830   3.807   9.570  0.0273 -0.0603 -0.7773
  798MOL0     O 7642   8.887   3.493   9.557 -0.7945  0.1124  0.1029
  798MOL0     C 7643   8.527   3.431   9.565 -0.2946 -0.5602 -0.0566
  798MOL0     C 7644   8.428   3.345   9.615  0.6851  0.0075  1.0656
  798MOL0     N 7645   7.945   2.790   9.663 -0.7744  0.5184  0.5387
  798MOL0     N 7646   7.984   2.667   9.627 -0.2074  0.0836  0.6179
  798MOL0     C 7647   8.933   1.707   9.575  0.4609  0.2799  0.2629
  798MOL0     C 7648   8.998   1.618   9.488  0.4582  0.4508 -0.1395
  798MOL0     C 7649   9.100   1.406   9.086 -0.7374  0.7093  0.0306
  798MOL0     C 7650   9.199   1.445   9.003 -0.9268 -0.2493 -0.6890
  798MOL0     C 7651   9.276   1.349   8.939  0.2559 -0.6173 -0.3964
  798MOL0     C 7652   9.241   1.214   8.941  0.1178 -1.4905  0.2690
  798MOL0     O 7653   9.321   1.127   8.867 -1.0568  0.4938 -0.4501
  798MOL0     C 7654   9.305   0.988   8.881 -0.4702 -0.7625  0.8657
  798MOL0     C 7655   9.275   0.915   8.752  0.6236 -0.0372  0.3402
  798MOL0     C 7656   9.129   0.934   8.704  0.8522  0.6796 -0.2102
  798MOL0     C 7657   9.093   0.852   8.579 -1.0534  0.1876  0.0761
  798MOL0     C 7658   9.129   0.904   8.459 -0.4306  0.6393  0.9893
  798MOL0     C 7659   9.166   0.955   8.356 -0.0048 -0.7413 -0.3648
  798MOL0     C 7660   9.126   1.172   9.008  0.8130  0.2082 -1.0307
  798MOL0     C 7661   9.061   1.266   9.095 -0.4028 -0.9993  0.2264
  798MOL0     C 7662   8.932   1.218   9.160  0.1532  0.5766 -0.2074
  798MOL0     H 7663   8.757   1.582   9.262  0.7427 -0.4885  0.9559
  798MOL0     H 7664   8.648   1.762   9.400  1.2146  1.6750 -2.4922
  798MOL0     H 7665   8.664   1.990   9.518  3.0926 -1.5628 -0.3034
  798MOL0     H 7666   8.547   1.877   9.578 -0.3556  2.4595 -0.5264
  798MOL0     H 7667   8.708   2.082   9.751 -0.3312 -0.6949  5.0583
  798MOL0     H 7668   8.602   1.968   9.818  0.6306 -1.2995 -0.2797
  798MOL0     H 7669   8.491   2.161   9.813  3.9730 -0.2158  1.3430
  798MOL0     H 7670   8.418   2.078   9.662 -0.7382 -0.9974  2.0517
  798MOL0     H 7671   8.657   2.252   9.624  1.2507 -0.0803  4.8990
  798MOL0     H 7672   8.515   2.231   9.516  2.5603 -2.0123 -0.2953
  798MOL0     H 7673   8.524   2.401   9.759 -0.6237 -2.9015  0.9353
  798MOL0     H 7674   8.520   2.455   9.594  1.6397 -1.1047  0.5264
  798MOL0     H 7675   8.297   2.340   9.568 -0.5618 -0.4402  0.9229
  798MOL0     H 7676   8.300   2.301   9.728 -3.8785 -1.3977 -2.8185
  798MOL0     H 7677   8.267   2.575   9.598 -3.3521  1.1039  0.5267
  798MOL0     H 7678   8.318   2.564   9.771  0.0722  1.1204 -0.2433
  798MOL0     H 7679   8.061   2.420   9.663 -2.4335  2.2674 -0.0040
  798MOL0     H 7680   8.122   2.457   9.825  2.1364  2.4731  1.0247
  798MOL0     H 7681   8.127   2.688   9.927  0.4562  0.2415  0.8005
  798MOL0     H 7682   7.884   2.967   9.819 -0.1235 -0.0501 -1.5622
  798MOL0     H 7683   8.006   2.937   9.957 -1.1342 -0.9717 -0.5978
  798MOL0     H 7684   8.096   3.057   9.688  0.0449  2.7353 -0.7064
  798MOL0     H 7685   8.030   3.157   9.814 -0.7440 -0.2266 -1.3090
  798MOL0     H 7686   8.246   2.971   9.880 -1.4677  0.1068 -0.0262
  798MOL0     H 7687   8.194   3.099   9.989  2.2025  1.7020 -0.5854
  798MOL0     H 7688   8.390   3.208   9.918 -0.7695  2.0696  0.0420
  798MOL0     H 7689   8.257   3.266   9.823  0.1388  0.0283  2.2344
  798MOL0     H 7690   8.647   3.128   9.759  1.5050  0.2549 -0.0774
  798MOL0     H 7691   8.816   3.286   9.676  0.4490  1.5372 -0.5726
  798MOL0     H 7692   8.784   3.752   9.234 -2.5437 -1.8699  2.1785
  798MOL0     H 7693   8.904   3.954   9.223 -2.2061  0.9343  0.0103
  798MOL0     H 7694   9.068   4.240   9.331 -1.0882  0.6077 -3.2318
  798MOL0     H 7695   8.958   4.142   9.244 -1.3610  1.2909  0.0044
  798MOL0     H 7696   8.842   4.352   9.306  1.3923  2.4408  2.3635
  798MOL0     H 7697   8.767   4.205   9.374  1.1410 -1.9358 -2.6840
  798MOL0     H 7698   8.892   4.259   9.587 -0.7633  0.4758  1.4376
  798MOL0     H 7699   8.947   4.420   9.523 -2.6078  1.6902  1.3037
  798MOL0     H 7700   8.668   4.337   9.544  0.6477 -0.8883 -1.6015
  798MOL0     H 7701   8.730   4.501   9.519  0.7064 -0.3144 -0.5343
  798MOL0     H 7702   8.844   4.485   9.745 -1.7742  0.8491 -1.2128
  798MOL0     H 7703   8.795   4.318   9.767 -0.0637  0.8222  2.0135
  798MOL0     H 7704   8.695   4.517   9.894 -0.1577 -0.4085  0.0200
  798MOL0     H 7705   8.587   4.547   9.755 -0.1675 -0.3762  0.1328
  798MOL0     H 7706   8.620   4.265   9.863  2.9736  0.9465 -4.2372
  798MOL0     H 7707   8.485   4.324   9.771  1.0016 -5.4201  0.8661
  798MOL0     H 7708   8.441   4.493   9.964 -0.8159 -0.4267 -0.2245
  798MOL0     H 7709   8.403   4.323   9.983 -0.8671  1.1451  2.6485
  798MOL0     H 7710   8.940   3.958   9.658  1.9381 -3.7182  0.1192
  798MOL0     H 7711   8.814   3.776   9.673 -0.3949  0.4338 -0.6898
  798MOL0     H 7712   8.495   3.517   9.507 -1.0950  0.1095  1.3270
  798MOL0     H 7713   8.324   3.364   9.590  1.0387 -1.5904 -2.0846
  798MOL0     H 7714   8.997   1.737   9.657  1.2950 -3.3220  1.0896
  798MOL0     H 7715   9.088   1.563   9.511 -1.5955 -3.5651 -0.8576
  798MOL0     H 7716   9.239   1.545   8.984  0.4140 -0.6494 -0.0639
  798MOL0     H 7717   9.364   1.380   8.885 -0.1471  1.7057  0.1606
  798MOL0     H 7718   9.249   0.943   8.964  0.5737 -1.3650  1.2575
  798MOL0     H 7719   9.404   0.955   8.912 -0.7523 -2.3757  0.1434
  798MOL0     H 7720   9.304   0.813   8.778  0.7735  0.4063  2.0370
  798MOL0     H 7721   9.339   0.954   8.672  0.3072 -1.7806 -0.8182
  798MOL0     H 7722   9.101   1.039   8.695 -2.8625 -0.2795 -1.7729
  798MOL0     H 7723   9.068   0.897   8.787 -0.2194  1.7957 -0.4832
  798MOL0     H 7724   9.145   0.756   8.587  4.0241  2.5018 -0.9132
  798MOL0     H 7725   8.989   0.820   8.567 -1.7660  2.0830  0.8886
  798MOL0     H 7726   9.201   1.004   8.268  0.8413 -2.5754 -1.1052
  798MOL0     H 7727   9.085   1.072   9.002  1.9593 -0.2337 -1.8648
  798MOL0     H 7728   8.934   1.232   9.269  2.0321 -3.5312  0.4715
  798MOL0     H 7729   8.837   1.247   9.115 -0.8894 -3.2106 -0.8130
  798MOL0     H 7730   8.937   1.109   9.161  3.1655  0.6280 -0.3850
  799MOL0     O 7731  11.489   7.309   5.411  0.4386  0.4298  0.8711
  799MOL0     C 7732  11.563   7.223   5.372 -0.3458  0.5436  0.5467
  799MOL0     O 7733  11.558   7.086   5.420 -0.1876 -0.9521  0.0856
  799MOL0     C 7734  11.450   7.051   5.506 -0.7558  0.1557  0.8333
  799MOL0     C 7735  11.407   7.134   5.606  0.0889 -0.5508 -0.2132
  799MOL0     C 7736  11.317   7.097   5.698  0.1936 -0.6416  0.1555
  799MOL0     C 7737  11.255   6.974   5.686 -0.4623 -0.0495  0.5100
  799MOL0     O 7738  11.149   6.940   5.764  0.2137 -1.0414  0.0378
  799MOL0     C 7739  11.073   7.037   5.848  0.4478  0.3445  0.1603
  799MOL0     C 7740  10.938   6.978   5.902  0.0111  0.4416  0.2903
  799MOL0     C 7741  10.957   6.828   5.942 -0.0914  0.5520 -0.4272
  799MOL0     C 7742  10.994   6.837   6.094  0.0281  0.6381  0.7395
  799MOL0     C 7743  10.876   6.847   6.189  0.6088  0.5512  0.7790
  799MOL0     C 7744  10.929   6.866   6.330 -0.6119  0.0867  0.4803
  799MOL0     C 7745  10.806   6.912   6.419  0.3292 -0.1124 -0.2194
  799MOL0     C 7746  10.703   6.789   6.453  0.6473 -0.2114  0.1663
  799MOL0     N 7747  10.611   6.805   6.573  0.0850  0.6247  0.8258
  799MOL0     C 7748  10.479   6.757   6.582  0.0321 -0.3870 -0.1724
  799MOL0     C 7749  10.428   6.816   6.702  0.7003  0.4270 -0.5184
  799MOL0     C 7750  10.283   6.792   6.734  0.3026  0.0941 -0.6718
  799MOL0     C 7751  10.245   6.788   6.885 -0.5152  0.2044  0.7211
  799MOL0     C 7752  10.345   6.703   6.962  0.1277 -0.3387  0.1675
  799MOL0     C 7753  10.282   6.672   7.098 -0.2512 -0.6610  0.2462
  799MOL0     O 7754  10.388   6.627   7.186  0.6074 -0.1796 -0.3126
  799MOL0     C 7755  10.349   6.527   7.271  0.0705  0.2184 -0.9598
  799MOL0     C 7756  10.458   6.473   7.337  0.5728 -0.3652  0.6213
  799MOL0     C 7757  10.442   6.357   7.409 -0.1201  0.7680  0.4532
  799MOL0     C 7758  10.313   6.307   7.440 -0.1179 -0.5459 -0.4799
  799MOL0     C 7759  10.290   6.198   7.539  0.1511  0.0724  0.6188
  799MOL0     O 7760  10.397   6.152   7.619 -0.0089 -0.2863  0.2977
  799MOL0     C 7761  10.376   6.037   7.698  1.1313 -0.6145 -0.1192
  799MOL0     C 7762  10.384   6.052   7.838  0.1247  1.0089 -0.0502
  799MOL0     C 7763  10.363   5.943   7.926  0.0447  0.5365 -0.4551
  799MOL0     C 7764  10.293   5.837   7.867 -0.0503  0.3309  0.3258
  799MOL0     O 7765  10.248   5.723   7.941  1.2212 -0.4733  0.3785
  799MOL0     C 7766  10.199   5.748   8.077  0.5011 -0.1802  0.1469
  799MOL0     C 7767  10.144   5.613   8.141  0.0259  0.1194  0.1537
  799MOL0     C 7768  10.075   5.632   8.272 -0.3705 -0.2450 -0.5654
  799MOL0     C 7769   9.947   5.701   8.253  0.6147 -0.9465 -0.4248
  799MOL0     C 7770   9.846   5.666   8.364 -0.1264  0.1216  0.3724
  799MOL0     C 7771   9.861   5.757   8.486  0.4725  0.6810 -0.9068
  799MOL0     C 7772   9.786   5.694   8.607  0.0769  0.2411 -0.4295
  799MOL0     C 7773   9.776   5.782   8.739  0.0542  0.2916 -0.0400
  799MOL0    Cl 7774   9.936   5.808   8.788 -0.2835 -0.1137  0.0897
  799MOL0     C 7775  10.271   5.810   7.727 -0.1995 -0.4227 -0.4192
  799MOL0     C 7776  10.317   5.921   7.647 -0.4735 -0.2384  0.9523
  799MOL0     O 7777  10.179   6.148   7.547 -0.1765 -0.1030  0.2707
  799MOL0     C 7778  10.205   6.373   7.384 -1.0483 -0.2250 -0.0274
  799MOL0     C 7779  10.211   6.489   7.302 -1.6406  0.1516 -0.4845
  799MOL0     N 7780  10.533   6.883   6.759 -0.2724  0.0220 -0.2754
  799MOL0     N 7781  10.633   6.889   6.677  0.2721  0.0460 -0.1766
  799MOL0     C 7782  11.303   6.885   5.588  0.5637  0.6406 -0.2418
  799MOL0     C 7783  11.394   6.921   5.498 -1.0212 -0.0949  0.1292
  799MOL0     C 7784  11.642   7.239   5.241  0.5248  0.1747 -1.0851
  799MOL0     C 7785  11.706   7.122   5.179  0.8994 -0.4082  0.1391
  799MOL0     C 7786  11.781   7.140   5.070  0.6996 -0.2081 -0.5701
  799MOL0     C 7787  11.795   7.265   5.009 -0.5090 -0.3091  0.0714
  799MOL0     O 7788  11.877   7.287   4.904 -0.1099  0.1616  0.9132
  799MOL0     C 7789  11.864   7.195   4.793  0.1997 -0.0871 -0.4485
  799MOL0     C 7790  12.010   7.146   4.752  0.5460  0.3196  0.4195
  799MOL0     C 7791  12.084   7.064   4.857  0.1279 -0.2726 -0.4843
  799MOL0     C 7792  12.230   7.057   4.828  0.7145  0.1326  0.4660
  799MOL0     C 7793  12.313   7.037   4.947  0.5476  0.4120  0.7786
  799MOL0     C 7794  12.377   7.045   5.053 -0.0563 -0.4714  0.7957
  799MOL0     C 7795  11.723   7.379   5.056  1.0262  0.3204  1.2338
  799MOL0     C 7796  11.654   7.367   5.178 -0.6794  1.4243  0.9139
  799MOL0     C 7797  11.582   7.481   5.223  0.3336 -1.1601  1.1021
  799MOL0     H 7798  11.447   7.232   5.631 -1.7065 -0.0398  0.8982
  799MOL0     H 7799  11.288   7.168   5.775  1.4277  0.3541 -0.2562
  799MOL0     H 7800  11.141   7.063   5.930  2.9168  1.0986 -1.9904
  799MOL0     H 7801  11.065   7.125   5.784  0.5831 -0.7992 -1.4973
  799MOL0     H 7802  10.853   6.986   5.833  1.5509  4.1619 -1.4770
  799MOL0     H 7803  10.907   7.032   5.992 -0.3369 -0.4806  0.7391
  799MOL0     H 7804  11.044   6.784   5.893  0.3967  0.8399  0.1814
  799MOL0     H 7805  10.861   6.777   5.929 -2.6337  4.6546  0.2611
  799MOL0     H 7806  11.043   6.743   6.118 -0.2584  1.0819  3.3484
  799MOL0     H 7807  11.062   6.921   6.110 -0.9323  1.5997 -0.0511
  799MOL0     H 7808  10.819   6.936   6.163  0.5636 -0.3102 -2.4881
  799MOL0     H 7809  10.817   6.755   6.191  2.5431 -0.7778  0.2302
  799MOL0     H 7810  10.971   6.773   6.370  2.2598  1.8699  1.9295
  799MOL0     H 7811  11.017   6.931   6.330 -1.5301  1.3507  0.9368
  799MOL0     H 7812  10.757   7.004   6.386  0.7941  1.8389  3.9234
  799MOL0     H 7813  10.849   6.935   6.517  3.7466 -0.9216 -1.3835
  799MOL0     H 7814  10.642   6.767   6.366  1.2340 -2.5361  0.2922
  799MOL0     H 7815  10.773   6.707   6.472  1.2943  0.1800 -0.4536
  799MOL0     H 7816  10.420   6.701   6.510  1.2966  1.5421 -2.8964
  799MOL0     H 7817  10.223   6.875   6.695 -0.5233 -0.0322  0.2949
  799MOL0     H 7818  10.255   6.697   6.688 -0.1353 -0.7984  1.3322
  799MOL0     H 7819  10.237   6.894   6.912 -0.9204  0.3820 -0.0742
  799MOL0     H 7820  10.147   6.739   6.889  0.3069 -1.5433  0.3323
  799MOL0     H 7821  10.444   6.749   6.961  0.8943 -1.5449 -4.4497
  799MOL0     H 7822  10.363   6.606   6.914  1.6656  0.1203 -0.2502
  799MOL0     H 7823  10.201   6.606   7.067  0.1195 -0.2133 -1.9110
  799MOL0     H 7824  10.235   6.758   7.145 -2.5840 -1.8064  0.1452
  799MOL0     H 7825  10.554   6.508   7.301  1.1636  0.0365  2.4621
  799MOL0     H 7826  10.531   6.320   7.458  1.3296  4.2208  0.6754
  799MOL0     H 7827  10.420   6.149   7.872  0.0220  0.2774  2.3362
  799MOL0     H 7828  10.385   5.949   8.032  0.7240 -1.4159 -0.4476
  799MOL0     H 7829  10.274   5.806   8.132  1.1236  0.1279 -0.9832
  799MOL0     H 7830  10.120   5.824   8.070 -0.5845 -1.2220  0.8500
  799MOL0     H 7831  10.075   5.584   8.062  1.7540  1.9667 -2.2119
  799MOL0     H 7832  10.237   5.556   8.151  2.3222  3.8401  2.4239
  799MOL0     H 7833  10.053   5.532   8.312  0.6797 -0.4672 -0.5257
  799MOL0     H 7834  10.134   5.685   8.348 -2.2869 -2.0964  2.4452
  799MOL0     H 7835   9.900   5.659   8.163 -1.4334  1.4031 -0.5744
  799MOL0     H 7836   9.955   5.809   8.242 -2.2149 -0.8181 -2.6548
  799MOL0     H 7837   9.841   5.558   8.381 -3.8997 -0.2421 -1.9001
  799MOL0     H 7838   9.749   5.684   8.318  0.1847 -2.3617 -1.4477
  799MOL0     H 7839   9.966   5.772   8.512  0.1792 -0.3027  1.0365
  799MOL0     H 7840   9.820   5.857   8.467 -3.7967 -0.3628  1.4543
  799MOL0     H 7841   9.843   5.607   8.642 -0.7593 -0.0221  0.3354
  799MOL0     H 7842   9.682   5.674   8.581  0.1927  0.5270 -1.1374
  799MOL0     H 7843   9.728   5.880   8.733 -2.2102 -0.8238 -1.0955
  799MOL0     H 7844   9.736   5.733   8.829  1.0639  1.8293  1.3121
  799MOL0     H 7845  10.232   5.715   7.691  0.8102 -2.2592  2.9351
  799MOL0     H 7846  10.313   5.923   7.538 -0.7072 -3.0063  0.8192
  799MOL0     H 7847  10.103   6.345   7.410 -0.7824  0.8480  2.4778
  799MOL0     H 7848  10.124   6.523   7.248  0.6709  0.9299 -3.9961
  799MOL0     H 7849  11.263   6.784   5.582 -4.2309  2.3464 -2.9777
  799MOL0     H 7850  11.439   6.864   5.417  0.0429 -0.0506  0.6802
  799MOL0     H 7851  11.708   7.020   5.216  0.5770 -0.7546 -0.7753
  799MOL0     H 7852  11.836   7.059   5.023  2.4028 -0.1659  1.2310
  799MOL0     H 7853  11.826   7.248   4.705 -0.4727 -0.3779 -0.3361
  799MOL0     H 7854  11.790   7.117   4.813 -0.9378  0.9026 -0.7106
  799MOL0     H 7855  12.060   7.241   4.730 -0.0183  1.2819  3.0101
  799MOL0     H 7856  12.004   7.094   4.656  3.8336  0.1442  0.1890
  799MOL0     H 7857  12.041   6.963   4.856 -2.0444  0.4624  2.7295
  799MOL0     H 7858  12.073   7.101   4.959 -0.1439 -0.8804 -0.2880
  799MOL0     H 7859  12.251   6.982   4.751  0.4199  1.9705 -1.5356
  799MOL0     H 7860  12.263   7.148   4.775 -1.2493 -0.1639 -1.3948
  799MOL0     H 7861  12.433   7.040   5.144  0.4606 -1.3789  0.4408
  799MOL0     H 7862  11.725   7.474   5.003 -0.0855  0.2603  1.0583
  799MOL0     H 7863  11.624   7.516   5.318 -1.2199 -1.2340  1.8549
  799MOL0     H 7864  11.597   7.564   5.154  1.4490 -3.1784 -1.2046
  799MOL0     H 7865  11.474   7.465   5.237 -0.1880  1.2477  0.2848
  800MOL0     O 7866   0.500   2.675   2.205  0.5446 -0.0685  0.4578
  800MOL0     C 7867   0.440   2.784   2.228  1.0238 -0.2147 -0.1802
  800MOL0     O 7868   0.315   2.798   2.286 -0.6188 -0.2954  0.8549
  800MOL0     C 7869   0.225   2.696   2.293 -0.3371  0.4041 -0.5603
  800MOL0     C 7870   0.246   2.561   2.243  1.0995  0.2315 -0.4030
  800MOL0     C 7871   0.183   2.453   2.298  0.3779 -0.2703  0.0013
  800MOL0     C 7872   0.080   2.472   2.384 -0.7252  0.2961 -0.6125
  800MOL0     O 7873   0.044   2.348   2.438 -0.1715  0.7677  0.7134
  800MOL0     C 7874  -0.019   2.329   2.565 -1.1246  0.6446  0.7150
  800MOL0     C 7875  -0.052   2.174   2.579 -0.3035 -0.1884  0.1204
  800MOL0     C 7876  -0.188   2.140   2.545  0.3518 -0.2050  0.2309
  800MOL0     C 7877  -0.206   1.990   2.558 -0.3136  0.3927 -0.4230
  800MOL0     C 7878  -0.359   1.952   2.564 -0.1440  1.3702  0.1238
  800MOL0     C 7879  -0.387   1.806   2.572 -0.3567 -0.7617 -0.2682
  800MOL0     C 7880  -0.305   1.714   2.661 -0.0313  1.0952  0.1499
  800MOL0     C 7881  -0.375   1.574   2.653  0.4597 -0.7049 -0.0054
  800MOL0     N 7882  -0.300   1.477   2.733  0.3762 -0.4640  0.4737
  800MOL0     C 7883  -0.179   1.411   2.721 -0.5657 -0.8734 -0.2053
  800MOL0     C 7884  -0.165   1.340   2.839 -0.1548 -0.3329  0.4689
  800MOL0     C 7885  -0.046   1.250   2.864 -0.5859 -0.4284  0.4058
  800MOL0     C 7886  -0.029   1.133   2.767  0.0271  0.0635 -0.0294
  800MOL0     C 7887   0.102   1.062   2.789  0.7032  0.5748 -0.0494
  800MOL0     C 7888   0.122   1.007   2.938 -0.7475 -0.1493 -0.2011
  800MOL0     O 7889   0.229   0.910   2.946 -0.4840 -0.9652  0.4536
  800MOL0     C 7890   0.190   0.780   2.970  0.3368  0.4320 -0.2083
  800MOL0     C 7891   0.147   0.702   2.861  0.0248 -0.5927  0.3689
  800MOL0     C 7892   0.091   0.580   2.882  0.3149  0.1390  0.1502
  800MOL0     C 7893   0.102   0.511   3.005 -0.0352  0.4431 -0.3568
  800MOL0     C 7894   0.050   0.372   3.031  0.3875 -0.1389  0.1001
  800MOL0     O 7895  -0.003   0.298   2.926 -1.3375 -1.0547  0.2430
  800MOL0     C 7896  -0.021   0.165   2.936 -0.2134  0.5288 -0.8546
  800MOL0     C 7897   0.060   0.069   2.878  0.1965 -0.6348  0.4183
  800MOL0     C 7898   0.029  -0.064   2.880  0.3413 -0.0098 -0.5886
  800MOL0     C 7899  -0.083  -0.111   2.948  1.5254 -0.1973  0.2595
  800MOL0     O 7900  -0.118  -0.244   2.944  0.4529  0.1080  0.2431
  800MOL0     C 7901  -0.242  -0.270   3.016  0.1726  0.0411 -0.3571
  800MOL0     C 7902  -0.254  -0.418   3.005  0.3118 -0.4257  0.6061
  800MOL0     C 7903  -0.374  -0.481   3.077 -0.3253  0.4354  0.5497
  800MOL0     C 7904  -0.325  -0.494   3.227  0.0619 -0.2343  0.8614
  800MOL0     C 7905  -0.442  -0.530   3.319  0.2932  0.4606 -0.0602
  800MOL0     C 7906  -0.393  -0.523   3.472 -0.3741  0.5122  0.1707
  800MOL0     C 7907  -0.513  -0.533   3.582 -0.4489 -0.5393  0.1671
  800MOL0     C 7908  -0.609  -0.408   3.601 -0.6897 -0.1993 -0.0636
  800MOL0    Cl 7909  -0.707  -0.398   3.768 -0.1981  0.4094 -0.0326
  800MOL0     C 7910  -0.171  -0.014   3.001  0.3289 -0.6039 -0.1032
  800MOL0     C 7911  -0.134   0.125   3.001 -1.1343  0.6625  0.5976
  800MOL0     O 7912   0.081   0.324   3.141 -0.3844 -0.3872 -0.5103
  800MOL0     C 7913   0.154   0.594   3.108  1.5473 -0.6639 -0.4741
  800MOL0     C 7914   0.198   0.726   3.093 -0.2344  0.5462 -0.9221
  800MOL0     N 7915  -0.280   1.349   2.913 -0.4895  0.9224  0.1932
  800MOL0     N 7916  -0.347   1.438   2.853 -0.3894 -0.5056 -0.1444
  800MOL0     C 7917   0.046   2.602   2.427  0.2667  1.2807  0.5669
  800MOL0     C 7918   0.119   2.712   2.390  1.0263 -0.1443 -0.1892
  800MOL0     C 7919   0.500   2.903   2.160 -0.2299 -0.2860 -0.2691
  800MOL0     C 7920   0.412   3.008   2.139 -0.5413 -0.0237 -0.4287
  800MOL0     C 7921   0.446   3.145   2.101 -0.7171  1.0074  0.3141
  800MOL0     C 7922   0.583   3.156   2.069  0.2833 -0.3074  0.1704
  800MOL0     O 7923   0.643   3.274   2.025 -0.0518 -0.3358  0.6446
  800MOL0     C 7924   0.727   3.338   2.125  0.1597  0.0526 -0.3031
  800MOL0     C 7925   0.668   3.456   2.203  0.1308  0.4596 -1.0178
  800MOL0     C 7926   0.574   3.394   2.317 -0.1053 -0.7691 -0.5361
  800MOL0     C 7927   0.514   3.503   2.411  0.5098 -0.2640  0.6190
  800MOL0     C 7928   0.443   3.612   2.350  0.3874 -0.7824 -0.2180
  800MOL0     C 7929   0.382   3.714   2.309 -0.1651 -0.0828 -0.2857
  800MOL0     C 7930   0.676   3.050   2.075  0.1515 -0.1939 -0.3233
  800MOL0     C 7931   0.636   2.924   2.136 -0.6361  0.0881  0.8395
  800MOL0     C 7932   0.742   2.810   2.149 -0.9768 -0.0298  1.2180
  800MOL0     H 7933   0.317   2.545   2.163  1.4327 -4.8175  0.5432
  800MOL0     H 7934   0.194   2.352   2.259  3.4337 -0.3009  0.7514
  800MOL0     H 7935   0.057   2.338   2.644  2.6770 -0.7799 -2.4888
  800MOL0     H 7936  -0.105   2.395   2.577 -1.0373  0.6020  1.7020
  800MOL0     H 7937  -0.019   2.146   2.680  0.3322 -2.0872 -0.5664
  800MOL0     H 7938   0.015   2.127   2.506  0.8890  3.7468 -1.5730
  800MOL0     H 7939  -0.213   2.183   2.447 -1.7765  1.8784  1.5741
  800MOL0     H 7940  -0.258   2.191   2.611  0.6218 -1.2161  1.3230
  800MOL0     H 7941  -0.148   1.946   2.477  1.0408  0.2630  0.5737
  800MOL0     H 7942  -0.165   1.953   2.652 -0.3118  2.0309  0.2584
  800MOL0     H 7943  -0.406   1.992   2.655  3.4089  1.0994  2.2710
  800MOL0     H 7944  -0.413   1.997   2.480 -0.5107 -3.0602 -2.3237
  800MOL0     H 7945  -0.492   1.789   2.593 -0.1684  1.2846  3.0629
  800MOL0     H 7946  -0.371   1.764   2.473  1.2909  0.8060 -0.7317
  800MOL0     H 7947  -0.311   1.752   2.763 -2.4699  2.1686 -0.3073
  800MOL0     H 7948  -0.200   1.701   2.634 -0.2082 -3.2053  0.8833
  800MOL0     H 7949  -0.477   1.578   2.690  0.9504 -0.9032  1.4308
  800MOL0     H 7950  -0.381   1.542   2.548  0.9889 -0.7962 -0.0111
  800MOL0     H 7951  -0.111   1.408   2.637 -1.6926 -4.0450 -1.1476
  800MOL0     H 7952   0.047   1.306   2.867 -2.0434  2.0817  1.5176
  800MOL0     H 7953  -0.049   1.222   2.969  2.0952  2.0987  1.2669
  800MOL0     H 7954  -0.115   1.065   2.773 -1.5835  1.8789 -1.3168
  800MOL0     H 7955  -0.023   1.163   2.662  0.9743 -2.9415 -0.9576
  800MOL0     H 7956   0.190   1.119   2.756  2.2950 -0.8257  1.6158
  800MOL0     H 7957   0.117   0.976   2.723  5.0606  1.3169 -0.3496
  800MOL0     H 7958   0.032   0.955   2.972  0.0914 -1.2025  0.4892
  800MOL0     H 7959   0.142   1.090   3.007  2.6170 -0.2682 -0.8275
  800MOL0     H 7960   0.140   0.744   2.762  0.5965 -1.2845  0.0280
  800MOL0     H 7961   0.048   0.538   2.791  1.9202 -3.5391  0.9160
  800MOL0     H 7962   0.149   0.109   2.832 -1.8943  3.2055 -0.7061
  800MOL0     H 7963   0.092  -0.137   2.829  0.0516 -0.1995 -0.6716
  800MOL0     H 7964  -0.218  -0.239   3.118 -0.8057 -5.5968  1.9098
  800MOL0     H 7965  -0.331  -0.227   2.968 -0.0715  0.4082  0.4065
  800MOL0     H 7966  -0.255  -0.450   2.900 -2.3905 -1.3612  0.8299
  800MOL0     H 7967  -0.161  -0.454   3.049  0.3396  2.8695  3.6882
  800MOL0     H 7968  -0.461  -0.416   3.065 -2.2962 -2.3507 -1.8055
  800MOL0     H 7969  -0.383  -0.578   3.027  2.6346 -0.5018  1.6343
  800MOL0     H 7970  -0.289  -0.393   3.251 -0.6110 -0.1347  1.4826
  800MOL0     H 7971  -0.245  -0.564   3.249  0.8007  0.6348  0.9710
  800MOL0     H 7972  -0.484  -0.629   3.302  1.0261 -0.0260  0.8454
  800MOL0     H 7973  -0.523  -0.457   3.304 -0.4691 -0.2747  0.3875
  800MOL0     H 7974  -0.323  -0.604   3.494  1.1510  1.7475  0.0450
  800MOL0     H 7975  -0.338  -0.430   3.487  1.1708 -0.4538  0.7534
  800MOL0     H 7976  -0.468  -0.552   3.680 -2.1291  0.4382  1.1811
  800MOL0     H 7977  -0.564  -0.625   3.551  0.5233 -1.6422  1.7023
  800MOL0     H 7978  -0.551  -0.315   3.600 -1.7172  0.4891  1.1934
  800MOL0     H 7979  -0.673  -0.401   3.513 -1.1473 -2.2662  0.0449
  800MOL0     H 7980  -0.266  -0.039   3.046 -1.0796  1.0710 -1.9635
  800MOL0     H 7981  -0.195   0.204   3.044 -3.4810 -0.8717  0.2650
  800MOL0     H 7982   0.165   0.560   3.210 -1.0855 -1.9548 -0.5319
  800MOL0     H 7983   0.234   0.792   3.171  0.8221  0.3446 -1.2271
  800MOL0     H 7984  -0.029   2.602   2.506 -3.1164  0.7760 -2.3823
  800MOL0     H 7985   0.094   2.811   2.427  1.8724  1.1571 -2.8620
  800MOL0     H 7986   0.305   2.990   2.141 -0.3948 -0.9970  2.2555
  800MOL0     H 7987   0.376   3.227   2.090  1.2222  2.7093  0.0100
  800MOL0     H 7988   0.811   3.383   2.072  1.8692 -2.6420 -0.0882
  800MOL0     H 7989   0.772   3.260   2.188  2.8281 -0.4024 -2.6040
  800MOL0     H 7990   0.622   3.522   2.129 -3.7237 -2.7502 -1.8654
  800MOL0     H 7991   0.737   3.512   2.266 -1.7706  1.0439  0.6672
  800MOL0     H 7992   0.617   3.317   2.381 -1.6513 -1.1889  0.0430
  800MOL0     H 7993   0.499   3.341   2.258  1.4460 -4.9767  0.9442
  800MOL0     H 7994   0.437   3.452   2.470 -0.5476 -1.3154 -1.5610
  800MOL0     H 7995   0.586   3.551   2.479  0.2100  3.4240 -1.4310
  800MOL0     H 7996   0.343   3.810   2.286 -0.2728 -0.1257 -0.2812
  800MOL0     H 7997   0.776   3.059   2.035 -0.6710 -2.2037 -3.1449
  800MOL0     H 7998   0.718   2.735   2.074 -1.9065  1.8214 -0.4301
  800MOL0     H 7999   0.843   2.849   2.139 -0.6862 -0.8214  1.0307
  800MOL0     H 8000   0.752   2.761   2.246 -0.7923 -0.2210  1.1018
  801MOL0     O 8001   7.585   7.812   4.661 -0.8913  0.3509  0.7690
  801MOL0     C 8002   7.605   7.710   4.722 -0.2908 -0.3546 -0.6143
  801MOL0     O 8003   7.532   7.684   4.836  0.6895  0.1861  1.2320
  801MOL0     C 8004   7.429   7.770   4.872  0.9319 -0.3155 -1.5398
  801MOL0     C 8005   7.465   7.892   4.913  0.8974 -1.1047 -0.4562
  801MOL0     C 8006   7.363   7.988   4.915 -0.6746 -0.6705 -0.8318
  801MOL0     C 8007   7.226   7.948   4.912  0.3830 -1.7590  0.1899
  801MOL0     O 8008   7.122   8.036   4.942  0.0670  0.7846 -0.1210
  801MOL0     C 8009   7.126   8.180   4.931  0.9168  0.2926  0.5320
  801MOL0     C 8010   6.969   8.204   4.916 -0.2666  0.6892 -0.1278
  801MOL0     C 8011   6.961   8.361   4.895 -0.4904 -1.8921  0.4922
  801MOL0     C 8012   6.823   8.421   4.839  0.3058  0.3678  0.5834
  801MOL0     C 8013   6.824   8.399   4.685  0.3414 -0.9151  0.1740
  801MOL0     C 8014   6.724   8.476   4.600  0.2563  0.3171 -0.5907
  801MOL0     C 8015   6.755   8.460   4.454 -0.4797  0.6720 -0.1188
  801MOL0     C 8016   6.646   8.513   4.374  0.1711  0.2466 -0.3387
  801MOL0     N 8017   6.638   8.436   4.249  0.1481 -1.0535 -0.1884
  801MOL0     C 8018   6.694   8.482   4.140  0.7412 -0.4368  0.0411
  801MOL0     C 8019   6.674   8.380   4.052 -0.5838  0.4358 -0.1748
  801MOL0     C 8020   6.716   8.370   3.914 -0.5021 -0.6764 -0.0739
  801MOL0     C 8021   6.606   8.419   3.813 -0.3327  0.4250 -0.3266
  801MOL0     C 8022   6.585   8.325   3.699  0.5423 -0.0825  0.8556
  801MOL0     C 8023   6.693   8.338   3.591 -0.3994 -0.3201  0.1095
  801MOL0     O 8024   6.674   8.277   3.471 -0.2431  0.4903  0.5105
  801MOL0     C 8025   6.776   8.270   3.382 -0.4167  0.2266  1.0232
  801MOL0     C 8026   6.790   8.153   3.311  0.2871  0.0118 -0.0369
  801MOL0     C 8027   6.885   8.141   3.208  0.0025  0.5674 -0.3512
  801MOL0     C 8028   6.989   8.237   3.195  0.2561  0.6232  0.4608
  801MOL0     C 8029   7.101   8.214   3.094  0.9539  0.2549  0.7428
  801MOL0     O 8030   7.102   8.102   3.013 -1.9054 -0.8575 -0.0735
  801MOL0     C 8031   7.215   8.094   2.932 -0.5557 -0.0256 -0.3835
  801MOL0     C 8032   7.239   8.176   2.819  1.3789  0.1714 -0.2855
  801MOL0     C 8033   7.345   8.154   2.737 -0.3359  0.1832 -0.5376
  801MOL0     C 8034   7.442   8.047   2.764  0.0578 -0.0389 -0.8891
  801MOL0     O 8035   7.549   8.019   2.692 -0.7387  0.3622 -0.4399
  801MOL0     C 8036   7.563   8.095   2.576 -0.0213 -0.2375 -0.2679
  801MOL0     C 8037   7.698   8.057   2.502 -0.3425  0.4814 -0.2924
  801MOL0     C 8038   7.727   8.158   2.393  0.5035 -0.6940 -0.8876
  801MOL0     C 8039   7.800   8.077   2.283 -0.0709  0.7633  0.3501
  801MOL0     C 8040   7.852   8.168   2.158  0.5518  1.5173 -0.3739
  801MOL0     C 8041   7.733   8.167   2.051 -1.1488  0.9327  0.1024
  801MOL0     C 8042   7.758   8.269   1.943 -0.6357  0.4473 -0.2530
  801MOL0     C 8043   7.686   8.248   1.821 -0.1784 -0.1630  0.6284
  801MOL0    Cl 8044   7.693   8.379   1.706  0.0937 -0.0862  0.2963
  801MOL0     C 8045   7.418   7.965   2.874  1.2463 -0.3416 -0.1116
  801MOL0     C 8046   7.305   7.993   2.960 -0.1782  0.7224  0.1009
  801MOL0     O 8047   7.179   8.305   3.087 -0.1414  0.4065 -0.0815
  801MOL0     C 8048   6.968   8.353   3.261 -0.0869 -0.7119  0.4076
  801MOL0     C 8049   6.865   8.374   3.357 -0.1254 -0.3220  0.7457
  801MOL0     N 8050   6.610   8.272   4.112 -0.1663 -0.0467 -0.1480
  801MOL0     N 8051   6.604   8.305   4.240  0.2499 -0.6851  1.1763
  801MOL0     C 8052   7.198   7.819   4.888 -0.7872  0.1191 -0.3277
  801MOL0     C 8053   7.298   7.720   4.859 -0.1884 -1.3066  0.7529
  801MOL0     C 8054   7.704   7.607   4.680  0.3163 -0.4580  0.5909
  801MOL0     C 8055   7.740   7.505   4.776 -0.3268 -0.4837 -0.0252
  801MOL0     C 8056   7.830   7.406   4.741  0.1353  0.3500 -0.5406
  801MOL0     C 8057   7.890   7.404   4.623  0.6122  0.0540  0.8212
  801MOL0     O 8058   7.986   7.307   4.610  0.5443 -0.0694 -0.0770
  801MOL0     C 8059   8.073   7.305   4.497 -1.4275 -0.5325  0.5033
  801MOL0     C 8060   8.162   7.182   4.462  0.2789  0.3640  0.1421
  801MOL0     C 8061   8.233   7.102   4.581  0.4241 -0.4674 -0.5432
  801MOL0     C 8062   8.355   7.022   4.542 -0.0864  0.7723  0.8626
  801MOL0     C 8063   8.310   6.889   4.489  0.4259 -0.4165  0.0341
  801MOL0     C 8064   8.279   6.788   4.436 -0.2978  0.6333  0.2929
  801MOL0     C 8065   7.853   7.496   4.525  0.2714 -0.2967  0.7792
  801MOL0     C 8066   7.761   7.599   4.552 -0.0430  0.3683  0.1476
  801MOL0     C 8067   7.724   7.696   4.441  0.0346  0.3591  0.2224
  801MOL0     H 8068   7.568   7.925   4.927  0.2199  1.1799 -0.4534
  801MOL0     H 8069   7.389   8.090   4.941 -1.1759 -0.9463  0.9296
  801MOL0     H 8070   7.163   8.227   5.023  0.0236  0.3536  0.8721
  801MOL0     H 8071   7.180   8.209   4.841 -0.6081  1.6275  0.0151
  801MOL0     H 8072   6.917   8.160   5.001  2.9356 -0.2358  1.5371
  801MOL0     H 8073   6.940   8.154   4.824 -0.9160 -1.0871  0.9941
  801MOL0     H 8074   7.029   8.400   4.819 -1.1057  0.7818  1.2371
  801MOL0     H 8075   6.991   8.407   4.989 -0.3318  0.9460 -0.8620
  801MOL0     H 8076   6.746   8.356   4.882 -1.1883 -0.4587 -3.0122
  801MOL0     H 8077   6.817   8.528   4.864 -0.0678  0.4887 -0.0117
  801MOL0     H 8078   6.923   8.435   4.655 -0.5842  2.7441  1.0009
  801MOL0     H 8079   6.816   8.294   4.657 -0.6957 -0.4432 -1.3952
  801MOL0     H 8080   6.621   8.447   4.624  0.3550  1.4080  1.3648
  801MOL0     H 8081   6.738   8.580   4.630 -0.5906  1.0005 -2.3548
  801MOL0     H 8082   6.772   8.352   4.441  1.9026  0.8673  0.7128
  801MOL0     H 8083   6.847   8.515   4.431  1.0207 -1.3292  0.7045
  801MOL0     H 8084   6.557   8.496   4.435  1.7010  0.6833  2.1569
  801MOL0     H 8085   6.653   8.621   4.361  1.2874  0.0545 -1.4282
  801MOL0     H 8086   6.758   8.569   4.127  1.9876 -1.4910 -1.2311
  801MOL0     H 8087   6.812   8.418   3.890 -1.4486 -0.9448 -5.5657
  801MOL0     H 8088   6.728   8.263   3.895  2.1011 -1.1125  3.1095
  801MOL0     H 8089   6.509   8.440   3.859 -0.4467  2.0897 -1.2272
  801MOL0     H 8090   6.621   8.520   3.773 -2.0095  1.3496  1.2260
  801MOL0     H 8091   6.492   8.341   3.643  2.6177 -1.1193 -3.3421
  801MOL0     H 8092   6.590   8.224   3.741  0.6931 -0.3271  0.2642
  801MOL0     H 8093   6.791   8.307   3.630 -1.1064 -0.6392  1.7193
  801MOL0     H 8094   6.688   8.445   3.568  1.0913 -0.4661 -1.0475
  801MOL0     H 8095   6.721   8.072   3.332 -1.6279  0.4041 -3.9431
  801MOL0     H 8096   6.898   8.048   3.153  3.0222  0.8728 -0.2834
  801MOL0     H 8097   7.173   8.255   2.785 -0.9973 -1.5083  0.1826
  801MOL0     H 8098   7.365   8.216   2.650  0.9387  1.5093  0.6438
  801MOL0     H 8099   7.489   8.076   2.498  0.1184  2.0011 -1.0101
  801MOL0     H 8100   7.580   8.201   2.596  1.8552 -0.6255  0.4583
  801MOL0     H 8101   7.780   8.060   2.574 -1.2860 -0.0622  0.8615
  801MOL0     H 8102   7.671   7.960   2.460 -2.9076  1.7294 -1.7573
  801MOL0     H 8103   7.629   8.189   2.354 -2.3128 -3.1005  3.3907
  801MOL0     H 8104   7.782   8.247   2.423 -0.0459  0.1338 -2.2638
  801MOL0     H 8105   7.732   7.997   2.253  1.9802 -1.1285  0.5373
  801MOL0     H 8106   7.879   8.016   2.328 -2.2169 -2.7357 -0.3172
  801MOL0     H 8107   7.947   8.128   2.121 -1.2951 -1.2569 -2.5603
  801MOL0     H 8108   7.870   8.267   2.199  0.9082 -0.3156  4.6446
  801MOL0     H 8109   7.715   8.070   2.003  2.9489  1.3236 -2.7702
  801MOL0     H 8110   7.643   8.175   2.112 -1.0926 -4.4997  1.3700
  801MOL0     H 8111   7.865   8.264   1.920 -0.5495 -3.3324  0.3046
  801MOL0     H 8112   7.732   8.368   1.983  2.5971  1.2135  0.2552
  801MOL0     H 8113   7.725   8.159   1.769 -5.2190 -1.6619 -1.1335
  801MOL0     H 8114   7.581   8.234   1.848  0.3667 -0.8580  2.5772
  801MOL0     H 8115   7.504   7.901   2.894  1.1772  0.4531  3.3829
  801MOL0     H 8116   7.297   7.918   3.038  3.2213 -0.8630 -0.8441
  801MOL0     H 8117   7.028   8.443   3.255 -1.7192  0.5544  2.0676
  801MOL0     H 8118   6.842   8.476   3.387 -1.7418 -0.8225  1.3008
  801MOL0     H 8119   7.091   7.799   4.883 -0.7171 -0.0427 -1.2432
  801MOL0     H 8120   7.289   7.615   4.836  2.4464 -1.1274 -1.6159
  801MOL0     H 8121   7.708   7.496   4.880 -0.9944 -1.3109 -0.2874
  801MOL0     H 8122   7.850   7.328   4.814 -0.8272  0.9540  0.3929
  801MOL0     H 8123   8.143   7.390   4.498 -2.5792  0.4477  0.5014
  801MOL0     H 8124   8.009   7.309   4.408 -1.2382  0.9206  0.4016
  801MOL0     H 8125   8.239   7.214   4.391 -0.4934 -0.0479 -0.9128
  801MOL0     H 8126   8.097   7.115   4.404 -1.5148  1.4448  0.8118
  801MOL0     H 8127   8.151   7.037   4.614 -0.6445  0.1055 -1.9643
  801MOL0     H 8128   8.273   7.171   4.656  1.1342 -0.0237 -1.3126
  801MOL0     H 8129   8.420   7.073   4.470 -1.7902  0.4249 -1.0024
  801MOL0     H 8130   8.409   6.990   4.632  2.2532 -0.9804 -1.0206
  801MOL0     H 8131   8.253   6.697   4.387 -3.3282  0.0716  2.6302
  801MOL0     H 8132   7.889   7.484   4.424 -3.0731  1.2410 -0.7530
  801MOL0     H 8133   7.619   7.712   4.418  1.0866  2.0041 -4.6548
  801MOL0     H 8134   7.769   7.792   4.468 -1.0135  1.1344 -0.7151
  801MOL0     H 8135   7.773   7.652   4.353 -0.2898 -0.8502  0.6215
  802MOL0     O 8136   9.818   7.331   5.565  0.7953 -0.1233  0.1853
  802MOL0     C 8137   9.814   7.221   5.613 -0.3672 -0.2809  1.1705
  802MOL0     O 8138   9.739   7.191   5.718  0.1747 -0.5773 -0.2325
  802MOL0     C 8139   9.666   7.288   5.778 -0.7646  0.6215 -0.0716
  802MOL0     C 8140   9.716   7.350   5.896 -0.8013 -0.0682  0.1941
  802MOL0     C 8141   9.649   7.449   5.961  0.5864 -0.1927  0.5368
  802MOL0     C 8142   9.521   7.490   5.906 -0.0639  0.3262  0.2598
  802MOL0     O 8143   9.440   7.593   5.931  0.1020  0.8373  0.3017
  802MOL0     C 8144   9.468   7.672   6.044  0.6792 -0.5232 -0.1682
  802MOL0     C 8145   9.545   7.785   5.979  0.1750 -0.2804 -0.2046
  802MOL0     C 8146   9.596   7.894   6.078 -0.0231  0.8464  0.9318
  802MOL0     C 8147   9.490   7.984   6.145  0.5530 -0.0867  0.1594
  802MOL0     C 8148   9.541   8.093   6.251  0.1886 -0.8360  0.1312
  802MOL0     C 8149   9.595   8.216   6.175  0.2196 -0.2055  0.6838
  802MOL0     C 8150   9.599   8.327   6.271  0.2036 -0.6232 -0.3894
  802MOL0     C 8151   9.676   8.463   6.234 -0.0410 -0.1637  0.3050
  802MOL0     N 8152   9.633   8.511   6.103  0.0042 -0.1601 -0.1300
  802MOL0     C 8153   9.535   8.588   6.091  0.9393 -0.2499 -0.2926
  802MOL0     C 8154   9.512   8.608   5.953  0.3855 -0.0599 -0.8817
  802MOL0     C 8155   9.380   8.668   5.904  0.0653 -0.0743  1.1073
  802MOL0     C 8156   9.417   8.765   5.781 -0.2399  0.3213  0.2706
  802MOL0     C 8157   9.334   8.710   5.656 -0.5131  0.5129  0.3037
  802MOL0     C 8158   9.382   8.791   5.538 -0.8380 -0.1449 -0.1366
  802MOL0     O 8159   9.260   8.822   5.455  0.4512 -0.3446  0.9418
  802MOL0     C 8160   9.254   8.937   5.375  0.5342 -0.7128  0.8212
  802MOL0     C 8161   9.366   9.012   5.341  0.2373 -1.0634  0.2626
  802MOL0     C 8162   9.357   9.119   5.244  0.3581 -0.1835 -0.2961
  802MOL0     C 8163   9.235   9.151   5.185 -0.9349 -0.6387  0.2011
  802MOL0     C 8164   9.222   9.245   5.077 -0.5974 -0.3395 -0.9577
  802MOL0     O 8165   9.347   9.273   5.021 -0.2642 -0.3338  0.8027
  802MOL0     C 8166   9.353   9.332   4.899 -0.5126  0.3274 -0.6463
  802MOL0     C 8167   9.274   9.448   4.872 -0.0733  1.1422 -0.3013
  802MOL0     C 8168   9.287   9.517   4.754 -0.5555 -1.3148 -0.9303
  802MOL0     C 8169   9.382   9.485   4.660 -0.6042  0.8796 -0.2154
  802MOL0     O 8170   9.398   9.582   4.559  0.2883  0.2929  0.2299
  802MOL0     C 8171   9.409   9.517   4.430 -0.2945 -1.2709  0.6206
  802MOL0     C 8172   9.431   9.628   4.324  0.4089  0.2993  0.8827
  802MOL0     C 8173   9.546   9.719   4.345  0.1854 -0.1084  0.5158
  802MOL0     C 8174   9.558   9.840   4.245 -0.6832 -0.3734  0.7959
  802MOL0     C 8175   9.689   9.924   4.265 -0.0020  0.6922 -0.1272
  802MOL0     C 8176   9.739  10.003   4.148 -0.4001 -0.3514  0.3516
  802MOL0     C 8177   9.646  10.118   4.099 -0.6915  1.0067  0.6319
  802MOL0     C 8178   9.698  10.145   3.956 -0.3597 -0.5922  0.0662
  802MOL0    Cl 8179   9.623  10.294   3.898 -0.0764 -0.5040  0.5766
  802MOL0     C 8180   9.454   9.357   4.677 -0.7847  0.1008  0.3833
  802MOL0     C 8181   9.445   9.293   4.806  0.3854  0.8690 -0.2885
  802MOL0     O 8182   9.109   9.273   5.028 -0.2924  1.1557 -0.3383
  802MOL0     C 8183   9.115   9.067   5.209 -0.1083  0.3196  0.5162
  802MOL0     C 8184   9.133   8.962   5.303  0.6651  0.4091 -1.0649
  802MOL0     N 8185   9.612   8.536   5.892 -0.3143 -0.7027 -0.2441
  802MOL0     N 8186   9.683   8.469   5.981 -0.3737  0.4817 -0.0599
  802MOL0     C 8187   9.466   7.413   5.804 -0.4164  0.0927  0.1654
  802MOL0     C 8188   9.533   7.306   5.743  0.1735 -0.7292 -1.1079
  802MOL0     C 8189   9.883   7.118   5.537 -0.3861  0.1715  0.2015
  802MOL0     C 8190   9.880   6.985   5.601  1.5067  0.1302  0.7960
  802MOL0     C 8191   9.948   6.879   5.543  0.4326  0.0627 -0.6824
  802MOL0     C 8192  10.007   6.877   5.419 -0.2895 -0.9054 -0.2923
  802MOL0     O 8193  10.054   6.760   5.371 -0.1251  0.2510 -0.2494
  802MOL0     C 8194  10.084   6.759   5.231 -0.0836 -0.3110 -0.0414
  802MOL0     C 8195  10.144   6.626   5.186  0.7488  0.4486  0.2053
  802MOL0     C 8196  10.199   6.620   5.046  0.2692  0.2368  0.1561
  802MOL0     C 8197  10.290   6.501   5.013 -0.1982 -0.8080 -0.5421
  802MOL0     C 8198  10.217   6.379   5.035  0.3518 -1.2512 -0.2854
  802MOL0     C 8199  10.155   6.273   5.049  0.3008 -0.0792  0.2957
  802MOL0     C 8200   9.998   7.010   5.354  1.0737  0.8512  0.0351
  802MOL0     C 8201   9.946   7.128   5.411 -0.6260 -0.2526 -0.0730
  802MOL0     C 8202   9.964   7.261   5.337 -0.8259  0.2573  0.4297
  802MOL0     H 8203   9.813   7.317   5.931 -1.2492 -1.9305 -0.2336
  802MOL0     H 8204   9.701   7.497   6.043  2.7745 -0.8561 -0.3696
  802MOL0     H 8205   9.378   7.707   6.095 -1.1169 -1.8959 -2.2083
  802MOL0     H 8206   9.528   7.614   6.115  0.7777 -0.9542 -0.5951
  802MOL0     H 8207   9.460   7.825   5.923 -0.4821  1.7205  2.0706
  802MOL0     H 8208   9.624   7.769   5.906  0.2523  1.3806 -0.5141
  802MOL0     H 8209   9.652   7.963   6.014  0.2634  0.1316  0.3896
  802MOL0     H 8210   9.667   7.869   6.157  1.6425 -0.3321 -0.8201
  802MOL0     H 8211   9.437   8.033   6.063 -0.6837  1.3880  1.7642
  802MOL0     H 8212   9.416   7.919   6.191  1.4835 -0.8587  0.6096
  802MOL0     H 8213   9.457   8.135   6.307 -0.1913 -1.2830 -0.1057
  802MOL0     H 8214   9.617   8.052   6.319 -0.1211  0.9857  1.6589
  802MOL0     H 8215   9.689   8.182   6.129  0.8872  0.6792  1.3757
  802MOL0     H 8216   9.529   8.243   6.092  1.4680 -3.4064 -1.5610
  802MOL0     H 8217   9.647   8.297   6.364 -2.4880 -0.7379  1.0517
  802MOL0     H 8218   9.500   8.365   6.300  1.3826  2.6210 -0.2260
  802MOL0     H 8219   9.661   8.539   6.312 -0.6835  0.3585 -0.3192
  802MOL0     H 8220   9.783   8.440   6.235  0.3046  1.2073 -1.2369
  802MOL0     H 8221   9.477   8.630   6.172 -0.1013 -2.7709  0.3810
  802MOL0     H 8222   9.313   8.585   5.880  0.0390 -0.4499  2.3886
  802MOL0     H 8223   9.326   8.708   5.991 -2.9410 -1.8285  0.2206
  802MOL0     H 8224   9.366   8.855   5.817 -3.8477 -1.4616  0.0614
  802MOL0     H 8225   9.524   8.776   5.761  0.0061  1.5115  1.9857
  802MOL0     H 8226   9.229   8.723   5.684 -0.0362  2.0600  1.4866
  802MOL0     H 8227   9.359   8.605   5.634  3.7588  1.1384  1.2001
  802MOL0     H 8228   9.456   8.737   5.479  0.4149 -0.3234  1.5128
  802MOL0     H 8229   9.431   8.887   5.561 -1.1752  0.6495 -2.4352
  802MOL0     H 8230   9.461   8.992   5.389 -0.4566  2.1183  3.3819
  802MOL0     H 8231   9.448   9.169   5.213  0.2102  0.4189  0.2236
  802MOL0     H 8232   9.207   9.480   4.951  0.7644  0.2504  0.7921
  802MOL0     H 8233   9.241   9.615   4.749 -0.6691 -1.4125 -2.1816
  802MOL0     H 8234   9.502   9.461   4.415  0.4914  0.9810 -5.3417
  802MOL0     H 8235   9.326   9.451   4.402 -0.6437  0.3601 -2.6161
  802MOL0     H 8236   9.438   9.591   4.221  1.6893  0.8976  0.7466
  802MOL0     H 8237   9.336   9.683   4.322  1.1719  1.6367  0.0354
  802MOL0     H 8238   9.536   9.771   4.441  0.7050  2.4856 -0.7509
  802MOL0     H 8239   9.639   9.663   4.335  0.6121  0.6691  0.0290
  802MOL0     H 8240   9.468   9.901   4.262  0.4431  0.8873  2.4881
  802MOL0     H 8241   9.562   9.808   4.140 -0.7124 -0.4946  0.8322
  802MOL0     H 8242   9.777   9.868   4.297  1.3174  1.9474 -1.3609
  802MOL0     H 8243   9.666   9.988   4.351 -0.4880 -0.8541  0.9285
  802MOL0     H 8244   9.833  10.050   4.179  0.2146  1.9053 -4.1705
  802MOL0     H 8245   9.771   9.936   4.068 -1.1040 -0.0717 -0.1705
  802MOL0     H 8246   9.656  10.210   4.158 -4.3369  0.6344  2.1501
  802MOL0     H 8247   9.542  10.085   4.094 -0.7116  1.2217 -0.7432
  802MOL0     H 8248   9.805  10.168   3.966 -0.6478  2.0405 -1.7018
  802MOL0     H 8249   9.679  10.057   3.895 -2.5520 -0.1349  0.0189
  802MOL0     H 8250   9.522   9.316   4.603  0.7007  0.5189  1.4663
  802MOL0     H 8251   9.498   9.208   4.848  0.0141  2.0579  2.9035
  802MOL0     H 8252   9.021   9.068   5.154 -1.1591 -0.5992  2.1794
  802MOL0     H 8253   9.052   8.892   5.322  1.2127  0.2197  0.7950
  802MOL0     H 8254   9.361   7.425   5.778 -1.4012 -1.1421  3.1525
  802MOL0     H 8255   9.486   7.244   5.667 -1.4865 -0.6007 -0.2331
  802MOL0     H 8256   9.831   6.964   5.696  0.2011 -3.4359 -0.4897
  802MOL0     H 8257   9.946   6.786   5.598  3.3124  1.9084  3.0745
  802MOL0     H 8258  10.152   6.841   5.205 -0.5547 -0.5212 -2.0819
  802MOL0     H 8259   9.991   6.778   5.178 -0.0078 -0.0933 -0.0953
  802MOL0     H 8260  10.066   6.551   5.198  2.5060 -2.5344 -4.2027
  802MOL0     H 8261  10.229   6.612   5.253  0.2874 -2.8837  0.2847
  802MOL0     H 8262  10.250   6.716   5.032 -0.3696  0.5569 -0.0205
  802MOL0     H 8263  10.119   6.630   4.973  0.0756  1.7431  0.5310
  802MOL0     H 8264  10.322   6.507   4.908  1.1320  2.9547 -0.0868
  802MOL0     H 8265  10.379   6.500   5.076 -1.3787 -1.1120  1.1829
  802MOL0     H 8266  10.101   6.184   5.072 -1.2110  1.4440  3.2416
  802MOL0     H 8267  10.042   7.030   5.257  1.0334  0.5862 -0.0386
  802MOL0     H 8268   9.865   7.304   5.318 -1.4799 -1.3176  0.0844
  802MOL0     H 8269  10.024   7.317   5.409  0.2185 -1.6812  1.1388
  802MOL0     H 8270  10.020   7.257   5.243 -1.4874  0.6837  0.0020
  803MOL0     O 8271   5.705   9.561  10.490  0.4661 -0.2363 -0.7940
  803MOL0     C 8272   5.805   9.559  10.557  0.2920 -0.0906  0.9498
  803MOL0     O 8273   5.804   9.603  10.683  0.1694 -0.4308  0.8615
  803MOL0     C 8274   5.692   9.645  10.735 -0.5065  0.4649  0.6108
  803MOL0     C 8275   5.604   9.560  10.795 -0.6139 -1.0136  0.1712
  803MOL0     C 8276   5.488   9.609  10.848 -0.3600 -0.2664 -0.1615
  803MOL0     C 8277   5.439   9.738  10.840 -0.4002 -0.3742 -0.6185
  803MOL0     O 8278   5.315   9.773  10.891  0.3075  0.4314 -0.2080
  803MOL0     C 8279   5.240   9.856  10.803  0.6206 -0.0855  0.3221
  803MOL0     C 8280   5.102   9.779  10.781  0.0503  0.4025 -0.1170
  803MOL0     C 8281   5.105   9.647  10.706 -0.5989 -0.0295  0.5125
  803MOL0     C 8282   5.178   9.637  10.573 -0.2735 -0.4986  0.2938
  803MOL0     C 8283   5.187   9.488  10.543  0.7297 -0.4832 -0.3576
  803MOL0     C 8284   5.289   9.473  10.424  0.3559  1.1046  0.2663
  803MOL0     C 8285   5.289   9.317  10.387 -0.4825 -0.3919 -0.8516
  803MOL0     C 8286   5.381   9.257  10.274  0.2855  0.2376  0.6515
  803MOL0     N 8287   5.335   9.318  10.147  0.4480  0.1660 -0.6275
  803MOL0     C 8288   5.418   9.366  10.052 -1.3562 -0.3275 -0.3305
  803MOL0     C 8289   5.346   9.387   9.945  0.2408  0.4310 -0.3561
  803MOL0     C 8290   5.381   9.406   9.803 -0.1794  0.1337 -0.6297
  803MOL0     C 8291   5.464   9.525   9.789  0.3849  0.6547 -0.7057
  803MOL0     C 8292   5.491   9.565   9.639 -0.0466 -0.2057  0.7285
  803MOL0     C 8293   5.411   9.685   9.586  0.9675 -0.5546 -0.4815
  803MOL0     O 8294   5.382   9.672   9.448 -0.3046  0.0127 -0.8285
  803MOL0     C 8295   5.258   9.659   9.401 -0.4000  0.5706  0.3444
  803MOL0     C 8296   5.243   9.697   9.269  0.5639  0.3574  0.0440
  803MOL0     C 8297   5.116   9.680   9.210 -0.1607  0.6803 -0.9307
  803MOL0     C 8298   5.008   9.620   9.276  0.1845 -0.1953  0.1118
  803MOL0     C 8299   4.875   9.586   9.212 -0.1844 -0.7484  0.1449
  803MOL0     O 8300   4.762   9.565   9.278  0.2637 -0.1660 -0.3016
  803MOL0     C 8301   4.645   9.588   9.213  0.5953 -0.8919 -1.4775
  803MOL0     C 8302   4.599   9.506   9.110  0.6730  0.4755 -0.9117
  803MOL0     C 8303   4.468   9.528   9.057  0.0030 -0.0533  0.0648
  803MOL0     C 8304   4.380   9.620   9.107  0.5602 -0.7185  0.7248
  803MOL0     O 8305   4.255   9.640   9.047 -0.5316 -0.1349  0.6555
  803MOL0     C 8306   4.256   9.657   8.909 -0.4463  0.0685  0.0287
  803MOL0     C 8307   4.143   9.746   8.884 -0.9247  1.1040 -0.6972
  803MOL0     C 8308   4.157   9.896   8.908  0.0676  0.6020 -0.4304
  803MOL0     C 8309   4.134   9.949   9.046 -1.2487  0.2204 -0.4523
  803MOL0     C 8310   4.139  10.106   9.052 -0.6420 -0.3674  0.7575
  803MOL0     C 8311   4.123  10.169   9.197  0.3113 -0.7193  0.4001
  803MOL0     C 8312   3.973  10.173   9.242  0.4281  0.1262 -0.2465
  803MOL0     C 8313   3.962  10.208   9.389 -0.7871  0.0232  0.2788
  803MOL0    Cl 8314   4.006  10.056   9.489  0.5371  0.1500  0.5183
  803MOL0     C 8315   4.436   9.716   9.194 -0.3658 -0.2735  0.1865
  803MOL0     C 8316   4.560   9.692   9.254 -0.7449 -0.4991 -0.0448
  803MOL0     O 8317   4.882   9.611   9.093 -0.3032 -1.0892  0.1268
  803MOL0     C 8318   5.025   9.589   9.411 -0.0535 -0.5553 -0.6783
  803MOL0     C 8319   5.146   9.610   9.467 -0.1309 -0.5720 -0.3100
  803MOL0     N 8320   5.220   9.355   9.969 -0.1167  0.6029 -0.8236
  803MOL0     N 8321   5.210   9.305  10.097  0.6545  0.7074 -0.0545
  803MOL0     C 8322   5.539   9.827  10.786  0.0818 -0.4510 -0.0358
  803MOL0     C 8323   5.655   9.775  10.724  0.0578 -1.0890 -0.4820
  803MOL0     C 8324   5.934   9.514  10.495  0.4047  1.0395 -0.4923
  803MOL0     C 8325   6.043   9.580  10.538  0.2582  0.0287  0.5803
  803MOL0     C 8326   6.171   9.553  10.478  0.4362 -0.0064 -0.8018
  803MOL0     C 8327   6.182   9.465  10.367  0.6566  0.3355 -1.1584
  803MOL0     O 8328   6.309   9.450  10.316  0.7122  0.2989 -0.2677
  803MOL0     C 8329   6.331   9.459  10.175  1.1011  1.0515  0.6359
  803MOL0     C 8330   6.458   9.520  10.118  0.3138  0.1567 -0.2490
  803MOL0     C 8331   6.466   9.532   9.959  0.7604 -0.3624 -0.6824
  803MOL0     C 8332   6.582   9.630   9.918 -0.5093 -0.1881  0.1815
  803MOL0     C 8333   6.632   9.600   9.784  0.7002 -0.2430 -0.4156
  803MOL0     C 8334   6.669   9.554   9.677  0.0645  0.0418 -0.0646
  803MOL0     C 8335   6.072   9.395  10.333 -0.1942  0.6044  0.1632
  803MOL0     C 8336   5.949   9.414  10.389  0.2642 -0.6883  1.6380
  803MOL0     C 8337   5.836   9.311  10.348 -0.5539 -0.2577 -0.8981
  803MOL0     H 8338   5.641   9.466  10.833  0.7718  1.1769  4.9383
  803MOL0     H 8339   5.435   9.530  10.901  1.0961 -0.7616  0.6021
  803MOL0     H 8340   5.231   9.955  10.847  0.0030 -0.9985  2.3924
  803MOL0     H 8341   5.291   9.871  10.707  1.0293  0.3548  0.6022
  803MOL0     H 8342   5.030   9.842  10.729 -1.2727 -2.5809 -2.1358
  803MOL0     H 8343   5.065   9.757  10.881  0.2894 -0.5177 -0.2230
  803MOL0     H 8344   4.999   9.621  10.696 -0.5285 -0.6586  1.2948
  803MOL0     H 8345   5.140   9.579  10.784 -2.9855  0.7508  2.4009
  803MOL0     H 8346   5.117   9.689  10.498  2.0530  0.3470 -1.1121
  803MOL0     H 8347   5.282   9.671  10.583 -0.7673  0.9737  0.6839
  803MOL0     H 8348   5.220   9.434  10.633  1.3500  1.0256  0.3493
  803MOL0     H 8349   5.086   9.449  10.523 -0.3201  1.8552  0.0580
  803MOL0     H 8350   5.246   9.533  10.343 -0.3070  1.6287  0.9898
  803MOL0     H 8351   5.388   9.506  10.457  0.7204 -1.9477  2.6566
  803MOL0     H 8352   5.190   9.279  10.361 -0.9018  1.9680 -3.0647
  803MOL0     H 8353   5.327   9.273  10.480  1.7245  3.3860  0.2319
  803MOL0     H 8354   5.481   9.299  10.290  0.0342  1.7918 -1.3828
  803MOL0     H 8355   5.382   9.148  10.271  2.0232  0.2072  1.5910
  803MOL0     H 8356   5.527   9.370  10.055 -1.4047  1.7940  0.2670
  803MOL0     H 8357   5.434   9.321   9.759 -0.2149  0.6302 -1.6593
  803MOL0     H 8358   5.285   9.417   9.752 -0.7022  0.7072  0.4328
  803MOL0     H 8359   5.429   9.611   9.846  0.4153  2.2348 -2.9606
  803MOL0     H 8360   5.554   9.495   9.844  0.3872  0.6396 -0.7177
  803MOL0     H 8361   5.464   9.477   9.579  2.5037 -0.6039  0.0571
  803MOL0     H 8362   5.597   9.584   9.619 -0.7718  1.7709 -1.7257
  803MOL0     H 8363   5.463   9.779   9.607 -3.2897  2.1238 -0.8500
  803MOL0     H 8364   5.315   9.695   9.637  0.5275 -1.6448 -1.0586
  803MOL0     H 8365   5.322   9.727   9.201 -1.6621 -0.4560 -3.1195
  803MOL0     H 8366   5.104   9.705   9.105 -0.9526 -0.8246 -1.2236
  803MOL0     H 8367   4.668   9.433   9.068 -1.7921 -2.2280 -0.5571
  803MOL0     H 8368   4.454   9.458   8.975  2.1457  1.0047 -1.3054
  803MOL0     H 8369   4.350   9.706   8.884 -0.4040 -0.5036 -0.9927
  803MOL0     H 8370   4.241   9.557   8.868 -4.2011  1.1240 -1.7058
  803MOL0     H 8371   4.139   9.742   8.775  0.9357  0.2896 -0.7675
  803MOL0     H 8372   4.051   9.709   8.930 -0.8935  2.8523  0.8921
  803MOL0     H 8373   4.256   9.919   8.868  1.2862 -0.3064  1.9024
  803MOL0     H 8374   4.079   9.942   8.846  1.6273 -0.3860 -3.3440
  803MOL0     H 8375   4.204   9.908   9.119 -0.5235 -0.0174 -1.2674
  803MOL0     H 8376   4.034   9.916   9.077  0.5746 -4.9844  0.8501
  803MOL0     H 8377   4.067  10.144   8.978  2.4353  1.7261 -1.4350
  803MOL0     H 8378   4.230  10.140   9.001 -2.4196 -2.4395 -4.4954
  803MOL0     H 8379   4.184  10.128   9.278 -1.3068 -0.3113  1.8844
  803MOL0     H 8380   4.157  10.273   9.191  0.8576 -0.9271 -0.2259
  803MOL0     H 8381   3.921  10.080   9.221  0.0498  0.5688 -1.3424
  803MOL0     H 8382   3.935  10.254   9.179 -0.5568 -0.5258 -0.5094
  803MOL0     H 8383   4.036  10.280   9.425 -0.2383 -0.5578  0.3358
  803MOL0     H 8384   3.864  10.249   9.415 -0.8376 -0.1106  0.3019
  803MOL0     H 8385   4.385   9.808   9.222 -0.6399 -0.4772  0.3526
  803MOL0     H 8386   4.597   9.767   9.324  2.3441 -0.0931 -1.9038
  803MOL0     H 8387   4.950   9.549   9.478  1.0642  1.8223  2.2264
  803MOL0     H 8388   5.168   9.586   9.571  0.5703 -2.2944 -0.8213
  803MOL0     H 8389   5.513   9.932  10.779  0.8350 -0.3511 -2.1609
  803MOL0     H 8390   5.713   9.845  10.664 -2.3262 -0.8594 -2.7079
  803MOL0     H 8391   6.031   9.660  10.610 -1.7407  1.1741 -0.9496
  803MOL0     H 8392   6.257   9.614  10.503 -1.1624  3.3804 -2.8762
  803MOL0     H 8393   6.247   9.520  10.139  1.0233  1.9075  2.1850
  803MOL0     H 8394   6.321   9.358  10.135  0.6442  1.6434 -0.8334
  803MOL0     H 8395   6.546   9.465  10.152  0.6965  1.1294  0.3875
  803MOL0     H 8396   6.462   9.618  10.167 -1.6704  0.6035 -0.8925
  803MOL0     H 8397   6.367   9.566   9.926  1.1112  1.6063  0.1379
  803MOL0     H 8398   6.493   9.437   9.913 -0.0147 -2.4753  2.8337
  803MOL0     H 8399   6.547   9.732   9.937  0.1983 -0.4006  3.2908
  803MOL0     H 8400   6.664   9.608   9.987 -0.8645 -4.4440 -0.4802
  803MOL0     H 8401   6.705   9.515   9.584  2.5123  1.9400 -0.0118
  803MOL0     H 8402   6.090   9.323  10.254  0.2707  0.4599  0.3981
  803MOL0     H 8403   5.881   9.219  10.308 -0.1222 -0.0629 -0.8634
  803MOL0     H 8404   5.783   9.287  10.441 -1.0673  0.2060 -1.0698
  803MOL0     H 8405   5.771   9.350  10.270 -0.5317 -0.8259 -1.2050
  804MOL0     O 8406   0.360  10.604   4.889 -0.0251  0.0539  0.5175
  804MOL0     C 8407   0.378  10.569   5.003 -1.0290  0.4967 -0.1524
  804MOL0     O 8408   0.422  10.647   5.103 -0.2151  0.0590  0.1381
  804MOL0     C 8409   0.494  10.763   5.083 -0.0981 -0.3638  0.4865
  804MOL0     C 8410   0.629  10.741   5.088 -0.3781 -0.6994 -0.5235
  804MOL0     C 8411   0.720  10.849   5.078  0.4750 -0.0540  0.9057
  804MOL0     C 8412   0.676  10.979   5.032 -0.5517  0.2240 -0.1250
  804MOL0     O 8413   0.776  11.071   5.008  0.2683  0.0478 -0.4218
  804MOL0     C 8414   0.743  11.173   4.918 -0.5913 -0.3385  0.2703
  804MOL0     C 8415   0.874  11.252   4.865 -0.9978  0.4112 -0.5110
  804MOL0     C 8416   0.837  11.397   4.826  0.1726 -0.6786 -0.1004
  804MOL0     C 8417   0.842  11.510   4.936 -0.1306  0.1041  0.4844
  804MOL0     C 8418   0.981  11.563   4.962 -0.1461  0.2609 -0.2823
  804MOL0     C 8419   0.992  11.651   5.075 -0.0157 -0.3538  0.4904
  804MOL0     C 8420   1.017  11.576   5.208 -0.2802  0.1462 -0.8351
  804MOL0     C 8421   1.034  11.681   5.324  0.3985 -1.0725 -0.2221
  804MOL0     N 8422   1.064  11.605   5.449  0.0244  0.3148  0.2783
  804MOL0     C 8423   0.982  11.599   5.560 -0.7697 -0.1447 -0.5496
  804MOL0     C 8424   1.038  11.514   5.654  0.1831 -0.1944 -0.2073
  804MOL0     C 8425   0.972  11.479   5.785  0.5125  0.3318 -0.1017
  804MOL0     C 8426   0.925  11.334   5.781 -0.6164 -0.5978 -0.2620
  804MOL0     C 8427   1.038  11.233   5.814  0.2385  0.7106  0.1824
  804MOL0     C 8428   1.096  11.242   5.956  0.3570  0.1843 -0.0763
  804MOL0     O 8429   0.977  11.266   6.040  0.1618 -0.3985  0.7434
  804MOL0     C 8430   0.917  11.148   6.085 -0.0354 -0.6104 -1.0392
  804MOL0     C 8431   0.777  11.142   6.074  0.7508  1.5497  0.1408
  804MOL0     C 8432   0.704  11.023   6.110 -1.4800 -0.6050  0.0153
  804MOL0     C 8433   0.768  10.915   6.168 -0.2351  0.1577  0.2140
  804MOL0     C 8434   0.699  10.793   6.188  0.3483 -0.0750  0.2368
  804MOL0     O 8435   0.771  10.687   6.239 -0.5138  0.5094 -0.1379
  804MOL0     C 8436   0.709  10.566   6.246  0.4218  0.1977 -0.2212
  804MOL0     C 8437   0.596  10.534   6.315 -0.0085  0.8807 -0.5387
  804MOL0     C 8438   0.545  10.399   6.332  0.6277 -0.2529  0.1576
  804MOL0     C 8439   0.605  10.291   6.257  0.0453 -1.0179  0.4219
  804MOL0     O 8440   0.559  10.163   6.273 -0.4486 -0.5258 -0.9717
  804MOL0     C 8441   0.540  10.092   6.156 -0.0330  0.3042 -0.1826
  804MOL0     C 8442   0.436   9.978   6.182  0.4030  0.3111  0.3287
  804MOL0     C 8443   0.440   9.891   6.305  0.0367  0.4150 -0.6557
  804MOL0     C 8444   0.383   9.756   6.268 -0.0862  0.5685 -1.8348
  804MOL0     C 8445   0.382   9.681   6.406  0.4010  0.0646 -0.7675
  804MOL0     C 8446   0.276   9.708   6.507  0.9396  0.5974  0.4499
  804MOL0     C 8447   0.291   9.615   6.631  1.1284  0.2687 -0.5795
  804MOL0     C 8448   0.238   9.467   6.620 -0.1368 -0.0428 -0.5235
  804MOL0    Cl 8449   0.383   9.372   6.607  0.0272  0.4640 -0.4843
  804MOL0     C 8450   0.718  10.328   6.179  0.1096  0.3528 -0.5959
  804MOL0     C 8451   0.771  10.457   6.172  0.2341 -0.9893 -0.2283
  804MOL0     O 8452   0.585  10.794   6.158 -0.4455 -0.0033  0.4058
  804MOL0     C 8453   0.905  10.917   6.187 -0.9036 -1.1912  0.1721
  804MOL0     C 8454   0.981  11.036   6.155  0.0814 -0.2939 -0.2752
  804MOL0     N 8455   1.161  11.481   5.595 -0.0993 -0.1194 -0.0949
  804MOL0     N 8456   1.177  11.537   5.480  0.1127  1.1980  0.0106
  804MOL0     C 8457   0.532  10.993   5.015 -0.1903  0.6064  0.3453
  804MOL0     C 8458   0.444  10.887   5.051  0.0981  0.2490  0.3966
  804MOL0     C 8459   0.335  10.427   5.037  0.1893  0.7525  0.9393
  804MOL0     C 8460   0.347  10.387   5.169  0.4764  0.3834 -0.4766
  804MOL0     C 8461   0.307  10.254   5.205 -0.9596 -0.0040 -0.5122
  804MOL0     C 8462   0.270  10.161   5.110 -0.7775  0.2921 -0.5444
  804MOL0     O 8463   0.222  10.032   5.129 -0.4123 -0.3959 -0.2399
  804MOL0     C 8464   0.176   9.987   5.264  0.3229  0.3055 -0.0208
  804MOL0     C 8465   0.283   9.917   5.354 -0.0074 -0.0908 -0.1558
  804MOL0     C 8466   0.253   9.910   5.499 -0.5552  0.2072 -0.4621
  804MOL0     C 8467   0.358   9.834   5.587 -0.6287 -0.7321  0.7058
  804MOL0     C 8468   0.302   9.825   5.724  0.9033 -0.2693 -0.2404
  804MOL0     C 8469   0.246   9.835   5.836  0.5538 -0.2878  0.0235
  804MOL0     C 8470   0.264  10.200   4.981 -0.7252 -0.3989  0.2249
  804MOL0     C 8471   0.292  10.329   4.940  1.4111 -1.2443  0.2390
  804MOL0     C 8472   0.253  10.361   4.804  0.6307  0.1825  0.1940
  804MOL0     H 8473   0.666  10.641   5.109 -0.7202 -0.7395 -0.0804
  804MOL0     H 8474   0.827  10.841   5.088  0.7524 -0.9670 -1.9647
  804MOL0     H 8475   0.682  11.143   4.832 -1.7096  1.6876  0.2834
  804MOL0     H 8476   0.682  11.254   4.959  2.8220  3.4969 -1.5999
  804MOL0     H 8477   0.908  11.191   4.781  1.0070 -4.1797  3.2071
  804MOL0     H 8478   0.956  11.256   4.938 -0.0711  1.1226 -1.5579
  804MOL0     H 8479   0.737  11.396   4.782  0.1987 -1.3884 -0.1637
  804MOL0     H 8480   0.904  11.439   4.751 -1.4864 -1.1757 -1.9553
  804MOL0     H 8481   0.778  11.595   4.909 -0.8473  0.2659  2.5081
  804MOL0     H 8482   0.811  11.472   5.033  0.1531  0.3377  0.6680
  804MOL0     H 8483   1.046  11.475   4.963 -1.7820 -1.1077  3.1715
  804MOL0     H 8484   1.015  11.629   4.882  0.0805 -0.7032 -1.0069
  804MOL0     H 8485   1.075  11.722   5.067 -1.9833  1.8752 -1.9052
  804MOL0     H 8486   0.911  11.724   5.074  0.8160  0.5960  0.4790
  804MOL0     H 8487   1.113  11.524   5.197  0.3731  1.2116 -0.3433
  804MOL0     H 8488   0.944  11.506   5.250  0.0565  0.0061 -0.4653
  804MOL0     H 8489   1.113  11.755   5.309  0.6994 -1.2640  0.3913
  804MOL0     H 8490   0.949  11.745   5.344  0.6885 -0.3359 -1.2428
  804MOL0     H 8491   0.879  11.631   5.563 -0.7443 -0.0780  2.4792
  804MOL0     H 8492   1.043  11.481   5.868  0.0709 -4.4478  0.6727
  804MOL0     H 8493   0.886  11.543   5.808  0.4287  1.1732 -2.5471
  804MOL0     H 8494   0.844  11.323   5.853 -0.4361 -0.6008 -0.0592
  804MOL0     H 8495   0.880  11.310   5.684 -2.6301  3.9302 -0.7375
  804MOL0     H 8496   1.126  11.228   5.748  1.6513 -0.2110  2.0438
  804MOL0     H 8497   0.984  11.139   5.809 -3.1035  2.4544  0.8058
  804MOL0     H 8498   1.162  11.329   5.963 -1.1099  1.3273  0.0107
  804MOL0     H 8499   1.145  11.149   5.983 -0.3754 -0.0539  0.4646
  804MOL0     H 8500   0.724  11.228   6.035 -4.6339 -1.0053  0.8824
  804MOL0     H 8501   0.599  11.024   6.084 -1.4439  1.6151 -0.1917
  804MOL0     H 8502   0.548  10.603   6.384 -1.4162 -1.3526  0.8462
  804MOL0     H 8503   0.457  10.378   6.392 -0.4025 -0.1075 -1.2549
  804MOL0     H 8504   0.484  10.157   6.087 -1.3773 -0.6034  0.0124
  804MOL0     H 8505   0.628  10.059   6.101 -2.5754  1.0542 -5.3512
  804MOL0     H 8506   0.337  10.025   6.186  0.2522  0.0354 -0.0897
  804MOL0     H 8507   0.433   9.919   6.090 -0.3181  1.2055 -0.2455
  804MOL0     H 8508   0.537   9.874   6.352  0.0521 -3.4516 -1.7768
  804MOL0     H 8509   0.372   9.926   6.384 -1.0276 -3.4862  0.3914
  804MOL0     H 8510   0.440   9.703   6.192 -1.5502 -2.4555 -0.9790
  804MOL0     H 8511   0.279   9.778   6.239 -1.8078  3.9093  4.6806
  804MOL0     H 8512   0.471   9.692   6.469  0.0197 -3.8212  0.7285
  804MOL0     H 8513   0.377   9.576   6.379 -0.2824  1.1576 -5.7934
  804MOL0     H 8514   0.284   9.810   6.547 -1.5743  1.4610 -1.0042
  804MOL0     H 8515   0.181   9.708   6.452  2.3396 -0.2423 -2.1616
  804MOL0     H 8516   0.213   9.654   6.697  0.2908 -3.0532  0.5880
  804MOL0     H 8517   0.388   9.623   6.682 -0.0777  1.6245  1.6813
  804MOL0     H 8518   0.179   9.431   6.705 -2.0053 -2.5035 -2.6772
  804MOL0     H 8519   0.177   9.439   6.533  2.4845 -0.4212 -2.3519
  804MOL0     H 8520   0.771  10.253   6.120 -0.0758 -1.1983  1.1193
  804MOL0     H 8521   0.853  10.490   6.110 -0.2561  2.8087  0.8673
  804MOL0     H 8522   0.954  10.830   6.230 -2.0710 -1.5840  0.7296
  804MOL0     H 8523   1.084  11.044   6.189 -0.1586  3.3056  0.0237
  804MOL0     H 8524   0.489  11.092   4.997  1.0665  0.7989 -1.8091
  804MOL0     H 8525   0.337  10.886   5.031  0.2820  2.7697 -1.0707
  804MOL0     H 8526   0.384  10.460   5.240 -1.8835  1.4410 -0.2415
  804MOL0     H 8527   0.304  10.227   5.310 -0.1829 -0.6704 -0.6593
  804MOL0     H 8528   0.087   9.923   5.256 -1.0784  2.2975 -1.3828
  804MOL0     H 8529   0.128  10.070   5.316 -1.9069 -2.4668  2.7992
  804MOL0     H 8530   0.382   9.964   5.344  1.2362 -2.5837 -0.4113
  804MOL0     H 8531   0.294   9.814   5.320  2.9140 -0.1276  0.5875
  804MOL0     H 8532   0.158   9.857   5.512 -0.1844 -0.6904 -1.2731
  804MOL0     H 8533   0.250  10.016   5.528  1.7966  0.1284  0.2967
  804MOL0     H 8534   0.375   9.734   5.547  0.9204  0.8763 -3.1338
  804MOL0     H 8535   0.453   9.886   5.577 -0.4798 -0.7043  2.0917
  804MOL0     H 8536   0.230   9.852   5.940  3.2126  0.6084  0.3655
  804MOL0     H 8537   0.227  10.134   4.903 -3.9282 -1.7199  2.6248
  804MOL0     H 8538   0.186  10.288   4.758  0.9310  0.9039 -1.4617
  804MOL0     H 8539   0.192  10.451   4.795 -3.1663 -2.0987  0.5652
  804MOL0     H 8540   0.346  10.382   4.751  0.5536  3.7331  1.2214
  805MOL0     O 8541   9.402  11.127   8.029 -0.5905 -0.0983  0.0229
  805MOL0     C 8542   9.495  11.118   8.105 -0.4176 -0.2315  0.6009
  805MOL0     O 8543   9.529  11.197   8.209  0.0069  0.6740 -0.1056
  805MOL0     C 8544   9.430  11.285   8.250  1.0794  0.7129 -0.3152
  805MOL0     C 8545   9.446  11.426   8.233  0.1051 -0.3606 -0.7353
  805MOL0     C 8546   9.348  11.521   8.267 -0.2313 -0.0366  0.5836
  805MOL0     C 8547   9.219  11.480   8.309  0.3313 -0.8570  0.0217
  805MOL0     O 8548   9.114  11.578   8.341 -0.2233  0.4606  0.0635
  805MOL0     C 8549   9.150  11.723   8.337  0.0064 -0.0789  0.3665
  805MOL0     C 8550   9.043  11.813   8.396  0.1171  0.0492  0.3824
  805MOL0     C 8551   9.039  11.801   8.557  0.0745 -0.1961  0.9729
  805MOL0     C 8552   8.930  11.895   8.617  0.2052 -0.4723  0.3960
  805MOL0     C 8553   8.931  11.907   8.774 -0.1652  0.5662  0.0382
  805MOL0     C 8554   8.793  11.933   8.832  0.1092  0.4789 -0.3306
  805MOL0     C 8555   8.812  11.993   8.961  0.0062 -0.5881 -0.8189
  805MOL0     C 8556   8.890  11.899   9.060 -0.2541  0.9135  0.5736
  805MOL0     N 8557   8.910  11.954   9.191 -0.1467 -0.1118 -0.8104
  805MOL0     C 8558   8.824  12.020   9.274 -0.5187 -0.3959 -0.3462
  805MOL0     C 8559   8.892  12.059   9.382 -0.7813  0.0511 -0.9962
  805MOL0     C 8560   8.857  12.134   9.506 -0.2788 -0.4697  0.4261
  805MOL0     C 8561   8.737  12.077   9.585 -0.0592 -0.1900  0.6399
  805MOL0     C 8562   8.703  12.159   9.710  0.0901 -0.4475  0.8587
  805MOL0     C 8563   8.592  12.098   9.789 -0.2511 -0.0133 -0.0550
  805MOL0     O 8564   8.573  12.174   9.909  0.1859  0.5400 -0.1011
  805MOL0     C 8565   8.498  12.101  10.011 -0.7996  0.0712  0.6409
  805MOL0     C 8566   8.372  12.141  10.048  0.4440 -0.6943 -0.6288
  805MOL0     C 8567   8.300  12.098  10.162 -0.1399  0.2114 -0.3017
  805MOL0     C 8568   8.344  11.985  10.233 -0.7911  0.1379 -0.3089
  805MOL0     C 8569   8.264  11.932  10.349  0.5669  0.6902  0.2987
  805MOL0     O 8570   8.304  11.808  10.390 -0.4610 -0.1391 -0.2682
  805MOL0     C 8571   8.239  11.753  10.496  0.4076 -0.0498  0.8144
  805MOL0     C 8572   8.220  11.810  10.624 -0.5547  0.1173 -0.0351
  805MOL0     C 8573   8.139  11.739  10.714  0.4306 -1.0613  1.1689
  805MOL0     C 8574   8.099  11.611  10.689 -0.0992  0.4570 -0.1768
  805MOL0     O 8575   8.025  11.536  10.781  0.9424 -0.2840  0.0651
  805MOL0     C 8576   8.000  11.582  10.914 -0.5081  0.4278  0.4887
  805MOL0     C 8577   8.005  11.463  11.008  0.0466 -0.1793 -0.2289
  805MOL0     C 8578   8.153  11.415  11.025  0.1030  1.1155  0.7097
  805MOL0     C 8579   8.158  11.304  11.126  0.5906  0.3180 -0.3954
  805MOL0     C 8580   8.305  11.273  11.145  1.2851 -0.0867 -0.6427
  805MOL0     C 8581   8.316  11.129  11.199  0.2129  0.2962  0.8536
  805MOL0     C 8582   8.274  11.109  11.346  0.0731 -1.2193  0.9802
  805MOL0     C 8583   8.301  10.970  11.402  0.3963 -0.8977 -0.6426
  805MOL0    Cl 8584   8.210  10.931  11.554 -0.4446  0.0719 -0.3722
  805MOL0     C 8585   8.143  11.550  10.573 -0.1666  1.8024  0.6242
  805MOL0     C 8586   8.217  11.614  10.478 -0.0485 -0.0538 -0.7814
  805MOL0     O 8587   8.164  11.999  10.391 -0.5808  0.2163 -0.0920
  805MOL0     C 8588   8.472  11.927  10.181  0.2497 -0.0106 -1.2155
  805MOL0     C 8589   8.549  11.989  10.080  0.1821 -0.4313 -0.2966
  805MOL0     N 8590   9.008  12.005   9.370 -0.5455  0.0955  0.1865
  805MOL0     N 8591   9.018  11.942   9.258 -0.8427 -1.1876  0.5702
  805MOL0     C 8592   9.207  11.349   8.340  0.2977 -0.0610 -0.3317
  805MOL0     C 8593   9.312  11.256   8.315  0.0893  0.4104 -0.9735
  805MOL0     C 8594   9.595  11.007   8.069 -0.7145  0.7557 -0.9127
  805MOL0     C 8595   9.689  10.962   8.171  0.2692  0.8688 -0.2669
  805MOL0     C 8596   9.787  10.855   8.141  0.6358  0.6752 -1.1187
  805MOL0     C 8597   9.794  10.793   8.021  0.0310  0.4568 -0.6510
  805MOL0     O 8598   9.891  10.695   8.000  0.0054 -0.2745  0.2498
  805MOL0     C 8599   9.835  10.568   7.967  0.2048  0.4954  0.5576
  805MOL0     C 8600   9.957  10.466   7.940  1.5830 -0.1701  0.8544
  805MOL0     C 8601  10.035  10.408   8.044  0.1495  1.0988 -0.8063
  805MOL0     C 8602  10.126  10.519   8.105 -0.1060  0.1623 -0.1446
  805MOL0     C 8603  10.261  10.480   8.136  0.2366  0.5399 -0.0094
  805MOL0     C 8604  10.357  10.420   8.176  0.6982 -0.7360 -0.4948
  805MOL0     C 8605   9.717  10.848   7.921 -0.5169  0.8024  0.0288
  805MOL0     C 8606   9.612  10.942   7.936 -0.1910 -0.3614 -0.7471
  805MOL0     C 8607   9.523  10.983   7.813 -1.1134  0.1747 -0.5085
  805MOL0     H 8608   9.537  11.454   8.181  1.1207 -1.4511  0.3987
  805MOL0     H 8609   9.369  11.626   8.254 -1.0789 -0.0672 -1.5759
  805MOL0     H 8610   9.246  11.728   8.390 -0.5876  0.2490  1.4331
  805MOL0     H 8611   9.172  11.758   8.236  3.4814  0.3664  1.1307
  805MOL0     H 8612   8.942  11.790   8.360  0.7995  1.6901 -2.8939
  805MOL0     H 8613   9.070  11.918   8.381 -5.3103  1.5149 -1.3421
  805MOL0     H 8614   9.138  11.809   8.603  1.2466  1.5494 -1.6117
  805MOL0     H 8615   9.000  11.699   8.565 -2.4486  0.7951  2.8346
  805MOL0     H 8616   8.915  11.995   8.575  2.6851 -0.4206 -0.5237
  805MOL0     H 8617   8.833  11.854   8.589  0.8421 -1.0615 -1.0738
  805MOL0     H 8618   8.964  11.817   8.828  0.4567 -0.3221 -1.7599
  805MOL0     H 8619   8.996  11.988   8.806  2.0315 -2.1912  3.2281
  805MOL0     H 8620   8.746  12.003   8.762 -4.8518 -2.7768 -0.7597
  805MOL0     H 8621   8.726  11.848   8.846 -0.7512  1.0982 -0.5813
  805MOL0     H 8622   8.707  12.003   8.990  0.4745  1.3723  0.3994
  805MOL0     H 8623   8.855  12.094   8.961  1.3717 -1.1292 -2.5911
  805MOL0     H 8624   8.849  11.798   9.057  1.9063  0.0055 -0.6209
  805MOL0     H 8625   8.991  11.888   9.018 -1.8144 -1.6336 -3.0023
  805MOL0     H 8626   8.716  12.027   9.261 -0.5210  2.2459  0.4165
  805MOL0     H 8627   8.947  12.145   9.566 -0.4493  3.4357  0.2101
  805MOL0     H 8628   8.830  12.233   9.469  0.4420 -0.8487 -1.1865
  805MOL0     H 8629   8.656  12.090   9.514  1.4932  3.5741 -0.6575
  805MOL0     H 8630   8.756  11.971   9.607 -1.1712  0.0816  3.3233
  805MOL0     H 8631   8.673  12.260   9.683  1.5171 -0.0784  0.5878
  805MOL0     H 8632   8.788  12.168   9.778 -1.5465  1.7725  2.7419
  805MOL0     H 8633   8.615  11.996   9.821  0.1348  0.5420  1.5142
  805MOL0     H 8634   8.493  12.101   9.743  0.3128 -0.2783 -1.3150
  805MOL0     H 8635   8.330  12.214   9.979 -2.2408 -0.7431  0.8370
  805MOL0     H 8636   8.209  12.147  10.193 -1.5096 -0.8833 -2.4077
  805MOL0     H 8637   8.260  11.909  10.643 -0.1417 -0.0201 -0.1786
  805MOL0     H 8638   8.094  11.796  10.794 -1.1359  1.2553 -1.2081
  805MOL0     H 8639   8.076  11.648  10.955 -0.6637  0.3598  0.8951
  805MOL0     H 8640   7.901  11.627  10.915 -0.5105  0.4220  2.3142
  805MOL0     H 8641   7.948  11.487  11.098  3.2249  1.0683  1.6257
  805MOL0     H 8642   7.951  11.378  10.965  0.6888 -1.6023  1.6422
  805MOL0     H 8643   8.195  11.387  10.929 -1.2990  0.4248  0.2690
  805MOL0     H 8644   8.212  11.496  11.071 -0.5443 -0.6127  5.0597
  805MOL0     H 8645   8.108  11.227  11.067 -1.1297  3.0824 -2.8386
  805MOL0     H 8646   8.104  11.319  11.219 -2.2351  0.1520 -1.9119
  805MOL0     H 8647   8.340  11.336  11.228 -1.4259 -0.6324  1.0291
  805MOL0     H 8648   8.363  11.278  11.052  0.2681  1.1229 -1.2372
  805MOL0     H 8649   8.251  11.052  11.156 -0.2046  1.4755 -0.7158
  805MOL0     H 8650   8.421  11.097  11.201  0.5425  1.3602  1.3580
  805MOL0     H 8651   8.169  11.134  11.367  0.0802 -0.6599  0.3776
  805MOL0     H 8652   8.337  11.181  11.399 -0.0193  0.4593 -1.0636
  805MOL0     H 8653   8.287  10.882  11.340  2.3718 -2.4428  0.9670
  805MOL0     H 8654   8.408  10.963  11.422  0.5197  0.2266 -0.8148
  805MOL0     H 8655   8.129  11.444  10.558 -4.2635  2.5676 -3.0909
  805MOL0     H 8656   8.239  11.560  10.386  0.7493 -0.2379 -0.4870
  805MOL0     H 8657   8.520  11.843  10.230  2.6810  1.5602 -0.7077
  805MOL0     H 8658   8.652  11.960  10.063  0.0290 -1.2472  0.1183
  805MOL0     H 8659   9.123  11.299   8.385 -0.3825 -1.0194 -2.5147
  805MOL0     H 8660   9.282  11.154   8.337 -1.0714  1.3445  2.4342
  805MOL0     H 8661   9.686  10.999   8.273 -1.9282 -0.0247  0.0489
  805MOL0     H 8662   9.853  10.830   8.223 -1.9565 -0.0467  0.8956
  805MOL0     H 8663   9.776  10.576   7.875  3.7778  3.8336 -1.7961
  805MOL0     H 8664   9.782  10.528   8.053  1.3524 -1.0267  0.6088
  805MOL0     H 8665  10.015  10.525   7.868 -3.0543  1.9052 -1.6416
  805MOL0     H 8666   9.914  10.389   7.875  3.1942 -1.2166  0.9624
  805MOL0     H 8667  10.092  10.324   8.004 -0.8517 -0.6883  1.2924
  805MOL0     H 8668   9.961  10.376   8.118  0.9913  2.7119  0.8109
  805MOL0     H 8669  10.142  10.601   8.034  2.0516 -0.9067 -1.0184
  805MOL0     H 8670  10.072  10.549   8.195 -1.8662 -0.4606 -0.9676
  805MOL0     H 8671  10.445  10.370   8.212  0.7810 -0.7499 -0.7160
  805MOL0     H 8672   9.724  10.805   7.821 -0.1803 -0.9604  0.7687
  805MOL0     H 8673   9.499  11.089   7.809  0.3344  0.6353  1.4035
  805MOL0     H 8674   9.603  10.978   7.739 -1.0525 -1.2179 -0.3844
  805MOL0     H 8675   9.434  10.925   7.787 -0.4978 -0.2306 -1.8322
  806MOL0     O 8676   3.610   7.178   6.005  0.0103 -0.2772 -0.0333
  806MOL0     C 8677   3.598   7.153   6.126  0.1511  0.4722 -0.1066
  806MOL0     O 8678   3.556   7.240   6.228  0.0440  0.3091  0.7535
  806MOL0     C 8679   3.546   7.378   6.195  0.0540 -0.3481  0.7918
  806MOL0     C 8680   3.439   7.460   6.240  0.2089  0.1025  1.0334
  806MOL0     C 8681   3.427   7.599   6.205 -1.1359  0.1136  0.8773
  806MOL0     C 8682   3.520   7.655   6.105 -0.1825  0.3821 -1.1968
  806MOL0     O 8683   3.517   7.781   6.056 -0.0039 -0.2987  0.8300
  806MOL0     C 8684   3.393   7.857   6.052  0.1417 -0.4089 -0.1505
  806MOL0     C 8685   3.388   7.962   5.937 -0.2290  0.4532 -0.2306
  806MOL0     C 8686   3.528   8.040   5.930  0.3792 -0.1790 -0.0994
  806MOL0     C 8687   3.580   8.120   6.055 -0.1391  0.4508 -0.0086
  806MOL0     C 8688   3.495   8.236   6.102 -0.1090 -0.2213  0.5784
  806MOL0     C 8689   3.510   8.304   6.242 -0.1270 -0.3463 -0.1140
  806MOL0     C 8690   3.387   8.391   6.284  0.4509  1.2072  1.0245
  806MOL0     C 8691   3.412   8.481   6.404  0.1224 -0.0893 -0.2660
  806MOL0     N 8692   3.285   8.535   6.440 -0.0700  0.8918 -0.6099
  806MOL0     C 8693   3.204   8.471   6.526  1.1961  0.2605 -0.5383
  806MOL0     C 8694   3.084   8.537   6.508 -0.4482 -0.5643 -0.4973
  806MOL0     C 8695   2.955   8.486   6.565  1.0800  0.2869 -0.6477
  806MOL0     C 8696   2.866   8.418   6.461  0.7126  0.0822  0.0373
  806MOL0     C 8697   2.734   8.387   6.525 -0.2970  0.1107 -0.8212
  806MOL0     C 8698   2.739   8.263   6.616  0.2613 -0.3344 -0.4461
  806MOL0     O 8699   2.772   8.159   6.531  0.3905  0.3907 -0.0592
  806MOL0     C 8700   2.750   8.041   6.597 -0.0908  0.2212 -0.4742
  806MOL0     C 8701   2.842   7.996   6.688  0.5248 -0.4692  0.7466
  806MOL0     C 8702   2.819   7.871   6.747 -0.4793  0.9772 -0.6254
  806MOL0     C 8703   2.701   7.794   6.726 -0.4947  0.4716 -0.0411
  806MOL0     C 8704   2.666   7.682   6.810  0.1898  0.0865 -0.7228
  806MOL0     O 8705   2.581   7.592   6.752  0.2527  0.0022  0.5469
  806MOL0     C 8706   2.534   7.492   6.837  0.0622  0.2023 -0.3224
  806MOL0     C 8707   2.403   7.504   6.865  0.7180 -0.3618 -0.8888
  806MOL0     C 8708   2.340   7.409   6.944 -0.1394 -0.4960 -0.1413
  806MOL0     C 8709   2.407   7.289   6.973 -0.3746 -0.1772  0.0052
  806MOL0     O 8710   2.322   7.184   7.017  0.1480 -0.4417  0.0764
  806MOL0     C 8711   2.384   7.088   7.104  0.3930  0.1459  0.4761
  806MOL0     C 8712   2.276   6.995   7.159 -0.0088  0.5599  0.6221
  806MOL0     C 8713   2.184   7.078   7.255  0.0335  0.0958 -0.1235
  806MOL0     C 8714   2.162   7.001   7.386  0.5388 -0.7438 -0.0425
  806MOL0     C 8715   2.074   6.880   7.380  1.0472  0.0681 -0.4638
  806MOL0     C 8716   2.049   6.830   7.527  0.6255 -0.1607  0.1109
  806MOL0     C 8717   1.939   6.718   7.530  0.7575 -0.1129 -1.6597
  806MOL0     C 8718   2.011   6.588   7.499  0.8825  0.1620 -0.4161
  806MOL0    Cl 8719   1.896   6.466   7.514  0.4637  0.4873 -0.2612
  806MOL0     C 8720   2.545   7.274   6.933  0.1591 -0.4593 -0.1095
  806MOL0     C 8721   2.614   7.383   6.868 -0.0609 -0.6084 -0.0259
  806MOL0     O 8722   2.730   7.663   6.919 -0.4454  0.2286 -0.0095
  806MOL0     C 8723   2.602   7.842   6.632 -0.1280 -0.4926 -0.3397
  806MOL0     C 8724   2.639   7.959   6.567 -0.0783  0.2732  0.5945
  806MOL0     N 8725   3.104   8.638   6.409  0.0009 -0.0375 -0.1157
  806MOL0     N 8726   3.226   8.639   6.373  0.8986 -0.8286 -0.8858
  806MOL0     C 8727   3.636   7.573   6.071  0.1890 -0.2547 -0.6037
  806MOL0     C 8728   3.653   7.444   6.122 -1.0195  0.9360  0.2559
  806MOL0     C 8729   3.654   7.027   6.160 -0.1773  0.1336  1.0694
  806MOL0     C 8730   3.665   6.998   6.293 -0.1010  0.4322 -0.4208
  806MOL0     C 8731   3.725   6.881   6.339  0.2466 -0.7196 -0.5826
  806MOL0     C 8732   3.742   6.774   6.254 -0.3184  0.1683  0.7477
  806MOL0     O 8733   3.783   6.661   6.323 -0.2998 -0.2994  0.1733
  806MOL0     C 8734   3.723   6.545   6.260  0.2449  0.1019  0.5074
  806MOL0     C 8735   3.806   6.424   6.305 -0.0508 -0.6594  1.0312
  806MOL0     C 8736   3.790   6.383   6.453  0.2930 -0.3585  0.2437
  806MOL0     C 8737   3.865   6.240   6.475  0.3702 -0.4366 -0.2948
  806MOL0     C 8738   3.864   6.213   6.614  0.2366 -0.2308 -0.2687
  806MOL0     C 8739   3.869   6.189   6.732  0.1933  0.0572 -0.9062
  806MOL0     C 8740   3.751   6.800   6.116 -0.5270  0.3531  0.5769
  806MOL0     C 8741   3.699   6.925   6.066 -0.3589  0.6997 -0.3843
  806MOL0     C 8742   3.703   6.945   5.921  0.7331 -0.0607 -0.2005
  806MOL0     H 8743   3.362   7.411   6.299  0.2438 -0.1682  0.8524
  806MOL0     H 8744   3.353   7.656   6.261  0.7631  2.5931  1.0146
  806MOL0     H 8745   3.317   7.778   6.056  1.0051 -1.2774  4.0158
  806MOL0     H 8746   3.379   7.907   6.148 -2.8561  0.0434 -0.7121
  806MOL0     H 8747   3.309   8.035   5.955  0.7933  2.1369 -2.2205
  806MOL0     H 8748   3.370   7.908   5.844  0.6495 -2.0785  0.9793
  806MOL0     H 8749   3.519   8.116   5.852 -2.3921 -0.0615  0.2348
  806MOL0     H 8750   3.608   7.971   5.899  1.3256  0.7257  0.2629
  806MOL0     H 8751   3.585   8.063   6.149 -2.8855 -0.9381 -0.6045
  806MOL0     H 8752   3.677   8.154   6.018 -0.1586  1.1494  0.5536
  806MOL0     H 8753   3.522   8.319   6.036 -0.6416 -1.4099 -1.2310
  806MOL0     H 8754   3.387   8.219   6.103  0.1351 -1.9457  0.9642
  806MOL0     H 8755   3.536   8.234   6.322 -0.8717  2.9831  3.2811
  806MOL0     H 8756   3.594   8.373   6.234 -0.4273  0.0480  0.0983
  806MOL0     H 8757   3.316   8.312   6.311 -1.2747  1.1326 -3.0606
  806MOL0     H 8758   3.346   8.449   6.202  2.5284 -2.2577 -2.8930
  806MOL0     H 8759   3.447   8.421   6.488  0.9368  0.9016  0.1297
  806MOL0     H 8760   3.484   8.562   6.385 -1.2056  1.5378  1.2446
  806MOL0     H 8761   3.234   8.391   6.594  1.3089 -1.1672 -2.1990
  806MOL0     H 8762   2.990   8.424   6.649  3.3273  1.6073 -0.5242
  806MOL0     H 8763   2.902   8.571   6.607 -0.3057 -1.7708  2.0865
  806MOL0     H 8764   2.849   8.462   6.362 -0.0694 -2.0977 -0.8521
  806MOL0     H 8765   2.917   8.328   6.426 -1.2048 -1.8942  2.0649
  806MOL0     H 8766   2.651   8.378   6.454 -2.1416  0.4335  1.1571
  806MOL0     H 8767   2.706   8.468   6.594  0.4829  0.7543 -1.2386
  806MOL0     H 8768   2.644   8.255   6.669  0.8163  3.7124  1.5354
  806MOL0     H 8769   2.807   8.284   6.699 -1.1579 -0.3084  0.7398
  806MOL0     H 8770   2.940   8.039   6.705  1.8108 -2.4766 -0.9908
  806MOL0     H 8771   2.886   7.830   6.822  1.3232  0.3281 -2.4998
  806MOL0     H 8772   2.337   7.579   6.824  4.5476  3.0300 -1.4466
  806MOL0     H 8773   2.235   7.410   6.972  0.2719 -2.9151  1.8626
  806MOL0     H 8774   2.443   7.025   7.036 -2.1296 -2.6843  0.7083
  806MOL0     H 8775   2.438   7.132   7.188  0.1787 -1.0108  1.2511
  806MOL0     H 8776   2.221   6.947   7.078  0.0031  0.2207  0.8135
  806MOL0     H 8777   2.337   6.922   7.213 -1.0041 -2.1806 -1.7598
  806MOL0     H 8778   2.243   7.168   7.273  1.3136 -0.7804  0.2210
  806MOL0     H 8779   2.096   7.096   7.193 -0.4305 -0.6759  0.3059
  806MOL0     H 8780   2.106   7.072   7.446 -0.4601 -1.6488  0.1258
  806MOL0     H 8781   2.250   6.979   7.447 -0.1380 -4.2321 -0.0704
  806MOL0     H 8782   2.124   6.798   7.329 -1.1450 -0.2951 -2.1811
  806MOL0     H 8783   1.989   6.889   7.312  1.0471 -4.9034 -1.4786
  806MOL0     H 8784   2.149   6.807   7.563  0.7873 -0.5516 -0.5801
  806MOL0     H 8785   2.010   6.905   7.597  1.8796 -0.8405  1.5996
  806MOL0     H 8786   1.852   6.734   7.467  0.9373 -0.2704 -1.9501
  806MOL0     H 8787   1.904   6.702   7.633  5.4664  0.2716  0.2457
  806MOL0     H 8788   2.048   6.587   7.396 -2.4549 -2.7054 -1.7766
  806MOL0     H 8789   2.097   6.568   7.564  0.2107  0.4415  0.5896
  806MOL0     H 8790   2.592   7.178   6.951  1.9478  0.6207  1.3158
  806MOL0     H 8791   2.718   7.371   6.842 -0.7951 -3.2969 -2.1793
  806MOL0     H 8792   2.509   7.792   6.610 -0.3207  0.1004 -0.9111
  806MOL0     H 8793   2.588   8.001   6.481  0.3592 -1.0297 -0.3420
  806MOL0     H 8794   3.712   7.618   6.008 -0.3349 -0.2595 -1.2550
  806MOL0     H 8795   3.748   7.403   6.091  0.5249  3.3381  1.4787
  806MOL0     H 8796   3.628   7.062   6.373 -0.6769  0.2673 -0.5469
  806MOL0     H 8797   3.746   6.864   6.444  0.5211  1.5604 -0.2181
  806MOL0     H 8798   3.731   6.550   6.151 -1.7757  0.0324  0.3273
  806MOL0     H 8799   3.616   6.540   6.280  0.3327  2.3909  1.9409
  806MOL0     H 8800   3.913   6.439   6.286 -0.3121  0.5571  0.4155
  806MOL0     H 8801   3.783   6.340   6.239  0.9246  1.9219 -2.8881
  806MOL0     H 8802   3.682   6.373   6.472 -0.2953  1.2936 -1.9179
  806MOL0     H 8803   3.827   6.453   6.528  0.3870 -0.4488  0.2827
  806MOL0     H 8804   3.810   6.162   6.421  1.1053 -0.4086 -1.1011
  806MOL0     H 8805   3.966   6.246   6.435 -0.0278  0.8961 -1.1796
  806MOL0     H 8806   3.865   6.168   6.837  0.6217  1.4587 -0.5955
  806MOL0     H 8807   3.793   6.725   6.050 -0.4112  0.3731  0.6272
  806MOL0     H 8808   3.770   7.029   5.901 -0.3993  0.8887 -0.1415
  806MOL0     H 8809   3.748   6.855   5.879  3.3277 -0.1496  2.4502
  806MOL0     H 8810   3.600   6.958   5.887 -0.2529  1.1146  2.8681
  807MOL0     O 8811   3.378   9.236   7.447  0.5354  0.8338  0.4480
  807MOL0     C 8812   3.308   9.177   7.368 -0.1855  0.1990  0.1756
  807MOL0     O 8813   3.282   9.036   7.371  0.0957  0.0657  0.3393
  807MOL0     C 8814   3.341   8.958   7.473  0.3816 -0.6812  0.9715
  807MOL0     C 8815   3.458   8.888   7.445  0.2847  0.2639 -0.6892
  807MOL0     C 8816   3.523   8.825   7.545 -0.5354  0.5431 -0.1252
  807MOL0     C 8817   3.476   8.821   7.681  0.3327  0.2624  0.2364
  807MOL0     O 8818   3.545   8.755   7.781  0.2890  0.8535  0.0980
  807MOL0     C 8819   3.506   8.768   7.910 -0.2161 -0.3437  0.3072
  807MOL0     C 8820   3.608   8.730   8.014  0.8570  0.4507 -0.3963
  807MOL0     C 8821   3.554   8.749   8.157  0.8146 -0.1642  0.6582
  807MOL0     C 8822   3.611   8.872   8.225  0.3670  0.4417 -0.6127
  807MOL0     C 8823   3.568   8.857   8.375  0.2269  0.3456  0.2923
  807MOL0     C 8824   3.421   8.866   8.398  0.1511  1.1943 -0.2130
  807MOL0     C 8825   3.400   8.915   8.538  0.7497 -0.4549  0.3830
  807MOL0     C 8826   3.404   8.810   8.644  0.3276  0.5337  0.0024
  807MOL0     N 8827   3.408   8.872   8.772  0.5503 -0.1204 -0.4948
  807MOL0     C 8828   3.523   8.939   8.818 -0.4541  1.4133  0.0428
  807MOL0     C 8829   3.473   9.014   8.920  0.0184 -0.2145  0.2522
  807MOL0     C 8830   3.560   9.114   8.986  0.9352 -1.8508  0.3132
  807MOL0     C 8831   3.613   9.217   8.889 -0.2121  0.2317 -0.4969
  807MOL0     C 8832   3.501   9.314   8.846 -0.4915  0.9055  0.3032
  807MOL0     C 8833   3.470   9.413   8.950 -0.2894  1.1299 -0.5497
  807MOL0     O 8834   3.342   9.483   8.935 -0.1480  0.0735  0.2937
  807MOL0     C 8835   3.220   9.411   8.935  0.8451 -0.3466  0.7336
  807MOL0     C 8836   3.104   9.480   8.890 -0.3379 -0.0400 -0.3891
  807MOL0     C 8837   2.977   9.432   8.901  0.2649 -0.6765  1.0559
  807MOL0     C 8838   2.963   9.292   8.912  0.4919 -0.1427 -0.3730
  807MOL0     C 8839   2.840   9.221   8.922  0.1228 -0.0141 -0.0744
  807MOL0     O 8840   2.848   9.090   8.945  0.3977  0.3210 -1.4789
  807MOL0     C 8841   2.725   9.037   8.971  0.5417 -0.4915 -0.3343
  807MOL0     C 8842   2.622   9.042   8.881  0.7641 -0.9184  0.9542
  807MOL0     C 8843   2.505   8.970   8.906  0.1396 -0.3254 -0.1892
  807MOL0     C 8844   2.481   8.903   9.028 -0.4176 -0.3111 -0.2247
  807MOL0     O 8845   2.358   8.855   9.067  0.0051 -0.3474 -0.2221
  807MOL0     C 8846   2.231   8.898   9.013 -0.6464 -0.4584 -0.3696
  807MOL0     C 8847   2.175   9.012   9.093  0.2988  0.1073 -0.0492
  807MOL0     C 8848   2.114   8.959   9.236  0.3533  1.0807  0.2422
  807MOL0     C 8849   2.027   9.058   9.317 -0.1217  0.4989 -0.1241
  807MOL0     C 8850   2.106   9.186   9.359  0.3659  0.1384 -1.0887
  807MOL0     C 8851   2.025   9.302   9.421 -0.1701  1.0009 -0.1650
  807MOL0     C 8852   1.944   9.378   9.316  0.4277 -1.0707  0.8085
  807MOL0     C 8853   1.849   9.475   9.379 -0.7518  0.3946  0.1355
  807MOL0    Cl 8854   1.820   9.619   9.270 -0.3186  0.0804 -0.2635
  807MOL0     C 8855   2.586   8.883   9.122 -0.7618  0.1719 -0.0723
  807MOL0     C 8856   2.709   8.948   9.094  0.1630 -0.4724  0.3109
  807MOL0     O 8857   2.740   9.299   8.941 -0.5727 -0.7893 -0.7313
  807MOL0     C 8858   3.077   9.223   8.949 -0.5845  0.7098  0.7443
  807MOL0     C 8859   3.200   9.284   8.974 -0.0555 -1.5145 -0.1478
  807MOL0     N 8860   3.333   8.991   8.944  0.0680 -0.8114  0.2062
  807MOL0     N 8861   3.301   8.907   8.852 -0.3029  0.8893 -0.1256
  807MOL0     C 8862   3.344   8.887   7.705  0.1076 -0.0602 -0.4483
  807MOL0     C 8863   3.283   8.953   7.599  0.0085 -0.1220  0.2760
  807MOL0     C 8864   3.224   9.259   7.288  0.5758 -0.2414  0.3345
  807MOL0     C 8865   3.133   9.343   7.356 -1.3006 -0.0727 -0.8351
  807MOL0     C 8866   3.065   9.438   7.285  0.0582 -0.1876 -0.5229
  807MOL0     C 8867   3.087   9.470   7.154 -0.5949  0.4216 -0.0267
  807MOL0     O 8868   3.017   9.566   7.084 -0.0086  0.1841 -0.1591
  807MOL0     C 8869   3.015   9.693   7.155 -1.0073 -0.8588  0.0373
  807MOL0     C 8870   3.060   9.799   7.043  0.6075  0.0014  0.0988
  807MOL0     C 8871   3.040   9.947   7.082  0.5828 -0.4271 -0.1985
  807MOL0     C 8872   3.029  10.036   6.957  1.1919 -0.3070 -0.1156
  807MOL0     C 8873   3.034  10.179   6.992  0.4915  0.6000  1.1747
  807MOL0     C 8874   3.031  10.299   7.018  0.0941  0.6893  1.2347
  807MOL0     C 8875   3.180   9.388   7.079 -0.0282 -0.3023 -0.9050
  807MOL0     C 8876   3.247   9.282   7.146  0.4172  0.8402 -0.1485
  807MOL0     C 8877   3.342   9.195   7.079 -0.8403  0.2435  0.0327
  807MOL0     H 8878   3.497   8.866   7.346  1.2581 -2.8395  0.2633
  807MOL0     H 8879   3.616   8.774   7.521  0.2929  1.7446  0.4495
  807MOL0     H 8880   3.484   8.874   7.924  1.4123 -0.2101  2.2794
  807MOL0     H 8881   3.417   8.705   7.924  0.1472 -1.1850 -0.9904
  807MOL0     H 8882   3.712   8.762   8.003  1.2694 -0.3423  0.9597
  807MOL0     H 8883   3.635   8.625   8.003  3.0230  0.9672 -0.4672
  807MOL0     H 8884   3.579   8.663   8.220  1.9929  0.6011  1.2979
  807MOL0     H 8885   3.446   8.766   8.152  0.8076 -0.4995 -0.7107
  807MOL0     H 8886   3.720   8.868   8.221  0.3788  0.8201 -0.7030
  807MOL0     H 8887   3.575   8.967   8.184  0.8196  0.1927 -1.6251
  807MOL0     H 8888   3.609   8.763   8.413 -0.5607 -0.7389 -1.4184
  807MOL0     H 8889   3.626   8.939   8.417  3.7608 -1.5119 -0.5506
  807MOL0     H 8890   3.359   8.929   8.334  0.3667  0.3865 -1.2491
  807MOL0     H 8891   3.396   8.760   8.388 -2.0197  1.6383  0.1442
  807MOL0     H 8892   3.312   8.979   8.542  0.9601 -0.0532 -0.9184
  807MOL0     H 8893   3.479   8.986   8.563  1.7542 -0.6103 -2.0330
  807MOL0     H 8894   3.318   8.747   8.620  1.5886 -0.7520 -1.3802
  807MOL0     H 8895   3.494   8.752   8.618  1.3318  2.9019 -2.2099
  807MOL0     H 8896   3.625   8.922   8.785 -1.1775 -0.7416 -1.2961
  807MOL0     H 8897   3.505   9.165   9.066  1.3112  1.7214 -1.4872
  807MOL0     H 8898   3.634   9.048   9.032  1.2381 -1.0634  0.9844
  807MOL0     H 8899   3.685   9.276   8.947 -0.8060 -1.3326  1.9775
  807MOL0     H 8900   3.661   9.180   8.798  1.5168  2.7080 -0.7130
  807MOL0     H 8901   3.417   9.248   8.825  0.8902 -1.2263  1.1982
  807MOL0     H 8902   3.529   9.371   8.757 -1.5885 -1.3244 -1.5527
  807MOL0     H 8903   3.551   9.486   8.958 -0.3234  1.0902  0.2846
  807MOL0     H 8904   3.466   9.371   9.051  1.6946 -2.6693 -1.8273
  807MOL0     H 8905   3.117   9.582   8.858 -1.1091  1.2218  2.8907
  807MOL0     H 8906   2.889   9.494   8.891 -1.3113 -3.2184 -3.8462
  807MOL0     H 8907   2.630   9.102   8.792  0.9041  0.2869  1.7570
  807MOL0     H 8908   2.425   8.958   8.834  1.7301 -0.4870 -1.9936
  807MOL0     H 8909   2.248   8.930   8.910 -1.4150  3.0147  0.4456
  807MOL0     H 8910   2.161   8.814   9.019 -0.0889 -0.8210  2.8783
  807MOL0     H 8911   2.257   9.080   9.116  1.9067 -1.8958  0.4566
  807MOL0     H 8912   2.098   9.066   9.038  0.5167  1.2753  0.7596
  807MOL0     H 8913   2.054   8.868   9.223 -3.0092  3.3377 -1.5832
  807MOL0     H 8914   2.198   8.923   9.296  0.6859 -0.9087 -1.2767
  807MOL0     H 8915   1.992   8.998   9.402 -3.4635 -1.0117 -2.3706
  807MOL0     H 8916   1.936   9.080   9.260  1.3694  0.4687 -2.6965
  807MOL0     H 8917   2.151   9.235   9.272  1.2417  0.2578 -0.5794
  807MOL0     H 8918   2.186   9.152   9.426 -0.4427  0.4588  0.0761
  807MOL0     H 8919   1.960   9.265   9.500 -0.1441  0.3368 -0.4472
  807MOL0     H 8920   2.098   9.371   9.464  3.1957 -2.8917  1.1368
  807MOL0     H 8921   1.878   9.316   9.256 -2.9890  2.0417  0.9971
  807MOL0     H 8922   2.016   9.434   9.255 -1.4066 -0.6048 -1.0168
  807MOL0     H 8923   1.751   9.440   9.414  0.8360 -0.9306  3.6816
  807MOL0     H 8924   1.903   9.504   9.469  3.3736 -2.4821 -1.1131
  807MOL0     H 8925   2.578   8.833   9.218  1.3362  1.7672  1.0033
  807MOL0     H 8926   2.792   8.916   9.155 -1.1762  0.3293  2.6908
  807MOL0     H 8927   3.081   9.118   8.977 -0.2905  0.5805  0.2301
  807MOL0     H 8928   3.273   9.226   9.030 -2.0890 -1.8663  2.3678
  807MOL0     H 8929   3.297   8.881   7.803 -0.5364 -3.5274 -0.8327
  807MOL0     H 8930   3.191   9.010   7.610 -0.3038 -0.3178 -1.1234
  807MOL0     H 8931   3.121   9.323   7.462  3.0610  0.7717  0.0042
  807MOL0     H 8932   2.985   9.498   7.326  3.1377  2.9973  1.3324
  807MOL0     H 8933   3.090   9.692   7.235  1.8178  0.1863 -2.4208
  807MOL0     H 8934   2.916   9.720   7.190 -1.4267 -0.1693 -1.5929
  807MOL0     H 8935   2.987   9.784   6.963 -1.3161  2.4299  1.2628
  807MOL0     H 8936   3.161   9.763   7.019  0.1615 -1.5059  0.3527
  807MOL0     H 8937   3.127   9.985   7.137  1.7607  1.6749 -3.1960
  807MOL0     H 8938   2.955   9.955   7.150  2.7125  0.2444  2.6037
  807MOL0     H 8939   3.106  10.006   6.885 -0.5059 -1.8025 -1.3995
  807MOL0     H 8940   2.932  10.008   6.915  1.0844 -2.5343  1.4837
  807MOL0     H 8941   3.014  10.401   7.045  2.1534  0.7760  2.3772
  807MOL0     H 8942   3.194   9.411   6.974 -1.1361 -0.2038 -1.0504
  807MOL0     H 8943   3.432   9.180   7.140 -0.5352 -0.3082 -0.5450
  807MOL0     H 8944   3.294   9.100   7.055 -0.8669  0.8035 -2.4062
  807MOL0     H 8945   3.381   9.234   6.985 -0.9391 -2.7473 -1.3575
  808MOL0     O 8946  10.158   7.467   8.299  0.2855  0.4782 -0.0065
  808MOL0     C 8947  10.091   7.563   8.330 -0.6331  0.0806 -0.7725
  808MOL0     O 8948  10.089   7.687   8.258  0.1594  0.0563 -0.1759
  808MOL0     C 8949  10.128   7.673   8.133 -0.6152 -0.1538  0.1300
  808MOL0     C 8950  10.030   7.661   8.036 -0.4376 -0.0931  0.6064
  808MOL0     C 8951  10.061   7.621   7.910 -0.0011  1.7823  0.2634
  808MOL0     C 8952  10.198   7.615   7.856  0.5871 -0.0195 -1.6157
  808MOL0     O 8953  10.233   7.603   7.720 -1.0677  0.8161  0.0295
  808MOL0     C 8954  10.135   7.558   7.627  0.5630  0.1605  1.1251
  808MOL0     C 8955  10.047   7.678   7.584 -0.5100 -0.0123 -0.5758
  808MOL0     C 8956  10.126   7.794   7.507  0.1301 -1.2341  0.1959
  808MOL0     C 8957  10.139   7.789   7.357  0.2886  0.4432  0.6767
  808MOL0     C 8958  10.271   7.719   7.326 -0.3936 -1.1450  0.1161
  808MOL0     C 8959  10.317   7.743   7.176  0.0345  0.5009 -0.2766
  808MOL0     C 8960  10.450   7.676   7.137  0.2538  0.8117  0.9473
  808MOL0     C 8961  10.459   7.532   7.170 -0.0331 -0.1094  0.8699
  808MOL0     N 8962  10.351   7.470   7.098  0.3379 -0.2217  0.5313
  808MOL0     C 8963  10.242   7.406   7.156 -0.0912  0.7356  0.8339
  808MOL0     C 8964  10.180   7.327   7.063  1.2678  0.0034 -0.7013
  808MOL0     C 8965  10.050   7.252   7.089  0.0866 -0.3481  0.1112
  808MOL0     C 8966   9.940   7.291   6.989 -0.0314  0.9677  0.6636
  808MOL0     C 8967   9.986   7.279   6.834  0.7687 -0.9606 -0.0794
  808MOL0     C 8968  10.039   7.144   6.775  0.0769  0.3582 -0.7380
  808MOL0     O 8969   9.998   7.026   6.840  0.1389 -0.0118 -0.5432
  808MOL0     C 8970   9.892   6.957   6.774  0.1995 -1.2468 -1.1393
  808MOL0     C 8971   9.898   6.926   6.638 -0.1884 -0.3707 -0.0355
  808MOL0     C 8972   9.778   6.882   6.576  0.2967  0.1793  0.8702
  808MOL0     C 8973   9.660   6.844   6.646  0.3787  1.8637  0.0190
  808MOL0     C 8974   9.542   6.791   6.585 -0.5854  0.3264 -0.1477
  808MOL0     O 8975   9.529   6.829   6.452 -0.2224 -0.3085 -0.2739
  808MOL0     C 8976   9.407   6.799   6.393  0.6908 -0.0096 -0.1624
  808MOL0     C 8977   9.415   6.738   6.264 -0.1514 -0.2187 -0.1993
  808MOL0     C 8978   9.304   6.713   6.187 -0.0320  0.1447  0.2101
  808MOL0     C 8979   9.177   6.747   6.228 -0.8535  0.3503  0.5436
  808MOL0     O 8980   9.063   6.718   6.161 -0.4120 -0.3144  1.0341
  808MOL0     C 8981   9.062   6.628   6.054 -0.5288 -1.3549 -0.5543
  808MOL0     C 8982   8.913   6.594   6.017 -0.3446 -0.0046  0.6079
  808MOL0     C 8983   8.830   6.720   6.007  1.1163 -0.0050 -0.4296
  808MOL0     C 8984   8.690   6.660   5.963  0.0734 -0.2176 -0.4883
  808MOL0     C 8985   8.579   6.756   5.934 -0.1661  0.8318  0.2701
  808MOL0     C 8986   8.619   6.866   5.837 -0.0610  0.3979  0.8155
  808MOL0     C 8987   8.518   6.980   5.832 -0.8768 -0.3141  0.4321
  808MOL0     C 8988   8.522   7.085   5.938 -0.3587 -0.2699 -0.2451
  808MOL0    Cl 8989   8.358   7.079   6.011  0.0452  0.0509 -0.3818
  808MOL0     C 8990   9.165   6.813   6.356  0.3330 -0.1631 -1.0404
  808MOL0     C 8991   9.276   6.842   6.430 -0.2373  0.2861 -0.3987
  808MOL0     O 8992   9.472   6.713   6.644  0.7348 -0.1144  0.4468
  808MOL0     C 8993   9.671   6.855   6.787  0.1877  0.9340 -0.7182
  808MOL0     C 8994   9.781   6.917   6.857 -0.1587 -0.5296  0.0991
  808MOL0     N 8995  10.261   7.334   6.952 -0.3200  0.7901  0.1591
  808MOL0     N 8996  10.361   7.407   6.981 -0.4488 -0.1829  0.4125
  808MOL0     C 8997  10.298   7.630   7.956 -0.4098  0.7127 -0.4780
  808MOL0     C 8998  10.265   7.658   8.095 -0.4796 -0.0444 -0.3757
  808MOL0     C 8999  10.029   7.559   8.470 -0.8813 -1.3536 -0.4154
  808MOL0     C 9000  10.095   7.499   8.580  0.4733  1.0303 -0.2395
  808MOL0     C 9001  10.036   7.495   8.702 -0.9183 -0.3789 -0.4980
  808MOL0     C 9002   9.904   7.543   8.718 -0.6807 -0.8301 -0.4023
  808MOL0     O 9003   9.835   7.552   8.837 -0.1801 -0.3132  0.0605
  808MOL0     C 9004   9.893   7.525   8.967 -0.1749 -0.2692  0.4650
  808MOL0     C 9005   9.815   7.586   9.087 -0.1752  0.5204 -0.8302
  808MOL0     C 9006   9.825   7.729   9.063  0.1536 -0.8268  0.7392
  808MOL0     C 9007   9.754   7.795   9.181  0.6095 -0.5679 -0.7265
  808MOL0     C 9008   9.757   7.942   9.166 -0.2481  0.0369  0.1955
  808MOL0     C 9009   9.747   8.063   9.156  0.1060  0.0542  0.6396
  808MOL0     C 9010   9.844   7.603   8.615  0.4780  0.9626 -0.4985
  808MOL0     C 9011   9.902   7.605   8.488 -0.6169 -0.5549 -0.9497
  808MOL0     C 9012   9.819   7.664   8.379 -0.3148 -0.7711  0.6681
  808MOL0     H 9013   9.923   7.664   8.051 -0.6866 -0.3861 -0.9772
  808MOL0     H 9014   9.976   7.587   7.852  0.0046  1.0873  0.6483
  808MOL0     H 9015  10.162   7.506   7.536  0.0048 -0.8690  1.5367
  808MOL0     H 9016  10.060   7.495   7.676  0.3222 -2.0543 -1.8171
  808MOL0     H 9017  10.013   7.721   7.678 -0.8038 -3.0602  0.8311
  808MOL0     H 9018   9.952   7.652   7.537 -1.2719  3.8209 -1.5504
  808MOL0     H 9019  10.225   7.816   7.549  0.7128 -2.3574 -0.5262
  808MOL0     H 9020  10.063   7.879   7.534  0.0547 -1.7165  1.6785
  808MOL0     H 9021  10.051   7.740   7.316  0.2904  0.0406  1.1453
  808MOL0     H 9022  10.152   7.892   7.323 -0.7743  0.5033  0.4100
  808MOL0     H 9023  10.349   7.751   7.395  0.6099 -1.5325 -0.8177
  808MOL0     H 9024  10.265   7.611   7.341  0.1706 -1.1122  0.5925
  808MOL0     H 9025  10.238   7.691   7.121 -0.9338  0.2579  1.2660
  808MOL0     H 9026  10.316   7.849   7.151  4.5768  0.8972  0.4749
  808MOL0     H 9027  10.536   7.727   7.179  1.8868 -0.2380 -0.9641
  808MOL0     H 9028  10.462   7.695   7.030 -1.7333  0.5997  0.6364
  808MOL0     H 9029  10.561   7.503   7.143  0.7289  2.3123  0.8884
  808MOL0     H 9030  10.452   7.522   7.279  1.4626  0.4786  1.0440
  808MOL0     H 9031  10.199   7.424   7.254  1.7802  0.4838  1.7520
  808MOL0     H 9032  10.076   7.147   7.072 -0.6138 -1.0014  2.5917
  808MOL0     H 9033  10.014   7.267   7.191  0.4130  0.6868  0.0823
  808MOL0     H 9034   9.854   7.229   7.018  0.9082 -0.2133  0.9928
  808MOL0     H 9035   9.922   7.397   7.013 -1.5463  0.5276  1.6791
  808MOL0     H 9036  10.054   7.360   6.807  0.7913 -1.4842 -1.7535
  808MOL0     H 9037   9.896   7.301   6.775  1.8901  1.8715 -0.9519
  808MOL0     H 9038  10.148   7.150   6.769  0.2085 -1.9122 -1.1386
  808MOL0     H 9039  10.011   7.143   6.669 -2.2893  0.1081 -0.1656
  808MOL0     H 9040   9.969   6.975   6.573 -1.4217  1.6143  0.0201
  808MOL0     H 9041   9.769   6.877   6.468  0.8861  0.1371  0.8171
  808MOL0     H 9042   9.518   6.737   6.228 -0.5419  1.0583 -1.4778
  808MOL0     H 9043   9.318   6.683   6.084  1.6322  2.7986 -0.4281
  808MOL0     H 9044   9.107   6.685   5.973 -1.0936  0.7229  0.5421
  808MOL0     H 9045   9.121   6.538   6.077  2.6905  0.5575 -0.7927
  808MOL0     H 9046   8.912   6.526   5.931  1.1790  0.4559  0.1987
  808MOL0     H 9047   8.882   6.530   6.100  1.3204  0.1638  1.4173
  808MOL0     H 9048   8.823   6.781   6.098 -0.0967 -0.3931 -0.2417
  808MOL0     H 9049   8.869   6.793   5.935  0.5313  1.4497  0.6706
  808MOL0     H 9050   8.656   6.597   6.045 -0.2410  2.5006  1.6289
  808MOL0     H 9051   8.696   6.604   5.870  1.1241 -3.1164  1.1927
  808MOL0     H 9052   8.540   6.804   6.024 -3.6948 -1.2375  0.0279
  808MOL0     H 9053   8.498   6.703   5.882  2.3055 -1.6338 -1.3580
  808MOL0     H 9054   8.719   6.909   5.854 -0.2071  1.2741 -0.3963
  808MOL0     H 9055   8.626   6.821   5.738  0.2981  2.3821 -0.1261
  808MOL0     H 9056   8.425   6.923   5.848  0.4387 -2.0411  2.4072
  808MOL0     H 9057   8.525   7.038   5.740  3.5339 -2.0208 -0.5392
  808MOL0     H 9058   8.594   7.056   6.016 -2.7435 -1.9465  1.4652
  808MOL0     H 9059   8.547   7.183   5.897 -0.1149  0.2507  1.0875
  808MOL0     H 9060   9.067   6.857   6.370  0.2228 -0.5368 -0.6131
  808MOL0     H 9061   9.279   6.895   6.525 -1.7516 -0.5800  0.1593
  808MOL0     H 9062   9.592   6.813   6.850  2.7863 -3.2538  0.1617
  808MOL0     H 9063   9.772   6.912   6.965  1.2608 -3.6889  0.1998
  808MOL0     H 9064  10.401   7.615   7.926 -0.5676 -1.6862  0.0131
  808MOL0     H 9065  10.333   7.676   8.177 -0.3270 -1.1126 -0.2558
  808MOL0     H 9066  10.188   7.444   8.568 -0.8160 -0.9610 -1.8436
  808MOL0     H 9067  10.076   7.453   8.794 -2.9114 -0.2216  0.4995
  808MOL0     H 9068   9.996   7.562   8.972 -0.4972  1.0326 -1.3884
  808MOL0     H 9069   9.892   7.416   8.976 -1.9525 -0.8473 -3.9717
  808MOL0     H 9070   9.852   7.539   9.178 -1.3085 -0.7370 -0.9770
  808MOL0     H 9071   9.715   7.545   9.072 -1.1849  3.0751 -1.6501
  808MOL0     H 9072   9.769   7.760   8.974  0.9710  0.4868  0.6566
  808MOL0     H 9073   9.928   7.766   9.057  0.0273 -0.3985  1.2597
  808MOL0     H 9074   9.652   7.755   9.184  1.2817 -2.3687  1.8975
  808MOL0     H 9075   9.807   7.776   9.274 -1.6290 -2.7952  0.2261
  808MOL0     H 9076   9.737   8.169   9.148 -1.7572 -0.2067 -1.3871
  808MOL0     H 9077   9.756   7.662   8.640  0.5564  0.8639  0.0222
  808MOL0     H 9078   9.861   7.755   8.336 -0.9092 -0.5656  0.5093
  808MOL0     H 9079   9.801   7.590   8.300  1.1592 -0.4331 -0.0212
  808MOL0     H 9080   9.722   7.699   8.414 -1.3672 -2.2942 -0.5861
  809MOL0     O 9081  11.156   0.275   2.988 -0.2782  0.8507 -0.2343
  809MOL0     C 9082  11.039   0.303   2.948 -0.4773  0.5546  0.7967
  809MOL0     O 9083  10.966   0.229   2.852 -0.4356 -0.1413  0.0975
  809MOL0     C 9084  11.014   0.102   2.816  0.9672 -0.5625 -0.0385
  809MOL0     C 9085  11.112   0.082   2.726  0.1466 -0.7876  1.0998
  809MOL0     C 9086  11.132  -0.048   2.679  0.4391 -0.6389  0.5574
  809MOL0     C 9087  11.054  -0.156   2.727  0.6351  0.8004  0.0281
  809MOL0     O 9088  11.081  -0.288   2.700  0.6215 -0.0047  0.1280
  809MOL0     C 9089  11.203  -0.321   2.623 -0.7316 -0.1365  0.8024
  809MOL0     C 9090  11.208  -0.460   2.576 -0.1156 -0.4569 -0.0901
  809MOL0     C 9091  11.316  -0.478   2.478 -0.1413  0.3570  1.3166
  809MOL0     C 9092  11.450  -0.503   2.547 -0.2368 -0.2073  0.8322
  809MOL0     C 9093  11.564  -0.530   2.449  0.6518 -0.2879 -0.7801
  809MOL0     C 9094  11.574  -0.677   2.381 -0.8021  0.4489 -0.1443
  809MOL0     C 9095  11.656  -0.771   2.477 -0.2386  0.3458 -0.0042
  809MOL0     C 9096  11.796  -0.721   2.499 -0.4500 -0.0252  0.6490
  809MOL0     N 9097  11.874  -0.838   2.549 -0.7115 -0.0529  0.5351
  809MOL0     C 9098  11.845  -0.903   2.674  0.4976  0.7550 -0.0831
  809MOL0     C 9099  11.958  -0.978   2.693 -0.2593 -0.3706 -0.5733
  809MOL0     C 9100  11.999  -1.040   2.821 -0.1299  0.0656  0.9168
  809MOL0     C 9101  12.004  -0.941   2.935  0.6327 -0.9344 -0.1125
  809MOL0     C 9102  12.032  -1.022   3.067 -0.3213  0.3289  0.3945
  809MOL0     C 9103  11.995  -0.954   3.195 -0.6959  0.3792  0.5332
  809MOL0     O 9104  12.036  -1.039   3.307 -0.2136 -0.0632  0.1332
  809MOL0     C 9105  11.989  -1.021   3.428  0.3514  0.8104 -0.6156
  809MOL0     C 9106  11.964  -0.896   3.484 -0.3791 -0.2470 -0.6364
  809MOL0     C 9107  11.918  -0.891   3.617  0.4855 -0.1343 -0.9069
  809MOL0     C 9108  11.885  -1.005   3.697 -0.0606 -0.3673 -0.0776
  809MOL0     C 9109  11.824  -0.996   3.834 -0.0450  0.0549 -0.2625
  809MOL0     O 9110  11.794  -1.119   3.890 -0.5773 -0.1276  0.5509
  809MOL0     C 9111  11.730  -1.115   4.016  0.3219  0.9198  0.4682
  809MOL0     C 9112  11.792  -1.068   4.131 -0.6080 -0.1674  0.2127
  809MOL0     C 9113  11.730  -1.053   4.254 -0.2640  0.0686  0.8415
  809MOL0     C 9114  11.607  -1.119   4.277 -0.9151 -1.2547 -0.1153
  809MOL0     O 9115  11.562  -1.129   4.406 -0.3740  0.3980 -0.3354
  809MOL0     C 9116  11.423  -1.114   4.406 -0.7727 -0.0045 -0.2287
  809MOL0     C 9117  11.383  -1.091   4.558  0.0537 -0.4097  0.0219
  809MOL0     C 9118  11.432  -1.189   4.656  0.2632  0.6567 -0.5873
  809MOL0     C 9119  11.388  -1.157   4.797 -0.5035  0.1375 -0.4143
  809MOL0     C 9120  11.459  -1.258   4.901 -0.2547 -0.3040  1.1521
  809MOL0     C 9121  11.404  -1.249   5.042  1.0985  0.2605 -0.0512
  809MOL0     C 9122  11.414  -1.391   5.116 -0.1050 -0.2522 -0.0443
  809MOL0     C 9123  11.307  -1.414   5.217 -0.6186 -0.4015 -1.0462
  809MOL0    Cl 9124  11.340  -1.552   5.327  0.1869 -0.0825  0.4234
  809MOL0     C 9125  11.549  -1.185   4.160  0.3704  0.3714 -0.3463
  809MOL0     C 9126  11.600  -1.173   4.031 -0.1583 -0.4788  0.7185
  809MOL0     O 9127  11.814  -0.891   3.890 -0.0695  0.4169  0.9108
  809MOL0     C 9128  11.916  -1.133   3.634  0.8681 -0.2389 -0.6149
  809MOL0     C 9129  11.973  -1.137   3.512 -0.5825  0.5151  1.0951
  809MOL0     N 9130  12.054  -0.947   2.601 -0.1647 -0.2842  0.6920
  809MOL0     N 9131  11.997  -0.863   2.504 -0.3073 -0.2627  0.8666
  809MOL0     C 9132  10.949  -0.136   2.812  0.2561 -0.0890 -0.3721
  809MOL0     C 9133  10.924  -0.004   2.857  0.3450 -0.1553 -0.1855
  809MOL0     C 9134  10.970   0.427   2.996  0.8810 -0.1561  1.2526
  809MOL0     C 9135  10.864   0.488   2.914 -0.2184 -0.1887 -0.4619
  809MOL0     C 9136  10.794   0.603   2.960 -1.1918 -0.2184 -1.0827
  809MOL0     C 9137  10.830   0.656   3.094 -0.1873  0.0233 -0.7040
  809MOL0     O 9138  10.768   0.764   3.155  0.6454  0.0338  1.2548
  809MOL0     C 9139  10.637   0.814   3.115 -0.1915  0.4551 -0.3144
  809MOL0     C 9140  10.611   0.921   3.222  0.3990 -0.7498  0.4739
  809MOL0     C 9141  10.470   0.985   3.206 -1.0973  0.1976 -0.2014
  809MOL0     C 9142  10.438   1.081   3.316  1.1644 -0.7378 -1.1497
  809MOL0     C 9143  10.384   1.022   3.436 -1.2609  0.2130 -0.7568
  809MOL0     C 9144  10.346   0.972   3.539 -0.1242 -1.2207 -0.4568
  809MOL0     C 9145  10.936   0.598   3.167 -0.6230  0.2865 -0.4171
  809MOL0     C 9146  10.998   0.482   3.127 -0.1793 -0.1165 -0.3092
  809MOL0     C 9147  11.100   0.425   3.217 -0.1591 -0.4353 -0.8442
  809MOL0     H 9148  11.166   0.174   2.704 -3.0817  1.6435  2.4343
  809MOL0     H 9149  11.214  -0.073   2.613  0.9016 -0.5361  1.0822
  809MOL0     H 9150  11.205  -0.252   2.538  0.3880  2.2132  2.5983
  809MOL0     H 9151  11.291  -0.303   2.686 -0.2514 -2.0998  0.7596
  809MOL0     H 9152  11.111  -0.476   2.527  2.2391 -3.2202 -4.4365
  809MOL0     H 9153  11.209  -0.537   2.654 -0.5014  2.9824  3.6546
  809MOL0     H 9154  11.323  -0.390   2.414 -0.4925  0.1477  0.9898
  809MOL0     H 9155  11.279  -0.564   2.421 -2.2679  2.0454  0.0129
  809MOL0     H 9156  11.485  -0.414   2.599  0.4251 -0.5095  0.9176
  809MOL0     H 9157  11.447  -0.589   2.615  2.6500  0.2294  1.6475
  809MOL0     H 9158  11.558  -0.449   2.377 -1.7072  1.7745  1.5488
  809MOL0     H 9159  11.653  -0.513   2.510 -0.9521  0.7903  1.4053
  809MOL0     H 9160  11.476  -0.723   2.372 -0.2811 -0.7164 -0.1123
  809MOL0     H 9161  11.623  -0.692   2.285 -0.4513 -2.0733  0.3592
  809MOL0     H 9162  11.660  -0.871   2.432 -2.4459  0.3707 -0.3655
  809MOL0     H 9163  11.588  -0.784   2.561 -2.2254  1.1542 -1.4238
  809MOL0     H 9164  11.845  -0.678   2.411 -1.5273  0.0792  0.0849
  809MOL0     H 9165  11.801  -0.641   2.574  1.4735  0.1284  0.3879
  809MOL0     H 9166  11.770  -0.879   2.749 -1.2279  0.1275 -1.5583
  809MOL0     H 9167  11.932  -1.125   2.836  1.5576 -1.1186  2.2106
  809MOL0     H 9168  12.094  -1.090   2.802 -1.2256 -1.3805 -1.0777
  809MOL0     H 9169  12.071  -0.856   2.919  2.9394 -2.8740 -1.2961
  809MOL0     H 9170  11.909  -0.889   2.953  1.3362 -0.4230  2.5875
  809MOL0     H 9171  12.138  -1.046   3.072  0.1913  0.0998 -5.3112
  809MOL0     H 9172  11.974  -1.114   3.056  2.0054 -1.0236 -1.5806
  809MOL0     H 9173  11.895  -0.908   3.191  1.4788  5.7806 -0.9928
  809MOL0     H 9174  12.062  -0.867   3.198 -0.6276  0.3335  0.3263
  809MOL0     H 9175  11.978  -0.801   3.433 -2.8849  2.2922  2.8881
  809MOL0     H 9176  11.906  -0.797   3.669 -0.4029  0.3075 -1.8723
  809MOL0     H 9177  11.896  -1.045   4.111  0.2282 -3.5098  0.1219
  809MOL0     H 9178  11.788  -1.012   4.337  1.8132 -1.3540  0.1767
  809MOL0     H 9179  11.386  -1.033   4.342 -2.2467 -2.3003 -2.4335
  809MOL0     H 9180  11.372  -1.205   4.374 -0.7078  0.4821 -1.8058
  809MOL0     H 9181  11.427  -0.996   4.590 -1.3837  0.8793 -1.5980
  809MOL0     H 9182  11.274  -1.084   4.559 -0.1117 -0.3737 -3.8869
  809MOL0     H 9183  11.375  -1.281   4.643  1.1823 -0.5842  2.8788
  809MOL0     H 9184  11.540  -1.209   4.649  0.1845  0.6274 -1.8207
  809MOL0     H 9185  11.280  -1.145   4.808 -0.5507 -0.4846 -0.1125
  809MOL0     H 9186  11.432  -1.060   4.821 -1.0210  0.5367 -1.0326
  809MOL0     H 9187  11.566  -1.237   4.907 -0.5301  1.1845  1.2730
  809MOL0     H 9188  11.441  -1.358   4.862  0.2299  0.6622 -1.8605
  809MOL0     H 9189  11.467  -1.174   5.090 -0.3807 -0.7110  3.7495
  809MOL0     H 9190  11.300  -1.214   5.041  1.3954  1.2533  1.2112
  809MOL0     H 9191  11.502  -1.391   5.182 -0.2390 -0.1481  0.1345
  809MOL0     H 9192  11.422  -1.487   5.063 -1.2620 -1.4592  1.8398
  809MOL0     H 9193  11.296  -1.330   5.286 -3.0610 -0.0091 -1.8221
  809MOL0     H 9194  11.206  -1.427   5.179 -1.0326  0.6181 -0.3345
  809MOL0     H 9195  11.458  -1.244   4.170 -0.7631  1.8330 -1.4672
  809MOL0     H 9196  11.546  -1.219   3.949  1.1134  0.1652 -0.5041
  809MOL0     H 9197  11.878  -1.217   3.691  1.0498  2.3807  3.8426
  809MOL0     H 9198  11.978  -1.239   3.476 -1.4752  0.6401  0.5904
  809MOL0     H 9199  10.878  -0.215   2.837 -0.7875  1.0943  0.5315
  809MOL0     H 9200  10.839   0.025   2.917  0.6634 -1.5093  0.9649
  809MOL0     H 9201  10.834   0.433   2.825 -1.4790 -1.0477  0.4491
  809MOL0     H 9202  10.709   0.655   2.916  0.2769  3.5978  0.2056
  809MOL0     H 9203  10.558   0.738   3.121  0.0454  0.2462  0.1311
  809MOL0     H 9204  10.631   0.861   3.016  0.0228 -0.6336 -0.8505
  809MOL0     H 9205  10.688   0.999   3.225 -0.7726  0.4124  2.3855
  809MOL0     H 9206  10.625   0.871   3.318 -2.3541 -1.6731  0.4585
  809MOL0     H 9207  10.392   0.909   3.204 -1.9442  1.0504 -0.3079
  809MOL0     H 9208  10.473   1.047   3.116 -1.7746 -0.6931 -0.8413
  809MOL0     H 9209  10.524   1.136   3.357  2.3825 -4.7495  2.5142
  809MOL0     H 9210  10.372   1.159   3.277 -0.1270 -1.2444 -0.0496
  809MOL0     H 9211  10.328   0.937   3.638  1.5459  1.1810  0.8063
  809MOL0     H 9212  10.958   0.641   3.264  6.2087  3.0258 -2.5019
  809MOL0     H 9213  11.079   0.319   3.234  1.2241 -0.6103 -0.1436
  809MOL0     H 9214  11.204   0.437   3.186  0.4523 -2.4023  0.2338
  809MOL0     H 9215  11.094   0.484   3.308 -3.2434  0.3620 -1.4418
  810MOL0     O 9216   4.763  10.484   0.089  0.1914  0.6720  0.0629
  810MOL0     C 9217   4.762  10.604   0.117 -0.0252 -0.3551 -0.3009
  810MOL0     O 9218   4.660  10.662   0.186  0.0982 -0.8043  0.5005
  810MOL0     C 9219   4.591  10.571   0.268  0.0707  0.4274 -0.1568
  810MOL0     C 9220   4.451  10.579   0.253 -0.2717  0.1136 -0.6300
  810MOL0     C 9221   4.367  10.496   0.315  0.4290  0.1574 -0.2346
  810MOL0     C 9222   4.410  10.407   0.414  0.9897 -0.1162 -0.0505
  810MOL0     O 9223   4.324  10.347   0.487 -0.1997 -0.0918  0.3088
  810MOL0     C 9224   4.340  10.366   0.634  0.2362 -0.0020 -0.4676
  810MOL0     C 9225   4.212  10.317   0.695  0.6329  0.9754 -0.4478
  810MOL0     C 9226   4.205  10.167   0.690 -0.0979  0.2542  0.9752
  810MOL0     C 9227   4.095  10.101   0.782 -1.1808  0.1187 -0.0932
  810MOL0     C 9228   4.074   9.953   0.773 -0.6568 -0.5408 -0.6267
  810MOL0     C 9229   3.948   9.924   0.852 -0.0561 -0.6405  0.1876
  810MOL0     C 9230   3.814   9.964   0.791  0.1514 -0.0295  0.1485
  810MOL0     C 9231   3.738   9.845   0.733  0.4057  0.3092  0.1017
  810MOL0     N 9232   3.821   9.791   0.623  0.5199  0.0398  0.4946
  810MOL0     C 9233   3.827   9.853   0.501  0.5799  0.7536  1.4788
  810MOL0     C 9234   3.923   9.772   0.440 -1.2230 -0.2796 -0.4928
  810MOL0     C 9235   3.970   9.780   0.291  0.9087 -0.1503  0.0258
  810MOL0     C 9236   4.020   9.909   0.235 -0.2149  0.4355  0.2064
  810MOL0     C 9237   4.138   9.958   0.318  0.3959 -0.7952  1.4108
  810MOL0     C 9238   4.201  10.097   0.271  0.0608  0.3523 -0.3097
  810MOL0     O 9239   4.286  10.042   0.172 -0.1784 -0.0531  0.5930
  810MOL0     C 9240   4.360  10.139   0.099  0.5013 -0.7931 -0.2617
  810MOL0     C 9241   4.331  10.279   0.086 -0.8603  1.1424 -0.0370
  810MOL0     C 9242   4.409  10.363   0.003 -0.2658  0.0020 -0.7333
  810MOL0     C 9243   4.516  10.316  -0.077  0.0415  0.0103 -0.0718
  810MOL0     C 9244   4.583  10.402  -0.179 -0.9789  1.0084  0.0835
  810MOL0     O 9245   4.533  10.519  -0.206  0.1736 -0.4699 -0.7141
  810MOL0     C 9246   4.598  10.608  -0.295 -0.5698 -0.3321 -0.3815
  810MOL0     C 9247   4.518  10.655  -0.396  0.6080  0.1484  0.6306
  810MOL0     C 9248   4.569  10.744  -0.490 -0.3574 -0.1752 -0.4062
  810MOL0     C 9249   4.698  10.804  -0.463 -0.5369 -0.1018  0.1107
  810MOL0     O 9250   4.750  10.901  -0.542 -0.6676  0.2301  0.5863
  810MOL0     C 9251   4.682  11.026  -0.549 -0.2250  1.2567  1.2518
  810MOL0     C 9252   4.782  11.134  -0.582  0.2370  0.7320  1.0733
  810MOL0     C 9253   4.808  11.119  -0.735 -0.6448 -0.7528  0.7605
  810MOL0     C 9254   4.929  11.186  -0.772 -0.6985 -0.3697  0.0124
  810MOL0     C 9255   4.964  11.171  -0.924 -1.0698 -0.8771  0.6582
  810MOL0     C 9256   5.100  11.223  -0.953 -0.1091 -0.0037  0.5857
  810MOL0     C 9257   5.144  11.176  -1.090 -0.6998  0.1279  0.0904
  810MOL0     C 9258   5.280  11.242  -1.124 -0.7208  0.4192  0.3418
  810MOL0    Cl 9259   5.265  11.413  -1.128 -0.5557 -0.2906  0.2796
  810MOL0     C 9260   4.774  10.756  -0.355 -0.0446 -0.0393 -0.8432
  810MOL0     C 9261   4.730  10.657  -0.272 -0.1309 -0.4229  0.1020
  810MOL0     O 9262   4.672  10.348  -0.246  0.5011  0.0816  0.0814
  810MOL0     C 9263   4.544  10.184  -0.057  0.2919  0.8898  0.1514
  810MOL0     C 9264   4.475  10.100   0.026  1.0579  0.8613  0.1371
  810MOL0     N 9265   3.953   9.667   0.515 -1.0615  0.4576  0.0234
  810MOL0     N 9266   3.894   9.681   0.631  0.1897 -0.3393  0.9620
  810MOL0     C 9267   4.545  10.390   0.435 -0.2961 -0.1900  0.3098
  810MOL0     C 9268   4.638  10.470   0.355  0.2833 -0.3268 -0.1625
  810MOL0     C 9269   4.877  10.690   0.063 -0.5775  0.5114  0.4888
  810MOL0     C 9270   4.855  10.832   0.055  0.2919 -1.0438 -0.1397
  810MOL0     C 9271   4.946  10.917  -0.011 -0.7114  0.7757  0.5469
  810MOL0     C 9272   5.053  10.855  -0.081  0.0608 -0.2030  0.1754
  810MOL0     O 9273   5.137  10.935  -0.156 -0.1604  0.4824 -0.4982
  810MOL0     C 9274   5.115  10.919  -0.297  0.2589 -0.3058  0.4531
  810MOL0     C 9275   5.228  10.980  -0.371  1.0536 -0.7326 -0.8409
  810MOL0     C 9276   5.228  10.936  -0.518 -0.9171  0.3945  0.6805
  810MOL0     C 9277   5.334  11.016  -0.599  0.5256  0.5785  0.5423
  810MOL0     C 9278   5.361  10.947  -0.725  0.1984  0.3155  1.0258
  810MOL0     C 9279   5.379  10.895  -0.837  1.0952  0.7547 -0.0825
  810MOL0     C 9280   5.081  10.718  -0.072 -0.3953  0.8204 -0.0212
  810MOL0     C 9281   5.003  10.644   0.005  0.0329 -0.7500 -0.7291
  810MOL0     C 9282   5.042  10.497  -0.003 -0.1594  0.2979  0.0594
  810MOL0     H 9283   4.426  10.653   0.179 -1.5324  0.4306  0.0773
  810MOL0     H 9284   4.262  10.509   0.294 -0.0645  5.0292  3.5893
  810MOL0     H 9285   4.426  10.304   0.663  0.3685  0.2560 -0.2977
  810MOL0     H 9286   4.361  10.471   0.656  1.8068 -0.1922 -0.9212
  810MOL0     H 9287   4.123  10.360   0.649 -0.3142 -1.6005 -1.2204
  810MOL0     H 9288   4.211  10.343   0.802  1.7272 -0.2813 -0.0978
  810MOL0     H 9289   4.307  10.139   0.718 -0.2978  1.2887  2.9524
  810MOL0     H 9290   4.191  10.149   0.583 -1.6213  4.0514  0.3718
  810MOL0     H 9291   4.114  10.130   0.885 -0.6363 -2.5775  0.6441
  810MOL0     H 9292   4.004  10.157   0.757 -1.0988 -0.3268 -1.4698
  810MOL0     H 9293   4.059   9.913   0.672 -1.0032 -1.3740 -0.2561
  810MOL0     H 9294   4.156   9.901   0.823 -1.6467 -0.8774  0.7077
  810MOL0     H 9295   3.952   9.815   0.864  0.2101 -0.5629  0.8451
  810MOL0     H 9296   3.950   9.972   0.951  0.0716  2.1221 -1.0818
  810MOL0     H 9297   3.822  10.044   0.716 -2.2094 -0.0401 -0.1653
  810MOL0     H 9298   3.744   9.995   0.869 -0.7608 -3.0073  0.6315
  810MOL0     H 9299   3.737   9.760   0.802 -0.1933 -0.5827 -0.9707
  810MOL0     H 9300   3.637   9.876   0.704  0.8662  0.1036 -1.8979
  810MOL0     H 9301   3.795   9.948   0.460  2.2395  0.7493  0.0267
  810MOL0     H 9302   4.054   9.711   0.281 -0.6788 -1.9061 -2.1162
  810MOL0     H 9303   3.883   9.748   0.234  1.2619  1.0098 -1.2129
  810MOL0     H 9304   4.052   9.884   0.134  2.8311  0.6019  1.0480
  810MOL0     H 9305   3.931   9.971   0.219  0.7036  1.2340 -2.3156
  810MOL0     H 9306   4.225   9.894   0.333  3.6002  3.1109  1.2564
  810MOL0     H 9307   4.090   9.981   0.414 -2.8464 -1.0915 -0.0092
  810MOL0     H 9308   4.270  10.131   0.348  0.5836 -3.0852  0.9100
  810MOL0     H 9309   4.137  10.177   0.234  0.4832  1.0585  0.4694
  810MOL0     H 9310   4.249  10.313   0.148 -1.1827 -3.3834  2.4932
  810MOL0     H 9311   4.393  10.470   0.005  0.2823  0.0884 -0.7824
  810MOL0     H 9312   4.420  10.612  -0.413  1.2872 -1.9696  1.8091
  810MOL0     H 9313   4.506  10.777  -0.572 -1.7475 -1.1837  0.2144
  810MOL0     H 9314   4.589  11.021  -0.606 -0.1564  1.2381  1.1417
  810MOL0     H 9315   4.644  11.049  -0.449 -1.0388 -0.4464  1.3748
  810MOL0     H 9316   4.731  11.231  -0.577 -2.2400 -0.3661 -0.6264
  810MOL0     H 9317   4.869  11.126  -0.516  0.2385 -0.8984  0.9198
  810MOL0     H 9318   4.805  11.011  -0.751 -0.0657 -0.7536  0.6450
  810MOL0     H 9319   4.723  11.159  -0.791  1.1229  0.4061 -1.2593
  810MOL0     H 9320   5.007  11.124  -0.727 -2.1262 -1.9083  0.4386
  810MOL0     H 9321   4.936  11.293  -0.749  1.0136 -0.3729 -0.3681
  810MOL0     H 9322   4.893  11.230  -0.982 -0.3678 -1.2384 -0.6112
  810MOL0     H 9323   4.955  11.066  -0.954 -0.1118 -0.9125  0.4539
  810MOL0     H 9324   5.082  11.331  -0.947  2.1388  0.4007  0.6520
  810MOL0     H 9325   5.167  11.196  -0.871  0.5157  0.8569  0.3698
  810MOL0     H 9326   5.061  11.185  -1.160 -1.6942 -0.6008  1.1337
  810MOL0     H 9327   5.173  11.070  -1.094  0.1510  0.3925 -2.3350
  810MOL0     H 9328   5.351  11.222  -1.043 -0.3902 -0.9084 -0.2394
  810MOL0     H 9329   5.320  11.205  -1.219  2.6491  1.3863  1.2463
  810MOL0     H 9330   4.870  10.802  -0.334  0.1718 -0.9126  0.1561
  810MOL0     H 9331   4.789  10.616  -0.191 -0.5936 -1.7436 -0.2098
  810MOL0     H 9332   4.632  10.149  -0.111 -0.7230 -1.3485 -0.1713
  810MOL0     H 9333   4.486   9.994   0.045  2.8592  0.7608 -1.1844
  810MOL0     H 9334   4.578  10.319   0.510 -0.0986  0.3412  0.7332
  810MOL0     H 9335   4.744  10.457   0.370  1.0633  2.1875 -2.6321
  810MOL0     H 9336   4.766  10.875   0.098 -1.6125 -4.0280 -0.8322
  810MOL0     H 9337   4.928  11.023  -0.022 -0.3511  0.5846 -3.9814
  810MOL0     H 9338   5.018  10.964  -0.321 -0.6549 -1.8408  1.1145
  810MOL0     H 9339   5.096  10.815  -0.326 -1.7684  0.4369 -1.1347
  810MOL0     H 9340   5.327  10.956  -0.332  1.1316  1.9635  0.8758
  810MOL0     H 9341   5.217  11.088  -0.361 -0.9113 -1.0594  1.5045
  810MOL0     H 9342   5.130  10.949  -0.565  0.4408  3.5069 -1.6519
  810MOL0     H 9343   5.246  10.828  -0.517  1.6839  0.7436  1.8818
  810MOL0     H 9344   5.293  11.116  -0.615  1.3779  0.9877  0.8353
  810MOL0     H 9345   5.428  11.026  -0.544  2.9387 -1.3107 -2.8397
  810MOL0     H 9346   5.377  10.827  -0.919  0.6961  1.3687 -0.5862
  810MOL0     H 9347   5.165  10.676  -0.127 -0.0171  1.1297  0.3072
  810MOL0     H 9348   5.143  10.478  -0.040  0.1103 -1.1726  1.4460
  810MOL0     H 9349   5.037  10.451   0.096  1.8490  0.3126  0.1995
  810MOL0     H 9350   4.967  10.460  -0.073 -0.4782  2.6631 -0.9412
  811MOL0     O 9351   2.279   8.517   8.311  0.3315 -0.0695 -0.2635
  811MOL0     C 9352   2.163   8.525   8.357 -0.2117 -1.1501  0.2403
  811MOL0     O 9353   2.118   8.442   8.461  0.4876 -0.2429  0.5776
  811MOL0     C 9354   2.168   8.317   8.488 -0.7094 -0.0595 -0.5694
  811MOL0     C 9355   2.309   8.307   8.510 -0.0173 -0.4952 -0.1561
  811MOL0     C 9356   2.366   8.176   8.524  1.3390 -0.1911 -0.2062
  811MOL0     C 9357   2.284   8.056   8.511 -0.6923  0.3700  0.5035
  811MOL0     O 9358   2.342   7.935   8.529 -0.3978 -0.1291 -0.6567
  811MOL0     C 9359   2.308   7.861   8.648  0.0280  0.0079  0.9638
  811MOL0     C 9360   2.416   7.851   8.750  0.7729 -0.5846  0.3383
  811MOL0     C 9361   2.416   7.990   8.826 -0.1953 -0.7145  0.6902
  811MOL0     C 9362   2.558   8.041   8.838 -0.6141 -0.1263  0.3051
  811MOL0     C 9363   2.640   7.967   8.944  1.0295 -0.0229  0.2821
  811MOL0     C 9364   2.786   7.991   8.922 -0.8998  0.4896  0.5896
  811MOL0     C 9365   2.824   8.141   8.947  0.2311  0.7522 -0.5864
  811MOL0     C 9366   2.971   8.198   8.936  0.6764  0.0338 -1.0836
  811MOL0     N 9367   3.030   8.187   8.805  0.5963 -0.2381  1.3314
  811MOL0     C 9368   2.961   8.210   8.687  0.5470 -0.4630 -0.0745
  811MOL0     C 9369   3.022   8.136   8.589  0.3155  0.9758 -0.1733
  811MOL0     C 9370   2.994   8.128   8.445  0.3385 -0.2210  0.2355
  811MOL0     C 9371   2.845   8.110   8.412  0.6316  0.0099  0.1737
  811MOL0     C 9372   2.833   8.087   8.259  0.1255  0.1098 -0.0639
  811MOL0     C 9373   2.691   8.033   8.222 -0.5194 -0.5063 -0.0636
  811MOL0     O 9374   2.598   8.149   8.188  0.0334  0.2854 -0.1279
  811MOL0     C 9375   2.466   8.116   8.172 -0.3914  0.2636  0.1336
  811MOL0     C 9376   2.414   7.985   8.189 -0.0582 -0.1179  0.6432
  811MOL0     C 9377   2.277   7.956   8.169  0.5231  0.8299 -0.8627
  811MOL0     C 9378   2.187   8.054   8.146 -0.2580  0.1420  0.8482
  811MOL0     C 9379   2.039   8.025   8.147  0.5579 -0.8092 -0.5887
  811MOL0     O 9380   1.957   8.128   8.120 -0.0176 -0.2463 -1.0947
  811MOL0     C 9381   1.814   8.123   8.090 -0.9620 -0.9834 -0.6480
  811MOL0     C 9382   1.749   8.046   7.985  0.7127 -0.3243 -0.0233
  811MOL0     C 9383   1.612   8.038   7.973 -0.5562  0.6239 -0.4069
  811MOL0     C 9384   1.531   8.074   8.076  0.0682 -1.5103 -0.1149
  811MOL0     O 9385   1.403   8.030   8.074  0.6694 -0.4048 -0.3134
  811MOL0     C 9386   1.301   8.118   8.025  0.9258 -0.1324  0.5628
  811MOL0     C 9387   1.167   8.087   8.098  0.1352 -0.3755  0.0636
  811MOL0     C 9388   1.079   8.208   8.088  0.4807 -0.0549  0.3303
  811MOL0     C 9389   0.970   8.199   8.187 -0.6031  0.4941 -0.0283
  811MOL0     C 9390   0.895   8.326   8.214 -0.8270  0.0761  0.1242
  811MOL0     C 9391   0.770   8.294   8.310 -0.1406  0.4570  0.1386
  811MOL0     C 9392   0.665   8.224   8.238  0.4113 -0.2562 -0.2073
  811MOL0     C 9393   0.541   8.193   8.325  0.4212 -0.0233  0.0798
  811MOL0    Cl 9394   0.567   8.097   8.470  0.1570 -0.5880 -0.1056
  811MOL0     C 9395   1.586   8.144   8.184 -0.8293 -0.1341  0.1324
  811MOL0     C 9396   1.727   8.175   8.183  0.0953  0.9732  0.9727
  811MOL0     O 9397   2.003   7.908   8.166  0.0437  0.9336 -0.0486
  811MOL0     C 9398   2.232   8.179   8.127 -0.1803 -0.0360  1.1843
  811MOL0     C 9399   2.373   8.211   8.137 -0.3419 -0.7390 -0.3417
  811MOL0     N 9400   3.123   8.071   8.651 -0.6882 -0.5081  1.1652
  811MOL0     N 9401   3.141   8.115   8.773  0.5081 -0.0837  0.4918
  811MOL0     C 9402   2.151   8.073   8.489 -0.7652  0.5825  0.0841
  811MOL0     C 9403   2.092   8.202   8.466 -0.1944  0.2049  0.1348
  811MOL0     C 9404   2.067   8.629   8.297 -0.3363  0.7058  0.3339
  811MOL0     C 9405   1.941   8.632   8.357 -0.0211 -0.2073  0.2347
  811MOL0     C 9406   1.846   8.711   8.302 -0.0843  0.4669  0.3554
  811MOL0     C 9407   1.875   8.812   8.206  0.7404 -0.5963 -0.8439
  811MOL0     O 9408   1.795   8.926   8.184 -1.0926  0.0185 -0.1106
  811MOL0     C 9409   1.732   8.935   8.052  0.3127 -0.5497  0.4750
  811MOL0     C 9410   1.690   9.084   8.043  0.2929  0.5558 -0.3437
  811MOL0     C 9411   1.563   9.113   8.132  0.2013  0.0520 -0.1062
  811MOL0     C 9412   1.442   9.140   8.044  1.3092 -0.5246 -0.7817
  811MOL0     C 9413   1.413   9.028   7.950 -0.9981  0.1037  0.5082
  811MOL0     C 9414   1.393   8.930   7.877  0.5441 -0.7022 -0.0789
  811MOL0     C 9415   2.002   8.804   8.140 -0.2360  0.5230 -0.5430
  811MOL0     C 9416   2.096   8.715   8.189 -1.7228 -0.0996  0.3096
  811MOL0     C 9417   2.243   8.714   8.118  0.0845 -0.6059  0.2427
  811MOL0     H 9418   2.363   8.401   8.511 -3.9196  1.9696  0.1041
  811MOL0     H 9419   2.470   8.167   8.553  0.6630 -2.0646  1.9153
  811MOL0     H 9420   2.220   7.909   8.692  1.4807  2.5471  1.3151
  811MOL0     H 9421   2.285   7.764   8.604 -0.1253 -0.0144  1.0915
  811MOL0     H 9422   2.510   7.818   8.705 -0.8840 -2.5946 -1.9377
  811MOL0     H 9423   2.379   7.769   8.813 -1.2053  0.0237  0.0342
  811MOL0     H 9424   2.368   7.981   8.924 -0.2185 -1.5554  0.6122
  811MOL0     H 9425   2.362   8.066   8.769 -0.8881 -0.2898  1.8623
  811MOL0     H 9426   2.598   8.028   8.737 -3.8117 -1.0954 -0.9635
  811MOL0     H 9427   2.567   8.148   8.858  0.4480  0.1839 -1.5526
  811MOL0     H 9428   2.603   7.990   9.045  0.9432 -2.7623  0.9569
  811MOL0     H 9429   2.626   7.858   8.943  0.2901  0.0285  1.9200
  811MOL0     H 9430   2.842   7.926   8.989 -0.5077  0.9235  0.6939
  811MOL0     H 9431   2.823   7.984   8.819 -0.5554  1.1444  0.6567
  811MOL0     H 9432   2.789   8.161   9.049 -0.0210  0.7376 -0.6697
  811MOL0     H 9433   2.761   8.205   8.885  0.3891 -1.4413 -3.2200
  811MOL0     H 9434   2.952   8.303   8.962  0.6293 -0.6957  2.3621
  811MOL0     H 9435   3.031   8.142   9.008 -0.2673 -2.2146 -1.9598
  811MOL0     H 9436   2.884   8.287   8.686  2.9521  2.2151  2.1884
  811MOL0     H 9437   3.029   8.222   8.403 -0.1761  0.4382  1.2590
  811MOL0     H 9438   3.042   8.036   8.411 -0.6530 -0.5455 -0.3643
  811MOL0     H 9439   2.811   8.023   8.469  2.4266 -0.0675  1.1975
  811MOL0     H 9440   2.786   8.198   8.439 -2.3139 -0.9109 -2.6424
  811MOL0     H 9441   2.898   8.000   8.248  2.1648  1.2363  2.3063
  811MOL0     H 9442   2.857   8.175   8.198  0.0363 -0.3334 -0.7566
  811MOL0     H 9443   2.658   7.975   8.309  0.3506  0.0733  0.6804
  811MOL0     H 9444   2.699   7.974   8.131 -1.4796  0.4906 -0.8195
  811MOL0     H 9445   2.470   7.895   8.211 -2.0915 -0.5254  5.2659
  811MOL0     H 9446   2.244   7.853   8.176  2.3012  0.1301 -1.9831
  811MOL0     H 9447   1.810   7.995   7.910 -2.5288 -2.7965 -1.2342
  811MOL0     H 9448   1.554   7.992   7.895 -0.0168  3.4660 -2.6657
  811MOL0     H 9449   1.325   8.222   8.047  1.2027 -0.3227  1.1872
  811MOL0     H 9450   1.286   8.093   7.919 -1.7316 -1.4962  1.1551
  811MOL0     H 9451   1.120   8.000   8.053  2.0172 -1.4360  0.0555
  811MOL0     H 9452   1.184   8.071   8.205  0.4283  4.2806  0.9326
  811MOL0     H 9453   1.140   8.299   8.080  0.5176 -0.1169 -0.1594
  811MOL0     H 9454   1.031   8.209   7.989 -1.8155 -1.8866  1.3406
  811MOL0     H 9455   1.005   8.170   8.286  0.5301 -1.2615 -0.8948
  811MOL0     H 9456   0.900   8.119   8.162 -1.0732  1.0430 -0.5212
  811MOL0     H 9457   0.863   8.369   8.119 -1.1644 -1.4266 -0.4691
  811MOL0     H 9458   0.971   8.394   8.253  0.0153  0.2748 -1.7436
  811MOL0     H 9459   0.809   8.231   8.391 -1.2082 -0.9315 -0.3905
  811MOL0     H 9460   0.733   8.381   8.366  1.5412  1.4721 -0.2621
  811MOL0     H 9461   0.695   8.131   8.189  0.1428 -0.0777 -0.7128
  811MOL0     H 9462   0.632   8.291   8.158  0.5263  0.8184  0.6092
  811MOL0     H 9463   0.505   8.290   8.358  2.5193 -0.5429  4.5134
  811MOL0     H 9464   0.458   8.155   8.264 -1.9261 -0.8875  3.5611
  811MOL0     H 9465   1.530   8.177   8.271 -0.0066 -1.8997  1.3797
  811MOL0     H 9466   1.762   8.231   8.270 -2.5366  1.3196  1.8987
  811MOL0     H 9467   2.157   8.251   8.095  0.8156 -0.3637 -2.2517
  811MOL0     H 9468   2.411   8.312   8.129  1.3842 -1.4808 -2.2924
  811MOL0     H 9469   2.094   7.982   8.473  1.2804 -0.3607 -2.5604
  811MOL0     H 9470   1.986   8.218   8.449 -0.3530 -1.8853 -1.1834
  811MOL0     H 9471   1.921   8.572   8.445  3.0767  1.3061  2.1061
  811MOL0     H 9472   1.751   8.731   8.349  0.8503  2.9117  1.3226
  811MOL0     H 9473   1.657   8.857   8.034  1.5052 -0.8558 -5.4274
  811MOL0     H 9474   1.804   8.922   7.970  1.9424  2.4014  1.3004
  811MOL0     H 9475   1.683   9.119   7.939 -0.3961 -0.5940 -0.7093
  811MOL0     H 9476   1.773   9.142   8.085 -1.2795  1.3952  1.7390
  811MOL0     H 9477   1.581   9.186   8.211 -0.4209  1.6009 -1.3399
  811MOL0     H 9478   1.536   9.029   8.195  2.6418  0.2981  1.4240
  811MOL0     H 9479   1.369   9.145   8.125  2.9434  1.7694  0.6745
  811MOL0     H 9480   1.441   9.243   8.007 -0.0640 -0.4027 -0.4499
  811MOL0     H 9481   1.365   8.856   7.805  0.0837  1.9182 -2.7989
  811MOL0     H 9482   2.028   8.872   8.060 -1.1172 -2.5895 -3.7762
  811MOL0     H 9483   2.246   8.796   8.046  0.6303 -2.7689 -2.3143
  811MOL0     H 9484   2.334   8.723   8.178  1.3760 -0.6548 -1.6265
  811MOL0     H 9485   2.251   8.625   8.056  1.0868 -1.0693  1.0026
  812MOL0     O 9486   8.204  10.250  11.288 -0.1686  0.4502  0.4183
  812MOL0     C 9487   8.149  10.357  11.290  0.5207 -0.8714  0.2379
  812MOL0     O 9488   8.185  10.458  11.375 -0.0423 -0.4553  0.0340
  812MOL0     C 9489   8.254  10.454  11.489  0.6011  0.0598  0.3447
  812MOL0     C 9490   8.258  10.565  11.559 -0.1327 -0.4823 -0.1191
  812MOL0     C 9491   8.308  10.569  11.688  0.7798 -0.4571  0.9271
  812MOL0     C 9492   8.369  10.459  11.746 -0.4383  0.1532 -0.0515
  812MOL0     O 9493   8.427  10.450  11.868  0.1346  0.1526 -0.4363
  812MOL0     C 9494   8.380  10.549  11.972 -0.0835 -0.0636  0.6885
  812MOL0     C 9495   8.446  10.536  12.111  0.1744  0.0622  0.4349
  812MOL0     C 9496   8.416  10.398  12.166  0.0255  0.0333 -0.5787
  812MOL0     C 9497   8.407  10.398  12.324 -0.3290 -0.2859  0.2005
  812MOL0     C 9498   8.538  10.363  12.392 -0.3563  0.7353 -0.2871
  812MOL0     C 9499   8.568  10.210  12.381  0.3505  0.2637 -0.5953
  812MOL0     C 9500   8.685  10.176  12.281 -0.7878 -1.0208 -1.0420
  812MOL0     C 9501   8.827  10.197  12.345 -0.0732 -0.1712  0.3382
  812MOL0     N 9502   8.861  10.097  12.455  0.3544  0.4711  0.5189
  812MOL0     C 9503   8.982  10.036  12.474  0.6822  0.5703 -0.2950
  812MOL0     C 9504   8.973   9.958  12.586 -0.1419 -0.3714 -0.7086
  812MOL0     C 9505   9.079   9.884  12.669  0.1022  0.3188  0.3839
  812MOL0     C 9506   9.094   9.963  12.797  0.0128 -0.1919 -0.0773
  812MOL0     C 9507   9.151  10.106  12.797 -0.3464  0.3002 -0.2125
  812MOL0     C 9508   9.295  10.124  12.742  0.5842  0.5323 -0.3079
  812MOL0     O 9509   9.318  10.062  12.615  0.0185  1.1336 -0.2250
  812MOL0     C 9510   9.298  10.139  12.499  0.3933 -0.2536 -0.0635
  812MOL0     C 9511   9.328  10.091  12.377  0.1171  0.0372 -0.1937
  812MOL0     C 9512   9.287  10.149  12.258 -0.1580  0.0420 -1.0021
  812MOL0     C 9513   9.219  10.267  12.258 -0.3400 -0.6240 -0.2785
  812MOL0     C 9514   9.153  10.317  12.129 -0.3216 -0.2983 -0.1208
  812MOL0     O 9515   9.044  10.411  12.137 -0.5549 -0.6027 -0.1812
  812MOL0     C 9516   8.992  10.458  12.021  0.4830  0.1810  0.7085
  812MOL0     C 9517   8.852  10.450  11.987  0.4146  0.2260  0.2751
  812MOL0     C 9518   8.804  10.499  11.866  0.4910 -0.5602  1.0818
  812MOL0     C 9519   8.889  10.563  11.773  0.2440 -0.9001 -0.7357
  812MOL0     O 9520   8.847  10.629  11.660  0.2380 -0.3568  1.1784
  812MOL0     C 9521   8.738  10.571  11.588  0.9687  0.4394  0.0436
  812MOL0     C 9522   8.738  10.643  11.448  0.6094  0.3478 -0.3191
  812MOL0     C 9523   8.627  10.575  11.370 -0.5079  0.6953  1.0898
  812MOL0     C 9524   8.674  10.434  11.311 -0.3053 -0.0759  0.5138
  812MOL0     C 9525   8.566  10.382  11.216 -0.3178 -0.6102 -0.3393
  812MOL0     C 9526   8.605  10.252  11.149  0.4492  0.4099 -0.4897
  812MOL0     C 9527   8.512  10.188  11.048 -0.0638  0.1464  0.1471
  812MOL0     C 9528   8.520  10.261  10.914 -0.6865 -0.3824 -0.5326
  812MOL0    Cl 9529   8.429  10.161  10.794 -0.1435 -0.2302  0.3332
  812MOL0     C 9530   9.022  10.564  11.802 -0.1193 -1.1920  0.0097
  812MOL0     C 9531   9.071  10.521  11.919  0.4084  0.0043  0.0874
  812MOL0     O 9532   9.183  10.257  12.023  0.2243 -0.0646  0.5909
  812MOL0     C 9533   9.197  10.324  12.378 -0.8887 -0.1065 -0.2123
  812MOL0     C 9534   9.237  10.269  12.498  0.8328  0.3624 -0.3293
  812MOL0     N 9535   8.842   9.976  12.632 -0.3730 -0.1813  1.3665
  812MOL0     N 9536   8.783  10.062  12.562 -0.0312  0.2161  1.0297
  812MOL0     C 9537   8.379  10.341  11.666  0.0104  0.0098 -0.9097
  812MOL0     C 9538   8.323  10.340  11.540 -0.1965  0.0847 -0.8246
  812MOL0     C 9539   8.093  10.386  11.154  0.4256 -0.3118 -0.2006
  812MOL0     C 9540   8.026  10.281  11.085  0.6184  0.1717 -1.0677
  812MOL0     C 9541   7.975  10.302  10.951  0.5745 -0.3775 -0.0754
  812MOL0     C 9542   7.986  10.431  10.891 -0.7098  0.8408 -0.2864
  812MOL0     O 9543   7.938  10.461  10.759  0.2939 -0.1096 -0.1089
  812MOL0     C 9544   7.887  10.357  10.669 -1.2911 -0.8819 -0.4061
  812MOL0     C 9545   7.734  10.327  10.689  0.1272  0.6278  0.1314
  812MOL0     C 9546   7.652  10.435  10.623 -0.0859 -0.1777 -0.2358
  812MOL0     C 9547   7.673  10.582  10.673  0.0042 -0.1151 -0.0065
  812MOL0     C 9548   7.549  10.657  10.653 -0.9837  0.8174  0.0138
  812MOL0     C 9549   7.448  10.724  10.635 -0.4259  1.5197  1.0261
  812MOL0     C 9550   8.066  10.520  10.961  0.1943 -0.6216  0.1842
  812MOL0     C 9551   8.108  10.513  11.091  0.4015  0.2534  0.1112
  812MOL0     C 9552   8.202  10.619  11.139 -0.1192  0.7764  0.3821
  812MOL0     H 9553   8.211  10.656  11.522  2.1062 -0.5543 -3.5864
  812MOL0     H 9554   8.303  10.658  11.750  1.2500 -2.6379  4.4314
  812MOL0     H 9555   8.406  10.647  11.931  0.0310 -1.1530 -2.0051
  812MOL0     H 9556   8.271  10.549  11.985 -0.4034  5.3147  0.3446
  812MOL0     H 9557   8.398  10.608  12.178  0.3617  0.8872 -0.2953
  812MOL0     H 9558   8.554  10.552  12.102  0.2170 -1.0086 -1.7033
  812MOL0     H 9559   8.491  10.326  12.130  1.3577  0.7291  0.7241
  812MOL0     H 9560   8.312  10.376  12.140 -0.0197  1.3658 -1.5856
  812MOL0     H 9561   8.362  10.493  12.352 -3.4430 -0.7511 -2.5622
  812MOL0     H 9562   8.331  10.326  12.357  1.9760 -2.8878  0.2901
  812MOL0     H 9563   8.624  10.416  12.350 -1.3211  1.0791 -1.9505
  812MOL0     H 9564   8.517  10.385  12.497 -1.6876 -3.0926  0.4362
  812MOL0     H 9565   8.588  10.182  12.485  1.6891  0.9494 -0.6500
  812MOL0     H 9566   8.480  10.153  12.351 -1.1608  2.5136 -0.7036
  812MOL0     H 9567   8.679  10.236  12.189 -0.3576  1.4096  0.4148
  812MOL0     H 9568   8.681  10.067  12.273 -1.9465 -1.2570  1.7574
  812MOL0     H 9569   8.907  10.194  12.270  0.0075  0.3591  0.3975
  812MOL0     H 9570   8.836  10.295  12.393  2.0182 -1.5488  3.0388
  812MOL0     H 9571   9.072  10.052  12.416  1.8220  0.7094  1.4491
  812MOL0     H 9572   9.057   9.782  12.701  3.0992 -0.4142  0.4028
  812MOL0     H 9573   9.172   9.873  12.612  0.3718  2.1270  0.4055
  812MOL0     H 9574   8.999   9.966  12.852 -0.1465  1.1273 -0.3953
  812MOL0     H 9575   9.144   9.886  12.857 -2.8448 -1.6725  0.5875
  812MOL0     H 9576   9.162  10.154  12.895  3.7774 -0.6257 -0.0321
  812MOL0     H 9577   9.092  10.180  12.743 -2.8198 -1.7171 -0.4743
  812MOL0     H 9578   9.364  10.075  12.811  0.5387  1.1540  0.1914
  812MOL0     H 9579   9.311  10.233  12.744  2.2728  0.3321  2.3062
  812MOL0     H 9580   9.375   9.996  12.400  0.7380  1.2840  5.1897
  812MOL0     H 9581   9.303  10.083  12.174 -0.4636 -4.4008  2.1243
  812MOL0     H 9582   8.801  10.394  12.065  1.9593  0.4534  1.5170
  812MOL0     H 9583   8.699  10.489  11.841  0.1955  1.0546  1.5492
  812MOL0     H 9584   8.760  10.464  11.589 -6.2627 -1.6036 -0.1736
  812MOL0     H 9585   8.644  10.581  11.644 -0.9914 -2.0929 -2.4878
  812MOL0     H 9586   8.716  10.750  11.457 -0.6956  0.1810 -1.2582
  812MOL0     H 9587   8.836  10.625  11.402  0.5520 -1.4144  0.1978
  812MOL0     H 9588   8.534  10.570  11.428 -1.3590  1.1701 -0.1971
  812MOL0     H 9589   8.602  10.635  11.283 -0.0810  0.2345  0.6477
  812MOL0     H 9590   8.686  10.359  11.389  0.0243 -1.4944 -0.8429
  812MOL0     H 9591   8.773  10.452  11.267 -0.9043 -0.5313 -1.0754
  812MOL0     H 9592   8.539  10.452  11.137 -7.2386  1.0029  2.6824
  812MOL0     H 9593   8.475  10.363  11.274  0.8528  0.2825  1.9143
  812MOL0     H 9594   8.696  10.265  11.090  1.0960  0.2113  0.4464
  812MOL0     H 9595   8.623  10.189  11.236 -2.5042  2.0231  1.4589
  812MOL0     H 9596   8.408  10.183  11.082 -0.0728  5.4438  1.8533
  812MOL0     H 9597   8.546  10.088  11.020  1.5675  0.4650  0.8738
  812MOL0     H 9598   8.459  10.351  10.923 -2.8826 -1.8166 -0.4601
  812MOL0     H 9599   8.625  10.270  10.884 -0.4657 -1.3879 -0.1351
  812MOL0     H 9600   9.097  10.607  11.737  1.0882 -1.6316  1.0817
  812MOL0     H 9601   9.179  10.513  11.928  0.6919  0.5132 -2.1643
  812MOL0     H 9602   9.142  10.417  12.383 -1.2025 -0.2712 -0.5874
  812MOL0     H 9603   9.205  10.317  12.591 -1.0890  0.2523 -0.8962
  812MOL0     H 9604   8.433  10.256  11.706 -2.0945 -1.0622 -0.2172
  812MOL0     H 9605   8.310  10.240  11.499 -1.2027  0.1715 -0.7383
  812MOL0     H 9606   8.025  10.181  11.127  0.0651 -0.2396 -2.0092
  812MOL0     H 9607   7.931  10.212  10.908 -2.4071  1.6118 -1.6242
  812MOL0     H 9608   7.944  10.267  10.693 -0.1471  0.0345  0.4079
  812MOL0     H 9609   7.896  10.386  10.563 -0.5310  2.6247  0.4899
  812MOL0     H 9610   7.693  10.312  10.789 -1.1000 -0.1498 -0.4679
  812MOL0     H 9611   7.713  10.241  10.626 -2.0086  0.8853  0.3983
  812MOL0     H 9612   7.545  10.413  10.632 -1.0662  3.5968 -0.8706
  812MOL0     H 9613   7.679  10.428  10.517  1.9893  0.6394  0.1927
  812MOL0     H 9614   7.698  10.587  10.780  3.2365 -5.3678 -0.1327
  812MOL0     H 9615   7.753  10.628  10.615  0.8027 -0.8914  0.4612
  812MOL0     H 9616   7.356  10.765  10.598 -1.7024 -0.3315  1.9523
  812MOL0     H 9617   8.078  10.616  10.912 -0.6442 -1.6151 -2.0804
  812MOL0     H 9618   8.297  10.564  11.143 -1.4104 -2.5915 -4.8262
  812MOL0     H 9619   8.218  10.696  11.063  1.7983  0.9876  0.9402
  812MOL0     H 9620   8.166  10.664  11.232 -1.0144  0.1623  0.3511
  813MOL0     O 9621   8.138   1.180   2.029  0.8335 -0.7255 -0.2947
  813MOL0     C 9622   8.215   1.101   2.090  1.3017 -0.8453 -0.0211
  813MOL0     O 9623   8.283   0.994   2.029 -0.3184  0.1255  0.1607
  813MOL0     C 9624   8.238   0.937   1.912 -1.0566 -0.3084  0.0636
  813MOL0     C 9625   8.104   0.927   1.877 -0.3736 -0.2026 -0.1360
  813MOL0     C 9626   8.067   0.838   1.781  0.2672 -0.3749  0.5989
  813MOL0     C 9627   8.161   0.753   1.714 -0.1246 -0.2372  0.0844
  813MOL0     O 9628   8.098   0.664   1.623 -0.4405  0.5224 -0.7081
  813MOL0     C 9629   8.175   0.583   1.531  0.0358 -0.4087 -0.1730
  813MOL0     C 9630   8.064   0.495   1.461 -0.6211  0.0945  0.9509
  813MOL0     C 9631   7.954   0.579   1.389 -0.0174 -0.1025  0.5341
  813MOL0     C 9632   7.906   0.516   1.265  0.5111 -0.7506  0.0611
  813MOL0     C 9633   7.806   0.406   1.280  0.9234 -0.9278 -0.0665
  813MOL0     C 9634   7.685   0.439   1.361 -0.3574  1.0455  0.0903
  813MOL0     C 9635   7.577   0.333   1.363 -0.7882  0.6814 -0.8327
  813MOL0     C 9636   7.463   0.373   1.452 -0.2035 -0.2123  0.2626
  813MOL0     N 9637   7.376   0.476   1.381  0.8918  0.2923 -0.2622
  813MOL0     C 9638   7.283   0.443   1.279 -0.1537  0.7246 -1.6536
  813MOL0     C 9639   7.217   0.557   1.243 -0.6505  0.3042 -0.6389
  813MOL0     C 9640   7.124   0.559   1.128  0.4974  0.5182  0.2432
  813MOL0     C 9641   6.981   0.570   1.182  0.1119 -0.5335  0.6179
  813MOL0     C 9642   6.934   0.702   1.254  0.3043 -1.1413 -0.3223
  813MOL0     C 9643   6.957   0.816   1.161  0.2612 -0.5908 -0.8303
  813MOL0     O 9644   6.866   0.926   1.193  0.2594  0.2641 -0.7637
  813MOL0     C 9645   6.870   0.987   1.311 -0.5293 -1.1392  0.2286
  813MOL0     C 9646   6.749   1.051   1.349  0.0466 -0.8818  0.3803
  813MOL0     C 9647   6.742   1.130   1.471 -0.5586 -0.3861  0.0911
  813MOL0     C 9648   6.851   1.145   1.555 -0.1705  0.4807 -0.2185
  813MOL0     C 9649   6.843   1.229   1.676 -0.0778 -0.1852  0.1126
  813MOL0     O 9650   6.717   1.270   1.721 -0.7379  0.4891 -0.2779
  813MOL0     C 9651   6.719   1.336   1.842  0.6337 -0.6162  0.4234
  813MOL0     C 9652   6.610   1.427   1.841 -0.2887 -0.8386 -0.5905
  813MOL0     C 9653   6.588   1.509   1.948 -0.3634  0.4059 -0.0882
  813MOL0     C 9654   6.656   1.499   2.069  0.1537 -0.3627 -0.0364
  813MOL0     O 9655   6.617   1.560   2.188 -0.4235  0.0862 -0.0357
  813MOL0     C 9656   6.493   1.629   2.204  0.6113  0.2444 -0.2879
  813MOL0     C 9657   6.488   1.725   2.325 -0.6872  0.3875 -0.5081
  813MOL0     C 9658   6.596   1.836   2.311  0.4032 -0.6167  0.5561
  813MOL0     C 9659   6.569   1.953   2.410 -0.2429  0.4139  0.5208
  813MOL0     C 9660   6.652   1.945   2.542  0.5558  0.3960  0.4314
  813MOL0     C 9661   6.604   1.827   2.642  0.6487 -0.1172 -0.1827
  813MOL0     C 9662   6.651   1.854   2.788 -0.8369  0.4353 -0.8076
  813MOL0     C 9663   6.800   1.852   2.807 -0.7198 -0.3893  0.0276
  813MOL0    Cl 9664   6.824   1.863   3.005  0.1877  0.1379  0.1483
  813MOL0     C 9665   6.761   1.417   2.078  0.3020  0.6982  1.0901
  813MOL0     C 9666   6.796   1.341   1.962 -0.5102  0.1606  0.0188
  813MOL0     O 9667   6.948   1.243   1.735  0.6416 -0.1629 -0.1192
  813MOL0     C 9668   6.971   1.090   1.511  0.8101 -0.8078 -0.5754
  813MOL0     C 9669   6.982   1.005   1.398 -0.2087  0.3434 -0.2809
  813MOL0     N 9670   7.273   0.655   1.328  0.3195 -1.0490  0.5501
  813MOL0     N 9671   7.361   0.609   1.406 -0.0735  0.0456  0.6031
  813MOL0     C 9672   8.299   0.775   1.734 -0.3658 -0.0390  0.2899
  813MOL0     C 9673   8.327   0.864   1.839  0.2109  0.1673  0.7684
  813MOL0     C 9674   8.239   1.131   2.236 -0.8174 -0.4790  0.0765
  813MOL0     C 9675   8.343   1.063   2.302 -1.2786 -0.2669 -0.4387
  813MOL0     C 9676   8.373   1.093   2.435 -0.7351  0.4841  0.2422
  813MOL0     C 9677   8.292   1.165   2.518  1.3887  0.6660  1.4492
  813MOL0     O 9678   8.316   1.183   2.647 -0.3159  1.0536  0.5219
  813MOL0     C 9679   8.449   1.194   2.693 -0.1842 -0.2420  0.6394
  813MOL0     C 9680   8.496   1.060   2.761 -0.2266  0.8447 -0.6016
  813MOL0     C 9681   8.632   1.099   2.836 -0.1138  0.4774  0.4993
  813MOL0     C 9682   8.727   0.980   2.867 -0.2494 -0.1096 -0.5129
  813MOL0     C 9683   8.662   0.863   2.924 -0.2606  0.7645  0.4342
  813MOL0     C 9684   8.593   0.776   2.971 -0.3338  0.4651 -0.1126
  813MOL0     C 9685   8.181   1.227   2.456  0.9517 -0.5852  0.6566
  813MOL0     C 9686   8.152   1.208   2.320 -0.3919 -0.1853  0.8559
  813MOL0     C 9687   8.037   1.294   2.267 -1.1013  0.4772 -0.5075
  813MOL0     H 9688   8.028   0.994   1.916  0.4562  0.0024  1.2034
  813MOL0     H 9689   7.961   0.818   1.768  0.6988 -1.7930 -1.1447
  813MOL0     H 9690   8.222   0.650   1.458 -0.4223  0.1568  0.0436
  813MOL0     H 9691   8.250   0.533   1.592  1.3687  1.1564 -0.4835
  813MOL0     H 9692   8.015   0.430   1.534 -0.2747 -2.8045 -1.1994
  813MOL0     H 9693   8.116   0.426   1.394 -0.1793  0.6533  0.7177
  813MOL0     H 9694   7.993   0.680   1.375 -3.0808  1.5579  2.7772
  813MOL0     H 9695   7.878   0.606   1.462 -3.0040 -4.1609 -0.7152
  813MOL0     H 9696   7.855   0.599   1.214  2.8357  1.0579  0.5418
  813MOL0     H 9697   7.990   0.484   1.204  1.9615 -1.6328  2.4250
  813MOL0     H 9698   7.781   0.367   1.181 -0.4374  1.6124 -0.8131
  813MOL0     H 9699   7.852   0.328   1.341  0.7097  1.2696  3.1766
  813MOL0     H 9700   7.704   0.469   1.465 -0.0847  1.2392 -0.0139
  813MOL0     H 9701   7.639   0.531   1.323  2.2503  2.0846 -0.7583
  813MOL0     H 9702   7.621   0.248   1.415 -0.6034  0.8382 -0.7345
  813MOL0     H 9703   7.551   0.296   1.263 -1.0902  1.2378 -0.9643
  813MOL0     H 9704   7.397   0.286   1.464 -4.1837  2.2053 -1.8225
  813MOL0     H 9705   7.496   0.419   1.546  1.9827 -0.1891 -0.4639
  813MOL0     H 9706   7.264   0.346   1.235 -0.2268 -0.2474  0.4431
  813MOL0     H 9707   7.161   0.633   1.056 -0.9816 -0.1287 -1.2385
  813MOL0     H 9708   7.130   0.460   1.082  3.1119 -1.0828  3.5002
  813MOL0     H 9709   6.933   0.570   1.084 -0.0214 -1.3974  0.6797
  813MOL0     H 9710   6.953   0.482   1.241  2.2107 -1.2103  0.6722
  813MOL0     H 9711   6.978   0.716   1.354  0.8366 -1.3125 -0.5276
  813MOL0     H 9712   6.828   0.679   1.263  0.4529 -1.4609  0.8566
  813MOL0     H 9713   6.924   0.779   1.064  2.3315 -1.5395 -1.2248
  813MOL0     H 9714   7.062   0.848   1.162  0.3981 -1.0533  0.0138
  813MOL0     H 9715   6.668   1.044   1.278  0.8138 -0.2400 -0.5975
  813MOL0     H 9716   6.651   1.182   1.496 -0.0911 -0.4387  2.0283
  813MOL0     H 9717   6.546   1.445   1.755 -2.4676 -1.4474  0.8171
  813MOL0     H 9718   6.504   1.577   1.941  0.5411  1.4867 -0.7643
  813MOL0     H 9719   6.461   1.697   2.125 -1.1448 -2.7975 -2.3875
  813MOL0     H 9720   6.408   1.562   2.218 -0.8229  1.5098 -2.4715
  813MOL0     H 9721   6.390   1.774   2.325  0.1115  2.1395 -2.9623
  813MOL0     H 9722   6.502   1.675   2.421  0.1152  0.7650 -0.4210
  813MOL0     H 9723   6.703   1.813   2.314  0.5091 -0.4590 -0.9466
  813MOL0     H 9724   6.588   1.863   2.205  4.2735 -4.0945 -0.8915
  813MOL0     H 9725   6.462   1.966   2.432 -0.0201  0.2077  1.8260
  813MOL0     H 9726   6.601   2.042   2.356 -3.7874  1.8148  0.4136
  813MOL0     H 9727   6.632   2.037   2.599 -1.7557 -0.8973  1.8590
  813MOL0     H 9728   6.760   1.934   2.527  0.9415  0.5497  2.7618
  813MOL0     H 9729   6.495   1.829   2.651  0.6117  1.5651 -0.7530
  813MOL0     H 9730   6.648   1.731   2.612  1.8233  0.1286  0.6853
  813MOL0     H 9731   6.608   1.788   2.864 -3.9008  0.9314 -1.9499
  813MOL0     H 9732   6.599   1.943   2.824 -4.2009 -3.1358  4.4631
  813MOL0     H 9733   6.855   1.772   2.758  1.1382  1.1849 -0.5970
  813MOL0     H 9734   6.827   1.946   2.757 -2.4151 -0.3211 -0.8156
  813MOL0     H 9735   6.824   1.419   2.166  2.2728  1.1950 -0.2746
  813MOL0     H 9736   6.876   1.271   1.983 -1.6731 -0.7888  1.4067
  813MOL0     H 9737   7.062   1.104   1.569  0.7407 -2.0136 -0.1366
  813MOL0     H 9738   7.073   0.958   1.362  0.7565  2.3435 -0.6031
  813MOL0     H 9739   8.366   0.710   1.679 -1.3336 -0.8554  0.0429
  813MOL0     H 9740   8.434   0.869   1.860  0.2024  0.8260  0.6750
  813MOL0     H 9741   8.424   1.018   2.246  0.2858  0.1666  1.3574
  813MOL0     H 9742   8.452   1.034   2.480  0.7484  2.3917  0.2482
  813MOL0     H 9743   8.450   1.271   2.770  2.0158  2.9900 -2.3410
  813MOL0     H 9744   8.516   1.228   2.613 -0.2814  2.4928  1.6378
  813MOL0     H 9745   8.525   0.970   2.706  1.1416 -0.1987  1.6701
  813MOL0     H 9746   8.416   1.031   2.831 -0.6321  4.0976  0.4465
  813MOL0     H 9747   8.597   1.140   2.932 -1.6554 -2.5010  1.3629
  813MOL0     H 9748   8.683   1.167   2.767 -0.2030 -1.4142 -1.5428
  813MOL0     H 9749   8.777   0.940   2.778  4.2647  1.7179  0.8837
  813MOL0     H 9750   8.808   1.016   2.932 -0.1722 -1.0507 -0.0690
  813MOL0     H 9751   8.520   0.708   3.011 -0.7419  1.1133  0.2539
  813MOL0     H 9752   8.107   1.265   2.526 -0.9998  0.0655 -1.6533
  813MOL0     H 9753   7.977   1.242   2.192  0.9534  0.6005 -2.3557
  813MOL0     H 9754   7.974   1.330   2.349 -2.3823  0.0321 -1.2531
  813MOL0     H 9755   8.079   1.383   2.219  1.5206  0.3602  1.3628
  814MOL0     O 9756  10.919  11.394   1.207  0.0329 -0.5567  0.7121
  814MOL0     C 9757  10.960  11.506   1.243  0.5742  0.2838 -0.9600
  814MOL0     O 9758  11.053  11.535   1.343  0.2268  0.2471  0.2938
  814MOL0     C 9759  11.054  11.447   1.449  0.5480  0.0048  0.0976
  814MOL0     C 9760  11.020  11.499   1.575  0.3543  0.2108  0.0451
  814MOL0     C 9761  11.039  11.414   1.691 -0.7429  0.4027  0.4670
  814MOL0     C 9762  11.089  11.282   1.674  0.5809  0.2063  0.7356
  814MOL0     O 9763  11.127  11.208   1.778 -0.3883  0.4583 -0.0888
  814MOL0     C 9764  11.024  11.115   1.828 -0.4263 -0.2644  0.6530
  814MOL0     C 9765  10.964  11.166   1.955  0.2984  0.0485 -0.8138
  814MOL0     C 9766  11.050  11.122   2.077  0.1552 -0.4295 -0.9663
  814MOL0     C 9767  10.995  11.172   2.203  0.5183  0.0361  0.4268
  814MOL0     C 9768  10.989  11.320   2.229 -0.2606 -0.3642  0.4664
  814MOL0     C 9769  10.931  11.346   2.372 -0.1188  1.1848  0.4500
  814MOL0     C 9770  10.785  11.385   2.361  0.4559  0.0338  1.0743
  814MOL0     C 9771  10.731  11.390   2.503 -0.1473 -0.3736 -1.3706
  814MOL0     N 9772  10.658  11.517   2.524 -0.1393 -0.0260  0.8377
  814MOL0     C 9773  10.697  11.652   2.553 -0.6186  0.6040  0.1561
  814MOL0     C 9774  10.579  11.719   2.566 -0.2823  0.0259 -0.4344
  814MOL0     C 9775  10.565  11.854   2.617  0.1299  0.1824 -0.1214
  814MOL0     C 9776  10.561  11.853   2.769  0.1542 -0.0260 -0.0754
  814MOL0     C 9777  10.428  11.791   2.817  0.3813 -0.1891  0.1574
  814MOL0     C 9778  10.426  11.770   2.970 -0.6208 -0.9432 -0.2620
  814MOL0     O 9779  10.285  11.761   3.006  0.1406 -0.4306  0.3393
  814MOL0     C 9780  10.239  11.751   3.133 -0.5063 -0.3959 -0.9167
  814MOL0     C 9781  10.105  11.753   3.166  0.3743 -0.6629 -0.2044
  814MOL0     C 9782  10.068  11.726   3.298  0.6839 -0.3057  0.4385
  814MOL0     C 9783  10.153  11.700   3.407 -0.4364 -0.3421  0.3869
  814MOL0     C 9784  10.101  11.670   3.542  0.5602  0.0167 -0.6088
  814MOL0     O 9785  10.182  11.582   3.601  0.6636 -1.2375 -0.1186
  814MOL0     C 9786  10.163  11.557   3.739 -0.8941  0.2426  0.2873
  814MOL0     C 9787  10.058  11.484   3.791  0.2750  0.4922 -1.1092
  814MOL0     C 9788  10.039  11.471   3.925 -0.3601  0.0057  0.0043
  814MOL0     C 9789  10.122  11.542   4.007 -0.1145 -0.2830  0.1649
  814MOL0     O 9790  10.112  11.552   4.142 -0.1988 -0.8716 -0.5077
  814MOL0     C 9791   9.994  11.501   4.203 -0.3716 -0.2865  0.7636
  814MOL0     C 9792   9.867  11.596   4.182  0.4196  0.3297  0.4237
  814MOL0     C 9793   9.753  11.528   4.265  0.2352  0.1037  0.3565
  814MOL0     C 9794   9.626  11.605   4.237 -0.5063 -1.0968 -0.0953
  814MOL0     C 9795   9.545  11.623   4.362  0.1596  0.1537 -0.2997
  814MOL0     C 9796   9.387  11.626   4.329 -0.5654 -0.3278  0.0263
  814MOL0     C 9797   9.338  11.479   4.325  0.8804 -0.1539  0.3632
  814MOL0     C 9798   9.192  11.460   4.318  0.0420  0.2642  0.5407
  814MOL0    Cl 9799   9.111  11.449   4.483  0.2472 -0.5709  0.5850
  814MOL0     C 9800  10.231  11.620   3.954 -0.1984  0.1700 -1.3543
  814MOL0     C 9801  10.260  11.616   3.822 -0.0983 -0.2984 -0.0587
  814MOL0     O 9802  10.000  11.717   3.596 -0.1289  0.1058  0.2136
  814MOL0     C 9803  10.291  11.719   3.377  0.0584 -0.2153  1.1034
  814MOL0     C 9804  10.331  11.746   3.240  0.2936  0.5478  0.8228
  814MOL0     N 9805  10.476  11.634   2.545  0.4081 -0.3693  0.6342
  814MOL0     N 9806  10.519  11.515   2.516 -0.9209 -0.0507 -0.6324
  814MOL0     C 9807  11.128  11.238   1.550 -0.1065  0.8764  0.7530
  814MOL0     C 9808  11.107  11.319   1.432  0.1459  0.1463 -0.4329
  814MOL0     C 9809  10.913  11.619   1.182  0.6663 -0.1770 -0.3771
  814MOL0     C 9810  10.997  11.716   1.127  0.0257  1.6869 -0.0305
  814MOL0     C 9811  10.951  11.843   1.086 -0.5746  0.3415 -0.0021
  814MOL0     C 9812  10.825  11.877   1.115 -0.0110 -0.6434 -0.3575
  814MOL0     O 9813  10.789  11.999   1.061 -0.2665 -0.1205  0.3346
  814MOL0     C 9814  10.679  11.985   0.972  0.8627 -0.3547  0.8282
  814MOL0     C 9815  10.715  11.914   0.839  0.2537  0.2536 -0.5923
  814MOL0     C 9816  10.599  11.930   0.736  0.6858  0.0918 -0.3359
  814MOL0     C 9817  10.637  11.871   0.598  0.2414  0.0300  0.2876
  814MOL0     C 9818  10.758  11.915   0.532 -0.7519  0.5678  0.3505
  814MOL0     C 9819  10.858  11.969   0.492  0.0188  0.0037  0.0521
  814MOL0     C 9820  10.733  11.778   1.171 -0.2081 -0.2757  0.5298
  814MOL0     C 9821  10.777  11.646   1.193  0.3739 -0.3847  0.4379
  814MOL0     C 9822  10.671  11.543   1.250  0.9079  0.5886 -0.9439
  814MOL0     H 9823  10.975  11.597   1.583  0.5258  0.2415  0.7374
  814MOL0     H 9824  11.013  11.444   1.792 -0.0439  1.4351  0.3518
  814MOL0     H 9825  10.938  11.108   1.760  0.2139  1.8294 -0.4593
  814MOL0     H 9826  11.065  11.014   1.840  0.1352 -0.4971 -2.4388
  814MOL0     H 9827  10.864  11.125   1.971 -0.4846  2.0941 -0.1536
  814MOL0     H 9828  10.954  11.275   1.957 -0.9132 -0.0555  0.6056
  814MOL0     H 9829  11.154  11.150   2.060  0.1351 -0.6797 -1.5175
  814MOL0     H 9830  11.059  11.015   2.097  0.1496  0.1686  2.9460
  814MOL0     H 9831  10.890  11.143   2.205  0.3297  0.6604 -0.3229
  814MOL0     H 9832  11.054  11.130   2.286  2.6380 -1.4787 -1.7191
  814MOL0     H 9833  11.090  11.361   2.222 -0.4218 -0.1911 -1.3809
  814MOL0     H 9834  10.922  11.376   2.163 -1.3506 -0.6366  1.3183
  814MOL0     H 9835  10.928  11.255   2.433  0.5124  2.0175  1.7786
  814MOL0     H 9836  10.995  11.419   2.422  0.0269  1.1261  0.3501
  814MOL0     H 9837  10.726  11.309   2.309  1.6653  0.6105 -1.2922
  814MOL0     H 9838  10.774  11.481   2.309  0.6017 -0.6749 -0.3008
  814MOL0     H 9839  10.686  11.299   2.544  2.5356 -0.6818  1.1909
  814MOL0     H 9840  10.816  11.391   2.572 -0.1153 -1.8868 -1.3534
  814MOL0     H 9841  10.797  11.684   2.582 -0.3932 -0.3569  0.4756
  814MOL0     H 9842  10.643  11.924   2.588 -2.3491  3.5275  0.6001
  814MOL0     H 9843  10.475  11.899   2.573 -0.5847 -0.3143  0.7847
  814MOL0     H 9844  10.644  11.800   2.816  0.6320  1.9556  1.4367
  814MOL0     H 9845  10.573  11.957   2.800  1.4897  0.2285 -1.3310
  814MOL0     H 9846  10.385  11.708   2.759  0.8398 -0.5770  0.3699
  814MOL0     H 9847  10.359  11.872   2.791  0.8979  0.5993  1.1736
  814MOL0     H 9848  10.470  11.857   3.021 -0.0211 -2.2792  1.6248
  814MOL0     H 9849  10.488  11.682   2.990  3.0996  1.3711 -0.6704
  814MOL0     H 9850  10.027  11.765   3.092 -2.2263 -1.1039  2.2778
  814MOL0     H 9851   9.963  11.711   3.322  0.3589 -4.7129 -2.6051
  814MOL0     H 9852   9.990  11.432   3.725  0.0068 -1.5426  0.7066
  814MOL0     H 9853   9.962  11.396   3.941 -0.0685 -0.9868 -2.6848
  814MOL0     H 9854   9.977  11.398   4.172 -1.0862 -0.0009  0.1734
  814MOL0     H 9855  10.008  11.495   4.311  0.4392 -0.8852  0.6352
  814MOL0     H 9856   9.885  11.699   4.214 -0.0736  1.3915 -2.3778
  814MOL0     H 9857   9.837  11.602   4.077 -0.9891  0.9847  0.8403
  814MOL0     H 9858   9.747  11.424   4.233 -1.5367 -0.6621  2.9015
  814MOL0     H 9859   9.773  11.520   4.372  1.4965 -0.2401  0.1185
  814MOL0     H 9860   9.572  11.549   4.160  1.2834  0.1020 -2.3071
  814MOL0     H 9861   9.653  11.706   4.207 -0.2681 -1.6489 -1.8227
  814MOL0     H 9862   9.574  11.710   4.422  0.2549 -0.2443  0.2397
  814MOL0     H 9863   9.567  11.536   4.425  1.1345 -0.9602 -2.1016
  814MOL0     H 9864   9.331  11.682   4.406 -0.2145 -1.9150  1.5036
  814MOL0     H 9865   9.378  11.667   4.228 -0.2587  1.7410  0.8015
  814MOL0     H 9866   9.373  11.431   4.416 -0.3792  1.3686  1.6982
  814MOL0     H 9867   9.389  11.432   4.240 -0.0001  1.8328 -1.3717
  814MOL0     H 9868   9.149  11.542   4.260  0.8860  0.3283 -0.0119
  814MOL0     H 9869   9.176  11.367   4.264  0.4580  0.4146  0.1512
  814MOL0     H 9870  10.293  11.673   4.027 -2.3948 -0.3038  0.9825
  814MOL0     H 9871  10.354  11.661   3.793  1.7304 -2.8643  1.4606
  814MOL0     H 9872  10.368  11.720   3.454  1.9536  0.5378 -0.6878
  814MOL0     H 9873  10.439  11.751   3.226  0.1611 -0.5246 -0.8707
  814MOL0     H 9874  11.166  11.137   1.539 -0.7438  0.8922 -2.5047
  814MOL0     H 9875  11.141  11.269   1.342 -1.0297 -1.1393 -0.2032
  814MOL0     H 9876  11.102  11.716   1.099  0.0589  0.5932  0.0390
  814MOL0     H 9877  11.019  11.907   1.030  0.2450 -0.3103  0.2143
  814MOL0     H 9878  10.658  12.088   0.944  1.3440 -1.2847 -3.6468
  814MOL0     H 9879  10.590  11.936   1.012  1.2064 -0.9438  0.8931
  814MOL0     H 9880  10.740  11.808   0.849 -2.9901 -0.3961  2.9627
  814MOL0     H 9881  10.797  11.973   0.797  2.0549 -2.0877 -0.5634
  814MOL0     H 9882  10.567  12.034   0.733 -0.1479 -0.1566 -3.1614
  814MOL0     H 9883  10.507  11.887   0.778  0.6028 -0.6875 -1.2768
  814MOL0     H 9884  10.646  11.763   0.613  2.0729  0.1094 -0.0377
  814MOL0     H 9885  10.552  11.902   0.537  0.1838 -1.8656 -0.6580
  814MOL0     H 9886  10.944  12.025   0.463 -0.1640 -0.3029 -1.1422
  814MOL0     H 9887  10.628  11.804   1.179 -0.1540  0.4001 -0.7922
  814MOL0     H 9888  10.714  11.473   1.321  3.3397 -0.2874 -3.1196
  814MOL0     H 9889  10.584  11.581   1.304 -0.3296 -3.8961  0.5843
  814MOL0     H 9890  10.624  11.496   1.163 -1.9405 -0.3203  0.9611
  815MOL0     O 9891   8.807   7.635   5.569 -0.1389  0.1289  0.3452
  815MOL0     C 9892   8.852   7.754   5.566  0.2281  0.0276 -0.9740
  815MOL0     O 9893   8.923   7.821   5.655  0.0213 -0.0616 -0.6815
  815MOL0     C 9894   8.928   7.775   5.783  0.2293  0.2551 -0.2023
  815MOL0     C 9895   8.814   7.720   5.850  0.0103  0.4561 -0.0417
  815MOL0     C 9896   8.830   7.674   5.979  0.3825  0.6931  0.5014
  815MOL0     C 9897   8.953   7.664   6.035 -0.7162 -1.2932  0.8768
  815MOL0     O 9898   8.970   7.597   6.152  0.1543  0.1085 -0.2489
  815MOL0     C 9899   8.990   7.662   6.282 -0.7197  0.2742 -1.2752
  815MOL0     C 9900   9.026   7.539   6.373  0.9503 -1.1257  0.5135
  815MOL0     C 9901   9.149   7.463   6.322  0.3725  0.6504 -0.2562
  815MOL0     C 9902   9.184   7.346   6.407  0.9118  0.4257 -0.3523
  815MOL0     C 9903   9.308   7.269   6.366 -0.5677 -0.7802  0.7576
  815MOL0     C 9904   9.291   7.210   6.231 -1.1088  0.2579  0.1286
  815MOL0     C 9905   9.410   7.111   6.210  0.0814  0.1470  0.1692
  815MOL0     C 9906   9.531   7.170   6.140 -0.9299 -1.4705  0.4591
  815MOL0     N 9907   9.634   7.068   6.100  0.4422 -0.3693  0.6058
  815MOL0     C 9908   9.634   6.985   5.986  0.3857 -0.4355 -1.6246
  815MOL0     C 9909   9.697   6.875   6.027  0.0944 -0.2860 -0.2562
  815MOL0     C 9910   9.732   6.751   5.940  0.1974 -0.1869 -0.0056
  815MOL0     C 9911   9.601   6.667   5.918  0.0443 -0.7332  0.2236
  815MOL0     C 9912   9.641   6.537   5.847  0.1809 -0.3063 -0.3514
  815MOL0     C 9913   9.607   6.420   5.942 -0.1392  1.2990  0.2560
  815MOL0     O 9914   9.653   6.287   5.890  0.2915  0.1671 -1.0345
  815MOL0     C 9915   9.597   6.246   5.770 -0.7087  0.3513  0.2631
  815MOL0     C 9916   9.678   6.234   5.664  0.5727 -0.0344  0.5433
  815MOL0     C 9917   9.629   6.184   5.542  0.7352  0.3129 -0.5658
  815MOL0     C 9918   9.490   6.147   5.523 -0.0588 -0.2055 -0.1293
  815MOL0     C 9919   9.433   6.118   5.388 -0.0695 -0.6382  0.2874
  815MOL0     O 9920   9.506   6.153   5.284 -0.7067 -0.2505  0.0230
  815MOL0     C 9921   9.473   6.078   5.167 -0.6173 -0.4494  0.3782
  815MOL0     C 9922   9.421   6.150   5.065  0.1517  0.6467  0.2045
  815MOL0     C 9923   9.388   6.087   4.940 -0.0138  0.2347  0.1069
  815MOL0     C 9924   9.417   5.947   4.924 -0.8778 -0.2299 -0.2109
  815MOL0     O 9925   9.403   5.882   4.800  0.4315 -0.8322  0.5260
  815MOL0     C 9926   9.434   5.745   4.780 -0.2615  0.7838  0.2976
  815MOL0     C 9927   9.414   5.690   4.642  0.3866  0.4831  0.2136
  815MOL0     C 9928   9.265   5.687   4.610  0.0580 -0.4463  0.5074
  815MOL0     C 9929   9.189   5.566   4.653 -0.3045 -0.2958  1.2963
  815MOL0     C 9930   9.056   5.539   4.577 -0.8411  0.5762  0.8691
  815MOL0     C 9931   8.975   5.431   4.629  0.5563  0.4089 -0.1826
  815MOL0     C 9932   8.840   5.424   4.547 -1.3136 -0.2372 -0.8692
  815MOL0     C 9933   8.754   5.317   4.600  0.5041  0.1692 -0.3811
  815MOL0    Cl 9934   8.681   5.360   4.763  0.0761 -0.1552 -0.6046
  815MOL0     C 9935   9.484   5.880   5.027 -0.2020 -0.7860  0.0014
  815MOL0     C 9936   9.518   5.947   5.147 -0.4149 -1.6121 -0.8317
  815MOL0     O 9937   9.332   6.054   5.381  0.2777  0.5912 -0.7766
  815MOL0     C 9938   9.411   6.157   5.637 -0.4066  0.0770  0.6405
  815MOL0     C 9939   9.469   6.209   5.759 -0.0558  0.1156  0.3863
  815MOL0     N 9940   9.744   6.892   6.160  0.3202  0.0554  0.6719
  815MOL0     N 9941   9.697   7.003   6.204 -0.4371 -0.0169  0.2364
  815MOL0     C 9942   9.055   7.729   5.974 -1.0608  0.3175 -0.5455
  815MOL0     C 9943   9.039   7.787   5.847 -0.3684 -0.0912 -0.1412
  815MOL0     C 9944   8.840   7.814   5.431  0.2951  0.2468 -0.2866
  815MOL0     C 9945   8.808   7.728   5.321  0.3028  1.3104 -0.7662
  815MOL0     C 9946   8.769   7.780   5.202  0.5605 -0.6449  0.4228
  815MOL0     C 9947   8.769   7.917   5.180 -0.8952  0.4208 -0.2921
  815MOL0     O 9948   8.753   7.988   5.063 -1.2970  0.4686 -0.0192
  815MOL0     C 9949   8.666   7.918   4.965  0.0431  0.5998 -0.4842
  815MOL0     C 9950   8.517   7.899   5.008  0.5217 -0.0845 -0.0733
  815MOL0     C 9951   8.443   8.031   5.031 -0.0190 -0.0587  0.0222
  815MOL0     C 9952   8.319   8.010   5.118  0.7485  0.2694 -0.3251
  815MOL0     C 9953   8.223   8.120   5.095  0.9824 -0.2910 -0.4331
  815MOL0     C 9954   8.133   8.205   5.072 -0.3968  0.4391 -0.3927
  815MOL0     C 9955   8.811   8.001   5.283 -0.5470 -0.1540  0.1640
  815MOL0     C 9956   8.843   7.955   5.411  0.4645 -0.3045  0.2870
  815MOL0     C 9957   8.866   8.051   5.518  0.2146  0.7880 -0.0455
  815MOL0     H 9958   8.719   7.705   5.800 -0.2835 -0.2324  0.6962
  815MOL0     H 9959   8.736   7.639   6.020 -1.7082 -2.7256 -5.8589
  815MOL0     H 9960   9.074   7.732   6.283  0.0461 -0.6241 -1.3900
  815MOL0     H 9961   8.903   7.720   6.312  1.7662  3.5683  0.1697
  815MOL0     H 9962   8.950   7.461   6.368  0.8472 -0.9437 -1.1109
  815MOL0     H 9963   9.038   7.569   6.477  0.3530  3.9689 -0.6290
  815MOL0     H 9964   9.237   7.526   6.304 -1.2486  2.7113 -1.5614
  815MOL0     H 9965   9.130   7.423   6.222 -1.3260  0.3316  0.1647
  815MOL0     H 9966   9.192   7.377   6.512  2.3976 -4.9019  1.4447
  815MOL0     H 9967   9.108   7.269   6.393 -0.4744  2.0534 -2.2611
  815MOL0     H 9968   9.398   7.331   6.370  0.3242 -1.1869 -4.7895
  815MOL0     H 9969   9.332   7.188   6.435 -0.8368 -2.2400 -0.7965
  815MOL0     H 9970   9.198   7.159   6.207  0.3409 -0.5765 -4.8946
  815MOL0     H 9971   9.292   7.297   6.164 -0.7982 -1.0406 -1.6260
  815MOL0     H 9972   9.369   7.030   6.149  1.1683  1.4944 -2.5180
  815MOL0     H 9973   9.446   7.066   6.303  0.7638  0.1717 -0.0740
  815MOL0     H 9974   9.492   7.221   6.051  2.4015 -0.4056 -0.5563
  815MOL0     H 9975   9.565   7.249   6.208 -0.3122  2.1798 -3.6764
  815MOL0     H 9976   9.597   7.015   5.889  1.4777  4.1397 -0.8784
  815MOL0     H 9977   9.790   6.780   5.851  0.2292 -1.0159 -0.2663
  815MOL0     H 9978   9.805   6.689   5.994 -0.0433  0.0700  0.6176
  815MOL0     H 9979   9.537   6.644   6.003  1.7961 -1.4375  1.4037
  815MOL0     H 9980   9.541   6.736   5.858  1.2276  0.7219  0.6527
  815MOL0     H 9981   9.744   6.541   5.813  0.5396  2.0815  0.8035
  815MOL0     H 9982   9.575   6.522   5.761  0.0348 -0.5824 -0.1939
  815MOL0     H 9983   9.500   6.426   5.963 -0.2978  4.0808 -0.8818
  815MOL0     H 9984   9.669   6.431   6.031  1.9996 -0.1659 -0.9582
  815MOL0     H 9985   9.775   6.282   5.664  0.3174  0.8379 -3.4190
  815MOL0     H 9986   9.694   6.194   5.455 -0.0887 -0.9865 -1.3719
  815MOL0     H 9987   9.401   6.252   5.097  3.1650  0.6227  2.5962
  815MOL0     H 9988   9.353   6.146   4.856  3.1997  0.0361 -1.5210
  815MOL0     H 9989   9.541   5.738   4.804 -0.4162 -2.6632  0.4787
  815MOL0     H 9990   9.390   5.676   4.852 -2.1371 -0.6461 -2.0677
  815MOL0     H 9991   9.483   5.745   4.578  3.7442  0.2360  3.3188
  815MOL0     H 9992   9.439   5.584   4.632 -1.8167 -0.4261  2.7602
  815MOL0     H 9993   9.221   5.777   4.655  0.3027  1.3676 -2.6325
  815MOL0     H 9994   9.249   5.692   4.502  0.1195 -2.2319  0.3854
  815MOL0     H 9995   9.164   5.577   4.759 -4.2857  2.2109  0.3034
  815MOL0     H 9996   9.238   5.470   4.636 -2.7145 -0.8823 -4.7558
  815MOL0     H 9997   9.079   5.539   4.470  2.6444  3.7783  1.4146
  815MOL0     H 9998   8.990   5.626   4.584  0.4164  1.5453  1.0167
  815MOL0     H 9999   9.030   5.337   4.623  0.9104  0.5543  0.6330
  815MOL0     H10000   8.952   5.460   4.732 -3.1998 -2.2631 -0.0425
  815MOL0     H10001   8.868   5.395   4.445  2.4663  1.2468 -0.4237
  815MOL0     H10002   8.795   5.523   4.554  1.7598  1.3426 -1.4243
  815MOL0     H10003   8.674   5.306   4.526  0.9146 -2.5231 -0.5278
  815MOL0     H10004   8.806   5.221   4.590  1.6658  0.6835  0.4765
  815MOL0     H10005   9.526   5.780   5.013  1.0327 -0.1307 -1.1101
  815MOL0     H10006   9.575   5.889   5.219 -1.6989 -3.1068 -0.9683
  815MOL0     H10007   9.306   6.131   5.637  0.3586 -3.5831 -0.0408
  815MOL0     H10008   9.403   6.236   5.841  0.8848  1.2373  0.7903
  815MOL0     H10009   9.147   7.731   6.030 -1.9784  0.4148  1.0097
  815MOL0     H10010   9.115   7.843   5.794 -1.5531  0.3959 -1.3674
  815MOL0     H10011   8.794   7.620   5.328  1.3228  1.1594 -0.8427
  815MOL0     H10012   8.739   7.710   5.125 -0.9486 -2.0129  2.1659
  815MOL0     H10013   8.716   7.824   4.940  1.1214  1.5180 -1.9270
  815MOL0     H10014   8.654   7.978   4.874 -2.9748 -1.1915 -1.3822
  815MOL0     H10015   8.494   7.827   5.087  2.0832 -1.5544 -0.8920
  815MOL0     H10016   8.475   7.853   4.919  3.2588 -1.5355 -0.7165
  815MOL0     H10017   8.416   8.084   4.939 -2.9316  0.5274  1.1215
  815MOL0     H10018   8.508   8.107   5.077 -1.5708  1.4514 -0.1729
  815MOL0     H10019   8.265   7.920   5.085  1.1029 -0.0912  0.0649
  815MOL0     H10020   8.340   8.026   5.224  0.2438  1.7185 -0.4282
  815MOL0     H10021   8.047   8.268   5.066 -0.8248  0.3168  2.8655
  815MOL0     H10022   8.811   8.110   5.276 -0.7433 -0.2278 -1.5265
  815MOL0     H10023   8.972   8.050   5.545  0.1155  2.6789  0.5600
  815MOL0     H10024   8.851   8.155   5.488  1.7701  0.7583 -1.0065
  815MOL0     H10025   8.802   8.024   5.603 -1.8712  5.0199 -0.0098
  816MOL0     O10026  10.526  11.097   9.651  0.0666  0.1081  0.5896
  816MOL0     C10027  10.503  11.111   9.525 -0.7178  0.3922 -1.0739
  816MOL0     O10028  10.608  11.115   9.431  0.2586 -0.5529  0.2669
  816MOL0     C10029  10.727  11.056   9.448  0.9852  0.9516 -0.5281
  816MOL0     C10030  10.755  10.954   9.540  0.0976 -0.1067 -0.5479
  816MOL0     C10031  10.888  10.900   9.551  1.2277  0.4412 -0.2738
  816MOL0     C10032  10.986  10.953   9.479 -0.4706 -0.9665 -0.5626
  816MOL0     O10033  11.125  10.920   9.498  0.0405  0.5194  1.0914
  816MOL0     C10034  11.169  10.787   9.507 -0.8990  0.9550  0.1470
  816MOL0     C10035  11.188  10.746   9.659  0.0076  0.0771  0.8696
  816MOL0     C10036  11.101  10.625   9.693  0.2581 -0.4651  0.5173
  816MOL0     C10037  11.124  10.567   9.837  0.7512 -1.1924  0.4152
  816MOL0     C10038  11.001  10.462   9.845 -1.0041  0.7427 -0.4309
  816MOL0     C10039  10.977  10.427   9.989 -0.6528  0.3180  0.2313
  816MOL0     C10040  10.864  10.331  10.001  0.1096 -0.0798 -0.0785
  816MOL0     C10041  10.725  10.361   9.944 -0.4184 -0.9426  0.0383
  816MOL0     N10042  10.671  10.481  10.015  0.1781  0.4119  0.3559
  816MOL0     C10043  10.602  10.576   9.955 -0.4105 -0.1390 -0.6007
  816MOL0     C10044  10.566  10.667  10.059 -0.2236  0.8105  0.4154
  816MOL0     C10045  10.465  10.780  10.051 -0.7117 -0.1693 -0.7239
  816MOL0     C10046  10.508  10.904   9.990 -1.0548 -0.1511 -0.0449
  816MOL0     C10047  10.640  10.970  10.046 -0.4957  0.1251  0.7559
  816MOL0     C10048  10.655  10.978  10.198 -0.4211  0.4874 -0.3940
  816MOL0     O10049  10.730  11.090  10.230  0.5632 -0.4757  0.6912
  816MOL0     C10050  10.863  11.107  10.218 -0.5339  0.9111  0.4905
  816MOL0     C10051  10.957  10.994  10.213 -0.0085 -0.8774 -0.4387
  816MOL0     C10052  11.099  11.027  10.209 -0.4652  0.2573 -0.7923
  816MOL0     C10053  11.143  11.167  10.201  0.4013 -0.2966 -0.9840
  816MOL0     C10054  11.280  11.215  10.172  0.6154  0.7572 -0.1694
  816MOL0     O10055  11.290  11.346  10.158 -0.1125  0.7896  0.3602
  816MOL0     C10056  11.412  11.414  10.142  0.2921 -0.6507 -0.2299
  816MOL0     C10057  11.401  11.553  10.153  0.8550 -0.5364 -0.1381
  816MOL0     C10058  11.505  11.638  10.123 -0.1317 -0.2359  0.1705
  816MOL0     C10059  11.625  11.587  10.088  0.6329 -0.2275 -0.6373
  816MOL0     O10060  11.737  11.667  10.058  0.7680  0.3013 -0.3740
  816MOL0     C10061  11.758  11.774  10.147  0.6312  0.3942 -0.8422
  816MOL0     C10062  11.703  11.897  10.071  1.2778  1.2731  0.0469
  816MOL0     C10063  11.805  11.975   9.987  0.0375  0.5381 -0.0848
  816MOL0     C10064  11.874  11.910   9.865  0.1983 -0.8916 -0.1408
  816MOL0     C10065  11.989  12.009   9.801  0.7125 -0.5451  0.2058
  816MOL0     C10066  11.951  12.159   9.785  0.4558  0.7429 -1.4045
  816MOL0     C10067  11.822  12.199   9.715  0.7160 -0.1553  0.7882
  816MOL0     C10068  11.838  12.338   9.664  0.1738  0.6563  0.5304
  816MOL0    Cl10069  11.944  12.335   9.520 -0.0701  0.3769  0.2367
  816MOL0     C10070  11.649  11.452  10.074 -0.0646  0.6045  0.2185
  816MOL0     C10071  11.538  11.368  10.093 -0.1484  0.1167  0.3001
  816MOL0     O10072  11.373  11.136  10.201  0.2830  0.3499 -0.0025
  816MOL0     C10073  11.041  11.263  10.184 -0.4004  0.4473 -1.4544
  816MOL0     C10074  10.901  11.232  10.202 -0.4445  0.5203  0.0639
  816MOL0     N10075  10.605  10.608  10.180 -0.2817  1.2378 -0.7048
  816MOL0     N10076  10.671  10.494  10.148  0.1437 -0.6432 -0.5248
  816MOL0     C10077  10.954  11.047   9.376 -0.2682 -0.3202 -0.3263
  816MOL0     C10078  10.825  11.095   9.358  0.0835  0.1883  0.0251
  816MOL0     C10079  10.363  11.146   9.497  1.0334  0.8201  0.1235
  816MOL0     C10080  10.336  11.262   9.428  0.4092  0.9255  0.4026
  816MOL0     C10081  10.217  11.310   9.408  1.0821  0.1845  0.1444
  816MOL0     C10082  10.101  11.235   9.447 -1.0890 -0.1778  0.1930
  816MOL0     O10083   9.984  11.285   9.404 -0.3411 -0.3840  0.5214
  816MOL0     C10084   9.885  11.179   9.387  0.1995 -0.3352  1.0653
  816MOL0     C10085   9.768  11.241   9.319 -1.0103  0.7354  0.7554
  816MOL0     C10086   9.644  11.159   9.313  0.1909  0.8105  0.2939
  816MOL0     C10087   9.623  11.049   9.207  0.1903 -0.6958 -0.3450
  816MOL0     C10088   9.499  10.976   9.216 -0.6528  0.2553  0.1223
  816MOL0     C10089   9.406  10.902   9.234  0.7083  0.2556 -0.2838
  816MOL0     C10090  10.119  11.118   9.520 -0.5264  0.2045  0.4415
  816MOL0     C10091  10.250  11.076   9.551 -0.5434 -0.8038 -0.9214
  816MOL0     C10092  10.269  10.946   9.629  0.2866 -0.1608  0.1049
  816MOL0     H10093  10.669  10.911   9.592  2.0053 -0.5756  2.4782
  816MOL0     H10094  10.917  10.820   9.619 -0.5956 -1.3166 -1.4458
  816MOL0     H10095  11.090  10.726   9.463 -1.0982 -0.2537  2.0556
  816MOL0     H10096  11.263  10.775   9.452 -0.8872 -1.4769  0.6081
  816MOL0     H10097  11.153  10.827   9.723 -0.4005  1.1978 -0.7294
  816MOL0     H10098  11.292  10.722   9.687  0.0093 -2.6671 -1.0730
  816MOL0     H10099  11.126  10.547   9.621 -0.4133 -0.1048 -0.1176
  816MOL0     H10100  10.998  10.658   9.676  0.5129  0.1988  0.2060
  816MOL0     H10101  11.223  10.525   9.857  0.1587 -1.2226  3.9135
  816MOL0     H10102  11.118  10.639   9.919 -0.5117 -0.8845  0.0700
  816MOL0     H10103  10.907  10.509   9.814 -0.8414  2.6334  1.7295
  816MOL0     H10104  11.011  10.374   9.780 -3.3383  0.1769 -0.1365
  816MOL0     H10105  11.063  10.369  10.022 -2.4084 -2.2216  0.6537
  816MOL0     H10106  10.965  10.512  10.058  0.7683 -0.0558  0.9820
  816MOL0     H10107  10.854  10.318  10.110 -0.8325  0.5786 -0.0704
  816MOL0     H10108  10.889  10.233   9.960 -1.9239 -2.6456  4.1239
  816MOL0     H10109  10.742  10.376   9.837  4.0071  2.0305  0.8847
  816MOL0     H10110  10.668  10.268   9.944  1.0486 -1.9703  3.3798
  816MOL0     H10111  10.584  10.600   9.851 -0.7657 -1.9205 -0.9884
  816MOL0     H10112  10.377  10.734  10.004 -1.3072 -0.0087  0.2150
  816MOL0     H10113  10.444  10.803  10.156  0.9833 -0.4344 -0.3026
  816MOL0     H10114  10.518  10.897   9.881 -1.1151  0.8726 -0.1249
  816MOL0     H10115  10.433  10.982   9.998  0.0161  0.9253 -0.1424
  816MOL0     H10116  10.647  11.071  10.004 -1.3779 -0.1211 -0.0339
  816MOL0     H10117  10.727  10.928   9.996 -1.1894  1.4009 -1.7158
  816MOL0     H10118  10.703  10.893  10.248 -1.3257 -0.3702 -0.9444
  816MOL0     H10119  10.556  10.985  10.242 -1.7812 -0.8117 -2.9967
  816MOL0     H10120  10.922  10.893  10.234 -0.9592 -0.6154 -0.7204
  816MOL0     H10121  11.156  10.936  10.212 -1.0785 -0.1160  1.8228
  816MOL0     H10122  11.303  11.583  10.188 -0.2815 -2.8412 -1.1699
  816MOL0     H10123  11.499  11.746  10.134 -0.8685 -0.3599  1.1083
  816MOL0     H10124  11.710  11.765  10.244  0.0326 -1.2482 -1.2530
  816MOL0     H10125  11.861  11.785  10.182  0.2663 -0.2856  0.5043
  816MOL0     H10126  11.626  11.870   9.999  2.1978  1.6924 -1.1274
  816MOL0     H10127  11.651  11.960  10.143  0.1878  3.4664 -2.4806
  816MOL0     H10128  11.751  12.066   9.962 -1.2720  0.5643  2.5068
  816MOL0     H10129  11.878  12.016  10.058 -1.5902  1.7911  0.9198
  816MOL0     H10130  11.801  11.891   9.785 -0.3331  2.5346 -0.6398
  816MOL0     H10131  11.931  11.819   9.882  3.4134  0.8440 -0.8098
  816MOL0     H10132  12.000  11.975   9.698 -0.7030 -1.2030  0.2422
  816MOL0     H10133  12.079  11.999   9.863  0.0465 -0.5374  1.2072
  816MOL0     H10134  11.956  12.205   9.884 -0.3997 -0.1233 -0.9416
  816MOL0     H10135  12.029  12.193   9.716 -1.1364  1.9673 -2.6829
  816MOL0     H10136  11.736  12.199   9.783 -1.3823 -1.9491 -1.6662
  816MOL0     H10137  11.788  12.126   9.641 -0.4899 -0.1622  1.3200
  816MOL0     H10138  11.743  12.387   9.640  0.1922  1.4547  1.9686
  816MOL0     H10139  11.887  12.387   9.748 -1.4222 -1.9775  3.2287
  816MOL0     H10140  11.749  11.425  10.041 -0.7313  0.6329 -2.0023
  816MOL0     H10141  11.558  11.263  10.074 -0.1541  0.2627 -0.5675
  816MOL0     H10142  11.046  11.371  10.174  0.6880  1.0428  3.1577
  816MOL0     H10143  10.820  11.303  10.195 -0.6932  0.1444 -1.0219
  816MOL0     H10144  11.025  11.107   9.320 -2.2852  1.2340 -1.3691
  816MOL0     H10145  10.806  11.163   9.275 -1.9819 -2.4433 -1.8227
  816MOL0     H10146  10.424  11.310   9.386  1.7303 -0.9313  0.8894
  816MOL0     H10147  10.215  11.409   9.363  2.7062  0.1528 -0.0554
  816MOL0     H10148   9.861  11.141   9.487  2.8016 -0.3953  1.7533
  816MOL0     H10149   9.931  11.098   9.329 -1.8366  0.2819 -1.5683
  816MOL0     H10150   9.796  11.260   9.215 -1.8635 -4.4677 -0.7383
  816MOL0     H10151   9.750  11.331   9.378  1.6021  0.9627  1.3226
  816MOL0     H10152   9.557  11.222   9.294  0.1277  0.7595  0.4133
  816MOL0     H10153   9.616  11.119   9.412  2.6159 -2.5641 -0.2086
  816MOL0     H10154   9.615  11.093   9.107 -1.6851 -0.6060 -0.1934
  816MOL0     H10155   9.702  10.974   9.202 -0.9713 -1.9353 -0.7930
  816MOL0     H10156   9.315  10.852   9.261  0.5783  1.4698  1.7373
  816MOL0     H10157  10.037  11.061   9.561  1.4170 -1.4673  2.2367
  816MOL0     H10158  10.188  10.879   9.600 -1.8790  3.0693 -2.0144
  816MOL0     H10159  10.366  10.897   9.618 -1.4106 -4.1061  0.7824
  816MOL0     H10160  10.252  10.954   9.737 -0.3228  2.4574 -0.1114
  817MOL0     O10161   5.723   0.822   8.670  0.0766 -0.0761  0.7533
  817MOL0     C10162   5.739   0.887   8.563  0.0183  0.8675 -0.7470
  817MOL0     O10163   5.653   0.971   8.510 -0.0679  0.3662  0.6554
  817MOL0     C10164   5.535   1.014   8.576 -0.4311  0.0034  0.0230
  817MOL0     C10165   5.416   1.032   8.505  0.1867 -0.1666  0.2369
  817MOL0     C10166   5.300   1.085   8.577 -0.4740 -0.3307  0.0954
  817MOL0     C10167   5.304   1.106   8.716  0.3422  0.1393  0.7002
  817MOL0     O10168   5.191   1.129   8.794 -0.4972  0.3790 -0.3658
  817MOL0     C10169   5.083   1.185   8.727  0.3018 -0.2749 -0.4660
  817MOL0     C10170   5.023   1.282   8.838 -0.1802  0.2999  0.6477
  817MOL0     C10171   4.883   1.332   8.787 -1.1680  0.3336  0.4209
  817MOL0     C10172   4.877   1.481   8.829 -0.5898 -0.7528 -0.0852
  817MOL0     C10173   4.730   1.549   8.834 -0.1892  1.0190  0.1210
  817MOL0     C10174   4.723   1.672   8.903 -1.0736 -0.1541 -0.9037
  817MOL0     C10175   4.580   1.725   8.900 -0.9013 -0.7802 -0.3263
  817MOL0     C10176   4.555   1.871   8.916 -0.0247  0.3720 -0.5159
  817MOL0     N10177   4.569   1.901   9.058 -0.2928 -0.9603  0.2075
  817MOL0     C10178   4.692   1.934   9.108  0.1316  0.3334 -0.8872
  817MOL0     C10179   4.661   1.923   9.243  0.1019  0.7432  0.2113
  817MOL0     C10180   4.773   1.942   9.349  0.1923  0.2107 -0.0943
  817MOL0     C10181   4.799   1.805   9.418 -0.1258 -0.2096  0.2507
  817MOL0     C10182   4.886   1.704   9.334 -0.3927 -0.0461 -0.6473
  817MOL0     C10183   4.831   1.552   9.365 -0.0610  0.0012 -0.8131
  817MOL0     O10184   4.925   1.440   9.337 -0.5285 -0.2616  0.1325
  817MOL0     C10185   4.872   1.313   9.322 -0.5996 -0.1267  0.2989
  817MOL0     C10186   4.910   1.211   9.409 -0.4209 -0.9673 -1.1617
  817MOL0     C10187   4.891   1.076   9.385 -0.6097 -0.2598  0.4713
  817MOL0     C10188   4.835   1.035   9.263  0.0896 -0.1699  0.4992
  817MOL0     C10189   4.791   0.891   9.247  0.0140  0.6691 -0.0538
  817MOL0     O10190   4.863   0.804   9.324 -0.7432  0.1274 -0.8697
  817MOL0     C10191   4.812   0.685   9.350 -0.0573  0.3318 -0.6232
  817MOL0     C10192   4.852   0.573   9.280  0.4795 -0.0258 -0.2177
  817MOL0     C10193   4.788   0.443   9.309  0.0123 -0.1358  0.1164
  817MOL0     C10194   4.688   0.431   9.409  0.4836 -1.1228 -0.1923
  817MOL0     O10195   4.602   0.334   9.439 -0.1589  0.5163  0.2832
  817MOL0     C10196   4.629   0.202   9.374  0.0417 -0.0661  0.1713
  817MOL0     C10197   4.559   0.186   9.242  0.0907  0.6479 -0.4344
  817MOL0     C10198   4.407   0.184   9.255 -0.2123 -0.1801 -0.3753
  817MOL0     C10199   4.337   0.133   9.135  0.3114  0.2479 -0.0188
  817MOL0     C10200   4.182   0.134   9.162 -0.8483 -0.4745 -0.5384
  817MOL0     C10201   4.114   0.270   9.142 -0.1576  0.2965 -0.7745
  817MOL0     C10202   3.969   0.267   9.160  0.2631  0.4999  0.3879
  817MOL0     C10203   3.887   0.386   9.091  1.1268 -0.7821 -0.3388
  817MOL0    Cl10204   3.732   0.317   9.033  0.2486 -0.1247 -0.2447
  817MOL0     C10205   4.671   0.548   9.493 -1.1730  0.0748 -0.1647
  817MOL0     C10206   4.734   0.668   9.470  0.0443  0.5220  0.2260
  817MOL0     O10207   4.675   0.867   9.199 -0.1200 -0.2221 -0.8427
  817MOL0     C10208   4.789   1.138   9.177 -0.4472  0.1727 -0.8559
  817MOL0     C10209   4.811   1.278   9.202  0.0741 -0.4664  0.2951
  817MOL0     N10210   4.530   1.896   9.267  0.6979  0.0710 -0.9533
  817MOL0     N10211   4.471   1.889   9.156 -0.9361 -0.3557  0.0820
  817MOL0     C10212   5.423   1.092   8.780 -1.1132 -0.2076 -1.3755
  817MOL0     C10213   5.538   1.046   8.713 -0.2265  0.1326 -1.0737
  817MOL0     C10214   5.857   0.841   8.484 -0.2067  0.2313 -0.1399
  817MOL0     C10215   5.868   0.698   8.474 -0.5113  0.3657 -0.7154
  817MOL0     C10216   5.955   0.640   8.380 -0.5159  0.1461 -0.3852
  817MOL0     C10217   6.041   0.720   8.304 -0.6035  1.3148  0.4805
  817MOL0     O10218   6.139   0.662   8.222 -0.4037 -0.6298  0.1330
  817MOL0     C10219   6.201   0.741   8.121  0.1374  0.2526 -0.4318
  817MOL0     C10220   6.257   0.654   8.000  0.0847  0.4485 -0.1994
  817MOL0     C10221   6.347   0.721   7.898  0.2264  0.5322  0.0790
  817MOL0     C10222   6.301   0.708   7.752  0.2813  0.2270 -0.0412
  817MOL0     C10223   6.173   0.777   7.735 -0.3183 -0.2043 -0.0458
  817MOL0     C10224   6.066   0.825   7.715  0.0788 -0.8745  0.7532
  817MOL0     C10225   6.030   0.860   8.321 -0.6302  0.0574 -0.6413
  817MOL0     C10226   5.943   0.919   8.410  0.0924 -0.3021 -0.0739
  817MOL0     C10227   5.945   1.071   8.416  0.7871 -0.0778  0.5689
  817MOL0     H10228   5.418   1.016   8.398  1.6455  3.0867 -0.3617
  817MOL0     H10229   5.207   1.082   8.522  0.3752 -3.1620 -1.3777
  817MOL0     H10230   5.117   1.244   8.641  1.4899 -3.9885 -2.7972
  817MOL0     H10231   5.013   1.110   8.688 -0.1849  0.9522 -2.0193
  817MOL0     H10232   5.091   1.366   8.857 -0.6816  0.5271  1.4464
  817MOL0     H10233   5.008   1.213   8.921  1.5891 -1.4578 -0.3914
  817MOL0     H10234   4.813   1.280   8.852 -0.1115 -3.6439 -1.2931
  817MOL0     H10235   4.877   1.329   8.677 -2.0628  2.9473  0.3409
  817MOL0     H10236   4.922   1.485   8.928  1.0904 -4.2292 -0.5409
  817MOL0     H10237   4.939   1.537   8.759  0.9402 -2.1766  0.0779
  817MOL0     H10238   4.703   1.558   8.728  1.8728  1.8787 -0.3778
  817MOL0     H10239   4.658   1.479   8.877  3.0430 -1.7919  1.4609
  817MOL0     H10240   4.755   1.659   9.007  2.6062  0.7170 -1.7689
  817MOL0     H10241   4.790   1.747   8.861 -2.8716  1.3169 -1.2785
  817MOL0     H10242   4.542   1.673   8.988  0.2882 -0.5544  0.3510
  817MOL0     H10243   4.528   1.702   8.807  0.7012  2.3023 -2.1574
  817MOL0     H10244   4.609   1.925   8.838 -1.7212  1.8475 -0.7206
  817MOL0     H10245   4.451   1.889   8.890 -0.5919 -0.1125  1.2491
  817MOL0     H10246   4.784   1.960   9.057  2.1005  0.9257  2.6674
  817MOL0     H10247   4.862   1.984   9.302  1.5287  0.4252  2.4477
  817MOL0     H10248   4.727   2.005   9.426 -1.9032  0.7777 -1.7228
  817MOL0     H10249   4.844   1.814   9.517 -0.4071 -1.3778  0.4977
  817MOL0     H10250   4.700   1.760   9.435 -0.6314  0.7433 -0.0858
  817MOL0     H10251   4.990   1.724   9.363 -0.7809  2.2980 -0.6720
  817MOL0     H10252   4.879   1.730   9.228  0.7032  3.9588  0.1077
  817MOL0     H10253   4.732   1.538   9.321 -1.5459  0.1834  2.2138
  817MOL0     H10254   4.808   1.537   9.471 -2.0483 -0.0634 -1.2184
  817MOL0     H10255   4.969   1.240   9.495  2.2002 -0.9865 -2.8226
  817MOL0     H10256   4.918   0.997   9.454 -0.8027 -0.0235  0.8234
  817MOL0     H10257   4.924   0.569   9.199 -1.2584 -0.1268 -1.8292
  817MOL0     H10258   4.816   0.356   9.250 -1.2419 -1.3046  1.1494
  817MOL0     H10259   4.735   0.184   9.355 -0.0196  0.3514 -0.6011
  817MOL0     H10260   4.603   0.117   9.438 -2.1633  0.1652 -0.3306
  817MOL0     H10261   4.591   0.267   9.176  1.5804  1.0003  0.6780
  817MOL0     H10262   4.600   0.096   9.196  1.3430  0.0273  1.7744
  817MOL0     H10263   4.385   0.119   9.341  1.0225 -0.4161 -0.2223
  817MOL0     H10264   4.366   0.284   9.267 -4.9049 -1.8353 -0.6294
  817MOL0     H10265   4.375   0.033   9.113  1.3186  0.0963  2.1831
  817MOL0     H10266   4.364   0.195   9.049  0.8082  1.8208  1.2286
  817MOL0     H10267   4.159   0.100   9.264 -1.7072  1.0973 -0.1736
  817MOL0     H10268   4.142   0.065   9.087 -0.8355 -1.8321  0.6681
  817MOL0     H10269   4.154   0.343   9.214 -0.6060  2.0972 -2.2899
  817MOL0     H10270   4.143   0.316   9.047 -0.3295 -0.8886 -1.4184
  817MOL0     H10271   3.942   0.272   9.265 -0.4326  0.5773  0.2096
  817MOL0     H10272   3.932   0.172   9.121 -0.8455  0.0135  2.4967
  817MOL0     H10273   3.865   0.459   9.169 -0.4917 -4.6880  3.2783
  817MOL0     H10274   3.942   0.433   9.010  3.2446 -1.0952  0.8384
  817MOL0     H10275   4.600   0.534   9.573 -2.8388 -4.0968 -2.0750
  817MOL0     H10276   4.707   0.753   9.530 -1.1634 -1.4413  2.6295
  817MOL0     H10277   4.737   1.098   9.090 -0.0855 -1.6310 -0.2856
  817MOL0     H10278   4.782   1.356   9.133  1.5976 -0.2931 -0.1990
  817MOL0     H10279   5.442   1.118   8.884  0.5222 -0.8047 -1.4981
  817MOL0     H10280   5.624   1.024   8.776 -1.9010 -2.2898  0.5750
  817MOL0     H10281   5.829   0.616   8.534  1.6371 -1.3069 -1.4554
  817MOL0     H10282   5.964   0.532   8.368  0.7406  0.5515 -5.4858
  817MOL0     H10283   6.283   0.803   8.158  2.7732 -0.3128 -4.6828
  817MOL0     H10284   6.122   0.810   8.090 -0.1719  0.8854  1.5945
  817MOL0     H10285   6.167   0.606   7.961  0.7179 -2.0764  1.2031
  817MOL0     H10286   6.315   0.575   8.048 -0.2909 -0.1290 -0.6857
  817MOL0     H10287   6.444   0.673   7.909 -2.2150 -4.5038  4.7502
  817MOL0     H10288   6.346   0.824   7.934  3.3593  0.9070 -0.6664
  817MOL0     H10289   6.377   0.752   7.686 -1.1645 -0.1270 -2.0501
  817MOL0     H10290   6.280   0.605   7.723  1.1872 -0.3284  1.1877
  817MOL0     H10291   5.967   0.863   7.700  1.3577  3.8481  2.3672
  817MOL0     H10292   6.102   0.928   8.277  1.6134  0.2314  2.8335
  817MOL0     H10293   6.015   1.105   8.493 -2.5295  0.6139  3.5379
  817MOL0     H10294   5.973   1.107   8.316 -1.5944  0.0519 -0.0958
  817MOL0     H10295   5.851   1.121   8.442  1.4347  2.2978 -1.2879
  818MOL0     O10296   4.961   4.078   4.405  0.2033  0.1509  0.3354
  818MOL0     C10297   5.028   3.982   4.362 -0.2534  0.2188 -0.5927
  818MOL0     O10298   5.092   3.987   4.242 -0.2757 -1.0297 -0.2071
  818MOL0     C10299   5.100   4.112   4.167 -0.2158  0.2696  0.0439
  818MOL0     C10300   5.171   4.227   4.203  1.5542 -0.0719 -0.2004
  818MOL0     C10301   5.176   4.334   4.112 -0.5768  0.9645  0.2870
  818MOL0     C10302   5.114   4.334   3.989  1.2070 -0.1251 -0.9600
  818MOL0     O10303   5.126   4.431   3.889 -0.0675  0.4656 -0.4540
  818MOL0     C10304   5.248   4.411   3.809 -0.1914 -0.1409 -0.0929
  818MOL0     C10305   5.254   4.517   3.698  0.0823  0.4759 -0.8364
  818MOL0     C10306   5.220   4.655   3.733 -0.5281 -1.2342 -0.5403
  818MOL0     C10307   5.194   4.730   3.603  0.1997  0.3461 -0.8174
  818MOL0     C10308   5.186   4.878   3.622  0.3881 -0.1832  0.6974
  818MOL0     C10309   5.138   4.944   3.495 -0.8388 -0.2962  0.1239
  818MOL0     C10310   5.118   5.097   3.506  0.4642  0.9144 -0.6408
  818MOL0     C10311   4.987   5.142   3.567 -0.8629 -0.4340 -0.2296
  818MOL0     N10312   4.955   5.282   3.533 -0.4184  0.6557  0.1525
  818MOL0     C10313   4.831   5.339   3.537 -0.1228 -0.8278 -0.3865
  818MOL0     C10314   4.849   5.468   3.502  0.0047  0.7070  0.9191
  818MOL0     C10315   4.745   5.567   3.538  0.0878 -0.2101  0.3712
  818MOL0     C10316   4.782   5.661   3.649  0.5904  0.6896  0.5543
  818MOL0     C10317   4.691   5.785   3.673 -0.3444  0.7665  0.3847
  818MOL0     C10318   4.544   5.763   3.676 -0.0535  0.5505 -0.2049
  818MOL0     O10319   4.517   5.703   3.810 -0.5284 -0.3302 -0.0507
  818MOL0     C10320   4.384   5.706   3.844 -0.0989  0.3977 -0.1398
  818MOL0     C10321   4.356   5.637   3.965 -0.4782 -0.5042  0.4213
  818MOL0     C10322   4.222   5.613   3.995 -2.2120 -0.4600  0.3089
  818MOL0     C10323   4.117   5.666   3.919  0.7891  0.8690  0.0533
  818MOL0     C10324   3.983   5.633   3.964 -0.6183 -0.2712 -0.0913
  818MOL0     O10325   3.886   5.715   3.907 -0.1048 -0.3691  0.1034
  818MOL0     C10326   3.756   5.713   3.961 -0.8228  0.4128  0.1120
  818MOL0     C10327   3.692   5.830   3.999  0.7645  0.0085 -0.3962
  818MOL0     C10328   3.560   5.838   4.053 -0.3848  0.0940 -0.0628
  818MOL0     C10329   3.495   5.712   4.066 -0.5748  0.0722  0.3826
  818MOL0     O10330   3.380   5.696   4.140 -0.1793  0.1698  0.0140
  818MOL0     C10331   3.393   5.704   4.280  0.1702  0.1492 -0.9055
  818MOL0     C10332   3.329   5.573   4.358 -0.6697 -0.6876  1.0515
  818MOL0     C10333   3.191   5.538   4.297 -0.9191  0.1422  0.0211
  818MOL0     C10334   3.097   5.632   4.362 -1.1292 -0.4498 -0.3526
  818MOL0     C10335   2.951   5.623   4.317 -0.1012  0.7349  0.0674
  818MOL0     C10336   2.877   5.508   4.358  0.2658  0.3216 -0.2461
  818MOL0     C10337   2.822   5.437   4.240  0.4856 -0.4734 -0.2272
  818MOL0     C10338   2.733   5.316   4.272  0.1698  0.7617 -0.2486
  818MOL0    Cl10339   2.601   5.367   4.393 -0.3147  0.4168 -0.3387
  818MOL0     C10340   3.556   5.593   4.038  0.4847  0.0896  0.7916
  818MOL0     C10341   3.689   5.593   3.978  0.5399  0.0500  0.2137
  818MOL0     O10342   3.956   5.529   4.026 -0.0855  0.4139 -0.6373
  818MOL0     C10343   4.146   5.744   3.803 -0.4418 -0.4942 -0.1357
  818MOL0     C10344   4.280   5.762   3.765  0.0799 -0.6877  0.1310
  818MOL0     N10345   4.986   5.485   3.482  0.2208  0.1306 -0.5377
  818MOL0     N10346   5.050   5.372   3.500  0.8656 -0.7231 -0.1919
  818MOL0     C10347   5.038   4.219   3.957  1.2670  0.1473  0.6185
  818MOL0     C10348   5.038   4.109   4.043 -0.3936 -1.1744  0.2224
  818MOL0     C10349   5.026   3.858   4.439  0.8958  0.0692  0.2994
  818MOL0     C10350   5.087   3.746   4.380 -0.2573  0.7454 -0.2748
  818MOL0     C10351   5.104   3.626   4.456 -0.9143  0.8466  1.0277
  818MOL0     C10352   5.056   3.613   4.592 -0.6233 -0.0508  0.2476
  818MOL0     O10353   5.064   3.506   4.678 -1.2985 -0.6298 -0.1673
  818MOL0     C10354   5.114   3.382   4.622 -0.2648 -0.0197 -1.1176
  818MOL0     C10355   5.265   3.384   4.626  0.1958 -0.0317  0.7322
  818MOL0     C10356   5.318   3.396   4.765  0.0532 -0.7326  0.4297
  818MOL0     C10357   5.360   3.539   4.804 -0.0380  0.4036  0.2499
  818MOL0     C10358   5.414   3.559   4.938 -0.3539 -0.7066  0.3638
  818MOL0     C10359   5.465   3.590   5.042  0.9375 -0.4312 -0.2235
  818MOL0     C10360   4.991   3.724   4.645  0.5135 -0.2008  0.3073
  818MOL0     C10361   4.976   3.848   4.573  1.0846  1.1311 -0.2086
  818MOL0     C10362   4.904   3.959   4.647 -0.1946 -0.5025 -0.4788
  818MOL0     H10363   5.210   4.236   4.304 -1.0626 -1.0619  0.9791
  818MOL0     H10364   5.230   4.427   4.127  3.8003 -1.6683  3.1948
  818MOL0     H10365   5.333   4.398   3.877  1.0618  1.2368 -1.3257
  818MOL0     H10366   5.234   4.314   3.759 -1.2599  0.9664 -2.0447
  818MOL0     H10367   5.180   4.480   3.626 -1.3886 -1.0573  1.3296
  818MOL0     H10368   5.350   4.506   3.647 -0.0972 -2.1514 -0.7517
  818MOL0     H10369   5.299   4.700   3.794 -1.7018  1.1554 -0.6609
  818MOL0     H10370   5.130   4.678   3.792  0.2271 -2.8250  1.3063
  818MOL0     H10371   5.280   4.702   3.542  0.5068  0.2108 -0.3321
  818MOL0     H10372   5.106   4.691   3.551  0.7412 -1.0657 -0.7355
  818MOL0     H10373   5.117   4.898   3.704  0.5580 -2.4422  1.4463
  818MOL0     H10374   5.282   4.924   3.646  0.6370 -0.6001  0.5185
  818MOL0     H10375   5.200   4.921   3.409  1.0335  1.6587  0.8580
  818MOL0     H10376   5.044   4.892   3.477 -1.2769 -0.6943  2.9613
  818MOL0     H10377   5.114   5.115   3.398 -2.1570  2.4245 -0.3614
  818MOL0     H10378   5.197   5.150   3.559 -0.3850  1.8998 -0.3467
  818MOL0     H10379   4.904   5.071   3.556 -0.7823 -1.4215  3.7766
  818MOL0     H10380   5.006   5.144   3.675  0.7139 -2.5409 -0.4180
  818MOL0     H10381   4.741   5.288   3.570 -0.8091  1.4244  1.4614
  818MOL0     H10382   4.738   5.627   3.447  1.7046 -1.9267 -0.9855
  818MOL0     H10383   4.650   5.521   3.565 -1.3448  1.1063 -2.1330
  818MOL0     H10384   4.785   5.597   3.737 -1.5102  1.1981  1.0526
  818MOL0     H10385   4.882   5.704   3.638 -0.4110  3.4797  1.5165
  818MOL0     H10386   4.713   5.841   3.581 -1.1075 -2.0418 -1.6553
  818MOL0     H10387   4.723   5.842   3.760 -0.9820  2.7305 -0.6176
  818MOL0     H10388   4.510   5.703   3.591  1.4351  0.2703 -0.6220
  818MOL0     H10389   4.509   5.867   3.672  0.2559  0.6336 -0.8113
  818MOL0     H10390   4.425   5.602   4.040  1.3711 -0.1720 -1.0481
  818MOL0     H10391   4.217   5.556   4.087 -0.7607 -0.9864  0.0911
  818MOL0     H10392   3.745   5.923   3.981 -2.3816  2.4859  2.0159
  818MOL0     H10393   3.504   5.927   4.076  1.7014  1.8526 -1.3948
  818MOL0     H10394   3.498   5.714   4.309 -0.2429 -0.1312  0.7823
  818MOL0     H10395   3.334   5.791   4.311 -0.0071 -0.9815  2.3042
  818MOL0     H10396   3.387   5.483   4.334 -0.7252 -0.9843  2.0014
  818MOL0     H10397   3.331   5.587   4.466  0.6622  2.1028  0.7422
  818MOL0     H10398   3.182   5.549   4.189 -0.2120  1.2934  0.0562
  818MOL0     H10399   3.155   5.436   4.310  0.2212 -0.4451 -1.2511
  818MOL0     H10400   3.132   5.735   4.347 -0.7408 -0.2734  1.5662
  818MOL0     H10401   3.097   5.612   4.469  0.3324  2.3707  0.2931
  818MOL0     H10402   2.940   5.633   4.208  0.7621  1.3434  0.0289
  818MOL0     H10403   2.901   5.709   4.363 -0.8018  0.5363 -0.3129
  818MOL0     H10404   2.931   5.445   4.429  1.3285  1.4403 -0.0318
  818MOL0     H10405   2.789   5.548   4.409 -0.9181 -0.4651 -1.5936
  818MOL0     H10406   2.911   5.412   4.181  0.4226  2.0206 -1.5129
  818MOL0     H10407   2.754   5.506   4.190 -0.0475 -1.5151 -0.9920
  818MOL0     H10408   2.688   5.271   4.183 -1.6969  0.5097  0.7598
  818MOL0     H10409   2.792   5.245   4.330 -3.1371 -1.3870  0.7997
  818MOL0     H10410   3.509   5.497   4.056 -1.3788  0.6274 -0.8081
  818MOL0     H10411   3.728   5.497   3.947 -2.3786 -0.3323 -2.7656
  818MOL0     H10412   4.065   5.783   3.743  0.9367 -1.2778 -2.6103
  818MOL0     H10413   4.284   5.803   3.665 -1.6151  1.8665  0.9833
  818MOL0     H10414   4.987   4.228   3.862  1.4858 -1.1335  0.3619
  818MOL0     H10415   4.977   4.022   4.022  1.2169 -2.5115  0.7955
  818MOL0     H10416   5.137   3.736   4.284 -0.0751  0.7694 -0.1828
  818MOL0     H10417   5.167   3.545   4.419 -2.7793 -0.7649  1.2041
  818MOL0     H10418   5.078   3.350   4.524 -0.3113 -0.7139 -0.8762
  818MOL0     H10419   5.083   3.300   4.687 -0.2091  1.1063  0.3768
  818MOL0     H10420   5.314   3.465   4.573 -0.8822  1.8196  2.4351
  818MOL0     H10421   5.283   3.278   4.604  1.7886 -0.1851  2.5459
  818MOL0     H10422   5.411   3.339   4.768  1.8134  1.6531 -2.3088
  818MOL0     H10423   5.256   3.356   4.846  2.6650 -0.0329  2.9568
  818MOL0     H10424   5.430   3.577   4.729 -0.4405  1.6676  0.4904
  818MOL0     H10425   5.273   3.604   4.794 -1.8981 -2.1982 -1.4314
  818MOL0     H10426   5.502   3.624   5.137 -2.8028 -1.3794  1.8083
  818MOL0     H10427   4.953   3.730   4.747  0.6534  1.3746  0.2945
  818MOL0     H10428   4.875   3.933   4.749  2.6864  1.4519  0.9642
  818MOL0     H10429   4.969   4.047   4.636  0.4396 -0.9789 -0.5815
  818MOL0     H10430   4.812   3.985   4.593  0.2009  1.6775 -0.1956
  819MOL0     O10431   9.144   4.036   3.601  0.6047 -0.6750 -0.3218
  819MOL0     C10432   9.252   4.035   3.668 -0.4626 -0.3438 -0.1052
  819MOL0     O10433   9.327   3.917   3.685  0.5205 -0.4678 -0.8003
  819MOL0     C10434   9.278   3.811   3.630  0.6035  1.3272  1.2357
  819MOL0     C10435   9.180   3.736   3.698  0.6318 -1.1220 -0.0278
  819MOL0     C10436   9.133   3.614   3.650 -0.0471 -1.0215  0.1025
  819MOL0     C10437   9.181   3.564   3.530  0.1874  0.5743  0.0855
  819MOL0     O10438   9.121   3.456   3.478  0.1146  0.7056  0.5508
  819MOL0     C10439   9.197   3.359   3.392 -0.2897 -0.2936  0.5347
  819MOL0     C10440   9.114   3.249   3.323 -0.5710 -0.4932 -0.3608
  819MOL0     C10441   9.073   3.143   3.425  0.1789  0.0980  0.2236
  819MOL0     C10442   8.994   3.026   3.375  0.3341 -0.3942 -0.4601
  819MOL0     C10443   9.063   2.944   3.262  0.5439 -0.0510 -0.4923
  819MOL0     C10444   9.205   2.868   3.277  0.5151  0.1860 -0.4321
  819MOL0     C10445   9.193   2.745   3.182  0.1065  0.9064  0.7138
  819MOL0     C10446   9.323   2.661   3.176  0.8476  0.3012 -0.1550
  819MOL0     N10447   9.299   2.522   3.127 -0.3782 -0.4748  0.2024
  819MOL0     C10448   9.291   2.419   3.210  0.0717 -0.9208 -0.4143
  819MOL0     C10449   9.244   2.310   3.133 -0.2207  1.7434 -1.0651
  819MOL0     C10450   9.204   2.172   3.183 -0.2826 -0.3991 -0.8004
  819MOL0     C10451   9.307   2.071   3.126 -0.3286 -0.8326 -0.1348
  819MOL0     C10452   9.246   1.938   3.136 -0.3249  1.1189  0.8576
  819MOL0     C10453   9.310   1.845   3.036 -0.9660  0.1329  0.0529
  819MOL0     O10454   9.254   1.713   3.050  0.2222 -0.9674 -0.0244
  819MOL0     C10455   9.299   1.612   2.962 -1.3159 -0.0176 -0.1425
  819MOL0     C10456   9.401   1.522   3.010  0.5896  0.4871  0.0750
  819MOL0     C10457   9.461   1.433   2.924 -0.5508 -0.7894  0.0120
  819MOL0     C10458   9.404   1.421   2.794 -0.3621 -0.5906  0.5160
  819MOL0     C10459   9.469   1.321   2.695  0.1906  0.6121 -0.4531
  819MOL0     O10460   9.441   1.329   2.563  0.6638  0.1623 -0.1078
  819MOL0     C10461   9.461   1.239   2.468 -0.3252  0.7083  0.0112
  819MOL0     C10462   9.405   1.273   2.347 -0.3583 -0.6618 -0.0450
  819MOL0     C10463   9.431   1.193   2.240 -0.7372  0.2074  0.0583
  819MOL0     C10464   9.515   1.089   2.244 -0.9563  0.3607 -0.1436
  819MOL0     O10465   9.555   1.034   2.123  0.6223  0.7076  0.8853
  819MOL0     C10466   9.577   0.900   2.141  1.4349  0.4523 -0.9870
  819MOL0     C10467   9.601   0.820   2.015  0.2332 -0.2284  0.5428
  819MOL0     C10468   9.647   0.916   1.898  0.0423  0.3083 -0.5816
  819MOL0     C10469   9.658   0.834   1.767 -0.1920 -0.3598 -0.2561
  819MOL0     C10470   9.806   0.779   1.762  0.7020 -0.1724  0.3423
  819MOL0     C10471   9.836   0.668   1.665  0.1491 -0.1246 -0.2086
  819MOL0     C10472   9.784   0.530   1.728  0.6944  0.1044  0.5454
  819MOL0     C10473   9.858   0.474   1.845 -1.1366 -1.0467 -0.6576
  819MOL0    Cl10474   9.793   0.318   1.905 -0.0523  0.3187 -0.3076
  819MOL0     C10475   9.570   1.056   2.366 -0.3797  0.1476 -0.3222
  819MOL0     C10476   9.546   1.121   2.476  0.2973 -0.6925  0.4272
  819MOL0     O10477   9.556   1.248   2.744 -0.5359 -0.4743  0.2165
  819MOL0     C10478   9.294   1.500   2.748  0.5030 -0.0978 -0.0789
  819MOL0     C10479   9.251   1.603   2.833 -0.0862  0.3763  0.0802
  819MOL0     N10480   9.254   2.352   2.997 -0.1245 -0.6594  0.0847
  819MOL0     N10481   9.277   2.479   3.003  0.4351  0.4985  0.0109
  819MOL0     C10482   9.283   3.634   3.458 -0.4247  0.6348 -0.1809
  819MOL0     C10483   9.335   3.756   3.511 -1.3171  0.0300  0.8321
  819MOL0     C10484   9.318   4.152   3.720  0.0921  1.0283 -0.6184
  819MOL0     C10485   9.457   4.145   3.736 -0.4062 -0.9279  1.4264
  819MOL0     C10486   9.520   4.239   3.813 -0.9835 -0.0270  0.2884
  819MOL0     C10487   9.448   4.346   3.863  0.9977 -0.0075  0.1775
  819MOL0     O10488   9.528   4.432   3.921 -0.4182 -0.2590 -0.7156
  819MOL0     C10489   9.494   4.578   3.947  0.2035 -0.7815 -0.0314
  819MOL0     C10490   9.465   4.654   3.823 -1.0595  0.2620  1.2098
  819MOL0     C10491   9.446   4.804   3.840 -0.2786 -0.1336  0.0528
  819MOL0     C10492   9.305   4.856   3.856  0.5170 -0.0036  0.4367
  819MOL0     C10493   9.267   4.819   3.991  0.0267  0.0820 -0.5293
  819MOL0     C10494   9.258   4.755   4.094 -0.9106  0.4316  0.5921
  819MOL0     C10495   9.313   4.369   3.828  0.0882  0.4190 -1.5945
  819MOL0     C10496   9.243   4.264   3.768 -0.2731 -0.8685 -0.8829
  819MOL0     C10497   9.100   4.280   3.747  0.0653  0.7652  0.1477
  819MOL0     H10498   9.139   3.779   3.789 -1.2582  1.3190 -1.9092
  819MOL0     H10499   9.061   3.560   3.711 -0.2957  0.5982  1.3493
  819MOL0     H10500   9.244   3.401   3.302 -2.1154 -2.4428 -1.5845
  819MOL0     H10501   9.275   3.310   3.450  2.1180 -0.0582 -2.2666
  819MOL0     H10502   9.175   3.211   3.241  4.3987 -0.4333  2.8558
  819MOL0     H10503   9.025   3.300   3.284  0.2850  1.3131 -0.0742
  819MOL0     H10504   9.014   3.189   3.505  0.9910  0.2739  0.7285
  819MOL0     H10505   9.161   3.097   3.471 -0.4666 -0.8551  0.5392
  819MOL0     H10506   8.982   2.948   3.451 -0.4122  0.5604  0.4268
  819MOL0     H10507   8.898   3.064   3.338 -1.4720 -1.9744  2.2434
  819MOL0     H10508   8.989   2.864   3.253 -2.5499  2.6967 -1.0962
  819MOL0     H10509   9.060   3.006   3.172  1.8425  2.2716  0.9594
  819MOL0     H10510   9.288   2.930   3.241  0.7799 -0.6699 -1.3279
  819MOL0     H10511   9.224   2.836   3.380 -0.8069  2.1098  0.4833
  819MOL0     H10512   9.165   2.777   3.081 -2.0420 -0.2540  0.8854
  819MOL0     H10513   9.108   2.683   3.213 -2.2928  2.3286 -2.4184
  819MOL0     H10514   9.396   2.708   3.109 -0.9347  2.5973 -0.6131
  819MOL0     H10515   9.365   2.649   3.276  2.4935 -3.5983 -1.1447
  819MOL0     H10516   9.289   2.415   3.319 -0.7587 -2.1239 -0.4453
  819MOL0     H10517   9.194   2.164   3.292 -0.5102 -0.3487 -0.8177
  819MOL0     H10518   9.109   2.143   3.137  1.2970 -0.2006 -4.4906
  819MOL0     H10519   9.321   2.099   3.021  0.7263 -4.0556 -0.9800
  819MOL0     H10520   9.404   2.091   3.173  1.3670  1.2226 -4.0467
  819MOL0     H10521   9.140   1.945   3.111  0.2636 -0.5397 -2.7010
  819MOL0     H10522   9.263   1.892   3.234  0.7837 -4.0958 -1.4401
  819MOL0     H10523   9.419   1.836   3.040 -0.9414 -0.8350 -1.6109
  819MOL0     H10524   9.278   1.876   2.936 -3.3255  3.8072  1.7414
  819MOL0     H10525   9.429   1.517   3.115 -2.6030 -1.0784  0.9970
  819MOL0     H10526   9.544   1.379   2.969 -0.7188  1.7414  3.9012
  819MOL0     H10527   9.330   1.350   2.331  0.4702 -0.1238 -1.5291
  819MOL0     H10528   9.376   1.209   2.148  0.9031  2.2644 -0.6553
  819MOL0     H10529   9.677   0.881   2.181  1.4867 -0.3822 -1.4876
  819MOL0     H10530   9.504   0.851   2.206  1.1610  2.1119  0.0036
  819MOL0     H10531   9.672   0.738   2.027 -1.5547 -1.8241  0.7335
  819MOL0     H10532   9.515   0.770   1.968  1.5579  1.0141 -3.5756
  819MOL0     H10533   9.573   0.993   1.879  0.4278  0.2727 -2.3333
  819MOL0     H10534   9.745   0.959   1.921 -0.0086 -0.1624  0.6117
  819MOL0     H10535   9.646   0.905   1.684  2.9612  2.3669  1.3664
  819MOL0     H10536   9.573   0.765   1.773 -3.6373  3.4082 -1.1235
  819MOL0     H10537   9.837   0.764   1.866  1.5465 -0.4277  0.0583
  819MOL0     H10538   9.871   0.855   1.719  1.7298 -0.7118  0.9136
  819MOL0     H10539   9.789   0.704   1.574  1.7336  1.6717 -0.3670
  819MOL0     H10540   9.944   0.657   1.656 -0.0202 -1.2687 -1.0729
  819MOL0     H10541   9.789   0.447   1.657  0.9083  2.4019 -2.3538
  819MOL0     H10542   9.677   0.528   1.750  1.5836 -2.3723  6.3663
  819MOL0     H10543   9.955   0.439   1.809 -0.8358 -2.1019  1.0635
  819MOL0     H10544   9.862   0.547   1.927 -0.1012 -3.2635  1.4112
  819MOL0     H10545   9.642   0.977   2.383 -2.5021 -1.4868  1.5333
  819MOL0     H10546   9.594   1.090   2.568  0.4936 -1.4908  0.0665
  819MOL0     H10547   9.250   1.494   2.649  0.4407 -1.0280 -0.0037
  819MOL0     H10548   9.179   1.674   2.795  1.5180  0.5176 -3.0100
  819MOL0     H10549   9.314   3.599   3.361 -0.0987 -1.3631  0.6080
  819MOL0     H10550   9.417   3.815   3.470 -0.4052 -1.0082  1.0964
  819MOL0     H10551   9.516   4.064   3.696  4.4837  1.2465  3.4809
  819MOL0     H10552   9.627   4.244   3.829 -0.5538 -0.5921 -1.9871
  819MOL0     H10553   9.577   4.624   4.002  2.9046 -4.0439 -0.9977
  819MOL0     H10554   9.408   4.577   4.013  0.9688  1.2069  1.0725
  819MOL0     H10555   9.384   4.611   3.765  3.2901 -3.7811 -2.6916
  819MOL0     H10556   9.562   4.643   3.774 -0.8274  0.4147  1.6252
  819MOL0     H10557   9.484   4.856   3.752  2.6794 -2.3848 -0.1373
  819MOL0     H10558   9.506   4.839   3.925 -1.4214  0.7050  0.5384
  819MOL0     H10559   9.299   4.962   3.831 -1.4017 -0.1025  0.3785
  819MOL0     H10560   9.250   4.786   3.793  1.0998 -0.9847  0.9759
  819MOL0     H10561   9.246   4.717   4.193 -2.2544 -0.4576  0.1193
  819MOL0     H10562   9.260   4.461   3.849  1.6453  0.9236  0.4754
  819MOL0     H10563   9.066   4.251   3.647 -2.5807  0.8214  0.9590
  819MOL0     H10564   9.051   4.213   3.819 -2.9519 -0.4067 -2.7423
  819MOL0     H10565   9.073   4.385   3.763 -2.4414  0.0184  1.3110
  820MOL0     O10566   1.925   9.027   8.440  0.3142 -0.1898  0.4492
  820MOL0     C10567   1.919   8.991   8.557 -0.1066  0.5206  0.4240
  820MOL0     O10568   1.832   9.050   8.648 -0.8159  0.0288 -0.8464
  820MOL0     C10569   1.732   9.131   8.605 -0.2438 -0.4877  0.3178
  820MOL0     C10570   1.762   9.269   8.552 -1.0063  0.2539  0.0037
  820MOL0     C10571   1.671   9.349   8.497 -0.0259  0.1558 -0.6878
  820MOL0     C10572   1.541   9.306   8.484  0.8308 -0.3521  0.0135
  820MOL0     O10573   1.457   9.399   8.435 -0.0314  0.5535  0.6992
  820MOL0     C10574   1.309   9.367   8.430 -0.0717  0.3024 -0.1120
  820MOL0     C10575   1.214   9.474   8.371  0.0095  0.0763 -1.0565
  820MOL0     C10576   1.216   9.467   8.219  0.5373  0.4584 -0.5086
  820MOL0     C10577   1.351   9.474   8.153  0.2016  0.2770  0.0441
  820MOL0     C10578   1.324   9.495   8.004 -0.4122 -0.2657 -0.1501
  820MOL0     C10579   1.463   9.517   7.924  0.2698  0.2982  0.3096
  820MOL0     C10580   1.442   9.510   7.775 -0.5009  0.1001  0.2401
  820MOL0     C10581   1.411   9.363   7.723  0.6357 -0.3801 -0.5275
  820MOL0     N10582   1.405   9.369   7.569 -0.5918 -0.2340 -0.3891
  820MOL0     C10583   1.517   9.391   7.490 -0.0004  0.0049 -0.0530
  820MOL0     C10584   1.462   9.446   7.376 -0.4106  0.1078 -0.4137
  820MOL0     C10585   1.552   9.501   7.270  0.0774  0.3149 -0.3550
  820MOL0     C10586   1.672   9.415   7.250 -0.4914  0.8200  0.7979
  820MOL0     C10587   1.787   9.449   7.148 -0.5417  0.0543  0.1544
  820MOL0     C10588   1.924   9.407   7.195  0.7695 -0.3537  0.4918
  820MOL0     O10589   1.976   9.500   7.293 -0.0176  0.3662 -0.4760
  820MOL0     C10590   2.079   9.476   7.378  0.2739  0.2502  0.1642
  820MOL0     C10591   2.135   9.577   7.465  0.4669  1.1356  0.6350
  820MOL0     C10592   2.238   9.549   7.553 -0.6493 -0.1514  0.2989
  820MOL0     C10593   2.301   9.421   7.561 -0.0422  0.0451  0.4163
  820MOL0     C10594   2.407   9.404   7.666 -0.4062 -0.9873 -0.7237
  820MOL0     O10595   2.464   9.514   7.734 -0.6804 -0.5384 -0.2854
  820MOL0     C10596   2.565   9.505   7.823  0.5485  0.8450  0.0610
  820MOL0     C10597   2.657   9.607   7.843  0.3711 -0.2641 -0.0985
  820MOL0     C10598   2.750   9.592   7.942  0.1323 -0.2002 -0.5420
  820MOL0     C10599   2.753   9.491   8.036  0.0801  0.8177  0.5547
  820MOL0     O10600   2.850   9.479   8.134  0.0651 -0.6019  0.0803
  820MOL0     C10601   2.962   9.578   8.146 -0.2143  0.6685  0.3652
  820MOL0     C10602   3.068   9.534   8.047  0.1866  0.4493  0.5087
  820MOL0     C10603   3.201   9.612   8.062 -0.1108  0.2558  1.1647
  820MOL0     C10604   3.188   9.762   8.018  0.3441 -0.2871 -0.4855
  820MOL0     C10605   3.318   9.835   8.029  0.0151 -0.1684  0.1514
  820MOL0     C10606   3.306   9.971   7.950  0.0673 -1.1260 -0.1362
  820MOL0     C10607   3.438  10.042   7.962  0.5600 -0.2012 -0.5592
  820MOL0     C10608   3.536   9.993   7.856  0.1666 -0.7172  1.2324
  820MOL0    Cl10609   3.519  10.112   7.723 -0.2637 -0.3036 -0.0455
  820MOL0     C10610   2.654   9.395   8.026  0.3247 -0.2618 -0.4433
  820MOL0     C10611   2.566   9.399   7.913  0.6864 -0.1382  0.5405
  820MOL0     O10612   2.454   9.294   7.676 -0.1634  0.0434 -0.1117
  820MOL0     C10613   2.251   9.320   7.469 -0.3051  0.2067  0.2025
  820MOL0     C10614   2.139   9.343   7.393 -0.1422 -0.1608  0.4214
  820MOL0     N10615   1.323   9.438   7.395 -0.5440 -0.8129 -0.0412
  820MOL0     N10616   1.289   9.393   7.507  0.5502  0.1988 -0.3179
  820MOL0     C10617   1.513   9.172   8.525  1.3513  1.0956 -0.4626
  820MOL0     C10618   1.608   9.089   8.586  0.4567  0.7171 -0.2702
  820MOL0     C10619   2.013   8.888   8.594 -0.1362  1.0592 -0.1850
  820MOL0     C10620   2.139   8.877   8.533 -0.3644 -0.3173 -0.0751
  820MOL0     C10621   2.228   8.771   8.573  0.5888  0.3361 -0.1112
  820MOL0     C10622   2.206   8.687   8.679  0.1055  0.0140  0.4292
  820MOL0     O10623   2.309   8.613   8.721 -0.7659 -0.4707  0.2285
  820MOL0     C10624   2.290   8.514   8.816  0.6671  0.1339 -0.5676
  820MOL0     C10625   2.415   8.438   8.855 -0.7771  0.5821  1.2039
  820MOL0     C10626   2.542   8.515   8.905 -0.1998  0.4050 -0.2655
  820MOL0     C10627   2.554   8.552   9.058  0.7936  0.4218  0.6610
  820MOL0     C10628   2.560   8.433   9.137 -1.0801 -0.1737 -0.6046
  820MOL0     C10629   2.541   8.325   9.194  0.3377  0.2265  0.2061
  820MOL0     C10630   2.079   8.688   8.730 -0.5118 -0.2684  0.8714
  820MOL0     C10631   1.981   8.782   8.690 -0.6343  0.4349 -0.4391
  820MOL0     C10632   1.846   8.774   8.763 -0.4446  0.3941  0.2730
  820MOL0     H10633   1.868   9.295   8.545  0.0131 -3.6064 -1.1009
  820MOL0     H10634   1.705   9.446   8.463  2.4294 -0.6718 -0.8306
  820MOL0     H10635   1.299   9.282   8.362 -2.0734 -1.5213  2.2839
  820MOL0     H10636   1.270   9.342   8.529  0.3498  1.3902  0.3377
  820MOL0     H10637   1.243   9.573   8.409  0.2856 -0.5119  0.3523
  820MOL0     H10638   1.113   9.453   8.407  0.3837 -0.0113 -0.0186
  820MOL0     H10639   1.147   9.539   8.173  0.2661  0.2542 -0.4227
  820MOL0     H10640   1.168   9.372   8.195  0.4791  1.2101 -3.9686
  820MOL0     H10641   1.414   9.552   8.197 -0.0985  0.3922  0.2715
  820MOL0     H10642   1.415   9.386   8.164 -1.3339 -1.0036 -0.8591
  820MOL0     H10643   1.274   9.405   7.965  0.0691 -1.7768  2.4785
  820MOL0     H10644   1.263   9.586   8.001 -1.8176 -1.0866  1.7655
  820MOL0     H10645   1.499   9.620   7.936  1.2642  0.5925 -3.6980
  820MOL0     H10646   1.536   9.441   7.956  0.2320  0.8654  1.8573
  820MOL0     H10647   1.537   9.537   7.729  0.2168 -2.2012  0.2569
  820MOL0     H10648   1.363   9.578   7.740 -2.3015 -1.0162  1.8978
  820MOL0     H10649   1.488   9.293   7.757 -0.6634 -2.0478 -0.8558
  820MOL0     H10650   1.315   9.327   7.763  0.8448 -0.3079  0.0589
  820MOL0     H10651   1.621   9.381   7.521 -0.0986 -1.5548 -0.1261
  820MOL0     H10652   1.490   9.510   7.180 -0.2440  3.8835  0.0527
  820MOL0     H10653   1.581   9.605   7.289  2.1131  0.4222 -3.4281
  820MOL0     H10654   1.734   9.400   7.338  2.2552  0.7777 -1.0336
  820MOL0     H10655   1.637   9.317   7.215  1.9624  1.2820 -3.6907
  820MOL0     H10656   1.782   9.558   7.136  0.0603 -0.0456 -1.2222
  820MOL0     H10657   1.762   9.402   7.052 -1.0359  1.6328 -0.5245
  820MOL0     H10658   1.991   9.398   7.108 -1.5731 -2.0140 -1.2687
  820MOL0     H10659   1.924   9.309   7.241  1.4182 -1.2524 -1.3094
  820MOL0     H10660   2.113   9.682   7.446  0.4472  0.7068 -1.9704
  820MOL0     H10661   2.278   9.627   7.617  0.3604 -1.2312  1.0185
  820MOL0     H10662   2.652   9.697   7.783 -5.4153  0.5901  1.0645
  820MOL0     H10663   2.816   9.677   7.952 -0.3282  0.4552 -2.6671
  820MOL0     H10664   2.930   9.683   8.144  1.5457  1.2453  0.0889
  820MOL0     H10665   3.002   9.557   8.245  0.9768 -1.9285 -0.5872
  820MOL0     H10666   3.081   9.427   8.063 -2.6096 -0.4808 -2.4698
  820MOL0     H10667   3.034   9.544   7.944  1.0137  1.8807  0.3554
  820MOL0     H10668   3.233   9.615   8.166  0.4777  2.6903  0.9857
  820MOL0     H10669   3.283   9.565   8.006  0.4639 -1.2390  3.1700
  820MOL0     H10670   3.116   9.817   8.079  1.0819  0.7566 -0.5307
  820MOL0     H10671   3.153   9.766   7.914  0.2339  0.8182 -0.4186
  820MOL0     H10672   3.399   9.766   8.005 -0.4021 -1.2330  1.6791
  820MOL0     H10673   3.329   9.875   8.130 -4.7264 -0.6591  1.0960
  820MOL0     H10674   3.282   9.958   7.844 -0.0652  1.7155 -0.5364
  820MOL0     H10675   3.228  10.037   7.989  1.1593  1.1823 -1.6124
  820MOL0     H10676   3.475  10.023   8.063 -1.9773  0.4045  0.5697
  820MOL0     H10677   3.420  10.149   7.949  0.1554 -0.2257 -0.2167
  820MOL0     H10678   3.643  10.001   7.880  0.9969 -3.1585 -1.1433
  820MOL0     H10679   3.510   9.890   7.829 -0.8332 -1.3533  4.1863
  820MOL0     H10680   2.652   9.332   8.115 -0.6686  1.2780  0.6797
  820MOL0     H10681   2.492   9.320   7.907  2.7035 -2.0292 -2.7097
  820MOL0     H10682   2.308   9.228   7.459  0.2989  0.5880  0.0964
  820MOL0     H10683   2.088   9.258   7.350 -1.2803  0.5002  0.4232
  820MOL0     H10684   1.415   9.126   8.517  1.3967 -1.3382  6.3610
  820MOL0     H10685   1.581   8.987   8.613  0.7256  0.1779 -1.9232
  820MOL0     H10686   2.175   8.955   8.466 -0.3636  0.3775  0.7183
  820MOL0     H10687   2.324   8.758   8.524  1.1600 -0.2127  1.1163
  820MOL0     H10688   2.212   8.452   8.771 -0.8935  0.5510  1.4559
  820MOL0     H10689   2.246   8.564   8.903  2.5730  2.3751 -0.7786
  820MOL0     H10690   2.446   8.380   8.768  0.7336 -0.4496  2.3738
  820MOL0     H10691   2.383   8.369   8.934  1.3584  0.5867  2.1379
  820MOL0     H10692   2.545   8.608   8.848  5.3330  0.7087 -0.0446
  820MOL0     H10693   2.629   8.458   8.871 -2.5888 -1.2021 -4.3350
  820MOL0     H10694   2.638   8.619   9.078  0.6236  0.3267  1.7708
  820MOL0     H10695   2.468   8.610   9.093 -1.5790 -2.9729  0.9077
  820MOL0     H10696   2.525   8.223   9.222 -2.3490  0.3814 -0.5542
  820MOL0     H10697   2.051   8.625   8.814 -0.6370  0.9483  1.7700
  820MOL0     H10698   1.835   8.868   8.818  2.2199 -0.8637  3.3064
  820MOL0     H10699   1.774   8.758   8.683  1.8346  0.6751 -1.9828
  820MOL0     H10700   1.846   8.687   8.830 -1.3707  1.8800  2.3018
  821MOL0     O10701   2.174   6.012   0.260  0.7492 -0.8571 -0.0290
  821MOL0     C10702   2.170   6.102   0.340 -0.5980 -0.0990 -0.0022
  821MOL0     O10703   2.072   6.127   0.432 -0.5168 -0.2547  0.5252
  821MOL0     C10704   1.947   6.071   0.406  0.1588 -0.2921  0.8954
  821MOL0     C10705   1.904   5.948   0.456 -0.5239  0.3339  0.7593
  821MOL0     C10706   1.788   5.890   0.416  0.3514 -0.0572 -0.1801
  821MOL0     C10707   1.694   5.957   0.330  0.0700  0.1369 -0.4428
  821MOL0     O10708   1.596   5.878   0.277  0.4396 -0.4636  0.6370
  821MOL0     C10709   1.467   5.940   0.254  0.7482  0.0523  0.4325
  821MOL0     C10710   1.384   5.904   0.375  0.8967 -0.0686  0.1072
  821MOL0     C10711   1.240   5.956   0.344 -0.5230 -0.7636 -0.3735
  821MOL0     C10712   1.148   5.901   0.456  0.0907  0.2670  0.6473
  821MOL0     C10713   1.129   6.001   0.573 -1.0562  0.5165  0.5026
  821MOL0     C10714   1.054   6.132   0.533 -0.4587  0.3557 -0.2016
  821MOL0     C10715   0.959   6.184   0.644  0.2610  0.3044  0.1465
  821MOL0     C10716   0.848   6.282   0.610 -0.2465  0.3129  0.0045
  821MOL0     N10717   0.766   6.298   0.733 -0.8663 -0.2395 -0.0984
  821MOL0     C10718   0.768   6.407   0.817 -0.1617  0.0877  0.6181
  821MOL0     C10719   0.685   6.381   0.917  1.6100  0.4472  0.9569
  821MOL0     C10720   0.665   6.466   1.043 -0.9779 -0.8210  0.2574
  821MOL0     C10721   0.801   6.511   1.104 -0.3462 -0.6847 -0.2659
  821MOL0     C10722   0.786   6.560   1.241  0.3987 -0.6253  0.4875
  821MOL0     C10723   0.728   6.706   1.257  1.6981  1.1173 -1.1021
  821MOL0     O10724   0.833   6.789   1.214 -0.2950  0.8014 -0.3988
  821MOL0     C10725   0.845   6.915   1.254  0.3611 -0.0522 -0.0076
  821MOL0     C10726   0.905   6.992   1.154 -1.0781  0.3643 -0.3867
  821MOL0     C10727   0.930   7.124   1.181  0.0273  0.6594 -0.2650
  821MOL0     C10728   0.915   7.179   1.310  0.4342 -0.1439 -0.4850
  821MOL0     C10729   0.959   7.314   1.340 -0.9436 -0.1479  0.4954
  821MOL0     O10730   0.929   7.361   1.462  0.4099 -0.7450  0.0053
  821MOL0     C10731   0.981   7.477   1.530 -0.1002  0.4272  0.2690
  821MOL0     C10732   1.078   7.563   1.475 -0.2563  0.0066 -1.1946
  821MOL0     C10733   1.127   7.670   1.551 -0.8144  0.8369 -0.1466
  821MOL0     C10734   1.074   7.705   1.671  0.6883 -1.0743  0.1804
  821MOL0     O10735   1.140   7.805   1.749 -0.4146 -0.1646  0.0339
  821MOL0     C10736   1.076   7.848   1.865  0.7735 -1.5659  0.2251
  821MOL0     C10737   1.090   7.767   1.997 -0.1985 -0.1164  0.4659
  821MOL0     C10738   1.235   7.731   2.034 -0.5809  0.1463 -0.2064
  821MOL0     C10739   1.240   7.631   2.148 -0.9307 -0.3135 -0.9761
  821MOL0     C10740   1.375   7.561   2.165  0.0076 -0.4436  0.6871
  821MOL0     C10741   1.390   7.459   2.284 -0.3146  0.0057 -0.1593
  821MOL0     C10742   1.403   7.543   2.414 -0.5899 -0.3332  0.1862
  821MOL0     C10743   1.454   7.437   2.519  0.2301 -0.5000  0.9371
  821MOL0    Cl10744   1.536   7.505   2.652 -0.2738  0.5721 -0.0092
  821MOL0     C10745   0.975   7.621   1.720  0.0870 -0.8805 -0.4995
  821MOL0     C10746   0.933   7.503   1.657  0.7112 -0.2169 -0.1882
  821MOL0     O10747   1.029   7.377   1.261 -0.8989 -0.1187  0.0733
  821MOL0     C10748   0.851   7.107   1.411 -0.4427  0.7475  0.8272
  821MOL0     C10749   0.816   6.971   1.385  0.0527  0.8527 -0.2184
  821MOL0     N10750   0.637   6.252   0.895 -0.4334 -0.3040  0.1341
  821MOL0     N10751   0.686   6.207   0.792  0.0264  0.3461 -0.3440
  821MOL0     C10752   1.733   6.086   0.282  0.1542 -0.2243 -0.8269
  821MOL0     C10753   1.856   6.150   0.331  1.0636  0.2022  0.8918
  821MOL0     C10754   2.290   6.189   0.349 -0.0462 -0.1962 -0.4735
  821MOL0     C10755   2.269   6.319   0.397 -0.6229  0.3438  0.0022
  821MOL0     C10756   2.376   6.416   0.368  0.2188  0.0913 -0.3560
  821MOL0     C10757   2.500   6.388   0.321  0.1115  0.3765  1.2075
  821MOL0     O10758   2.586   6.488   0.289 -0.2604  0.1468 -0.0522
  821MOL0     C10759   2.713   6.468   0.215  0.4455  0.1484  0.2651
  821MOL0     C10760   2.806   6.591   0.238  0.6640  0.3475 -0.0701
  821MOL0     C10761   2.777   6.711   0.150  0.2076  0.6629 -0.8720
  821MOL0     C10762   2.907   6.791   0.131  0.1648 -0.0165  0.1524
  821MOL0     C10763   2.880   6.917   0.070 -1.3115  0.3381  0.2318
  821MOL0     C10764   2.840   7.003  -0.003 -0.7210  0.5187  0.1286
  821MOL0     C10765   2.521   6.254   0.283 -0.0687 -0.0382  1.0634
  821MOL0     C10766   2.415   6.156   0.290 -0.5026 -0.4046  0.9144
  821MOL0     C10767   2.458   6.020   0.239 -0.3945  0.2115 -0.3001
  821MOL0     H10768   1.969   5.891   0.522  3.2382  1.7856 -1.3720
  821MOL0     H10769   1.768   5.797   0.469 -2.3108  1.8476  2.5265
  821MOL0     H10770   1.472   6.048   0.236  0.8117 -0.4728 -3.5802
  821MOL0     H10771   1.415   5.905   0.165  0.7255  0.3301  0.3330
  821MOL0     H10772   1.419   5.955   0.465 -0.6697  3.2708 -1.0171
  821MOL0     H10773   1.387   5.799   0.404  2.4577 -0.1019 -0.0536
  821MOL0     H10774   1.206   5.925   0.245 -0.6656  0.5820 -0.7708
  821MOL0     H10775   1.240   6.064   0.325 -0.9791 -0.7506 -0.2921
  821MOL0     H10776   1.048   5.878   0.418  0.1722 -2.9601  2.0543
  821MOL0     H10777   1.194   5.811   0.497 -0.0634  1.7440  4.5762
  821MOL0     H10778   1.082   5.954   0.660 -2.8519 -0.6629 -1.0414
  821MOL0     H10779   1.231   6.026   0.606  0.7055 -0.2522 -3.6722
  821MOL0     H10780   1.131   6.206   0.511 -0.7558  0.6704 -0.1926
  821MOL0     H10781   0.998   6.110   0.441  0.6355  1.7933 -1.2675
  821MOL0     H10782   1.010   6.232   0.727 -0.5659  4.5530 -1.5321
  821MOL0     H10783   0.896   6.099   0.672 -1.1814  1.1283 -0.4975
  821MOL0     H10784   0.895   6.375   0.577  1.4492 -0.6017 -0.2843
  821MOL0     H10785   0.784   6.243   0.530 -1.7293  1.5507  0.5424
  821MOL0     H10786   0.826   6.497   0.805 -0.2935 -0.1682 -4.0428
  821MOL0     H10787   0.600   6.547   1.010  1.2714  0.7854 -0.4664
  821MOL0     H10788   0.610   6.418   1.124  1.5121 -3.2127  0.6735
  821MOL0     H10789   0.871   6.427   1.109 -2.4770 -2.4904  0.7428
  821MOL0     H10790   0.848   6.575   1.028  0.5630 -0.0031  0.8526
  821MOL0     H10791   0.887   6.552   1.283  0.5666 -2.0906 -0.1511
  821MOL0     H10792   0.725   6.495   1.305 -0.9682  0.4240  0.2884
  821MOL0     H10793   0.690   6.729   1.357 -1.1173 -0.0863 -1.8058
  821MOL0     H10794   0.639   6.723   1.195 -0.5873 -2.0902  0.9793
  821MOL0     H10795   0.927   6.950   1.056 -1.1611 -0.6404  0.0135
  821MOL0     H10796   0.947   7.195   1.100  1.7946  0.6633  0.0821
  821MOL0     H10797   1.132   7.546   1.383  0.2539  0.2579 -0.9478
  821MOL0     H10798   1.210   7.725   1.509  0.1566 -2.6609 -3.4203
  821MOL0     H10799   1.112   7.951   1.879 -0.9822 -0.2461 -3.5326
  821MOL0     H10800   0.973   7.865   1.832  2.1730 -0.2670 -4.1353
  821MOL0     H10801   1.047   7.823   2.080  0.6112  0.2717  0.6381
  821MOL0     H10802   1.033   7.674   1.994  0.2167 -0.3876  0.8150
  821MOL0     H10803   1.287   7.687   1.948 -3.5051 -1.1688 -1.4275
  821MOL0     H10804   1.294   7.816   2.069 -0.2989  0.4776 -1.4234
  821MOL0     H10805   1.167   7.550   2.135 -2.0461  0.6997 -1.2147
  821MOL0     H10806   1.229   7.684   2.243  1.5136 -0.9817 -0.2438
  821MOL0     H10807   1.449   7.641   2.159 -3.6673  3.1628 -1.7346
  821MOL0     H10808   1.390   7.510   2.069 -2.7121  0.2321 -0.1629
  821MOL0     H10809   1.292   7.410   2.291  1.1454 -2.9231  1.3751
  821MOL0     H10810   1.468   7.382   2.285  0.9229  1.1943  2.0365
  821MOL0     H10811   1.314   7.596   2.449  0.8216  2.8380 -0.6438
  821MOL0     H10812   1.474   7.625   2.399  0.4779 -0.8276  2.3179
  821MOL0     H10813   1.384   7.354   2.529  0.3353 -1.2216 -2.7803
  821MOL0     H10814   1.540   7.382   2.480  1.7519  2.0604  0.4027
  821MOL0     H10815   0.919   7.631   1.812  1.6223 -4.4613  1.0257
  821MOL0     H10816   0.852   7.442   1.695 -0.4532  1.3552 -0.0573
  821MOL0     H10817   0.829   7.153   1.507 -0.7251 -1.3305  1.8051
  821MOL0     H10818   0.761   6.917   1.461  0.4266  0.7461 -0.0231
  821MOL0     H10819   1.682   6.129   0.197  0.5001 -0.1605 -1.0063
  821MOL0     H10820   1.884   6.252   0.306 -0.1984  0.2825 -0.2795
  821MOL0     H10821   2.179   6.353   0.446  0.5351  5.2351 -0.7415
  821MOL0     H10822   2.361   6.518   0.401 -0.4334 -0.1447  0.0949
  821MOL0     H10823   2.689   6.463   0.108  2.4122  3.0619 -0.4513
  821MOL0     H10824   2.759   6.377   0.253 -1.9094 -2.4045 -2.4766
  821MOL0     H10825   2.903   6.553   0.206  0.1073 -1.4847  0.3074
  821MOL0     H10826   2.807   6.633   0.339 -1.2216  2.0860 -0.6908
  821MOL0     H10827   2.699   6.781   0.181 -1.3857  0.2454 -3.6767
  821MOL0     H10828   2.727   6.682   0.057  1.3002 -2.0736 -0.7111
  821MOL0     H10829   2.964   6.817   0.221 -1.2411 -1.8387  1.6550
  821MOL0     H10830   2.976   6.730   0.072  0.9313  0.4449  0.5550
  821MOL0     H10831   2.806   7.085  -0.064  1.2334  0.9714 -0.4148
  821MOL0     H10832   2.600   6.220   0.218 -0.9476 -3.1577  1.4802
  821MOL0     H10833   2.482   5.956   0.324  3.2587 -0.2557 -1.5127
  821MOL0     H10834   2.386   5.972   0.171 -0.3817  0.0069 -0.1702
  821MOL0     H10835   2.544   6.027   0.171 -1.5609 -0.3270 -1.8883
  822MOL0     O10836   3.357   2.241   0.132  0.5065  0.2672  0.0018
  822MOL0     C10837   3.364   2.161   0.222  1.1564  1.0754  0.6513
  822MOL0     O10838   3.376   2.196   0.357 -0.2068 -0.4786  0.1612
  822MOL0     C10839   3.425   2.320   0.389  0.2219  0.0734  0.0448
  822MOL0     C10840   3.426   2.333   0.533 -0.3309 -0.8418  0.9875
  822MOL0     C10841   3.433   2.461   0.594  0.0940  0.3087  0.1464
  822MOL0     C10842   3.463   2.575   0.512 -0.1247 -0.5367 -0.0303
  822MOL0     O10843   3.481   2.700   0.568  0.0530  0.7772 -0.0576
  822MOL0     C10844   3.379   2.747   0.657  0.1725  0.2603 -0.2003
  822MOL0     C10845   3.344   2.890   0.599  0.1292 -0.6379  0.3675
  822MOL0     C10846   3.464   2.991   0.567  0.4047  0.6789  0.0920
  822MOL0     C10847   3.398   3.126   0.535  0.9093 -1.0445 -0.3614
  822MOL0     C10848   3.377   3.152   0.385 -0.5583  0.3407 -0.1752
  822MOL0     C10849   3.484   3.252   0.346 -0.2827  0.0637  0.3873
  822MOL0     C10850   3.494   3.301   0.189  0.0958  0.2780 -0.0991
  822MOL0     C10851   3.363   3.356   0.126 -0.7859  0.5844 -0.6488
  822MOL0     N10852   3.337   3.323  -0.013  0.1895  0.6890  0.4561
  822MOL0     C10853   3.293   3.391  -0.119  0.0340 -1.3413  0.5848
  822MOL0     C10854   3.251   3.300  -0.212  0.5235 -0.3118  0.2125
  822MOL0     C10855   3.200   3.334  -0.352 -0.2090 -0.3193  0.0742
  822MOL0     C10856   3.049   3.296  -0.370  0.3955 -0.3636  1.3536
  822MOL0     C10857   3.040   3.145  -0.408  0.3989  0.3612  0.8153
  822MOL0     C10858   2.897   3.100  -0.405 -0.1677 -0.2224 -0.3117
  822MOL0     O10859   2.818   3.188  -0.489  0.3798 -0.6882  0.2323
  822MOL0     C10860   2.728   3.145  -0.591 -0.0544  0.3314  0.6411
  822MOL0     C10861   2.605   3.207  -0.596  0.3569 -0.2900  0.5126
  822MOL0     C10862   2.498   3.161  -0.670  0.4403  0.0283 -0.6355
  822MOL0     C10863   2.516   3.046  -0.755  0.1142 -0.8290 -0.3909
  822MOL0     C10864   2.411   2.980  -0.826  1.4635  0.1394 -0.2588
  822MOL0     O10865   2.293   3.051  -0.844 -0.0205  0.9756 -0.5003
  822MOL0     C10866   2.176   3.011  -0.911 -0.7604  0.1127 -0.2005
  822MOL0     C10867   2.147   2.874  -0.920  0.2212  0.3016 -0.3710
  822MOL0     C10868   2.042   2.839  -1.005  0.3983  0.4576  0.1306
  822MOL0     C10869   1.969   2.937  -1.085  0.0558  0.1578  0.3037
  822MOL0     O10870   1.882   2.910  -1.188  0.0702 -0.4834 -0.4411
  822MOL0     C10871   1.885   2.776  -1.240  0.0000  0.2881 -0.7097
  822MOL0     C10872   1.792   2.772  -1.353  0.0777  0.2647  0.0663
  822MOL0     C10873   1.653   2.784  -1.301 -0.6570 -0.2260 -0.1811
  822MOL0     C10874   1.564   2.782  -1.423  0.2407 -0.0691 -0.1189
  822MOL0     C10875   1.414   2.816  -1.384 -0.7474 -0.7594  0.1491
  822MOL0     C10876   1.328   2.839  -1.512  0.4041  0.7934 -0.0223
  822MOL0     C10877   1.344   2.732  -1.619 -0.2751 -0.0219 -0.9946
  822MOL0     C10878   1.334   2.582  -1.569 -0.0286  1.1903 -0.6052
  822MOL0    Cl10879   1.259   2.465  -1.696 -0.1241  0.1444  0.1143
  822MOL0     C10880   1.997   3.071  -1.065 -0.0063 -0.1819  0.0732
  822MOL0     C10881   2.107   3.105  -0.985 -0.2639 -0.6038 -0.6753
  822MOL0     O10882   2.433   2.876  -0.879 -0.2044 -0.0538 -0.3530
  822MOL0     C10883   2.646   2.988  -0.752  0.4175  1.4172 -0.5453
  822MOL0     C10884   2.754   3.038  -0.674  0.2993  0.3820 -0.3430
  822MOL0     N10885   3.275   3.180  -0.158 -0.3412  0.8391  0.6453
  822MOL0     N10886   3.321   3.196  -0.040  0.1673  0.0679 -0.0184
  822MOL0     C10887   3.478   2.563   0.372 -0.7875 -0.2712  0.4312
  822MOL0     C10888   3.464   2.435   0.311 -0.2627 -0.3130  0.3287
  822MOL0     C10889   3.334   2.024   0.184 -0.0228  0.0940 -0.7946
  822MOL0     C10890   3.361   1.929   0.287  0.2844  0.3783 -1.0094
  822MOL0     C10891   3.344   1.791   0.252 -0.0432 -0.2686 -0.2054
  822MOL0     C10892   3.315   1.757   0.124 -0.4447  0.3776 -0.0213
  822MOL0     O10893   3.316   1.618   0.096  1.1388 -0.0932 -0.5767
  822MOL0     C10894   3.296   1.564  -0.035  0.0363 -0.0017 -0.7638
  822MOL0     C10895   3.152   1.535  -0.068 -0.3850  0.3944 -0.4801
  822MOL0     C10896   3.086   1.470   0.063 -0.0764 -0.1729 -0.7433
  822MOL0     C10897   2.933   1.459   0.045  0.6232  1.1607 -0.2105
  822MOL0     C10898   2.883   1.316   0.059 -1.0944 -0.3988  1.1237
  822MOL0     C10899   2.843   1.201   0.072 -0.0652 -0.1188 -0.8316
  822MOL0     C10900   3.293   1.854   0.019 -0.5317  0.4231 -0.1853
  822MOL0     C10901   3.284   1.988   0.056 -0.8627 -0.1553 -0.2746
  822MOL0     C10902   3.240   2.091  -0.052 -1.5967  0.1839  0.2366
  822MOL0     H10903   3.426   2.239   0.588  1.6861 -0.8351  1.0642
  822MOL0     H10904   3.418   2.463   0.701 -0.1318  1.3379  0.1075
  822MOL0     H10905   3.294   2.681   0.638 -1.7352  2.4894  0.1565
  822MOL0     H10906   3.417   2.739   0.759  1.8196 -0.7476 -0.8453
  822MOL0     H10907   3.271   2.925   0.673  1.8565  0.0980  1.7757
  822MOL0     H10908   3.299   2.867   0.502  0.1512 -1.8372  0.6237
  822MOL0     H10909   3.517   2.952   0.480 -0.6025 -0.3905 -0.0640
  822MOL0     H10910   3.541   2.999   0.644  0.9953  0.3576 -0.4492
  822MOL0     H10911   3.303   3.113   0.588  1.8978 -3.4698  0.9348
  822MOL0     H10912   3.463   3.201   0.580  3.1148 -1.1788 -3.0372
  822MOL0     H10913   3.380   3.058   0.330  1.0291  0.0879  0.2921
  822MOL0     H10914   3.274   3.185   0.371 -1.7154 -1.4858  3.0043
  822MOL0     H10915   3.470   3.340   0.410 -3.5725 -1.9979  2.8080
  822MOL0     H10916   3.580   3.208   0.376 -0.4609  0.4154  1.5178
  822MOL0     H10917   3.522   3.206   0.142 -0.0330  0.4601 -0.5498
  822MOL0     H10918   3.569   3.379   0.169  0.2458  0.2177  0.2249
  822MOL0     H10919   3.282   3.318   0.189  1.7271  0.6031  2.9021
  822MOL0     H10920   3.370   3.464   0.143  0.0452  0.1465  2.4523
  822MOL0     H10921   3.277   3.496  -0.138  2.0603 -0.9793  0.6433
  822MOL0     H10922   3.223   3.440  -0.367  1.1253 -0.7652 -1.2441
  822MOL0     H10923   3.254   3.284  -0.433 -0.1413 -0.4017  0.1700
  822MOL0     H10924   2.991   3.316  -0.280 -0.2521 -0.3552  0.9428
  822MOL0     H10925   3.015   3.367  -0.446 -2.8917 -0.9928  2.0796
  822MOL0     H10926   3.107   3.083  -0.348  1.1340  0.8218  0.4878
  822MOL0     H10927   3.075   3.142  -0.512  1.0781 -0.4013  1.0612
  822MOL0     H10928   2.856   3.100  -0.304 -1.7571 -2.5796 -0.8794
  822MOL0     H10929   2.881   2.999  -0.444  1.4078 -0.7524  0.3141
  822MOL0     H10930   2.588   3.292  -0.530 -0.4435  0.0611 -0.1260
  822MOL0     H10931   2.402   3.210  -0.661 -0.3641 -1.1989 -2.0010
  822MOL0     H10932   2.208   2.796  -0.877 -0.8742 -1.1092 -1.3190
  822MOL0     H10933   2.018   2.733  -1.011  1.1539  0.3454 -2.6634
  822MOL0     H10934   1.984   2.755  -1.280 -0.1272  1.9783 -2.0110
  822MOL0     H10935   1.847   2.695  -1.176  2.2340 -0.4641 -0.2639
  822MOL0     H10936   1.813   2.845  -1.432 -2.7587  1.1013 -0.0210
  822MOL0     H10937   1.813   2.670  -1.388  1.4261  0.1802  1.0697
  822MOL0     H10938   1.622   2.689  -1.256 -3.0627 -0.3124 -1.8302
  822MOL0     H10939   1.635   2.876  -1.244 -0.3318  1.6462 -2.9340
  822MOL0     H10940   1.581   2.681  -1.462  3.3766 -0.4130  1.8129
  822MOL0     H10941   1.599   2.854  -1.497  2.6343 -0.3074  0.7151
  822MOL0     H10942   1.405   2.905  -1.320 -0.1544 -2.3388  2.6006
  822MOL0     H10943   1.372   2.733  -1.326  0.9247 -2.6590 -1.2339
  822MOL0     H10944   1.223   2.845  -1.483 -0.0910  1.3143 -1.7924
  822MOL0     H10945   1.358   2.933  -1.561  0.4268 -0.6546 -2.9628
  822MOL0     H10946   1.439   2.748  -1.671  1.2569 -1.9395  0.9595
  822MOL0     H10947   1.272   2.761  -1.695 -0.0432  1.3047 -0.7365
  822MOL0     H10948   1.435   2.548  -1.546 -0.1905  1.3762  0.4281
  822MOL0     H10949   1.269   2.577  -1.481  3.7324 -3.5181  2.4159
  822MOL0     H10950   1.937   3.147  -1.113  0.2639  1.1807  1.7996
  822MOL0     H10951   2.134   3.210  -0.989  0.0561 -0.6765 -0.4679
  822MOL0     H10952   2.667   2.911  -0.825  1.0056  1.0860 -0.0414
  822MOL0     H10953   2.856   3.006  -0.689 -0.8961 -3.1697 -1.8542
  822MOL0     H10954   3.501   2.652   0.315 -0.0558  1.2731  3.0019
  822MOL0     H10955   3.473   2.439   0.203 -0.5963 -1.8303  0.2328
  822MOL0     H10956   3.407   1.959   0.380  0.4306 -0.7115 -0.7170
  822MOL0     H10957   3.356   1.707   0.319  1.1350 -1.1459 -1.4735
  822MOL0     H10958   3.339   1.464  -0.042 -1.1366 -0.4467 -2.6990
  822MOL0     H10959   3.349   1.622  -0.112 -1.3809 -0.3402 -2.0448
  822MOL0     H10960   3.148   1.460  -0.148 -1.7809  0.2907 -0.3390
  822MOL0     H10961   3.109   1.632  -0.097  0.2432  1.5808  2.2985
  822MOL0     H10962   3.095   1.533   0.152 -0.6406  0.9860 -1.4739
  822MOL0     H10963   3.127   1.374   0.093 -3.0633 -1.0006  1.2161
  822MOL0     H10964   2.884   1.509   0.129  3.5481 -0.1359  2.4875
  822MOL0     H10965   2.908   1.506  -0.051  2.0188 -1.3524 -1.9328
  822MOL0     H10966   2.797   1.105   0.081  3.1102 -1.5953  2.2115
  822MOL0     H10967   3.273   1.828  -0.085 -2.1001  2.0959 -0.3580
  822MOL0     H10968   3.181   2.041  -0.129  3.0592 -2.4381 -2.0291
  822MOL0     H10969   3.197   2.186  -0.018  0.8040  1.3899  0.0946
  822MOL0     H10970   3.328   2.107  -0.115 -1.8307 -5.2155 -1.9519
  823MOL0     O10971   9.011   1.393  10.836  0.4331 -0.1482  0.3169
  823MOL0     C10972   8.961   1.304  10.903 -1.2931  0.1502  0.1650
  823MOL0     O10973   8.838   1.312  10.952  0.2659  0.5527 -0.0365
  823MOL0     C10974   8.754   1.413  10.917  0.2048 -0.0532 -0.2800
  823MOL0     C10975   8.721   1.502  11.018  0.3415 -0.7384  0.4680
  823MOL0     C10976   8.649   1.618  10.988 -0.4233 -0.7579 -0.3042
  823MOL0     C10977   8.602   1.633  10.866  1.0426  0.0931  0.3148
  823MOL0     O10978   8.525   1.745  10.841  0.3043  0.1639  0.0785
  823MOL0     C10979   8.388   1.748  10.885 -0.1277  0.7509 -0.2015
  823MOL0     C10980   8.374   1.768  11.034 -0.3762 -1.1149 -0.3159
  823MOL0     C10981   8.232   1.804  11.072  0.2422 -0.0702  0.4998
  823MOL0     C10982   8.147   1.678  11.042  0.8292 -0.4256  0.6463
  823MOL0     C10983   7.997   1.680  11.070 -0.8042 -0.7412  0.1663
  823MOL0     C10984   7.952   1.532  11.081  0.5256  0.0092  0.6177
  823MOL0     C10985   7.806   1.545  11.099 -0.3247  0.1321 -0.0877
  823MOL0     C10986   7.730   1.492  10.980  0.5597 -0.8921 -0.1212
  823MOL0     N10987   7.745   1.581  10.865 -0.0953 -0.2125  0.0340
  823MOL0     C10988   7.772   1.538  10.738 -0.0133 -0.6365  0.2372
  823MOL0     C10989   7.762   1.647  10.660  0.6131 -0.6562 -0.6154
  823MOL0     C10990   7.764   1.661  10.514 -1.1984  0.4882  0.5071
  823MOL0     C10991   7.635   1.637  10.435  0.6045 -0.4035 -0.3066
  823MOL0     C10992   7.516   1.733  10.467  0.7265 -0.0241  0.0145
  823MOL0     C10993   7.400   1.659  10.395  0.7071 -0.3178 -0.0639
  823MOL0     O10994   7.272   1.725  10.384 -0.2001  0.3155  1.0997
  823MOL0     C10995   7.259   1.814  10.274  0.2151  0.1289  0.4499
  823MOL0     C10996   7.170   1.774  10.169 -0.7504 -0.5696  0.0609
  823MOL0     C10997   7.155   1.856  10.058  0.8293  0.1749 -0.4659
  823MOL0     C10998   7.224   1.981  10.045 -0.3644 -0.3097  0.1267
  823MOL0     C10999   7.214   2.068   9.926 -0.2545 -0.2135  0.9391
  823MOL0     O11000   7.177   2.021   9.805 -0.0741  0.1432 -0.2019
  823MOL0     C11001   7.163   2.100   9.695  0.3450  0.0981  0.5744
  823MOL0     C11002   7.267   2.170   9.652  0.1031  0.3699  0.2213
  823MOL0     C11003   7.251   2.279   9.568  0.1899 -0.4517 -0.3833
  823MOL0     C11004   7.122   2.301   9.520  0.8618  0.4398  0.4351
  823MOL0     O11005   7.081   2.399   9.429  0.1594  0.2075 -0.6799
  823MOL0     C11006   7.187   2.446   9.342  0.9252 -0.0396 -1.1683
  823MOL0     C11007   7.219   2.339   9.232  0.6020 -0.0480 -0.0892
  823MOL0     C11008   7.302   2.408   9.117 -1.2547  0.6587  0.1811
  823MOL0     C11009   7.322   2.302   9.002  0.4336  0.5783 -0.4143
  823MOL0     C11010   7.414   2.365   8.903 -1.3255  0.0212  0.0370
  823MOL0     C11011   7.407   2.285   8.775  0.2203  0.7736  0.5952
  823MOL0     C11012   7.473   2.350   8.658  0.4282  0.5446  0.2869
  823MOL0     C11013   7.629   2.371   8.666 -0.6288  0.2600 -0.8288
  823MOL0    Cl11014   7.714   2.202   8.678  0.0832 -0.1477  0.1409
  823MOL0     C11015   7.020   2.221   9.551  0.4712  0.2283  0.0258
  823MOL0     C11016   7.039   2.117   9.642  0.0096  0.4832  0.4317
  823MOL0     O11017   7.229   2.189   9.949  0.7560  0.2316  0.2703
  823MOL0     C11018   7.313   2.021  10.151 -0.8491 -0.4905 -0.3264
  823MOL0     C11019   7.332   1.934  10.263 -0.0930  0.7368 -0.3818
  823MOL0     N11020   7.720   1.749  10.741 -0.2146 -0.2626  0.5996
  823MOL0     N11021   7.720   1.716  10.863 -0.6431  0.4166  0.2138
  823MOL0     C11022   8.623   1.547  10.761 -0.1936  0.7650  0.7510
  823MOL0     C11023   8.709   1.437  10.791  0.2673 -0.2382  0.1745
  823MOL0     C11024   9.029   1.176  10.929  0.0558 -0.2287  0.4354
  823MOL0     C11025   8.951   1.069  10.940  0.4932 -0.0955  0.1533
  823MOL0     C11026   9.009   0.951  10.978 -0.9469 -0.2518 -0.4841
  823MOL0     C11027   9.144   0.919  10.981  0.5486 -0.7396  0.7324
  823MOL0     O11028   9.202   0.800  11.012  0.2270 -0.9866 -0.0841
  823MOL0     C11029   9.134   0.678  11.039  0.1574 -0.6277 -0.6231
  823MOL0     C11030   9.244   0.571  11.067 -0.0481  0.3695  0.6117
  823MOL0     C11031   9.218   0.442  10.987 -0.2015 -0.2248  0.5673
  823MOL0     C11032   9.263   0.433  10.839 -1.1138 -0.2104 -0.1953
  823MOL0     C11033   9.193   0.516  10.743  0.3573 -0.4024  0.4230
  823MOL0     C11034   9.135   0.580  10.661 -1.1244 -0.8563  0.2532
  823MOL0     C11035   9.224   1.035  10.961  0.8898 -0.5714  0.4240
  823MOL0     C11036   9.169   1.158  10.934  0.7219 -0.2076  0.7261
  823MOL0     C11037   9.260   1.277  10.893 -0.0200 -0.0720 -0.1686
  823MOL0     H11038   8.755   1.492  11.120  0.3695  2.7019  0.9273
  823MOL0     H11039   8.633   1.695  11.063  2.8984  1.5680 -1.7599
  823MOL0     H11040   8.337   1.825  10.827  0.9254  0.8890 -0.9771
  823MOL0     H11041   8.364   1.646  10.854  2.9590 -0.0055 -0.3901
  823MOL0     H11042   8.436   1.854  11.062 -1.3933 -0.2008 -0.7674
  823MOL0     H11043   8.399   1.680  11.093 -2.3650 -1.1321  0.6110
  823MOL0     H11044   8.186   1.882  11.010  1.8673  0.7814  0.3135
  823MOL0     H11045   8.234   1.846  11.173  1.1077  3.3030 -0.7845
  823MOL0     H11046   8.163   1.636  10.942  1.1195  1.0899  0.0376
  823MOL0     H11047   8.192   1.606  11.111  1.9725 -0.5718 -0.2209
  823MOL0     H11048   7.967   1.726  11.165 -0.7918  0.1726 -0.2579
  823MOL0     H11049   7.939   1.735  10.995  0.6043 -1.8183 -1.8049
  823MOL0     H11050   7.982   1.481  10.989  1.5720  3.1246 -0.9420
  823MOL0     H11051   7.998   1.487  11.169  1.4105  2.2535  1.3692
  823MOL0     H11052   7.773   1.646  11.125  1.1273  0.2426  1.5181
  823MOL0     H11053   7.792   1.480  11.186  3.8791  0.8384  1.3500
  823MOL0     H11054   7.773   1.392  10.962  0.0753 -1.2250  0.5473
  823MOL0     H11055   7.624   1.483  11.006  0.1681  0.3394 -1.2065
  823MOL0     H11056   7.782   1.436  10.702 -2.4455 -0.5212 -1.0179
  823MOL0     H11057   7.802   1.760  10.487 -0.6440 -0.2649 -1.7250
  823MOL0     H11058   7.850   1.601  10.485 -1.5040 -0.5001  1.5731
  823MOL0     H11059   7.660   1.649  10.330 -2.8774  4.2292 -0.9367
  823MOL0     H11060   7.606   1.533  10.454 -1.5549  0.1220 -0.4183
  823MOL0     H11061   7.547   1.830  10.428  0.9586 -0.6998 -1.5860
  823MOL0     H11062   7.484   1.740  10.571 -2.0238  1.3707 -0.8083
  823MOL0     H11063   7.365   1.569  10.447  1.4431 -0.6107 -0.0644
  823MOL0     H11064   7.435   1.632  10.295  1.8974  2.1134 -0.3675
  823MOL0     H11065   7.118   1.679  10.175 -0.4838 -0.6298  2.3826
  823MOL0     H11066   7.091   1.829   9.974 -2.8288 -0.4052  2.2767
  823MOL0     H11067   7.360   2.155   9.706  0.5011  1.9485  0.0252
  823MOL0     H11068   7.329   2.352   9.548 -0.4985  0.6087  0.6126
  823MOL0     H11069   7.146   2.533   9.290 -3.0257 -2.6706 -2.9154
  823MOL0     H11070   7.270   2.483   9.403  0.7875  0.4700 -1.2874
  823MOL0     H11071   7.272   2.252   9.272 -0.6797 -0.2824  1.1926
  823MOL0     H11072   7.129   2.307   9.178  2.3726 -1.5996 -2.2952
  823MOL0     H11073   7.246   2.498   9.091 -1.6230  0.7618  1.2445
  823MOL0     H11074   7.401   2.421   9.162 -0.6495 -0.3095 -0.8341
  823MOL0     H11075   7.232   2.262   8.955  1.1183 -0.5213 -0.8295
  823MOL0     H11076   7.365   2.211   9.045  0.2451  1.0484  0.8314
  823MOL0     H11077   7.516   2.365   8.942  0.0639 -3.9884 -2.9465
  823MOL0     H11078   7.374   2.466   8.891  1.3969  1.0577 -1.2369
  823MOL0     H11079   7.448   2.186   8.797  0.6323  1.3154  2.4155
  823MOL0     H11080   7.303   2.262   8.750 -0.6622  2.5825  2.3020
  823MOL0     H11081   7.433   2.450   8.641  0.2643  0.2767 -0.9886
  823MOL0     H11082   7.449   2.287   8.572 -1.7889  0.7874  0.6654
  823MOL0     H11083   7.661   2.428   8.578  1.1699 -3.4865 -2.8082
  823MOL0     H11084   7.661   2.424   8.756  4.1503 -1.4266 -1.2102
  823MOL0     H11085   6.921   2.243   9.512  1.7924  1.9221 -2.6474
  823MOL0     H11086   6.961   2.052   9.681 -1.0327  0.2472 -1.8438
  823MOL0     H11087   7.387   2.098  10.135  0.3574 -1.9597 -2.1952
  823MOL0     H11088   7.391   1.957  10.350 -2.7166  2.2893  1.1316
  823MOL0     H11089   8.592   1.561  10.658 -0.5011 -0.3924  0.6691
  823MOL0     H11090   8.753   1.383  10.707 -0.9101 -0.5467 -0.2620
  823MOL0     H11091   8.843   1.075  10.930  0.1596 -1.5134  2.1108
  823MOL0     H11092   8.943   0.868  11.003 -2.1358  1.3817  2.3002
  823MOL0     H11093   9.071   0.648  10.955 -2.0414 -0.7098  0.9748
  823MOL0     H11094   9.066   0.688  11.124 -0.2647 -1.1395 -0.8993
  823MOL0     H11095   9.234   0.524  11.165  1.1801 -0.4766  0.3495
  823MOL0     H11096   9.347   0.606  11.056  0.6746 -2.0260 -1.0419
  823MOL0     H11097   9.112   0.416  10.995 -0.6784  0.4844 -2.4293
  823MOL0     H11098   9.274   0.362  11.038  0.2960  1.4457  2.7926
  823MOL0     H11099   9.365   0.474  10.844 -0.9311 -0.4719 -1.4616
  823MOL0     H11100   9.276   0.330  10.803 -0.2433  0.8108 -3.0998
  823MOL0     H11101   9.087   0.640  10.587 -3.5996 -1.8995  0.8814
  823MOL0     H11102   9.330   1.012  10.951  0.4166 -2.6053 -0.4016
  823MOL0     H11103   9.365   1.270  10.921  0.4101 -0.3333 -1.7296
  823MOL0     H11104   9.243   1.315  10.791  0.6307  0.7471  0.0157
  823MOL0     H11105   9.232   1.361  10.957  0.6597 -2.6239  3.8141
  824MOL0     O11106   8.782   1.809   6.912  0.6718 -0.3260  0.7094
  824MOL0     C11107   8.773   1.854   6.798  0.3205 -0.4267  0.1835
  824MOL0     O11108   8.865   1.941   6.741 -0.2063  0.2127  0.4987
  824MOL0     C11109   8.978   1.980   6.799 -0.1106 -0.7612  0.1787
  824MOL0     C11110   9.029   2.104   6.755  0.3639  0.1062 -0.0255
  824MOL0     C11111   9.153   2.144   6.804 -0.8244  0.1109  0.1463
  824MOL0     C11112   9.232   2.072   6.891  0.3438  0.0037 -0.7357
  824MOL0     O11113   9.352   2.126   6.922 -0.8784 -0.1027  0.0148
  824MOL0     C11114   9.471   2.047   6.949  1.3348 -0.9206  0.3668
  824MOL0     C11115   9.564   2.020   6.825  0.7771 -0.8304 -0.7567
  824MOL0     C11116   9.645   2.149   6.787 -0.5399 -0.4466 -0.2368
  824MOL0     C11117   9.540   2.262   6.745 -0.4461 -0.3801  0.0726
  824MOL0     C11118   9.611   2.364   6.661 -0.0536  0.5953 -0.4915
  824MOL0     C11119   9.520   2.480   6.621  0.5872  0.4449  0.4476
  824MOL0     C11120   9.584   2.581   6.520  0.5115  0.2563  0.4392
  824MOL0     C11121   9.528   2.725   6.534  0.0831 -1.2044  0.2706
  824MOL0     N11122   9.610   2.825   6.455  0.5494 -1.1911 -1.9987
  824MOL0     C11123   9.714   2.899   6.510  1.0314  0.3201  0.1624
  824MOL0     C11124   9.772   2.961   6.408  0.1827 -0.7197  0.3296
  824MOL0     C11125   9.909   3.033   6.414  0.2424 -0.2417  0.2045
  824MOL0     C11126   9.891   3.186   6.376  1.4665 -0.5763 -0.5420
  824MOL0     C11127  10.022   3.260   6.345  0.4707 -0.1863 -0.1827
  824MOL0     C11128  10.099   3.203   6.228  0.8721 -0.4036  0.8715
  824MOL0     O11129  10.196   3.091   6.266  0.0913 -0.6909  0.1278
  824MOL0     C11130  10.294   3.112   6.359  0.0066 -0.2973 -0.2678
  824MOL0     C11131  10.334   3.004   6.434  0.2120  0.9806 -0.4719
  824MOL0     C11132  10.429   3.010   6.528 -0.0391  0.8215 -0.2601
  824MOL0     C11133  10.503   3.127   6.546 -0.2359  0.4635 -0.8526
  824MOL0     C11134  10.611   3.140   6.653 -0.6844 -0.1615 -0.2670
  824MOL0     O11135  10.680   3.256   6.651 -0.7208  0.1247 -0.1792
  824MOL0     C11136  10.764   3.294   6.759  0.4929 -0.8555 -0.0837
  824MOL0     C11137  10.886   3.364   6.734 -0.0276  0.3787  0.2346
  824MOL0     C11138  10.977   3.398   6.839 -0.1678  1.0057 -0.2388
  824MOL0     C11139  10.937   3.366   6.975  0.5488  0.2726 -0.5088
  824MOL0     O11140  11.027   3.398   7.078 -0.4630  0.1922  0.6444
  824MOL0     C11141  11.074   3.530   7.077 -0.0922  0.6685 -0.7135
  824MOL0     C11142  11.016   3.615   7.195 -0.1398 -0.3394  0.1212
  824MOL0     C11143  10.869   3.649   7.181 -0.2831 -0.3084 -0.4000
  824MOL0     C11144  10.832   3.760   7.287 -0.4334 -0.0348 -0.2456
  824MOL0     C11145  10.684   3.797   7.299  0.4247  0.4525  0.4608
  824MOL0     C11146  10.623   3.854   7.172 -0.0044  0.2313 -0.4926
  824MOL0     C11147  10.470   3.873   7.163 -0.2848 -0.5713  0.6420
  824MOL0     C11148  10.431   3.957   7.277  0.5332 -0.7655 -0.2376
  824MOL0    Cl11149  10.282   4.052   7.222  0.8263 -0.0468 -0.0832
  824MOL0     C11150  10.812   3.316   6.996  0.3806 -1.2197 -0.0518
  824MOL0     C11151  10.728   3.284   6.890 -0.4829 -0.1060 -0.5220
  824MOL0     O11152  10.638   3.044   6.727 -0.1100 -0.0172  0.7827
  824MOL0     C11153  10.478   3.235   6.458  0.1513  0.2262 -0.3031
  824MOL0     C11154  10.370   3.231   6.377 -0.3337 -0.7146 -0.5577
  824MOL0     N11155   9.683   2.950   6.310  0.4274  0.2501  0.8942
  824MOL0     N11156   9.584   2.875   6.334 -0.8154  0.1256  0.2639
  824MOL0     C11157   9.189   1.943   6.928  0.0140  0.2766  0.0795
  824MOL0     C11158   9.067   1.903   6.879 -0.1126  0.4216  0.0483
  824MOL0     C11159   8.655   1.824   6.713 -0.1411  0.1882  0.2742
  824MOL0     C11160   8.615   1.929   6.623  0.2995  0.1488  0.9138
  824MOL0     C11161   8.520   1.894   6.523 -0.0354  0.0714  0.4231
  824MOL0     C11162   8.459   1.767   6.519  0.8669  1.2692 -0.2266
  824MOL0     O11163   8.351   1.739   6.440 -0.4598  0.1177 -0.5676
  824MOL0     C11164   8.262   1.852   6.416  0.0597  1.4728  0.1771
  824MOL0     C11165   8.118   1.810   6.391 -0.5184  0.0253 -0.5718
  824MOL0     C11166   8.046   1.757   6.527  0.7017  1.5651  0.1506
  824MOL0     C11167   7.896   1.698   6.503 -0.3103  0.4657  1.0048
  824MOL0     C11168   7.859   1.581   6.575  0.7388 -0.0206  0.0228
  824MOL0     C11169   7.851   1.487   6.654  0.2930 -0.6637  0.6213
  824MOL0     C11170   8.514   1.670   6.602  0.0387  0.9592  0.1695
  824MOL0     C11171   8.606   1.693   6.701 -0.0990  0.7494 -0.0776
  824MOL0     C11172   8.651   1.573   6.794  0.9075  0.5536  0.5539
  824MOL0     H11173   8.979   2.162   6.678  0.2345 -0.5374 -0.4344
  824MOL0     H11174   9.190   2.243   6.779  1.5774 -0.3346  1.5869
  824MOL0     H11175   9.524   2.102   7.027 -1.2117  0.5236  1.1631
  824MOL0     H11176   9.448   1.953   7.000  0.9476 -1.2588 -0.4055
  824MOL0     H11177   9.501   1.991   6.740 -0.1238 -3.2963  0.6533
  824MOL0     H11178   9.635   1.941   6.849  1.0641  0.4171  3.1260
  824MOL0     H11179   9.714   2.131   6.704 -3.0655 -2.0250 -2.1781
  824MOL0     H11180   9.698   2.189   6.874 -0.7867 -1.9244  0.6295
  824MOL0     H11181   9.458   2.215   6.690  0.7202  0.7645 -2.8468
  824MOL0     H11182   9.502   2.308   6.837  1.4381  2.2895 -0.3718
  824MOL0     H11183   9.699   2.404   6.710 -0.3083 -0.4647  0.8934
  824MOL0     H11184   9.645   2.313   6.570 -0.1365 -1.1536  0.4267
  824MOL0     H11185   9.431   2.440   6.571  2.1858 -1.5038 -1.0209
  824MOL0     H11186   9.481   2.535   6.706  0.0031  1.1021 -0.2294
  824MOL0     H11187   9.573   2.548   6.416  0.4046 -0.5370  0.6904
  824MOL0     H11188   9.693   2.578   6.528  0.3887 -0.7244  2.3899
  824MOL0     H11189   9.424   2.727   6.499  0.3887  0.3283 -0.6162
  824MOL0     H11190   9.525   2.763   6.636 -1.0789 -3.0217  0.9791
  824MOL0     H11191   9.761   2.881   6.606 -0.5808 -3.4389  0.4225
  824MOL0     H11192   9.965   3.026   6.507  1.5708  1.7889 -0.3699
  824MOL0     H11193   9.958   2.984   6.329 -3.4297 -2.5003 -0.8535
  824MOL0     H11194   9.826   3.191   6.288  2.5123 -0.7278 -1.3599
  824MOL0     H11195   9.835   3.241   6.452 -1.4058  1.0735 -3.5880
  824MOL0     H11196  10.076   3.251   6.440 -1.3587 -0.4170  0.8697
  824MOL0     H11197  10.011   3.368   6.330  0.7768 -0.5121 -3.6630
  824MOL0     H11198  10.129   3.279   6.155 -0.1029 -1.2998 -0.4809
  824MOL0     H11199  10.020   3.148   6.178  0.6090  0.7773 -0.0529
  824MOL0     H11200  10.289   2.906   6.422  1.0623  0.4495  0.4744
  824MOL0     H11201  10.460   2.918   6.577  0.8068 -1.3269 -4.3579
  824MOL0     H11202  10.908   3.416   6.641  3.5592 -2.3492 -0.7035
  824MOL0     H11203  11.070   3.433   6.795  0.1027  0.6500  0.0363
  824MOL0     H11204  11.183   3.526   7.090  0.2897 -0.3903 -3.5717
  824MOL0     H11205  11.064   3.580   6.981 -0.8435  1.9848  0.0284
  824MOL0     H11206  11.033   3.574   7.295 -2.2061  1.6593  1.4014
  824MOL0     H11207  11.073   3.709   7.192  0.2133 -0.5678 -0.5730
  824MOL0     H11208  10.845   3.683   7.080 -0.8781  0.1622 -0.1062
  824MOL0     H11209  10.812   3.557   7.200  0.5393 -0.5514  1.0299
  824MOL0     H11210  10.884   3.855   7.273 -0.4065  0.0804  0.6106
  824MOL0     H11211  10.866   3.713   7.379  1.9780  1.8174 -0.1091
  824MOL0     H11212  10.671   3.873   7.376 -2.0522  1.3500 -0.7172
  824MOL0     H11213  10.623   3.706   7.313 -3.2174  2.9125  2.1603
  824MOL0     H11214  10.673   3.951   7.164  0.5507 -0.1700 -2.3675
  824MOL0     H11215  10.659   3.794   7.087 -0.7690  0.9222 -1.3222
  824MOL0     H11216  10.416   3.779   7.157 -2.5364  0.7438 -3.3397
  824MOL0     H11217  10.454   3.944   7.081  0.3330 -0.3016  0.7413
  824MOL0     H11218  10.419   3.900   7.370 -2.8679  2.6627  1.7159
  824MOL0     H11219  10.499   4.036   7.310 -0.1543 -0.5227  0.6402
  824MOL0     H11220  10.770   3.305   7.095  0.1853 -2.2111 -0.2322
  824MOL0     H11221  10.629   3.250   6.919  0.0124  0.6912  2.5067
  824MOL0     H11222  10.540   3.324   6.453 -1.9722  1.8127  0.3518
  824MOL0     H11223  10.357   3.318   6.313  1.5021  0.3011  0.3582
  824MOL0     H11224   9.238   1.883   7.004  3.2295  3.4474  0.7782
  824MOL0     H11225   9.042   1.799   6.897  3.3080 -0.6982 -0.9466
  824MOL0     H11226   8.655   2.027   6.602 -0.0346 -0.7574 -6.5841
  824MOL0     H11227   8.503   1.977   6.455  0.2402 -1.6245 -1.8772
  824MOL0     H11228   8.299   1.912   6.332 -0.1154  1.5858  0.1802
  824MOL0     H11229   8.254   1.924   6.499  1.5174  1.8995 -0.0276
  824MOL0     H11230   8.110   1.734   6.312  1.1517  0.9877 -1.7148
  824MOL0     H11231   8.051   1.890   6.359  0.4232  0.2038 -2.1984
  824MOL0     H11232   8.041   1.835   6.604  1.5550  0.3102  1.5150
  824MOL0     H11233   8.096   1.668   6.566 -2.6521 -1.5784 -2.0519
  824MOL0     H11234   7.818   1.770   6.532 -1.6450 -1.1367  1.5321
  824MOL0     H11235   7.890   1.673   6.397  1.5966  0.1755  0.9282
  824MOL0     H11236   7.833   1.405   6.720  1.6583 -0.5072  1.2292
  824MOL0     H11237   8.467   1.572   6.609  1.6746  0.1483  0.3559
  824MOL0     H11238   8.598   1.584   6.889 -0.1291 -2.9025  0.5026
  824MOL0     H11239   8.605   1.487   6.744  0.6809  0.5916  0.6931
  824MOL0     H11240   8.757   1.549   6.807  0.6554 -0.4538  0.9082
  825MOL0     O11241   4.822   0.411   5.420 -0.3937  0.0690  0.0077
  825MOL0     C11242   4.765   0.415   5.316 -0.2255 -0.5252  0.2357
  825MOL0     O11243   4.823   0.361   5.196 -0.8734  0.4129 -0.0448
  825MOL0     C11244   4.939   0.283   5.187  0.3888  0.9678 -0.6501
  825MOL0     C11245   5.003   0.271   5.070 -0.2291 -0.4863  0.4323
  825MOL0     C11246   5.111   0.186   5.059  0.7786  0.2870  0.5102
  825MOL0     C11247   5.163   0.114   5.165 -0.1108  0.4678 -0.2250
  825MOL0     O11248   5.272   0.039   5.138 -0.4824  0.6251 -0.0861
  825MOL0     C11249   5.257  -0.097   5.181  0.3505 -0.8733 -0.7124
  825MOL0     C11250   5.361  -0.119   5.290  0.1790  1.0509 -0.2240
  825MOL0     C11251   5.346  -0.266   5.340  0.0223  0.5270  0.5897
  825MOL0     C11252   5.420  -0.360   5.245  0.7902 -0.0659  0.1727
  825MOL0     C11253   5.404  -0.507   5.272 -0.5903  0.1927 -0.3409
  825MOL0     C11254   5.506  -0.582   5.171  0.1586 -0.5216 -0.9706
  825MOL0     C11255   5.461  -0.607   5.032  0.3001 -1.2056 -0.0960
  825MOL0     C11256   5.583  -0.683   4.967 -0.4785  0.2821  0.5538
  825MOL0     N11257   5.567  -0.732   4.823 -1.0178  0.4765 -0.1049
  825MOL0     C11258   5.644  -0.678   4.721  0.1548 -0.4509 -0.0105
  825MOL0     C11259   5.616  -0.756   4.618 -0.6127  0.1062  0.4805
  825MOL0     C11260   5.671  -0.737   4.480  0.8312 -0.0579  0.4622
  825MOL0     C11261   5.818  -0.771   4.459  0.1630 -0.6397  0.2272
  825MOL0     C11262   5.828  -0.924   4.460 -0.2975  0.5719 -0.1720
  825MOL0     C11263   5.971  -0.979   4.448 -0.3266  0.1002 -1.2126
  825MOL0     O11264   6.042  -1.010   4.572  0.3643 -0.3704 -0.4654
  825MOL0     C11265   6.161  -1.079   4.572 -0.1456 -0.5239  0.3378
  825MOL0     C11266   6.223  -1.110   4.690  0.1927 -1.0126  0.3750
  825MOL0     C11267   6.344  -1.166   4.695  0.6219  0.1406 -0.5073
  825MOL0     C11268   6.416  -1.202   4.579 -0.1787 -0.7969  0.4430
  825MOL0     C11269   6.571  -1.232   4.572  0.1695  0.0819  0.8045
  825MOL0     O11270   6.630  -1.222   4.442 -0.3808 -0.0992 -0.3341
  825MOL0     C11271   6.761  -1.261   4.414  0.4618 -0.4430 -0.0212
  825MOL0     C11272   6.816  -1.367   4.475 -0.2134  0.4628 -0.0788
  825MOL0     C11273   6.945  -1.406   4.446 -1.1931  0.1066 -0.1846
  825MOL0     C11274   7.022  -1.333   4.357  0.7379 -0.3306  0.3633
  825MOL0     O11275   7.150  -1.346   4.326 -0.0243 -0.1401 -0.3259
  825MOL0     C11276   7.211  -1.481   4.343 -0.2496  0.3297 -0.4168
  825MOL0     C11277   7.198  -1.558   4.213  0.7762  0.7635 -0.2887
  825MOL0     C11278   7.279  -1.481   4.102  0.9653  0.0981  0.3609
  825MOL0     C11279   7.196  -1.420   3.984  0.4264  0.1215  0.0560
  825MOL0     C11280   7.285  -1.370   3.872  0.2423  0.1126  0.2118
  825MOL0     C11281   7.375  -1.491   3.805  0.6176 -0.5665  0.2929
  825MOL0     C11282   7.494  -1.438   3.720 -0.2955  0.4036  0.0997
  825MOL0     C11283   7.574  -1.556   3.670 -0.0689  0.2893 -0.6568
  825MOL0    Cl11284   7.708  -1.525   3.564 -0.5268  0.0338  0.0207
  825MOL0     C11285   6.957  -1.239   4.277  0.0619 -0.5681  0.8626
  825MOL0     C11286   6.832  -1.195   4.312  0.2819  0.5628  0.3024
  825MOL0     O11287   6.627  -1.278   4.673  0.1566 -0.1787  0.2605
  825MOL0     C11288   6.354  -1.180   4.460 -0.3718  0.1340 -0.0500
  825MOL0     C11289   6.223  -1.127   4.455  0.0134 -0.2494  0.4374
  825MOL0     N11290   5.531  -0.857   4.650  0.6965 -0.1688 -0.2995
  825MOL0     N11291   5.502  -0.843   4.781  0.3279 -0.8572 -0.8085
  825MOL0     C11292   5.100   0.125   5.285 -0.5704 -0.0534 -0.6256
  825MOL0     C11293   4.995   0.215   5.294 -0.0017  0.3413 -0.4026
  825MOL0     C11294   4.639   0.496   5.294  0.0109  0.0578  0.1014
  825MOL0     C11295   4.585   0.497   5.162  0.9908  0.9434 -0.1147
  825MOL0     C11296   4.465   0.562   5.129  0.2109 -0.5934  0.6745
  825MOL0     C11297   4.390   0.627   5.225 -0.7564  0.2881 -0.0685
  825MOL0     O11298   4.255   0.655   5.202 -0.1683 -0.0066  0.3019
  825MOL0     C11299   4.231   0.724   5.072 -0.5647 -0.0342  0.4768
  825MOL0     C11300   4.145   0.843   5.099  0.1944  0.3277 -0.0996
  825MOL0     C11301   4.205   0.984   5.157  0.6060 -0.8952 -0.0630
  825MOL0     C11302   4.233   0.980   5.311  0.7586 -0.3769  0.2553
  825MOL0     C11303   4.265   1.119   5.353  0.2255 -0.0076  0.0685
  825MOL0     C11304   4.277   1.231   5.387 -0.7025  0.1198  0.2429
  825MOL0     C11305   4.433   0.624   5.353  1.1182 -0.1838 -0.6081
  825MOL0     C11306   4.555   0.564   5.386  0.1627 -0.2325 -0.2841
  825MOL0     C11307   4.591   0.581   5.536 -0.2946  0.7498 -0.4093
  825MOL0     H11308   4.958   0.320   4.984  0.8089 -0.5432 -0.1577
  825MOL0     H11309   5.166   0.190   4.965  1.1454 -1.6675  0.6080
  825MOL0     H11310   5.156  -0.122   5.215  1.6630 -2.4974  2.3143
  825MOL0     H11311   5.286  -0.165   5.100 -1.0714  0.5290 -2.4855
  825MOL0     H11312   5.348  -0.040   5.364  1.6104  2.1674 -1.0969
  825MOL0     H11313   5.462  -0.116   5.249 -0.0926 -2.8486 -1.6236
  825MOL0     H11314   5.240  -0.293   5.345 -0.1304 -0.1225 -3.1315
  825MOL0     H11315   5.385  -0.272   5.442  1.2840 -0.6715  0.0565
  825MOL0     H11316   5.401  -0.334   5.140  3.4500  3.8158  0.4546
  825MOL0     H11317   5.528  -0.346   5.257  0.7887 -0.5044  0.7191
  825MOL0     H11318   5.435  -0.534   5.373 -1.7993  1.8307  0.5165
  825MOL0     H11319   5.301  -0.530   5.246  0.2773 -0.4303 -3.7450
  825MOL0     H11320   5.599  -0.525   5.181 -0.2488 -0.1988  1.8278
  825MOL0     H11321   5.527  -0.681   5.212  0.5401  0.7078  2.1520
  825MOL0     H11322   5.447  -0.506   4.991  2.4297 -0.1355  1.6193
  825MOL0     H11323   5.364  -0.653   5.011 -0.4980  1.3818 -2.8081
  825MOL0     H11324   5.668  -0.614   4.972  0.6679 -1.1559  1.7971
  825MOL0     H11325   5.600  -0.770   5.031 -1.3979  0.8234  1.5644
  825MOL0     H11326   5.704  -0.592   4.747 -0.0458 -0.1954 -0.3898
  825MOL0     H11327   5.614  -0.795   4.408 -0.2192 -0.8535  1.8847
  825MOL0     H11328   5.670  -0.630   4.456 -0.7113  0.2930  1.8710
  825MOL0     H11329   5.856  -0.739   4.362 -1.3384 -0.4964 -0.3436
  825MOL0     H11330   5.879  -0.725   4.538  3.3907 -1.1379 -1.7803
  825MOL0     H11331   5.753  -0.964   4.392 -1.8923 -1.8576  2.7357
  825MOL0     H11332   5.789  -0.952   4.559 -0.7172  2.3281  0.1907
  825MOL0     H11333   6.032  -0.895   4.414  1.6473  0.6561  3.0333
  825MOL0     H11334   5.985  -1.074   4.395  2.0688 -1.6696  2.1731
  825MOL0     H11335   6.185  -1.076   4.786 -0.7114 -0.8763 -0.0206
  825MOL0     H11336   6.411  -1.178   4.780  4.6885  0.3157 -3.4155
  825MOL0     H11337   6.752  -1.433   4.532 -0.3585  0.9308  0.3022
  825MOL0     H11338   6.994  -1.495   4.484  0.5114  0.2830 -1.8697
  825MOL0     H11339   7.317  -1.461   4.356 -0.3844 -0.6223  3.1973
  825MOL0     H11340   7.182  -1.542   4.429 -0.6361  1.7564  0.4989
  825MOL0     H11341   7.230  -1.661   4.234  0.6339  0.7629 -0.0719
  825MOL0     H11342   7.094  -1.557   4.179  0.4329 -0.5189  0.6526
  825MOL0     H11343   7.344  -1.403   4.141  1.0447  0.1989  0.0276
  825MOL0     H11344   7.344  -1.562   4.066  0.2068 -1.5649  2.5094
  825MOL0     H11345   7.144  -1.328   4.015  1.5118  1.0467 -0.7945
  825MOL0     H11346   7.133  -1.501   3.946  0.1351  0.6770 -0.6732
  825MOL0     H11347   7.351  -1.295   3.917  0.7181 -0.7287  0.9488
  825MOL0     H11348   7.224  -1.329   3.790  0.3680  1.6564  0.8462
  825MOL0     H11349   7.417  -1.563   3.875  0.4897  1.8846  3.1105
  825MOL0     H11350   7.304  -1.543   3.740 -0.5891 -0.1457  1.2363
  825MOL0     H11351   7.551  -1.377   3.790  0.6647 -0.7528  0.3544
  825MOL0     H11352   7.462  -1.376   3.636 -1.4138 -1.0346 -0.5795
  825MOL0     H11353   7.614  -1.599   3.763 -1.0194  1.1188  0.1704
  825MOL0     H11354   7.510  -1.622   3.612  1.8921  0.4670 -3.2200
  825MOL0     H11355   7.026  -1.202   4.202 -0.4399 -0.9778  0.1869
  825MOL0     H11356   6.781  -1.109   4.270 -2.8949 -1.2626  0.1568
  825MOL0     H11357   6.413  -1.189   4.370 -0.4099  1.8741 -0.2674
  825MOL0     H11358   6.180  -1.104   4.358 -0.5974  0.9696  0.9678
  825MOL0     H11359   5.126   0.073   5.377  2.5433 -0.0106 -1.3691
  825MOL0     H11360   4.938   0.204   5.386 -0.1666 -2.0826 -0.7455
  825MOL0     H11361   4.632   0.457   5.073  1.9982  2.1052 -0.1331
  825MOL0     H11362   4.445   0.550   5.023  4.6404 -0.6628 -0.3626
  825MOL0     H11363   4.177   0.664   4.999 -0.6614  0.0812  0.4531
  825MOL0     H11364   4.319   0.763   5.020 -0.2250 -0.3535  0.8048
  825MOL0     H11365   4.074   0.802   5.172  0.8545  0.1797  0.4612
  825MOL0     H11366   4.089   0.870   5.009  0.2601 -1.8723 -0.8752
  825MOL0     H11367   4.138   1.067   5.137 -0.1900 -2.2663 -3.8658
  825MOL0     H11368   4.297   1.010   5.104  1.4252  1.3254  2.2625
  825MOL0     H11369   4.145   0.933   5.356  0.0580 -0.2339 -0.9012
  825MOL0     H11370   4.320   0.919   5.337  2.4641  2.1124  0.7302
  825MOL0     H11371   4.265   1.332   5.419 -1.4497 -0.3053  1.3803
  825MOL0     H11372   4.373   0.685   5.419 -1.1067 -0.8177 -1.9305
  825MOL0     H11373   4.544   0.521   5.615  0.3973  0.7473  0.0023
  825MOL0     H11374   4.699   0.576   5.548 -0.4189 -0.7550  0.2057
  825MOL0     H11375   4.576   0.687   5.559 -1.8187  0.1845  1.5140
  826MOL0     O11376   8.525   9.498   1.196 -1.1545  0.0811  0.1826
  826MOL0     C11377   8.623   9.497   1.120  0.5130  0.2349  0.9364
  826MOL0     O11378   8.739   9.439   1.135  0.2129  0.3928 -0.3562
  826MOL0     C11379   8.808   9.442   1.254  0.6054  0.2724 -0.9855
  826MOL0     C11380   8.822   9.567   1.330 -0.0317  0.8186 -0.2707
  826MOL0     C11381   8.877   9.560   1.461  0.3944  0.5918  0.3464
  826MOL0     C11382   8.904   9.432   1.512  0.6201 -0.0095  0.3046
  826MOL0     O11383   8.942   9.400   1.640  0.0489 -0.1212 -0.5974
  826MOL0     C11384   8.951   9.506   1.740  0.2456  0.3900  0.8327
  826MOL0     C11385   8.982   9.466   1.884  0.1529 -0.0763  0.1817
  826MOL0     C11386   8.986   9.588   1.967 -1.0429 -0.5459 -0.6415
  826MOL0     C11387   8.997   9.565   2.114  0.9237 -0.7089 -0.5757
  826MOL0     C11388   8.856   9.538   2.179  0.6357 -0.4836 -0.9721
  826MOL0     C11389   8.859   9.563   2.341  1.0835 -0.0095  0.4953
  826MOL0     C11390   8.962   9.469   2.410 -0.0464  0.3007  0.3653
  826MOL0     C11391   8.916   9.326   2.436  0.6705 -0.6672 -0.1213
  826MOL0     N11392   9.018   9.250   2.517 -0.0840  0.6288  0.5416
  826MOL0     C11393   9.068   9.132   2.482 -0.2731 -0.3283  0.2259
  826MOL0     C11394   9.147   9.087   2.571 -0.5614  1.2671  0.0760
  826MOL0     C11395   9.229   8.952   2.574  0.6676 -0.4786  0.2418
  826MOL0     C11396   9.290   8.906   2.439 -0.5247 -0.4570  0.8141
  826MOL0     C11397   9.423   8.976   2.413 -0.0379  0.0948  0.1453
  826MOL0     C11398   9.466   8.924   2.272  0.2723  0.3611 -1.4132
  826MOL0     O11399   9.574   9.003   2.239  0.4397  0.2921  0.2340
  826MOL0     C11400   9.643   8.939   2.138  0.1139  0.3777 -0.7510
  826MOL0     C11401   9.633   8.970   2.005  0.8622 -0.1875  1.2560
  826MOL0     C11402   9.715   8.912   1.910 -0.0124  0.0479  0.5251
  826MOL0     C11403   9.800   8.805   1.951 -0.6244 -0.2114 -0.3537
  826MOL0     C11404   9.890   8.741   1.851  0.0318  0.0759  0.3512
  826MOL0     O11405  10.000   8.682   1.908 -0.6168 -0.0732 -0.6831
  826MOL0     C11406  10.103   8.625   1.839 -0.3561  0.7561 -0.5235
  826MOL0     C11407  10.096   8.574   1.706 -1.1124  0.5358  0.1614
  826MOL0     C11408  10.200   8.522   1.643 -0.1187 -0.0872  0.2575
  826MOL0     C11409  10.320   8.516   1.708 -0.4940  0.3525 -0.3444
  826MOL0     O11410  10.414   8.438   1.642 -0.0725  0.2918 -0.0364
  826MOL0     C11411  10.546   8.508   1.625 -0.6196  0.7078  0.3133
  826MOL0     C11412  10.637   8.402   1.565 -0.4401  0.3531 -0.2250
  826MOL0     C11413  10.783   8.444   1.550  0.0391 -1.0189  0.3356
  826MOL0     C11414  10.799   8.569   1.464  0.5154  0.1785  0.1983
  826MOL0     C11415  10.785   8.542   1.315  0.2909 -0.6087  1.1229
  826MOL0     C11416  10.880   8.458   1.240  0.1276 -0.6872  0.1984
  826MOL0     C11417  11.026   8.499   1.252  0.1410 -0.0095  0.7422
  826MOL0     C11418  11.117   8.400   1.175 -0.4151 -1.2810 -0.0637
  826MOL0    Cl11419  11.287   8.458   1.157 -0.2230 -0.6665  0.0615
  826MOL0     C11420  10.344   8.575   1.833  0.4411 -0.0502 -0.6469
  826MOL0     C11421  10.232   8.621   1.896  0.3006 -0.4210 -0.5540
  826MOL0     O11422   9.860   8.748   1.729 -0.3324 -0.5683  0.1158
  826MOL0     C11423   9.799   8.766   2.084 -1.0433  0.3516  0.5689
  826MOL0     C11424   9.725   8.836   2.176 -0.1868  0.7976  0.1384
  826MOL0     N11425   9.141   9.183   2.678  0.0172 -0.5970  0.9939
  826MOL0     N11426   9.057   9.274   2.641 -0.2526 -0.6327 -0.0119
  826MOL0     C11427   8.896   9.317   1.435 -0.4404 -0.1417 -0.3471
  826MOL0     C11428   8.861   9.321   1.302 -0.1814 -0.3758 -0.3037
  826MOL0     C11429   8.602   9.574   0.994 -0.3863  0.4531 -1.1413
  826MOL0     C11430   8.666   9.692   0.977 -0.3256  0.2426 -1.8887
  826MOL0     C11431   8.642   9.770   0.861  0.4198  0.2343  0.3586
  826MOL0     C11432   8.554   9.721   0.769  0.3685 -0.2690  0.8628
  826MOL0     O11433   8.527   9.798   0.662 -0.0682 -0.1683 -0.7295
  826MOL0     C11434   8.429   9.747   0.571  0.2923 -0.0542  0.6448
  826MOL0     C11435   8.399   9.840   0.449  0.3480  1.1455  0.1517
  826MOL0     C11436   8.350   9.978   0.496 -0.3101 -0.5419  0.4394
  826MOL0     C11437   8.385  10.082   0.394 -0.0083 -0.2298  1.2009
  826MOL0     C11438   8.282  10.056   0.280  0.2092  0.2222  0.7705
  826MOL0     C11439   8.207  10.031   0.191  0.8311 -0.1101 -0.8356
  826MOL0     C11440   8.506   9.590   0.783 -0.6603  0.1085  0.5662
  826MOL0     C11441   8.513   9.523   0.900 -0.2893  0.7308  0.5346
  826MOL0     C11442   8.443   9.388   0.910  0.8372 -0.4165 -0.6612
  826MOL0     H11443   8.790   9.655   1.276 -2.4258  1.6785  2.3104
  826MOL0     H11444   8.870   9.651   1.519 -0.5914  0.4936  0.4065
  826MOL0     H11445   9.023   9.578   1.699  3.0104 -1.6766  1.7912
  826MOL0     H11446   8.850   9.549   1.748 -1.1373 -2.9330  4.0034
  826MOL0     H11447   9.081   9.421   1.893  1.1049  0.8284 -3.8352
  826MOL0     H11448   8.914   9.395   1.932 -2.3544  2.1680  0.2473
  826MOL0     H11449   8.899   9.650   1.945 -0.2249  0.7587 -0.2808
  826MOL0     H11450   9.072   9.651   1.943  0.7383 -2.7024 -0.2050
  826MOL0     H11451   9.067   9.484   2.138 -0.8181 -1.9252  0.6513
  826MOL0     H11452   9.039   9.654   2.161 -1.5329 -0.3971  1.2199
  826MOL0     H11453   8.779   9.604   2.137 -0.6482 -0.7074  0.9348
  826MOL0     H11454   8.825   9.435   2.158  0.5992 -0.6437 -0.1690
  826MOL0     H11455   8.875   9.666   2.375  0.7754  0.8179 -1.6654
  826MOL0     H11456   8.756   9.544   2.374  0.9362 -1.5120 -0.7132
  826MOL0     H11457   8.972   9.507   2.512 -0.6498 -1.3000  1.0538
  826MOL0     H11458   9.057   9.471   2.357 -0.2685 -1.0629 -0.1321
  826MOL0     H11459   8.822   9.327   2.492  2.1090 -0.3426  2.4374
  826MOL0     H11460   8.888   9.284   2.339 -2.3223 -0.6282  0.6262
  826MOL0     H11461   9.040   9.058   2.408  0.0334 -3.3600  2.9114
  826MOL0     H11462   9.319   8.956   2.636  0.8324 -0.1919 -0.0142
  826MOL0     H11463   9.169   8.866   2.606  1.9490 -2.0268 -1.3217
  826MOL0     H11464   9.322   8.805   2.464  0.7487 -0.5373 -0.9140
  826MOL0     H11465   9.211   8.922   2.365  0.7553 -0.7228 -0.6568
  826MOL0     H11466   9.496   8.953   2.491 -1.6034 -0.7340  1.4294
  826MOL0     H11467   9.418   9.085   2.408  0.6428  0.2869  2.6456
  826MOL0     H11468   9.388   8.935   2.197  1.0145 -0.6364 -2.3670
  826MOL0     H11469   9.491   8.817   2.282  0.2080  0.5373  4.3177
  826MOL0     H11470   9.557   9.043   1.981 -1.5063 -1.5541  3.8906
  826MOL0     H11471   9.699   8.936   1.805 -1.8483  1.7192  1.1078
  826MOL0     H11472  10.000   8.578   1.656 -1.4426  3.0564  0.8774
  826MOL0     H11473  10.186   8.458   1.557  1.0078  1.4837 -1.1486
  826MOL0     H11474  10.527   8.597   1.565 -2.5766 -2.5554 -4.4515
  826MOL0     H11475  10.584   8.530   1.726 -0.5514 -3.4983  1.4081
  826MOL0     H11476  10.658   8.316   1.629  2.7752  1.6959  0.7222
  826MOL0     H11477  10.605   8.357   1.470  1.2686  1.5495 -1.4267
  826MOL0     H11478  10.833   8.454   1.647  3.7319  1.8909 -1.6414
  826MOL0     H11479  10.845   8.374   1.494  2.3807  0.9118  0.3897
  826MOL0     H11480  10.901   8.608   1.477  1.4588 -1.5027 -1.6112
  826MOL0     H11481  10.721   8.644   1.480 -1.3193 -0.9562 -2.7508
  826MOL0     H11482  10.760   8.633   1.260 -1.1577 -1.8030 -0.3100
  826MOL0     H11483  10.697   8.477   1.303 -0.4739  0.2650  1.8245
  826MOL0     H11484  10.864   8.352   1.259  2.9379 -1.5905 -1.8114
  826MOL0     H11485  10.856   8.468   1.134  0.8136  0.4158  0.1276
  826MOL0     H11486  11.053   8.512   1.357 -1.5363  1.5463  1.0348
  826MOL0     H11487  11.031   8.598   1.206  2.3234  1.8329  4.4569
  826MOL0     H11488  11.120   8.300   1.218 -1.4566 -1.9150 -1.3926
  826MOL0     H11489  11.073   8.387   1.076 -2.6946 -3.3754  1.1013
  826MOL0     H11490  10.437   8.576   1.888  1.0862 -2.4384 -1.5751
  826MOL0     H11491  10.259   8.681   1.982  1.2719 -0.8378 -0.5504
  826MOL0     H11492   9.863   8.683   2.110 -0.9485  0.3440  0.3103
  826MOL0     H11493   9.719   8.812   2.282  1.1416  1.9123  0.4932
  826MOL0     H11494   8.930   9.219   1.466  0.2226 -0.1017 -0.9189
  826MOL0     H11495   8.856   9.232   1.239  2.2685 -0.2057 -0.8406
  826MOL0     H11496   8.735   9.731   1.051 -0.3255 -1.1475 -1.1410
  826MOL0     H11497   8.693   9.864   0.845  1.3187 -0.6140 -2.3408
  826MOL0     H11498   8.332   9.738   0.621 -0.4510  2.1825 -0.2296
  826MOL0     H11499   8.457   9.649   0.531  1.3248  0.6424 -0.4320
  826MOL0     H11500   8.323   9.794   0.385  2.2985 -0.0437 -1.4423
  826MOL0     H11501   8.487   9.846   0.385 -0.2478  3.8099 -0.5590
  826MOL0     H11502   8.392  10.007   0.593  1.2249  0.7018 -0.5621
  826MOL0     H11503   8.241   9.979   0.504 -0.7894  0.2562 -3.8463
  826MOL0     H11504   8.372  10.184   0.431 -0.3800 -0.5532  1.9767
  826MOL0     H11505   8.481  10.067   0.344 -2.2227  1.5795 -4.4875
  826MOL0     H11506   8.163  10.007   0.096  0.7792  0.1840 -0.8877
  826MOL0     H11507   8.455   9.536   0.704  5.3272  1.4522 -5.1003
  826MOL0     H11508   8.349   9.386   0.854  1.4184  2.2798 -1.9024
  826MOL0     H11509   8.517   9.312   0.885 -1.9651 -2.4968 -3.3438
  826MOL0     H11510   8.405   9.368   1.011  1.4645  2.1925  0.1847
  827MOL0     O11511   9.853   2.868   7.925 -0.0051  0.2260  0.0548
  827MOL0     C11512   9.877   2.817   8.032  0.2309  0.5617  0.2881
  827MOL0     O11513   9.939   2.693   8.057  0.4306  0.5596  0.6334
  827MOL0     C11514   9.987   2.633   7.949  0.1186 -0.6574  0.2937
  827MOL0     C11515   9.919   2.518   7.902  0.2812  0.1860 -0.2414
  827MOL0     C11516   9.978   2.440   7.804 -0.5855  0.6979  0.1655
  827MOL0     C11517  10.089   2.494   7.739  0.8252  0.8807 -0.0063
  827MOL0     O11518  10.148   2.421   7.633  0.3834 -0.7875  0.1966
  827MOL0     C11519  10.179   2.282   7.650  1.0775 -0.0008  0.4946
  827MOL0     C11520  10.330   2.269   7.631  0.1493 -0.0602  1.0625
  827MOL0     C11521  10.373   2.263   7.487 -0.1244  0.1917 -0.2310
  827MOL0     C11522  10.330   2.131   7.427  0.8120  0.4216 -0.3043
  827MOL0     C11523  10.309   2.147   7.276  0.2978 -0.2590 -0.4741
  827MOL0     C11524  10.258   2.008   7.217  0.2406  0.8662  0.8533
  827MOL0     C11525  10.374   1.901   7.225 -0.6487 -0.6618  0.4772
  827MOL0     C11526  10.349   1.799   7.113 -0.1235  0.2332  0.3728
  827MOL0     N11527  10.424   1.670   7.124 -0.1741  0.5263  0.2880
  827MOL0     C11528  10.520   1.633   7.216 -0.7192  0.3520  0.6905
  827MOL0     C11529  10.540   1.498   7.190  0.2642 -0.6246  0.7028
  827MOL0     C11530  10.608   1.390   7.272 -0.6774 -0.6930  0.1574
  827MOL0     C11531  10.752   1.375   7.218  0.1893 -0.3159  0.6642
  827MOL0     C11532  10.824   1.243   7.267 -0.4374 -0.1106  1.1293
  827MOL0     C11533  10.834   1.245   7.412 -0.2148  0.4277 -0.3286
  827MOL0     O11534  10.931   1.150   7.454  0.3975  0.5504  0.1486
  827MOL0     C11535  10.890   1.082   7.566  0.3881 -0.0451  0.5870
  827MOL0     C11536  10.912   0.941   7.577 -1.1462 -0.5159 -0.0183
  827MOL0     C11537  10.893   0.875   7.701 -0.1426  0.5671 -0.3052
  827MOL0     C11538  10.858   0.949   7.813  0.4443  0.4625  0.0370
  827MOL0     C11539  10.836   0.882   7.948  0.4236  0.6409  0.2044
  827MOL0     O11540  10.795   0.963   8.047 -0.1652  0.7301 -0.0485
  827MOL0     C11541  10.779   0.915   8.173  0.9441  0.0134  0.4650
  827MOL0     C11542  10.887   0.877   8.248  0.0112 -0.7677 -0.7661
  827MOL0     C11543  10.872   0.845   8.379 -0.0283  0.5174  0.5792
  827MOL0     C11544  10.746   0.830   8.436 -0.0976  0.0993  0.3748
  827MOL0     O11545  10.719   0.800   8.569 -1.1229 -0.2852 -0.0263
  827MOL0     C11546  10.693   0.917   8.648  0.0274 -0.2421 -0.5040
  827MOL0     C11547  10.645   0.882   8.786  0.8626 -0.4958 -0.3320
  827MOL0     C11548  10.611   1.008   8.860 -0.6149  0.7581 -1.4553
  827MOL0     C11549  10.723   1.058   8.952 -0.0419  0.2857  0.3910
  827MOL0     C11550  10.697   1.205   8.989  0.1000 -0.1220  0.0684
  827MOL0     C11551  10.808   1.246   9.081 -0.5905 -0.6325 -0.5463
  827MOL0     C11552  10.830   1.397   9.098  0.6364  0.3142 -0.2118
  827MOL0     C11553  10.965   1.418   9.179 -0.4021  0.4282  0.3040
  827MOL0    Cl11554  11.122   1.362   9.085 -0.0056 -0.1248 -0.3657
  827MOL0     C11555  10.639   0.867   8.358 -0.0446  0.1439 -0.3884
  827MOL0     C11556  10.654   0.918   8.237  0.8558  0.5579 -0.1743
  827MOL0     O11557  10.883   0.768   7.966  0.4100 -0.2701  0.2895
  827MOL0     C11558  10.842   1.085   7.800  0.8072 -0.6020 -0.3384
  827MOL0     C11559  10.854   1.155   7.683 -0.1142 -0.4628  0.4959
  827MOL0     N11560  10.455   1.462   7.078 -0.7168 -0.2318 -0.4585
  827MOL0     N11561  10.386   1.566   7.045  0.5344  0.0026 -0.3064
  827MOL0     C11562  10.148   2.607   7.777 -1.2753  0.7466 -0.3221
  827MOL0     C11563  10.111   2.668   7.897 -0.1210 -0.2946 -0.1827
  827MOL0     C11564   9.811   2.884   8.153  0.0269  0.0986  1.4028
  827MOL0     C11565   9.783   2.803   8.259  0.5433  0.0672  0.0268
  827MOL0     C11566   9.742   2.849   8.384 -0.3448  0.0176  0.0248
  827MOL0     C11567   9.727   2.991   8.404  0.0379  0.0240  0.6383
  827MOL0     O11568   9.723   3.036   8.524  0.2391 -0.0906  0.5422
  827MOL0     C11569   9.649   3.158   8.548  0.9746 -0.8376  0.9281
  827MOL0     C11570   9.591   3.149   8.693 -0.5507 -0.5568  0.2225
  827MOL0     C11571   9.699   3.101   8.800  0.1980 -0.2337  0.3844
  827MOL0     C11572   9.850   3.144   8.776  0.1071 -0.0102  0.1029
  827MOL0     C11573   9.936   3.093   8.885  0.2756 -0.1934 -0.1520
  827MOL0     C11574  10.014   3.050   8.969 -0.2803  0.1526 -0.6618
  827MOL0     C11575   9.762   3.070   8.293 -0.0623 -0.4460 -0.4305
  827MOL0     C11576   9.806   3.021   8.167 -1.3270  0.0033 -0.5932
  827MOL0     C11577   9.848   3.123   8.061 -0.2415 -0.3259 -1.9802
  827MOL0     H11578   9.834   2.481   7.960  2.2948  1.1274  3.6610
  827MOL0     H11579   9.938   2.344   7.772  1.2338  0.2979 -1.0672
  827MOL0     H11580  10.153   2.262   7.755  0.7580 -2.2300  0.0339
  827MOL0     H11581  10.121   2.217   7.584  1.6575 -3.4879  3.0881
  827MOL0     H11582  10.343   2.177   7.688 -0.6310  0.4250  2.0556
  827MOL0     H11583  10.380   2.361   7.664 -3.4949  3.1142 -1.3186
  827MOL0     H11584  10.481   2.274   7.472 -0.0570  1.2892  0.8647
  827MOL0     H11585  10.328   2.345   7.431 -0.8595  0.5504  0.8469
  827MOL0     H11586  10.392   2.045   7.455 -2.6070 -1.6212  1.7076
  827MOL0     H11587  10.232   2.103   7.468  1.4235 -0.4389  0.6190
  827MOL0     H11588  10.243   2.230   7.251  0.2430 -0.7662 -2.1393
  827MOL0     H11589  10.408   2.180   7.242  1.0430  1.5732  3.0550
  827MOL0     H11590  10.172   1.967   7.269 -0.4194  0.1369 -0.7303
  827MOL0     H11591  10.223   2.022   7.114  0.2005  0.6340  0.8349
  827MOL0     H11592  10.367   1.854   7.324 -1.1092  1.0373  1.2852
  827MOL0     H11593  10.476   1.937   7.212  0.4854 -3.1239  1.9091
  827MOL0     H11594  10.242   1.775   7.108 -0.6519  2.4815 -0.2546
  827MOL0     H11595  10.366   1.854   7.020 -2.1215  0.2682 -0.0227
  827MOL0     H11596  10.563   1.690   7.297  3.5318 -1.8193  0.2387
  827MOL0     H11597  10.611   1.424   7.376  2.6803 -0.9833  0.2679
  827MOL0     H11598  10.558   1.293   7.260  0.4828 -1.1959 -0.8347
  827MOL0     H11599  10.752   1.384   7.109 -0.2350  1.4441  0.7819
  827MOL0     H11600  10.822   1.449   7.259 -0.1311  0.0112  0.6304
  827MOL0     H11601  10.911   1.211   7.209 -2.6072 -1.1649 -1.7822
  827MOL0     H11602  10.748   1.166   7.249  3.4567 -3.8897 -1.2748
  827MOL0     H11603  10.730   1.225   7.442 -0.1101 -1.2022 -0.9334
  827MOL0     H11604  10.874   1.340   7.446 -0.3774  0.4852 -0.2980
  827MOL0     H11605  10.939   0.885   7.488  0.8747  0.7750 -0.2811
  827MOL0     H11606  10.903   0.767   7.711 -2.9684  0.3436  1.4389
  827MOL0     H11607  10.984   0.877   8.199  1.0439 -1.3840  1.1720
  827MOL0     H11608  10.957   0.834   8.444  2.1974  1.1033 -2.0442
  827MOL0     H11609  10.790   0.966   8.653  1.1472 -2.4549  1.3543
  827MOL0     H11610  10.623   0.980   8.591  1.3808  2.5234  0.7073
  827MOL0     H11611  10.561   0.813   8.770  1.3516 -0.9919 -0.8415
  827MOL0     H11612  10.727   0.839   8.845  0.1762  0.5816  1.4812
  827MOL0     H11613  10.587   1.089   8.791  1.6028  0.0819 -3.1486
  827MOL0     H11614  10.519   0.989   8.917  0.6071 -0.4292  0.2396
  827MOL0     H11615  10.815   1.063   8.892 -1.0910 -1.8366 -1.5586
  827MOL0     H11616  10.734   0.988   9.035 -2.5127 -2.8294 -1.6498
  827MOL0     H11617  10.603   1.217   9.043  0.5305  0.3496  0.7225
  827MOL0     H11618  10.688   1.246   8.888  1.1696 -2.9133 -1.2796
  827MOL0     H11619  10.808   1.185   9.172 -1.6983  0.9382  0.5518
  827MOL0     H11620  10.901   1.208   9.037 -0.9085 -2.7532  0.4500
  827MOL0     H11621  10.754   1.444   9.162  0.7496  2.9215 -1.8315
  827MOL0     H11622  10.820   1.445   9.000  0.2871 -2.1816 -1.4682
  827MOL0     H11623  10.984   1.519   9.217  0.1296 -0.0020  1.2307
  827MOL0     H11624  10.966   1.357   9.270  0.8243  0.1328  0.1147
  827MOL0     H11625  10.540   0.870   8.403  0.0899  0.9757 -0.1263
  827MOL0     H11626  10.574   0.973   8.189  1.5744  0.5568 -1.4116
  827MOL0     H11627  10.825   1.140   7.892  0.4232  1.8369 -1.7791
  827MOL0     H11628  10.847   1.263   7.690  6.1646  0.2813  1.1123
  827MOL0     H11629  10.240   2.641   7.732  0.3552 -1.7664  0.8643
  827MOL0     H11630  10.169   2.741   7.953  0.4803 -1.2424  0.4532
  827MOL0     H11631   9.799   2.695   8.256  3.4347  0.4223 -0.6350
  827MOL0     H11632   9.729   2.782   8.468 -2.6144 -2.3623 -2.0767
  827MOL0     H11633   9.578   3.181   8.468  0.7508  1.1463  1.6291
  827MOL0     H11634   9.721   3.240   8.540  0.6839 -0.6809 -0.2071
  827MOL0     H11635   9.508   3.078   8.698  1.8878 -3.5160  1.3929
  827MOL0     H11636   9.560   3.253   8.711  2.5245 -0.0072  3.3468
  827MOL0     H11637   9.690   2.992   8.807 -1.3921 -0.1857 -0.4842
  827MOL0     H11638   9.671   3.139   8.899  1.9912  0.0435  0.8243
  827MOL0     H11639   9.892   3.104   8.683 -0.5502  0.2057 -0.2962
  827MOL0     H11640   9.855   3.253   8.772  1.7933 -0.0923 -1.4438
  827MOL0     H11641  10.108   3.021   9.012 -0.5790 -1.2721 -0.9250
  827MOL0     H11642   9.789   3.173   8.314 -0.8848 -0.8886  3.5844
  827MOL0     H11643   9.841   3.227   8.094  0.2443  0.2026 -3.4384
  827MOL0     H11644   9.948   3.118   8.016  0.9970 -1.5580  0.6582
  827MOL0     H11645   9.772   3.121   7.983 -0.8483 -0.3316 -1.3976
  828MOL0     O11646   1.524   8.181   1.136 -0.4306  0.1916  0.4421
  828MOL0     C11647   1.454   8.224   1.047 -0.2610  0.5383  0.5892
  828MOL0     O11648   1.367   8.150   0.974  0.2250 -0.3630 -0.3426
  828MOL0     C11649   1.362   8.019   0.995 -0.1003  0.3676 -0.3758
  828MOL0     C11650   1.461   7.942   0.924  0.2649 -0.3618  0.6360
  828MOL0     C11651   1.453   7.799   0.921 -0.6747  0.0547 -0.6919
  828MOL0     C11652   1.369   7.735   1.004 -0.4407  0.3502  0.1293
  828MOL0     O11653   1.356   7.599   1.010  0.0682  1.0077  0.3351
  828MOL0     C11654   1.453   7.520   0.938 -0.3159 -0.7081 -0.1548
  828MOL0     C11655   1.430   7.384   0.988 -0.4853 -0.3192  0.4255
  828MOL0     C11656   1.478   7.283   0.887  0.2271  0.0079  0.1340
  828MOL0     C11657   1.483   7.155   0.975 -0.6393  0.0850  0.8257
  828MOL0     C11658   1.514   7.034   0.886 -1.1801  0.0321 -0.6294
  828MOL0     C11659   1.554   6.903   0.958  0.4662 -0.0031 -0.7502
  828MOL0     C11660   1.578   6.797   0.853 -1.4139 -0.9307  0.2338
  828MOL0     C11661   1.566   6.657   0.916  0.4600 -0.0072  0.6765
  828MOL0     N11662   1.565   6.543   0.822  0.4034  0.5715  0.0569
  828MOL0     C11663   1.591   6.414   0.858  0.1738 -0.5322 -1.2021
  828MOL0     C11664   1.606   6.342   0.744  0.4361  0.0087  0.6759
  828MOL0     C11665   1.622   6.189   0.713  0.6422 -0.6646 -0.2165
  828MOL0     C11666   1.612   6.092   0.830  0.1072 -0.6409  1.2992
  828MOL0     C11667   1.640   5.960   0.762 -0.4852  0.3460 -0.4975
  828MOL0     C11668   1.627   5.841   0.854 -0.4182  0.7377  0.2632
  828MOL0     O11669   1.738   5.754   0.829 -0.2110  0.4026 -0.8987
  828MOL0     C11670   1.738   5.633   0.897 -0.0523  0.8155  0.4572
  828MOL0     C11671   1.640   5.592   0.987 -0.0859  1.0793  0.2321
  828MOL0     C11672   1.657   5.475   1.062 -0.3108  0.5529 -0.3149
  828MOL0     C11673   1.762   5.393   1.044  0.0389  0.5798  1.0787
  828MOL0     C11674   1.779   5.267   1.111  0.2670  0.0403 -0.6157
  828MOL0     O11675   1.851   5.176   1.048 -0.9637  0.1418 -0.3524
  828MOL0     C11676   1.839   5.041   1.092 -0.1681 -0.1341  0.7807
  828MOL0     C11677   1.730   4.974   1.068  0.7676  1.0088  0.0841
  828MOL0     C11678   1.714   4.840   1.106  0.0602  0.5770 -0.0614
  828MOL0     C11679   1.824   4.769   1.149  0.8461 -0.2372 -0.3586
  828MOL0     O11680   1.820   4.640   1.192  1.4244  0.9663  0.5613
  828MOL0     C11681   1.801   4.536   1.091  0.0187  0.0060  0.5322
  828MOL0     C11682   1.817   4.396   1.145 -0.0804  0.1779  0.7368
  828MOL0     C11683   1.754   4.347   1.269 -0.9272  0.5912 -0.2033
  828MOL0     C11684   1.768   4.196   1.286  0.0553 -0.2040  0.0935
  828MOL0     C11685   1.715   4.146   1.412 -0.0931 -0.2245  0.1765
  828MOL0     C11686   1.716   3.984   1.413  0.2390 -0.2069  0.2794
  828MOL0     C11687   1.718   3.926   1.552  0.1182  1.0758  0.2940
  828MOL0     C11688   1.721   3.775   1.548 -0.4976  0.5506  0.1764
  828MOL0    Cl11689   1.707   3.687   1.705 -0.3339 -0.0209 -0.2969
  828MOL0     C11690   1.941   4.830   1.170  0.4966 -1.1195 -0.4805
  828MOL0     C11691   1.954   4.971   1.142  0.2320  0.0157 -0.4226
  828MOL0     O11692   1.705   5.244   1.207  0.2034 -0.0320 -0.7629
  828MOL0     C11693   1.855   5.419   0.941  0.4072  0.1296 -0.2017
  828MOL0     C11694   1.843   5.541   0.872 -0.7350  0.1638  0.0015
  828MOL0     N11695   1.600   6.435   0.636  0.4226  0.4603  0.0092
  828MOL0     N11696   1.566   6.559   0.690  0.2734  0.7697  0.0234
  828MOL0     C11697   1.283   7.813   1.086  0.1744  0.2167  0.0058
  828MOL0     C11698   1.276   7.954   1.081 -1.1921  0.2401  0.3230
  828MOL0     C11699   1.447   8.363   0.999  1.0277  0.2871 -0.3819
  828MOL0     C11700   1.400   8.397   0.874  0.6392  0.2432  0.5414
  828MOL0     C11701   1.381   8.529   0.839  0.0132 -0.9018 -0.5775
  828MOL0     C11702   1.420   8.643   0.914 -0.3228  0.1049 -0.5736
  828MOL0     O11703   1.388   8.768   0.866  0.1781  1.3952 -0.1609
  828MOL0     C11704   1.384   8.872   0.962 -0.1892 -0.1875  0.8265
  828MOL0     C11705   1.527   8.929   0.996  0.5042  0.8144  0.0152
  828MOL0     C11706   1.620   8.971   0.872 -0.6305  0.2462 -0.3100
  828MOL0     C11707   1.654   8.858   0.772 -0.0213  0.6631  0.0161
  828MOL0     C11708   1.776   8.892   0.695 -0.1852  0.2223  0.0155
  828MOL0     C11709   1.873   8.909   0.619  1.3897 -0.4613 -0.2101
  828MOL0     C11710   1.472   8.615   1.043  0.1486 -0.3225 -0.3020
  828MOL0     C11711   1.488   8.478   1.090 -0.4463  0.8343 -0.7839
  828MOL0     C11712   1.527   8.467   1.226  0.5523 -0.4801  0.1667
  828MOL0     H11713   1.528   7.983   0.849  0.7066 -2.1742 -0.0042
  828MOL0     H11714   1.512   7.748   0.845 -0.2972  2.4152 -2.0958
  828MOL0     H11715   1.434   7.531   0.831 -0.4275  0.7437  0.0001
  828MOL0     H11716   1.555   7.545   0.969 -0.7268 -2.6753  3.2478
  828MOL0     H11717   1.324   7.363   1.005 -0.4213 -0.9699  0.0230
  828MOL0     H11718   1.479   7.367   1.085  2.8118 -0.9230 -1.1998
  828MOL0     H11719   1.570   7.299   0.831  0.2676 -1.3302 -0.2168
  828MOL0     H11720   1.396   7.264   0.817  1.5428  1.7438 -1.9792
  828MOL0     H11721   1.561   7.162   1.052  1.0894  2.1004 -0.9771
  828MOL0     H11722   1.386   7.137   1.022 -1.1211  0.1334 -0.1379
  828MOL0     H11723   1.434   7.000   0.819 -0.0227 -2.5829 -0.7948
  828MOL0     H11724   1.602   7.061   0.826 -0.1558 -1.0869  0.3282
  828MOL0     H11725   1.642   6.917   1.021  1.0760 -0.2151 -1.5297
  828MOL0     H11726   1.469   6.873   1.019 -0.5140  5.5098  1.1902
  828MOL0     H11727   1.682   6.816   0.823 -1.7772  0.2530 -0.3229
  828MOL0     H11728   1.511   6.800   0.767  0.0326 -1.0442 -0.9391
  828MOL0     H11729   1.648   6.642   0.986  2.7980 -0.4524 -1.9704
  828MOL0     H11730   1.470   6.646   0.968 -1.6668  1.9765 -2.4905
  828MOL0     H11731   1.580   6.374   0.958 -0.9122 -0.3082 -1.2195
  828MOL0     H11732   1.549   6.175   0.633 -1.4839  0.1421  1.4722
  828MOL0     H11733   1.715   6.175   0.658  0.2039 -0.9048 -0.9048
  828MOL0     H11734   1.678   6.104   0.916  0.1932 -3.5908  1.7262
  828MOL0     H11735   1.513   6.098   0.876 -0.4279  2.9045  0.0438
  828MOL0     H11736   1.746   5.979   0.741  0.4838  2.0106  4.5851
  828MOL0     H11737   1.595   5.944   0.663 -2.5680 -0.0147  0.4674
  828MOL0     H11738   1.533   5.793   0.824 -0.4578  0.0859  1.3699
  828MOL0     H11739   1.628   5.885   0.954  0.2179 -0.8247  0.9841
  828MOL0     H11740   1.553   5.653   1.012 -0.4669 -0.4018  2.8581
  828MOL0     H11741   1.592   5.451   1.146  1.4338  1.5361  1.3876
  828MOL0     H11742   1.649   5.023   1.014 -0.5999 -1.1068  0.0764
  828MOL0     H11743   1.623   4.795   1.069  1.5236 -0.4851 -2.6052
  828MOL0     H11744   1.704   4.552   1.041 -1.1794  4.3397  3.5847
  828MOL0     H11745   1.870   4.552   1.007 -0.5915 -1.7323 -0.3528
  828MOL0     H11746   1.771   4.339   1.064 -1.4931  1.9584  0.2026
  828MOL0     H11747   1.924   4.375   1.153  0.2385  0.4147 -1.9353
  828MOL0     H11748   1.781   4.400   1.361 -2.5798  0.3427  0.4551
  828MOL0     H11749   1.646   4.361   1.266 -0.6569  3.1254 -0.5614
  828MOL0     H11750   1.871   4.161   1.276  1.4088  2.7621  1.9196
  828MOL0     H11751   1.712   4.160   1.200 -1.9218  1.6524  0.4964
  828MOL0     H11752   1.613   4.181   1.429 -1.3634 -3.2786 -0.4778
  828MOL0     H11753   1.773   4.183   1.498 -0.5326 -0.1735  0.4546
  828MOL0     H11754   1.627   3.948   1.361 -0.0043  0.3796  0.2793
  828MOL0     H11755   1.806   3.950   1.362 -1.3119 -2.6948 -0.9819
  828MOL0     H11756   1.616   3.951   1.583 -0.2712 -0.8381  0.6797
  828MOL0     H11757   1.796   3.969   1.615 -1.5428  2.7405  1.3162
  828MOL0     H11758   1.629   3.747   1.495 -0.4948 -2.4928  1.5527
  828MOL0     H11759   1.806   3.737   1.491 -0.8965  2.9943 -2.2203
  828MOL0     H11760   2.021   4.774   1.219 -0.5950  0.1456  3.1014
  828MOL0     H11761   2.053   5.014   1.141  0.2890 -0.0580  0.6669
  828MOL0     H11762   1.943   5.357   0.923  0.9964  0.2821  1.8668
  828MOL0     H11763   1.911   5.574   0.794  0.4544 -2.6917 -0.2772
  828MOL0     H11764   1.217   7.758   1.152  1.6652 -0.4429  1.0243
  828MOL0     H11765   1.206   8.004   1.147 -0.5780 -1.4416  2.3640
  828MOL0     H11766   1.378   8.320   0.801 -0.2267 -1.5101  2.5583
  828MOL0     H11767   1.339   8.550   0.741  0.4483  0.7965 -0.4385
  828MOL0     H11768   1.333   8.826   1.047 -1.0521 -1.8221 -0.5453
  828MOL0     H11769   1.319   8.953   0.928  0.6781  0.6199  1.0450
  828MOL0     H11770   1.575   8.854   1.059  0.9103  2.9481  2.3949
  828MOL0     H11771   1.507   9.019   1.054  0.3678  2.2405 -2.1334
  828MOL0     H11772   1.718   8.991   0.916 -1.7076 -1.1526  3.0338
  828MOL0     H11773   1.582   9.060   0.821  1.0049  0.9968 -0.2729
  828MOL0     H11774   1.665   8.760   0.819  1.3917 -0.2098 -1.9664
  828MOL0     H11775   1.577   8.843   0.696 -1.3495 -3.0174  1.8342
  828MOL0     H11776   1.943   8.930   0.541  0.6912  4.8354  0.2162
  828MOL0     H11777   1.495   8.691   1.117 -1.3903  0.7908 -0.9252
  828MOL0     H11778   1.564   8.370   1.260 -1.4858 -0.2161  3.5565
  828MOL0     H11779   1.608   8.538   1.242  2.3425 -1.9540 -1.6997
  828MOL0     H11780   1.440   8.490   1.287 -0.5130  0.8823 -1.7526
  829MOL0     O11781   6.039   6.749   3.982 -0.7931 -0.1874  0.1776
  829MOL0     C11782   6.146   6.777   4.028  0.9074  0.7903 -0.1866
  829MOL0     O11783   6.264   6.751   3.964 -0.3019 -0.0288 -0.9860
  829MOL0     C11784   6.254   6.737   3.828  0.2914  0.0495  0.7621
  829MOL0     C11785   6.235   6.612   3.766  0.1091  0.1649 -0.5111
  829MOL0     C11786   6.232   6.599   3.626  0.6284  0.3056  0.0150
  829MOL0     C11787   6.259   6.717   3.548  0.0602 -0.4612 -0.2996
  829MOL0     O11788   6.274   6.719   3.409  0.3070  0.2876  0.5062
  829MOL0     C11789   6.266   6.595   3.344  0.0829  0.4733 -0.2847
  829MOL0     C11790   6.299   6.601   3.195 -0.4565  0.2203 -0.2577
  829MOL0     C11791   6.366   6.471   3.140 -0.9090  0.4656 -1.4370
  829MOL0     C11792   6.511   6.451   3.179  0.0076 -0.0797  0.6355
  829MOL0     C11793   6.575   6.338   3.093  1.1159 -0.2920 -0.4136
  829MOL0     C11794   6.729   6.316   3.121 -0.3920  0.5532 -0.5884
  829MOL0     C11795   6.792   6.183   3.067  0.3493  0.4256 -0.5723
  829MOL0     C11796   6.938   6.172   3.102  1.3019  0.7646  0.7904
  829MOL0     N11797   6.993   6.045   3.067 -0.0348 -0.0215  0.2945
  829MOL0     C11798   7.120   6.008   3.095 -0.2713 -0.6774 -0.0190
  829MOL0     C11799   7.116   5.877   3.067  0.2434  0.2771 -0.4076
  829MOL0     C11800   7.222   5.786   3.102 -1.0012  0.8475  0.4865
  829MOL0     C11801   7.275   5.717   2.970 -0.9956  0.2256 -0.4197
  829MOL0     C11802   7.357   5.831   2.891  0.1390 -0.0108 -0.1892
  829MOL0     C11803   7.417   5.776   2.758  0.7351  0.1399 -0.1532
  829MOL0     O11804   7.512   5.679   2.775 -0.1295 -0.2050 -0.0489
  829MOL0     C11805   7.569   5.620   2.668 -0.4828  0.8158  0.4743
  829MOL0     C11806   7.689   5.557   2.674  0.1526  0.4896  0.3355
  829MOL0     C11807   7.745   5.479   2.563  0.6405  0.5213 -0.4657
  829MOL0     C11808   7.680   5.463   2.442  0.9676 -0.2697 -0.4194
  829MOL0     C11809   7.737   5.405   2.313 -0.4724  0.1232  0.6939
  829MOL0     O11810   7.657   5.411   2.199  0.6951 -0.1182 -0.6943
  829MOL0     C11811   7.709   5.367   2.083 -1.0091 -0.4521 -0.1333
  829MOL0     C11812   7.641   5.269   2.003  0.4898 -0.5387  0.4480
  829MOL0     C11813   7.710   5.211   1.894 -0.8974  0.5499 -0.4929
  829MOL0     C11814   7.833   5.257   1.862 -1.2388  0.3229  0.2530
  829MOL0     O11815   7.912   5.199   1.766  0.4132 -0.0982 -0.9235
  829MOL0     C11816   7.933   5.059   1.777 -0.2518  0.7704  0.9381
  829MOL0     C11817   8.022   5.010   1.656  0.5601 -0.3449  0.3012
  829MOL0     C11818   7.929   4.954   1.541 -0.4648 -0.4284 -1.0037
  829MOL0     C11819   7.993   4.978   1.406  0.0046  0.3595 -0.4692
  829MOL0     C11820   7.914   4.906   1.288  0.5046  0.0884 -0.1845
  829MOL0     C11821   8.014   4.878   1.174  0.3393 -0.7289  0.1568
  829MOL0     C11822   7.948   4.802   1.063 -1.0399 -0.0708  0.2868
  829MOL0     C11823   7.901   4.651   1.100 -0.0251  0.6896 -0.7699
  829MOL0    Cl11824   7.837   4.582   0.944 -0.2933  0.1154  0.2460
  829MOL0     C11825   7.896   5.358   1.927  0.0803 -0.6430  0.4875
  829MOL0     C11826   7.839   5.412   2.040  0.1302  0.8232 -0.6998
  829MOL0     O11827   7.859   5.377   2.318  0.9733 -0.5253  0.6729
  829MOL0     C11828   7.561   5.532   2.438  0.8171  0.1480 -0.3184
  829MOL0     C11829   7.508   5.609   2.545 -0.5548 -0.2943  0.0410
  829MOL0     N11830   6.985   5.839   3.011 -0.5235  0.1683 -0.4418
  829MOL0     N11831   6.926   5.945   3.009  0.7142  0.8117 -1.0038
  829MOL0     C11832   6.282   6.840   3.615 -0.1330 -0.8334  0.2698
  829MOL0     C11833   6.276   6.854   3.751  0.3049 -0.4684 -0.1714
  829MOL0     C11834   6.159   6.831   4.168 -0.8430 -0.2643  0.7005
  829MOL0     C11835   6.048   6.821   4.253 -0.4383  0.8777 -0.3421
  829MOL0     C11836   6.037   6.864   4.392  0.4203  0.7134 -0.3625
  829MOL0     C11837   6.147   6.933   4.433 -0.1807 -1.3033 -0.4711
  829MOL0     O11838   6.147   6.982   4.564 -0.3964 -0.0253  0.6708
  829MOL0     C11839   6.156   6.879   4.668 -0.2388 -0.0810  0.2179
  829MOL0     C11840   6.171   6.950   4.811  0.1023 -0.2253  0.6443
  829MOL0     C11841   6.284   7.047   4.813  0.6756 -0.0703  0.1710
  829MOL0     C11842   6.324   7.097   4.946  0.2954  0.2752 -0.5250
  829MOL0     C11843   6.210   7.170   5.007  0.1275  0.8981 -0.4326
  829MOL0     C11844   6.109   7.203   5.053 -1.0180 -0.2475 -0.4023
  829MOL0     C11845   6.259   6.944   4.358  0.2823 -0.1582 -0.2044
  829MOL0     C11846   6.274   6.882   4.233  0.0939 -0.1146 -0.4951
  829MOL0     C11847   6.411   6.898   4.178 -0.1375  0.0802  0.5776
  829MOL0     H11848   6.229   6.524   3.829  1.9810 -0.5000 -1.1861
  829MOL0     H11849   6.217   6.501   3.583 -1.2993 -0.4747  2.2482
  829MOL0     H11850   6.336   6.532   3.399  4.0147  2.2613 -2.7406
  829MOL0     H11851   6.166   6.553   3.348 -0.3131  1.5054  2.3550
  829MOL0     H11852   6.362   6.689   3.178 -0.5117  0.3407  0.1502
  829MOL0     H11853   6.210   6.625   3.136 -0.4726  1.7944  0.3700
  829MOL0     H11854   6.359   6.463   3.031  0.5260  1.5075 -1.6402
  829MOL0     H11855   6.305   6.384   3.167 -2.4085  1.7321 -0.5898
  829MOL0     H11856   6.564   6.547   3.173 -2.7505  1.4937 -0.3495
  829MOL0     H11857   6.500   6.424   3.285 -1.1309  1.4011  0.9369
  829MOL0     H11858   6.513   6.253   3.123  2.2452 -0.8164  0.5460
  829MOL0     H11859   6.570   6.357   2.986  2.9652  2.6078 -0.0839
  829MOL0     H11860   6.782   6.403   3.082  0.8120  0.4922  0.8687
  829MOL0     H11861   6.752   6.319   3.227  0.0084  2.1801 -0.6897
  829MOL0     H11862   6.789   6.197   2.959  1.2097  2.9667 -0.3345
  829MOL0     H11863   6.735   6.096   3.102 -0.1066  1.3500  1.0944
  829MOL0     H11864   6.994   6.254   3.056 -0.7945  2.9889  1.9547
  829MOL0     H11865   6.954   6.182   3.210  1.4773 -2.4808  1.1451
  829MOL0     H11866   7.199   6.065   3.144  0.8421 -0.5610 -1.8534
  829MOL0     H11867   7.308   5.840   3.141  0.5805 -2.1793  1.5440
  829MOL0     H11868   7.177   5.710   3.168  0.6626  1.5272  2.5042
  829MOL0     H11869   7.340   5.630   2.985 -0.1862  1.0631  1.2041
  829MOL0     H11870   7.191   5.667   2.922  0.5639  0.2159 -3.3899
  829MOL0     H11871   7.438   5.868   2.955 -0.0582  0.2497 -0.0909
  829MOL0     H11872   7.286   5.913   2.881  0.0159  0.4047  3.1149
  829MOL0     H11873   7.464   5.854   2.697 -1.0942 -0.6953 -2.8197
  829MOL0     H11874   7.331   5.738   2.702 -0.6409  1.3041  1.0688
  829MOL0     H11875   7.743   5.549   2.767  1.2374  0.7731 -0.2517
  829MOL0     H11876   7.843   5.433   2.565  0.6717  0.3642 -2.7681
  829MOL0     H11877   7.543   5.226   2.022  0.2121 -0.9218 -1.6319
  829MOL0     H11878   7.665   5.139   1.827 -0.0120 -1.8392  1.3165
  829MOL0     H11879   7.992   5.032   1.866  0.0082 -2.7272 -0.1317
  829MOL0     H11880   7.844   4.996   1.777 -0.4840  1.1003  0.6413
  829MOL0     H11881   8.077   5.100   1.624 -0.8509  0.4640  0.0655
  829MOL0     H11882   8.095   4.932   1.680 -0.1275 -1.3626 -0.8217
  829MOL0     H11883   7.919   4.846   1.553 -2.3412 -0.5591 -3.0944
  829MOL0     H11884   7.829   4.997   1.547  1.2656  4.1064 -0.8736
  829MOL0     H11885   8.091   4.929   1.411 -1.4003 -3.2618 -3.2897
  829MOL0     H11886   7.993   5.086   1.395 -2.2346  0.4037 -0.4835
  829MOL0     H11887   7.836   4.969   1.245  1.4483  1.0492 -0.5249
  829MOL0     H11888   7.879   4.810   1.330  1.8897 -0.4496 -0.2166
  829MOL0     H11889   8.029   4.976   1.128 -0.0406 -0.7326  0.0280
  829MOL0     H11890   8.105   4.830   1.211  0.4830  1.5246  3.1211
  829MOL0     H11891   8.019   4.793   0.981 -1.7462 -4.0526 -0.0876
  829MOL0     H11892   7.859   4.858   1.032  0.1092  0.7594 -1.6791
  829MOL0     H11893   7.992   4.600   1.134 -1.2192 -1.2819 -0.3809
  829MOL0     H11894   7.822   4.645   1.175  0.3292 -1.4362 -0.4787
  829MOL0     H11895   7.994   5.395   1.899 -0.0296  0.1299  1.1129
  829MOL0     H11896   7.898   5.484   2.096  2.5060 -0.7269 -1.0659
  829MOL0     H11897   7.496   5.535   2.351 -2.4808  0.7069  1.9899
  829MOL0     H11898   7.409   5.649   2.528 -1.1922 -2.6350 -2.4973
  829MOL0     H11899   6.298   6.925   3.550  0.3845 -1.3969 -0.3536
  829MOL0     H11900   6.296   6.953   3.790  0.6838 -0.3960 -0.5394
  829MOL0     H11901   5.952   6.784   4.218 -0.1005 -1.3255  0.8586
  829MOL0     H11902   5.953   6.828   4.450 -0.2158  2.8206  0.1262
  829MOL0     H11903   6.251   6.824   4.662 -1.0133 -1.5819  1.1339
  829MOL0     H11904   6.071   6.810   4.667 -1.2367  1.1220  0.7479
  829MOL0     H11905   6.178   6.862   4.876 -0.1649 -1.5037 -0.9779
  829MOL0     H11906   6.089   7.018   4.833  0.0474  1.2871 -3.3704
  829MOL0     H11907   6.277   7.119   4.731  0.0210 -1.2706 -0.8516
  829MOL0     H11908   6.377   7.000   4.781  1.8474  1.1635  1.5553
  829MOL0     H11909   6.369   7.016   5.003 -2.7063 -2.4793 -1.7505
  829MOL0     H11910   6.405   7.171   4.941  0.1860  0.3206 -2.0651
  829MOL0     H11911   6.022   7.229   5.110 -2.0012 -1.9297 -1.0691
  829MOL0     H11912   6.337   6.994   4.414  0.4670  0.1589 -0.7401
  829MOL0     H11913   6.442   6.812   4.118  1.8244  2.2801 -1.7721
  829MOL0     H11914   6.423   6.978   4.105 -1.9685 -0.2263 -0.1262
  829MOL0     H11915   6.489   6.905   4.254 -0.6074  0.3620  1.0444
  830MOL0     O11916   1.118   9.579   7.098  0.2724 -0.8214 -0.3253
  830MOL0     C11917   1.008   9.625   7.067 -0.3190  0.7773  0.6450
  830MOL0     O11918   0.897   9.598   7.130  0.0495  0.0389 -0.8468
  830MOL0     C11919   0.882   9.558   7.255 -1.0949 -0.2814 -0.0054
  830MOL0     C11920   0.742   9.563   7.302  0.9522  0.2292  0.1224
  830MOL0     C11921   0.708   9.519   7.434 -0.0710  0.1118 -0.5483
  830MOL0     C11922   0.809   9.464   7.513  0.6479 -0.0887  0.4847
  830MOL0     O11923   0.801   9.415   7.642 -0.1651  0.2422 -0.0536
  830MOL0     C11924   0.671   9.411   7.695  0.7088 -0.3025  0.2575
  830MOL0     C11925   0.681   9.352   7.832  0.1708  0.0543 -0.1515
  830MOL0     C11926   0.724   9.454   7.930  0.5273  0.2851  0.7907
  830MOL0     C11927   0.727   9.391   8.071  1.4151 -0.7637 -1.0111
  830MOL0     C11928   0.750   9.507   8.175  0.2787 -0.7479 -0.2919
  830MOL0     C11929   0.786   9.446   8.304  1.0220 -0.3910  0.2714
  830MOL0     C11930   0.760   9.551   8.423  0.4970 -0.2628  1.2982
  830MOL0     C11931   0.747   9.484   8.551  0.1036 -0.6395 -0.2669
  830MOL0     N11932   0.632   9.390   8.563  0.1529 -0.4237 -1.0687
  830MOL0     C11933   0.506   9.419   8.520  0.3742 -0.3875  0.3371
  830MOL0     C11934   0.417   9.342   8.584  1.0773  0.3260  0.0291
  830MOL0     C11935   0.262   9.347   8.552  0.2239 -0.7587 -0.2069
  830MOL0     C11936   0.189   9.484   8.592  0.6202 -1.4303 -0.4553
  830MOL0     C11937   0.045   9.459   8.549 -1.5248  1.0456 -0.7836
  830MOL0     C11938  -0.031   9.582   8.504  0.3530 -0.0602  0.3068
  830MOL0     O11939  -0.009   9.631   8.371  0.2212 -0.0830 -0.4118
  830MOL0     C11940  -0.088   9.580   8.273  1.5932 -0.3095  0.6338
  830MOL0     C11941  -0.189   9.657   8.212 -1.1893 -0.0401  0.7060
  830MOL0     C11942  -0.281   9.602   8.129 -0.0244 -0.0215  0.7291
  830MOL0     C11943  -0.265   9.468   8.093  0.2064  0.3054  0.7857
  830MOL0     C11944  -0.355   9.406   7.995 -0.2417 -0.3309  0.5616
  830MOL0     O11945  -0.306   9.295   7.931 -0.2367 -0.2299  0.2572
  830MOL0     C11946  -0.389   9.219   7.856 -0.8527  0.2894  0.5344
  830MOL0     C11947  -0.481   9.275   7.759  0.1186 -0.6154 -0.7493
  830MOL0     C11948  -0.568   9.188   7.695 -0.0650 -0.7778 -0.6607
  830MOL0     C11949  -0.562   9.057   7.711 -0.8983 -0.0640  0.4120
  830MOL0     O11950  -0.661   8.991   7.647  0.5855  0.8723  0.2824
  830MOL0     C11951  -0.735   8.903   7.735 -0.3795  1.1965  0.7371
  830MOL0     C11952  -0.879   8.922   7.701 -0.2749  0.7342  0.1680
  830MOL0     C11953  -0.951   8.798   7.750 -1.1773  0.4381  0.1287
  830MOL0     C11954  -1.090   8.828   7.813 -0.5269 -0.6314  0.0643
  830MOL0     C11955  -1.182   8.699   7.834  0.6206  0.2920 -0.1461
  830MOL0     C11956  -1.122   8.592   7.919 -0.0340  0.3158  0.3215
  830MOL0     C11957  -1.095   8.629   8.064 -0.3990  0.0479 -0.0519
  830MOL0     C11958  -0.949   8.626   8.104  0.6390 -0.3672 -0.1339
  830MOL0    Cl11959  -0.908   8.449   8.091  0.1355  0.2053  0.4926
  830MOL0     C11960  -0.466   8.995   7.800 -0.3645  0.6252 -0.3482
  830MOL0     C11961  -0.390   9.080   7.876 -0.5436  0.5169 -0.3304
  830MOL0     O11962  -0.463   9.450   7.977 -0.6515 -0.5998 -0.4633
  830MOL0     C11963  -0.160   9.389   8.150 -0.8263  0.0362  0.7779
  830MOL0     C11964  -0.076   9.453   8.237 -0.1815  0.4725  0.5787
  830MOL0     N11965   0.497   9.265   8.666  0.2157 -1.2093 -0.7175
  830MOL0     N11966   0.617   9.301   8.668  0.2115 -0.7261 -0.7893
  830MOL0     C11967   0.944   9.453   7.465  0.9574 -0.8037 -0.5869
  830MOL0     C11968   0.977   9.505   7.340 -0.6614  0.3500 -0.9888
  830MOL0     C11969   1.013   9.727   6.956  0.6295 -0.2473  1.0557
  830MOL0     C11970   1.109   9.721   6.854 -1.1195  0.3233  0.2544
  830MOL0     C11971   1.127   9.819   6.750 -0.8510 -0.4502  0.1122
  830MOL0     C11972   1.039   9.929   6.749 -0.5142 -1.1167  0.0205
  830MOL0     O11973   1.054  10.029   6.657 -1.2121 -0.5018  0.7560
  830MOL0     C11974   1.129  10.005   6.537  0.0990  0.4933 -0.3565
  830MOL0     C11975   1.057  10.087   6.439 -0.9195  0.6872 -0.4973
  830MOL0     C11976   1.095  10.234   6.462  0.3575  0.0806  0.1983
  830MOL0     C11977   0.991  10.324   6.385 -0.2348 -0.2990 -0.1792
  830MOL0     C11978   1.038  10.460   6.349  0.3418  1.8269  0.4052
  830MOL0     C11979   1.088  10.570   6.321  0.6403  0.0473  0.2631
  830MOL0     C11980   0.935   9.943   6.842 -0.2660 -0.0963  0.0939
  830MOL0     C11981   0.922   9.842   6.940 -0.3943 -0.4208 -0.2725
  830MOL0     C11982   0.807   9.865   7.036  0.0301 -0.4175  0.0652
  830MOL0     H11983   0.663   9.612   7.246 -0.0212 -0.0064  1.2529
  830MOL0     H11984   0.606   9.530   7.470  0.3961  1.4826  0.4104
  830MOL0     H11985   0.622   9.508   7.706 -1.4779 -1.5004  1.9612
  830MOL0     H11986   0.604   9.347   7.637  1.3422 -1.0397  0.3238
  830MOL0     H11987   0.746   9.266   7.851 -1.4320 -0.6243  2.9704
  830MOL0     H11988   0.580   9.328   7.866 -0.6946 -0.4672 -2.8132
  830MOL0     H11989   0.661   9.544   7.920 -1.7623 -1.1308  1.7539
  830MOL0     H11990   0.825   9.482   7.901  0.5885 -1.2153 -0.5800
  830MOL0     H11991   0.628   9.346   8.085 -0.0814  2.0871 -1.7927
  830MOL0     H11992   0.812   9.322   8.077  1.5725 -0.5255 -0.4355
  830MOL0     H11993   0.841   9.564   8.159  0.0822 -0.5028 -0.5548
  830MOL0     H11994   0.664   9.574   8.180  0.4442 -0.3374 -2.1713
  830MOL0     H11995   0.718   9.360   8.313  0.1388  0.0552 -1.6354
  830MOL0     H11996   0.886   9.404   8.291 -0.2994 -3.8884  0.1475
  830MOL0     H11997   0.672   9.608   8.393  1.0640 -1.6668 -4.0019
  830MOL0     H11998   0.844   9.621   8.426  0.4538 -0.2408  2.2801
  830MOL0     H11999   0.842   9.433   8.569 -0.4348 -1.2641  0.9269
  830MOL0     H12000   0.752   9.552   8.637 -0.4923 -0.9617  0.0328
  830MOL0     H12001   0.479   9.500   8.453  5.1314  2.0483  0.9021
  830MOL0     H12002   0.261   9.322   8.446  3.0915 -2.1529  0.0034
  830MOL0     H12003   0.219   9.277   8.625 -3.0990  1.3347  0.0764
  830MOL0     H12004   0.181   9.506   8.699  2.0560  1.9938 -0.9403
  830MOL0     H12005   0.237   9.573   8.551  0.9947 -0.8252  1.2144
  830MOL0     H12006  -0.004   9.422   8.639  0.7716  1.4179  0.7164
  830MOL0     H12007   0.036   9.377   8.478 -1.9301 -1.8561  2.3806
  830MOL0     H12008  -0.005   9.660   8.577 -0.1154  0.4522 -0.0693
  830MOL0     H12009  -0.130   9.549   8.539  0.8724 -0.2386  1.6878
  830MOL0     H12010  -0.178   9.757   8.252 -0.3070 -0.7357  2.2711
  830MOL0     H12011  -0.353   9.667   8.079  0.2181 -0.5823 -0.3824
  830MOL0     H12012  -0.474   9.383   7.753  0.3758 -0.4359  1.6257
  830MOL0     H12013  -0.642   9.230   7.629  2.1085  3.3646 -0.7962
  830MOL0     H12014  -0.701   8.801   7.714 -1.2545  0.7607  1.3917
  830MOL0     H12015  -0.726   8.915   7.843  1.8718 -3.0807  1.2471
  830MOL0     H12016  -0.915   9.022   7.725 -1.8528  0.3991 -0.6129
  830MOL0     H12017  -0.891   8.916   7.592  1.7051  0.2574 -0.0521
  830MOL0     H12018  -0.969   8.744   7.657 -0.5934  2.0086 -0.9512
  830MOL0     H12019  -0.890   8.740   7.820 -0.7037  1.9826  1.0523
  830MOL0     H12020  -1.139   8.904   7.752  1.6527  0.9530  0.1583
  830MOL0     H12021  -1.072   8.872   7.911  0.7690 -1.3706  0.1823
  830MOL0     H12022  -1.200   8.655   7.735 -1.4509 -0.7848  0.6464
  830MOL0     H12023  -1.279   8.726   7.876  0.3535  1.2707 -1.3428
  830MOL0     H12024  -1.186   8.503   7.915 -0.0770  0.3186  0.8294
  830MOL0     H12025  -1.030   8.554   7.873 -0.7554 -0.9325 -0.1348
  830MOL0     H12026  -1.146   8.551   8.121  2.4154 -0.2756  2.2730
  830MOL0     H12027  -1.139   8.727   8.082 -4.6578 -1.7927  0.7104
  830MOL0     H12028  -0.878   8.681   8.042 -1.6423 -0.9218 -3.5177
  830MOL0     H12029  -0.939   8.647   8.211  0.2527  0.0072 -0.1660
  830MOL0     H12030  -0.474   8.887   7.812 -1.6913  0.7381 -0.0334
  830MOL0     H12031  -0.327   9.030   7.950  1.0416  2.5150 -0.2342
  830MOL0     H12032  -0.145   9.284   8.127  0.0509 -0.7489  4.3802
  830MOL0     H12033   0.010   9.396   8.272  1.7764  2.1495 -1.2087
  830MOL0     H12034   1.020   9.415   7.532  0.8524 -1.1492 -0.6653
  830MOL0     H12035   1.084   9.498   7.320 -0.8252  0.0102 -1.7877
  830MOL0     H12036   1.180   9.639   6.860 -0.7873  0.7305  2.3600
  830MOL0     H12037   1.214   9.807   6.685 -0.1720 -0.1175  0.9354
  830MOL0     H12038   1.132   9.901   6.505  1.5310  0.7288 -1.0876
  830MOL0     H12039   1.235  10.025   6.559 -0.4826  1.1079  2.2524
  830MOL0     H12040   0.951  10.061   6.450 -0.8163 -0.8493 -2.4515
  830MOL0     H12041   1.084  10.059   6.337 -1.0135 -0.1476 -0.3062
  830MOL0     H12042   1.190  10.269   6.420 -0.5460  4.1984  1.0608
  830MOL0     H12043   1.091  10.277   6.563 -1.0274  1.1360 -0.2837
  830MOL0     H12044   0.973  10.265   6.294 -0.9723 -0.4269  0.0438
  830MOL0     H12045   0.904  10.340   6.449  1.4526  1.6017  1.8253
  830MOL0     H12046   1.139  10.663   6.304 -1.9366  2.2621  3.3541
  830MOL0     H12047   0.865  10.026   6.835  0.8555  0.7693 -1.6223
  830MOL0     H12048   0.726   9.812   6.986 -1.2863  2.2708 -0.8668
  830MOL0     H12049   0.820   9.826   7.137  2.5674 -2.7085 -1.0034
  830MOL0     H12050   0.781   9.971   7.044  0.4442 -0.2061 -1.1013
  831MOL0     O12051   4.193   6.501   6.833  0.5403 -0.2608  0.2964
  831MOL0     C12052   4.101   6.458   6.896  0.6586 -0.2065  0.9121
  831MOL0     O12053   4.109   6.361   6.990  0.3855 -0.2031 -0.0472
  831MOL0     C12054   4.238   6.340   7.045  0.5714 -0.0250  0.2773
  831MOL0     C12055   4.301   6.223   7.003 -0.4979 -0.2005 -0.8629
  831MOL0     C12056   4.424   6.187   7.066 -0.1742 -0.5058 -0.0356
  831MOL0     C12057   4.474   6.260   7.176 -0.0083 -1.1364  0.4173
  831MOL0     O12058   4.583   6.209   7.245  0.3656 -0.5677  0.2175
  831MOL0     C12059   4.585   6.235   7.392  1.0504  0.3079 -0.8471
  831MOL0     C12060   4.656   6.107   7.439 -0.0549 -0.3273 -0.7751
  831MOL0     C12061   4.809   6.111   7.420 -0.3143  0.2227  0.4067
  831MOL0     C12062   4.877   5.982   7.470  0.9022 -0.2300  0.3780
  831MOL0     C12063   4.838   5.852   7.396  0.0513  0.0966  0.0119
  831MOL0     C12064   4.953   5.746   7.400 -0.0495  0.1255 -0.9851
  831MOL0     C12065   4.917   5.621   7.308 -0.3815 -0.8541 -0.3187
  831MOL0     C12066   4.896   5.645   7.158 -0.7671 -0.2512 -0.1588
  831MOL0     N12067   4.942   5.531   7.077 -0.4029 -0.4041 -0.1084
  831MOL0     C12068   5.068   5.525   7.014  0.2678  0.6529  0.3788
  831MOL0     C12069   5.056   5.419   6.932 -0.5246  0.4623  0.2054
  831MOL0     C12070   5.171   5.377   6.840 -1.2965 -0.0206 -0.5676
  831MOL0     C12071   5.304   5.457   6.862 -0.5453 -1.2288  0.3320
  831MOL0     C12072   5.426   5.393   6.784  0.5056  0.1114  0.2698
  831MOL0     C12073   5.558   5.461   6.794 -0.8398 -0.0142 -0.2472
  831MOL0     O12074   5.637   5.376   6.704  0.0391 -0.3961  0.8766
  831MOL0     C12075   5.777   5.377   6.710  0.5060  0.4737  0.4021
  831MOL0     C12076   5.843   5.291   6.623 -0.6810  0.0213  0.5384
  831MOL0     C12077   5.980   5.295   6.608  0.1123 -1.0099 -0.0143
  831MOL0     C12078   6.060   5.373   6.699 -1.0837  0.1193  0.6879
  831MOL0     C12079   6.207   5.381   6.686  0.2881 -0.4165  0.8439
  831MOL0     O12080   6.278   5.413   6.791 -0.3083  0.4306 -0.3248
  831MOL0     C12081   6.420   5.427   6.779  0.4647 -0.7410  0.0711
  831MOL0     C12082   6.472   5.547   6.799  1.0135 -0.2853  0.2454
  831MOL0     C12083   6.612   5.567   6.776  0.7271  0.1794 -0.2423
  831MOL0     C12084   6.688   5.462   6.743  0.0480  0.5692  0.8408
  831MOL0     O12085   6.817   5.508   6.723 -0.6542  0.1444 -0.6359
  831MOL0     C12086   6.906   5.424   6.794  0.3879 -0.2550 -0.6806
  831MOL0     C12087   7.035   5.498   6.831  0.5716 -0.7069 -0.0477
  831MOL0     C12088   7.132   5.512   6.712 -0.1547 -0.1044  1.0643
  831MOL0     C12089   7.247   5.606   6.757  0.2680  0.7780 -0.5174
  831MOL0     C12090   7.317   5.619   6.620 -1.2515  0.0595 -0.6602
  831MOL0     C12091   7.426   5.727   6.639 -0.7631 -0.1872  0.3500
  831MOL0     C12092   7.490   5.756   6.503 -0.6724  0.1626  0.2132
  831MOL0     C12093   7.544   5.635   6.423 -0.5934 -0.0672  0.7503
  831MOL0    Cl12094   7.609   5.509   6.533 -0.0352 -0.0016  0.6285
  831MOL0     C12095   6.647   5.332   6.735  0.6737  0.3281  1.0168
  831MOL0     C12096   6.505   5.316   6.745 -0.1965  0.4611  0.5553
  831MOL0     O12097   6.258   5.350   6.574 -0.1947  0.3749  0.5741
  831MOL0     C12098   5.996   5.455   6.793 -1.0646 -0.3844 -0.2279
  831MOL0     C12099   5.852   5.458   6.791 -0.2025 -0.4927 -0.3812
  831MOL0     N12100   4.931   5.369   6.940  0.4024  0.2128  0.6509
  831MOL0     N12101   4.874   5.423   7.047  0.2574 -0.4620  0.1152
  831MOL0     C12102   4.405   6.378   7.211  0.8923  0.3321 -0.0216
  831MOL0     C12103   4.282   6.412   7.155 -0.2061 -0.7783 -0.2099
  831MOL0     C12104   3.959   6.506   6.863  0.2185  0.2276  0.6746
  831MOL0     C12105   3.847   6.461   6.937  0.3970 -0.9236 -0.3581
  831MOL0     C12106   3.720   6.492   6.896 -0.0136 -1.2957 -0.6380
  831MOL0     C12107   3.695   6.574   6.791  0.0435  0.7394  0.0560
  831MOL0     O12108   3.574   6.607   6.751  0.6886 -0.5956  0.1566
  831MOL0     C12109   3.546   6.748   6.764  0.4905 -1.5046 -0.4734
  831MOL0     C12110   3.409   6.781   6.821 -0.1946  0.0304  1.3732
  831MOL0     C12111   3.412   6.931   6.855 -0.4242 -0.3805  0.2768
  831MOL0     C12112   3.285   6.992   6.888 -0.1382 -0.4018  0.0425
  831MOL0     C12113   3.216   6.901   6.978  0.1228 -0.2263  0.5930
  831MOL0     C12114   3.174   6.823   7.068  0.4525  0.3095  0.2940
  831MOL0     C12115   3.796   6.629   6.720  0.2337 -0.8044  0.7959
  831MOL0     C12116   3.923   6.593   6.754 -0.0300 -0.4098 -0.3651
  831MOL0     C12117   4.029   6.633   6.653 -0.2667  0.3027  0.1782
  831MOL0     H12118   4.248   6.163   6.929 -2.8360 -2.4219  2.3341
  831MOL0     H12119   4.478   6.094   7.054 -0.0700 -0.3467 -0.8555
  831MOL0     H12120   4.643   6.325   7.415  3.6482 -1.0129 -1.8259
  831MOL0     H12121   4.488   6.232   7.442  2.5620 -2.2869  2.3281
  831MOL0     H12122   4.619   6.022   7.381 -0.9261  0.8480 -1.9926
  831MOL0     H12123   4.628   6.108   7.545 -3.2954  1.6553 -1.5245
  831MOL0     H12124   4.842   6.204   7.466 -1.3730  1.2302 -0.8034
  831MOL0     H12125   4.832   6.117   7.314 -1.1335 -0.0913  0.2021
  831MOL0     H12126   4.984   6.003   7.468  0.5173  2.1137  0.8971
  831MOL0     H12127   4.846   5.958   7.572 -1.9277 -1.0980 -0.5879
  831MOL0     H12128   4.747   5.813   7.441 -2.1427  4.4606 -0.1244
  831MOL0     H12129   4.803   5.875   7.295 -0.2803  1.9115  0.5073
  831MOL0     H12130   5.039   5.803   7.364 -0.7059  2.5881  0.9970
  831MOL0     H12131   4.963   5.725   7.507 -1.3403  1.1798 -0.6263
  831MOL0     H12132   4.828   5.569   7.344 -0.2324 -1.9240 -1.4121
  831MOL0     H12133   4.999   5.550   7.320  1.6870  1.4021 -0.3441
  831MOL0     H12134   4.788   5.660   7.147 -0.8929 -1.8373 -1.4726
  831MOL0     H12135   4.945   5.737   7.123 -2.3837  0.2541 -1.1985
  831MOL0     H12136   5.155   5.590   7.019  0.5062  0.4720 -0.9606
  831MOL0     H12137   5.180   5.268   6.836  0.5790  0.0726  0.0331
  831MOL0     H12138   5.152   5.403   6.736 -2.2610 -0.9181 -0.6304
  831MOL0     H12139   5.283   5.558   6.827 -1.2078 -0.9645  1.4314
  831MOL0     H12140   5.323   5.471   6.969  0.4435  2.6652 -0.1969
  831MOL0     H12141   5.392   5.380   6.681 -0.9273  1.7659  0.4780
  831MOL0     H12142   5.433   5.294   6.829 -0.8828 -0.2720 -0.3054
  831MOL0     H12143   5.585   5.440   6.898 -0.8607 -0.7579 -0.3918
  831MOL0     H12144   5.549   5.567   6.765 -0.2080  0.9625  2.7758
  831MOL0     H12145   5.798   5.224   6.550  3.3137 -1.5379 -0.8233
  831MOL0     H12146   6.023   5.227   6.536  0.0466 -0.1974 -0.8451
  831MOL0     H12147   6.399   5.626   6.817 -0.5001 -1.9501  1.7426
  831MOL0     H12148   6.644   5.670   6.773 -1.5980  1.0055  0.6441
  831MOL0     H12149   6.863   5.383   6.887  0.0701 -0.4950 -0.9313
  831MOL0     H12150   6.933   5.354   6.714  0.6893 -1.9625  0.8408
  831MOL0     H12151   7.010   5.587   6.888 -0.0391 -0.0669 -1.2635
  831MOL0     H12152   7.085   5.433   6.903 -2.2830 -3.1942 -0.0759
  831MOL0     H12153   7.168   5.424   6.659  1.5158  2.3399 -2.2672
  831MOL0     H12154   7.077   5.565   6.633  1.7804 -1.7806 -1.5672
  831MOL0     H12155   7.303   5.568   6.843 -3.0571 -2.5877  0.4232
  831MOL0     H12156   7.198   5.700   6.787  0.4093 -0.2329  3.4126
  831MOL0     H12157   7.238   5.648   6.549 -0.7877 -3.4711 -2.8561
  831MOL0     H12158   7.350   5.521   6.584 -2.0816 -0.5552  0.1810
  831MOL0     H12159   7.393   5.822   6.681  0.6710  1.3727 -1.8528
  831MOL0     H12160   7.504   5.680   6.701 -0.1093  0.5101  0.0730
  831MOL0     H12161   7.575   5.823   6.514 -0.3480  0.3552 -2.7467
  831MOL0     H12162   7.415   5.807   6.441  2.4824 -0.1105 -4.3441
  831MOL0     H12163   7.459   5.596   6.367  0.0452 -0.2689 -0.1023
  831MOL0     H12164   7.622   5.660   6.351 -0.7438 -0.3041  0.5027
  831MOL0     H12165   6.704   5.243   6.709 -1.4567 -0.7718 -0.1710
  831MOL0     H12166   6.472   5.215   6.723  0.4827 -0.1338  2.1045
  831MOL0     H12167   6.049   5.526   6.856 -1.2045 -0.0247 -0.5081
  831MOL0     H12168   5.810   5.528   6.862 -1.2591 -1.0870 -0.3969
  831MOL0     H12169   4.442   6.432   7.297  1.1451 -0.9006  0.6691
  831MOL0     H12170   4.232   6.494   7.206  2.4148  1.4254 -0.9810
  831MOL0     H12171   3.869   6.399   7.023 -2.0903  0.1123  1.1280
  831MOL0     H12172   3.629   6.452   6.938 -0.0296 -0.6793 -0.0559
  831MOL0     H12173   3.570   6.795   6.669  2.0173 -0.2429  0.4938
  831MOL0     H12174   3.620   6.789   6.833  0.3312  0.9123 -1.6418
  831MOL0     H12175   3.384   6.723   6.911 -2.9033  1.7770  1.8560
  831MOL0     H12176   3.341   6.762   6.737  4.3975  0.7295 -2.9573
  831MOL0     H12177   3.445   6.989   6.769 -0.4521  2.6291  2.1782
  831MOL0     H12178   3.475   6.945   6.943  1.2570 -2.8122 -0.4328
  831MOL0     H12179   3.304   7.093   6.926  1.2065 -0.3711 -0.6468
  831MOL0     H12180   3.227   6.999   6.796 -1.0630 -0.0144  0.6400
  831MOL0     H12181   3.111   6.763   7.130  2.3845 -0.1149  1.9452
  831MOL0     H12182   3.777   6.697   6.638  0.7794 -2.7747 -1.0378
  831MOL0     H12183   4.076   6.546   6.605  0.8714  1.3702 -0.7322
  831MOL0     H12184   4.003   6.693   6.565  3.4217  2.7087  0.5122
  831MOL0     H12185   4.103   6.706   6.687  1.6457  0.5639 -3.8864
  832MOL0     O12186   9.680   2.169   5.043 -0.0096  0.2975  0.8768
  832MOL0     C12187   9.631   2.201   4.936  0.6227 -1.4940  0.3930
  832MOL0     O12188   9.603   2.124   4.836 -0.7072 -0.8333  0.3855
  832MOL0     C12189   9.652   2.010   4.800 -0.3578  1.0530  0.1403
  832MOL0     C12190   9.644   1.965   4.670 -0.4475 -0.6080  0.2924
  832MOL0     C12191   9.698   1.845   4.620  0.2187 -0.5756 -0.0434
  832MOL0     C12192   9.761   1.762   4.704 -1.3883 -0.2982  0.1785
  832MOL0     O12193   9.826   1.647   4.657  0.1766  0.4111 -0.2082
  832MOL0     C12194   9.961   1.630   4.700  0.4637  0.2598  0.0295
  832MOL0     C12195  10.031   1.501   4.656  0.0283 -1.0701  0.4122
  832MOL0     C12196   9.980   1.371   4.721  0.9774  0.7979 -0.0487
  832MOL0     C12197  10.044   1.359   4.860 -0.3770 -0.0159  0.0474
  832MOL0     C12198  10.010   1.234   4.935  0.0735 -0.2185 -0.7834
  832MOL0     C12199   9.860   1.209   4.966 -0.6756  0.0679 -0.2427
  832MOL0     C12200   9.779   1.307   5.056 -0.3538 -0.6296  0.5187
  832MOL0     C12201   9.632   1.269   5.033 -0.5764  0.2219 -0.3996
  832MOL0     N12202   9.550   1.372   5.098  0.3209 -0.8079 -0.1378
  832MOL0     C12203   9.563   1.512   5.087 -0.6259  0.6053 -0.2823
  832MOL0     C12204   9.467   1.569   5.138  0.5738 -0.4836  0.7865
  832MOL0     C12205   9.459   1.722   5.142  0.3599  0.6912  0.1819
  832MOL0     C12206   9.368   1.788   5.239 -0.4561  0.2998  0.5590
  832MOL0     C12207   9.293   1.913   5.188  0.6817 -0.0400 -0.2506
  832MOL0     C12208   9.399   2.022   5.183 -0.2996  0.1837  0.4159
  832MOL0     O12209   9.328   2.146   5.196 -0.8310 -0.3529  0.1390
  832MOL0     C12210   9.276   2.208   5.084 -0.2328 -1.0225 -0.4185
  832MOL0     C12211   9.219   2.326   5.115  0.1487  0.7198 -0.7531
  832MOL0     C12212   9.165   2.402   5.010 -1.5643 -0.1620  0.3803
  832MOL0     C12213   9.180   2.365   4.868  0.2179  0.3226 -0.2689
  832MOL0     C12214   9.128   2.453   4.758  0.4499  0.1874 -0.3021
  832MOL0     O12215   9.137   2.587   4.773  0.2712  0.2109  0.3839
  832MOL0     C12216   9.076   2.663   4.673  0.3644 -0.9315  0.1804
  832MOL0     C12217   8.944   2.652   4.642  0.2060  0.2439 -0.1719
  832MOL0     C12218   8.880   2.731   4.546  0.3361 -0.7383 -0.0590
  832MOL0     C12219   8.952   2.831   4.477 -0.3185  0.0202  0.0771
  832MOL0     O12220   8.914   2.899   4.364  0.8471  0.5451 -0.1405
  832MOL0     C12221   8.781   2.896   4.315  0.1552  0.3393  1.0826
  832MOL0     C12222   8.776   2.950   4.174  0.3765 -0.3162  0.4384
  832MOL0     C12223   8.849   2.869   4.067 -0.1490  0.7399  0.2856
  832MOL0     C12224   8.999   2.915   4.039 -0.4480  0.5375  0.2052
  832MOL0     C12225   8.993   3.042   3.958 -0.0345  0.3622 -0.0215
  832MOL0     C12226   9.131   3.089   3.915  0.8346  0.6524  0.0997
  832MOL0     C12227   9.111   3.217   3.837  0.3432  0.4514 -0.3575
  832MOL0     C12228   9.246   3.287   3.789  1.1737  0.6883 -0.6980
  832MOL0    Cl12229   9.359   3.303   3.926  0.0741 -0.3903  0.0389
  832MOL0     C12230   9.092   2.828   4.502 -0.3396 -0.0925  0.1331
  832MOL0     C12231   9.151   2.758   4.606 -1.2333 -0.6990  0.0113
  832MOL0     O12232   9.079   2.396   4.662 -1.0001  1.0311 -0.1826
  832MOL0     C12233   9.246   2.248   4.838  0.9426  0.5270  0.0109
  832MOL0     C12234   9.285   2.168   4.948  0.0284 -0.0182  1.7490
  832MOL0     N12235   9.385   1.466   5.181  0.2219  0.5031 -0.5923
  832MOL0     N12236   9.437   1.350   5.168  0.4500  0.1197 -0.6071
  832MOL0     C12237   9.768   1.800   4.836 -0.0234 -0.2580  0.6628
  832MOL0     C12238   9.720   1.917   4.885 -0.7643 -0.8000  0.1707
  832MOL0     C12239   9.573   2.347   4.936 -0.3301  0.8593 -0.6820
  832MOL0     C12240   9.565   2.410   5.063 -0.5232  0.4357 -1.0464
  832MOL0     C12241   9.528   2.545   5.076 -0.0265 -0.0673 -0.1325
  832MOL0     C12242   9.501   2.621   4.961  0.7571  0.1559  0.3905
  832MOL0     O12243   9.465   2.753   4.993  0.4177  0.4339 -0.0586
  832MOL0     C12244   9.409   2.829   4.884 -1.2111  0.2240  0.0861
  832MOL0     C12245   9.346   2.948   4.954  1.1750 -0.1694 -0.6104
  832MOL0     C12246   9.285   3.044   4.853 -0.5311  0.0056 -0.1159
  832MOL0     C12247   9.366   3.099   4.728 -0.4190 -1.1826 -0.0327
  832MOL0     C12248   9.489   3.172   4.774 -0.2963  0.5789  0.8989
  832MOL0     C12249   9.595   3.212   4.818 -0.0653 -0.5421 -0.4392
  832MOL0     C12250   9.500   2.560   4.836  0.7026  0.0099  0.0720
  832MOL0     C12251   9.539   2.425   4.823 -0.8437 -0.4818 -0.7353
  832MOL0     C12252   9.573   2.366   4.692 -0.3557  0.3080 -0.5902
  832MOL0     H12253   9.614   2.038   4.595 -1.0574 -1.9988 -0.8731
  832MOL0     H12254   9.702   1.805   4.519 -1.2695 -0.6219 -0.1091
  832MOL0     H12255  10.021   1.719   4.677 -1.7256  2.0937  0.9933
  832MOL0     H12256   9.960   1.629   4.810  3.4254  0.9454  0.1473
  832MOL0     H12257  10.138   1.500   4.679 -0.1404  0.7594  1.5542
  832MOL0     H12258  10.028   1.492   4.547  1.4749 -3.0288  0.4795
  832MOL0     H12259  10.012   1.289   4.657 -0.2241  0.4919 -0.2817
  832MOL0     H12260   9.871   1.381   4.729  0.9506 -0.6328  2.7802
  832MOL0     H12261  10.153   1.353   4.848  0.4862 -0.5487  5.3924
  832MOL0     H12262  10.007   1.441   4.923  3.2642  3.1829 -1.5629
  832MOL0     H12263  10.068   1.150   4.896  1.3053 -0.0334  0.5887
  832MOL0     H12264  10.050   1.252   5.035 -3.9377 -2.4900  1.5236
  832MOL0     H12265   9.813   1.189   4.869  1.5034 -0.8167 -1.1825
  832MOL0     H12266   9.869   1.121   5.031  1.2213  1.7350  1.9237
  832MOL0     H12267   9.795   1.414   5.041  1.1837 -0.9131  0.0048
  832MOL0     H12268   9.814   1.301   5.160 -0.2184  0.5374  0.5548
  832MOL0     H12269   9.608   1.257   4.927  3.2797 -2.6654 -1.1816
  832MOL0     H12270   9.613   1.171   5.079 -0.9072  1.7740  3.1011
  832MOL0     H12271   9.643   1.563   5.033  1.8829 -2.0174  0.7142
  832MOL0     H12272   9.559   1.762   5.161  1.8848 -1.9705 -1.5527
  832MOL0     H12273   9.434   1.767   5.045  0.8514  3.2115  1.1474
  832MOL0     H12274   9.296   1.714   5.275  1.4696 -1.2337  1.4331
  832MOL0     H12275   9.436   1.810   5.323  0.1295  0.2945  0.0915
  832MOL0     H12276   9.225   1.932   5.271 -0.0294 -0.0365 -0.8302
  832MOL0     H12277   9.247   1.889   5.092  0.7335 -1.3694  0.0253
  832MOL0     H12278   9.458   2.019   5.091  2.6867  0.1278  2.2120
  832MOL0     H12279   9.475   2.016   5.261  2.1660 -0.5776 -1.8997
  832MOL0     H12280   9.225   2.352   5.221 -1.1214 -1.9013  0.0317
  832MOL0     H12281   9.134   2.503   5.038  0.3630  1.2846 -2.2858
  832MOL0     H12282   8.894   2.568   4.689  0.1809  0.2487 -0.1896
  832MOL0     H12283   8.775   2.707   4.531  0.3796 -1.5377  0.8474
  832MOL0     H12284   8.757   2.789   4.309 -1.0806  0.6467  0.2536
  832MOL0     H12285   8.722   2.959   4.381  2.4735  0.1294  3.5141
  832MOL0     H12286   8.671   2.968   4.152  1.4329  1.2877 -4.6179
  832MOL0     H12287   8.822   3.049   4.166 -0.3142 -0.1309 -3.9534
  832MOL0     H12288   8.853   2.761   4.079  0.6878  0.8557  1.2549
  832MOL0     H12289   8.787   2.879   3.978 -4.4227  2.5096  3.1105
  832MOL0     H12290   9.046   2.830   3.990 -4.3476 -0.8237 -1.5938
  832MOL0     H12291   9.048   2.936   4.135 -1.7547  0.5837  0.8852
  832MOL0     H12292   8.944   3.122   4.016 -1.2116 -1.2934  1.3566
  832MOL0     H12293   8.941   3.016   3.865  0.2663  0.9752 -0.3681
  832MOL0     H12294   9.196   3.101   4.003 -1.3130  0.5929  1.7993
  832MOL0     H12295   9.188   3.016   3.856 -0.0258 -2.2507  2.5623
  832MOL0     H12296   9.066   3.291   3.904 -0.0722  1.8488 -2.0966
  832MOL0     H12297   9.056   3.201   3.743 -0.4023  0.1251  0.1301
  832MOL0     H12298   9.284   3.232   3.703  1.2279 -0.8679  0.2967
  832MOL0     H12299   9.215   3.387   3.755 -2.9933 -0.8992 -2.2478
  832MOL0     H12300   9.146   2.911   4.458  1.2474 -2.3322 -2.4464
  832MOL0     H12301   9.254   2.784   4.631 -0.6872 -0.9597 -1.8248
  832MOL0     H12302   9.273   2.236   4.733  0.1155  0.8360 -0.2404
  832MOL0     H12303   9.337   2.077   4.919  0.3236  1.2181 -2.2698
  832MOL0     H12304   9.820   1.740   4.910  2.7532  1.8365  0.5555
  832MOL0     H12305   9.734   1.941   4.990  0.0361 -1.4828  0.2409
  832MOL0     H12306   9.584   2.347   5.150  1.4654  0.8405 -1.1434
  832MOL0     H12307   9.537   2.580   5.178  1.1715 -0.2743 -0.1417
  832MOL0     H12308   9.338   2.777   4.820  0.7541 -1.4172 -0.8415
  832MOL0     H12309   9.486   2.856   4.811 -0.8253 -3.3386 -0.9721
  832MOL0     H12310   9.425   2.992   5.017  3.9739 -4.3018 -0.8585
  832MOL0     H12311   9.270   2.912   5.024  0.4966  1.6794 -0.3193
  832MOL0     H12312   9.258   3.137   4.904 -2.1139 -0.3048 -0.3206
  832MOL0     H12313   9.195   3.001   4.807 -0.1912 -0.3986 -0.4076
  832MOL0     H12314   9.380   3.014   4.661 -3.1411 -2.4517  0.8246
  832MOL0     H12315   9.290   3.162   4.681 -1.8409 -2.2696  0.7232
  832MOL0     H12316   9.687   3.247   4.861 -0.5186 -1.4880  1.3972
  832MOL0     H12317   9.487   2.611   4.741  0.3554 -1.3756 -0.6468
  832MOL0     H12318   9.668   2.313   4.701  0.3269  1.5336 -0.2970
  832MOL0     H12319   9.493   2.304   4.652 -0.0760  0.6877 -1.7789
  832MOL0     H12320   9.589   2.449   4.623 -2.3781 -0.4671 -2.0844
  833MOL0     O12321   3.779   1.633  10.045 -0.5917  0.6592 -0.1300
  833MOL0     C12322   3.838   1.571  10.130  0.5463 -0.9771 -0.2525
  833MOL0     O12323   3.977   1.542  10.133 -0.5917 -0.1101 -0.4002
  833MOL0     C12324   4.052   1.558  10.030  0.2141  0.4098  0.0284
  833MOL0     C12325   4.166   1.630  10.030 -0.8550 -1.0421 -0.1871
  833MOL0     C12326   4.261   1.617   9.922  0.9298  0.3605 -0.2086
  833MOL0     C12327   4.219   1.558   9.806  0.6180 -0.0215  0.0941
  833MOL0     O12328   4.309   1.550   9.707  0.3643 -0.6624  0.7095
  833MOL0     C12329   4.366   1.678   9.662 -0.5317 -0.0257  0.5734
  833MOL0     C12330   4.421   1.670   9.512 -0.2996 -0.1455  0.5691
  833MOL0     C12331   4.316   1.629   9.410  0.8396  0.2778  0.3151
  833MOL0     C12332   4.372   1.535   9.304  0.7814  1.3027  0.1640
  833MOL0     C12333   4.272   1.478   9.191 -0.3846  0.1120  0.1428
  833MOL0     C12334   4.258   1.569   9.062 -1.0158 -0.4001  0.1379
  833MOL0     C12335   4.114   1.600   9.025  0.3313  0.5726  0.1490
  833MOL0     C12336   4.127   1.663   8.878  0.0080 -0.5563  0.4330
  833MOL0     N12337   4.166   1.808   8.879 -0.1213  0.6025  0.0695
  833MOL0     C12338   4.179   1.895   8.989 -0.4197  0.7015 -0.2421
  833MOL0     C12339   4.191   2.015   8.938  0.5020 -0.3335  0.3779
  833MOL0     C12340   4.220   2.144   9.015 -0.4409 -0.5419  0.0299
  833MOL0     C12341   4.306   2.248   8.935  0.4655  0.4676 -0.2281
  833MOL0     C12342   4.352   2.369   9.021  0.2371 -0.3120 -0.2273
  833MOL0     C12343   4.243   2.483   9.011  0.8814  0.6842  0.2731
  833MOL0     O12344   4.220   2.524   8.875  0.0402 -0.4384 -0.2835
  833MOL0     C12345   4.316   2.609   8.816 -1.0370  0.7132 -1.0168
  833MOL0     C12346   4.417   2.674   8.890  0.6117  0.7579  0.5991
  833MOL0     C12347   4.523   2.747   8.833 -0.3034  0.4904  1.2613
  833MOL0     C12348   4.530   2.761   8.696  0.1747  1.0074 -0.0008
  833MOL0     C12349   4.649   2.816   8.609  0.8200  0.3690 -1.4682
  833MOL0     O12350   4.751   2.878   8.679 -0.1695 -0.9418 -0.3780
  833MOL0     C12351   4.846   2.932   8.601 -0.5581  0.4878 -0.2548
  833MOL0     C12352   4.837   3.048   8.524 -0.5778 -0.3186  0.3087
  833MOL0     C12353   4.938   3.117   8.455  0.3366  0.6787  0.3615
  833MOL0     C12354   5.064   3.074   8.467  0.5589 -0.0538 -0.3858
  833MOL0     O12355   5.180   3.125   8.408  0.1967  0.3043  0.2221
  833MOL0     C12356   5.159   3.239   8.327 -0.0047  0.3539  0.2168
  833MOL0     C12357   5.298   3.287   8.265 -0.2260  0.5447 -0.8289
  833MOL0     C12358   5.402   3.295   8.382  0.3586  0.7854 -0.5564
  833MOL0     C12359   5.501   3.412   8.351  0.6738  0.1987 -0.3702
  833MOL0     C12360   5.625   3.433   8.433  0.3340  0.2569 -0.5423
  833MOL0     C12361   5.678   3.573   8.402 -0.1392  0.4389 -0.4606
  833MOL0     C12362   5.817   3.619   8.471  0.0277 -0.0231  0.4267
  833MOL0     C12363   5.806   3.592   8.630 -0.4230 -0.5297  0.7883
  833MOL0    Cl12364   5.706   3.697   8.724 -0.2427 -0.1780 -0.1304
  833MOL0     C12365   5.087   2.956   8.539 -0.1050 -0.0926  0.2923
  833MOL0     C12366   4.981   2.887   8.602  1.0928  0.2262  0.6402
  833MOL0     O12367   4.641   2.806   8.488 -0.0667  0.9732 -0.5924
  833MOL0     C12368   4.420   2.717   8.623 -0.1554 -0.6449  0.2967
  833MOL0     C12369   4.325   2.628   8.681 -0.5130  0.4010  0.1552
  833MOL0     N12370   4.198   2.003   8.793  1.2744 -0.4182  0.7682
  833MOL0     N12371   4.179   1.881   8.762  0.3727 -0.5359 -0.4881
  833MOL0     C12372   4.095   1.488   9.801 -0.1518 -0.0900 -0.8557
  833MOL0     C12373   4.020   1.474   9.927  0.7156 -0.4752  0.0238
  833MOL0     C12374   3.754   1.531  10.249 -0.5858  0.1406 -0.1857
  833MOL0     C12375   3.821   1.488  10.366  0.0315 -0.6028 -0.3489
  833MOL0     C12376   3.746   1.468  10.483 -0.6142 -0.3505 -0.4803
  833MOL0     C12377   3.616   1.505  10.493 -0.6927 -0.1388  0.3798
  833MOL0     O12378   3.551   1.519  10.611  0.0799  0.4201 -0.3455
  833MOL0     C12379   3.589   1.440  10.730 -0.1230  0.1349 -0.4875
  833MOL0     C12380   3.474   1.394  10.817 -0.1089  0.2809  0.2966
  833MOL0     C12381   3.483   1.267  10.913 -0.5338  0.0235 -0.8504
  833MOL0     C12382   3.340   1.234  10.958  0.3178 -0.0692 -0.4366
  833MOL0     C12383   3.306   1.123  10.863  0.3707  0.0085  1.0117
  833MOL0     C12384   3.298   1.032  10.793  0.7195 -0.1473  0.3057
  833MOL0     C12385   3.550   1.536  10.379  1.2375 -0.1331  0.0803
  833MOL0     C12386   3.608   1.548  10.254 -0.5926  0.3782  0.1404
  833MOL0     C12387   3.525   1.566  10.136 -0.3551  0.8761  0.0881
  833MOL0     H12388   4.197   1.686  10.118  1.1697  1.4945 -2.3650
  833MOL0     H12389   4.356   1.665   9.943  0.9917 -0.0103  0.3928
  833MOL0     H12390   4.293   1.759   9.666 -0.8759 -0.2476 -0.7581
  833MOL0     H12391   4.454   1.688   9.725 -0.4705 -4.6703  1.6089
  833MOL0     H12392   4.492   1.587   9.507 -0.8936 -0.5912 -1.0045
  833MOL0     H12393   4.470   1.766   9.497 -0.1321 -0.2310  0.5631
  833MOL0     H12394   4.278   1.718   9.360  0.4364 -0.2624 -0.3530
  833MOL0     H12395   4.227   1.585   9.456  0.7602  0.5866  0.4567
  833MOL0     H12396   4.451   1.594   9.257 -0.2979  3.3460  0.7903
  833MOL0     H12397   4.406   1.444   9.353  0.9318  1.3462  0.1383
  833MOL0     H12398   4.314   1.381   9.164  0.1493  0.4592 -0.2928
  833MOL0     H12399   4.173   1.457   9.233 -0.0718  0.0516  0.8598
  833MOL0     H12400   4.322   1.652   9.091  1.8243 -1.7141 -1.8783
  833MOL0     H12401   4.309   1.518   8.980 -0.5305 -2.4004  1.5875
  833MOL0     H12402   4.067   1.662   9.102  1.9904  2.3605 -0.2022
  833MOL0     H12403   4.069   1.501   9.013  2.0012 -0.1296 -0.6676
  833MOL0     H12404   4.204   1.622   8.812  0.8283  1.0566  0.3308
  833MOL0     H12405   4.038   1.663   8.815  0.1417 -1.4449  0.2248
  833MOL0     H12406   4.167   1.860   9.092 -2.9896 -2.9340 -1.5733
  833MOL0     H12407   4.122   2.191   9.028  0.5756  2.0226 -0.9237
  833MOL0     H12408   4.255   2.135   9.118 -0.7552 -1.1804  0.0839
  833MOL0     H12409   4.396   2.192   8.908  0.9354  0.1641  1.8229
  833MOL0     H12410   4.255   2.263   8.839  1.2612 -1.4727 -1.0182
  833MOL0     H12411   4.441   2.414   8.976  1.3385 -2.3665 -0.2573
  833MOL0     H12412   4.376   2.336   9.123  0.4203 -1.5476 -0.6510
  833MOL0     H12413   4.251   2.572   9.074  0.5960  1.5243 -0.8446
  833MOL0     H12414   4.146   2.450   9.049  0.6593  1.6496  0.5628
  833MOL0     H12415   4.425   2.663   8.998  2.1651  3.8450  0.9047
  833MOL0     H12416   4.609   2.776   8.893 -0.0142  0.3216  0.9333
  833MOL0     H12417   4.739   3.092   8.511  0.3263  2.1570  1.1964
  833MOL0     H12418   4.924   3.210   8.401  3.1109  1.2273  0.4250
  833MOL0     H12419   5.101   3.220   8.236 -0.7159  0.7096  0.5877
  833MOL0     H12420   5.119   3.323   8.384 -2.8476 -0.1548 -0.8393
  833MOL0     H12421   5.338   3.212   8.196  0.2128  1.1138 -1.1989
  833MOL0     H12422   5.282   3.386   8.220 -0.6758  0.0232 -1.8499
  833MOL0     H12423   5.347   3.334   8.467  1.7027 -0.0665  0.7588
  833MOL0     H12424   5.456   3.203   8.409 -0.8220 -0.3227 -1.8047
  833MOL0     H12425   5.433   3.497   8.359 -1.2719 -1.4821  2.9904
  833MOL0     H12426   5.534   3.399   8.247  3.0039 -3.4326  0.6095
  833MOL0     H12427   5.692   3.356   8.392 -2.2687 -1.8155 -1.1638
  833MOL0     H12428   5.625   3.416   8.541  5.2224  3.5494  0.3239
  833MOL0     H12429   5.689   3.588   8.295  1.2588  0.4573 -0.3305
  833MOL0     H12430   5.602   3.648   8.429 -1.9214 -1.4238 -0.0203
  833MOL0     H12431   5.847   3.724   8.461  0.2998 -0.1576 -0.2066
  833MOL0     H12432   5.895   3.552   8.432  0.3191 -0.0016  0.9684
  833MOL0     H12433   5.779   3.486   8.640  3.0836 -1.7203 -0.7531
  833MOL0     H12434   5.908   3.604   8.668  0.4349  1.3814 -1.8746
  833MOL0     H12435   5.185   2.915   8.520 -0.5205 -0.0406 -2.3808
  833MOL0     H12436   5.020   2.806   8.663  3.3391  0.7824  0.0313
  833MOL0     H12437   4.423   2.736   8.516  0.6868  1.0754  0.5904
  833MOL0     H12438   4.258   2.599   8.601  0.3694  0.4536 -0.6217
  833MOL0     H12439   4.075   1.413   9.725 -2.1202  0.7329 -1.2115
  833MOL0     H12440   3.927   1.418   9.927  0.2214  0.1957 -2.5829
  833MOL0     H12441   3.925   1.457  10.362  0.5662  0.8064  1.3547
  833MOL0     H12442   3.814   1.452  10.566 -0.9216  1.6009  0.2179
  833MOL0     H12443   3.651   1.509  10.788 -0.8236 -0.3955  0.9430
  833MOL0     H12444   3.652   1.353  10.708  1.5041  1.0703  0.2271
  833MOL0     H12445   3.396   1.367  10.745 -1.7386  2.8519  0.9686
  833MOL0     H12446   3.441   1.480  10.877 -0.5695  0.1395  0.2541
  833MOL0     H12447   3.551   1.281  10.998 -0.8237 -0.9853 -0.4359
  833MOL0     H12448   3.544   1.189  10.867  4.0828  1.0522  2.7171
  833MOL0     H12449   3.349   1.202  11.062 -0.0636  0.2244 -0.3146
  833MOL0     H12450   3.271   1.318  10.954  1.0697  0.5356 -2.8013
  833MOL0     H12451   3.281   0.957  10.719  0.8115  1.0302 -0.9612
  833MOL0     H12452   3.442   1.532  10.392  1.2664 -0.7999  0.1386
  833MOL0     H12453   3.422   1.589  10.166 -0.8286  1.3331 -1.7250
  833MOL0     H12454   3.567   1.641  10.069  3.0915 -1.7653 -1.0130
  833MOL0     H12455   3.521   1.469  10.086  0.8143  2.1852 -2.7890
  834MOL0     O12456   2.241   3.551   1.837 -0.1837 -0.9659  0.5671
  834MOL0     C12457   2.196   3.659   1.864 -0.7929 -0.3046 -0.1067
  834MOL0     O12458   2.184   3.708   1.989 -0.5629  0.8544 -0.8133
  834MOL0     C12459   2.216   3.626   2.101 -0.0264  0.5735  0.6778
  834MOL0     C12460   2.322   3.632   2.183 -0.3526 -0.3149 -1.3194
  834MOL0     C12461   2.328   3.561   2.302  0.2829  0.2928 -0.6380
  834MOL0     C12462   2.219   3.481   2.336  0.9679  0.0175 -0.4532
  834MOL0     O12463   2.206   3.394   2.439 -0.6025 -0.4319  0.0538
  834MOL0     C12464   2.300   3.402   2.542 -0.1848 -1.1293 -0.1535
  834MOL0     C12465   2.267   3.277   2.627 -0.2284 -0.4347 -0.7735
  834MOL0     C12466   2.347   3.274   2.755  0.5396 -0.3502  0.3005
  834MOL0     C12467   2.492   3.263   2.727  0.4700 -0.5628  0.5145
  834MOL0     C12468   2.588   3.207   2.835  0.3538 -0.3881 -0.2719
  834MOL0     C12469   2.533   3.213   2.979  0.6426  1.3370 -0.3455
  834MOL0     C12470   2.647   3.165   3.073 -0.1248  0.3991 -0.6153
  834MOL0     C12471   2.624   3.224   3.215 -0.0855  1.0356  0.3584
  834MOL0     N12472   2.685   3.351   3.244  0.1533  0.9212  0.5416
  834MOL0     C12473   2.648   3.439   3.338  0.1659  0.6228  0.2753
  834MOL0     C12474   2.729   3.542   3.330 -0.2457 -1.4338 -0.0679
  834MOL0     C12475   2.742   3.663   3.426 -0.4396 -0.1337  0.4923
  834MOL0     C12476   2.868   3.664   3.525  0.8850 -0.3990 -0.5191
  834MOL0     C12477   2.883   3.544   3.604  0.0322  1.4930 -0.0940
  834MOL0     C12478   2.772   3.504   3.712  0.0174  0.2366  0.2248
  834MOL0     O12479   2.775   3.582   3.832  0.2282  0.1162 -0.6591
  834MOL0     C12480   2.694   3.545   3.939  0.9302 -0.4783  0.3738
  834MOL0     C12481   2.643   3.645   4.018  0.5302 -0.9642  0.1309
  834MOL0     C12482   2.549   3.626   4.110 -0.1534  0.2962  0.0516
  834MOL0     C12483   2.500   3.494   4.129  0.2712  0.7762 -0.6101
  834MOL0     C12484   2.400   3.467   4.230  0.6275  0.0888 -0.0501
  834MOL0     O12485   2.333   3.355   4.213 -0.5234  0.1430 -0.4344
  834MOL0     C12486   2.245   3.304   4.305 -0.2048  0.0794 -0.5164
  834MOL0     C12487   2.117   3.281   4.259  0.5558 -0.0339  0.1062
  834MOL0     C12488   2.017   3.250   4.351  0.5759 -1.2911 -0.9577
  834MOL0     C12489   2.045   3.238   4.490 -0.0265 -0.2489  0.4761
  834MOL0     O12490   1.956   3.232   4.591  0.1224 -0.8647  0.1775
  834MOL0     C12491   1.824   3.194   4.580 -0.0113  0.4695  0.0495
  834MOL0     C12492   1.822   3.039   4.567  0.1423  0.1848  0.3738
  834MOL0     C12493   1.693   2.969   4.523 -0.8175 -0.2323  0.5322
  834MOL0     C12494   1.692   2.818   4.522 -0.0044 -0.1104  0.0022
  834MOL0     C12495   1.551   2.755   4.507 -0.2364 -0.7612 -0.5444
  834MOL0     C12496   1.479   2.803   4.376  0.1056 -0.1143  0.6842
  834MOL0     C12497   1.372   2.707   4.324 -0.9860  0.9360 -0.0182
  834MOL0     C12498   1.289   2.767   4.201 -0.6340 -0.3577 -0.2164
  834MOL0    Cl12499   1.268   2.649   4.069 -0.0324  0.1413  0.1626
  834MOL0     C12500   2.175   3.262   4.530 -0.1008 -0.8386  0.0316
  834MOL0     C12501   2.277   3.301   4.439 -0.7130  0.0374 -0.5824
  834MOL0     O12502   2.380   3.548   4.318  0.8514  0.2525  0.5414
  834MOL0     C12503   2.554   3.385   4.050 -0.3636 -0.0199  0.0439
  834MOL0     C12504   2.658   3.413   3.956 -0.5330  1.0938  0.8645
  834MOL0     N12505   2.830   3.506   3.243  0.0799 -1.0469 -0.4747
  834MOL0     N12506   2.805   3.393   3.196  0.8926  0.6076  0.5743
  834MOL0     C12507   2.110   3.486   2.265  1.0196 -0.1507 -0.9374
  834MOL0     C12508   2.108   3.546   2.133  0.4094  0.9206 -0.8939
  834MOL0     C12509   2.172   3.762   1.758 -0.1596  0.5520 -0.1870
  834MOL0     C12510   2.205   3.894   1.792 -0.3004 -0.1358  0.0215
  834MOL0     C12511   2.186   4.006   1.705  0.1407  0.2672  0.2318
  834MOL0     C12512   2.151   3.980   1.578 -0.1807 -1.5288  0.4942
  834MOL0     O12513   2.131   4.081   1.482 -0.3186  0.1712 -0.0043
  834MOL0     C12514   2.123   4.225   1.510  0.2307  0.4283  0.5427
  834MOL0     C12515   2.143   4.310   1.382 -0.4290  0.5135  0.5685
  834MOL0     C12516   2.288   4.334   1.335 -0.3198  0.9772  0.7396
  834MOL0     C12517   2.338   4.473   1.392  0.0685 -0.5579  0.7437
  834MOL0     C12518   2.473   4.487   1.360 -0.3052 -0.4338  0.5974
  834MOL0     C12519   2.587   4.489   1.328  0.7118  0.4386  0.3913
  834MOL0     C12520   2.128   3.849   1.536  0.1051  0.2392 -0.3062
  834MOL0     C12521   2.127   3.740   1.624  1.0374 -0.4775  0.0012
  834MOL0     C12522   2.081   3.602   1.562  0.1836 -0.1894  0.2967
  834MOL0     H12523   2.403   3.697   2.150  1.4286 -1.3325  0.7774
  834MOL0     H12524   2.423   3.554   2.355  1.4903 -0.2620 -2.7256
  834MOL0     H12525   2.405   3.400   2.513  0.2188  1.8667  0.7596
  834MOL0     H12526   2.284   3.487   2.608  1.4466  0.0361 -1.1743
  834MOL0     H12527   2.301   3.193   2.565  2.6095  0.1828 -0.2245
  834MOL0     H12528   2.165   3.266   2.664 -0.7423  4.7469  0.2054
  834MOL0     H12529   2.307   3.190   2.813  1.4871 -0.8259  0.2960
  834MOL0     H12530   2.321   3.363   2.812  4.6276  0.6694  0.8629
  834MOL0     H12531   2.509   3.225   2.626  1.5383 -0.5947  0.6965
  834MOL0     H12532   2.511   3.368   2.703  1.4677 -1.2515 -2.0625
  834MOL0     H12533   2.618   3.107   2.803  2.9686 -0.1330  1.1382
  834MOL0     H12534   2.680   3.266   2.832 -0.1698  0.4238 -0.7955
  834MOL0     H12535   2.493   3.311   3.006  0.1890  1.2848 -0.8251
  834MOL0     H12536   2.457   3.136   2.986  1.6934  0.2638 -0.4053
  834MOL0     H12537   2.746   3.200   3.042  1.5421 -3.3859 -0.1903
  834MOL0     H12538   2.654   3.056   3.086 -0.5234  0.5539  1.0629
  834MOL0     H12539   2.515   3.232   3.218 -0.2564 -1.0706  1.9662
  834MOL0     H12540   2.653   3.154   3.294  3.8461  0.3431 -1.4704
  834MOL0     H12541   2.552   3.427   3.386 -0.0292 -0.6681 -0.3987
  834MOL0     H12542   2.738   3.747   3.357 -2.8010  0.5983  1.4531
  834MOL0     H12543   2.652   3.641   3.484  0.9716 -1.5056  2.3089
  834MOL0     H12544   2.952   3.684   3.458  3.3232  0.9650  2.6732
  834MOL0     H12545   2.858   3.744   3.599 -2.7241  0.1863 -1.4424
  834MOL0     H12546   2.977   3.557   3.657  0.4877  3.1428 -1.2109
  834MOL0     H12547   2.888   3.470   3.524 -0.3256  0.3056  0.9562
  834MOL0     H12548   2.800   3.401   3.737 -2.0845 -0.9339 -1.8234
  834MOL0     H12549   2.681   3.503   3.652  0.4968 -2.9039 -0.6427
  834MOL0     H12550   2.662   3.750   3.997 -2.1601 -0.9975 -3.3153
  834MOL0     H12551   2.513   3.707   4.173  2.0996  1.8155 -0.5060
  834MOL0     H12552   2.095   3.295   4.154 -0.3642  0.4811  0.3592
  834MOL0     H12553   1.913   3.252   4.321  1.0358  1.3086 -2.7022
  834MOL0     H12554   1.774   3.217   4.675 -1.5490 -0.3138 -0.5462
  834MOL0     H12555   1.764   3.253   4.510 -0.4588  0.9591  0.8262
  834MOL0     H12556   1.904   2.999   4.506 -1.0377 -2.3507  0.2904
  834MOL0     H12557   1.845   3.011   4.670  0.5573  1.6332  0.6967
  834MOL0     H12558   1.624   3.007   4.600  2.9062  0.9230  3.6070
  834MOL0     H12559   1.645   3.019   4.438  0.0719  2.0749  1.3015
  834MOL0     H12560   1.727   2.780   4.618 -2.0958 -2.6107 -0.1132
  834MOL0     H12561   1.751   2.773   4.441 -0.1839  0.6882 -0.5876
  834MOL0     H12562   1.476   2.781   4.582  1.5971 -1.0906  1.5139
  834MOL0     H12563   1.577   2.649   4.497 -0.8671 -0.7894 -2.0982
  834MOL0     H12564   1.430   2.899   4.394 -0.1763 -0.1692  0.2322
  834MOL0     H12565   1.547   2.817   4.291  2.2381  0.1421  2.3553
  834MOL0     H12566   1.314   2.671   4.410 -2.1337 -0.3103 -1.2655
  834MOL0     H12567   1.435   2.628   4.282  0.6029  0.7460  2.5463
  834MOL0     H12568   1.195   2.810   4.238  1.3080  2.7415  1.5083
  834MOL0     H12569   1.340   2.855   4.159  2.1200  0.2465  3.8127
  834MOL0     H12570   2.190   3.265   4.637  1.4105 -0.7068 -0.1647
  834MOL0     H12571   2.378   3.326   4.471 -0.4566 -1.3857 -0.1824
  834MOL0     H12572   2.515   3.284   4.057  0.3316 -0.4309 -1.5320
  834MOL0     H12573   2.672   3.338   3.879 -2.5480  0.0030  1.4847
  834MOL0     H12574   2.038   3.422   2.316  2.0416 -1.8023 -1.5022
  834MOL0     H12575   2.031   3.521   2.061 -0.9658 -0.8770  1.0572
  834MOL0     H12576   2.221   3.931   1.892 -1.5838  0.4247  0.0441
  834MOL0     H12577   2.189   4.107   1.744  0.5330  1.9206 -3.6050
  834MOL0     H12578   2.191   4.259   1.589  2.6101 -0.8179 -0.8565
  834MOL0     H12579   2.022   4.242   1.550 -0.3288 -2.7077  0.7443
  834MOL0     H12580   2.104   4.412   1.379  1.4049  1.4194 -5.2518
  834MOL0     H12581   2.108   4.248   1.300  3.6120 -3.1834  1.2674
  834MOL0     H12582   2.287   4.347   1.227  0.1406 -2.7145  0.1780
  834MOL0     H12583   2.358   4.253   1.355 -1.0348 -0.2282 -1.4434
  834MOL0     H12584   2.278   4.552   1.345 -1.9192 -2.6142 -0.4093
  834MOL0     H12585   2.319   4.469   1.500 -4.7718  0.0821  0.1439
  834MOL0     H12586   2.693   4.494   1.310  0.7757 -1.5225  0.0423
  834MOL0     H12587   2.101   3.819   1.435  0.0168  1.3616 -0.6264
  834MOL0     H12588   2.079   3.597   1.453 -0.1816  1.2360  0.2239
  834MOL0     H12589   2.147   3.520   1.593  2.3868  1.5478  0.5003
  834MOL0     H12590   1.976   3.583   1.585  0.0152 -2.5792 -1.9898
  835MOL0     O12591  10.618   6.483   9.001  0.3827  0.7873  0.1286
  835MOL0     C12592  10.713   6.555   9.011  0.5353 -0.1601  0.6187
  835MOL0     O12593  10.740   6.629   9.128  0.0417 -0.1430 -0.3215
  835MOL0     C12594  10.667   6.613   9.243 -0.4425  1.4373 -0.4412
  835MOL0     C12595  10.529   6.637   9.247  1.2394 -0.2430 -1.1324
  835MOL0     C12596  10.451   6.625   9.366 -0.2031  0.2132  0.4182
  835MOL0     C12597  10.512   6.592   9.481 -0.3842  0.0304 -0.2358
  835MOL0     O12598  10.435   6.572   9.600  0.3209 -1.1353  0.0111
  835MOL0     C12599  10.479   6.495   9.704 -0.3560  0.9543 -0.2700
  835MOL0     C12600  10.372   6.479   9.810  0.0118  0.9730  0.2742
  835MOL0     C12601  10.340   6.609   9.879  0.5561 -0.6141  0.8758
  835MOL0     C12602  10.456   6.696   9.932 -0.9035  0.1719 -0.8199
  835MOL0     C12603  10.415   6.835   9.997  0.0176  0.8304 -0.8196
  835MOL0     C12604  10.399   6.940   9.882 -0.6573  0.3222  0.0317
  835MOL0     C12605  10.519   6.993   9.804 -0.5181 -0.5426  0.3730
  835MOL0     C12606  10.517   6.955   9.657  0.7972 -0.9088  0.2040
  835MOL0     N12607  10.641   6.984   9.582  0.3596 -0.1175  0.5338
  835MOL0     C12608  10.652   7.038   9.450  0.4783  0.4277  0.3074
  835MOL0     C12609  10.783   7.034   9.422 -0.4359 -0.4330 -0.4680
  835MOL0     C12610  10.841   7.094   9.290 -0.1172  0.5884  0.6274
  835MOL0     C12611  10.885   6.982   9.200 -0.0208  0.4114 -0.5399
  835MOL0     C12612  10.929   7.043   9.063  0.0128  0.0271 -0.3101
  835MOL0     C12613  10.801   7.088   8.991  0.2575  1.0248 -0.0594
  835MOL0     O12614  10.722   6.976   8.959  0.1089 -0.4472 -0.1149
  835MOL0     C12615  10.616   6.992   8.869  0.9777 -0.4477 -0.8316
  835MOL0     C12616  10.576   7.111   8.799  0.8082  0.0429  0.3253
  835MOL0     C12617  10.452   7.105   8.732  0.1395 -1.4438 -0.9012
  835MOL0     C12618  10.374   6.993   8.715  0.0202  0.3640  0.3659
  835MOL0     C12619  10.258   7.000   8.624 -0.3094 -0.3520 -0.1266
  835MOL0     O12620  10.182   6.892   8.597  0.0506  0.9826  0.2597
  835MOL0     C12621  10.087   6.882   8.497  0.7331  0.4692  0.9374
  835MOL0     C12622  10.001   6.771   8.507 -0.6927 -0.4750 -0.2958
  835MOL0     C12623   9.899   6.755   8.408  0.0876  0.7487  0.7379
  835MOL0     C12624   9.877   6.838   8.298 -0.3700  0.2883 -0.2137
  835MOL0     O12625   9.776   6.825   8.207 -0.9877  0.0854 -0.2386
  835MOL0     C12626   9.678   6.930   8.215 -0.3709 -1.1006  0.6036
  835MOL0     C12627   9.553   6.905   8.295  0.4514 -0.6174 -0.2541
  835MOL0     C12628   9.465   6.782   8.253 -0.5222 -0.2831  0.6780
  835MOL0     C12629   9.396   6.714   8.379 -0.1687  0.7827  0.3075
  835MOL0     C12630   9.501   6.602   8.438  0.5764 -0.1683  1.0713
  835MOL0     C12631   9.439   6.526   8.552  0.2737  0.1992  0.3140
  835MOL0     C12632   9.479   6.604   8.685 -0.1758 -0.6219 -0.3807
  835MOL0     C12633   9.379   6.556   8.795  0.0316 -0.1445  0.4622
  835MOL0    Cl12634   9.202   6.580   8.756 -0.1006 -0.3396 -0.0830
  835MOL0     C12635   9.972   6.943   8.282  0.1334  0.2858 -0.9639
  835MOL0     C12636  10.069   6.970   8.389 -1.0544  0.3447 -0.2337
  835MOL0     O12637  10.231   7.113   8.582 -0.5192  0.2262  0.3889
  835MOL0     C12638  10.414   6.872   8.780 -0.4586 -0.8279  0.7488
  835MOL0     C12639  10.534   6.874   8.857  0.6202 -0.2462  0.9630
  835MOL0     N12640  10.866   6.980   9.529 -0.4696  0.2273  0.1595
  835MOL0     N12641  10.768   6.949   9.620  0.2493 -0.3345  0.4221
  835MOL0     C12642  10.653   6.569   9.484  1.1894 -0.8895 -0.9035
  835MOL0     C12643  10.727   6.587   9.372  1.1899  0.4024 -0.0514
  835MOL0     C12644  10.810   6.564   8.892  0.6757  0.7651 -0.1676
  835MOL0     C12645  10.881   6.682   8.890 -0.4295  0.2770 -0.2366
  835MOL0     C12646  10.986   6.708   8.798  0.4997  0.0572 -0.3579
  835MOL0     C12647  11.000   6.608   8.696 -0.3055 -0.5483  0.7022
  835MOL0     O12648  11.093   6.612   8.601 -1.3277  0.1066 -0.0084
  835MOL0     C12649  11.186   6.721   8.590  0.6024  1.2635 -0.7831
  835MOL0     C12650  11.300   6.680   8.505  0.3810  0.2234 -0.0526
  835MOL0     C12651  11.371   6.544   8.550  0.3257  0.0425  0.3216
  835MOL0     C12652  11.490   6.515   8.454  0.4446  1.0244  0.6401
  835MOL0     C12653  11.588   6.628   8.444 -1.0594 -0.3723  0.2062
  835MOL0     C12654  11.651   6.729   8.423  0.3173  0.2473  0.0075
  835MOL0     C12655  10.914   6.500   8.685  0.6107 -0.2744  0.0267
  835MOL0     C12656  10.822   6.473   8.781  0.5529 -0.4075 -0.3224
  835MOL0     C12657  10.749   6.344   8.772 -0.7648  0.8843 -0.5395
  835MOL0     H12658  10.487   6.650   9.148  0.7970  0.2371 -0.8839
  835MOL0     H12659  10.344   6.627   9.352 -0.1422 -0.6898 -0.2685
  835MOL0     H12660  10.497   6.393   9.668  0.0778  0.6563  0.7463
  835MOL0     H12661  10.565   6.546   9.747  0.0901  2.4943 -2.8449
  835MOL0     H12662  10.402   6.403   9.882 -0.1847  1.4784  0.8956
  835MOL0     H12663  10.283   6.438   9.761  0.7512 -0.5101  0.1166
  835MOL0     H12664  10.273   6.591   9.964 -4.2772 -1.3170 -2.6394
  835MOL0     H12665  10.281   6.672   9.812  1.3126 -0.9656 -0.1307
  835MOL0     H12666  10.497   6.628  10.008 -3.2584 -3.8390 -2.8038
  835MOL0     H12667  10.536   6.706   9.859  0.0218  0.6634  0.2295
  835MOL0     H12668  10.318   6.827  10.047  0.7364 -1.3537  0.3538
  835MOL0     H12669  10.485   6.858  10.077 -2.3344 -1.8352  2.2612
  835MOL0     H12670  10.323   6.896   9.818 -0.0898 -1.7899  0.6986
  835MOL0     H12671  10.350   7.025   9.930 -0.3362 -0.2184  1.3751
  835MOL0     H12672  10.612   6.961   9.851 -0.2883  3.0388  2.7316
  835MOL0     H12673  10.533   7.101   9.822  1.9771 -1.1732  2.9343
  835MOL0     H12674  10.488   6.851   9.640 -2.0545 -0.7170  2.8793
  835MOL0     H12675  10.435   7.010   9.611  1.0013  0.8923  1.8464
  835MOL0     H12676  10.571   7.071   9.386 -0.6149 -2.6370 -0.0366
  835MOL0     H12677  10.776   7.163   9.235  2.7616  2.0268 -1.2124
  835MOL0     H12678  10.925   7.162   9.306  0.9960 -0.2185 -1.4275
  835MOL0     H12679  10.965   6.927   9.251  1.1763 -0.0267 -2.7571
  835MOL0     H12680  10.807   6.907   9.185 -0.6951  1.3328 -1.7337
  835MOL0     H12681  10.967   6.965   8.996 -2.4212 -1.2466 -0.3372
  835MOL0     H12682  10.995   7.128   9.080  1.2115 -0.1676 -3.3190
  835MOL0     H12683  10.836   7.125   8.894 -2.1585 -0.9171 -1.7850
  835MOL0     H12684  10.755   7.179   9.030  1.7052  0.4623  3.3843
  835MOL0     H12685  10.636   7.200   8.791  0.1482  0.3635 -1.9724
  835MOL0     H12686  10.431   7.198   8.681 -0.4222 -3.1694 -4.1455
  835MOL0     H12687  10.010   6.700   8.588 -1.3432 -1.7058 -1.2755
  835MOL0     H12688   9.830   6.672   8.419  0.2740  0.2656 -1.3582
  835MOL0     H12689   9.725   7.024   8.247  1.6044 -2.7612  2.9650
  835MOL0     H12690   9.639   6.953   8.116 -1.1098  1.5672  1.4258
  835MOL0     H12691   9.582   6.895   8.400  0.5155  0.8606 -0.1123
  835MOL0     H12692   9.488   6.992   8.289  2.4833  0.9075 -1.6669
  835MOL0     H12693   9.388   6.819   8.184  0.2680 -1.3146 -0.8351
  835MOL0     H12694   9.537   6.720   8.197 -0.5701  1.7386 -1.8124
  835MOL0     H12695   9.309   6.651   8.361  0.4921 -1.1244  3.0775
  835MOL0     H12696   9.368   6.792   8.450 -1.8528  1.2125 -0.7663
  835MOL0     H12697   9.595   6.649   8.469  0.8230  2.2637 -2.7204
  835MOL0     H12698   9.511   6.519   8.367 -0.5168  1.7078 -1.4380
  835MOL0     H12699   9.332   6.502   8.544  0.7728 -1.8085 -1.3602
  835MOL0     H12700   9.483   6.426   8.548  3.1856  1.3796  0.6813
  835MOL0     H12701   9.475   6.713   8.680  0.7061 -0.4030  2.2221
  835MOL0     H12702   9.583   6.592   8.717 -1.4030 -1.2407  4.1537
  835MOL0     H12703   9.417   6.454   8.808  3.9967  0.9796 -0.7948
  835MOL0     H12704   9.402   6.599   8.893  0.2926  0.4401  0.1518
  835MOL0     H12705   9.975   7.022   8.207  0.7952  0.6927 -0.5248
  835MOL0     H12706  10.136   7.055   8.384  3.2599 -2.6284  0.7841
  835MOL0     H12707  10.345   6.789   8.788  0.4661 -1.5129  1.8250
  835MOL0     H12708  10.574   6.781   8.896  1.5924 -1.3090 -2.2463
  835MOL0     H12709  10.721   6.567   9.568 -0.5904 -3.3337  0.6463
  835MOL0     H12710  10.834   6.575   9.363  1.1889  0.7636 -0.5684
  835MOL0     H12711  10.872   6.755   8.970 -2.4376 -1.3597  1.1421
  835MOL0     H12712  11.043   6.800   8.805  1.6475 -0.7272  1.0867
  835MOL0     H12713  11.220   6.747   8.690 -0.7296 -0.3366  0.1325
  835MOL0     H12714  11.137   6.803   8.538 -0.9399 -0.8731 -2.9744
  835MOL0     H12715  11.377   6.757   8.500  0.5775 -0.0248 -0.8160
  835MOL0     H12716  11.259   6.667   8.404  3.5692  1.2522 -1.5972
  835MOL0     H12717  11.306   6.457   8.542  0.9004 -0.6849  2.8176
  835MOL0     H12718  11.404   6.549   8.654  0.6329  1.0485  0.1884
  835MOL0     H12719  11.539   6.429   8.501 -1.8322 -0.3106  0.6926
  835MOL0     H12720  11.442   6.491   8.359  3.1121 -1.5395 -0.2228
  835MOL0     H12721  11.720   6.797   8.377 -0.7095  1.4231  0.1609
  835MOL0     H12722  10.938   6.427   8.608  0.0250 -0.5816  0.1265
  835MOL0     H12723  10.644   6.359   8.796 -0.9878  0.3178 -1.1416
  835MOL0     H12724  10.751   6.320   8.665 -3.2861  4.8851 -1.6839
  835MOL0     H12725  10.807   6.275   8.833 -1.0483  0.6248 -0.5636
  836MOL0     O12726   4.073   1.222   6.569  0.5713 -0.2830 -0.0581
  836MOL0     C12727   4.030   1.259   6.460 -1.3332  0.6011  0.7717
  836MOL0     O12728   4.002   1.174   6.357 -0.5124  0.0560 -0.0779
  836MOL0     C12729   4.022   1.046   6.391 -0.4148  0.4459  0.6274
  836MOL0     C12730   4.130   0.977   6.338 -0.3955 -0.4136 -0.2605
  836MOL0     C12731   4.152   0.840   6.357 -0.2334 -0.5198 -0.7574
  836MOL0     C12732   4.064   0.777   6.450  0.5136 -0.2189 -0.6400
  836MOL0     O12733   4.084   0.642   6.475  0.5593  0.4984  0.6508
  836MOL0     C12734   3.977   0.546   6.445  0.2622 -0.4883 -0.0064
  836MOL0     C12735   4.033   0.406   6.425 -1.2511  0.3397  0.2172
  836MOL0     C12736   3.917   0.308   6.416 -0.9864 -0.0441 -0.6585
  836MOL0     C12737   3.959   0.163   6.428  0.1695 -0.2146  0.5461
  836MOL0     C12738   3.841   0.065   6.427  0.5414  0.6572 -0.4613
  836MOL0     C12739   3.891  -0.075   6.416 -0.3398 -0.5222  1.2265
  836MOL0     C12740   3.966  -0.137   6.527  0.9811  0.0502 -0.0462
  836MOL0     C12741   3.912  -0.113   6.680 -0.6210 -0.3654  0.3763
  836MOL0     N12742   3.784  -0.172   6.709 -0.4146 -0.6177 -0.5410
  836MOL0     C12743   3.758  -0.310   6.701  1.2502 -0.3465 -0.7656
  836MOL0     C12744   3.654  -0.330   6.782  0.6397  0.7195 -0.3123
  836MOL0     C12745   3.611  -0.474   6.810 -0.4699 -0.8208 -0.8171
  836MOL0     C12746   3.654  -0.520   6.949 -0.1802 -0.0626  0.1618
  836MOL0     C12747   3.658  -0.673   6.957 -0.2924 -1.6135 -0.0983
  836MOL0     C12748   3.608  -0.733   7.089  0.1963  0.3278  0.6774
  836MOL0     O12749   3.475  -0.690   7.114  0.7776 -1.2628 -0.0723
  836MOL0     C12750   3.377  -0.767   7.165 -0.0218 -0.1001 -0.3196
  836MOL0     C12751   3.404  -0.851   7.275  0.5941 -0.0047  0.5718
  836MOL0     C12752   3.300  -0.931   7.325  0.0554  0.1916  0.0895
  836MOL0     C12753   3.170  -0.930   7.271  0.3777 -0.9362 -0.2503
  836MOL0     C12754   3.061  -1.005   7.336 -0.8411  0.1217 -0.8792
  836MOL0     O12755   2.949  -1.009   7.264  0.6379 -0.7900 -0.0498
  836MOL0     C12756   2.853  -1.102   7.296 -0.2849  1.0019  0.8160
  836MOL0     C12757   2.883  -1.233   7.331 -0.4769  0.8845 -0.2452
  836MOL0     C12758   2.768  -1.311   7.384 -0.4291 -0.6147  0.1656
  836MOL0     C12759   2.636  -1.274   7.377 -0.0067 -0.1526  0.3876
  836MOL0     O12760   2.516  -1.330   7.432 -0.3718  0.3429 -0.6167
  836MOL0     C12761   2.538  -1.468   7.458  0.3387 -0.4145  1.3144
  836MOL0     C12762   2.532  -1.556   7.330 -0.2091 -0.9665  0.2515
  836MOL0     C12763   2.544  -1.709   7.353  0.3574 -1.0432 -0.5311
  836MOL0     C12764   2.688  -1.752   7.334  0.7847  0.2294  0.3245
  836MOL0     C12765   2.712  -1.900   7.386  0.2501  0.0226  1.1442
  836MOL0     C12766   2.634  -1.988   7.278 -0.2964  1.3142 -0.2525
  836MOL0     C12767   2.648  -2.138   7.306  0.0582  0.4756  0.6256
  836MOL0     C12768   2.581  -2.220   7.193  0.5791  0.3497  0.1569
  836MOL0    Cl12769   2.411  -2.179   7.176 -0.3355 -0.2556 -0.0817
  836MOL0     C12770   2.616  -1.150   7.321  0.1085  0.6355 -0.9176
  836MOL0     C12771   2.717  -1.065   7.271  0.0486  0.2930  0.3397
  836MOL0     O12772   3.072  -1.047   7.449 -0.4331  0.1671  0.0679
  836MOL0     C12773   3.145  -0.855   7.153  0.3225  0.9693  0.7738
  836MOL0     C12774   3.246  -0.771   7.107  0.5800 -0.3488 -0.3846
  836MOL0     N12775   3.616  -0.217   6.843 -0.8067  0.6750 -0.2147
  836MOL0     N12776   3.690  -0.123   6.800 -1.0912 -0.1266 -0.2776
  836MOL0     C12777   3.956   0.847   6.506  0.4387 -0.1841 -0.3049
  836MOL0     C12778   3.933   0.981   6.482 -0.2303  0.7489  0.1601
  836MOL0     C12779   4.015   1.404   6.435  0.2519  0.1478 -0.9636
  836MOL0     C12780   4.068   1.453   6.315 -0.0680 -0.0014 -0.9799
  836MOL0     C12781   4.079   1.586   6.288  0.8575 -0.3386  0.1571
  836MOL0     C12782   4.014   1.685   6.368  0.4101 -0.8805 -0.5917
  836MOL0     O12783   4.004   1.816   6.362 -0.6148  0.2499 -0.0476
  836MOL0     C12784   4.097   1.865   6.266  0.0297 -0.2719  0.5060
  836MOL0     C12785   4.074   2.016   6.257  0.1494  0.2353 -0.3182
  836MOL0     C12786   4.178   2.086   6.167  0.5538  0.3434  0.5245
  836MOL0     C12787   4.317   2.056   6.214  0.4841 -0.0363 -0.3582
  836MOL0     C12788   4.393   2.173   6.186  0.4344 -1.0836  0.0599
  836MOL0     C12789   4.444   2.284   6.212 -0.5491  0.0316  1.0291
  836MOL0     C12790   3.963   1.636   6.491  0.6726  1.2051  0.4130
  836MOL0     C12791   3.961   1.499   6.531 -0.3127  0.0786  0.8101
  836MOL0     C12792   3.901   1.444   6.658  0.6868 -1.4897 -0.1318
  836MOL0     H12793   4.196   1.031   6.272 -1.8720 -0.2128 -1.6454
  836MOL0     H12794   4.231   0.784   6.308  0.9545  1.2348 -0.9390
  836MOL0     H12795   3.903   0.546   6.525 -1.2497  1.2592 -1.3023
  836MOL0     H12796   3.925   0.583   6.355  1.0719 -0.4251 -0.4541
  836MOL0     H12797   4.093   0.384   6.513  1.1773  2.3640 -0.7833
  836MOL0     H12798   4.100   0.386   6.341 -2.7475 -1.0698 -0.6739
  836MOL0     H12799   3.866   0.334   6.323 -0.5246 -0.1042 -0.9272
  836MOL0     H12800   3.846   0.317   6.499 -1.4063 -2.0431 -0.7443
  836MOL0     H12801   4.016   0.151   6.335  0.6359 -2.0425  1.0356
  836MOL0     H12802   4.029   0.145   6.510 -0.2122 -0.5750  0.7936
  836MOL0     H12803   3.787   0.098   6.517 -1.2188  1.4263 -1.7486
  836MOL0     H12804   3.777   0.089   6.342 -0.6346  2.7425  0.9028
  836MOL0     H12805   3.806  -0.140   6.392 -0.3330 -0.6149  1.4482
  836MOL0     H12806   3.956  -0.083   6.328 -0.3451 -1.0789  1.2678
  836MOL0     H12807   4.070  -0.103   6.519  1.1221  0.5893  2.9499
  836MOL0     H12808   3.962  -0.243   6.502  1.7650 -0.7658  2.9503
  836MOL0     H12809   3.975  -0.161   6.755  0.2016  2.0943  1.3611
  836MOL0     H12810   3.916  -0.006   6.700 -1.0633 -0.5090  1.2781
  836MOL0     H12811   3.808  -0.384   6.639 -1.7659 -2.8037 -0.5219
  836MOL0     H12812   3.503  -0.482   6.799 -0.2541 -5.6258 -1.4921
  836MOL0     H12813   3.650  -0.540   6.732 -0.9859 -0.6916 -1.1915
  836MOL0     H12814   3.758  -0.488   6.957 -0.0702  0.1896 -1.8284
  836MOL0     H12815   3.591  -0.480   7.030 -3.0456 -1.5567 -1.1614
  836MOL0     H12816   3.763  -0.704   6.950  0.3799  0.8416 -2.6651
  836MOL0     H12817   3.622  -0.708   6.861  0.1018  1.7860 -1.6300
  836MOL0     H12818   3.687  -0.707   7.161 -0.4270  0.4204  1.3433
  836MOL0     H12819   3.603  -0.843   7.090  2.2111  0.2018  1.1956
  836MOL0     H12820   3.502  -0.840   7.321  1.3859 -1.9032 -0.5073
  836MOL0     H12821   3.320  -0.986   7.416  0.7450 -0.9885 -0.7456
  836MOL0     H12822   2.985  -1.270   7.335 -0.3517  1.2260 -0.1924
  836MOL0     H12823   2.791  -1.411   7.418  1.1494 -1.4779 -2.9824
  836MOL0     H12824   2.633  -1.480   7.510  1.9201 -2.1860 -1.7030
  836MOL0     H12825   2.460  -1.488   7.531 -0.9695 -0.3708 -0.0244
  836MOL0     H12826   2.430  -1.542   7.292 -0.1742 -2.6743 -0.5821
  836MOL0     H12827   2.599  -1.519   7.252 -0.0605 -0.0860  0.7817
  836MOL0     H12828   2.506  -1.748   7.448 -0.2993 -0.6060 -0.6158
  836MOL0     H12829   2.481  -1.761   7.281  0.9316 -1.4615 -0.7485
  836MOL0     H12830   2.737  -1.692   7.411  0.3762 -0.4169  1.1016
  836MOL0     H12831   2.727  -1.729   7.234 -1.3524  2.1134 -0.1730
  836MOL0     H12832   2.669  -1.920   7.485 -5.1172 -0.2929 -0.9255
  836MOL0     H12833   2.820  -1.911   7.392  0.1983  0.1584  4.3381
  836MOL0     H12834   2.525  -1.982   7.279 -0.2449  3.3246  1.1903
  836MOL0     H12835   2.673  -1.971   7.177  1.8971  1.4913  0.5804
  836MOL0     H12836   2.612  -2.171   7.404 -0.0579 -2.4397 -0.2990
  836MOL0     H12837   2.754  -2.162   7.305 -0.0995 -0.2607  1.2748
  836MOL0     H12838   2.633  -2.204   7.097 -0.6146  0.7138 -0.4459
  836MOL0     H12839   2.590  -2.325   7.223  0.2728  0.6646  1.3798
  836MOL0     H12840   2.520  -1.099   7.316 -2.1252 -3.2587 -1.7377
  836MOL0     H12841   2.685  -0.968   7.235 -2.4540 -0.8088 -0.6234
  836MOL0     H12842   3.056  -0.860   7.092  0.6414  1.0857  0.2977
  836MOL0     H12843   3.227  -0.712   7.018 -2.3648  0.3238  0.6024
  836MOL0     H12844   3.884   0.799   6.572  2.3861 -1.0955  1.2677
  836MOL0     H12845   3.853   1.034   6.532  1.2433  2.9734  0.3421
  836MOL0     H12846   4.084   1.383   6.233 -2.0127  0.1855 -1.5745
  836MOL0     H12847   4.131   1.615   6.197  3.5082 -0.3547  1.5552
  836MOL0     H12848   4.095   1.827   6.164  3.2337 -0.5484  0.4329
  836MOL0     H12849   4.199   1.850   6.304 -0.5326 -3.2367  1.0940
  836MOL0     H12850   4.081   2.061   6.357 -1.0027  0.4499 -0.3283
  836MOL0     H12851   3.972   2.031   6.222 -0.0463  2.2515  0.9350
  836MOL0     H12852   4.170   2.195   6.162  3.8211  0.6424 -2.9305
  836MOL0     H12853   4.157   2.048   6.066  1.9076  3.0156 -0.8719
  836MOL0     H12854   4.327   2.033   6.320 -2.9877 -3.0697 -0.5234
  836MOL0     H12855   4.368   1.972   6.165  1.0526 -0.2475  0.5783
  836MOL0     H12856   4.490   2.376   6.244 -2.1191  0.5330  1.9363
  836MOL0     H12857   3.923   1.712   6.557 -2.2457  2.1306 -2.1830
  836MOL0     H12858   3.820   1.517   6.671 -2.1914 -3.9238 -3.0280
  836MOL0     H12859   3.849   1.353   6.629 -1.1336 -0.5771  0.1545
  836MOL0     H12860   3.966   1.432   6.746  0.1122  1.7383  0.8890
  837MOL0     O12861   9.437   4.369   1.519 -0.7231 -0.1827  0.4006
  837MOL0     C12862   9.480   4.440   1.426 -0.5896  0.2913  0.4833
  837MOL0     O12863   9.563   4.547   1.448 -0.1035  0.2386  0.4059
  837MOL0     C12864   9.609   4.576   1.579  0.6151 -0.4606 -0.1396
  837MOL0     C12865   9.744   4.603   1.598  0.3122 -0.4126  0.0609
  837MOL0     C12866   9.790   4.651   1.717 -0.1530  0.8811 -0.6809
  837MOL0     C12867   9.703   4.660   1.825  0.5069 -0.2476  0.9891
  837MOL0     O12868   9.762   4.696   1.942 -0.0115  0.3736 -0.6974
  837MOL0     C12869   9.684   4.661   2.057  0.1328 -0.4869  0.2674
  837MOL0     C12870   9.766   4.624   2.180  0.1157 -0.5461  0.6959
  837MOL0     C12871   9.822   4.735   2.258 -0.3287  0.2404 -0.1422
  837MOL0     C12872   9.891   4.685   2.386  0.5126 -0.4596 -0.6894
  837MOL0     C12873   9.954   4.797   2.471  0.3826  0.1402  0.6812
  837MOL0     C12874  10.015   4.738   2.595  0.4948  1.1814 -0.8803
  837MOL0     C12875  10.044   4.854   2.689  0.1200  0.6495 -0.3661
  837MOL0     C12876  10.107   4.822   2.828  0.2564  0.3707  0.3761
  837MOL0     N12877  10.137   4.949   2.900 -0.2706  0.1502 -1.3136
  837MOL0     C12878  10.254   5.021   2.894 -0.1500 -0.0967  1.0956
  837MOL0     C12879  10.254   5.121   2.981 -0.0273 -0.7061 -0.7695
  837MOL0     C12880  10.355   5.239   2.968  0.2528 -0.4485  0.0678
  837MOL0     C12881  10.438   5.233   3.089  0.3190 -0.3798  0.4443
  837MOL0     C12882  10.547   5.335   3.082  0.7845 -0.4593  0.2081
  837MOL0     C12883  10.628   5.336   3.213 -0.0989  0.2118  0.3626
  837MOL0     O12884  10.723   5.437   3.196 -0.6330 -0.0613 -0.2886
  837MOL0     C12885  10.761   5.507   3.314  0.7320 -0.4377  0.6405
  837MOL0     C12886  10.766   5.462   3.447 -0.2199 -1.0853 -0.3513
  837MOL0     C12887  10.796   5.550   3.549 -0.2707 -0.3217  0.8591
  837MOL0     C12888  10.818   5.680   3.527 -0.1582 -0.4065 -0.1333
  837MOL0     C12889  10.839   5.773   3.638  0.0203  0.2865  0.4396
  837MOL0     O12890  10.915   5.885   3.613  0.6726 -0.9547 -0.2269
  837MOL0     C12891  10.925   5.991   3.707 -0.5018  0.1881 -0.1793
  837MOL0     C12892  10.992   5.966   3.832 -0.7811  0.4205 -0.2518
  837MOL0     C12893  10.982   6.066   3.930 -0.1986 -0.0592 -0.0663
  837MOL0     C12894  10.908   6.188   3.909 -0.7901  0.6776  0.1886
  837MOL0     O12895  10.902   6.293   4.008  0.0568 -0.5444 -0.3003
  837MOL0     C12896  10.992   6.277   4.118 -0.2040 -0.2438  0.4531
  837MOL0     C12897  10.947   6.397   4.203 -0.2619  0.4331 -1.2718
  837MOL0     C12898  10.815   6.373   4.269 -0.6194  0.2619 -0.8924
  837MOL0     C12899  10.770   6.502   4.344 -0.4932 -0.3446  0.2312
  837MOL0     C12900  10.625   6.500   4.371 -0.8921  0.6911 -0.3662
  837MOL0     C12901  10.572   6.598   4.472 -0.4006 -0.9914 -0.7481
  837MOL0     C12902  10.421   6.568   4.495 -0.4747  0.1808  0.6892
  837MOL0     C12903  10.360   6.695   4.563  0.4933  0.3083 -0.0476
  837MOL0    Cl12904  10.388   6.831   4.458 -0.3657 -0.4340  0.1014
  837MOL0     C12905  10.841   6.210   3.781 -0.0544  1.4393 -1.5782
  837MOL0     C12906  10.848   6.100   3.689  0.9376 -0.8237 -0.1542
  837MOL0     O12907  10.770   5.755   3.741 -0.5012  0.0762 -0.2403
  837MOL0     C12908  10.810   5.732   3.395 -0.1853 -0.0882 -0.1635
  837MOL0     C12909  10.781   5.642   3.294 -0.2355  0.9774 -0.0215
  837MOL0     N12910  10.123   5.119   3.042 -0.2385  0.4951  0.2400
  837MOL0     N12911  10.057   5.022   2.982  1.1977 -0.4451 -1.1793
  837MOL0     C12912   9.562   4.636   1.805  1.2106 -1.4616  0.7864
  837MOL0     C12913   9.516   4.589   1.687  0.0083 -0.3567  0.6927
  837MOL0     C12914   9.475   4.396   1.285 -0.4920  0.5219 -0.4770
  837MOL0     C12915   9.569   4.454   1.200 -0.4880  0.7148 -0.2217
  837MOL0     C12916   9.595   4.405   1.075  0.6027 -0.8206  0.9884
  837MOL0     C12917   9.530   4.289   1.033 -0.2235  0.1222 -0.4350
  837MOL0     O12918   9.539   4.255   0.904 -0.4926 -0.3194  0.8260
  837MOL0     C12919   9.450   4.155   0.847  0.1550  0.3723 -0.1065
  837MOL0     C12920   9.514   4.020   0.834  1.2300  0.6629  0.0241
  837MOL0     C12921   9.612   4.016   0.707  0.0510  0.1852 -0.3153
  837MOL0     C12922   9.702   3.892   0.703 -0.5513  0.4492  0.2111
  837MOL0     C12923   9.632   3.763   0.685  0.8167  0.5677 -0.1093
  837MOL0     C12924   9.597   3.648   0.665  0.3746  0.8038  0.5271
  837MOL0     C12925   9.433   4.232   1.117  0.4997 -0.1421 -0.0324
  837MOL0     C12926   9.408   4.281   1.240  1.2148  0.0907  1.0147
  837MOL0     C12927   9.285   4.222   1.314 -0.2138  0.6600 -0.4420
  837MOL0     H12928   9.808   4.601   1.510 -0.4329  2.9859 -0.7275
  837MOL0     H12929   9.888   4.687   1.746 -1.2384  1.3078  3.0418
  837MOL0     H12930   9.622   4.744   2.093  0.0889 -0.8542  1.0694
  837MOL0     H12931   9.625   4.573   2.030  0.2388 -0.6492  0.5616
  837MOL0     H12932   9.851   4.562   2.150 -0.3472 -1.3859  1.0890
  837MOL0     H12933   9.704   4.558   2.241 -2.3475  1.1480  0.1616
  837MOL0     H12934   9.738   4.799   2.284 -0.4253  1.6422 -3.4099
  837MOL0     H12935   9.894   4.793   2.200  0.6858  0.4194  1.2455
  837MOL0     H12936   9.817   4.636   2.449  0.9972  0.5716  0.7296
  837MOL0     H12937   9.969   4.614   2.353  2.7286  1.9338 -0.9372
  837MOL0     H12938  10.039   4.840   2.416  0.0177  0.5809  0.4596
  837MOL0     H12939   9.878   4.871   2.498 -0.4396 -1.6267  3.6721
  837MOL0     H12940   9.953   4.660   2.641  2.5855  0.9575  1.7785
  837MOL0     H12941  10.112   4.691   2.573  0.0953 -0.9224  1.4599
  837MOL0     H12942   9.942   4.885   2.711 -0.5120 -0.8098 -1.0881
  837MOL0     H12943  10.103   4.933   2.642  2.7845 -0.7371  0.4115
  837MOL0     H12944  10.038   4.763   2.889  0.9621 -2.2807 -1.1954
  837MOL0     H12945  10.197   4.762   2.810 -1.0386 -1.1907 -1.2812
  837MOL0     H12946  10.340   5.009   2.829 -1.4978 -0.7284 -0.6596
  837MOL0     H12947  10.414   5.235   2.876  0.3006 -1.0302  0.1214
  837MOL0     H12948  10.302   5.335   2.978 -1.1952 -1.4473  3.4514
  837MOL0     H12949  10.370   5.260   3.171  3.5100  2.0769  2.5393
  837MOL0     H12950  10.480   5.138   3.121 -0.0842  0.1167  2.6351
  837MOL0     H12951  10.506   5.436   3.077  0.3606 -0.6625 -0.6368
  837MOL0     H12952  10.620   5.325   3.001  1.9642  0.6488  1.0985
  837MOL0     H12953  10.678   5.239   3.226 -2.8592 -1.3158  0.3163
  837MOL0     H12954  10.566   5.365   3.298 -2.8765 -1.5963 -0.9060
  837MOL0     H12955  10.750   5.355   3.459 -1.3599 -0.6498  2.9035
  837MOL0     H12956  10.795   5.506   3.648 -2.4130 -2.1323  0.1159
  837MOL0     H12957  11.039   5.868   3.843  0.5216  1.1966  1.4960
  837MOL0     H12958  11.049   6.048   4.013  3.3552  3.7872 -1.7584
  837MOL0     H12959  10.976   6.189   4.181 -2.2273  1.6024  2.7358
  837MOL0     H12960  11.096   6.283   4.084 -0.4165 -3.6788 -1.1762
  837MOL0     H12961  11.025   6.408   4.279 -0.4176  1.2044 -1.2212
  837MOL0     H12962  10.947   6.489   4.145  3.0838  0.0714 -2.0881
  837MOL0     H12963  10.736   6.344   4.200 -0.7365  2.8310 -1.9502
  837MOL0     H12964  10.820   6.293   4.343 -2.2559  2.7986  2.1985
  837MOL0     H12965  10.797   6.588   4.281 -0.3307 -2.0690 -2.2052
  837MOL0     H12966  10.815   6.506   4.443 -0.6262  0.5028  0.2666
  837MOL0     H12967  10.590   6.401   4.400  0.3378  0.6902  1.2626
  837MOL0     H12968  10.575   6.531   4.279 -2.8777 -1.0966  0.0441
  837MOL0     H12969  10.627   6.604   4.566  1.1251  3.4318 -1.6860
  837MOL0     H12970  10.587   6.700   4.435  1.7169 -0.3599  1.5518
  837MOL0     H12971  10.399   6.484   4.561 -3.1422 -0.1222 -0.4778
  837MOL0     H12972  10.369   6.541   4.403 -0.6364 -2.9915  1.6139
  837MOL0     H12973  10.252   6.696   4.581 -0.1869  2.0031 -3.3204
  837MOL0     H12974  10.410   6.712   4.658 -0.9232 -0.1371  0.8065
  837MOL0     H12975  10.773   6.293   3.765 -2.2335  0.0370 -0.1691
  837MOL0     H12976  10.794   6.110   3.595 -0.6071  1.7209  0.9216
  837MOL0     H12977  10.820   5.839   3.380  2.0593  0.1523  2.4364
  837MOL0     H12978  10.782   5.671   3.189 -0.4385  3.4778  0.6156
  837MOL0     H12979   9.483   4.650   1.879  2.7340  0.0279  2.1984
  837MOL0     H12980   9.411   4.570   1.667 -0.9115  1.7618  3.0037
  837MOL0     H12981   9.620   4.546   1.228 -0.5594  0.9088 -0.6998
  837MOL0     H12982   9.671   4.454   1.015 -1.5978  2.6973  0.7963
  837MOL0     H12983   9.427   4.187   0.745 -4.6558 -1.6844  0.0468
  837MOL0     H12984   9.349   4.156   0.891 -0.0525  1.6927 -0.5395
  837MOL0     H12985   9.445   3.936   0.825  0.9807  0.1821  4.3387
  837MOL0     H12986   9.576   4.011   0.925 -1.9485 -0.3437  2.2558
  837MOL0     H12987   9.681   4.100   0.713  1.8471 -1.3151  1.3005
  837MOL0     H12988   9.563   4.034   0.611 -1.7722 -0.7989  0.3879
  837MOL0     H12989   9.770   3.917   0.621  0.6438  4.3233  2.1221
  837MOL0     H12990   9.766   3.869   0.790  0.6583 -0.6029 -0.9049
  837MOL0     H12991   9.547   3.554   0.651  1.3496  0.1638  1.2924
  837MOL0     H12992   9.364   4.158   1.078  0.8155  0.5852 -2.0888
  837MOL0     H12993   9.208   4.180   1.248 -0.6579  0.0801  0.4271
  837MOL0     H12994   9.312   4.147   1.388  1.2793 -0.6342 -2.1861
  837MOL0     H12995   9.237   4.302   1.370 -3.1838  0.9621 -3.1455
  838MOL0     O12996   1.733   9.755  10.775 -0.2600  0.7477 -0.5094
  838MOL0     C12997   1.641   9.723  10.693 -0.7106  1.2811 -0.1465
  838MOL0     O12998   1.641   9.765  10.559  0.9171 -0.1344 -0.1490
  838MOL0     C12999   1.749   9.844  10.519  0.0096 -0.8333  0.3107
  838MOL0     C13000   1.719   9.973  10.481  1.1341 -0.1306  0.8344
  838MOL0     C13001   1.825  10.066  10.453  0.6181  1.0254 -0.3131
  838MOL0     C13002   1.957  10.014  10.449 -0.1642 -0.2054 -0.0568
  838MOL0     O13003   2.057  10.102  10.417  0.0733  0.4249 -0.1334
  838MOL0     C13004   2.188  10.088  10.479  0.7548 -0.4014  0.3412
  838MOL0     C13005   2.200  10.223  10.551 -0.0139  0.2521  0.6831
  838MOL0     C13006   2.339  10.254  10.604 -0.0705 -0.1301 -0.2235
  838MOL0     C13007   2.381  10.388  10.670  0.2624  0.6226  0.5870
  838MOL0     C13008   2.515  10.388  10.742 -0.5161 -0.3200  0.5505
  838MOL0     C13009   2.516  10.329  10.886  0.9255  0.7853  0.0019
  838MOL0     C13010   2.659  10.276  10.915  0.0708 -0.2804 -0.0418
  838MOL0     C13011   2.648  10.187  11.050 -0.3883 -0.5095  0.0994
  838MOL0     N13012   2.658  10.048  11.006  0.1279  0.2422  0.3187
  838MOL0     C13013   2.768   9.982  10.960 -0.3657  1.1173  1.0833
  838MOL0     C13014   2.748   9.850  10.931  0.4447  0.4252 -0.1476
  838MOL0     C13015   2.856   9.750  10.895  1.1478 -0.0628 -0.2921
  838MOL0     C13016   2.895   9.766  10.741 -0.5364  0.6648  0.2566
  838MOL0     C13017   3.022   9.688  10.691 -0.0507  0.2554  0.5185
  838MOL0     C13018   3.148   9.690  10.777  0.1369 -0.2947 -0.4744
  838MOL0     O13019   3.191   9.827  10.764  0.1786 -0.4199  0.3253
  838MOL0     C13020   3.167   9.911  10.870  0.1111 -0.2934 -0.8326
  838MOL0     C13021   3.187   9.873  11.006 -0.6310  0.4414  1.5351
  838MOL0     C13022   3.162   9.963  11.115  0.6384 -0.0042  0.1803
  838MOL0     C13023   3.105  10.090  11.089 -0.0478  0.7912 -0.6162
  838MOL0     C13024   3.061  10.176  11.207 -0.1226  1.2267  0.6326
  838MOL0     O13025   3.066  10.123  11.334 -1.1471  0.2467  0.0868
  838MOL0     C13026   2.976  10.171  11.420 -0.7249  0.2613  0.4047
  838MOL0     C13027   2.858  10.091  11.433  0.6439 -0.0773 -0.6413
  838MOL0     C13028   2.769  10.122  11.530  0.5488 -0.2077  0.1689
  838MOL0     C13029   2.792  10.228  11.618  1.3124 -1.4266  1.0386
  838MOL0     O13030   2.696  10.244  11.720 -0.0136  0.5833  1.1051
  838MOL0     C13031   2.632  10.368  11.715  0.3901 -0.6553 -0.0448
  838MOL0     C13032   2.487  10.340  11.745  0.4380 -0.6812 -0.2061
  838MOL0     C13033   2.416  10.452  11.832  1.1178 -0.6798 -0.2925
  838MOL0     C13034   2.460  10.596  11.808 -0.0875 -0.0999  0.4484
  838MOL0     C13035   2.367  10.712  11.854 -0.0605 -1.6516 -0.8706
  838MOL0     C13036   2.461  10.835  11.854 -0.5050 -0.0301 -0.4424
  838MOL0     C13037   2.381  10.973  11.882 -1.0533  0.4801 -0.4938
  838MOL0     C13038   2.366  10.993  12.034 -0.7905 -0.5093 -0.3191
  838MOL0    Cl13039   2.520  11.030  12.126  0.6622 -0.0898 -0.0784
  838MOL0     C13040   2.906  10.311  11.608  0.4695  0.2445 -0.0200
  838MOL0     C13041   2.991  10.290  11.495  1.0154  0.6970 -0.3974
  838MOL0     O13042   2.983  10.262  11.171 -0.3711  0.1112  0.1801
  838MOL0     C13043   3.087  10.128  10.959 -0.5315  0.0520  0.3188
  838MOL0     C13044   3.110  10.036  10.853 -0.1846  0.8688  0.5808
  838MOL0     N13045   2.615   9.838  10.961  0.2937 -0.2173  0.6210
  838MOL0     N13046   2.558   9.951  11.000  0.9221 -0.1302  0.6575
  838MOL0     C13047   1.989   9.880  10.470  0.8266  0.9916  0.6493
  838MOL0     C13048   1.880   9.796  10.511  0.3784  0.4720  1.1712
  838MOL0     C13049   1.566   9.607  10.720  0.7739  0.5062  0.6496
  838MOL0     C13050   1.484   9.569  10.612  0.7830  1.0032  0.1774
  838MOL0     C13051   1.380   9.477  10.626  0.5189 -0.7429 -0.1923
  838MOL0     C13052   1.356   9.416  10.750  0.0107 -1.4173 -0.5350
  838MOL0     O13053   1.241   9.328  10.767 -0.4523 -0.1062 -0.2767
  838MOL0     C13054   1.144   9.327  10.661 -0.5270  1.1813 -0.2164
  838MOL0     C13055   1.029   9.232  10.686  0.2577  0.3335 -0.3656
  838MOL0     C13056   0.937   9.255  10.814 -0.4442 -0.8735  0.2413
  838MOL0     C13057   0.817   9.160  10.809 -0.2303  0.3816  0.0873
  838MOL0     C13058   0.850   9.031  10.862  0.3545 -0.7910  0.1282
  838MOL0     C13059   0.889   8.926  10.910 -0.9345  0.2658  0.3116
  838MOL0     C13060   1.438   9.448  10.861 -0.2827  0.5939 -0.3960
  838MOL0     C13061   1.553   9.539  10.851 -0.2016  0.0360  0.3777
  838MOL0     C13062   1.617   9.585  10.983 -0.4939  0.0002  0.2673
  838MOL0     H13063   1.613   9.999  10.487  1.1013 -0.0249 -0.0866
  838MOL0     H13064   1.787  10.164  10.422 -1.7906  0.3870  0.3781
  838MOL0     H13065   2.207  10.005  10.547  1.6530  0.5880  1.3359
  838MOL0     H13066   2.261  10.078  10.398 -0.5892  1.2584 -1.1819
  838MOL0     H13067   2.128  10.241  10.631  1.4978 -0.3045  2.2330
  838MOL0     H13068   2.172  10.302  10.481  2.0890 -0.9956 -1.7649
  838MOL0     H13069   2.411  10.231  10.524 -1.0964 -0.6675 -1.0104
  838MOL0     H13070   2.356  10.180  10.683  0.3180 -1.7077 -1.7216
  838MOL0     H13071   2.374  10.468  10.596 -0.1357 -1.0399 -1.2733
  838MOL0     H13072   2.305  10.401  10.747  0.5705 -2.1026  1.4689
  838MOL0     H13073   2.587  10.331  10.683 -2.3437 -2.3066  0.1150
  838MOL0     H13074   2.554  10.487  10.767  0.9738 -1.0079  1.0745
  838MOL0     H13075   2.477  10.401  10.958 -1.2596 -0.4406  0.1397
  838MOL0     H13076   2.446  10.245  10.880 -0.6294  2.0576 -0.3558
  838MOL0     H13077   2.726  10.363  10.919  1.0715 -0.9488 -1.3607
  838MOL0     H13078   2.685  10.220  10.825 -0.9488 -2.5547  0.9919
  838MOL0     H13079   2.738  10.192  11.111 -0.2822  0.2376 -0.1130
  838MOL0     H13080   2.558  10.212  11.108 -0.1843  2.6505 -0.7649
  838MOL0     H13081   2.865  10.024  10.932 -0.8944  1.9951  0.5128
  838MOL0     H13082   2.940   9.775  10.960 -0.4430  5.7683  0.0498
  838MOL0     H13083   2.824   9.650  10.927  0.2997  0.3422  0.1707
  838MOL0     H13084   2.807   9.740  10.680 -1.6858 -0.1376  2.1766
  838MOL0     H13085   2.909   9.874  10.728  0.6733  0.5015  0.1421
  838MOL0     H13086   3.036   9.719  10.587  2.6796 -0.6554  0.5539
  838MOL0     H13087   2.993   9.583  10.683 -1.1655  0.6706 -1.5201
  838MOL0     H13088   3.223   9.627  10.729 -1.7774 -2.7105 -0.4964
  838MOL0     H13089   3.136   9.650  10.878 -1.2600 -1.5154 -1.0863
  838MOL0     H13090   3.248   9.784  11.022  1.7099  1.4208 -1.0872
  838MOL0     H13091   3.186   9.931  11.216  1.3753  2.0971  0.7172
  838MOL0     H13092   2.862   9.995  11.382  0.4310 -0.3825 -0.0974
  838MOL0     H13093   2.685  10.053  11.539  0.1510 -0.1911 -2.5774
  838MOL0     H13094   2.678  10.423  11.798  1.2095 -0.7592 -0.4239
  838MOL0     H13095   2.636  10.437  11.631 -0.2914 -1.1368 -0.4826
  838MOL0     H13096   2.433  10.337  11.650  1.9022  1.6870 -1.2147
  838MOL0     H13097   2.471  10.247  11.800  2.4089 -1.0694 -0.2053
  838MOL0     H13098   2.309  10.434  11.817  0.7395 -0.3813  1.7772
  838MOL0     H13099   2.424  10.431  11.938 -0.0005 -0.8627 -0.2291
  838MOL0     H13100   2.450  10.613  11.701 -0.6767 -2.0349  0.1532
  838MOL0     H13101   2.564  10.605  11.840  0.3269  0.9899 -1.0939
  838MOL0     H13102   2.339  10.704  11.960 -2.1755  1.8420 -1.0039
  838MOL0     H13103   2.274  10.721  11.797  0.8569  2.8781 -2.1015
  838MOL0     H13104   2.541  10.813  11.926  0.8978 -0.4778 -2.0755
  838MOL0     H13105   2.510  10.853  11.758  0.1848 -3.5543 -0.8768
  838MOL0     H13106   2.285  10.961  11.830 -1.4955  2.9662 -0.3870
  838MOL0     H13107   2.451  11.043  11.836  0.7799 -1.3065 -0.5208
  838MOL0     H13108   2.308  11.085  12.048  1.3561  1.5113 -3.3383
  838MOL0     H13109   2.324  10.904  12.082 -3.9568  0.8067 -0.3491
  838MOL0     H13110   2.916  10.392  11.679 -0.8360  1.4844 -1.1813
  838MOL0     H13111   3.075  10.354  11.471  0.9838  0.8446 -0.1102
  838MOL0     H13112   3.053  10.228  10.934  2.5615  1.0890 -0.2584
  838MOL0     H13113   3.090  10.059  10.749  0.7372  0.2991  0.2717
  838MOL0     H13114   2.085   9.830  10.475 -0.8978 -2.7205  6.6216
  838MOL0     H13115   1.899   9.690  10.526  0.1576  0.5338  1.9617
  838MOL0     H13116   1.488   9.582  10.505 -2.6238 -1.6873 -0.4769
  838MOL0     H13117   1.338   9.466  10.527  3.2939  2.3787 -1.9416
  838MOL0     H13118   1.187   9.298  10.564  0.6434 -0.6633  0.7972
  838MOL0     H13119   1.097   9.426  10.662  0.6960  1.7917 -0.6192
  838MOL0     H13120   1.068   9.132  10.708 -0.7218  0.8257  4.9053
  838MOL0     H13121   0.969   9.224  10.595  3.4129  0.6165 -2.6444
  838MOL0     H13122   0.898   9.357  10.811 -3.3429 -1.7773  2.4258
  838MOL0     H13123   1.001   9.246  10.902  1.4116  3.4211 -0.4083
  838MOL0     H13124   0.729   9.193  10.864 -1.2337 -2.1954  0.1611
  838MOL0     H13125   0.774   9.159  10.708  0.8618  2.1982 -0.4568
  838MOL0     H13126   0.926   8.837  10.957 -0.7215  1.1269  1.8220
  838MOL0     H13127   1.423   9.400  10.957  1.5150  0.3816 -0.1780
  838MOL0     H13128   1.554   9.561  11.070 -0.3978 -0.3354  0.2452
  838MOL0     H13129   1.722   9.557  10.990 -0.4054 -0.1097 -1.1969
  838MOL0     H13130   1.630   9.692  11.001 -0.6202 -0.5535  4.8754
  839MOL0     O13131   5.370   9.132   5.387 -0.6174  0.8147  0.0671
  839MOL0     C13132   5.262   9.106   5.445 -0.7490 -0.3368 -0.3579
  839MOL0     O13133   5.148   9.172   5.415  0.0614  1.0404  0.1289
  839MOL0     C13134   5.166   9.267   5.317 -1.1949  1.0826  1.2649
  839MOL0     C13135   5.216   9.392   5.340  0.0434  0.1594  0.4399
  839MOL0     C13136   5.252   9.477   5.235  0.2791  0.6995  1.0066
  839MOL0     C13137   5.221   9.444   5.099  0.1552  0.1691  0.1087
  839MOL0     O13138   5.271   9.515   4.988 -0.0909  0.5873 -1.0890
  839MOL0     C13139   5.302   9.646   5.014  0.0321 -0.8185 -0.2011
  839MOL0     C13140   5.354   9.706   4.888 -0.7478  0.7609  0.0594
  839MOL0     C13141   5.392   9.851   4.907 -0.1178 -0.5270  0.8055
  839MOL0     C13142   5.471   9.916   4.794  0.3042 -0.3474  0.6397
  839MOL0     C13143   5.379  10.010   4.713  0.0626 -0.8568 -0.0474
  839MOL0     C13144   5.280   9.935   4.618 -0.1617  0.0796  0.5123
  839MOL0     C13145   5.375   9.888   4.497  0.2660 -0.6517 -0.6006
  839MOL0     C13146   5.278   9.871   4.379 -0.0896  0.6187  0.3128
  839MOL0     N13147   5.351   9.836   4.258 -0.1795 -0.1731  0.2027
  839MOL0     C13148   5.355   9.914   4.143 -0.5168 -0.3424 -0.1794
  839MOL0     C13149   5.421   9.848   4.057 -0.1543  0.8838 -0.0806
  839MOL0     C13150   5.474   9.921   3.938  0.7537  0.2546 -0.2114
  839MOL0     C13151   5.396   9.848   3.823  0.1520 -0.1091 -0.1543
  839MOL0     C13152   5.250   9.888   3.800  0.1513  0.5195  0.1497
  839MOL0     C13153   5.150   9.778   3.788  0.4560  0.5746 -0.2933
  839MOL0     O13154   5.015   9.818   3.803 -0.5715  0.1043  0.5012
  839MOL0     C13155   4.963   9.830   3.923 -0.1263  0.0531  0.7580
  839MOL0     C13156   4.832   9.868   3.935 -0.2120 -0.3888 -0.4851
  839MOL0     C13157   4.769   9.877   4.061 -0.7384 -0.2992  0.7725
  839MOL0     C13158   4.843   9.849   4.170 -0.6091  1.6069 -0.3946
  839MOL0     C13159   4.774   9.834   4.307  0.2360 -0.0591 -0.0637
  839MOL0     O13160   4.638   9.856   4.313  0.1801  0.2845  0.3276
  839MOL0     C13161   4.543   9.819   4.415 -1.2844 -0.0951  0.1056
  839MOL0     C13162   4.572   9.831   4.552  0.2285 -0.1790  1.1450
  839MOL0     C13163   4.472   9.811   4.652 -0.1492  0.1701  0.3645
  839MOL0     C13164   4.342   9.770   4.609  0.2578  0.3197 -0.6051
  839MOL0     O13165   4.229   9.755   4.686  0.0466  0.1289 -0.1062
  839MOL0     C13166   4.243   9.767   4.831 -0.0173 -0.9368 -0.1518
  839MOL0     C13167   4.314   9.644   4.900  0.8110 -0.2072  0.3717
  839MOL0     C13168   4.279   9.511   4.828  0.0194  1.3624  0.1819
  839MOL0     C13169   4.133   9.473   4.808 -0.7348  0.3435 -1.0128
  839MOL0     C13170   4.049   9.457   4.942  0.6590  0.1114 -0.4021
  839MOL0     C13171   4.132   9.387   5.057  0.4252  0.5472  0.0076
  839MOL0     C13172   4.167   9.247   5.016  0.1864  0.7508 -0.2051
  839MOL0     C13173   4.046   9.149   4.991  0.0580  0.0846  1.2254
  839MOL0    Cl13174   4.014   9.059   5.132 -0.0529 -0.1789  0.2154
  839MOL0     C13175   4.309   9.755   4.476 -0.2347  0.6256  0.7453
  839MOL0     C13176   4.410   9.785   4.382  0.5072 -0.0959  0.1136
  839MOL0     O13177   4.839   9.787   4.394 -0.1763  0.4338 -0.3348
  839MOL0     C13178   4.980   9.801   4.159  0.3261  1.3600  0.5515
  839MOL0     C13179   5.035   9.801   4.040 -0.2741 -0.3716 -0.4351
  839MOL0     N13180   5.443   9.718   4.107 -0.7263  0.5744  0.3740
  839MOL0     N13181   5.390   9.711   4.226  0.1507 -0.0197  0.3707
  839MOL0     C13182   5.168   9.315   5.074  0.4447  0.1404 -0.6777
  839MOL0     C13183   5.145   9.235   5.182 -0.0147 -0.1309 -0.9955
  839MOL0     C13184   5.262   9.013   5.554  0.8661  0.3965 -1.0440
  839MOL0     C13185   5.206   9.052   5.679  0.7584 -0.3011  1.3911
  839MOL0     C13186   5.231   8.976   5.790  0.1072  0.5500  0.0825
  839MOL0     C13187   5.297   8.857   5.785 -0.9119  0.5544 -0.1630
  839MOL0     O13188   5.305   8.783   5.904 -0.4544  0.2778 -0.4323
  839MOL0     C13189   5.348   8.643   5.911 -0.9418 -0.0061 -0.7936
  839MOL0     C13190   5.258   8.571   6.023  0.8941 -0.6157  0.2398
  839MOL0     C13191   5.111   8.565   5.978 -0.2774  0.0754 -0.5361
  839MOL0     C13192   5.039   8.445   6.052  0.2329  0.7072  0.0610
  839MOL0     C13193   4.907   8.485   6.079  0.1627 -0.2557 -1.0814
  839MOL0     C13194   4.797   8.534   6.107  0.9053  0.0809  0.2348
  839MOL0     C13195   5.346   8.815   5.667 -0.2307 -0.3457  0.9376
  839MOL0     C13196   5.334   8.891   5.550  0.8620  0.3767  1.0922
  839MOL0     C13197   5.387   8.849   5.411  0.8379  0.4763  0.4117
  839MOL0     H13198   5.251   9.420   5.439  0.7112  0.1187  0.2209
  839MOL0     H13199   5.300   9.572   5.256  0.3030  1.7475 -3.0364
  839MOL0     H13200   5.212   9.699   5.047  0.0586 -1.5130  1.0438
  839MOL0     H13201   5.384   9.652   5.086  1.1215 -3.4769 -1.0857
  839MOL0     H13202   5.264   9.709   4.826 -2.1034  2.9223  1.9547
  839MOL0     H13203   5.436   9.650   4.843 -0.7408  2.9384 -2.9734
  839MOL0     H13204   5.451   9.857   4.999  0.3244 -0.2473  0.5069
  839MOL0     H13205   5.308   9.916   4.935  0.8812 -0.4026  3.9855
  839MOL0     H13206   5.553   9.971   4.841 -0.6718  2.3981 -0.6923
  839MOL0     H13207   5.511   9.853   4.715 -1.2851 -0.4516 -0.1291
  839MOL0     H13208   5.320  10.069   4.784 -0.8449 -2.2518  0.4070
  839MOL0     H13209   5.438  10.075   4.649  0.0370 -2.7307 -2.0903
  839MOL0     H13210   5.227   9.852   4.666  1.8575 -1.0722  0.9003
  839MOL0     H13211   5.210  10.007   4.575  0.1883 -0.5384 -1.2038
  839MOL0     H13212   5.428   9.795   4.520 -0.2092 -1.3138 -2.0617
  839MOL0     H13213   5.455   9.953   4.462  0.8485 -0.0049  1.7896
  839MOL0     H13214   5.211   9.788   4.405 -1.2158  0.7545 -1.9725
  839MOL0     H13215   5.204   9.951   4.369 -0.8199 -0.1330 -0.4859
  839MOL0     H13216   5.330  10.017   4.122 -0.7368 -0.1158  1.1509
  839MOL0     H13217   5.466  10.030   3.943  0.4118  0.2728 -0.9960
  839MOL0     H13218   5.578   9.891   3.919  0.0364 -2.4433 -0.3453
  839MOL0     H13219   5.444   9.864   3.726 -1.8074 -3.7384 -1.9439
  839MOL0     H13220   5.404   9.740   3.844  0.4718  0.2354  1.7351
  839MOL0     H13221   5.256   9.931   3.699  1.2972  0.7077  0.2833
  839MOL0     H13222   5.218   9.964   3.872 -1.1794  1.5051 -1.4117
  839MOL0     H13223   5.173   9.686   3.843 -3.9636  0.2453  1.3291
  839MOL0     H13224   5.158   9.745   3.684  1.4481  0.0114 -0.0608
  839MOL0     H13225   4.770   9.872   3.847  0.2648 -3.3533 -1.0782
  839MOL0     H13226   4.666   9.909   4.056 -0.3756  0.8439  0.3960
  839MOL0     H13227   4.673   9.866   4.571  1.0572 -0.6401 -1.7990
  839MOL0     H13228   4.494   9.810   4.758 -0.6943  1.3125  0.4981
  839MOL0     H13229   4.302   9.853   4.863  1.3326 -1.5412 -0.9222
  839MOL0     H13230   4.142   9.770   4.872 -0.8602 -1.4256 -2.0583
  839MOL0     H13231   4.422   9.658   4.898  1.0998 -2.2014  0.4759
  839MOL0     H13232   4.295   9.644   5.007 -0.5727 -0.7094  0.1506
  839MOL0     H13233   4.308   9.513   4.722 -1.8635 -0.7193 -0.4573
  839MOL0     H13234   4.335   9.427   4.871  2.7099  3.3164  0.7348
  839MOL0     H13235   4.146   9.379   4.753  2.2406  0.1899 -0.2006
  839MOL0     H13236   4.072   9.526   4.735 -3.2420 -0.0105  0.7030
  839MOL0     H13237   3.949   9.417   4.923  0.0023  0.2943  2.3068
  839MOL0     H13238   4.022   9.554   4.986 -0.2785 -1.6180  3.1614
  839MOL0     H13239   4.224   9.436   5.090  2.2246 -1.7657 -1.1941
  839MOL0     H13240   4.051   9.384   5.130 -1.8316 -1.0056 -2.3876
  839MOL0     H13241   4.228   9.203   5.096  0.3401 -2.3009 -1.8440
  839MOL0     H13242   4.219   9.251   4.920  0.2561  0.8009 -0.1656
  839MOL0     H13243   3.959   9.209   4.962  0.4979  1.6462  2.8876
  839MOL0     H13244   4.075   9.084   4.909  3.6347  2.5889  0.2315
  839MOL0     H13245   4.214   9.715   4.443 -0.0905  0.4173  0.5827
  839MOL0     H13246   4.372   9.789   4.280 -4.1732  1.0084  1.6882
  839MOL0     H13247   5.025   9.755   4.246 -2.0249  0.2123  1.2504
  839MOL0     H13248   5.138   9.770   4.026  0.2139  0.1294  1.6872
  839MOL0     H13249   5.166   9.286   4.970 -0.7323 -0.3587 -0.5255
  839MOL0     H13250   5.102   9.139   5.158  1.4297 -0.6748 -1.4797
  839MOL0     H13251   5.140   9.138   5.678 -0.9295 -1.4928 -1.4146
  839MOL0     H13252   5.188   8.999   5.887 -3.0658  2.0252 -1.5215
  839MOL0     H13253   5.453   8.636   5.940 -0.9791  0.5868 -0.4968
  839MOL0     H13254   5.338   8.577   5.824 -1.1574 -1.4607  0.2883
  839MOL0     H13255   5.265   8.624   6.118 -2.4047  2.7849 -1.1749
  839MOL0     H13256   5.294   8.468   6.032 -1.7343 -1.4530  3.0678
  839MOL0     H13257   5.102   8.548   5.870  0.7441 -0.6169 -0.5184
  839MOL0     H13258   5.062   8.657   6.013 -0.6304 -0.2396 -0.1836
  839MOL0     H13259   5.052   8.354   5.993  0.1542  0.7452 -0.0129
  839MOL0     H13260   5.093   8.435   6.147 -2.0628  1.9559  1.5724
  839MOL0     H13261   4.698   8.563   6.132  1.2843  2.7395 -1.0090
  839MOL0     H13262   5.386   8.714   5.672  2.0217  0.4787  0.4233
  839MOL0     H13263   5.317   8.862   5.328 -0.3598  0.2007  1.3478
  839MOL0     H13264   5.483   8.897   5.391  1.6808 -2.0657 -2.2100
  839MOL0     H13265   5.405   8.744   5.436 -0.3500  0.2706  0.4405
  840MOL0     O13266  11.114   4.221   1.935 -0.6501 -0.4284 -0.0226
  840MOL0     C13267  11.112   4.242   1.810 -0.0817  0.7441  0.1416
  840MOL0     O13268  11.108   4.141   1.723 -0.2936  0.0145 -0.2852
  840MOL0     C13269  11.015   4.044   1.755  0.2033 -0.9330  0.9496
  840MOL0     C13270  10.889   4.081   1.796  0.0126 -0.1702  0.6148
  840MOL0     C13271  10.790   3.977   1.818 -0.1087 -1.1704  0.5017
  840MOL0     C13272  10.815   3.848   1.776  0.1985 -0.0709 -0.1456
  840MOL0     O13273  10.715   3.758   1.781 -0.3358  0.6034  0.6049
  840MOL0     C13274  10.745   3.623   1.815  0.6804 -0.5028  0.3823
  840MOL0     C13275  10.782   3.620   1.968  0.5904 -0.8384  0.6387
  840MOL0     C13276  10.667   3.668   2.055 -0.8335 -0.0197  0.1735
  840MOL0     C13277  10.706   3.720   2.191 -0.6402  0.1423 -0.2458
  840MOL0     C13278  10.581   3.762   2.265 -0.1392  0.5644  0.1161
  840MOL0     C13279  10.604   3.878   2.362  0.3670 -0.1157  0.1250
  840MOL0     C13280  10.663   4.013   2.305 -0.2512 -0.3675 -0.3252
  840MOL0     C13281  10.575   4.074   2.185  0.6221 -0.1497 -0.1648
  840MOL0     N13282  10.466   4.159   2.238 -0.1649 -0.5187  0.0515
  840MOL0     C13283  10.331   4.149   2.213  0.1051 -0.6460 -0.6930
  840MOL0     C13284  10.268   4.251   2.274 -0.5343  0.7046  0.1042
  840MOL0     C13285  10.115   4.257   2.278 -1.3144  0.4695 -0.2084
  840MOL0     C13286  10.026   4.302   2.405 -0.3290  0.0855 -0.6184
  840MOL0     C13287   9.892   4.302   2.331  0.8757 -0.5666 -0.5279
  840MOL0     C13288   9.772   4.337   2.420 -0.1916  0.2225 -0.3494
  840MOL0     O13289   9.654   4.338   2.350  0.8514 -0.1731 -0.2107
  840MOL0     C13290   9.533   4.341   2.428  0.2797 -0.0568 -0.1502
  840MOL0     C13291   9.540   4.337   2.575 -0.2887  0.9376  0.2619
  840MOL0     C13292   9.427   4.338   2.647 -0.2645 -0.1431  0.2910
  840MOL0     C13293   9.308   4.335   2.576  1.1691  0.2186 -0.8846
  840MOL0     C13294   9.191   4.307   2.659 -0.1575  0.6020  0.9608
  840MOL0     O13295   9.067   4.322   2.607 -0.4188  0.0464 -0.1880
  840MOL0     C13296   8.948   4.300   2.673  0.5759 -0.3284 -0.4414
  840MOL0     C13297   8.923   4.329   2.809  0.1592 -0.5678 -0.0983
  840MOL0     C13298   8.808   4.294   2.876  0.2531 -0.1555  0.1274
  840MOL0     C13299   8.706   4.240   2.806  1.7595 -0.6496 -0.2778
  840MOL0     O13300   8.591   4.207   2.881 -0.6596 -0.2284 -0.3361
  840MOL0     C13301   8.467   4.190   2.807  0.1911 -0.5942  1.1029
  840MOL0     C13302   8.365   4.196   2.913 -0.3445  0.5258 -0.3976
  840MOL0     C13303   8.343   4.326   2.994 -0.0883 -0.2477  0.2834
  840MOL0     C13304   8.240   4.317   3.108 -0.1396  0.1642  1.3743
  840MOL0     C13305   8.091   4.310   3.054 -0.4778  0.0645  0.7070
  840MOL0     C13306   8.050   4.438   2.982 -0.1570 -0.0629 -0.4472
  840MOL0     C13307   7.897   4.443   2.971 -0.1128  0.0080 -0.1214
  840MOL0     C13308   7.834   4.334   2.887 -0.1355  0.2635  0.7806
  840MOL0    Cl13309   7.890   4.337   2.711 -0.2846 -0.1275  0.1701
  840MOL0     C13310   8.717   4.209   2.672  0.4033 -0.1843 -0.3757
  840MOL0     C13311   8.841   4.236   2.604 -0.0425 -0.2586  0.1067
  840MOL0     O13312   9.208   4.256   2.767  0.0295  0.0968 -0.3291
  840MOL0     C13313   9.295   4.369   2.439 -0.2737 -0.3253 -0.8199
  840MOL0     C13314   9.412   4.369   2.364  0.1842 -0.1893  0.7143
  840MOL0     N13315  10.365   4.321   2.344 -1.2815 -0.0773  0.8376
  840MOL0     N13316  10.476   4.267   2.317 -0.5547  0.7138 -0.2804
  840MOL0     C13317  10.939   3.819   1.728 -0.5607 -0.4737  0.5484
  840MOL0     C13318  11.038   3.912   1.715  0.0101 -0.7415 -0.5214
  840MOL0     C13319  11.111   4.378   1.756  0.3866 -0.5486  0.2217
  840MOL0     C13320  11.142   4.397   1.618  0.5068 -0.2935 -0.6997
  840MOL0     C13321  11.139   4.523   1.556  0.5317 -0.7455 -0.4827
  840MOL0     C13322  11.100   4.640   1.627 -0.4208  0.1845  0.1775
  840MOL0     O13323  11.095   4.764   1.565 -0.2569 -0.8698 -0.4159
  840MOL0     C13324  11.088   4.882   1.643 -0.6883 -0.3209 -0.0497
  840MOL0     C13325  11.067   5.013   1.566 -0.0831 -0.4109 -0.4364
  840MOL0     C13326  10.950   5.014   1.470 -0.5581  0.3251  0.3688
  840MOL0     C13327  10.946   5.146   1.387 -0.8156 -0.6209 -0.1742
  840MOL0     C13328  10.907   5.272   1.453 -0.3120 -0.6051  0.6476
  840MOL0     C13329  10.862   5.366   1.511 -0.1017  0.8209  0.0882
  840MOL0     C13330  11.058   4.614   1.770  1.0512  0.8121  0.4184
  840MOL0     C13331  11.070   4.494   1.833 -0.1583  0.4735 -1.0302
  840MOL0     C13332  11.033   4.500   1.978  0.6333 -0.2832 -0.9338
  840MOL0     H13333  10.865   4.187   1.801  1.5160  0.2615 -0.5331
  840MOL0     H13334  10.689   4.001   1.850 -0.9052 -0.7016 -2.1282
  840MOL0     H13335  10.664   3.554   1.790  0.2487  0.4569 -1.0090
  840MOL0     H13336  10.826   3.588   1.749 -0.6351  1.2144 -2.3245
  840MOL0     H13337  10.862   3.692   1.990  1.4833 -1.2753 -0.9776
  840MOL0     H13338  10.819   3.519   1.989  2.9779 -0.9221 -3.0992
  840MOL0     H13339  10.604   3.581   2.072 -1.6331  0.3888 -0.6009
  840MOL0     H13340  10.615   3.739   1.989  1.1811 -1.4260 -3.2180
  840MOL0     H13341  10.740   3.635   2.251 -0.3576  1.2863  1.2934
  840MOL0     H13342  10.782   3.798   2.179  2.5792 -3.1441 -3.5187
  840MOL0     H13343  10.498   3.789   2.200 -2.5440 -1.4938  2.1186
  840MOL0     H13344  10.542   3.671   2.310  1.7239  1.1618  3.2425
  840MOL0     H13345  10.510   3.907   2.410  0.1084 -0.4741 -0.1594
  840MOL0     H13346  10.671   3.854   2.445  1.2919  2.9266  0.3691
  840MOL0     H13347  10.768   4.001   2.275 -0.6487 -0.1157 -1.9467
  840MOL0     H13348  10.661   4.092   2.381 -1.3470 -0.1073 -0.6046
  840MOL0     H13349  10.640   4.136   2.123  0.5080  0.6314  0.4813
  840MOL0     H13350  10.531   3.995   2.123 -2.7947  1.3650  0.0676
  840MOL0     H13351  10.282   4.080   2.145 -3.5918  1.8020 -0.7579
  840MOL0     H13352  10.094   4.319   2.190  0.8592  1.1062 -0.3448
  840MOL0     H13353  10.086   4.157   2.243 -0.2977  1.5557 -4.9237
  840MOL0     H13354  10.029   4.235   2.490 -0.1035  1.0729  0.1763
  840MOL0     H13355  10.060   4.401   2.438  1.0042 -1.0514  1.5928
  840MOL0     H13356   9.878   4.202   2.290 -0.9035  0.5306 -2.8057
  840MOL0     H13357   9.896   4.372   2.247  2.1706 -0.8581 -0.7327
  840MOL0     H13358   9.794   4.426   2.479  3.6113 -1.4814  1.1505
  840MOL0     H13359   9.776   4.251   2.488  0.4981 -1.6146 -2.5771
  840MOL0     H13360   9.638   4.328   2.619  0.6736 -1.1214 -2.0720
  840MOL0     H13361   9.427   4.333   2.755 -4.5027  1.4727  0.5509
  840MOL0     H13362   9.011   4.364   2.862 -0.2081 -1.0992  0.8849
  840MOL0     H13363   8.790   4.325   2.979 -1.2702 -1.4764  0.3063
  840MOL0     H13364   8.452   4.267   2.731 -0.6114 -0.7226  1.1281
  840MOL0     H13365   8.466   4.096   2.753  1.1670  0.0189 -0.0344
  840MOL0     H13366   8.271   4.177   2.860  0.2021  2.1203 -2.0268
  840MOL0     H13367   8.380   4.116   2.986 -4.8514  0.2286  0.4870
  840MOL0     H13368   8.435   4.369   3.033 -1.8592  2.3726  1.9323
  840MOL0     H13369   8.314   4.393   2.912 -0.4675 -3.7318 -2.6839
  840MOL0     H13370   8.232   4.403   3.175 -2.2573  0.8743  0.3054
  840MOL0     H13371   8.268   4.225   3.160  0.4815 -0.3065  0.2515
  840MOL0     H13372   8.024   4.303   3.140  1.4309  0.4219  2.3004
  840MOL0     H13373   8.083   4.217   2.997  1.2009 -0.3466  1.0874
  840MOL0     H13374   8.062   4.528   3.043 -3.2258 -0.7698  1.4023
  840MOL0     H13375   8.099   4.452   2.885 -0.9985 -1.4868 -1.1226
  840MOL0     H13376   7.866   4.538   2.928 -1.9288  1.2376  3.4641
  840MOL0     H13377   7.859   4.473   3.069  1.2553  3.3607 -0.4821
  840MOL0     H13378   7.848   4.233   2.927  1.0043 -0.7430 -1.9234
  840MOL0     H13379   7.726   4.351   2.888 -0.3247  1.2387 -4.8104
  840MOL0     H13380   8.636   4.152   2.629  0.3260 -0.8763  0.6414
  840MOL0     H13381   8.856   4.216   2.498 -4.1637 -1.5112 -0.4217
  840MOL0     H13382   9.199   4.388   2.393 -0.6592 -0.8474 -0.2437
  840MOL0     H13383   9.407   4.388   2.257  0.2150  1.1579  0.9354
  840MOL0     H13384  10.968   3.717   1.702 -0.9109 -0.9975  2.1162
  840MOL0     H13385  11.136   3.880   1.681  0.9773 -0.2574  1.6406
  840MOL0     H13386  11.158   4.309   1.556  0.4211 -0.7751 -0.0457
  840MOL0     H13387  11.154   4.548   1.452  0.7959  0.3715 -0.1861
  840MOL0     H13388  11.180   4.887   1.702 -2.6267  0.6729  3.1508
  840MOL0     H13389  10.998   4.873   1.704 -0.0626 -1.0133  0.7940
  840MOL0     H13390  11.156   5.033   1.505  1.2403  1.2988  1.9106
  840MOL0     H13391  11.064   5.092   1.641 -1.4113 -1.2484  0.4095
  840MOL0     H13392  10.856   5.004   1.526 -1.2871 -4.5556 -1.2929
  840MOL0     H13393  10.956   4.919   1.418  0.4554 -1.1332  2.9617
  840MOL0     H13394  11.043   5.149   1.337 -0.5475 -0.8748  0.3269
  840MOL0     H13395  10.880   5.128   1.302 -1.8477  1.9559  0.0006
  840MOL0     H13396  10.853   5.450   1.577  0.7843  0.9469  0.0648
  840MOL0     H13397  11.032   4.708   1.818 -0.7735  0.6695 -0.2089
  840MOL0     H13398  11.044   4.601   2.019  1.5837 -0.9910  0.6542
  840MOL0     H13399  10.932   4.464   1.998  2.3315 -4.5901  1.1067
  840MOL0     H13400  11.092   4.437   2.046  0.7477 -0.0980 -0.8600
  841MOL0     O13401   9.497   2.321   8.746 -0.2236 -0.2408 -0.6180
  841MOL0     C13402   9.447   2.394   8.838 -0.2372 -0.4314  0.0615
  841MOL0     O13403   9.517   2.482   8.916  0.0635 -0.6164  0.3766
  841MOL0     C13404   9.644   2.508   8.869 -0.4527  0.4977  0.6346
  841MOL0     C13405   9.754   2.418   8.880  0.3745  0.6801 -0.9208
  841MOL0     C13406   9.883   2.463   8.840  0.1078  0.8876  0.3971
  841MOL0     C13407   9.908   2.590   8.784 -0.0069  0.6576  0.6063
  841MOL0     O13408  10.039   2.613   8.754  0.0366  0.7957 -0.3519
  841MOL0     C13409  10.092   2.749   8.771  0.5015 -0.6533  0.0789
  841MOL0     C13410  10.237   2.760   8.831 -0.7118 -0.7105  0.0570
  841MOL0     C13411  10.356   2.695   8.758 -0.0465  0.3872 -0.5095
  841MOL0     C13412  10.496   2.733   8.825  0.3137 -0.2295 -0.7742
  841MOL0     C13413  10.611   2.671   8.756 -0.3650 -0.4687 -0.3606
  841MOL0     C13414  10.750   2.684   8.833  0.6633 -0.1676  0.1816
  841MOL0     C13415  10.870   2.642   8.762  0.2721 -0.3179 -0.5611
  841MOL0     C13416  11.001   2.648   8.853 -0.2021 -0.2275 -0.6731
  841MOL0     N13417  11.132   2.615   8.797 -0.1419 -0.0053  0.1265
  841MOL0     C13418  11.233   2.558   8.876  0.0073 -0.9391  0.2436
  841MOL0     C13419  11.326   2.530   8.782  0.6370 -0.4482  0.6578
  841MOL0     C13420  11.468   2.510   8.812  0.8273 -0.1304  0.1988
  841MOL0     C13421  11.494   2.392   8.902  0.4990  0.7222  0.0104
  841MOL0     C13422  11.624   2.400   8.983  0.6100 -0.4193  0.0914
  841MOL0     C13423  11.675   2.260   9.017  0.4979 -0.7735 -0.0798
  841MOL0     O13424  11.791   2.289   9.101 -0.6260 -0.0182  0.0228
  841MOL0     C13425  11.869   2.180   9.139  0.3097  1.0522  0.3184
  841MOL0     C13426  11.971   2.194   9.225 -0.0226  0.3203  0.6257
  841MOL0     C13427  12.042   2.080   9.265 -0.2123 -0.1425  0.1018
  841MOL0     C13428  12.027   1.950   9.210 -0.4292 -0.8126 -0.1025
  841MOL0     C13429  12.110   1.843   9.259  0.4150 -0.2676  0.1677
  841MOL0     O13430  12.116   1.822   9.395  0.4847  1.1714 -0.1941
  841MOL0     C13431  12.200   1.730   9.458  0.6633 -0.1772 -0.6676
  841MOL0     C13432  12.163   1.720   9.588  0.2936 -0.5560 -0.0312
  841MOL0     C13433  12.218   1.621   9.671 -0.1666  0.2953 -0.5423
  841MOL0     C13434  12.331   1.547   9.622  0.1644 -0.4298  0.4162
  841MOL0     O13435  12.385   1.472   9.720 -0.6670 -0.6587 -0.4360
  841MOL0     C13436  12.448   1.351   9.682  0.6387 -0.3753 -0.0933
  841MOL0     C13437  12.528   1.296   9.802  0.1453  0.2105 -0.2729
  841MOL0     C13438  12.440   1.265   9.929 -0.4493  0.2561 -0.8241
  841MOL0     C13439  12.418   1.390  10.018 -0.8281 -0.5974 -0.1369
  841MOL0     C13440  12.503   1.404  10.138 -0.3642  0.5814 -0.4964
  841MOL0     C13441  12.480   1.536  10.225 -0.4427 -0.3147  0.4088
  841MOL0     C13442  12.576   1.542  10.352  0.5999  0.0043 -0.0197
  841MOL0     C13443  12.557   1.660  10.446 -0.1248 -0.5138 -0.1671
  841MOL0    Cl13444  12.649   1.799  10.369  0.1661 -0.4591 -0.4721
  841MOL0     C13445  12.361   1.552   9.486  0.4745 -0.3157  0.1621
  841MOL0     C13446  12.304   1.651   9.406  0.2935  0.5316  0.9893
  841MOL0     O13447  12.180   1.786   9.181 -0.3424  0.3664  0.1453
  841MOL0     C13448  11.930   1.941   9.109 -0.5936 -0.2062  0.5993
  841MOL0     C13449  11.844   2.052   9.080  0.0319 -0.1065 -0.2976
  841MOL0     N13450  11.272   2.552   8.659  0.4447  0.5625  0.4205
  841MOL0     N13451  11.158   2.595   8.667 -0.0806  0.9048 -0.6377
  841MOL0     C13452   9.802   2.671   8.768 -0.6749  0.4730 -0.2846
  841MOL0     C13453   9.672   2.629   8.804  0.1644  0.5625  0.1094
  841MOL0     C13454   9.297   2.388   8.866  0.8475 -0.1189  0.4890
  841MOL0     C13455   9.214   2.340   8.763  0.0266 -0.8133 -0.1090
  841MOL0     C13456   9.077   2.329   8.766 -0.5906 -0.2021 -0.8471
  841MOL0     C13457   9.011   2.374   8.882 -0.8303  0.3009  0.8153
  841MOL0     O13458   8.872   2.351   8.877 -0.1444 -0.7543 -0.3077
  841MOL0     C13459   8.796   2.384   8.991  0.0546 -1.3306 -0.1334
  841MOL0     C13460   8.653   2.398   8.953  0.0996 -0.1173 -1.0079
  841MOL0     C13461   8.572   2.417   9.090 -0.0729 -0.3667  0.6100
  841MOL0     C13462   8.428   2.465   9.062 -0.4086 -0.3424  0.1008
  841MOL0     C13463   8.349   2.467   9.184 -0.7991  0.7156  0.1301
  841MOL0     C13464   8.284   2.474   9.287 -0.1150  0.7500  0.3834
  841MOL0     C13465   9.090   2.419   8.995  0.5146  0.5127 -0.1952
  841MOL0     C13466   9.229   2.435   8.981 -0.4242  0.1974  1.3749
  841MOL0     C13467   9.302   2.485   9.099 -0.4766  0.3446 -0.6616
  841MOL0     H13468   9.749   2.321   8.928  0.2862  0.2079 -1.8440
  841MOL0     H13469   9.967   2.396   8.852 -0.7882 -1.4666 -4.3001
  841MOL0     H13470  10.092   2.794   8.671  2.0078 -3.8056 -1.4674
  841MOL0     H13471  10.024   2.808   8.834  0.7328  0.6177 -0.8235
  841MOL0     H13472  10.227   2.710   8.928 -3.8460 -1.4168 -0.5296
  841MOL0     H13473  10.257   2.864   8.859 -0.8820 -0.7208  0.2183
  841MOL0     H13474  10.351   2.714   8.650  0.4770  1.8810 -0.3011
  841MOL0     H13475  10.336   2.588   8.765 -1.3384  0.6793  0.5029
  841MOL0     H13476  10.502   2.842   8.822 -0.0305 -0.1707  0.2499
  841MOL0     H13477  10.487   2.714   8.933 -3.3030  4.0882  0.0152
  841MOL0     H13478  10.595   2.563   8.758 -1.4424 -0.3150  1.6047
  841MOL0     H13479  10.616   2.711   8.654  0.3160 -3.0276 -1.4147
  841MOL0     H13480  10.753   2.791   8.858 -1.3018 -0.5725  2.4970
  841MOL0     H13481  10.749   2.631   8.928  1.3136 -2.0704 -0.8256
  841MOL0     H13482  10.886   2.706   8.674  2.1725 -0.1482 -0.1281
  841MOL0     H13483  10.861   2.537   8.732  1.3020 -2.1544  4.5470
  841MOL0     H13484  11.002   2.746   8.900  3.3028  0.4176 -1.7625
  841MOL0     H13485  10.985   2.574   8.932  1.8338  0.6154  0.5925
  841MOL0     H13486  11.256   2.571   8.981 -0.2374 -1.2482  0.3377
  841MOL0     H13487  11.529   2.483   8.726  0.7534 -2.7208  0.8537
  841MOL0     H13488  11.498   2.607   8.852  0.8485  0.5100 -1.3082
  841MOL0     H13489  11.412   2.364   8.969  1.8275 -3.9271  0.0441
  841MOL0     H13490  11.498   2.304   8.837 -3.6080  0.6925 -0.4788
  841MOL0     H13491  11.608   2.469   9.066 -2.5893  1.1186 -1.6157
  841MOL0     H13492  11.701   2.450   8.923 -1.2414  0.1321 -1.9734
  841MOL0     H13493  11.710   2.213   8.925 -1.3116 -1.7848 -0.3128
  841MOL0     H13494  11.597   2.205   9.071 -1.7403  0.6227 -1.7071
  841MOL0     H13495  11.994   2.296   9.253 -3.2034  1.9531 -2.0507
  841MOL0     H13496  12.117   2.107   9.339 -1.2203  2.8357  0.2032
  841MOL0     H13497  12.091   1.791   9.627  1.6172  0.0466  1.3853
  841MOL0     H13498  12.192   1.605   9.776 -1.4380 -1.8598 -1.1065
  841MOL0     H13499  12.372   1.281   9.647  1.5436  0.1321 -3.4097
  841MOL0     H13500  12.511   1.374   9.596 -1.8688  5.9096 -0.7261
  841MOL0     H13501  12.586   1.206   9.781 -3.1082 -2.0031 -0.4558
  841MOL0     H13502  12.596   1.379   9.824  0.6354 -0.7602  2.2093
  841MOL0     H13503  12.341   1.236   9.892  1.1973 -1.6462 -4.2613
  841MOL0     H13504  12.482   1.184   9.988 -0.1518  0.7403 -0.3629
  841MOL0     H13505  12.316   1.380  10.055 -0.9768  2.9074  0.7770
  841MOL0     H13506  12.410   1.484   9.962 -4.2323 -0.7490 -0.0883
  841MOL0     H13507  12.606   1.392  10.103 -0.7557 -2.0452 -0.8933
  841MOL0     H13508  12.462   1.326  10.202 -0.3614  0.1786 -0.9758
  841MOL0     H13509  12.509   1.620  10.161 -0.6182 -0.2150  0.4610
  841MOL0     H13510  12.374   1.543  10.249 -1.0903  4.6401 -2.4201
  841MOL0     H13511  12.682   1.526  10.331  0.0101 -1.1244 -2.5390
  841MOL0     H13512  12.555   1.453  10.414  3.1998  0.5076  1.7351
  841MOL0     H13513  12.453   1.688  10.463  0.5560  1.1163  1.6855
  841MOL0     H13514  12.607   1.630  10.539  2.0958  0.7847 -0.8578
  841MOL0     H13515  12.440   1.484   9.458  1.5482  0.1164  1.9420
  841MOL0     H13516  12.338   1.651   9.303 -2.7445 -1.1612 -0.1474
  841MOL0     H13517  11.908   1.847   9.060  1.3119  0.0663 -0.9433
  841MOL0     H13518  11.757   2.043   9.015 -1.2416  2.4331  0.9340
  841MOL0     H13519   9.828   2.758   8.708 -1.5034  0.8107 -0.1681
  841MOL0     H13520   9.588   2.691   8.773 -1.0681 -1.2487 -0.2868
  841MOL0     H13521   9.263   2.313   8.670  1.0483 -1.7278  0.6576
  841MOL0     H13522   9.039   2.276   8.679 -0.5081  0.7364 -1.4755
  841MOL0     H13523   8.818   2.485   9.027 -0.5407  0.3111 -3.9674
  841MOL0     H13524   8.799   2.310   9.071 -3.7493 -1.2796  0.2360
  841MOL0     H13525   8.615   2.307   8.905 -0.8567  0.4754 -1.4018
  841MOL0     H13526   8.648   2.488   8.891 -1.9215  0.6843  0.1991
  841MOL0     H13527   8.629   2.491   9.146  0.5763 -1.8367  1.9630
  841MOL0     H13528   8.574   2.316   9.132  2.6925 -1.7839 -2.4521
  841MOL0     H13529   8.420   2.567   9.022  0.3303 -0.3342 -0.0244
  841MOL0     H13530   8.390   2.391   8.992  0.2647  0.0891 -0.7338
  841MOL0     H13531   8.234   2.495   9.379 -1.6884  0.0369 -0.2771
  841MOL0     H13532   9.038   2.434   9.089  1.3866  1.9599  0.0844
  841MOL0     H13533   9.381   2.413   9.124 -2.8395 -1.2384  3.2707
  841MOL0     H13534   9.339   2.587   9.087 -1.5876  0.8012 -0.3780
  841MOL0     H13535   9.252   2.473   9.196  0.5818  1.3550  0.0424
  842MOL0     O13536   3.730  10.819   9.236 -0.4689 -0.6518  0.6932
  842MOL0     C13537   3.753  10.888   9.335 -0.4327 -0.0046  0.7099
  842MOL0     O13538   3.724  11.025   9.342 -1.1846  0.1191 -0.3600
  842MOL0     C13539   3.652  11.080   9.235 -0.3271  0.1376 -0.3286
  842MOL0     C13540   3.555  11.171   9.262  0.1871 -0.5932 -0.3026
  842MOL0     C13541   3.485  11.237   9.161  0.6265  0.1616 -0.2961
  842MOL0     C13542   3.519  11.208   9.030  0.4940  0.8406  0.3762
  842MOL0     O13543   3.447  11.262   8.923 -0.9320  0.4032  0.0607
  842MOL0     C13544   3.321  11.186   8.896 -0.5319 -0.3628  0.3153
  842MOL0     C13545   3.326  11.131   8.755 -0.2923  0.5813  0.1937
  842MOL0     C13546   3.197  11.054   8.709 -0.4812  0.6878  0.2038
  842MOL0     C13547   3.165  11.058   8.556  0.7774 -0.0681  0.0949
  842MOL0     C13548   3.276  10.979   8.484  0.6788 -0.8216 -0.3270
  842MOL0     C13549   3.256  11.004   8.323 -0.5234  0.6364  0.8462
  842MOL0     C13550   3.394  11.006   8.237  1.0629  0.6150  0.0331
  842MOL0     C13551   3.367  11.055   8.095 -0.8292  0.3150  0.0190
  842MOL0     N13552   3.502  11.066   8.022  0.4083  0.3925 -0.3330
  842MOL0     C13553   3.593  11.169   8.026 -0.2780  0.4983 -0.3408
  842MOL0     C13554   3.694  11.135   7.939 -0.4429  0.2589 -0.0997
  842MOL0     C13555   3.814  11.218   7.908  0.0518 -0.4484  0.1760
  842MOL0     C13556   3.768  11.288   7.785  0.1540 -0.6155 -0.7362
  842MOL0     C13557   3.885  11.349   7.713  0.0481 -0.0405  0.2054
  842MOL0     C13558   3.833  11.441   7.599  0.4704 -0.7192 -0.0181
  842MOL0     O13559   3.743  11.547   7.654  0.1056  0.8128  0.0960
  842MOL0     C13560   3.796  11.659   7.711 -0.9447 -0.8883 -0.0017
  842MOL0     C13561   3.933  11.690   7.717 -0.6999 -1.0471 -0.3423
  842MOL0     C13562   3.987  11.821   7.735  0.0398  0.1819 -0.3394
  842MOL0     C13563   3.893  11.926   7.751  0.1696  0.8373 -0.2513
  842MOL0     C13564   3.939  12.060   7.794  0.1855 -0.8298  0.4360
  842MOL0     O13565   4.064  12.074   7.820  0.1975  0.8093  0.7112
  842MOL0     C13566   4.112  12.197   7.845  1.5676  0.5106  0.3254
  842MOL0     C13567   4.110  12.248   7.975 -0.3103 -0.0503 -1.0500
  842MOL0     C13568   4.184  12.367   7.998  0.0560 -0.1536 -0.0200
  842MOL0     C13569   4.261  12.438   7.901 -0.1158  0.8535 -0.3230
  842MOL0     O13570   4.342  12.534   7.948 -0.3361  0.5970  0.0716
  842MOL0     C13571   4.464  12.560   7.888  0.8153 -0.4631  0.6498
  842MOL0     C13572   4.453  12.680   7.807  0.2440 -0.7863  0.6120
  842MOL0     C13573   4.351  12.789   7.849 -0.3287 -0.8729  0.0379
  842MOL0     C13574   4.308  12.872   7.729 -0.5137 -0.4820  0.0360
  842MOL0     C13575   4.183  12.952   7.735  0.4605 -0.2640 -0.5885
  842MOL0     C13576   4.182  13.051   7.859 -0.2648  0.6564 -0.3297
  842MOL0     C13577   4.080  13.166   7.841  0.6625  0.1485 -0.5284
  842MOL0     C13578   3.934  13.115   7.847  0.2647  0.7769  0.1111
  842MOL0    Cl13579   3.871  13.025   7.692 -0.6824  0.3054  0.1157
  842MOL0     C13580   4.254  12.385   7.766  0.6590  1.2820 -0.4154
  842MOL0     C13581   4.175  12.268   7.744 -0.0175  0.3226  0.2324
  842MOL0     O13582   3.858  12.150   7.798  0.0053 -0.6000 -0.0179
  842MOL0     C13583   3.753  11.893   7.747 -1.5246  0.5955 -0.3033
  842MOL0     C13584   3.705  11.758   7.727  0.0027  0.9682  0.1465
  842MOL0     N13585   3.654  11.009   7.887  0.1425  0.6539  0.8479
  842MOL0     N13586   3.535  10.983   7.927  0.1863  0.4992 -1.5878
  842MOL0     C13587   3.629  11.129   9.006  0.0302 -0.2259  0.6500
  842MOL0     C13588   3.699  11.066   9.103  0.4495  0.6696 -0.9152
  842MOL0     C13589   3.789  10.812   9.456  0.5170 -0.2786 -0.6621
  842MOL0     C13590   3.801  10.676   9.455  0.5469 -0.4944  0.3237
  842MOL0     C13591   3.818  10.603   9.570  0.1075  1.0932  0.4968
  842MOL0     C13592   3.827  10.661   9.699 -0.5707 -0.4008 -0.1414
  842MOL0     O13593   3.840  10.580   9.812  0.4534  0.6766 -0.0205
  842MOL0     C13594   3.725  10.586   9.896 -0.5047  0.1143  0.2656
  842MOL0     C13595   3.594  10.541   9.825  0.6206  0.8647 -0.2969
  842MOL0     C13596   3.465  10.527   9.916  0.1369 -0.1128  0.4808
  842MOL0     C13597   3.334  10.471   9.866 -0.1482  1.0393  0.3683
  842MOL0     C13598   3.330  10.332   9.832 -0.2613 -0.1708  0.6516
  842MOL0     C13599   3.323  10.216   9.810  0.5166 -0.2133  0.9776
  842MOL0     C13600   3.811  10.801   9.703 -0.3400  0.7727 -0.3982
  842MOL0     C13601   3.795  10.877   9.585 -0.1818  0.3390 -0.6732
  842MOL0     C13602   3.796  11.021   9.605  0.1924  0.2452 -0.6185
  842MOL0     H13603   3.534  11.199   9.364  0.9260 -1.9621  0.2418
  842MOL0     H13604   3.413  11.315   9.185  0.2158 -0.7078  1.4616
  842MOL0     H13605   3.304  11.105   8.968 -2.3354  0.2563  0.6446
  842MOL0     H13606   3.232  11.248   8.910 -1.3769 -1.7356  1.3424
  842MOL0     H13607   3.415  11.068   8.755  1.0814  2.4298  0.4862
  842MOL0     H13608   3.343  11.210   8.681 -1.0620 -2.2153 -3.2028
  842MOL0     H13609   3.106  11.088   8.759  1.6357  1.2268  4.0835
  842MOL0     H13610   3.207  10.949   8.740 -1.0349  0.1692 -1.2921
  842MOL0     H13611   3.068  11.011   8.541  0.3737  0.8545 -0.2332
  842MOL0     H13612   3.165  11.165   8.533  1.2349 -0.0606  0.1229
  842MOL0     H13613   3.370  11.019   8.524 -0.2069  2.5818 -1.3358
  842MOL0     H13614   3.259  10.876   8.518  0.8143  0.2793  3.5518
  842MOL0     H13615   3.186  10.935   8.275  0.1920 -0.3690  1.2035
  842MOL0     H13616   3.206  11.100   8.311 -1.8970  0.2425  2.7800
  842MOL0     H13617   3.433  10.904   8.236 -0.3011 -0.0192  2.6956
  842MOL0     H13618   3.466  11.074   8.285  0.1933 -0.1734  2.6497
  842MOL0     H13619   3.313  10.972   8.048  0.3847  0.4620 -1.7235
  842MOL0     H13620   3.316  11.151   8.109  1.2750  1.4046  0.5760
  842MOL0     H13621   3.588  11.250   8.098 -2.6014  0.1732 -0.0570
  842MOL0     H13622   3.833  11.287   7.991  2.8022  3.2679 -3.1807
  842MOL0     H13623   3.904  11.162   7.881  3.2590  4.1443  0.1635
  842MOL0     H13624   3.727  11.215   7.714  0.3587  0.1793 -1.6864
  842MOL0     H13625   3.692  11.361   7.814  3.8857  2.3862  2.7464
  842MOL0     H13626   3.944  11.269   7.669 -0.6434 -0.4423 -0.0039
  842MOL0     H13627   3.948  11.400   7.787  1.0437 -1.3714  0.3099
  842MOL0     H13628   3.782  11.382   7.522  0.6459 -2.3290  1.0634
  842MOL0     H13629   3.917  11.490   7.549  0.1801 -0.1113  0.0770
  842MOL0     H13630   4.005  11.609   7.705  2.4640  1.2526  1.5474
  842MOL0     H13631   4.093  11.846   7.734  0.2045 -0.3093 -3.4360
  842MOL0     H13632   4.058  12.190   8.050 -0.4246  2.5310  1.0150
  842MOL0     H13633   4.166  12.398   8.101 -4.4326 -0.2480 -0.5561
  842MOL0     H13634   4.543  12.571   7.964 -0.4709  3.3157  1.6316
  842MOL0     H13635   4.488  12.471   7.829 -2.9152 -1.2126  0.0367
  842MOL0     H13636   4.552  12.727   7.808  0.5755 -1.4890  1.2734
  842MOL0     H13637   4.426  12.635   7.711  1.8873 -3.2689  1.2439
  842MOL0     H13638   4.258  12.736   7.868 -0.2788 -0.4378  1.5576
  842MOL0     H13639   4.391  12.846   7.933  0.2072  0.9295 -1.3680
  842MOL0     H13640   4.299  12.815   7.636 -3.4701  1.3193 -0.8860
  842MOL0     H13641   4.392  12.940   7.707 -1.9491  0.4326 -3.2847
  842MOL0     H13642   4.107  12.875   7.750  0.1760  0.5092  2.6511
  842MOL0     H13643   4.165  13.010   7.644 -2.8671 -1.9342 -1.1288
  842MOL0     H13644   4.160  12.989   7.947 -0.2521 -2.4001 -2.3003
  842MOL0     H13645   4.278  13.102   7.869 -1.0875  2.5353 -1.5011
  842MOL0     H13646   4.095  13.231   7.755 -2.4561  2.2621  0.3431
  842MOL0     H13647   4.094  13.234   7.926  1.1446  0.0831 -0.5507
  842MOL0     H13648   3.934  13.052   7.936  3.4065 -0.5947 -0.7095
  842MOL0     H13649   3.869  13.198   7.874 -0.4420  1.0846 -2.2896
  842MOL0     H13650   4.321  12.422   7.689 -1.0286  1.9869 -1.5992
  842MOL0     H13651   4.173  12.226   7.644  4.3061  1.6258 -0.5821
  842MOL0     H13652   3.686  11.974   7.773  0.5540  1.5492  2.6934
  842MOL0     H13653   3.598  11.737   7.732  0.4261 -1.0922  1.4578
  842MOL0     H13654   3.673  11.143   8.907 -1.1123  2.4162  0.4244
  842MOL0     H13655   3.792  11.015   9.077  0.0393 -1.4881  1.4357
  842MOL0     H13656   3.789  10.628   9.359 -1.7634 -1.2715  0.9393
  842MOL0     H13657   3.845  10.499   9.562 -0.0373  1.1994 -4.2199
  842MOL0     H13658   3.720  10.687   9.937 -2.3295  1.0733 -2.0445
  842MOL0     H13659   3.747  10.504   9.964  5.0092  0.3883 -0.7358
  842MOL0     H13660   3.611  10.447   9.771 -0.8768 -0.0368  0.7336
  842MOL0     H13661   3.578  10.617   9.747  1.0150  3.4675  2.0133
  842MOL0     H13662   3.448  10.627   9.958  2.0386 -0.4905  2.3862
  842MOL0     H13663   3.491  10.468  10.005  1.1631 -0.2729  0.0951
  842MOL0     H13664   3.267  10.472   9.953 -0.9344 -1.1467 -0.1502
  842MOL0     H13665   3.295  10.536   9.787 -3.4911 -0.6180  0.4491
  842MOL0     H13666   3.323  10.111   9.786  1.8175 -0.0203  0.0445
  842MOL0     H13667   3.819  10.826   9.808 -0.2815  0.6100 -0.3645
  842MOL0     H13668   3.869  11.065   9.537 -0.4874  2.5720  0.0603
  842MOL0     H13669   3.693  11.054   9.586 -0.2496  0.0367  1.2380
  842MOL0     H13670   3.817  11.058   9.706 -2.3595  1.8389 -0.5817
  843MOL0     O13671  11.201   9.983   7.290 -0.3520  0.2940 -0.5158
  843MOL0     C13672  11.265  10.053   7.374 -1.2956  0.3680 -0.6665
  843MOL0     O13673  11.233  10.181   7.415 -0.1296 -0.5704 -0.2012
  843MOL0     C13674  11.137  10.250   7.349  0.0282  0.4142 -0.3491
  843MOL0     C13675  11.184  10.363   7.280  0.1292 -0.7995 -0.3493
  843MOL0     C13676  11.092  10.450   7.217 -0.4332 -0.0862 -0.0684
  843MOL0     C13677  10.953  10.425   7.240 -0.1045  0.2915 -0.8077
  843MOL0     O13678  10.864  10.516   7.197 -0.4981 -0.7053  0.1625
  843MOL0     C13679  10.870  10.542   7.054  0.7380  0.9329  0.2671
  843MOL0     C13680  10.782  10.660   7.011 -0.9809  0.0039  0.4984
  843MOL0     C13681  10.742  10.658   6.863  1.1117 -0.4378  0.2006
  843MOL0     C13682  10.670  10.538   6.812 -0.5776  0.0603  0.3400
  843MOL0     C13683  10.611  10.568   6.674  0.5067 -0.6967 -0.7565
  843MOL0     C13684  10.728  10.567   6.578  0.2723 -0.1480 -0.1994
  843MOL0     C13685  10.703  10.580   6.427 -0.5832  1.0118  0.5799
  843MOL0     C13686  10.697  10.462   6.330  0.3358 -0.0430  0.7300
  843MOL0     N13687  10.801  10.360   6.327  1.1030  0.3452 -1.0850
  843MOL0     C13688  10.922  10.378   6.270 -1.1613 -0.1020  0.3836
  843MOL0     C13689  10.988  10.258   6.271  0.1234  0.5541  0.0335
  843MOL0     C13690  11.118  10.222   6.210 -0.5432  0.8702 -0.1298
  843MOL0     C13691  11.199  10.330   6.130  0.5678 -0.4980  0.0465
  843MOL0     C13692  11.250  10.436   6.227 -0.5730  0.7079 -0.6541
  843MOL0     C13693  11.314  10.555   6.152 -1.0548  0.1921  0.4660
  843MOL0     O13694  11.403  10.505   6.049  0.0102 -0.3995  0.3223
  843MOL0     C13695  11.499  10.584   5.988  0.1410 -0.3846 -0.4152
  843MOL0     C13696  11.482  10.720   5.995  0.1065  0.3955  0.2703
  843MOL0     C13697  11.577  10.810   5.930 -0.1016  0.4101  0.1286
  843MOL0     C13698  11.690  10.754   5.866  0.9625  0.4525  0.6963
  843MOL0     C13699  11.787  10.851   5.797 -0.5110 -0.4199 -1.2370
  843MOL0     O13700  11.904  10.786   5.758  0.3213  0.0983 -0.2009
  843MOL0     C13701  12.020  10.846   5.726 -0.3841 -0.0144  0.0448
  843MOL0     C13702  12.057  10.970   5.779 -0.1069  0.9463 -0.0973
  843MOL0     C13703  12.171  11.035   5.734 -0.0514 -0.0854 -0.3019
  843MOL0     C13704  12.261  10.970   5.649 -1.0849  0.3212  0.7269
  843MOL0     O13705  12.380  11.035   5.611 -0.2816 -0.8712  0.1071
  843MOL0     C13706  12.497  10.962   5.569 -0.3578 -0.5919 -0.3140
  843MOL0     C13707  12.597  11.052   5.493 -0.7181  1.0796 -0.8249
  843MOL0     C13708  12.532  11.121   5.383  1.2216 -0.1928  1.2011
  843MOL0     C13709  12.619  11.119   5.255  1.0803 -0.3315 -0.9658
  843MOL0     C13710  12.720  11.234   5.264  0.2247  0.3764 -0.4137
  843MOL0     C13711  12.811  11.244   5.146  0.6583 -0.5514  0.3686
  843MOL0     C13712  12.916  11.362   5.165  1.1955  0.8741  0.3669
  843MOL0     C13713  13.000  11.372   5.040 -0.4661 -0.4805  0.7030
  843MOL0    Cl13714  13.132  11.256   5.069 -0.2032 -0.0547 -0.1307
  843MOL0     C13715  12.221  10.848   5.594 -0.3032  0.2656 -0.0496
  843MOL0     C13716  12.107  10.788   5.634  0.5679  0.5574  0.3167
  843MOL0     O13717  11.772  10.980   5.797 -0.1835  0.1137 -0.1465
  843MOL0     C13718  11.696  10.610   5.862  0.6754 -0.1581  0.5051
  843MOL0     C13719  11.598  10.529   5.911  0.1493 -1.9702  0.0077
  843MOL0     N13720  10.901  10.170   6.344  0.4855  0.3982 -0.8875
  843MOL0     N13721  10.792  10.232   6.368  0.4365 -0.3769 -0.2381
  843MOL0     C13722  10.913  10.312   7.303 -0.4216  0.1655 -0.1185
  843MOL0     C13723  11.002  10.223   7.354 -0.0213  0.1704 -0.4392
  843MOL0     C13724  11.377   9.991   7.442  0.2020 -0.6050 -0.4035
  843MOL0     C13725  11.386  10.022   7.576  0.5428  0.2823 -1.3181
  843MOL0     C13726  11.491   9.980   7.664  0.0168  0.2263 -0.5849
  843MOL0     C13727  11.612   9.931   7.610 -0.0479  0.2798 -0.5166
  843MOL0     O13728  11.723   9.890   7.685 -0.0205  0.3515  1.2122
  843MOL0     C13729  11.703   9.856   7.820  0.2856 -0.1493  0.5655
  843MOL0     C13730  11.721   9.980   7.913 -0.5616 -0.1784 -0.2616
  843MOL0     C13731  11.637   9.948   8.044  0.1996  0.1736 -0.2133
  843MOL0     C13732  11.633  10.067   8.135  0.0749 -0.0304 -0.2649
  843MOL0     C13733  11.580  10.019   8.266  0.4160  0.1914  0.1583
  843MOL0     C13734  11.538   9.979   8.374  0.6512 -1.0186 -0.6307
  843MOL0     C13735  11.606   9.898   7.476 -0.0369  0.8474 -0.7512
  843MOL0     C13736  11.487   9.919   7.388 -0.1495  0.0980  0.1252
  843MOL0     C13737  11.473   9.868   7.255 -0.0844 -0.1287  0.5300
  843MOL0     H13738  11.291  10.382   7.270  0.0064 -0.2376 -0.6215
  843MOL0     H13739  11.119  10.543   7.169 -0.4603  0.3020  0.6495
  843MOL0     H13740  10.970  10.571   7.020  0.7466 -1.0555 -1.6334
  843MOL0     H13741  10.834  10.452   7.003  0.4688 -0.5100  2.8226
  843MOL0     H13742  10.841  10.751   7.029  2.7197 -2.1812  0.5291
  843MOL0     H13743  10.692  10.659   7.073  0.0074 -0.7749  1.9738
  843MOL0     H13744  10.832  10.674   6.803  0.9741 -1.7262 -0.3700
  843MOL0     H13745  10.675  10.742   6.841 -0.1595 -2.0183 -2.4133
  843MOL0     H13746  10.741  10.455   6.803  0.7418  1.0954  1.0471
  843MOL0     H13747  10.596  10.505   6.886  0.4205 -3.2247  0.0666
  843MOL0     H13748  10.533  10.498   6.644  1.6669 -2.4169  0.0967
  843MOL0     H13749  10.561  10.665   6.668 -2.4091 -2.1408 -1.8504
  843MOL0     H13750  10.791  10.654   6.601  0.0679 -0.0433 -0.0347
  843MOL0     H13751  10.797  10.483   6.594  1.0772  1.0282  3.3927
  843MOL0     H13752  10.787  10.639   6.389  0.6417 -1.3657 -0.6422
  843MOL0     H13753  10.606  10.624   6.403 -0.4996  1.6110  1.3167
  843MOL0     H13754  10.603  10.407   6.340 -0.6749  1.6755  1.0053
  843MOL0     H13755  10.698  10.497   6.226  0.3720 -2.1342 -0.0158
  843MOL0     H13756  10.959  10.465   6.216 -0.1191  0.7118  2.3361
  843MOL0     H13757  11.182  10.180   6.288  1.0905 -0.3356 -2.0244
  843MOL0     H13758  11.102  10.143   6.137  2.4781  0.1896 -0.1926
  843MOL0     H13759  11.281  10.269   6.090 -1.0268 -1.2264 -2.3217
  843MOL0     H13760  11.152  10.378   6.044  0.6680 -2.1320 -0.9510
  843MOL0     H13761  11.334  10.389   6.279  3.4658  2.3295 -4.9773
  843MOL0     H13762  11.180  10.473   6.302  0.9303  1.1018  0.6164
  843MOL0     H13763  11.368  10.614   6.226  0.3797 -1.4352  0.7803
  843MOL0     H13764  11.237  10.616   6.103 -0.8417  0.3541  0.3315
  843MOL0     H13765  11.399  10.764   6.049  1.0950  1.9382  0.6031
  843MOL0     H13766  11.564  10.918   5.933 -2.6286  0.1557  0.5043
  843MOL0     H13767  12.007  11.028   5.856 -0.7548 -1.4095  1.3509
  843MOL0     H13768  12.194  11.125   5.790 -0.0082 -2.4191  3.9133
  843MOL0     H13769  12.538  10.904   5.652 -3.1344 -0.9240  0.9487
  843MOL0     H13770  12.469  10.891   5.491  1.0061 -0.2474 -1.1529
  843MOL0     H13771  12.645  11.121   5.563  2.6369 -1.8351  0.0477
  843MOL0     H13772  12.681  10.993   5.455  2.8705  5.1962 -0.0733
  843MOL0     H13773  12.434  11.080   5.358  2.2763 -1.2903 -1.4275
  843MOL0     H13774  12.514  11.227   5.405 -2.7445  0.2282 -2.6339
  843MOL0     H13775  12.543  11.126   5.177  0.1998  0.2287 -0.0812
  843MOL0     H13776  12.670  11.023   5.245 -0.4124 -1.3996  0.9133
  843MOL0     H13777  12.784  11.227   5.352 -2.7544  0.8939  1.9707
  843MOL0     H13778  12.675  11.333   5.274  0.0111  0.1801  0.7193
  843MOL0     H13779  12.870  11.152   5.143  2.7137  0.6954 -2.5808
  843MOL0     H13780  12.750  11.255   5.055  0.1789 -1.5831  0.5544
  843MOL0     H13781  12.982  11.353   5.252  0.4769  0.2256  0.8533
  843MOL0     H13782  12.879  11.464   5.159 -1.2656  0.0361  0.4617
  843MOL0     H13783  12.950  11.338   4.949  4.0285 -0.7473 -1.9602
  843MOL0     H13784  13.051  11.469   5.033 -0.0425 -0.7993 -1.4708
  843MOL0     H13785  12.292  10.803   5.525  1.9605 -1.7463  3.2710
  843MOL0     H13786  12.060  10.700   5.593  2.9459 -0.6449  0.0251
  843MOL0     H13787  11.775  10.576   5.796 -1.3969 -1.4617 -1.4781
  843MOL0     H13788  11.612  10.421   5.907  3.2187 -1.6485 -1.5459
  843MOL0     H13789  10.808  10.297   7.326 -0.6497  0.8215 -0.7055
  843MOL0     H13790  10.970  10.136   7.411  0.7592  1.0334  1.4251
  843MOL0     H13791  11.313  10.086   7.625  0.4214 -0.8496  0.0188
  843MOL0     H13792  11.475   9.978   7.771 -1.1227 -1.9253 -0.7392
  843MOL0     H13793  11.777   9.785   7.859  1.5873  1.9076  2.0485
  843MOL0     H13794  11.606   9.810   7.840 -0.3767  1.7007  1.9234
  843MOL0     H13795  11.677  10.071   7.872 -3.1904 -0.6612  1.2772
  843MOL0     H13796  11.829   9.992   7.926 -0.1760 -0.0055 -2.9553
  843MOL0     H13797  11.690   9.866   8.094  1.6266 -0.9745 -3.3266
  843MOL0     H13798  11.533   9.926   8.017 -0.8829  2.4409  1.7725
  843MOL0     H13799  11.732  10.101   8.167 -0.7463  0.3506  2.0465
  843MOL0     H13800  11.568  10.147   8.097  0.1889 -0.0640 -0.5302
  843MOL0     H13801  11.509   9.940   8.470  1.3477 -3.0257 -1.1791
  843MOL0     H13802  11.695   9.851   7.435  0.7108 -0.8484  2.4688
  843MOL0     H13803  11.380   9.812   7.246  0.2123 -0.2859 -2.3480
  843MOL0     H13804  11.479   9.953   7.187 -0.6119  1.6026  2.5149
  843MOL0     H13805  11.557   9.799   7.244 -0.4796 -0.9972  2.4681
  844MOL0     O13806   4.152   3.672   0.349  0.0754  0.1590 -0.4807
  844MOL0     C13807   4.244   3.750   0.362  0.5688  0.3604  0.3634
  844MOL0     O13808   4.268   3.825   0.466  0.2962 -1.3710  0.4794
  844MOL0     C13809   4.166   3.833   0.562  0.4827 -0.1991 -0.1245
  844MOL0     C13810   4.202   3.824   0.697 -0.1825 -0.4944 -0.6904
  844MOL0     C13811   4.105   3.817   0.799  0.2179  0.4511 -0.3094
  844MOL0     C13812   3.970   3.837   0.778  0.7010  0.9778  0.1242
  844MOL0     O13813   3.875   3.838   0.882 -1.4486  0.4628 -0.0805
  844MOL0     C13814   3.925   3.840   1.021 -0.2696 -0.4197  0.6968
  844MOL0     C13815   3.813   3.829   1.110 -0.2936 -0.2827 -0.9304
  844MOL0     C13816   3.866   3.788   1.251 -0.0911 -0.9044 -0.6689
  844MOL0     C13817   3.741   3.772   1.343 -0.0609  0.5631 -0.1232
  844MOL0     C13818   3.770   3.755   1.496 -0.7376 -0.8547  0.0848
  844MOL0     C13819   3.650   3.705   1.590 -0.0966 -0.3861  1.3928
  844MOL0     C13820   3.612   3.563   1.554  0.2324 -0.2398 -0.3510
  844MOL0     C13821   3.508   3.494   1.641 -0.7535 -0.0766  0.4337
  844MOL0     N13822   3.494   3.357   1.587  0.1995  0.1469  0.2555
  844MOL0     C13823   3.591   3.258   1.590 -0.4454  0.1574  0.4210
  844MOL0     C13824   3.542   3.154   1.526  0.2788  0.2245 -0.4915
  844MOL0     C13825   3.602   3.021   1.476 -0.1711 -0.7297 -0.3193
  844MOL0     C13826   3.667   2.937   1.586 -0.7167 -0.4355 -0.4575
  844MOL0     C13827   3.730   2.797   1.556 -0.0124 -0.4828  0.4212
  844MOL0     C13828   3.859   2.813   1.469  0.2818  0.5226 -0.7277
  844MOL0     O13829   3.932   2.694   1.447 -0.1182 -0.5651 -0.6249
  844MOL0     C13830   4.010   2.636   1.543 -0.3388  0.0103 -0.0486
  844MOL0     C13831   4.020   2.688   1.672 -0.5666 -0.5595 -0.6485
  844MOL0     C13832   4.091   2.629   1.777 -0.2642  1.3608 -0.7112
  844MOL0     C13833   4.149   2.501   1.749  0.0899 -0.5913 -0.2456
  844MOL0     C13834   4.211   2.423   1.858  0.3122  0.1881  0.4124
  844MOL0     O13835   4.242   2.282   1.830  0.1185 -0.9993  0.0392
  844MOL0     C13836   4.321   2.210   1.922  0.2759 -0.8147  0.9277
  844MOL0     C13837   4.424   2.253   2.002  1.1939  1.3977  0.3590
  844MOL0     C13838   4.491   2.166   2.091  0.8456  0.4504 -0.0072
  844MOL0     C13839   4.471   2.031   2.086 -0.0093 -0.5756 -0.2236
  844MOL0     O13840   4.536   1.938   2.156  0.5007 -0.4363 -0.3700
  844MOL0     C13841   4.665   1.967   2.228 -0.4848 -0.9327 -0.0276
  844MOL0     C13842   4.735   1.828   2.260 -0.4782  0.5694  0.5724
  844MOL0     C13843   4.820   1.778   2.144 -0.1984 -0.2338  0.6863
  844MOL0     C13844   4.853   1.635   2.159  0.0180 -0.4017 -0.7974
  844MOL0     C13845   4.956   1.585   2.054 -1.0978  0.1788  0.8423
  844MOL0     C13846   4.970   1.438   2.063  0.3778  0.0679 -0.0684
  844MOL0     C13847   5.096   1.395   1.996 -0.5827 -0.9041 -0.5883
  844MOL0     C13848   5.133   1.249   2.016 -0.1389  0.4639  0.9298
  844MOL0    Cl13849   5.166   1.228   2.190 -0.0451  0.4185 -0.5338
  844MOL0     C13850   4.373   1.983   2.009  0.1494  0.3994  0.0958
  844MOL0     C13851   4.297   2.075   1.930  0.0434 -0.3974  0.4949
  844MOL0     O13852   4.225   2.483   1.966  0.1438  0.4321 -0.6449
  844MOL0     C13853   4.143   2.448   1.621  0.1859  0.6571  0.2808
  844MOL0     C13854   4.082   2.519   1.513 -0.8847  0.7445 -1.2344
  844MOL0     N13855   3.398   3.185   1.508 -0.4435  0.6478 -0.0053
  844MOL0     N13856   3.378   3.304   1.543 -0.3635  0.3905  0.1024
  844MOL0     C13857   3.933   3.846   0.649  0.4132  0.0139  1.3194
  844MOL0     C13858   4.022   3.840   0.538  1.2427 -0.7342 -0.3460
  844MOL0     C13859   4.320   3.776   0.236 -0.4108  0.5462  0.3176
  844MOL0     C13860   4.262   3.710   0.120  0.6254  0.3486 -0.3976
  844MOL0     C13861   4.307   3.746  -0.002 -0.1170 -0.5069  0.2731
  844MOL0     C13862   4.416   3.829  -0.014  0.1390  0.1821  0.5645
  844MOL0     O13863   4.455   3.841  -0.144 -0.0679  0.0680  0.1074
  844MOL0     C13864   4.588   3.820  -0.165 -0.0596 -0.0576  0.4541
  844MOL0     C13865   4.611   3.814  -0.312 -0.1688 -0.1506  0.5371
  844MOL0     C13866   4.514   3.723  -0.395 -0.4559 -0.4619  0.6555
  844MOL0     C13867   4.379   3.781  -0.420  0.2718  0.2203  0.0100
  844MOL0     C13868   4.372   3.922  -0.477 -0.0739  0.2972  0.7288
  844MOL0     C13869   4.374   4.025  -0.532 -0.9892 -0.1915 -0.1282
  844MOL0     C13870   4.476   3.896   0.090  0.8924  0.0314 -1.0484
  844MOL0     C13871   4.427   3.871   0.214 -0.1465  0.4139 -0.9025
  844MOL0     C13872   4.476   3.966   0.322  0.5343  0.0732 -0.1291
  844MOL0     H13873   4.310   3.821   0.713 -0.1379 -0.7599 -1.0195
  844MOL0     H13874   4.146   3.803   0.899  0.4727  0.3586 -0.4275
  844MOL0     H13875   3.991   3.753   1.032  1.3033  0.3460 -1.8475
  844MOL0     H13876   3.972   3.937   1.042 -1.9029  0.1422  2.0392
  844MOL0     H13877   3.750   3.753   1.063  1.5483 -1.6452 -1.3365
  844MOL0     H13878   3.763   3.926   1.114  0.2477 -0.0266  0.9372
  844MOL0     H13879   3.927   3.871   1.286  3.0662 -2.4162 -2.1891
  844MOL0     H13880   3.918   3.692   1.237 -3.4763 -2.6416 -2.7914
  844MOL0     H13881   3.677   3.860   1.331  0.2910  0.9376  0.6830
  844MOL0     H13882   3.686   3.686   1.305 -0.8045  0.4638  1.1138
  844MOL0     H13883   3.859   3.693   1.511  0.3871  0.4337 -0.9978
  844MOL0     H13884   3.791   3.858   1.528 -4.8751 -0.2644  1.3615
  844MOL0     H13885   3.691   3.721   1.690  1.8508  0.4707  0.5103
  844MOL0     H13886   3.575   3.783   1.571 -0.3487 -0.5445  1.7340
  844MOL0     H13887   3.710   3.517   1.568 -0.1196 -1.0882 -0.6368
  844MOL0     H13888   3.585   3.562   1.448  1.7157 -0.5334 -0.7517
  844MOL0     H13889   3.544   3.497   1.744  1.1855  1.5276 -0.2268
  844MOL0     H13890   3.406   3.534   1.639 -0.4427  1.0098  2.7466
  844MOL0     H13891   3.694   3.266   1.623 -0.5207  0.5499  0.5694
  844MOL0     H13892   3.516   2.962   1.441  0.6129 -2.5604  0.6899
  844MOL0     H13893   3.661   3.040   1.386 -0.2988  1.2674 -0.0240
  844MOL0     H13894   3.750   2.995   1.627 -0.4061 -2.1724  1.5275
  844MOL0     H13895   3.594   2.918   1.666 -0.6660 -0.9849 -0.5392
  844MOL0     H13896   3.660   2.721   1.520  2.6361 -1.4537 -3.2044
  844MOL0     H13897   3.782   2.753   1.642 -1.1448 -0.4005  1.1600
  844MOL0     H13898   3.918   2.896   1.512  0.9648  0.5901 -1.7638
  844MOL0     H13899   3.822   2.861   1.378 -1.0392  1.5717  0.3076
  844MOL0     H13900   3.975   2.780   1.707  0.5195 -0.6135  1.0037
  844MOL0     H13901   4.124   2.669   1.873  0.9056 -2.0902  0.4764
  844MOL0     H13902   4.450   2.359   2.002  0.1948  1.6551 -0.0243
  844MOL0     H13903   4.564   2.217   2.153  1.2581  2.3765 -1.9649
  844MOL0     H13904   4.727   2.022   2.157 -1.6058  0.3457 -0.0668
  844MOL0     H13905   4.637   2.028   2.314 -0.5448  3.5886 -2.8558
  844MOL0     H13906   4.791   1.851   2.351  0.9860 -0.1858 -0.1154
  844MOL0     H13907   4.670   1.744   2.285  1.9386 -1.9437 -1.0473
  844MOL0     H13908   4.769   1.794   2.048  2.4298  0.4572 -0.7138
  844MOL0     H13909   4.912   1.836   2.133 -1.9331  2.6151  0.2882
  844MOL0     H13910   4.761   1.575   2.155 -0.5604  0.4566 -0.6631
  844MOL0     H13911   4.902   1.639   2.256 -0.1745  3.2913 -0.7258
  844MOL0     H13912   5.044   1.638   2.091 -2.2589  1.8033  1.4309
  844MOL0     H13913   4.936   1.622   1.954 -3.3546 -4.5264 -0.7683
  844MOL0     H13914   4.975   1.408   2.168  2.1062 -2.3642 -0.7361
  844MOL0     H13915   4.884   1.388   2.017  0.2491 -1.2331  1.4622
  844MOL0     H13916   5.178   1.444   2.049 -2.1367 -0.0665  1.1280
  844MOL0     H13917   5.083   1.421   1.891  2.1688  0.7522 -0.6056
  844MOL0     H13918   5.040   1.199   1.988 -0.1430  0.5517  0.7861
  844MOL0     H13919   5.230   1.233   1.968 -0.1226 -1.8680  1.6142
  844MOL0     H13920   4.349   1.878   2.012  0.3692  0.1895 -2.6067
  844MOL0     H13921   4.221   2.027   1.869  2.3129 -2.2274 -1.0604
  844MOL0     H13922   4.194   2.361   1.581  1.8823  1.0041  1.5982
  844MOL0     H13923   4.078   2.477   1.412  0.0660  1.4492 -1.5852
  844MOL0     H13924   3.828   3.856   0.622  1.1356  3.2251 -1.0730
  844MOL0     H13925   3.978   3.844   0.439  0.4761  0.7635  0.0177
  844MOL0     H13926   4.168   3.658   0.131 -0.5960  1.8371 -2.8718
  844MOL0     H13927   4.256   3.702  -0.088  0.4513  0.7707 -0.7512
  844MOL0     H13928   4.619   3.728  -0.115  0.4671 -0.5809 -0.7785
  844MOL0     H13929   4.645   3.900  -0.116  3.1959 -2.5601  1.1705
  844MOL0     H13930   4.707   3.761  -0.319 -0.0644 -0.1377  1.7078
  844MOL0     H13931   4.620   3.915  -0.353 -0.1204 -0.0724  0.7367
  844MOL0     H13932   4.501   3.633  -0.334 -1.5193  1.2587  3.1591
  844MOL0     H13933   4.554   3.694  -0.493 -1.4033  0.5309 -0.0405
  844MOL0     H13934   4.335   3.717  -0.497 -0.4144 -1.5284  1.7668
  844MOL0     H13935   4.321   3.765  -0.329  1.2102 -0.3306  0.5330
  844MOL0     H13936   4.379   4.118  -0.585 -1.5906 -0.3692 -0.5006
  844MOL0     H13937   4.557   3.967   0.072 -0.8725  1.7721 -2.5411
  844MOL0     H13938   4.483   4.068   0.285 -2.2026  0.3330 -0.1074
  844MOL0     H13939   4.416   3.986   0.412 -0.4183  1.7381 -1.0812
  844MOL0     H13940   4.573   3.927   0.357  0.6556  0.2298 -0.2885
  845MOL0     O13941   7.883   1.582   2.536  0.6190  1.1256 -0.8351
  845MOL0     C13942   7.957   1.590   2.632 -0.4357 -0.6318  0.2160
  845MOL0     O13943   8.083   1.650   2.638 -0.7928 -0.6079 -0.4604
  845MOL0     C13944   8.137   1.713   2.524 -0.2775 -0.2397 -0.0997
  845MOL0     C13945   8.192   1.633   2.424 -0.1066  0.2226  0.1978
  845MOL0     C13946   8.257   1.688   2.310 -0.7222 -0.7704 -0.1959
  845MOL0     C13947   8.251   1.821   2.285  1.0937 -1.3994  0.3439
  845MOL0     O13948   8.279   1.885   2.163  0.6651  0.1723  0.3886
  845MOL0     C13949   8.322   1.810   2.047  0.3996 -0.9625 -0.7447
  845MOL0     C13950   8.285   1.885   1.926  0.2454  0.6506 -0.3491
  845MOL0     C13951   8.318   1.795   1.809  0.1648 -0.2117  0.5984
  845MOL0     C13952   8.215   1.799   1.696 -0.6785  0.1393  0.6237
  845MOL0     C13953   8.273   1.709   1.588  0.8067 -0.0805  0.2047
  845MOL0     C13954   8.189   1.744   1.461 -0.6593  0.3535  1.3193
  845MOL0     C13955   8.233   1.664   1.339 -0.2263 -0.8390 -0.2319
  845MOL0     C13956   8.326   1.739   1.238  0.4861 -0.7555  0.0106
  845MOL0     N13957   8.436   1.826   1.287 -0.4467  0.3028 -0.1144
  845MOL0     C13958   8.564   1.787   1.325 -0.4334  0.2926 -0.1636
  845MOL0     C13959   8.627   1.889   1.389 -0.0270  0.3695  0.3909
  845MOL0     C13960   8.768   1.903   1.427 -1.0444  0.3649 -0.9995
  845MOL0     C13961   8.795   1.950   1.569 -0.4164 -0.4672  0.2140
  845MOL0     C13962   8.757   2.093   1.615  0.5672 -0.5804 -0.7175
  845MOL0     C13963   8.841   2.191   1.529 -0.3463  0.4722 -0.5632
  845MOL0     O13964   8.843   2.320   1.596  0.1318  0.1481  0.3095
  845MOL0     C13965   8.961   2.361   1.648  0.7178  0.0921  0.7461
  845MOL0     C13966   8.958   2.429   1.765 -0.1765 -0.2709 -0.3088
  845MOL0     C13967   9.085   2.459   1.826  0.0038 -0.2862  0.3550
  845MOL0     C13968   9.213   2.432   1.773  0.1338  0.8135  0.1623
  845MOL0     C13969   9.340   2.478   1.845  1.0106 -0.5670 -0.2996
  845MOL0     O13970   9.331   2.579   1.936 -0.0406  0.2335 -0.3535
  845MOL0     C13971   9.446   2.629   1.998 -0.5320  1.0158 -0.4280
  845MOL0     C13972   9.461   2.768   2.026 -0.3320 -0.2766  0.0374
  845MOL0     C13973   9.574   2.821   2.083 -0.5895  0.3868  0.2126
  845MOL0     C13974   9.672   2.733   2.140  1.2288  0.5305 -0.5863
  845MOL0     O13975   9.767   2.807   2.213  0.9364  0.0428  0.1564
  845MOL0     C13976   9.802   2.749   2.341  0.8250 -0.2308 -0.0540
  845MOL0     C13977   9.843   2.850   2.448 -0.2576  0.6567  0.1110
  845MOL0     C13978   9.880   2.779   2.581  0.2022 -0.1409  0.1893
  845MOL0     C13979   9.869   2.878   2.698  0.3387 -0.0866  0.1195
  845MOL0     C13980   9.946   3.010   2.661 -0.6581  1.0974  0.0190
  845MOL0     C13981   9.946   3.098   2.787 -0.6440 -1.2853 -0.3193
  845MOL0     C13982   9.812   3.153   2.849  0.3939  0.5069  0.3278
  845MOL0     C13983   9.709   3.182   2.732  0.1719  0.3781 -0.9430
  845MOL0    Cl13984   9.769   3.309   2.629 -0.3699 -0.4064 -0.2309
  845MOL0     C13985   9.655   2.598   2.127  0.5067  0.6549 -0.2349
  845MOL0     C13986   9.548   2.539   2.054 -0.3814 -0.2720  0.1035
  845MOL0     O13987   9.446   2.429   1.809 -0.0771  0.1984 -0.2308
  845MOL0     C13988   9.214   2.374   1.646 -0.9753 -0.1994 -0.7828
  845MOL0     C13989   9.092   2.334   1.587 -0.3253  0.2996 -0.1360
  845MOL0     N13990   8.531   1.992   1.394  0.9225 -1.2848  0.8866
  845MOL0     N13991   8.419   1.951   1.337  0.0534  0.7258 -0.7074
  845MOL0     C13992   8.198   1.900   2.387  1.1545 -0.4330  1.1553
  845MOL0     C13993   8.134   1.852   2.500  0.2755  0.8431 -1.4224
  845MOL0     C13994   7.904   1.560   2.765  0.0354  0.0752  0.8667
  845MOL0     C13995   7.791   1.629   2.802  0.8419  0.0964  0.4197
  845MOL0     C13996   7.731   1.617   2.928  0.3607  0.2818 -0.4968
  845MOL0     C13997   7.776   1.508   3.006  0.6328 -0.6698 -0.4546
  845MOL0     O13998   7.714   1.460   3.122 -0.1535 -0.1315  0.6271
  845MOL0     C13999   7.719   1.548   3.231 -0.6217  0.0348 -0.7743
  845MOL0     C14000   7.714   1.471   3.372 -0.0490 -0.2779  0.3415
  845MOL0     C14001   7.851   1.470   3.432 -0.7347 -0.0031 -0.0128
  845MOL0     C14002   7.853   1.423   3.573  0.7772 -0.2002 -0.5497
  845MOL0     C14003   7.989   1.419   3.638 -0.8098  0.0983  0.1216
  845MOL0     C14004   8.091   1.416   3.707 -0.4551 -0.5027 -0.1745
  845MOL0     C14005   7.886   1.437   2.963 -0.4171 -0.3075 -0.0146
  845MOL0     C14006   7.952   1.463   2.851  0.6149 -0.5042 -0.3495
  845MOL0     C14007   8.078   1.389   2.832 -0.2050  0.7811 -0.2862
  845MOL0     H14008   8.179   1.525   2.419 -0.5349  0.3242 -1.4376
  845MOL0     H14009   8.284   1.616   2.234 -2.1124  0.7514 -2.2668
  845MOL0     H14010   8.430   1.803   2.035  0.4676  1.3943 -2.1617
  845MOL0     H14011   8.275   1.712   2.050  1.3026 -1.3924 -0.0579
  845MOL0     H14012   8.350   1.973   1.927  1.0719  0.0552  0.4358
  845MOL0     H14013   8.179   1.913   1.927 -0.7925 -2.6903 -1.2294
  845MOL0     H14014   8.317   1.692   1.844  1.8698  0.3799  2.6938
  845MOL0     H14015   8.419   1.815   1.772  0.2037 -1.3670  0.0568
  845MOL0     H14016   8.121   1.761   1.736 -1.8591  0.8977 -1.3145
  845MOL0     H14017   8.207   1.899   1.651 -1.6203 -1.5900 -3.4952
  845MOL0     H14018   8.379   1.728   1.569  0.1655  1.6123 -2.2291
  845MOL0     H14019   8.261   1.610   1.632 -1.5528  0.9944  2.1876
  845MOL0     H14020   8.088   1.714   1.488 -1.3329  1.4019  0.0831
  845MOL0     H14021   8.183   1.853   1.448 -2.0326  0.1031 -0.6020
  845MOL0     H14022   8.143   1.636   1.283  0.7544 -1.7366 -1.4273
  845MOL0     H14023   8.285   1.573   1.371  1.6049  0.2366 -0.0212
  845MOL0     H14024   8.366   1.672   1.161  3.8116  3.6254 -2.5531
  845MOL0     H14025   8.263   1.807   1.180 -0.0939 -0.6477  0.7562
  845MOL0     H14026   8.616   1.694   1.301  2.3112  2.0837 -1.7001
  845MOL0     H14027   8.824   1.809   1.424 -0.6749  0.5466 -0.0709
  845MOL0     H14028   8.816   1.972   1.356 -1.2516  0.9839 -0.5487
  845MOL0     H14029   8.737   1.880   1.631 -1.3707  0.7874  0.7825
  845MOL0     H14030   8.899   1.937   1.601 -0.6891 -2.0610  0.5587
  845MOL0     H14031   8.780   2.105   1.721 -0.6720 -2.4697 -0.1815
  845MOL0     H14032   8.652   2.120   1.604  0.6628  0.4340  0.6115
  845MOL0     H14033   8.791   2.208   1.434 -0.6073 -0.2622 -0.5652
  845MOL0     H14034   8.938   2.143   1.516 -1.2276 -2.2853  1.8578
  845MOL0     H14035   8.866   2.449   1.819  1.5633  4.0351  1.5612
  845MOL0     H14036   9.094   2.529   1.909  3.7839  0.7698 -0.7697
  845MOL0     H14037   9.383   2.837   1.994 -2.5009 -1.8070  1.7512
  845MOL0     H14038   9.582   2.928   2.095 -1.8973  1.0026 -3.2966
  845MOL0     H14039   9.716   2.693   2.378  0.5726 -0.6587 -1.2447
  845MOL0     H14040   9.878   2.671   2.333 -2.2042 -3.5606  1.0884
  845MOL0     H14041   9.932   2.904   2.413  1.2718 -1.0940  1.1291
  845MOL0     H14042   9.763   2.924   2.460 -0.4323  0.6088 -0.7247
  845MOL0     H14043   9.808   2.697   2.587 -1.9109  1.6259  0.2399
  845MOL0     H14044   9.977   2.730   2.571  0.3915  0.2179  0.2791
  845MOL0     H14045   9.913   2.844   2.792  1.3102  2.1542  0.5432
  845MOL0     H14046   9.764   2.896   2.721 -0.6742 -0.9241 -3.2919
  845MOL0     H14047   9.897   3.059   2.576 -1.2026  0.8847  0.2026
  845MOL0     H14048  10.050   2.993   2.635  0.2658 -0.5638  4.0392
  845MOL0     H14049  10.007   3.054   2.866 -0.7056 -3.8530 -1.5934
  845MOL0     H14050   9.999   3.188   2.756  1.8914 -1.8653  1.9627
  845MOL0     H14051   9.823   3.241   2.912 -0.0130 -0.1729  1.3671
  845MOL0     H14052   9.780   3.071   2.914 -0.3094 -1.2762 -2.0837
  845MOL0     H14053   9.681   3.093   2.673 -4.3198  0.7280  0.2914
  845MOL0     H14054   9.615   3.219   2.775 -1.1423 -1.5249 -2.0170
  845MOL0     H14055   9.736   2.537   2.166 -0.3347 -0.0058  0.5163
  845MOL0     H14056   9.534   2.431   2.053 -0.4986 -0.2578 -0.8459
  845MOL0     H14057   9.306   2.348   1.594  0.6298 -2.4855  2.7818
  845MOL0     H14058   9.099   2.280   1.493  1.4386  2.0690 -1.1032
  845MOL0     H14059   8.190   2.007   2.375 -3.1947 -0.4682  1.8375
  845MOL0     H14060   8.089   1.921   2.571  1.7933 -1.2389  1.8184
  845MOL0     H14061   7.755   1.705   2.734 -0.1650 -0.9523 -0.2541
  845MOL0     H14062   7.648   1.668   2.974 -0.4232 -1.8902  0.6765
  845MOL0     H14063   7.636   1.619   3.225 -0.7426  0.1902  1.7049
  845MOL0     H14064   7.807   1.612   3.227 -0.0053 -0.8203 -1.2542
  845MOL0     H14065   7.689   1.369   3.341 -3.9121 -0.0960  2.3381
  845MOL0     H14066   7.638   1.501   3.445  0.1631 -2.3520  1.5015
  845MOL0     H14067   7.893   1.570   3.418 -1.2227  0.3717  1.0411
  845MOL0     H14068   7.914   1.401   3.375  0.8624  1.0452  0.4164
  845MOL0     H14069   7.788   1.488   3.633 -0.6652 -3.6907  1.9906
  845MOL0     H14070   7.796   1.332   3.589  0.2055  0.4577  1.5005
  845MOL0     H14071   8.180   1.400   3.763 -0.9945 -4.1306 -0.1371
  845MOL0     H14072   7.920   1.358   3.030 -0.7186 -1.3622 -1.0750
  845MOL0     H14073   8.079   1.281   2.813  3.1183  0.7077 -0.3913
  845MOL0     H14074   8.143   1.428   2.753  1.1918  1.2658  1.0459
  845MOL0     H14075   8.136   1.411   2.922 -2.1025  1.2402  0.8692
  846MOL0     O14076   7.211   8.114   1.918  0.1826 -0.0392 -0.0159
  846MOL0     C14077   7.292   8.202   1.935 -0.1910  0.2012 -0.4957
  846MOL0     O14078   7.374   8.203   2.048  0.6764 -0.5312  0.5664
  846MOL0     C14079   7.345   8.123   2.162  0.3345  0.4960 -0.2026
  846MOL0     C14080   7.289   8.182   2.281 -0.1301 -0.7983 -0.1108
  846MOL0     C14081   7.263   8.100   2.391  0.1049  0.8808  0.1107
  846MOL0     C14082   7.289   7.961   2.377 -0.0052 -0.1492 -0.1342
  846MOL0     O14083   7.245   7.871   2.481  0.4862 -0.6215  0.3625
  846MOL0     C14084   7.348   7.774   2.519  0.5004 -0.2798 -0.1036
  846MOL0     C14085   7.302   7.703   2.643 -0.3518 -0.8265  0.4540
  846MOL0     C14086   7.385   7.580   2.661 -0.1598  0.3336 -0.4383
  846MOL0     C14087   7.336   7.497   2.787 -0.4120  0.2895 -0.0287
  846MOL0     C14088   7.358   7.567   2.934 -0.2254  0.0544  1.1772
  846MOL0     C14089   7.360   7.454   3.033 -0.7638 -0.0329  0.0107
  846MOL0     C14090   7.426   7.507   3.160  0.1096 -0.2899 -0.0945
  846MOL0     C14091   7.410   7.410   3.271 -0.5370 -0.1845  0.0284
  846MOL0     N14092   7.529   7.417   3.355  0.5467  0.3587 -0.0509
  846MOL0     C14093   7.648   7.342   3.337 -0.3170  0.5202 -0.1995
  846MOL0     C14094   7.734   7.388   3.437  0.2450 -0.1628 -0.1777
  846MOL0     C14095   7.884   7.364   3.445 -0.0079  0.1090  0.0282
  846MOL0     C14096   7.929   7.280   3.573  1.3407  0.9013 -0.1951
  846MOL0     C14097   8.075   7.226   3.563  0.4749 -0.7810 -0.6932
  846MOL0     C14098   8.079   7.131   3.685  0.5455  0.3396 -0.6761
  846MOL0     O14099   8.188   7.045   3.686 -0.0171  0.6380  0.2326
  846MOL0     C14100   8.317   7.091   3.678 -0.6758 -0.4427  0.7702
  846MOL0     C14101   8.355   7.218   3.710  0.5558  0.7118  0.3356
  846MOL0     C14102   8.486   7.264   3.704 -0.3582  0.5190  0.8291
  846MOL0     C14103   8.599   7.180   3.664 -0.4516 -0.5837  0.3459
  846MOL0     C14104   8.751   7.209   3.685 -0.0728 -0.8826  0.9363
  846MOL0     O14105   8.842   7.131   3.619  0.0767 -0.3201  0.0228
  846MOL0     C14106   8.978   7.118   3.658  0.0145 -0.0836  0.9120
  846MOL0     C14107   9.067   7.081   3.555  0.2517 -0.4638  0.8204
  846MOL0     C14108   9.197   7.066   3.597  0.6071  0.5554 -0.8387
  846MOL0     C14109   9.244   7.102   3.720 -0.7105  0.7610 -0.4525
  846MOL0     O14110   9.380   7.097   3.742  0.1462 -0.3071  0.0859
  846MOL0     C14111   9.437   7.212   3.799 -0.0435 -0.6282  0.3519
  846MOL0     C14112   9.567   7.176   3.859 -0.1135  0.1152 -0.2573
  846MOL0     C14113   9.569   7.066   3.965 -0.1628  0.6521  0.1683
  846MOL0     C14114   9.703   7.052   4.034  0.3672 -1.2678 -0.8656
  846MOL0     C14115   9.676   6.939   4.139 -0.5212 -0.8259  0.2634
  846MOL0     C14116   9.799   6.895   4.220 -0.4073  0.9238 -0.0765
  846MOL0     C14117   9.893   7.002   4.270  0.0700 -0.0823 -0.4219
  846MOL0     C14118  10.038   7.008   4.227  0.3887  0.1856 -0.8159
  846MOL0    Cl14119  10.119   7.144   4.319  0.1275  0.0271 -0.1552
  846MOL0     C14120   9.148   7.140   3.826  0.4991 -0.6254  0.2636
  846MOL0     C14121   9.016   7.137   3.788 -0.6654  0.7419 -0.6713
  846MOL0     O14122   8.777   7.293   3.770 -0.4267  0.7665  0.2278
  846MOL0     C14123   8.554   7.045   3.629  0.0586 -0.3257 -0.0420
  846MOL0     C14124   8.416   7.009   3.631 -0.9703  0.4555  0.0759
  846MOL0     N14125   7.666   7.476   3.512  0.1027  0.4818 -0.0850
  846MOL0     N14126   7.549   7.493   3.469  0.5437  0.6668 -0.5849
  846MOL0     C14127   7.343   7.915   2.258  1.1269 -0.0239  0.7072
  846MOL0     C14128   7.369   7.995   2.155  0.3560  0.0999 -0.2673
  846MOL0     C14129   7.290   8.308   1.834  0.0281 -0.1734 -1.0785
  846MOL0     C14130   7.237   8.279   1.704 -0.2327 -0.9223 -0.2345
  846MOL0     C14131   7.238   8.376   1.608 -0.9605  0.3712  0.4164
  846MOL0     C14132   7.292   8.504   1.633  0.3549  0.1407  0.0610
  846MOL0     O14133   7.285   8.581   1.513  0.2626 -0.1659 -0.3710
  846MOL0     C14134   7.297   8.725   1.515  0.0660 -0.3663  0.6323
  846MOL0     C14135   7.270   8.779   1.378  0.0146  0.2312 -0.0709
  846MOL0     C14136   7.395   8.796   1.280 -1.8901 -0.2133 -0.9224
  846MOL0     C14137   7.455   8.659   1.250 -0.3979  0.3740 -0.3233
  846MOL0     C14138   7.535   8.681   1.128  0.3775 -0.1276  0.0457
  846MOL0     C14139   7.592   8.720   1.029 -0.9306 -0.6926  0.7790
  846MOL0     C14140   7.341   8.540   1.757  0.7937  0.0206 -0.4971
  846MOL0     C14141   7.323   8.443   1.861  0.4302 -0.2978 -0.3495
  846MOL0     C14142   7.355   8.485   1.998  0.4297 -0.6645 -0.0823
  846MOL0     H14143   7.250   8.283   2.279 -1.3541 -1.2658 -1.0734
  846MOL0     H14144   7.239   8.128   2.493  1.3358 -0.3745  0.7794
  846MOL0     H14145   7.361   7.693   2.447 -3.0499 -0.1228 -1.0852
  846MOL0     H14146   7.441   7.828   2.539 -1.5361  2.4542  2.9402
  846MOL0     H14147   7.197   7.675   2.630 -1.2005 -0.2592  4.7832
  846MOL0     H14148   7.314   7.771   2.728  1.2361 -1.2750  0.6171
  846MOL0     H14149   7.493   7.596   2.671 -0.2229  0.0729  0.8755
  846MOL0     H14150   7.364   7.517   2.575  0.0525  0.8397 -0.8730
  846MOL0     H14151   7.233   7.461   2.774 -0.1912 -0.2861 -0.2456
  846MOL0     H14152   7.409   7.415   2.780 -0.8122 -0.0513 -0.2306
  846MOL0     H14153   7.449   7.628   2.931 -0.2539  0.0506 -0.2006
  846MOL0     H14154   7.273   7.635   2.946 -0.9481 -0.9048  1.6086
  846MOL0     H14155   7.261   7.412   3.049  0.3522 -1.9705  2.6543
  846MOL0     H14156   7.420   7.372   2.992 -1.0470 -1.2271  1.8533
  846MOL0     H14157   7.379   7.600   3.193  1.0712 -0.4078  1.7326
  846MOL0     H14158   7.532   7.521   3.136 -0.2012  0.8975 -0.8669
  846MOL0     H14159   7.329   7.449   3.333  0.2795 -0.6959  1.4490
  846MOL0     H14160   7.400   7.310   3.228 -2.9777  0.0049  0.0374
  846MOL0     H14161   7.664   7.267   3.260  1.2762 -1.1038  1.6219
  846MOL0     H14162   7.931   7.314   3.360  0.7829  0.0275  0.5096
  846MOL0     H14163   7.929   7.463   3.458  0.9346 -0.2328 -0.5302
  846MOL0     H14164   7.938   7.342   3.663  2.6662 -1.7499  1.6265
  846MOL0     H14165   7.855   7.201   3.584  0.2843  1.8323 -0.3403
  846MOL0     H14166   8.142   7.313   3.563 -0.9329  0.4375 -3.2996
  846MOL0     H14167   8.093   7.165   3.474 -2.1913 -1.0735 -1.1119
  846MOL0     H14168   7.992   7.066   3.681 -0.9246  2.2317 -1.0735
  846MOL0     H14169   8.079   7.198   3.772  0.6882 -1.1641  0.5329
  846MOL0     H14170   8.286   7.282   3.764  0.7953  0.9366  0.3786
  846MOL0     H14171   8.513   7.365   3.735 -0.1361  1.0656 -1.0120
  846MOL0     H14172   9.036   7.077   3.451  3.5918  1.8647 -0.4351
  846MOL0     H14173   9.270   7.029   3.526  0.3073  0.6756 -1.2112
  846MOL0     H14174   9.467   7.279   3.718 -1.8793 -0.9293 -0.6213
  846MOL0     H14175   9.363   7.266   3.860 -0.8731 -1.2426 -0.0801
  846MOL0     H14176   9.628   7.143   3.775  0.0199  1.1164 -0.5728
  846MOL0     H14177   9.616   7.266   3.898  0.4808  0.4930 -1.7966
  846MOL0     H14178   9.488   7.081   4.038  0.0239 -2.5541  1.1794
  846MOL0     H14179   9.554   6.969   3.917  1.6556  1.4984 -2.3151
  846MOL0     H14180   9.734   7.145   4.081  0.5856 -1.3783 -0.7857
  846MOL0     H14181   9.772   7.010   3.960  0.5406  1.2570 -2.2316
  846MOL0     H14182   9.642   6.849   4.088 -2.0303 -0.4751  0.5902
  846MOL0     H14183   9.606   6.979   4.213  0.1692  0.0942  0.4385
  846MOL0     H14184   9.766   6.820   4.292  0.2493  0.3660 -0.3310
  846MOL0     H14185   9.862   6.828   4.159  0.5426 -0.6127  2.4454
  846MOL0     H14186   9.896   6.994   4.379  1.1495 -1.1627 -0.5083
  846MOL0     H14187   9.861   7.106   4.254  0.6419 -0.1264 -1.9653
  846MOL0     H14188  10.091   6.916   4.253 -1.1673 -0.3010  0.8027
  846MOL0     H14189  10.037   7.036   4.121  0.0735 -0.6779 -1.0558
  846MOL0     H14190   9.175   7.164   3.929  2.5699 -4.1162  0.7133
  846MOL0     H14191   8.944   7.144   3.869 -1.2792 -0.2332 -1.1076
  846MOL0     H14192   8.625   6.966   3.607 -0.9882 -0.8017 -1.9774
  846MOL0     H14193   8.396   6.912   3.587  3.3776  0.0591 -1.5192
  846MOL0     H14194   7.353   7.808   2.239 -1.7120 -0.4488  1.1221
  846MOL0     H14195   7.419   7.951   2.069  0.1529  2.6063 -1.7749
  846MOL0     H14196   7.205   8.179   1.676 -0.0494 -0.1282 -3.7902
  846MOL0     H14197   7.193   8.369   1.510 -0.4322  0.6711  0.1499
  846MOL0     H14198   7.402   8.757   1.519  0.2454 -0.4594 -1.8392
  846MOL0     H14199   7.239   8.759   1.601  0.3294 -0.7491  0.9655
  846MOL0     H14200   7.217   8.874   1.385 -0.1025  0.2188 -0.7778
  846MOL0     H14201   7.205   8.712   1.320  0.7948  0.7421 -1.5868
  846MOL0     H14202   7.470   8.862   1.325 -0.5564 -0.4770 -2.6484
  846MOL0     H14203   7.355   8.840   1.188  0.4587  0.2138 -1.8178
  846MOL0     H14204   7.513   8.624   1.336 -3.1871 -0.6196  1.2850
  846MOL0     H14205   7.379   8.584   1.228  2.5499 -2.9923 -0.0139
  846MOL0     H14206   7.644   8.752   0.940  2.4650  4.4411  4.0553
  846MOL0     H14207   7.370   8.642   1.779 -0.7668  0.0062  2.0954
  846MOL0     H14208   7.304   8.430   2.078 -2.1614  1.2403 -0.2796
  846MOL0     H14209   7.464   8.481   2.004  0.6933 -0.9308 -3.3236
  846MOL0     H14210   7.328   8.590   2.011 -0.8093 -1.1276  1.3662
  847MOL0     O14211  10.786   8.279   5.987  0.3917  0.5332 -0.6373
  847MOL0     C14212  10.755   8.188   6.060 -0.3882  1.2046 -0.4588
  847MOL0     O14213  10.661   8.098   6.014 -0.0860 -0.0681 -0.5577
  847MOL0     C14214  10.593   8.110   5.895  0.5712  0.2243 -1.1771
  847MOL0     C14215  10.494   8.211   5.865  0.9127  0.4035 -0.6828
  847MOL0     C14216  10.441   8.203   5.731  0.0969  0.0058 -0.6035
  847MOL0     C14217  10.471   8.108   5.641  0.0216  0.1120  1.1052
  847MOL0     O14218  10.413   8.124   5.516 -0.0836  0.7824 -0.0139
  847MOL0     C14219  10.426   8.027   5.403 -1.6607 -0.2732 -0.5654
  847MOL0     C14220  10.339   8.071   5.287 -0.4660 -1.2272  0.7616
  847MOL0     C14221  10.371   8.212   5.224 -0.7793  0.2343 -0.0448
  847MOL0     C14222  10.288   8.257   5.095 -0.1984  0.9249 -0.6089
  847MOL0     C14223  10.356   8.375   5.030  1.2279 -0.3902 -0.0422
  847MOL0     C14224  10.496   8.349   4.962 -0.9231 -0.0148  0.3317
  847MOL0     C14225  10.530   8.454   4.854  0.2115  0.0200 -0.0487
  847MOL0     C14226  10.663   8.429   4.790 -0.1546 -0.3087  0.5224
  847MOL0     N14227  10.688   8.539   4.690  0.4735  0.3487 -1.1592
  847MOL0     C14228  10.603   8.575   4.588  0.0421  0.3921  0.1494
  847MOL0     C14229  10.658   8.676   4.523  0.5655 -0.6287 -1.3944
  847MOL0     C14230  10.583   8.747   4.417 -0.5858 -0.9538  0.4040
  847MOL0     C14231  10.680   8.833   4.323  0.5112 -0.0236 -0.2773
  847MOL0     C14232  10.703   8.978   4.355  0.0767  0.4600 -0.0443
  847MOL0     C14233  10.760   9.068   4.239  0.3466  0.0493  0.6356
  847MOL0     O14234  10.885   9.026   4.180 -0.4027  0.7015 -0.6271
  847MOL0     C14235  10.928   9.100   4.079  0.7954 -0.2483  0.1654
  847MOL0     C14236  10.933   9.248   4.072 -0.3733  0.8870  0.7941
  847MOL0     C14237  10.985   9.314   3.956  0.3059  0.3196 -0.0415
  847MOL0     C14238  11.045   9.238   3.852  0.3393  0.6073  1.1874
  847MOL0     C14239  11.086   9.300   3.725 -0.1001  0.7687 -0.3920
  847MOL0     O14240  11.060   9.431   3.720 -0.4279 -0.2910  0.4099
  847MOL0     C14241  11.075   9.498   3.598 -0.9790  0.8244  0.1650
  847MOL0     C14242  11.179   9.595   3.579 -0.1265  0.6038  0.9627
  847MOL0     C14243  11.176   9.676   3.467 -0.1407 -1.3368 -0.2321
  847MOL0     C14244  11.071   9.661   3.370 -1.4631  0.4131  0.8049
  847MOL0     O14245  11.062   9.751   3.266  0.0482 -0.1942 -0.7366
  847MOL0     C14246  11.006   9.694   3.149 -0.3645  0.4794  0.5411
  847MOL0     C14247  10.899   9.785   3.084 -0.7800  0.8392 -0.1687
  847MOL0     C14248  10.768   9.792   3.155 -0.1478  0.0198 -0.9063
  847MOL0     C14249  10.649   9.827   3.067  0.7343  0.9273 -0.5089
  847MOL0     C14250  10.673   9.949   2.981 -0.0285  1.4355 -0.3439
  847MOL0     C14251  10.539  10.007   2.921 -0.7896  0.9976  0.5055
  847MOL0     C14252  10.569  10.080   2.789 -0.5719 -0.1008 -0.5594
  847MOL0     C14253  10.448  10.091   2.690 -0.1698 -0.0539  0.1356
  847MOL0    Cl14254  10.384   9.935   2.630 -0.0806  0.0080 -0.0692
  847MOL0     C14255  10.969   9.568   3.381  0.0244  0.2037 -0.0701
  847MOL0     C14256  10.979   9.485   3.493 -1.4592  0.0994  0.6300
  847MOL0     O14257  11.152   9.243   3.634 -0.2578 -0.0344 -0.7882
  847MOL0     C14258  11.037   9.095   3.858  0.3450  0.0694 -0.1244
  847MOL0     C14259  10.981   9.032   3.972  0.5201  0.2227 -0.2064
  847MOL0     N14260  10.769   8.714   4.586 -0.4608 -0.4252 -0.7550
  847MOL0     N14261  10.786   8.628   4.692  0.3972 -0.6367 -0.1052
  847MOL0     C14262  10.561   8.007   5.686 -1.3453  0.7524  0.5327
  847MOL0     C14263  10.620   8.006   5.808 -0.5395 -0.2112 -0.0096
  847MOL0     C14264  10.811   8.180   6.202 -0.3551 -0.8913 -0.0186
  847MOL0     C14265  10.873   8.310   6.242  0.3943  1.0264  0.3021
  847MOL0     C14266  10.899   8.327   6.380 -0.3266 -0.1734  0.3288
  847MOL0     C14267  10.889   8.233   6.473  0.4602  0.7297  0.6461
  847MOL0     O14268  10.932   8.271   6.603 -0.8477 -0.6386  0.0063
  847MOL0     C14269  10.904   8.168   6.706 -0.0990 -0.4980  0.9050
  847MOL0     C14270  10.889   8.239   6.835 -0.1355 -0.6583  0.2881
  847MOL0     C14271  11.028   8.270   6.896 -0.1057  0.4784 -0.0561
  847MOL0     C14272  11.008   8.386   6.998 -0.6554  0.0543  0.2829
  847MOL0     C14273  11.131   8.404   7.066  0.1969 -0.0906 -0.0526
  847MOL0     C14274  11.233   8.424   7.122 -0.4976 -0.1601 -0.3220
  847MOL0     C14275  10.838   8.110   6.429  0.1000  0.0473 -0.1534
  847MOL0     C14276  10.791   8.079   6.303  0.3787 -0.6032 -0.3967
  847MOL0     C14277  10.692   7.958   6.285 -0.4792 -0.0820  0.1505
  847MOL0     H14278  10.475   8.292   5.935 -0.7258 -0.0384 -0.5779
  847MOL0     H14279  10.377   8.289   5.711 -2.4242 -0.3507  4.3687
  847MOL0     H14280  10.531   8.008   5.379 -2.3618 -4.1621 -1.1252
  847MOL0     H14281  10.396   7.928   5.439  1.7073 -1.0569  0.5032
  847MOL0     H14282  10.236   8.071   5.324 -0.1145 -2.0357  1.7824
  847MOL0     H14283  10.355   7.995   5.209  0.3228  0.7925 -1.1449
  847MOL0     H14284  10.478   8.204   5.201 -0.6682 -5.4432  1.0313
  847MOL0     H14285  10.365   8.291   5.300  0.6764 -1.6479  2.1645
  847MOL0     H14286  10.278   8.172   5.027  3.2425  0.5285 -0.8144
  847MOL0     H14287  10.187   8.282   5.128 -0.7584 -0.8449 -0.8501
  847MOL0     H14288  10.293   8.418   4.950 -0.2568  1.1181  1.8298
  847MOL0     H14289  10.370   8.459   5.099  2.4997  1.7286 -2.6734
  847MOL0     H14290  10.571   8.358   5.042 -0.9415  1.7902  0.2001
  847MOL0     H14291  10.500   8.251   4.915  2.4704  0.1793 -0.0861
  847MOL0     H14292  10.507   8.556   4.886 -1.3244 -0.5304  0.7247
  847MOL0     H14293  10.455   8.454   4.774  1.4127  2.1471 -1.2602
  847MOL0     H14294  10.738   8.424   4.869 -0.8709  2.6561  1.5129
  847MOL0     H14295  10.658   8.338   4.729 -0.3620 -0.5670  0.9236
  847MOL0     H14296  10.507   8.526   4.576 -0.5639  1.7567 -0.7402
  847MOL0     H14297  10.533   8.678   4.349  2.5388 -2.5084 -0.5098
  847MOL0     H14298  10.515   8.818   4.466  1.2623  1.3267 -0.1967
  847MOL0     H14299  10.777   8.785   4.309  0.9000  0.6630  0.0472
  847MOL0     H14300  10.632   8.830   4.224  2.9652 -1.1115 -1.5215
  847MOL0     H14301  10.783   8.990   4.427 -0.0153  0.2710  0.0910
  847MOL0     H14302  10.612   9.024   4.396  1.2350  0.9410  2.0967
  847MOL0     H14303  10.784   9.166   4.284  2.3891  0.5311 -1.3169
  847MOL0     H14304  10.682   9.088   4.165 -1.3598  5.2737  3.3073
  847MOL0     H14305  10.888   9.311   4.148  1.2334 -0.6431  3.1372
  847MOL0     H14306  10.983   9.423   3.951 -0.4984  0.2978 -0.1835
  847MOL0     H14307  11.262   9.617   3.645  0.2943  0.6162  0.4416
  847MOL0     H14308  11.249   9.755   3.448  0.3373 -2.0547 -1.5034
  847MOL0     H14309  11.090   9.692   3.079 -1.0930 -0.4317 -0.3369
  847MOL0     H14310  10.984   9.589   3.131  3.7925 -0.7525  1.4988
  847MOL0     H14311  10.941   9.886   3.083  0.7841  0.2749 -3.1888
  847MOL0     H14312  10.885   9.764   2.977  3.5942 -1.1126 -0.5765
  847MOL0     H14313  10.753   9.694   3.202  0.6049 -0.8045 -2.3277
  847MOL0     H14314  10.772   9.860   3.241  0.2730  0.1868 -1.0589
  847MOL0     H14315  10.565   9.829   3.137  2.1320  2.0930  1.2441
  847MOL0     H14316  10.642   9.736   3.007  0.8937  0.8816 -0.4583
  847MOL0     H14317  10.745   9.940   2.899  2.7032 -1.8716  2.0955
  847MOL0     H14318  10.713  10.034   3.036  0.5532  2.8614 -2.8304
  847MOL0     H14319  10.472   9.921   2.911 -0.5618  0.9771 -1.0953
  847MOL0     H14320  10.495  10.075   2.994 -2.2132 -1.9518  2.6351
  847MOL0     H14321  10.644  10.026   2.731 -1.8407 -0.9894 -1.4355
  847MOL0     H14322  10.596  10.184   2.809  0.3987 -0.6172  0.9405
  847MOL0     H14323  10.365  10.143   2.739 -0.6310  0.4067 -1.0743
  847MOL0     H14324  10.485  10.143   2.601 -0.1346 -1.3604 -0.6447
  847MOL0     H14325  10.884   9.559   3.315  0.9267 -4.6099 -0.9343
  847MOL0     H14326  10.904   9.408   3.507 -1.7157  0.4968  1.4536
  847MOL0     H14327  11.052   9.020   3.782 -2.1511 -1.8543  1.1397
  847MOL0     H14328  10.984   8.924   3.966 -3.3064  0.0358 -1.6331
  847MOL0     H14329  10.602   7.931   5.621  2.2980  1.4784  1.7241
  847MOL0     H14330  10.692   7.931   5.839 -1.3657 -0.7619  0.6451
  847MOL0     H14331  10.889   8.387   6.167 -1.4120  2.5045  1.3374
  847MOL0     H14332  10.937   8.426   6.404  1.2284 -0.3296 -1.2712
  847MOL0     H14333  10.990   8.102   6.690  0.7562  0.8344 -0.2012
  847MOL0     H14334  10.815   8.104   6.695  0.9219 -1.6553 -1.2372
  847MOL0     H14335  10.846   8.180   6.916  0.5778 -0.8520  0.5349
  847MOL0     H14336  10.832   8.331   6.818 -0.8454 -1.5511 -2.6381
  847MOL0     H14337  11.108   8.286   6.824 -0.1193  1.8832  0.2200
  847MOL0     H14338  11.052   8.179   6.952 -0.3117  1.8792  2.4488
  847MOL0     H14339  11.005   8.483   6.946  1.4081 -0.7611 -1.4860
  847MOL0     H14340  10.925   8.363   7.066  0.5700 -1.0881  1.4340
  847MOL0     H14341  11.334   8.446   7.152 -1.5252 -2.8941  7.3594
  847MOL0     H14342  10.822   8.035   6.506 -0.6962 -0.7835 -1.0970
  847MOL0     H14343  10.596   7.987   6.242 -1.0449 -1.6832  0.2563
  847MOL0     H14344  10.732   7.894   6.205 -1.0016 -0.6634  0.3416
  847MOL0     H14345  10.660   7.903   6.374 -3.1835  0.0445 -0.6651
  848MOL0     O14346   5.708   1.737   8.858  0.4992  0.3783 -0.1651
  848MOL0     C14347   5.769   1.684   8.767 -0.6814  0.5733  1.0485
  848MOL0     O14348   5.817   1.751   8.659  0.6616  0.3795 -0.6061
  848MOL0     C14349   5.796   1.885   8.647 -0.6910  0.4993  0.3204
  848MOL0     C14350   5.891   1.988   8.692 -0.6783  0.4593  0.2769
  848MOL0     C14351   5.879   2.116   8.667  0.0120  1.0273  0.5297
  848MOL0     C14352   5.769   2.158   8.594  0.4228 -0.0194 -0.1697
  848MOL0     O14353   5.756   2.291   8.549 -0.2658 -0.3317 -0.2866
  848MOL0     C14354   5.857   2.386   8.600 -0.5284  0.5732 -0.1923
  848MOL0     C14355   5.834   2.527   8.550 -1.7441  0.4244 -0.2614
  848MOL0     C14356   5.863   2.523   8.395 -0.0599 -0.7131  0.4692
  848MOL0     C14357   5.803   2.654   8.335 -0.6724  0.1068  0.4394
  848MOL0     C14358   5.816   2.659   8.178 -0.4464 -0.1025 -0.9397
  848MOL0     C14359   5.711   2.574   8.100 -0.0608  1.3207 -0.4887
  848MOL0     C14360   5.631   2.638   7.984  0.0373 -0.0130  0.1392
  848MOL0     C14361   5.705   2.648   7.849  0.2043 -0.5450 -0.0846
  848MOL0     N14362   5.745   2.515   7.794  0.8034 -1.0569 -0.3213
  848MOL0     C14363   5.664   2.404   7.787 -1.0678 -0.3148 -0.7423
  848MOL0     C14364   5.736   2.304   7.739 -1.1377 -0.0014 -0.1280
  848MOL0     C14365   5.686   2.168   7.732  0.1220 -0.9626 -0.1446
  848MOL0     C14366   5.608   2.153   7.601 -0.0381 -0.6327 -0.3277
  848MOL0     C14367   5.713   2.167   7.486  0.4489 -0.5560 -0.1905
  848MOL0     C14368   5.809   2.042   7.463  0.4411  0.4277  0.2153
  848MOL0     O14369   5.750   1.924   7.507 -0.4555  0.3556 -0.3634
  848MOL0     C14370   5.653   1.867   7.431 -0.4497  0.4980  0.4047
  848MOL0     C14371   5.585   1.747   7.471 -0.5515 -0.6404  0.7457
  848MOL0     C14372   5.495   1.674   7.392  0.3659 -0.4106 -0.0565
  848MOL0     C14373   5.470   1.728   7.266  0.3413 -0.4874 -0.3206
  848MOL0     C14374   5.391   1.646   7.179 -0.0708 -0.5270 -0.1630
  848MOL0     O14375   5.411   1.656   7.040  0.7213 -0.1048  0.1161
  848MOL0     C14376   5.330   1.592   6.944  0.3186 -0.6992  0.5361
  848MOL0     C14377   5.190   1.604   6.928 -0.5149  0.1343  0.7873
  848MOL0     C14378   5.128   1.539   6.818 -0.3671 -0.8593  0.5976
  848MOL0     C14379   5.203   1.458   6.731 -0.0458  0.6726  0.2998
  848MOL0     O14380   5.134   1.385   6.639  0.0806  0.1791  0.5288
  848MOL0     C14381   5.144   1.242   6.646  0.8542  0.4355  0.3610
  848MOL0     C14382   5.048   1.202   6.526 -0.2082 -0.5001 -0.4961
  848MOL0     C14383   5.017   1.051   6.523 -0.0365 -0.2393  0.0688
  848MOL0     C14384   4.960   1.005   6.656 -0.0198  0.1123 -0.0465
  848MOL0     C14385   4.904   0.871   6.641 -0.0573 -0.6985  0.3419
  848MOL0     C14386   4.855   0.814   6.788 -0.1789 -0.8181  0.5349
  848MOL0     C14387   4.717   0.883   6.833 -0.3788 -0.1312 -0.0107
  848MOL0     C14388   4.688   0.858   6.980  0.3614 -0.0986  0.1394
  848MOL0    Cl14389   4.636   1.013   7.064  0.3895  0.3589 -0.2410
  848MOL0     C14390   5.342   1.444   6.748  0.8622 -0.4562  0.7792
  848MOL0     C14391   5.408   1.512   6.853 -0.0757  0.1469 -0.1311
  848MOL0     O14392   5.308   1.567   7.232  0.4923  0.0527 -0.1978
  848MOL0     C14393   5.529   1.848   7.227  0.5712 -0.2495  1.1271
  848MOL0     C14394   5.610   1.922   7.302  0.3383 -0.0692  0.5958
  848MOL0     N14395   5.863   2.357   7.714 -0.5868  0.4115 -0.3573
  848MOL0     N14396   5.864   2.484   7.737  0.0132 -0.0508  0.2046
  848MOL0     C14397   5.669   2.071   8.553 -0.4924 -0.0462 -0.3904
  848MOL0     C14398   5.687   1.933   8.579  0.8015 -1.0334  0.7742
  848MOL0     C14399   5.814   1.543   8.784 -0.1233 -0.2844 -0.2446
  848MOL0     C14400   5.946   1.512   8.761 -0.0862 -1.4338 -0.0014
  848MOL0     C14401   5.995   1.384   8.781 -0.5650  0.1689 -0.0819
  848MOL0     C14402   5.914   1.279   8.822 -0.1447  0.8787  1.5008
  848MOL0     O14403   5.973   1.159   8.850 -0.2331  0.4433 -0.4286
  848MOL0     C14404   5.906   1.038   8.878  0.2584 -1.0968 -0.2851
  848MOL0     C14405   6.003   0.919   8.864 -0.5915 -0.4729  0.2212
  848MOL0     C14406   5.968   0.793   8.945  0.6286 -0.2405  0.9400
  848MOL0     C14407   6.081   0.693   8.941 -0.1196  0.6153  0.4870
  848MOL0     C14408   6.100   0.650   8.805 -1.0005  0.0701  0.2584
  848MOL0     C14409   6.133   0.594   8.692  0.1695  0.4961 -0.8602
  848MOL0     C14410   5.780   1.310   8.842 -0.1313 -0.7239  0.3114
  848MOL0     C14411   5.730   1.441   8.813  0.0852 -0.4423  0.7117
  848MOL0     C14412   5.579   1.471   8.840  0.2506 -0.1009  0.0752
  848MOL0     H14413   5.985   1.959   8.738  1.0551 -0.2205 -3.3375
  848MOL0     H14414   5.952   2.190   8.697 -0.5522  1.4546  0.8892
  848MOL0     H14415   5.844   2.379   8.708  2.4320 -1.3421  0.1611
  848MOL0     H14416   5.965   2.379   8.583  0.1599  5.0694  1.1639
  848MOL0     H14417   5.890   2.612   8.589  2.0578  0.4185 -4.8184
  848MOL0     H14418   5.735   2.564   8.580 -0.2335  2.9126  2.0598
  848MOL0     H14419   5.815   2.433   8.357 -1.5847  0.1293  0.3160
  848MOL0     H14420   5.968   2.513   8.366 -0.0665 -2.0023  0.8525
  848MOL0     H14421   5.701   2.680   8.365 -1.4107  1.2835 -2.7324
  848MOL0     H14422   5.869   2.731   8.377 -1.0256  0.7470 -0.1632
  848MOL0     H14423   5.801   2.764   8.155 -2.1697  0.0284  0.5146
  848MOL0     H14424   5.920   2.633   8.162  0.6782  1.4630  2.6681
  848MOL0     H14425   5.757   2.488   8.052 -0.4671  0.8175  0.0041
  848MOL0     H14426   5.651   2.533   8.182  1.6790  0.0900  0.2414
  848MOL0     H14427   5.602   2.738   8.016  1.6110  0.1247  1.2663
  848MOL0     H14428   5.541   2.589   7.948 -0.4041  0.9696 -0.1229
  848MOL0     H14429   5.630   2.688   7.780  0.5186  1.1200  0.5003
  848MOL0     H14430   5.786   2.721   7.857 -1.1516  0.7900  3.2249
  848MOL0     H14431   5.564   2.397   7.828 -0.5199 -1.2938  0.4594
  848MOL0     H14432   5.768   2.095   7.726  0.0791 -1.0761  0.5205
  848MOL0     H14433   5.627   2.146   7.821  0.3203 -1.1260 -0.0506
  848MOL0     H14434   5.553   2.058   7.599 -3.3180  1.1503 -0.4422
  848MOL0     H14435   5.536   2.234   7.590  0.6749  0.0631 -0.0093
  848MOL0     H14436   5.783   2.251   7.489 -0.7458  0.5004 -1.0795
  848MOL0     H14437   5.655   2.183   7.395  1.5119  0.3489 -0.7395
  848MOL0     H14438   5.908   2.035   7.508  0.0819 -0.1085  0.9424
  848MOL0     H14439   5.829   2.032   7.356 -3.1950 -0.0657 -0.5657
  848MOL0     H14440   5.611   1.710   7.569 -1.8308 -2.4842  0.4424
  848MOL0     H14441   5.461   1.575   7.422  4.3235 -1.8791  0.2662
  848MOL0     H14442   5.134   1.651   7.008  1.0404 -0.7569  2.4685
  848MOL0     H14443   5.020   1.540   6.809 -0.4227 -1.4370  1.1343
  848MOL0     H14444   5.240   1.200   6.616 -0.3932 -4.5212  2.2797
  848MOL0     H14445   5.117   1.199   6.743  0.2921 -0.5036 -0.2019
  848MOL0     H14446   4.957   1.261   6.535  0.8259  0.8011  3.3066
  848MOL0     H14447   5.085   1.235   6.428 -0.3947  0.5985 -0.2173
  848MOL0     H14448   4.944   1.038   6.443  2.7498 -0.9865 -2.5459
  848MOL0     H14449   5.107   0.994   6.497 -0.1466  0.2843 -1.6073
  848MOL0     H14450   4.881   1.076   6.684 -1.5484 -2.3654  2.4614
  848MOL0     H14451   5.023   1.020   6.745 -2.2608  3.1292  1.2173
  848MOL0     H14452   4.976   0.799   6.600  0.7565  2.5063 -4.8056
  848MOL0     H14453   4.814   0.880   6.578 -1.6568 -0.8236  2.4938
  848MOL0     H14454   4.841   0.706   6.788 -1.0338 -0.7186 -0.1237
  848MOL0     H14455   4.937   0.834   6.858 -1.2966  1.6099  1.2645
  848MOL0     H14456   4.640   0.846   6.764  0.5806 -1.4289 -0.4134
  848MOL0     H14457   4.723   0.991   6.818 -2.2776  0.1088  0.6289
  848MOL0     H14458   4.605   0.787   6.981 -1.8460  2.3455  0.7530
  848MOL0     H14459   4.771   0.808   7.031  0.5653 -1.4558 -1.4483
  848MOL0     H14460   5.403   1.382   6.683  3.2668  0.5499  1.9310
  848MOL0     H14461   5.516   1.501   6.859  0.2944  2.1343 -1.9785
  848MOL0     H14462   5.492   1.891   7.135 -1.5336 -2.7735  0.6848
  848MOL0     H14463   5.632   2.018   7.258 -1.4787 -1.1279 -3.0350
  848MOL0     H14464   5.586   2.108   8.494 -1.1454 -1.1099 -0.1853
  848MOL0     H14465   5.620   1.866   8.526  1.8799  0.6461 -3.0757
  848MOL0     H14466   6.015   1.593   8.735 -1.0060 -1.0786 -1.4690
  848MOL0     H14467   6.101   1.379   8.756 -0.9516  2.3247 -2.6003
  848MOL0     H14468   5.830   1.019   8.802  0.7468  1.7952 -1.6027
  848MOL0     H14469   5.855   1.050   8.974  1.7516  0.0556  0.4117
  848MOL0     H14470   6.099   0.954   8.903 -0.9829 -0.3623  1.1145
  848MOL0     H14471   6.014   0.895   8.758 -2.8436  0.5169 -0.3107
  848MOL0     H14472   5.873   0.749   8.911  0.2558  0.2083  1.3962
  848MOL0     H14473   5.956   0.836   9.044  1.0590  1.6298  0.2222
  848MOL0     H14474   6.178   0.731   8.975  0.2235  2.9412 -2.6417
  848MOL0     H14475   6.058   0.601   8.995 -2.4708  0.5344 -0.5209
  848MOL0     H14476   6.154   0.551   8.596 -0.2632  2.0110 -1.6775
  848MOL0     H14477   5.711   1.243   8.892 -2.1523  1.9969  1.3926
  848MOL0     H14478   5.536   1.558   8.789  1.6794  0.6823  0.1721
  848MOL0     H14479   5.524   1.387   8.795 -0.9732  1.5121 -1.5910
  848MOL0     H14480   5.560   1.485   8.947  5.4984  0.6079  1.1734
  849MOL0     O14481   1.783   4.526   8.334 -0.0187 -0.6411 -0.1499
  849MOL0     C14482   1.665   4.498   8.320  1.0721 -1.0415  0.3635
  849MOL0     O14483   1.561   4.526   8.412  0.2326  0.4692  0.0480
  849MOL0     C14484   1.594   4.614   8.514 -0.5511 -0.0369 -0.4354
  849MOL0     C14485   1.520   4.598   8.627  0.2722  0.2530 -0.9475
  849MOL0     C14486   1.530   4.687   8.729 -0.2159  0.8074  0.3413
  849MOL0     C14487   1.618   4.798   8.725  0.7297  1.2937 -0.0094
  849MOL0     O14488   1.619   4.904   8.811 -1.0517 -0.1184  0.0109
  849MOL0     C14489   1.571   4.902   8.951 -0.8965 -0.5516  0.9642
  849MOL0     C14490   1.537   5.049   8.997 -0.3812 -0.1647  0.1386
  849MOL0     C14491   1.626   5.165   8.958 -0.1817 -0.2221  0.6307
  849MOL0     C14492   1.583   5.285   9.052 -0.0931  0.7320  0.2651
  849MOL0     C14493   1.684   5.315   9.163  0.8502  0.3017  0.2907
  849MOL0     C14494   1.608   5.380   9.284  0.4567  0.2514  0.2030
  849MOL0     C14495   1.706   5.428   9.393  0.2165  0.3041  0.7228
  849MOL0     C14496   1.654   5.546   9.471  0.5602 -0.0256  0.5028
  849MOL0     N14497   1.513   5.528   9.526  1.1191  0.4278 -0.3306
  849MOL0     C14498   1.401   5.588   9.470  0.5982  0.5520  0.0052
  849MOL0     C14499   1.305   5.557   9.558  0.5401  1.1564  0.0031
  849MOL0     C14500   1.158   5.581   9.537 -0.0704 -1.6547 -0.8300
  849MOL0     C14501   1.115   5.711   9.602 -0.0652 -1.1866  0.1564
  849MOL0     C14502   1.165   5.840   9.530 -0.3088 -0.1417  0.3777
  849MOL0     C14503   1.114   5.965   9.599  0.2109  0.4207  0.5958
  849MOL0     O14504   1.122   6.086   9.514  0.6095  0.7039  0.1831
  849MOL0     C14505   1.050   6.188   9.564  0.7048  0.1967 -0.1031
  849MOL0     C14506   1.113   6.275   9.649  0.1091  1.6146 -0.7505
  849MOL0     C14507   1.041   6.389   9.705 -0.6904 -0.3583  0.3083
  849MOL0     C14508   0.905   6.416   9.663 -0.7650  0.8243  0.5350
  849MOL0     C14509   0.816   6.521   9.716 -0.2238 -0.3921 -0.8179
  849MOL0     O14510   0.710   6.560   9.646 -0.2342 -0.0170 -0.2310
  849MOL0     C14511   0.633   6.665   9.684 -0.2318 -0.3705 -0.1517
  849MOL0     C14512   0.685   6.796   9.677 -0.9028 -0.3002 -0.3987
  849MOL0     C14513   0.612   6.912   9.700 -0.5324  0.0784  0.6630
  849MOL0     C14514   0.481   6.896   9.741  0.6101 -0.7518 -0.0427
  849MOL0     O14515   0.404   7.005   9.764 -0.5415  0.1991  0.0732
  849MOL0     C14516   0.451   7.139   9.753 -0.2837 -0.1794 -0.9786
  849MOL0     C14517   0.359   7.235   9.833 -0.5064 -0.4931 -0.4024
  849MOL0     C14518   0.223   7.258   9.764  0.3919  0.1058 -0.3531
  849MOL0     C14519   0.167   7.400   9.767  0.4612 -0.1024 -0.1215
  849MOL0     C14520   0.023   7.408   9.723  0.1149  0.1105  0.1217
  849MOL0     C14521  -0.008   7.553   9.701  0.3553  0.5812 -0.5577
  849MOL0     C14522  -0.154   7.589   9.678 -0.4797  0.4474  0.3078
  849MOL0     C14523  -0.217   7.718   9.711 -0.3192  0.1657 -0.9108
  849MOL0    Cl14524  -0.253   7.757   9.884  0.5183  0.6453 -0.0264
  849MOL0     C14525   0.424   6.768   9.762  0.2960 -0.2067 -0.7849
  849MOL0     C14526   0.498   6.652   9.735  0.5035 -0.1086  0.3536
  849MOL0     O14527   0.841   6.566   9.830 -0.0468 -0.2408 -0.0305
  849MOL0     C14528   0.851   6.327   9.566 -0.7462  1.0841  0.0383
  849MOL0     C14529   0.920   6.218   9.515 -0.2115  0.1839  0.2238
  849MOL0     N14530   1.353   5.482   9.658 -0.3277 -0.8622  0.5941
  849MOL0     N14531   1.479   5.467   9.639 -0.4882 -0.3606 -0.0998
  849MOL0     C14532   1.691   4.814   8.609  0.0020 -0.6256  0.7300
  849MOL0     C14533   1.689   4.716   8.511  0.3616 -0.2020  0.4907
  849MOL0     C14534   1.634   4.402   8.217  0.3601  0.6355 -0.1170
  849MOL0     C14535   1.736   4.314   8.175 -0.8066 -0.0075  0.3508
  849MOL0     C14536   1.723   4.222   8.077  0.0081  0.1441  0.0553
  849MOL0     C14537   1.598   4.194   8.024 -0.3200  0.2698 -0.6325
  849MOL0     O14538   1.583   4.105   7.925  0.3631 -0.2221 -0.2516
  849MOL0     C14539   1.653   4.133   7.805  0.5016 -0.0536  0.0309
  849MOL0     C14540   1.585   4.058   7.689  0.2009  0.4052  0.5912
  849MOL0     C14541   1.654   4.058   7.554 -0.8407 -0.6612 -0.0949
  849MOL0     C14542   1.609   4.181   7.468  0.8067 -0.4164 -0.5584
  849MOL0     C14543   1.647   4.165   7.327 -0.5517 -0.8111 -0.0899
  849MOL0     C14544   1.667   4.158   7.203 -0.2657 -0.4131 -0.2061
  849MOL0     C14545   1.493   4.270   8.066  0.2455  0.8080 -1.2274
  849MOL0     C14546   1.512   4.375   8.161 -0.5154  0.1225  0.3911
  849MOL0     C14547   1.404   4.474   8.189 -0.3391  0.5103  0.6408
  849MOL0     H14548   1.440   4.525   8.633  1.2291 -0.7208  1.9705
  849MOL0     H14549   1.448   4.692   8.800  1.9405  1.2255  3.0218
  849MOL0     H14550   1.471   4.858   8.956 -2.7714  3.1870  0.0569
  849MOL0     H14551   1.644   4.854   9.018  1.5452  1.3632 -0.1796
  849MOL0     H14552   1.550   5.051   9.106 -0.6337 -0.4743  0.1802
  849MOL0     H14553   1.432   5.074   8.975 -0.4707 -0.6687 -0.0252
  849MOL0     H14554   1.615   5.194   8.853 -5.2868  0.8504  1.1676
  849MOL0     H14555   1.731   5.144   8.980  1.8111  2.1963 -4.6902
  849MOL0     H14556   1.581   5.373   8.986 -0.9456 -1.2739 -2.5872
  849MOL0     H14557   1.483   5.266   9.092  0.2897  1.4819  1.6381
  849MOL0     H14558   1.739   5.229   9.202  2.6968  0.7016 -1.2347
  849MOL0     H14559   1.757   5.380   9.114 -1.2392  0.8413 -2.2956
  849MOL0     H14560   1.543   5.463   9.254  1.3421  1.1164  0.6344
  849MOL0     H14561   1.542   5.308   9.333 -0.9349  1.3382 -0.0154
  849MOL0     H14562   1.793   5.457   9.334  0.0878  0.1429  0.4543
  849MOL0     H14563   1.740   5.347   9.459  4.7285  1.7435  0.5327
  849MOL0     H14564   1.716   5.553   9.561  0.7300 -1.6887  0.5486
  849MOL0     H14565   1.659   5.636   9.409  0.5694 -0.3759 -0.0118
  849MOL0     H14566   1.406   5.635   9.372  1.7549  1.6263  0.5674
  849MOL0     H14567   1.116   5.574   9.436 -0.9721  2.5262 -0.9221
  849MOL0     H14568   1.107   5.499   9.588 -2.7283 -0.1974 -0.9574
  849MOL0     H14569   1.007   5.725   9.596  0.3474  2.7176 -0.3471
  849MOL0     H14570   1.136   5.706   9.709  0.7926  0.9657  0.1414
  849MOL0     H14571   1.139   5.839   9.424 -0.2859  0.4519  0.3643
  849MOL0     H14572   1.274   5.844   9.543  0.3370 -3.6724 -2.4734
  849MOL0     H14573   1.168   5.969   9.693 -1.4567  0.3058  1.6000
  849MOL0     H14574   1.010   5.961   9.634  0.7083  3.5152  2.8215
  849MOL0     H14575   1.215   6.262   9.681  0.1177 -2.1870 -1.7764
  849MOL0     H14576   1.101   6.457   9.763  0.2378  2.5184 -3.6068
  849MOL0     H14577   0.790   6.804   9.652 -0.9481 -0.3841 -0.6196
  849MOL0     H14578   0.660   7.006   9.674  0.1471 -0.2744  0.6380
  849MOL0     H14579   0.549   7.156   9.798 -0.6660 -1.8529  0.6580
  849MOL0     H14580   0.436   7.178   9.652  2.5051  0.4394 -1.2269
  849MOL0     H14581   0.341   7.201   9.936  2.1889 -0.1361  0.2553
  849MOL0     H14582   0.419   7.327   9.833  0.5527 -1.1604  0.7569
  849MOL0     H14583   0.225   7.218   9.662  2.1101  1.0418 -0.7210
  849MOL0     H14584   0.167   7.190   9.830  2.6358 -0.7165  0.8102
  849MOL0     H14585   0.225   7.454   9.692  1.3298  1.4880  1.6143
  849MOL0     H14586   0.191   7.449   9.862  0.8319 -1.3403  0.4347
  849MOL0     H14587  -0.029   7.358   9.806  1.8552 -1.2908  0.4474
  849MOL0     H14588  -0.013   7.356   9.634 -0.5882  0.9245 -0.0756
  849MOL0     H14589   0.034   7.607   9.786  2.7688 -1.3639 -0.4024
  849MOL0     H14590   0.042   7.571   9.604 -1.2158 -1.7632 -1.8912
  849MOL0     H14591  -0.218   7.511   9.720  1.8521 -1.4047  0.5947
  849MOL0     H14592  -0.164   7.590   9.569  2.4237 -0.2157 -0.0459
  849MOL0     H14593  -0.153   7.803   9.684 -0.3367  0.7783  0.8142
  849MOL0     H14594  -0.314   7.732   9.662 -1.4722 -0.3228  1.1068
  849MOL0     H14595   0.328   6.763   9.813  0.5874  1.6284  0.0156
  849MOL0     H14596   0.453   6.555   9.752  1.8350 -0.9278 -0.5653
  849MOL0     H14597   0.758   6.343   9.513 -0.3418 -0.5875 -1.2955
  849MOL0     H14598   0.877   6.152   9.439  0.1162  0.1646  0.0531
  849MOL0     H14599   1.749   4.904   8.588  1.4550 -1.8845 -0.9418
  849MOL0     H14600   1.748   4.733   8.422 -0.3055 -0.9683 -0.1098
  849MOL0     H14601   1.833   4.334   8.219 -0.7844 -2.1631  1.4287
  849MOL0     H14602   1.807   4.158   8.049 -0.0154  0.6176 -1.1565
  849MOL0     H14603   1.761   4.117   7.814  0.6112  0.0426 -1.0206
  849MOL0     H14604   1.654   4.241   7.790 -2.7240  0.0694  0.1580
  849MOL0     H14605   1.480   4.088   7.678  0.8377  2.4516 -0.1959
  849MOL0     H14606   1.569   3.953   7.717 -2.2359  0.6004  0.1339
  849MOL0     H14607   1.630   3.971   7.492  2.3571 -0.6429 -1.5707
  849MOL0     H14608   1.759   4.075   7.580 -1.4760 -1.2356  3.3730
  849MOL0     H14609   1.500   4.186   7.471  0.7810 -0.3560  3.8320
  849MOL0     H14610   1.646   4.276   7.507  2.1203 -0.8677 -0.6489
  849MOL0     H14611   1.682   4.154   7.097 -1.6071 -0.1173 -0.4225
  849MOL0     H14612   1.395   4.249   8.024  0.3372 -5.0967  0.6043
  849MOL0     H14613   1.330   4.475   8.109 -1.0684 -0.2921  1.2723
  849MOL0     H14614   1.358   4.442   8.283 -2.1048 -0.9589 -0.6648
  849MOL0     H14615   1.444   4.576   8.182  0.9841 -0.1116 -3.5957
  850MOL0     O14616   6.959   8.165   1.084 -0.9446 -0.0527 -0.0988
  850MOL0     C14617   6.955   8.166   1.207 -0.8169 -1.3270 -0.3482
  850MOL0     O14618   6.922   8.282   1.280 -0.4713  0.6242  0.7968
  850MOL0     C14619   6.938   8.400   1.212  0.6523 -0.1516 -0.3138
  850MOL0     C14620   6.835   8.435   1.133  0.2287  0.2709  0.9433
  850MOL0     C14621   6.837   8.552   1.062  0.3605 -0.4034 -0.6118
  850MOL0     C14622   6.953   8.635   1.071 -0.7567 -0.0414 -0.8527
  850MOL0     O14623   6.979   8.747   0.994  0.3008  0.2932  0.3186
  850MOL0     C14624   6.903   8.763   0.873 -0.3086 -0.1675  0.7653
  850MOL0     C14625   6.897   8.907   0.810 -0.7214 -0.4824  0.1904
  850MOL0     C14626   6.830   8.998   0.913  0.1588  0.1244  1.4915
  850MOL0     C14627   6.865   9.143   0.864  0.0693 -0.9071 -0.8578
  850MOL0     C14628   6.802   9.247   0.956 -0.2594 -0.3435  0.4349
  850MOL0     C14629   6.839   9.385   0.917 -0.2782 -0.7460  0.2261
  850MOL0     C14630   6.976   9.429   0.952 -0.2685  0.7071 -0.4304
  850MOL0     C14631   6.990   9.579   0.934 -0.2289  0.4444  0.4860
  850MOL0     N14632   7.123   9.620   0.974  0.1197 -0.2087  0.0558
  850MOL0     C14633   7.248   9.583   0.924  0.3177 -0.7234 -0.5952
  850MOL0     C14634   7.338   9.660   1.001  0.0147  0.1984  0.3653
  850MOL0     C14635   7.488   9.649   0.984 -0.2272 -0.4559 -0.2116
  850MOL0     C14636   7.557   9.559   1.086  0.6544 -0.3563 -0.3698
  850MOL0     C14637   7.714   9.538   1.068  0.3330  0.1521  0.4505
  850MOL0     C14638   7.779   9.498   1.200  0.8420 -0.8619 -0.8538
  850MOL0     O14639   7.711   9.387   1.269 -0.5431  0.8291 -0.0581
  850MOL0     C14640   7.658   9.400   1.393  0.0762  0.0522  0.1355
  850MOL0     C14641   7.645   9.517   1.471 -0.1110 -0.7320  0.3067
  850MOL0     C14642   7.587   9.515   1.604  0.7272 -0.4863  0.5039
  850MOL0     C14643   7.546   9.386   1.661  0.7158 -0.4122  0.7834
  850MOL0     C14644   7.481   9.384   1.784  0.0863  0.7183  1.1903
  850MOL0     O14645   7.470   9.263   1.848  0.5359  0.2142  0.0660
  850MOL0     C14646   7.459   9.278   1.981  0.5267 -0.4421 -0.0855
  850MOL0     C14647   7.568   9.307   2.063 -0.3796  0.5062  0.1167
  850MOL0     C14648   7.553   9.323   2.202 -0.2731  1.0845  0.2346
  850MOL0     C14649   7.423   9.319   2.264  0.4052  0.2430 -0.6402
  850MOL0     O14650   7.400   9.319   2.402  0.3041 -0.9167 -0.1233
  850MOL0     C14651   7.510   9.334   2.493 -0.9564 -0.4479  0.7133
  850MOL0     C14652   7.558   9.485   2.523 -0.2372 -0.4080 -0.1533
  850MOL0     C14653   7.661   9.484   2.633 -0.1813  0.0335 -1.0506
  850MOL0     C14654   7.729   9.624   2.638  0.5309  0.3617  0.1346
  850MOL0     C14655   7.851   9.618   2.722  0.2309 -0.0071  0.2801
  850MOL0     C14656   7.902   9.757   2.764  0.6406  0.3402  0.5590
  850MOL0     C14657   7.922   9.860   2.646  0.4964 -0.7203  0.7716
  850MOL0     C14658   8.024   9.807   2.545  0.5108 -0.1817  0.9708
  850MOL0    Cl14659   8.188   9.855   2.605 -0.7015  0.0532 -0.2126
  850MOL0     C14660   7.312   9.292   2.183  0.1763  0.2916  0.0168
  850MOL0     C14661   7.330   9.275   2.040 -0.3125  0.1960 -0.1504
  850MOL0     O14662   7.445   9.493   1.837 -0.2721 -0.5569 -0.1712
  850MOL0     C14663   7.550   9.277   1.579 -0.7847 -0.0518 -0.6282
  850MOL0     C14664   7.610   9.283   1.445 -0.1525 -0.2548  0.9529
  850MOL0     N14665   7.260   9.721   1.099 -0.1038 -0.3239 -0.0058
  850MOL0     N14666   7.132   9.687   1.089  0.2848  0.0191 -0.2764
  850MOL0     C14667   7.061   8.601   1.139  0.1852  0.5451 -0.2875
  850MOL0     C14668   7.053   8.479   1.211  0.2286  1.1785  0.3476
  850MOL0     C14669   7.000   8.050   1.280 -0.5366  0.6465  0.4180
  850MOL0     C14670   7.066   7.946   1.206  0.0417 -0.7247  0.5274
  850MOL0     C14671   7.134   7.839   1.273 -0.0908  0.7784  0.1838
  850MOL0     C14672   7.140   7.833   1.419  0.6214  0.5069  0.6913
  850MOL0     O14673   7.203   7.737   1.500  0.4115  0.0939  0.5580
  850MOL0     C14674   7.253   7.619   1.443 -0.4335 -0.5202  0.6908
  850MOL0     C14675   7.404   7.595   1.467  0.1184  0.8868  0.6771
  850MOL0     C14676   7.469   7.470   1.398 -0.7138  0.3546  0.1817
  850MOL0     C14677   7.635   7.456   1.412  0.3265 -0.3677  0.2809
  850MOL0     C14678   7.679   7.478   1.546 -0.0816  0.2138 -0.1637
  850MOL0     C14679   7.721   7.489   1.661 -0.4016 -0.6927 -0.3204
  850MOL0     C14680   7.072   7.936   1.487  0.4727 -0.0887  0.6618
  850MOL0     C14681   7.003   8.044   1.426  0.1635 -0.0456 -0.5088
  850MOL0     C14682   6.925   8.139   1.518  0.5909 -1.1614  0.0970
  850MOL0     H14683   6.741   8.380   1.134  1.7809 -2.6196  0.1118
  850MOL0     H14684   6.746   8.577   1.009  1.2873 -1.4492 -2.8640
  850MOL0     H14685   6.945   8.699   0.795 -0.6533  0.9653 -0.3808
  850MOL0     H14686   6.796   8.740   0.878 -0.9353  2.3861  0.6132
  850MOL0     H14687   6.832   8.904   0.722  0.7057  2.1811 -1.0523
  850MOL0     H14688   6.996   8.949   0.794 -1.9918  2.6048 -0.1799
  850MOL0     H14689   6.890   8.983   1.004  1.5097 -2.9421  0.2433
  850MOL0     H14690   6.724   8.985   0.937 -0.4442  0.7521 -0.6612
  850MOL0     H14691   6.973   9.158   0.868 -0.1338  0.5491 -0.3135
  850MOL0     H14692   6.830   9.169   0.764 -0.8493  2.8568  0.3079
  850MOL0     H14693   6.694   9.232   0.949 -0.6204  2.4173 -1.4089
  850MOL0     H14694   6.829   9.225   1.060  0.5332 -0.6517  0.1681
  850MOL0     H14695   6.830   9.392   0.808 -1.9506  4.2555  0.4368
  850MOL0     H14696   6.776   9.456   0.972  0.5716  1.7052 -1.7458
  850MOL0     H14697   7.040   9.364   0.891 -1.6967 -0.1418 -1.0602
  850MOL0     H14698   6.993   9.398   1.056  0.9011 -3.8611 -1.7598
  850MOL0     H14699   6.969   9.595   0.828 -0.3638  0.8000  0.5667
  850MOL0     H14700   6.922   9.622   1.008  0.8447  0.2925  1.5922
  850MOL0     H14701   7.267   9.521   0.837 -1.0634 -0.8133 -0.8591
  850MOL0     H14702   7.498   9.601   0.886 -0.6334  3.0604 -2.1140
  850MOL0     H14703   7.540   9.745   0.977 -1.7629  0.3504 -1.2907
  850MOL0     H14704   7.538   9.603   1.184 -1.8949 -0.8202 -0.5841
  850MOL0     H14705   7.500   9.465   1.087  0.7629 -0.4240 -0.5790
  850MOL0     H14706   7.761   9.630   1.030 -0.5448  0.1083 -0.8280
  850MOL0     H14707   7.724   9.452   1.001  0.5783 -0.7560  1.6271
  850MOL0     H14708   7.783   9.588   1.262  0.8962 -1.9122  0.7246
  850MOL0     H14709   7.883   9.465   1.191  0.8832 -2.2231  2.9240
  850MOL0     H14710   7.686   9.615   1.447 -2.8822  0.1246 -1.4513
  850MOL0     H14711   7.581   9.617   1.639  0.5286  0.4963 -2.1616
  850MOL0     H14712   7.673   9.300   2.035  0.1055  2.5472  1.1869
  850MOL0     H14713   7.645   9.328   2.258  1.8858 -1.3126 -2.7151
  850MOL0     H14714   7.486   9.291   2.590  0.4978 -1.2026  0.7648
  850MOL0     H14715   7.585   9.269   2.447 -0.9645  1.7956 -2.9189
  850MOL0     H14716   7.592   9.537   2.432 -1.0912  0.3761 -0.0420
  850MOL0     H14717   7.468   9.535   2.557 -1.7713 -2.4839 -0.9537
  850MOL0     H14718   7.611   9.460   2.728  2.2570 -1.3698 -0.0449
  850MOL0     H14719   7.735   9.409   2.607  0.7160  1.5012 -2.8983
  850MOL0     H14720   7.664   9.694   2.691  1.0224  0.1923  0.9801
  850MOL0     H14721   7.739   9.665   2.537  0.4412  0.1200  0.0251
  850MOL0     H14722   7.928   9.561   2.669 -1.7387 -1.6607 -0.9552
  850MOL0     H14723   7.833   9.560   2.813  1.7772 -1.1273 -0.0888
  850MOL0     H14724   7.826   9.801   2.828  0.3748 -1.2599  1.4043
  850MOL0     H14725   7.997   9.753   2.818  1.1359 -0.1792 -0.3303
  850MOL0     H14726   7.952   9.958   2.685 -3.6754  2.4667 -2.9835
  850MOL0     H14727   7.832   9.877   2.587  1.1158  0.9231  0.2584
  850MOL0     H14728   8.008   9.703   2.514 -2.4557  0.1708  1.0185
  850MOL0     H14729   8.023   9.869   2.454 -0.9270 -3.3543 -1.3799
  850MOL0     H14730   7.219   9.302   2.236  0.0688  2.2650 -0.4337
  850MOL0     H14731   7.242   9.246   1.983 -0.5566 -3.2874  1.7027
  850MOL0     H14732   7.510   9.186   1.623  0.3161 -1.0977 -1.7236
  850MOL0     H14733   7.618   9.191   1.388 -1.1066 -1.2264  2.3049
  850MOL0     H14734   7.151   8.659   1.123  0.3647  0.4156  0.2440
  850MOL0     H14735   7.138   8.443   1.268 -0.9079  0.1262  1.4432
  850MOL0     H14736   7.082   7.956   1.099 -0.4842  1.7229  0.6108
  850MOL0     H14737   7.199   7.771   1.219  0.1411  2.1481 -1.3384
  850MOL0     H14738   7.226   7.613   1.337 -1.6967 -2.4350  1.0720
  850MOL0     H14739   7.198   7.540   1.495 -1.8024 -0.3815 -0.4670
  850MOL0     H14740   7.421   7.589   1.575 -2.4574 -3.7703  1.0999
  850MOL0     H14741   7.457   7.679   1.421 -0.6846  0.2961 -1.4633
  850MOL0     H14742   7.443   7.483   1.293  0.3409  0.1292 -0.1220
  850MOL0     H14743   7.421   7.378   1.433  0.6573 -0.5854 -0.3397
  850MOL0     H14744   7.675   7.361   1.375 -1.9817 -0.0007 -3.7144
  850MOL0     H14745   7.670   7.533   1.344 -0.5601 -1.5434 -1.5799
  850MOL0     H14746   7.757   7.493   1.762 -3.0405  0.9419  0.6528
  850MOL0     H14747   7.076   7.927   1.595 -4.0645  2.3621  1.2580
  850MOL0     H14748   6.908   8.090   1.615 -1.3931 -1.3200 -0.2890
  850MOL0     H14749   6.983   8.231   1.525  2.9196 -2.5532  0.1673
  850MOL0     H14750   6.830   8.156   1.466  0.7355 -1.8037 -0.3945
  851MOL0     O14751   5.793   7.253   0.603 -0.1499 -0.1846 -0.3618
  851MOL0     C14752   5.760   7.167   0.693  0.7325 -0.6861  0.8318
  851MOL0     O14753   5.626   7.130   0.711  0.3549 -0.6531 -0.1757
  851MOL0     C14754   5.540   7.189   0.623  0.2650 -0.6281 -0.5897
  851MOL0     C14755   5.473   7.302   0.664  0.0068  0.0506 -0.2669
  851MOL0     C14756   5.397   7.381   0.571  0.2994 -0.0753 -0.2990
  851MOL0     C14757   5.382   7.341   0.434 -0.7755  0.1371  0.6150
  851MOL0     O14758   5.313   7.403   0.333 -0.1633 -0.2077  0.3626
  851MOL0     C14759   5.175   7.432   0.352  0.1554  0.1179 -0.1974
  851MOL0     C14760   5.155   7.587   0.379 -0.6808 -0.4335  0.1904
  851MOL0     C14761   5.175   7.680   0.246 -0.5817 -0.2446 -0.5828
  851MOL0     C14762   5.098   7.801   0.245  0.8267  0.0518  0.2940
  851MOL0     C14763   5.162   7.917   0.178  0.0999 -0.4050 -0.3950
  851MOL0     C14764   5.149   7.890   0.032  0.1486 -0.5631  0.3112
  851MOL0     C14765   5.240   7.984  -0.043 -0.2810  0.3910 -0.6399
  851MOL0     C14766   5.238   7.946  -0.192 -0.3495 -0.9671 -0.7830
  851MOL0     N14767   5.098   7.946  -0.247 -0.3441 -0.3664  0.7617
  851MOL0     C14768   5.042   8.059  -0.294  0.1083  0.1368  0.2859
  851MOL0     C14769   4.916   8.026  -0.320  0.1903 -0.1199 -0.4506
  851MOL0     C14770   4.816   8.118  -0.373 -0.5620  0.7127  0.0069
  851MOL0     C14771   4.803   8.121  -0.525  0.5951 -0.5900 -0.3662
  851MOL0     C14772   4.725   7.997  -0.578 -0.4947 -0.1925  0.2151
  851MOL0     C14773   4.673   8.028  -0.713  0.7855 -0.1532  0.0906
  851MOL0     O14774   4.559   7.950  -0.757  0.3257 -0.0543 -0.0301
  851MOL0     C14775   4.493   7.994  -0.865  0.4393 -0.4074  0.2355
  851MOL0     C14776   4.562   8.041  -0.982  0.7173  0.4005 -0.4492
  851MOL0     C14777   4.491   8.066  -1.096 -0.1645  0.0348  0.9821
  851MOL0     C14778   4.353   8.067  -1.101  0.6626 -0.0956 -0.3383
  851MOL0     C14779   4.284   8.101  -1.228  0.0684 -0.6111 -0.5744
  851MOL0     O14780   4.149   8.082  -1.231  0.1757  0.3444  0.6305
  851MOL0     C14781   4.095   8.126  -1.354 -1.1971 -0.1271 -0.4821
  851MOL0     C14782   4.101   8.264  -1.391  0.7800  0.2279 -0.2944
  851MOL0     C14783   4.057   8.301  -1.519 -0.9481 -0.2152  0.5316
  851MOL0     C14784   3.981   8.207  -1.594 -0.6674 -0.5441 -0.0753
  851MOL0     O14785   3.924   8.248  -1.709  0.5941  0.7531 -0.4690
  851MOL0     C14786   3.848   8.372  -1.705 -0.3520 -0.4431  0.1280
  851MOL0     C14787   3.876   8.459  -1.821 -0.5725 -1.0322  0.8779
  851MOL0     C14788   3.805   8.598  -1.813  0.6079  1.1610  0.1667
  851MOL0     C14789   3.734   8.630  -1.951  0.0012 -0.1644  0.2499
  851MOL0     C14790   3.841   8.709  -2.037 -0.1380 -1.4437  0.4035
  851MOL0     C14791   3.772   8.748  -2.169 -0.0107  0.1619 -0.5544
  851MOL0     C14792   3.855   8.831  -2.257 -1.4470  0.2131  0.0138
  851MOL0     C14793   3.784   8.955  -2.304 -0.5865 -0.0411  0.0756
  851MOL0    Cl14794   3.894   9.065  -2.396 -0.2210  0.3837 -0.0969
  851MOL0     C14795   3.953   8.077  -1.551 -0.9590  0.9612  0.7467
  851MOL0     C14796   4.018   8.040  -1.435 -0.3387 -0.3936  0.4688
  851MOL0     O14797   4.352   8.150  -1.317  0.3334  0.3342 -0.6058
  851MOL0     C14798   4.282   8.018  -0.989  0.0795  0.9567  0.4570
  851MOL0     C14799   4.359   7.987  -0.876  0.2026  0.2190 -1.2943
  851MOL0     N14800   4.898   7.889  -0.309 -1.1016  0.5748 -0.9319
  851MOL0     N14801   5.008   7.844  -0.270 -0.2666  0.8737  0.2153
  851MOL0     C14802   5.458   7.225   0.396  0.9254 -0.1619 -0.6602
  851MOL0     C14803   5.532   7.150   0.489  0.1022 -1.1716 -0.2192
  851MOL0     C14804   5.854   7.128   0.788 -0.2206  0.2156  0.2808
  851MOL0     C14805   5.826   7.143   0.920 -0.5214 -0.6359  0.6262
  851MOL0     C14806   5.921   7.101   1.015  0.2842  0.7225 -0.4760
  851MOL0     C14807   6.047   7.059   0.964 -0.4274  0.3511 -0.6014
  851MOL0     O14808   6.163   7.033   1.040  0.2616 -0.0373  0.2269
  851MOL0     C14809   6.139   6.958   1.156  0.7596 -1.3627 -0.5603
  851MOL0     C14810   6.266   6.903   1.224 -0.2260 -0.2039  0.1805
  851MOL0     C14811   6.353   6.830   1.130 -0.4450  0.0646  0.2150
  851MOL0     C14812   6.463   6.753   1.206  0.2097 -0.8305  0.5147
  851MOL0     C14813   6.544   6.676   1.106 -0.8637 -0.9123  0.7333
  851MOL0     C14814   6.598   6.632   1.010 -0.6896 -0.1835  0.5576
  851MOL0     C14815   6.081   7.044   0.825  0.6292 -0.4765  0.4794
  851MOL0     C14816   5.982   7.080   0.736  0.3080  0.8081  0.3171
  851MOL0     C14817   6.010   7.031   0.593 -0.2701 -0.3856 -0.0099
  851MOL0     H14818   5.470   7.337   0.767  0.2598  3.7374 -1.3873
  851MOL0     H14819   5.346   7.466   0.616  1.6376  1.9973 -2.4727
  851MOL0     H14820   5.116   7.407   0.263 -0.8028  1.3375  0.0565
  851MOL0     H14821   5.134   7.387   0.443  0.3258  0.3293 -0.0143
  851MOL0     H14822   5.230   7.630   0.447 -0.7368  0.2077 -0.1471
  851MOL0     H14823   5.060   7.606   0.430 -0.2501 -1.6762  1.5434
  851MOL0     H14824   5.159   7.617   0.158  0.1411 -0.4424 -0.5779
  851MOL0     H14825   5.282   7.704   0.246 -0.5173 -0.4957 -1.3046
  851MOL0     H14826   4.995   7.786   0.212  1.0452 -2.2561  0.4753
  851MOL0     H14827   5.093   7.827   0.351 -0.7028  0.3877  0.1549
  851MOL0     H14828   5.120   8.013   0.209 -1.6791 -0.6117 -1.9670
  851MOL0     H14829   5.268   7.922   0.208 -0.8432 -2.9407  4.2510
  851MOL0     H14830   5.176   7.786   0.009 -0.2025 -0.2193 -1.8856
  851MOL0     H14831   5.042   7.903   0.010  0.1034  0.0910  0.8974
  851MOL0     H14832   5.345   7.978  -0.011  1.0412 -0.4046 -4.5292
  851MOL0     H14833   5.212   8.088  -0.028  1.2987  0.7351  0.1653
  851MOL0     H14834   5.303   8.015  -0.248 -1.0212 -2.8963 -4.1715
  851MOL0     H14835   5.269   7.842  -0.196  2.7210 -0.2013  0.4311
  851MOL0     H14836   5.092   8.155  -0.299  0.8265 -0.2406  0.0692
  851MOL0     H14837   4.721   8.092  -0.325  0.9313  0.2363  2.9415
  851MOL0     H14838   4.857   8.216  -0.343  3.4883 -0.5537 -0.7287
  851MOL0     H14839   4.734   8.206  -0.535 -5.6241 -4.4842  2.8259
  851MOL0     H14840   4.899   8.131  -0.575  0.6207 -3.4749 -1.0696
  851MOL0     H14841   4.640   7.973  -0.514 -2.5568  0.6748 -2.0241
  851MOL0     H14842   4.785   7.906  -0.589  0.3561  0.6042 -2.5394
  851MOL0     H14843   4.758   8.021  -0.782  2.9768 -0.1694  2.6578
  851MOL0     H14844   4.641   8.133  -0.719  0.6366 -0.2703 -2.0854
  851MOL0     H14845   4.670   8.046  -0.988  1.0907 -0.9517  2.9746
  851MOL0     H14846   4.546   8.109  -1.179 -1.9274 -2.3007 -1.5828
  851MOL0     H14847   4.135   8.335  -1.317  1.7392  0.6316 -1.0937
  851MOL0     H14848   4.070   8.403  -1.555  1.0454  0.5229  2.9711
  851MOL0     H14849   3.743   8.343  -1.694  0.1322 -2.0034  1.1019
  851MOL0     H14850   3.877   8.428  -1.617  2.3978  2.1711 -2.2184
  851MOL0     H14851   3.984   8.471  -1.823 -0.7909  1.1486 -0.0909
  851MOL0     H14852   3.844   8.405  -1.911 -1.5704 -0.3100  0.7808
  851MOL0     H14853   3.717   8.592  -1.749 -0.2242 -3.4212 -1.0830
  851MOL0     H14854   3.870   8.679  -1.777  0.3264  1.8334 -0.7777
  851MOL0     H14855   3.645   8.694  -1.943 -0.0644 -0.4200  1.9331
  851MOL0     H14856   3.713   8.531  -1.992  2.1213 -0.3387 -0.4956
  851MOL0     H14857   3.931   8.647  -2.048 -0.5996 -2.5826  2.5115
  851MOL0     H14858   3.870   8.803  -1.990 -1.1072 -0.0233 -1.6688
  851MOL0     H14859   3.730   8.663  -2.224  1.6757 -1.7080  0.9146
  851MOL0     H14860   3.683   8.810  -2.151 -1.6252 -1.2148 -3.2039
  851MOL0     H14861   3.886   8.765  -2.339  4.7747  1.6100  0.7398
  851MOL0     H14862   3.948   8.865  -2.212 -2.4835  1.4947  1.2791
  851MOL0     H14863   3.699   8.920  -2.363 -0.0708  3.1349 -2.9372
  851MOL0     H14864   3.757   9.012  -2.215  1.3101  1.3566 -0.1665
  851MOL0     H14865   3.901   7.999  -1.605  2.1730  0.1515 -1.3282
  851MOL0     H14866   4.012   7.936  -1.403 -0.6161 -0.2772  0.8075
  851MOL0     H14867   4.174   8.024  -0.979  0.3129  3.2303  2.3970
  851MOL0     H14868   4.312   7.940  -0.790  0.7039 -2.2021 -2.2593
  851MOL0     H14869   5.465   7.206   0.290 -0.7500  0.5201 -0.9294
  851MOL0     H14870   5.605   7.079   0.450 -2.0448 -1.9415 -3.2369
  851MOL0     H14871   5.724   7.169   0.947 -0.2845  0.5560  0.4134
  851MOL0     H14872   5.893   7.095   1.120 -0.9150  3.0833 -0.5975
  851MOL0     H14873   6.076   6.870   1.141 -2.3789  0.8121 -0.9865
  851MOL0     H14874   6.087   7.014   1.235  2.5955 -1.7808  1.0215
  851MOL0     H14875   6.239   6.838   1.308  0.2048  1.6306  1.8194
  851MOL0     H14876   6.316   6.989   1.269 -2.1940 -0.8893  4.1330
  851MOL0     H14877   6.401   6.902   1.063  0.5758  1.0322  1.9344
  851MOL0     H14878   6.290   6.761   1.072  0.8298  0.1348 -1.3157
  851MOL0     H14879   6.515   6.817   1.277 -2.7866 -0.1132  2.2673
  851MOL0     H14880   6.410   6.675   1.261 -3.5592 -0.8359 -2.6824
  851MOL0     H14881   6.666   6.617   0.929 -0.7768  1.2242  0.1919
  851MOL0     H14882   6.183   7.012   0.806  0.4080 -0.2033 -1.3997
  851MOL0     H14883   6.112   7.063   0.571 -0.4231 -0.2965 -0.6100
  851MOL0     H14884   6.005   6.922   0.596  1.0611 -0.5419 -1.9589
  851MOL0     H14885   5.945   7.077   0.518 -3.0721 -2.5081  0.9454
  852MOL0     O14886   1.892  10.002   1.335 -0.3689  0.1956 -0.7495
  852MOL0     C14887   1.868   9.940   1.232  1.1228  0.0323 -0.6982
  852MOL0     O14888   1.798   9.990   1.121 -0.4178 -0.1939  0.1965
  852MOL0     C14889   1.791  10.128   1.093  0.1280  0.0307 -0.2796
  852MOL0     C14890   1.898  10.212   1.105  0.3021  0.0564 -0.0218
  852MOL0     C14891   1.891  10.350   1.084  0.2444  0.5719 -0.5680
  852MOL0     C14892   1.765  10.405   1.036  0.9185 -0.0006 -0.1195
  852MOL0     O14893   1.735  10.539   1.029  0.1181  0.1720 -0.8023
  852MOL0     C14894   1.822  10.623   0.948  0.4465  0.0464 -1.6299
  852MOL0     C14895   1.737  10.748   0.931  0.5631  0.1860 -0.0313
  852MOL0     C14896   1.819  10.858   0.864  0.4346 -0.0105  0.1129
  852MOL0     C14897   1.853  10.808   0.721  0.5986 -1.3314  0.1195
  852MOL0     C14898   1.898  10.902   0.612  0.0147 -0.0525 -0.2197
  852MOL0     C14899   1.785  10.986   0.552 -0.3724 -0.7666  0.5314
  852MOL0     C14900   1.698  10.892   0.450 -0.7933  0.1127 -0.5387
  852MOL0     C14901   1.593  10.964   0.363 -0.2560  0.6596 -0.0665
  852MOL0     N14902   1.570  10.889   0.236 -0.2961 -0.0171 -0.2680
  852MOL0     C14903   1.613  10.949   0.122  0.9025 -0.7583 -0.1514
  852MOL0     C14904   1.577  10.859   0.027 -0.5267 -0.8220 -0.3648
  852MOL0     C14905   1.606  10.858  -0.120 -0.3713  0.1102  0.4197
  852MOL0     C14906   1.496  10.903  -0.206 -0.3682 -0.6170 -0.4866
  852MOL0     C14907   1.553  10.908  -0.346  0.5621  0.6756 -0.2670
  852MOL0     C14908   1.431  10.923  -0.446 -0.6454  0.3030 -0.0435
  852MOL0     O14909   1.483  10.905  -0.575 -0.1484  0.0257  0.3147
  852MOL0     C14910   1.398  10.816  -0.639  0.5890  0.3497  1.0544
  852MOL0     C14911   1.439  10.687  -0.675  0.7204 -0.9162  0.8196
  852MOL0     C14912   1.363  10.598  -0.747 -0.2657  0.0373 -0.5983
  852MOL0     C14913   1.242  10.640  -0.806 -0.1442 -0.9388 -1.3094
  852MOL0     C14914   1.161  10.552  -0.889 -0.1034 -0.6876  0.4912
  852MOL0     O14915   1.050  10.607  -0.940 -0.1439  0.2577 -0.4767
  852MOL0     C14916   0.991  10.535  -1.046  0.5928  0.9272  0.4447
  852MOL0     C14917   0.976  10.593  -1.173 -0.6974  0.0355 -0.7899
  852MOL0     C14918   0.923  10.530  -1.282  0.0454  1.2543  0.5386
  852MOL0     C14919   0.866  10.399  -1.273 -1.2896 -0.2007 -0.0969
  852MOL0     O14920   0.799  10.327  -1.360  0.1320  0.8433 -0.2973
  852MOL0     C14921   0.848  10.338  -1.499  0.2803  0.3124  0.1830
  852MOL0     C14922   0.784  10.217  -1.574 -0.5848  0.8910  0.3096
  852MOL0     C14923   0.809  10.229  -1.726  0.0955  0.6711 -0.0374
  852MOL0     C14924   0.689  10.169  -1.802  0.1975 -0.2581 -0.3801
  852MOL0     C14925   0.696  10.217  -1.953  0.4996 -0.9415  0.1038
  852MOL0     C14926   0.809  10.130  -2.022 -0.5852 -0.4071  0.5563
  852MOL0     C14927   0.750   9.990  -2.056  0.8430 -0.0643  0.1390
  852MOL0     C14928   0.854   9.879  -2.072 -0.6694  0.0062 -0.6017
  852MOL0    Cl14929   0.799   9.746  -2.171  0.0932  0.0265  0.2865
  852MOL0     C14930   0.872  10.339  -1.142 -1.0108 -0.2305  1.4751
  852MOL0     C14931   0.935  10.404  -1.035  1.2895  1.6196 -0.0833
  852MOL0     O14932   1.211  10.443  -0.918 -0.5154 -0.2151 -0.0881
  852MOL0     C14933   1.184  10.761  -0.757  0.2853  0.4251  0.0448
  852MOL0     C14934   1.266  10.845  -0.679  0.1212 -0.4082 -0.1481
  852MOL0     N14935   1.512  10.747   0.086  0.3028 -0.6861  0.2319
  852MOL0     N14936   1.525  10.758   0.217 -0.1846  0.2454 -0.0399
  852MOL0     C14937   1.657  10.312   1.012  0.2075 -0.1616  0.7223
  852MOL0     C14938   1.665  10.177   1.049  0.6841  0.3548  0.3079
  852MOL0     C14939   1.901   9.805   1.247 -0.2671  0.9673  0.5936
  852MOL0     C14940   1.884   9.732   1.372  0.8830 -0.7963  0.1499
  852MOL0     C14941   1.884   9.596   1.385  0.5532  0.9893  0.6156
  852MOL0     C14942   1.908   9.514   1.278  0.5672  1.1295 -0.5821
  852MOL0     O14943   1.891   9.378   1.309 -0.0181  0.6572  0.0949
  852MOL0     C14944   1.885   9.279   1.201 -0.7988  0.5196 -0.2525
  852MOL0     C14945   1.902   9.145   1.258 -0.5663  0.7432 -0.1756
  852MOL0     C14946   1.872   9.028   1.150 -0.1791 -0.0793 -0.0286
  852MOL0     C14947   1.858   8.888   1.215  0.1632  0.0794  0.1950
  852MOL0     C14948   1.831   8.773   1.123 -0.5816 -0.4894 -0.4087
  852MOL0     C14949   1.809   8.694   1.038 -0.4106  1.4577  1.2731
  852MOL0     C14950   1.955   9.581   1.157 -0.2938 -0.3808  0.5190
  852MOL0     C14951   1.934   9.719   1.135 -0.4471 -0.4911  0.4581
  852MOL0     C14952   1.927   9.762   0.993 -0.3795 -0.1464  0.3037
  852MOL0     H14953   1.996  10.187   1.145  0.8821  1.7387 -0.3107
  852MOL0     H14954   1.982  10.405   1.105  2.0812 -1.1553 -3.2389
  852MOL0     H14955   1.911  10.649   1.006 -0.9540 -1.8146  1.6131
  852MOL0     H14956   1.852  10.577   0.853 -2.0509  2.2979 -3.6482
  852MOL0     H14957   1.699  10.783   1.027  1.0924  2.0900 -0.4874
  852MOL0     H14958   1.646  10.732   0.871 -0.6018 -4.9171  2.5341
  852MOL0     H14959   1.908  10.892   0.918  1.4873 -0.7682 -1.0504
  852MOL0     H14960   1.747  10.939   0.856  0.6622  0.0247 -2.6174
  852MOL0     H14961   1.925  10.727   0.729  1.1994 -1.1187 -2.3588
  852MOL0     H14962   1.756  10.768   0.689  0.1035 -0.4615  0.4821
  852MOL0     H14963   1.964  10.974   0.660 -1.2589 -0.2961  2.0689
  852MOL0     H14964   1.946  10.841   0.536 -1.5710  0.9427 -2.0961
  852MOL0     H14965   1.723  11.031   0.631 -0.7266 -2.0768  1.0237
  852MOL0     H14966   1.821  11.074   0.498 -4.9843  1.1254  0.0630
  852MOL0     H14967   1.653  10.802   0.493  1.4918  0.0881  2.0993
  852MOL0     H14968   1.771  10.861   0.375 -0.1217  0.3947 -0.0147
  852MOL0     H14969   1.494  10.983   0.408 -0.1098 -2.4669  1.8886
  852MOL0     H14970   1.624  11.067   0.344 -2.4133  1.7368  1.6636
  852MOL0     H14971   1.666  11.043   0.111 -0.4947  0.4909  2.9187
  852MOL0     H14972   1.700  10.910  -0.141 -2.5174  5.0671  1.6105
  852MOL0     H14973   1.627  10.754  -0.148  5.4823  0.6374  1.4325
  852MOL0     H14974   1.406  10.841  -0.205 -1.7195  1.0883 -3.5737
  852MOL0     H14975   1.462  10.999  -0.167 -0.6738 -1.7796  2.3216
  852MOL0     H14976   1.594  10.812  -0.377  1.5907  1.6613 -2.1236
  852MOL0     H14977   1.632  10.984  -0.350  2.7477 -0.9781  4.4271
  852MOL0     H14978   1.399  11.028  -0.448  2.4728  1.4669  2.4639
  852MOL0     H14979   1.358  10.848  -0.417 -0.5185  0.4165  0.5789
  852MOL0     H14980   1.540  10.664  -0.642  0.1473  0.4147  3.8578
  852MOL0     H14981   1.395  10.497  -0.770  1.1615 -0.2970  2.3474
  852MOL0     H14982   1.015  10.694  -1.173  0.2410 -0.3149 -0.3213
  852MOL0     H14983   0.925  10.585  -1.376 -0.7778  0.2771 -0.0622
  852MOL0     H14984   0.816  10.435  -1.539 -2.3525 -0.5757 -0.0422
  852MOL0     H14985   0.955  10.318  -1.498  0.1122 -0.6189  1.3336
  852MOL0     H14986   0.827  10.122  -1.542 -0.0791  0.7385 -0.7851
  852MOL0     H14987   0.678  10.198  -1.556 -0.6411  1.4194  0.5813
  852MOL0     H14988   0.822  10.336  -1.745  2.2788  0.2731 -0.9501
  852MOL0     H14989   0.903  10.176  -1.742 -0.5596 -0.7111  0.4941
  852MOL0     H14990   0.595  10.212  -1.765  0.0168 -0.2102 -0.8750
  852MOL0     H14991   0.686  10.061  -1.791 -2.1483 -0.4871 -2.2318
  852MOL0     H14992   0.725  10.322  -1.963 -2.1156 -0.2824 -1.5378
  852MOL0     H14993   0.600  10.201  -2.003  1.2610 -2.7956 -0.8802
  852MOL0     H14994   0.836  10.178  -2.116 -0.1733 -1.9901 -0.1690
  852MOL0     H14995   0.892  10.111  -1.953  1.5537  2.7141 -0.9363
  852MOL0     H14996   0.687  10.006  -2.145  0.4514  2.0946  0.7362
  852MOL0     H14997   0.676   9.962  -1.981 -1.2050  0.3373 -1.6164
  852MOL0     H14998   0.945   9.921  -2.117 -0.6048  0.3811 -0.1379
  852MOL0     H14999   0.891   9.847  -1.974 -1.0352  1.8795  0.1844
  852MOL0     H15000   0.843  10.235  -1.151  1.7077 -0.8742 -3.4817
  852MOL0     H15001   0.928  10.349  -0.942 -1.2842  2.6357  0.4210
  852MOL0     H15002   1.082  10.787  -0.782 -0.3990 -2.0414  0.0203
  852MOL0     H15003   1.227  10.942  -0.654  1.7212  0.0076  0.8888
  852MOL0     H15004   1.562  10.358   0.988 -1.0066 -1.8543  2.0384
  852MOL0     H15005   1.578  10.115   1.032  0.8168  0.2208  0.1264
  852MOL0     H15006   1.862   9.791   1.461 -0.0521 -3.0052  1.4855
  852MOL0     H15007   1.862   9.544   1.477 -0.0281  0.5190  0.2208
  852MOL0     H15008   1.955   9.294   1.118 -0.1217 -1.8462 -0.1618
  852MOL0     H15009   1.779   9.294   1.177 -0.9514 -2.2487 -1.6284
  852MOL0     H15010   1.841   9.148   1.349 -1.5322  0.9420 -0.8163
  852MOL0     H15011   2.002   9.133   1.301 -1.6034  2.0443  2.9135
  852MOL0     H15012   1.958   9.019   1.082 -0.4451  2.1135 -0.7267
  852MOL0     H15013   1.791   9.062   1.086 -0.5932 -0.7046  0.1567
  852MOL0     H15014   1.950   8.878   1.274 -2.2444  1.5047  4.6283
  852MOL0     H15015   1.771   8.899   1.280 -0.7094  0.9396 -1.0764
  852MOL0     H15016   1.783   8.604   0.986 -1.3371  0.0121  4.0204
  852MOL0     H15017   1.975   9.511   1.077 -0.6400 -0.7901  0.7872
  852MOL0     H15018   1.973   9.694   0.922  0.3262  0.3261  0.2993
  852MOL0     H15019   1.823   9.774   0.961  0.2212 -1.6704 -2.4743
  852MOL0     H15020   1.984   9.854   0.979 -0.5732 -0.2724 -1.4360
  853MOL0     O15021   8.634  11.471   4.707  0.1541 -0.3181  0.2244
  853MOL0     C15022   8.552  11.500   4.624  0.1477 -0.1980  0.0433
  853MOL0     O15023   8.410  11.499   4.650 -0.7280 -0.0155 -0.3995
  853MOL0     C15024   8.361  11.470   4.774  0.7048  0.6724  0.4235
  853MOL0     C15025   8.222  11.456   4.769 -0.4571  0.3089  0.3983
  853MOL0     C15026   8.150  11.410   4.880 -1.5418 -0.0066 -0.9333
  853MOL0     C15027   8.216  11.379   5.004 -0.0659 -1.3508  1.1325
  853MOL0     O15028   8.152  11.347   5.127 -0.1485 -0.8849  0.6400
  853MOL0     C15029   8.122  11.211   5.134  0.8183  0.3371 -1.1343
  853MOL0     C15030   8.243  11.131   5.190  0.8183 -0.0456  0.1855
  853MOL0     C15031   8.284  11.181   5.334 -0.7814 -0.1323 -0.8258
  853MOL0     C15032   8.393  11.093   5.393 -0.0698  0.1629  0.0959
  853MOL0     C15033   8.415  11.101   5.539  0.1179 -0.3062 -0.1767
  853MOL0     C15034   8.556  11.050   5.596 -0.4597  1.0251  0.2270
  853MOL0     C15035   8.605  10.911   5.553 -0.9324 -0.1405 -0.5878
  853MOL0     C15036   8.509  10.802   5.577 -0.5988  0.2816 -0.2649
  853MOL0     N15037   8.487  10.765   5.720  0.6815 -0.1911 -0.6697
  853MOL0     C15038   8.534  10.652   5.782 -1.6436  0.3903 -0.4575
  853MOL0     C15039   8.499  10.663   5.913 -0.0395 -1.1894  0.6805
  853MOL0     C15040   8.543  10.562   6.006  0.3759  0.2037 -0.3005
  853MOL0     C15041   8.502  10.577   6.150 -0.0183 -0.1681 -0.2711
  853MOL0     C15042   8.562  10.689   6.226 -0.8825  0.3159 -0.1068
  853MOL0     C15043   8.692  10.648   6.294 -0.1203 -0.2830 -0.2385
  853MOL0     O15044   8.687  10.549   6.400  0.3057  0.0172 -0.3479
  853MOL0     C15045   8.780  10.558   6.500  0.2030 -0.2811  0.2827
  853MOL0     C15046   8.899  10.637   6.493  1.0608 -0.3250 -0.6694
  853MOL0     C15047   8.992  10.614   6.591 -0.1949  0.6346  0.1851
  853MOL0     C15048   8.970  10.521   6.700 -0.8160  0.9205  0.0835
  853MOL0     C15049   9.080  10.502   6.793 -0.5467  0.5835  0.4748
  853MOL0     O15050   9.210  10.550   6.760 -0.3068 -0.5411  0.7535
  853MOL0     C15051   9.316  10.499   6.833 -1.2343  1.2719 -0.0408
  853MOL0     C15052   9.334  10.359   6.844  0.8898  0.1767 -0.2211
  853MOL0     C15053   9.429  10.301   6.937 -0.2867 -0.4001 -0.9570
  853MOL0     C15054   9.535  10.385   6.993  0.6510  0.1003  1.0840
  853MOL0     O15055   9.635  10.338   7.081 -0.4426 -0.7019  0.1351
  853MOL0     C15056   9.689  10.212   7.043  0.1472  1.1294  0.1701
  853MOL0     C15057   9.825  10.190   7.102 -0.4456  0.4309 -0.1192
  853MOL0     C15058   9.881  10.049   7.095  0.6102 -1.0278  0.0074
  853MOL0     C15059  10.027  10.054   7.143  0.3596 -0.4443 -0.0747
  853MOL0     C15060  10.107   9.926   7.119  0.7166 -0.5063 -0.5812
  853MOL0     C15061  10.107   9.834   7.239 -0.4945  0.2651  1.0460
  853MOL0     C15062  10.213   9.717   7.222 -0.5855  0.6615  0.6829
  853MOL0     C15063  10.215   9.639   7.083 -0.6107 -1.5403  0.3092
  853MOL0    Cl15064  10.307   9.485   7.093 -0.2296 -0.1102  0.0954
  853MOL0     C15065   9.523  10.524   6.976 -1.3797 -0.4745  1.1666
  853MOL0     C15066   9.411  10.578   6.902 -0.0235  0.1656  0.2186
  853MOL0     O15067   9.055  10.442   6.899  0.0338 -0.3960 -0.7579
  853MOL0     C15068   8.840  10.463   6.715 -1.5908 -0.2449  0.1749
  853MOL0     C15069   8.748  10.485   6.615  0.0201 -0.3288  0.4308
  853MOL0     N15070   8.439  10.784   5.932  0.3915  1.0907 -0.4030
  853MOL0     N15071   8.430  10.842   5.816 -0.5392 -0.3885  0.8901
  853MOL0     C15072   8.352  11.421   5.015 -0.0707  0.4928  0.6096
  853MOL0     C15073   8.421  11.459   4.905 -0.5936  0.6454 -0.5569
  853MOL0     C15074   8.598  11.529   4.481  0.7042 -0.2001 -0.1182
  853MOL0     C15075   8.510  11.499   4.379 -1.2266  0.0035 -0.3183
  853MOL0     C15076   8.539  11.524   4.241  0.0181  0.5204  0.4419
  853MOL0     C15077   8.663  11.591   4.210  0.7240  0.5435 -0.4365
  853MOL0     O15078   8.715  11.624   4.085  0.8896  0.0208  0.7739
  853MOL0     C15079   8.631  11.567   3.976  0.2090  0.3006 -1.4035
  853MOL0     C15080   8.665  11.634   3.846 -0.3778  0.2938 -0.1905
  853MOL0     C15081   8.575  11.594   3.733  0.2729  0.4999  0.3367
  853MOL0     C15082   8.518  11.717   3.656 -0.0813 -0.3790  0.0905
  853MOL0     C15083   8.410  11.790   3.735 -0.9273  0.4086 -0.2354
  853MOL0     C15084   8.322  11.851   3.794 -0.8018 -0.0876 -0.1081
  853MOL0     C15085   8.755  11.610   4.311 -0.3386 -0.4832 -0.0062
  853MOL0     C15086   8.726  11.585   4.453  0.3672  1.3476 -0.7920
  853MOL0     C15087   8.809  11.648   4.560 -0.3900 -0.5457 -0.1256
  853MOL0     H15088   8.189  11.478   4.668  3.8564  0.1555 -1.2732
  853MOL0     H15089   8.042  11.412   4.888 -1.5730  1.2568 -1.4536
  853MOL0     H15090   8.032  11.198   5.195  0.5090  1.1508 -1.4088
  853MOL0     H15091   8.082  11.179   5.037  0.2645  2.8916 -1.8040
  853MOL0     H15092   8.330  11.149   5.127  0.5558  1.8371  0.2843
  853MOL0     H15093   8.209  11.027   5.196 -1.3717  0.5964  0.0715
  853MOL0     H15094   8.193  11.170   5.394  0.3435  1.8132  1.4189
  853MOL0     H15095   8.318  11.285   5.331 -0.4428  0.0621  3.4755
  853MOL0     H15096   8.360  10.993   5.367 -1.7242  0.5014  0.7880
  853MOL0     H15097   8.489  11.121   5.348  1.5094  2.0435  4.1031
  853MOL0     H15098   8.415  11.209   5.558  0.8762 -0.4562  0.7843
  853MOL0     H15099   8.335  11.060   5.602 -1.2767 -0.4227 -1.9643
  853MOL0     H15100   8.637  11.108   5.552  2.7857 -1.7625  1.9933
  853MOL0     H15101   8.561  11.058   5.705 -1.4129 -1.7181  0.5613
  853MOL0     H15102   8.693  10.878   5.609 -1.5630  0.9169  1.1286
  853MOL0     H15103   8.631  10.916   5.447 -2.1654  0.5486 -0.8735
  853MOL0     H15104   8.413  10.828   5.533  0.4339  0.7027 -2.4218
  853MOL0     H15105   8.535  10.710   5.525 -2.1918 -0.2408 -0.1825
  853MOL0     H15106   8.589  10.566   5.746  0.5366  0.7386  1.7392
  853MOL0     H15107   8.491  10.471   5.976 -1.7098  1.6339 -1.2032
  853MOL0     H15108   8.652  10.555   6.001  0.6833 -0.0807  3.4733
  853MOL0     H15109   8.393  10.593   6.147  0.1577  1.5555  0.9612
  853MOL0     H15110   8.527  10.484   6.202 -0.9629  0.0682  0.6281
  853MOL0     H15111   8.482  10.717   6.295 -3.0020 -2.5424 -1.1880
  853MOL0     H15112   8.572  10.775   6.160 -1.2559 -0.7735 -1.6377
  853MOL0     H15113   8.717  10.743   6.342  0.6401 -0.6691  0.1417
  853MOL0     H15114   8.764  10.618   6.217 -1.7771  0.1761 -2.0315
  853MOL0     H15115   8.915  10.705   6.410 -1.0894  1.9615  0.6467
  853MOL0     H15116   9.086  10.669   6.593  0.4056 -0.3514 -0.1301
  853MOL0     H15117   9.277  10.289   6.784  1.3363  0.6269 -1.1921
  853MOL0     H15118   9.436  10.194   6.953 -2.1986 -0.6652 -1.6908
  853MOL0     H15119   9.624  10.128   7.071 -0.2281  1.0113 -0.9960
  853MOL0     H15120   9.706  10.212   6.935  0.2522  0.8206  0.1865
  853MOL0     H15121   9.904  10.245   7.050  0.0676  0.7360  0.9354
  853MOL0     H15122   9.822  10.209   7.210  0.4311 -0.0867  0.0144
  853MOL0     H15123   9.822   9.979   7.155 -0.9347 -0.9712 -1.3952
  853MOL0     H15124   9.873  10.014   6.992  2.2646 -0.7903 -0.2344
  853MOL0     H15125  10.038  10.060   7.251  0.2992 -0.7380 -0.0517
  853MOL0     H15126  10.077  10.134   7.087 -0.9194  0.1475 -0.4157
  853MOL0     H15127  10.213   9.952   7.104  0.4778  0.2716 -0.9986
  853MOL0     H15128  10.076   9.877   7.026 -0.1551 -1.1800  0.0530
  853MOL0     H15129  10.136   9.890   7.329 -0.1177 -0.1599  1.1943
  853MOL0     H15130  10.006   9.796   7.258 -1.2116 -1.3175 -4.3914
  853MOL0     H15131  10.204   9.657   7.313  1.2084 -0.6178  0.0759
  853MOL0     H15132  10.315   9.756   7.215 -0.4178  0.1741  0.4202
  853MOL0     H15133  10.109   9.628   7.059 -0.9083  0.4584  0.5268
  853MOL0     H15134  10.262   9.700   7.006 -5.3080  0.1817 -1.5418
  853MOL0     H15135   9.598  10.591   7.017 -2.6987  2.5711 -1.0899
  853MOL0     H15136   9.413  10.687   6.908  2.1431  0.2121 -0.3346
  853MOL0     H15137   8.819  10.410   6.808  2.2548 -0.8796  0.8711
  853MOL0     H15138   8.645  10.449   6.621 -0.1487  0.3596  2.8889
  853MOL0     H15139   8.402  11.413   5.111 -4.9485  0.0597  3.4514
  853MOL0     H15140   8.525  11.489   4.904  0.8795 -3.7088  0.2929
  853MOL0     H15141   8.417  11.450   4.407 -1.1202  0.7564  1.5145
  853MOL0     H15142   8.472  11.493   4.161 -0.0599  0.4588  0.5299
  853MOL0     H15143   8.523  11.586   3.986 -0.5764 -3.4927 -0.7612
  853MOL0     H15144   8.652  11.459   3.970  0.4471  0.2132  0.5197
  853MOL0     H15145   8.773  11.620   3.833 -0.0435  1.5693  0.8948
  853MOL0     H15146   8.661  11.742   3.865  3.4173  0.1903  2.5842
  853MOL0     H15147   8.507  11.512   3.755  2.8967 -1.6194  1.1103
  853MOL0     H15148   8.639  11.550   3.656  1.8251  0.8376  1.3864
  853MOL0     H15149   8.595  11.782   3.613 -0.7409  1.9164  2.1781
  853MOL0     H15150   8.461  11.673   3.573  2.3497 -0.1391 -1.8415
  853MOL0     H15151   8.243  11.911   3.835  0.9830  1.8648  0.6447
  853MOL0     H15152   8.842  11.671   4.289 -1.1587  0.5961 -0.2982
  853MOL0     H15153   8.876  11.576   4.607  3.6211  2.8996 -0.0433
  853MOL0     H15154   8.875  11.723   4.514  3.3338 -2.1622  2.1360
  853MOL0     H15155   8.744  11.699   4.632  0.5804 -0.2573  0.5684
  854MOL0     O15156  11.251   4.255  11.166 -0.7980  0.3576  0.0962
  854MOL0     C15157  11.314   4.188  11.248  0.0952  0.9515  0.1987
  854MOL0     O15158  11.283   4.057  11.272  0.3736 -0.2323  0.2756
  854MOL0     C15159  11.158   4.003  11.249 -0.1819 -0.7603 -0.1237
  854MOL0     C15160  11.142   3.870  11.201 -0.5615 -0.0957  0.1056
  854MOL0     C15161  11.012   3.826  11.184 -0.6512 -0.3961  0.3040
  854MOL0     C15162  10.900   3.902  11.203  0.2767 -0.2779 -0.8010
  854MOL0     O15163  10.770   3.857  11.181  0.3674 -0.1604  1.0862
  854MOL0     C15164  10.757   3.807  11.041 -0.1727  0.0545 -0.5841
  854MOL0     C15165  10.753   3.923  10.935  1.4443 -0.4213 -0.2089
  854MOL0     C15166  10.666   4.036  10.988  0.4769  0.2843  0.2306
  854MOL0     C15167  10.614   4.111  10.866  0.1695  0.4669 -0.2480
  854MOL0     C15168  10.524   4.231  10.889  0.4947  1.0220  1.0519
  854MOL0     C15169  10.499   4.321  10.765 -0.2276  0.1742 -0.0921
  854MOL0     C15170  10.445   4.462  10.810 -0.2051  0.6534 -0.6775
  854MOL0     C15171  10.446   4.567  10.702 -0.0475  0.3209 -0.2102
  854MOL0     N15172  10.320   4.574  10.628 -0.3341  0.3979  0.7675
  854MOL0     C15173  10.225   4.660  10.653  0.6278 -0.2783 -0.4089
  854MOL0     C15174  10.122   4.634  10.577 -0.2425  0.8466  1.3608
  854MOL0     C15175   9.989   4.700  10.587  0.3726  0.1791 -0.1822
  854MOL0     C15176   9.976   4.829  10.499 -0.7134  0.2398 -0.7160
  854MOL0     C15177   9.867   4.812  10.390  0.0508  0.2666  0.1267
  854MOL0     C15178   9.736   4.771  10.428  1.3042 -0.1637 -0.7215
  854MOL0     O15179   9.691   4.876  10.527  0.4104 -0.3112  0.2386
  854MOL0     C15180   9.560   4.853  10.577  0.5855  0.4947 -0.1791
  854MOL0     C15181   9.494   4.736  10.573 -0.1731 -0.6493  0.4191
  854MOL0     C15182   9.372   4.712  10.640 -0.1872 -0.3884  0.2946
  854MOL0     C15183   9.295   4.818  10.687 -0.2883 -0.3859 -0.2086
  854MOL0     C15184   9.166   4.795  10.761 -0.8594 -0.3945  0.7408
  854MOL0     O15185   9.143   4.669  10.810  0.6402  0.2260 -0.5552
  854MOL0     C15186   9.016   4.635  10.861  0.3804  0.0944  0.6181
  854MOL0     C15187   8.899   4.664  10.788  0.0160 -0.5884  0.6206
  854MOL0     C15188   8.774   4.638  10.849 -0.6414 -0.0566  0.4175
  854MOL0     C15189   8.767   4.577  10.978  1.0347 -0.3438  0.3907
  854MOL0     O15190   8.636   4.548  11.014 -0.5969 -0.4124  0.2169
  854MOL0     C15191   8.617   4.477  11.133  0.2230  0.2844  0.6268
  854MOL0     C15192   8.473   4.488  11.192 -0.7781  0.2725 -0.2789
  854MOL0     C15193   8.439   4.630  11.251  0.4587  0.4539  0.2783
  854MOL0     C15194   8.309   4.638  11.335 -0.3804 -0.0862  0.4062
  854MOL0     C15195   8.284   4.780  11.387 -0.5730 -0.4481 -1.2377
  854MOL0     C15196   8.365   4.806  11.522 -0.2069 -0.3472  0.3914
  854MOL0     C15197   8.352   4.949  11.585 -0.2080  0.7850 -1.1098
  854MOL0     C15198   8.450   4.974  11.702  0.1828  0.0989 -0.5064
  854MOL0    Cl15199   8.396   4.876  11.839  0.2306  0.4532 -0.3588
  854MOL0     C15200   8.883   4.545  11.041  0.8867  1.4634 -0.0338
  854MOL0     C15201   9.004   4.577  10.978  0.4500 -0.5289  0.2953
  854MOL0     O15202   9.090   4.895  10.765 -0.2945  0.1877  0.1479
  854MOL0     C15203   9.358   4.942  10.688 -0.2577 -0.7576  0.5630
  854MOL0     C15204   9.487   4.957  10.629 -0.9421 -0.7091 -0.2183
  854MOL0     N15205  10.165   4.524  10.498 -0.2855  0.1523  0.1597
  854MOL0     N15206  10.283   4.483  10.524 -0.0970  0.1448 -0.6862
  854MOL0     C15207  10.920   4.033  11.248  0.2706  0.0704  0.1809
  854MOL0     C15208  11.048   4.085  11.269  0.8595 -0.6719  0.9506
  854MOL0     C15209  11.422   4.245  11.327  0.5693 -0.7498 -0.0986
  854MOL0     C15210  11.485   4.169  11.421 -0.5295  0.5013  0.4128
  854MOL0     C15211  11.582   4.223  11.503  0.9484 -0.8382  1.0114
  854MOL0     C15212  11.625   4.355  11.494  0.5653 -0.0379 -0.2037
  854MOL0     O15213  11.712   4.399  11.593  0.7485 -0.1643  0.9634
  854MOL0     C15214  11.674   4.529  11.656 -0.0638 -0.2315  0.1131
  854MOL0     C15215  11.689   4.492  11.803  0.8807 -0.0191  0.2720
  854MOL0     C15216  11.833   4.505  11.848  0.3201  0.2097  0.5933
  854MOL0     C15217  11.923   4.387  11.818  1.1293  0.2725 -0.0709
  854MOL0     C15218  11.877   4.253  11.854  0.1466  0.8972 -0.5100
  854MOL0     C15219  11.830   4.141  11.890  0.5465  0.2250 -0.6348
  854MOL0     C15220  11.556   4.437  11.404  0.1440 -0.0470 -0.6757
  854MOL0     C15221  11.462   4.381  11.321 -0.4805  1.0330 -0.7080
  854MOL0     C15222  11.399   4.477  11.219 -0.8507 -0.2338  0.0786
  854MOL0     H15223  11.231   3.809  11.192  1.0429  2.1886 -0.4681
  854MOL0     H15224  10.999   3.721  11.160 -0.3232  0.1618 -2.6354
  854MOL0     H15225  10.831   3.729  11.019 -1.1344 -0.8170 -0.8288
  854MOL0     H15226  10.665   3.748  11.030  0.4458 -0.7814 -1.5527
  854MOL0     H15227  10.714   3.879  10.843 -1.0282 -1.8561  1.4216
  854MOL0     H15228  10.853   3.967  10.922  1.6301 -1.4463 -2.8503
  854MOL0     H15229  10.726   4.089  11.063 -0.6695  0.3553  1.1325
  854MOL0     H15230  10.575   4.012  11.043 -1.3034  4.0099 -0.7338
  854MOL0     H15231  10.701   4.133  10.804  0.3432 -1.9945 -0.9710
  854MOL0     H15232  10.563   4.039  10.802 -0.4378  2.0901 -1.6562
  854MOL0     H15233  10.426   4.212  10.933 -0.2331  2.0026 -0.0788
  854MOL0     H15234  10.578   4.287  10.966  0.4761 -0.2810  2.0611
  854MOL0     H15235  10.591   4.328  10.706 -0.5684  1.2123 -0.5285
  854MOL0     H15236  10.434   4.269  10.694  0.5738  2.1981 -2.4479
  854MOL0     H15237  10.505   4.491  10.896 -1.7192  1.1138  0.2598
  854MOL0     H15238  10.343   4.470  10.848  0.3794  1.6357  0.7712
  854MOL0     H15239  10.458   4.667  10.744 -0.3651 -0.1721  1.0925
  854MOL0     H15240  10.531   4.533  10.642  2.1574 -1.8562  3.7686
  854MOL0     H15241  10.230   4.736  10.731 -1.9285 -1.0095  0.5885
  854MOL0     H15242   9.911   4.626  10.569 -0.0468  0.2026  1.4040
  854MOL0     H15243   9.976   4.727  10.692  0.9151 -1.1795  0.2572
  854MOL0     H15244   9.955   4.914  10.565 -1.3476 -0.4453 -0.0019
  854MOL0     H15245  10.071   4.845  10.448  0.4626  0.1631  1.3464
  854MOL0     H15246   9.909   4.742  10.317 -1.1627  0.1206 -0.4479
  854MOL0     H15247   9.857   4.907  10.337  4.6055 -0.6969 -3.1551
  854MOL0     H15248   9.724   4.671  10.470 -0.5933  1.2424  2.4601
  854MOL0     H15249   9.674   4.792  10.340  0.2047  0.5455  0.1918
  854MOL0     H15250   9.531   4.645  10.526 -4.1790 -1.9804 -0.5971
  854MOL0     H15251   9.336   4.610  10.639  1.5168 -1.0246  0.9186
  854MOL0     H15252   8.904   4.706  10.687 -0.5591 -1.1526  0.3553
  854MOL0     H15253   8.678   4.647  10.800  0.3873 -0.5991 -1.8103
  854MOL0     H15254   8.655   4.375  11.119  0.6931  0.7640 -2.1265
  854MOL0     H15255   8.679   4.516  11.214 -1.3833  3.1859  0.5557
  854MOL0     H15256   8.398   4.471  11.114  0.2179 -1.1925 -0.9507
  854MOL0     H15257   8.467   4.420  11.278  2.6579  0.9926  0.6840
  854MOL0     H15258   8.525   4.669  11.306  0.4140 -0.3751  0.9603
  854MOL0     H15259   8.436   4.696  11.164  0.1631  2.4147  1.6966
  854MOL0     H15260   8.316   4.563  11.414  0.0473  1.5809  2.0195
  854MOL0     H15261   8.233   4.600  11.266 -1.0641  0.3975  0.8864
  854MOL0     H15262   8.178   4.787  11.412 -1.4863  0.4149 -4.7351
  854MOL0     H15263   8.305   4.852  11.308  0.6718 -1.7951 -2.2036
  854MOL0     H15264   8.327   4.728  11.588  0.2730  0.5888  1.8188
  854MOL0     H15265   8.472   4.782  11.526 -0.1949 -0.6247 -1.0752
  854MOL0     H15266   8.248   4.962  11.618  0.5361  0.3537  1.6491
  854MOL0     H15267   8.368   5.030  11.514  2.0647  0.9576 -0.4746
  854MOL0     H15268   8.554   4.944  11.684  0.4972 -0.1643  1.4660
  854MOL0     H15269   8.446   5.077  11.738 -4.2828 -0.9043  2.7500
  854MOL0     H15270   8.862   4.496  11.136 -1.6867  1.0566 -0.7276
  854MOL0     H15271   9.102   4.563  11.023  0.8154  1.3020  0.1250
  854MOL0     H15272   9.312   5.025  10.741 -1.0459  1.6672 -3.4933
  854MOL0     H15273   9.539   5.052  10.636  0.2695 -1.4973  3.8103
  854MOL0     H15274  10.828   4.085  11.273 -1.3281 -3.4625  2.3605
  854MOL0     H15275  11.059   4.185  11.310  0.8703 -0.2854  0.0260
  854MOL0     H15276  11.463   4.063  11.429 -0.0635  0.0207 -2.9312
  854MOL0     H15277  11.616   4.160  11.585  0.6735 -4.2337 -1.2453
  854MOL0     H15278  11.578   4.571  11.626  1.9453  2.9499 -2.6026
  854MOL0     H15279  11.749   4.598  11.615  1.0545 -3.0981 -3.2150
  854MOL0     H15280  11.648   4.396  11.837  1.5214 -0.0558  0.9689
  854MOL0     H15281  11.634   4.569  11.857  1.0661 -0.5892  1.3004
  854MOL0     H15282  11.833   4.524  11.956 -0.6946  0.5018  0.5471
  854MOL0     H15283  11.872   4.593  11.796 -1.9240  1.3059  0.6782
  854MOL0     H15284  11.958   4.372  11.715  2.3258 -0.2843  0.4031
  854MOL0     H15285  12.014   4.400  11.877  1.2290 -3.5008  0.8454
  854MOL0     H15286  11.795   4.052  11.938  0.2745  0.2609 -0.7614
  854MOL0     H15287  11.588   4.540  11.393 -1.2818  0.2762 -2.1781
  854MOL0     H15288  11.409   4.448  11.114  1.7542  0.9575 -0.0704
  854MOL0     H15289  11.299   4.512  11.247  0.6144  2.7793  2.0044
  854MOL0     H15290  11.451   4.573  11.213 -2.4961  0.6008 -2.8683
  855MOL0     O15291   0.354   7.163   8.061 -0.0924  0.9845  0.0128
  855MOL0     C15292   0.283   7.096   8.144  0.1185  0.0095 -0.5200
  855MOL0     O15293   0.247   7.152   8.267  0.1436  0.1047 -0.1430
  855MOL0     C15294   0.270   7.283   8.315  1.0514 -0.4825  0.7267
  855MOL0     C15295   0.179   7.330   8.412 -0.8599 -0.3719 -0.0476
  855MOL0     C15296   0.207   7.458   8.467  0.3550 -0.3522 -0.2593
  855MOL0     C15297   0.314   7.534   8.435 -0.7053  0.7329 -0.4748
  855MOL0     O15298   0.335   7.659   8.461 -0.4429 -0.2746  0.2921
  855MOL0     C15299   0.250   7.730   8.557 -0.1057  0.6811 -0.7943
  855MOL0     C15300   0.296   7.877   8.533 -0.0306 -0.3863 -0.6641
  855MOL0     C15301   0.231   7.972   8.639  0.0236 -0.4401  0.4058
  855MOL0     C15302   0.301   8.111   8.646 -0.3121 -0.1345  0.8379
  855MOL0     C15303   0.211   8.227   8.705 -0.1790  1.3517 -0.1690
  855MOL0     C15304   0.284   8.359   8.713 -0.6470 -0.2646  0.5062
  855MOL0     C15305   0.198   8.478   8.761 -0.8786  1.4496  0.8375
  855MOL0     C15306   0.272   8.576   8.851  1.0445 -0.2460 -0.4761
  855MOL0     N15307   0.193   8.704   8.854  0.5247  0.0612  0.7590
  855MOL0     C15308   0.059   8.715   8.892 -0.5513 -0.3727  0.6036
  855MOL0     C15309   0.026   8.832   8.830 -0.4657 -0.6618 -0.7468
  855MOL0     C15310  -0.095   8.907   8.863 -0.4924  1.0819 -0.9162
  855MOL0     C15311  -0.172   8.953   8.741 -0.1961  0.2157 -0.5728
  855MOL0     C15312  -0.234   8.832   8.665  1.5183 -0.4324  0.2306
  855MOL0     C15313  -0.308   8.880   8.538 -0.4214 -0.2547 -0.3515
  855MOL0     O15314  -0.427   8.940   8.578  0.1528 -0.1238  0.5262
  855MOL0     C15315  -0.547   8.871   8.582  0.9754  0.6306 -0.3315
  855MOL0     C15316  -0.570   8.740   8.535 -0.0967  0.3806 -0.4351
  855MOL0     C15317  -0.689   8.670   8.548 -0.1474 -0.2894  0.0260
  855MOL0     C15318  -0.794   8.728   8.615  0.9877  0.4699 -0.0060
  855MOL0     C15319  -0.917   8.657   8.631 -0.5568 -0.8001 -0.4372
  855MOL0     O15320  -0.938   8.549   8.543  0.1699 -0.8169 -0.6967
  855MOL0     C15321  -1.050   8.472   8.571 -0.2186 -0.4252  0.4227
  855MOL0     C15322  -1.124   8.438   8.456 -0.5168 -0.0110  0.1991
  855MOL0     C15323  -1.228   8.344   8.472 -0.0807 -0.7449  0.5412
  855MOL0     C15324  -1.256   8.285   8.596  0.6849  1.2758 -0.2211
  855MOL0     O15325  -1.374   8.202   8.600 -0.4718  0.1159  0.4546
  855MOL0     C15326  -1.370   8.080   8.510 -0.4828 -0.6005  0.0555
  855MOL0     C15327  -1.235   8.010   8.529  1.0025 -0.0045  0.5743
  855MOL0     C15328  -1.241   7.859   8.517 -0.4939  0.1780  0.0614
  855MOL0     C15329  -1.105   7.785   8.513 -0.1102  0.3876  0.2570
  855MOL0     C15330  -1.112   7.637   8.544 -0.5764  0.3605 -0.6654
  855MOL0     C15331  -0.962   7.585   8.538  0.5608  0.4963 -0.5002
  855MOL0     C15332  -0.971   7.435   8.576  1.1282  0.2313 -1.0478
  855MOL0     C15333  -0.837   7.347   8.556 -0.5482  0.5033 -0.9774
  855MOL0    Cl15334  -0.701   7.378   8.669  0.4563 -0.1075  0.2564
  855MOL0     C15335  -1.178   8.314   8.708 -0.0440 -0.1842  0.4968
  855MOL0     C15336  -1.082   8.415   8.692  0.9147  0.6262  0.4630
  855MOL0     O15337  -0.995   8.698   8.712  0.7176  0.3615 -0.3991
  855MOL0     C15338  -0.779   8.863   8.656  0.8634  0.3462 -0.3977
  855MOL0     C15339  -0.657   8.935   8.642  0.6536  0.6489  0.4016
  855MOL0     N15340   0.128   8.896   8.765  0.1173 -0.7991  0.1560
  855MOL0     N15341   0.234   8.813   8.778  1.0972 -0.7585 -0.9661
  855MOL0     C15342   0.405   7.485   8.345  0.0319  0.2331 -0.8228
  855MOL0     C15343   0.376   7.360   8.279  0.0482 -0.6967  0.2429
  855MOL0     C15344   0.220   6.970   8.116 -0.6920  0.3647 -0.0773
  855MOL0     C15345   0.081   6.947   8.130 -0.5804 -0.5873  0.8522
  855MOL0     C15346   0.018   6.829   8.083  0.3681 -0.5720  0.2246
  855MOL0     C15347   0.089   6.734   8.017 -0.1763 -0.3915  0.1394
  855MOL0     O15348   0.017   6.631   7.957 -0.5372  0.5512  1.0964
  855MOL0     C15349   0.091   6.522   7.895  0.2674 -0.0951 -0.1177
  855MOL0     C15350   0.012   6.405   7.842  0.2886 -0.0346  0.7506
  855MOL0     C15351  -0.085   6.441   7.724  1.3534 -0.3148  0.4558
  855MOL0     C15352  -0.085   6.347   7.600 -0.2525  0.3960  0.3397
  855MOL0     C15353   0.041   6.350   7.518  0.9091 -0.0950 -0.1424
  855MOL0     C15354   0.143   6.351   7.459  0.3711 -0.6038  1.0563
  855MOL0     C15355   0.232   6.748   8.013 -0.7151 -0.0595  0.3163
  855MOL0     C15356   0.301   6.865   8.066 -0.4956 -0.3859  1.2574
  855MOL0     C15357   0.455   6.877   8.051 -0.0907  0.7267  0.0238
  855MOL0     H15358   0.089   7.277   8.442 -0.3480 -0.5205  1.3249
  855MOL0     H15359   0.139   7.499   8.541 -1.9412 -1.7425 -1.4949
  855MOL0     H15360   0.145   7.734   8.525 -0.6783 -0.4748  0.7940
  855MOL0     H15361   0.249   7.694   8.660  0.5605 -0.3894 -1.1446
  855MOL0     H15362   0.263   7.913   8.435 -1.3506 -0.9025 -0.4251
  855MOL0     H15363   0.403   7.876   8.556 -0.7120 -0.7915  3.2694
  855MOL0     H15364   0.223   7.929   8.739  2.9449  1.2874  1.4942
  855MOL0     H15365   0.127   7.996   8.615 -0.2315 -2.8240 -1.1738
  855MOL0     H15366   0.393   8.109   8.706  0.8749  2.2091 -0.7492
  855MOL0     H15367   0.323   8.138   8.542 -1.2839  0.1112  0.6832
  855MOL0     H15368   0.117   8.244   8.652  0.1948 -0.1271 -1.3825
  855MOL0     H15369   0.187   8.196   8.807  0.9565 -1.4920 -0.6936
  855MOL0     H15370   0.377   8.338   8.766 -1.2912 -3.0931  0.6631
  855MOL0     H15371   0.307   8.383   8.608  0.1744 -2.1984  0.2022
  855MOL0     H15372   0.116   8.429   8.815 -0.7553 -0.0721 -0.3076
  855MOL0     H15373   0.151   8.524   8.674  2.8063 -0.3289 -2.3907
  855MOL0     H15374   0.283   8.532   8.951  0.4113 -0.8208 -0.6471
  855MOL0     H15375   0.366   8.611   8.808  0.9794  1.8006  0.8972
  855MOL0     H15376   0.005   8.655   8.965 -1.1238 -0.2894  0.2611
  855MOL0     H15377  -0.156   8.841   8.925  1.3920  1.5627  1.5805
  855MOL0     H15378  -0.066   8.995   8.920  1.7156 -0.0470 -0.1781
  855MOL0     H15379  -0.248   9.027   8.766  1.7345  1.4643  2.0856
  855MOL0     H15380  -0.115   9.009   8.667 -0.9371  2.0971  0.2359
  855MOL0     H15381  -0.297   8.763   8.722  2.0569 -1.2000 -0.0775
  855MOL0     H15382  -0.152   8.767   8.633  1.8361 -0.1899  0.5507
  855MOL0     H15383  -0.319   8.795   8.470  0.9787 -1.1344  0.4849
  855MOL0     H15384  -0.255   8.949   8.471  0.7674 -0.1381  0.6721
  855MOL0     H15385  -0.485   8.684   8.497 -0.5483 -0.5770 -0.0724
  855MOL0     H15386  -0.709   8.568   8.518 -2.3345 -0.8983  3.0575
  855MOL0     H15387  -1.101   8.486   8.362  2.4835 -1.3633  0.1288
  855MOL0     H15388  -1.289   8.327   8.384  0.5281  0.2717 -0.0975
  855MOL0     H15389  -1.436   7.999   8.542  0.1269 -1.1503 -0.0635
  855MOL0     H15390  -1.389   8.087   8.403 -2.8834 -3.3995  0.1610
  855MOL0     H15391  -1.166   8.050   8.454  0.1070  3.4608  1.4370
  855MOL0     H15392  -1.203   8.015   8.633 -1.2719 -2.4628  1.5132
  855MOL0     H15393  -1.309   7.832   8.598 -0.5797 -0.6413 -0.2720
  855MOL0     H15394  -1.290   7.822   8.426  1.9916 -4.3927  0.2637
  855MOL0     H15395  -1.054   7.838   8.594 -1.5620  0.6692  1.0295
  855MOL0     H15396  -1.051   7.801   8.419 -1.5138 -0.2943 -0.7151
  855MOL0     H15397  -1.177   7.586   8.472 -0.0219  1.0437 -1.6710
  855MOL0     H15398  -1.154   7.635   8.645  1.7530  1.7641  0.4095
  855MOL0     H15399  -0.927   7.598   8.435 -1.1112  1.1736 -1.0273
  855MOL0     H15400  -0.885   7.634   8.598 -0.9115 -1.2323  3.0803
  855MOL0     H15401  -1.042   7.386   8.508 -1.1692 -1.3709  2.2165
  855MOL0     H15402  -1.007   7.437   8.680  1.6836  0.3160 -0.8528
  855MOL0     H15403  -0.865   7.242   8.569 -1.2926  0.8757  0.7282
  855MOL0     H15404  -0.806   7.368   8.453 -0.1133 -0.4140 -1.0472
  855MOL0     H15405  -1.189   8.246   8.791 -0.6579 -0.8373 -0.1080
  855MOL0     H15406  -1.021   8.448   8.776  0.6558  3.4165 -0.3339
  855MOL0     H15407  -0.870   8.900   8.702 -0.9347 -4.1203  0.2008
  855MOL0     H15408  -0.639   9.033   8.684  2.1343  0.9361 -0.8221
  855MOL0     H15409   0.491   7.537   8.305  2.2107 -2.6757 -0.2679
  855MOL0     H15410   0.453   7.331   8.208  0.3806 -0.2468  0.4135
  855MOL0     H15411   0.017   7.030   8.160  2.5432  2.8062 -1.0705
  855MOL0     H15412  -0.089   6.817   8.095  0.4243 -0.9069  0.4047
  855MOL0     H15413   0.151   6.478   7.975 -1.0827 -1.1481  0.3447
  855MOL0     H15414   0.155   6.564   7.816  2.6105  3.6865  3.4075
  855MOL0     H15415  -0.043   6.379   7.932 -2.4452  1.6121 -0.3077
  855MOL0     H15416   0.089   6.337   7.805  1.8648  1.3722  1.3379
  855MOL0     H15417  -0.072   6.542   7.684  2.6983 -1.1306 -1.2874
  855MOL0     H15418  -0.189   6.440   7.759  1.8012 -1.6742  1.8600
  855MOL0     H15419  -0.118   6.245   7.618  0.5831 -0.3074 -1.8077
  855MOL0     H15420  -0.171   6.387   7.546 -1.3118  1.8817  2.8967
  855MOL0     H15421   0.231   6.372   7.402 -0.2626  1.5781  0.7957
  855MOL0     H15422   0.278   6.659   7.971  0.1224  0.4637  0.0951
  855MOL0     H15423   0.484   6.970   8.002 -0.1835 -0.2773 -2.0835
  855MOL0     H15424   0.509   6.873   8.146  1.0147 -1.1849 -0.6223
  855MOL0     H15425   0.495   6.805   7.978  0.3676 -0.3703  1.3054
  856MOL0     O15426   7.765   4.099   7.380 -0.3179  0.1420 -0.0322
  856MOL0     C15427   7.818   4.182   7.312  1.2118  0.1688  0.7427
  856MOL0     O15428   7.825   4.176   7.176 -0.8974  0.0619  0.4441
  856MOL0     C15429   7.733   4.101   7.114 -0.3024 -0.1614  0.3305
  856MOL0     C15430   7.738   3.954   7.118 -0.5727 -1.3009  0.2685
  856MOL0     C15431   7.632   3.879   7.057 -0.2415 -0.2907  0.2381
  856MOL0     C15432   7.511   3.936   7.016 -0.8137  0.7829 -0.2401
  856MOL0     O15433   7.402   3.864   6.957 -0.6193 -0.5312  0.1651
  856MOL0     C15434   7.439   3.801   6.830  0.0014 -0.0017 -0.3961
  856MOL0     C15435   7.327   3.766   6.745  0.5695 -0.1567  0.0812
  856MOL0     C15436   7.359   3.651   6.651 -0.7090  0.7375 -0.3108
  856MOL0     C15437   7.239   3.623   6.549 -0.4393  0.1188 -0.6184
  856MOL0     C15438   7.229   3.480   6.500 -0.8533  0.1912  0.2103
  856MOL0     C15439   7.338   3.443   6.397 -0.5069 -0.4356 -0.9404
  856MOL0     C15440   7.324   3.517   6.262 -0.7740 -0.0323  0.2306
  856MOL0     C15441   7.445   3.485   6.175 -0.6503 -0.0564 -0.1524
  856MOL0     N15442   7.416   3.526   6.037  0.4008  0.1728 -0.1228
  856MOL0     C15443   7.375   3.447   5.936 -1.0585 -0.3644 -0.9174
  856MOL0     C15444   7.383   3.528   5.826 -0.2601  0.1621 -0.4913
  856MOL0     C15445   7.344   3.480   5.687 -0.1684 -0.1676  0.4243
  856MOL0     C15446   7.189   3.476   5.666  1.0103  0.4267  0.0669
  856MOL0     C15447   7.118   3.609   5.677  0.7406 -1.0796 -1.2704
  856MOL0     C15448   7.023   3.596   5.794  0.1147  0.2303 -0.2167
  856MOL0     O15449   6.929   3.490   5.761  0.4048  0.0140  0.2152
  856MOL0     C15450   6.818   3.495   5.841 -0.0358 -0.1655 -0.7718
  856MOL0     C15451   6.810   3.558   5.964 -0.0937  0.7678  0.7788
  856MOL0     C15452   6.695   3.568   6.035 -0.1355  0.7753 -0.2126
  856MOL0     C15453   6.589   3.478   6.001  0.0280  0.1513  0.1797
  856MOL0     C15454   6.461   3.467   6.082 -0.9380  0.1252  0.2670
  856MOL0     O15455   6.352   3.417   6.022 -0.5604  0.3205 -0.5003
  856MOL0     C15456   6.231   3.411   6.090  0.5411 -0.7443  0.6967
  856MOL0     C15457   6.126   3.491   6.030 -0.2238  0.5328  0.2677
  856MOL0     C15458   5.994   3.477   6.082  0.0531 -0.0152 -0.7848
  856MOL0     C15459   5.965   3.393   6.190  0.4205 -0.1911 -0.0732
  856MOL0     O15460   5.844   3.373   6.236  0.4123 -0.7744  0.2567
  856MOL0     C15461   5.730   3.424   6.163  0.3327  0.4634 -0.3449
  856MOL0     C15462   5.607   3.374   6.232 -0.1353  0.8818 -0.2483
  856MOL0     C15463   5.500   3.482   6.233  0.3156  0.6155  1.0268
  856MOL0     C15464   5.536   3.624   6.270  0.6864  0.9579  0.2471
  856MOL0     C15465   5.443   3.684   6.376 -0.3873 -0.2080 -0.3904
  856MOL0     C15466   5.330   3.766   6.311 -0.8059  0.2958 -0.2267
  856MOL0     C15467   5.234   3.847   6.396  0.2350  0.5992  0.6259
  856MOL0     C15468   5.150   3.946   6.307  0.1081  0.3128 -0.4860
  856MOL0    Cl15469   5.280   4.071   6.248  0.9380  0.1787  0.2327
  856MOL0     C15470   6.065   3.325   6.253  0.6179  0.1423  0.6526
  856MOL0     C15471   6.197   3.326   6.198 -0.3512  0.7454 -0.1353
  856MOL0     O15472   6.470   3.493   6.198  0.7549  0.0673 -0.3754
  856MOL0     C15473   6.594   3.407   5.881  1.0036 -0.7357 -0.2335
  856MOL0     C15474   6.708   3.417   5.796 -0.9531  0.1939 -0.3376
  856MOL0     N15475   7.424   3.659   5.867  0.2168  0.6517 -0.4049
  856MOL0     N15476   7.445   3.653   5.989 -0.2312  0.4958 -0.3420
  856MOL0     C15477   7.514   4.077   7.004 -0.6037 -0.4683 -0.0980
  856MOL0     C15478   7.621   4.158   7.052 -0.0499 -0.5310  0.2653
  856MOL0     C15479   7.880   4.293   7.376  1.2202 -0.4611  0.2758
  856MOL0     C15480   7.953   4.266   7.498  0.2196  0.1729  0.7300
  856MOL0     C15481   8.008   4.380   7.560  0.0972  0.5512  0.3636
  856MOL0     C15482   8.009   4.505   7.506  0.0497  0.6547 -0.8090
  856MOL0     O15483   8.081   4.594   7.580  0.1124  0.5554  0.0702
  856MOL0     C15484   8.070   4.727   7.542  0.0499  0.3401  0.4965
  856MOL0     C15485   8.108   4.826   7.654  0.9067  0.0724 -0.2047
  856MOL0     C15486   8.109   4.973   7.600 -0.2148 -0.9262 -0.8042
  856MOL0     C15487   8.260   5.012   7.564  0.8117  0.4960  0.7398
  856MOL0     C15488   8.289   5.156   7.554 -1.6775  0.1235 -0.9694
  856MOL0     C15489   8.315   5.271   7.519  1.2675  0.4444 -0.7325
  856MOL0     C15490   7.940   4.524   7.389  0.4843  0.8527 -0.1418
  856MOL0     C15491   7.883   4.418   7.318  0.3701  0.3504  0.4970
  856MOL0     C15492   7.788   4.463   7.192  0.1320 -0.6562  0.0110
  856MOL0     H15493   7.827   3.908   7.160  0.8720  1.2842  0.2666
  856MOL0     H15494   7.653   3.773   7.042 -0.1402  0.2230 -4.7161
  856MOL0     H15495   7.499   3.868   6.769 -0.0557  1.6315  1.2521
  856MOL0     H15496   7.488   3.706   6.855 -1.3698 -0.5125  0.4886
  856MOL0     H15497   7.273   3.850   6.700  0.8728  0.1020  0.1983
  856MOL0     H15498   7.258   3.715   6.813 -0.6120  0.5151 -0.5767
  856MOL0     H15499   7.366   3.562   6.715 -1.5667  2.2556  2.0287
  856MOL0     H15500   7.453   3.667   6.597  0.9077  0.4614  2.2121
  856MOL0     H15501   7.149   3.662   6.599  1.2937  2.8339  0.6591
  856MOL0     H15502   7.253   3.703   6.476  2.1663 -0.7151 -1.1370
  856MOL0     H15503   7.259   3.414   6.582  3.7549  1.2370 -0.3050
  856MOL0     H15504   7.130   3.457   6.461 -0.4075  0.4270 -1.1385
  856MOL0     H15505   7.442   3.451   6.430 -1.1167  2.8580  0.6270
  856MOL0     H15506   7.320   3.336   6.387  2.1755 -0.9036 -1.5993
  856MOL0     H15507   7.336   3.626   6.263  1.7105 -0.1103 -3.2523
  856MOL0     H15508   7.236   3.474   6.214  0.4860  0.2184 -2.4769
  856MOL0     H15509   7.539   3.529   6.209 -1.1312  0.0237  1.1202
  856MOL0     H15510   7.461   3.377   6.174  1.7812  0.1593 -3.6247
  856MOL0     H15511   7.326   3.350   5.937 -1.1540 -0.3170 -1.0000
  856MOL0     H15512   7.386   3.553   5.617 -1.5826  1.3917  1.1261
  856MOL0     H15513   7.391   3.386   5.659  0.4514  0.0849  0.5926
  856MOL0     H15514   7.151   3.435   5.572  0.0624  0.4227  0.4458
  856MOL0     H15515   7.162   3.404   5.743  0.3726  0.4079 -0.1662
  856MOL0     H15516   7.053   3.628   5.591 -2.9048 -0.7235  1.3267
  856MOL0     H15517   7.181   3.695   5.701  0.3567 -0.4900 -2.3102
  856MOL0     H15518   6.963   3.685   5.818 -2.4254 -1.3199 -0.3880
  856MOL0     H15519   7.079   3.561   5.881 -2.3307 -0.4997  1.1675
  856MOL0     H15520   6.890   3.619   6.005  0.9770 -0.7303  1.0079
  856MOL0     H15521   6.681   3.622   6.129  0.5774  0.3491  0.1463
  856MOL0     H15522   6.166   3.549   5.948  1.1999 -0.9714 -0.1523
  856MOL0     H15523   5.916   3.530   6.030 -0.7349 -1.3361 -0.9945
  856MOL0     H15524   5.742   3.532   6.165  1.1995  0.3886  2.3276
  856MOL0     H15525   5.726   3.393   6.058 -0.3273 -1.6383  0.2467
  856MOL0     H15526   5.575   3.275   6.199 -2.3765  0.8718  1.6698
  856MOL0     H15527   5.632   3.366   6.339 -0.1206  0.9147 -0.2491
  856MOL0     H15528   5.480   3.494   6.126 -0.5251 -0.6416  1.0197
  856MOL0     H15529   5.411   3.451   6.289 -0.6887  1.8038  0.1573
  856MOL0     H15530   5.534   3.682   6.177  3.0055 -2.0241 -1.8750
  856MOL0     H15531   5.633   3.630   6.320 -0.3333 -1.2845  2.7068
  856MOL0     H15532   5.498   3.756   6.438 -0.3351  0.3697 -1.0857
  856MOL0     H15533   5.403   3.608   6.443  2.2090 -0.5457  0.8710
  856MOL0     H15534   5.365   3.836   6.234  0.5174 -1.8783 -1.7276
  856MOL0     H15535   5.272   3.689   6.260 -0.0873 -1.5940  1.6403
  856MOL0     H15536   5.283   3.906   6.473  0.0696 -0.1277  1.3057
  856MOL0     H15537   5.172   3.774   6.449  2.2143 -3.0754 -1.7043
  856MOL0     H15538   5.101   3.901   6.220 -2.5048 -2.0353  1.9730
  856MOL0     H15539   5.082   3.991   6.380  2.5537  1.3782  1.2561
  856MOL0     H15540   6.056   3.278   6.350  2.2107  0.6201  1.0598
  856MOL0     H15541   6.278   3.271   6.245 -0.4514  2.1176  1.7584
  856MOL0     H15542   6.509   3.343   5.862  1.3932 -1.9434  1.7563
  856MOL0     H15543   6.714   3.357   5.705  1.9162 -0.7101  0.3390
  856MOL0     H15544   7.433   4.131   6.956  1.3340  3.1924  0.3968
  856MOL0     H15545   7.632   4.265   7.038  3.3627 -0.8652 -0.4554
  856MOL0     H15546   7.943   4.168   7.543  1.5092 -1.4952 -2.3519
  856MOL0     H15547   8.057   4.376   7.657  0.1751  0.4415  0.3202
  856MOL0     H15548   7.970   4.749   7.504  0.3269 -3.5363 -3.3382
  856MOL0     H15549   8.139   4.741   7.458  1.4072 -3.3324  0.8050
  856MOL0     H15550   8.196   4.795   7.711  0.6430  0.6376  0.5232
  856MOL0     H15551   8.038   4.819   7.738  0.0365 -2.3742 -1.0589
  856MOL0     H15552   8.069   5.047   7.670 -3.1403  0.9624 -4.1402
  856MOL0     H15553   8.055   4.988   7.506 -0.8041  1.6125 -0.1478
  856MOL0     H15554   8.322   4.969   7.643 -0.2675  1.6666  2.2958
  856MOL0     H15555   8.294   4.954   7.478  2.2867  1.0411  0.9364
  856MOL0     H15556   8.337   5.372   7.492 -0.2132  0.5449 -1.6689
  856MOL0     H15557   7.956   4.614   7.331  0.2278  0.6051 -0.6058
  856MOL0     H15558   7.782   4.572   7.191 -0.9725 -0.6699  1.6751
  856MOL0     H15559   7.835   4.432   7.098 -1.0897 -1.4959 -0.3548
  856MOL0     H15560   7.687   4.420   7.194  0.4096 -1.3812 -0.7992
  857MOL0     O15561  10.756   3.771   3.143 -0.8019 -0.3723  0.4083
  857MOL0     C15562  10.834   3.697   3.204  0.2405  0.6179  0.4889
  857MOL0     O15563  10.950   3.741   3.263  0.1669  0.0933 -0.4645
  857MOL0     C15564  10.979   3.872   3.281 -0.1680  0.4384 -0.3650
  857MOL0     C15565  11.106   3.909   3.294 -0.6821  0.3739 -0.1963
  857MOL0     C15566  11.166   4.029   3.339  0.8429  0.1103 -0.0068
  857MOL0     C15567  11.067   4.126   3.372 -0.9460  0.4214  0.2523
  857MOL0     O15568  11.101   4.251   3.407  0.1171 -0.7919  0.2312
  857MOL0     C15569  11.080   4.287   3.546  0.6827  0.2298 -0.2065
  857MOL0     C15570  11.109   4.435   3.561  0.2824 -0.4018  0.0359
  857MOL0     C15571  11.138   4.467   3.704 -0.4999 -0.0801 -0.0738
  857MOL0     C15572  11.009   4.445   3.783 -0.3925 -0.9473 -0.0007
  857MOL0     C15573  11.010   4.521   3.911 -0.1051  0.2265 -0.6005
  857MOL0     C15574  11.002   4.678   3.890 -0.0849  0.0535  0.4925
  857MOL0     C15575  11.001   4.748   4.022 -0.4944 -0.1155 -0.3075
  857MOL0     C15576  10.995   4.904   3.995 -1.1154  0.0123  0.0147
  857MOL0     N15577  10.993   4.979   4.119  0.2453 -0.2815 -0.5656
  857MOL0     C15578  11.100   4.984   4.202 -0.7966  0.5043  0.1116
  857MOL0     C15579  11.045   5.017   4.324  0.4571 -0.5561 -1.3305
  857MOL0     C15580  11.129   5.039   4.448  0.4833 -0.3089 -0.3580
  857MOL0     C15581  11.204   5.177   4.421  0.1919  0.4321 -0.7514
  857MOL0     C15582  11.280   5.211   4.551 -0.2494 -0.7248 -0.1784
  857MOL0     C15583  11.339   5.352   4.527 -0.1710 -0.9542  0.5558
  857MOL0     O15584  11.375   5.412   4.660 -0.6002  0.0736  0.3806
  857MOL0     C15585  11.426   5.541   4.662 -0.6177  0.7100  0.0564
  857MOL0     C15586  11.432   5.612   4.785 -0.1951 -0.3020 -0.7416
  857MOL0     C15587  11.485   5.749   4.795 -0.3717  0.1873  1.2327
  857MOL0     C15588  11.534   5.810   4.675  0.7177 -0.2597 -0.3772
  857MOL0     C15589  11.584   5.952   4.696 -0.2667  1.2828 -0.5362
  857MOL0     O15590  11.559   6.017   4.812 -0.5587  0.4298  0.0157
  857MOL0     C15591  11.571   6.154   4.804  0.7628 -0.5150  0.2360
  857MOL0     C15592  11.454   6.224   4.772  0.3208 -0.7788 -0.0467
  857MOL0     C15593  11.466   6.360   4.753 -0.8422 -0.4302 -0.1375
  857MOL0     C15594  11.590   6.429   4.763 -1.0263  0.0110  0.0116
  857MOL0     O15595  11.607   6.569   4.742  0.6513  0.3267 -0.2238
  857MOL0     C15596  11.510   6.659   4.798  0.2677  0.0183  0.0019
  857MOL0     C15597  11.408   6.701   4.690 -0.5664  0.4545 -0.0039
  857MOL0     C15598  11.345   6.828   4.741  0.4402 -0.8990 -0.2551
  857MOL0     C15599  11.436   6.955   4.760 -0.0866 -0.3610  0.2649
  857MOL0     C15600  11.337   7.084   4.746 -0.3271  0.5370 -0.2715
  857MOL0     C15601  11.400   7.195   4.828 -0.5262  0.5170  0.5462
  857MOL0     C15602  11.303   7.316   4.849 -0.3807  0.2551 -0.0564
  857MOL0     C15603  11.361   7.436   4.940 -0.4072  0.2367  0.4366
  857MOL0    Cl15604  11.237   7.562   4.993  0.3835 -0.1055 -0.6236
  857MOL0     C15605  11.710   6.351   4.795  0.3505 -0.3139  0.4601
  857MOL0     C15606  11.696   6.208   4.824  0.0888 -0.5518  0.2107
  857MOL0     O15607  11.647   5.997   4.606 -0.0912  0.6285  0.5762
  857MOL0     C15608  11.525   5.752   4.547  1.0996 -0.8310  0.3304
  857MOL0     C15609  11.460   5.621   4.541  0.2704  0.2381 -0.2045
  857MOL0     N15610  10.915   5.058   4.298  1.6834 -0.1027 -0.0860
  857MOL0     N15611  10.874   5.027   4.178 -0.2754 -0.0229 -0.7295
  857MOL0     C15612  10.927   4.090   3.358 -0.4263  0.0492  0.1982
  857MOL0     C15613  10.882   3.966   3.321  0.0379 -0.1904 -0.0155
  857MOL0     C15614  10.823   3.550   3.201  0.4994 -0.2922 -0.3819
  857MOL0     C15615  10.936   3.477   3.219  0.3569  0.4050  0.0822
  857MOL0     C15616  10.943   3.335   3.216  0.1826  0.0029 -0.2463
  857MOL0     C15617  10.829   3.262   3.189  0.9312 -0.7282 -0.5591
  857MOL0     O15618  10.843   3.125   3.189 -0.4694  0.6886  0.3579
  857MOL0     C15619  10.742   3.041   3.129  0.3737  0.7572  0.4930
  857MOL0     C15620  10.799   2.900   3.134  0.0340 -0.0538 -0.1018
  857MOL0     C15621  10.711   2.785   3.084  0.0073  0.3422  0.5607
  857MOL0     C15622  10.795   2.656   3.075 -0.0884  0.3018 -0.6270
  857MOL0     C15623  10.715   2.558   3.000  0.7565  0.1102  0.8596
  857MOL0     C15624  10.655   2.480   2.933 -0.3042  0.2885  0.2551
  857MOL0     C15625  10.711   3.338   3.165 -0.7567  0.6591  0.4326
  857MOL0     C15626  10.705   3.476   3.160 -0.7016  0.9615  0.3198
  857MOL0     C15627  10.577   3.541   3.117  0.0024  0.1540  0.3005
  857MOL0     H15628  11.177   3.828   3.288  1.0070  1.4394  3.1881
  857MOL0     H15629  11.273   4.041   3.354  1.1554  0.4205 -2.1752
  857MOL0     H15630  10.973   4.272   3.564  0.6534 -1.2768 -1.3466
  857MOL0     H15631  11.136   4.231   3.621 -3.6954 -1.3222  2.2384
  857MOL0     H15632  11.028   4.500   3.529  0.6693  1.0146  1.7752
  857MOL0     H15633  11.192   4.462   3.494 -2.3893  0.2036 -3.2810
  857MOL0     H15634  11.169   4.572   3.704  0.9201 -0.4659 -0.6968
  857MOL0     H15635  11.217   4.402   3.744  1.4068  2.7828  1.1268
  857MOL0     H15636  10.927   4.479   3.719 -2.1249 -0.8873  2.1665
  857MOL0     H15637  11.000   4.339   3.805  1.1922 -1.3787 -1.2039
  857MOL0     H15638  10.923   4.491   3.971  1.0591  1.3397  1.7839
  857MOL0     H15639  11.103   4.500   3.964 -0.4228 -0.4833 -0.3029
  857MOL0     H15640  11.104   4.700   3.856 -0.4796  0.4818 -0.4351
  857MOL0     H15641  10.925   4.687   3.813 -0.2299 -3.8351 -0.0486
  857MOL0     H15642  11.093   4.713   4.071  0.4347  0.5775 -1.4779
  857MOL0     H15643  10.911   4.724   4.080 -0.9814  1.6049 -0.2981
  857MOL0     H15644  11.080   4.930   3.932 -2.8529 -0.7807 -2.8465
  857MOL0     H15645  10.911   4.933   3.932  1.7957 -0.0543 -4.2957
  857MOL0     H15646  11.204   4.961   4.184 -0.7366  2.2532 -2.1285
  857MOL0     H15647  11.071   5.040   4.540  0.6418  0.2510 -0.2594
  857MOL0     H15648  11.201   4.957   4.453 -1.0516 -1.6276  0.8185
  857MOL0     H15649  11.278   5.162   4.341  1.1647  2.6241 -0.3353
  857MOL0     H15650  11.132   5.253   4.389  1.5803  0.4763 -4.2735
  857MOL0     H15651  11.369   5.148   4.566  0.6265  0.4793 -0.1862
  857MOL0     H15652  11.208   5.201   4.632 -0.8390 -0.2009 -0.6327
  857MOL0     H15653  11.269   5.415   4.470 -0.9738 -0.6159  1.8523
  857MOL0     H15654  11.432   5.341   4.471 -1.8019 -0.1403 -2.5493
  857MOL0     H15655  11.413   5.564   4.880 -3.0449  0.5292 -0.8008
  857MOL0     H15656  11.490   5.806   4.888 -0.8945  1.1932  0.6720
  857MOL0     H15657  11.356   6.177   4.762 -0.2823  0.4426 -0.0719
  857MOL0     H15658  11.381   6.421   4.725 -0.3649  1.9235  2.9842
  857MOL0     H15659  11.452   6.621   4.882 -1.5533  1.9601 -0.2889
  857MOL0     H15660  11.562   6.747   4.839  0.9121  0.0193 -0.7748
  857MOL0     H15661  11.465   6.717   4.598  1.6812 -1.5493  0.9333
  857MOL0     H15662  11.336   6.619   4.691  0.6403 -0.6825 -1.4194
  857MOL0     H15663  11.288   6.861   4.654  1.2765  3.3727  0.5909
  857MOL0     H15664  11.272   6.816   4.821  0.3433  4.6713  0.9428
  857MOL0     H15665  11.515   6.945   4.686 -0.8168 -4.6388 -0.2282
  857MOL0     H15666  11.490   6.956   4.855  1.5645 -4.8321 -0.3884
  857MOL0     H15667  11.235   7.064   4.778  0.5704 -1.0721  1.8548
  857MOL0     H15668  11.320   7.122   4.645 -4.1862  0.7043  0.2996
  857MOL0     H15669  11.422   7.165   4.931  2.5142  1.1321  0.1611
  857MOL0     H15670  11.484   7.244   4.779 -1.4065  2.3399  0.7414
  857MOL0     H15671  11.220   7.274   4.906 -0.4207 -1.5464 -1.3917
  857MOL0     H15672  11.266   7.351   4.753 -0.8322  3.1162  1.0443
  857MOL0     H15673  11.410   7.403   5.032 -1.4302  1.0456  1.2949
  857MOL0     H15674  11.434   7.491   4.879 -2.4123  2.0278 -0.4708
  857MOL0     H15675  11.809   6.395   4.805  1.0752 -1.4156 -1.3768
  857MOL0     H15676  11.791   6.156   4.831 -0.1953 -1.1199 -0.0140
  857MOL0     H15677  11.536   5.806   4.454 -1.9154 -0.5702  0.0174
  857MOL0     H15678  11.434   5.584   4.442  2.9524 -0.0756 -0.8592
  857MOL0     H15679  10.860   4.169   3.388  0.6142  0.2992  1.9598
  857MOL0     H15680  10.777   3.943   3.307 -0.2867  0.1266  1.6488
  857MOL0     H15681  11.027   3.515   3.262  0.6858 -1.1329  0.8101
  857MOL0     H15682  11.044   3.305   3.240  1.3408  3.1610 -0.7971
  857MOL0     H15683  10.725   3.078   3.028  0.9641 -3.0770 -1.1383
  857MOL0     H15684  10.645   3.056   3.178  0.7320  2.1083  0.8313
  857MOL0     H15685  10.836   2.875   3.234 -1.3712 -0.3460  0.3674
  857MOL0     H15686  10.891   2.910   3.076  3.0248  2.4074  4.4949
  857MOL0     H15687  10.676   2.805   2.982  2.1646 -1.9809 -0.7459
  857MOL0     H15688  10.629   2.771   3.154 -0.6629 -0.7549 -0.4207
  857MOL0     H15689  10.895   2.666   3.031  0.3912  0.0083  0.3770
  857MOL0     H15690  10.801   2.613   3.175 -1.7208  2.1773  0.3534
  857MOL0     H15691  10.590   2.407   2.890 -0.4851  1.3219 -1.2927
  857MOL0     H15692  10.618   3.286   3.144 -1.3287  2.0001 -0.4915
  857MOL0     H15693  10.578   3.571   3.012  0.2381 -0.9755 -0.0290
  857MOL0     H15694  10.499   3.465   3.117  1.8413 -1.9111 -2.6619
  857MOL0     H15695  10.533   3.616   3.184  0.3190  0.8418 -0.2525
  858MOL0     O15696  11.044   9.562   6.732 -0.0975  0.5622 -0.0688
  858MOL0     C15697  11.088   9.465   6.793  0.8005  0.8031 -0.2033
  858MOL0     O15698  11.131   9.353   6.721  0.7651  0.2597  0.0098
  858MOL0     C15699  11.083   9.329   6.597 -0.2993  0.3062 -0.6405
  858MOL0     C15700  11.133   9.399   6.489 -0.1975  0.3315  0.2104
  858MOL0     C15701  11.092   9.368   6.362 -0.0250  1.1199 -0.1665
  858MOL0     C15702  10.993   9.269   6.346 -0.2808  0.1210 -0.2504
  858MOL0     O15703  10.961   9.233   6.215 -0.8175 -0.6041 -0.1825
  858MOL0     C15704  10.961   9.091   6.197 -0.5197 -0.8689  0.7700
  858MOL0     C15705  11.078   9.003   6.233 -0.6223 -0.9030 -0.2754
  858MOL0     C15706  11.194   9.011   6.152  0.0778 -1.2317 -0.0543
  858MOL0     C15707  11.298   8.898   6.162  0.1135  0.7852  0.6657
  858MOL0     C15708  11.406   8.892   6.055 -1.0877  0.3184  0.1908
  858MOL0     C15709  11.475   8.754   6.056  0.5374 -0.5409 -0.3764
  858MOL0     C15710  11.574   8.737   5.937 -0.1232 -0.3222  0.1762
  858MOL0     C15711  11.682   8.853   5.937 -0.2459 -1.4830 -0.4718
  858MOL0     N15712  11.770   8.828   5.826  0.0889 -0.4370  0.1841
  858MOL0     C15713  11.860   8.728   5.816 -0.5444  0.3261 -0.2546
  858MOL0     C15714  11.917   8.745   5.693 -0.5089  0.5473  0.2397
  858MOL0     C15715  11.998   8.636   5.631 -1.1931  0.8639  0.1149
  858MOL0     C15716  11.942   8.604   5.487  1.2274 -0.5134 -0.0120
  858MOL0     C15717  12.057   8.599   5.393  0.2097 -0.3453  0.4648
  858MOL0     C15718  12.067   8.729   5.327  0.0998  0.3663  1.1783
  858MOL0     O15719  12.176   8.734   5.237 -0.6216  0.0289  0.0001
  858MOL0     C15720  12.211   8.858   5.193 -0.0847  0.5326  0.1128
  858MOL0     C15721  12.333   8.882   5.138  0.6220  0.0054  0.1451
  858MOL0     C15722  12.367   9.005   5.083  0.0118  0.2033 -0.2388
  858MOL0     C15723  12.278   9.115   5.078  1.1488  0.0630 -0.7974
  858MOL0     C15724  12.322   9.245   5.032 -0.5117 -0.0871  0.6611
  858MOL0     O15725  12.455   9.240   4.980  0.3265 -0.4692 -0.3133
  858MOL0     C15726  12.517   9.358   4.951  0.3182  0.0880 -0.6011
  858MOL0     C15727  12.566   9.403   4.824  0.6673 -0.4400 -0.0931
  858MOL0     C15728  12.623   9.530   4.800  0.1287  0.9607 -0.2199
  858MOL0     C15729  12.639   9.625   4.905 -0.0405  0.7995 -0.5385
  858MOL0     O15730  12.697   9.746   4.887  0.5330  0.4130  1.2087
  858MOL0     C15731  12.662   9.866   4.964 -0.6834  1.6343  0.2286
  858MOL0     C15732  12.671   9.992   4.904 -0.4690  1.5062  0.0523
  858MOL0     C15733  12.579  10.018   4.783 -0.2678 -0.3545  1.3151
  858MOL0     C15734  12.608   9.931   4.666  0.1770  0.1205  0.1769
  858MOL0     C15735  12.521   9.957   4.548  0.9873 -0.0816  0.9187
  858MOL0     C15736  12.546  10.084   4.481 -0.1589  0.0637  0.0556
  858MOL0     C15737  12.677  10.113   4.410  0.1047  0.2686 -0.2227
  858MOL0     C15738  12.716  10.017   4.294  0.7828 -1.2176  0.5868
  858MOL0    Cl15739  12.766   9.853   4.355  0.2210 -0.2930 -0.2160
  858MOL0     C15740  12.585   9.586   5.028 -0.4431 -0.1230 -0.4825
  858MOL0     C15741  12.528   9.459   5.055 -0.0768 -0.1637  0.2886
  858MOL0     O15742  12.255   9.347   5.058 -0.4809  0.5125 -0.0631
  858MOL0     C15743  12.148   9.093   5.147 -0.6147 -1.0251  0.1720
  858MOL0     C15744  12.119   8.966   5.191  0.0821 -0.5834 -0.0574
  858MOL0     N15745  11.877   8.869   5.644 -0.2116  0.3520  0.3727
  858MOL0     N15746  11.800   8.920   5.730  0.7623  0.2765 -0.0206
  858MOL0     C15747  10.942   9.200   6.454  0.0947 -0.6714  0.4194
  858MOL0     C15748  10.992   9.229   6.577 -0.8576  0.4018  0.4870
  858MOL0     C15749  11.087   9.476   6.935 -0.7402 -0.6690 -0.2926
  858MOL0     C15750  11.096   9.608   6.989 -0.5534 -1.2160  0.0100
  858MOL0     C15751  11.071   9.642   7.120 -0.7468 -0.9791 -0.2181
  858MOL0     C15752  11.033   9.541   7.202  0.1244  0.8539 -0.8432
  858MOL0     O15753  11.014   9.570   7.335  0.3150  0.4579  0.3480
  858MOL0     C15754  10.927   9.675   7.369 -0.6194  0.5220 -0.4974
  858MOL0     C15755  10.927   9.651   7.523  0.7134 -0.1867  0.4257
  858MOL0     C15756  11.064   9.688   7.583  0.1470  0.6848  0.5280
  858MOL0     C15757  11.050   9.688   7.732  0.7364 -0.1824 -0.4169
  858MOL0     C15758  11.165   9.758   7.795 -0.4808  0.5918  0.7358
  858MOL0     C15759  11.256   9.814   7.844 -0.3537 -0.5345  0.0789
  858MOL0     C15760  11.033   9.412   7.149 -0.7825  0.0136  0.2749
  858MOL0     C15761  11.049   9.376   7.014 -0.3608 -0.5261 -1.2570
  858MOL0     C15762  11.039   9.229   6.974  1.0151 -0.1281 -1.1017
  858MOL0     H15763  11.198   9.485   6.496 -1.0569  1.3288 -2.6882
  858MOL0     H15764  11.129   9.419   6.273 -3.3937  1.3145 -1.6300
  858MOL0     H15765  10.878   9.050   6.256 -1.1371  0.5072  0.8988
  858MOL0     H15766  10.933   9.063   6.095 -0.8818 -1.4585  1.0318
  858MOL0     H15767  11.051   8.898   6.238 -2.1339 -0.6211 -1.4857
  858MOL0     H15768  11.113   9.022   6.335  1.7459 -2.7732 -0.6506
  858MOL0     H15769  11.240   9.106   6.179 -0.3039 -0.6164 -1.4583
  858MOL0     H15770  11.166   9.009   6.046  1.9844 -0.0223 -0.6393
  858MOL0     H15771  11.359   8.931   6.246  2.5865  3.2203 -1.8721
  858MOL0     H15772  11.253   8.803   6.194 -1.1828  1.8385  2.1455
  858MOL0     H15773  11.367   8.910   5.954  0.5517 -4.2304 -1.5145
  858MOL0     H15774  11.466   8.978   6.085  0.9175 -1.3723  1.2525
  858MOL0     H15775  11.533   8.734   6.147 -0.6399  1.3845  0.8578
  858MOL0     H15776  11.399   8.676   6.041  0.0620 -0.0813 -0.3570
  858MOL0     H15777  11.512   8.750   5.848  2.2215 -0.7164 -1.6071
  858MOL0     H15778  11.614   8.635   5.927  1.9184  0.5786 -1.7970
  858MOL0     H15779  11.651   8.958   5.934  3.8742 -0.0490  0.7166
  858MOL0     H15780  11.732   8.864   6.033  0.7168  0.4939 -1.1416
  858MOL0     H15781  11.866   8.638   5.877  2.6931  1.1049  0.7958
  858MOL0     H15782  12.099   8.680   5.630 -0.1930 -0.8338  4.3333
  858MOL0     H15783  12.001   8.551   5.700  0.7912  1.7939  1.2634
  858MOL0     H15784  11.893   8.506   5.484 -0.1726  0.1607  0.0548
  858MOL0     H15785  11.864   8.676   5.461  0.9691 -0.9058 -0.3521
  858MOL0     H15786  12.046   8.520   5.317 -1.3029  0.9836 -0.7844
  858MOL0     H15787  12.150   8.569   5.441  0.0338  1.0412  1.7411
  858MOL0     H15788  12.091   8.799   5.408  4.1393 -2.8194  3.1426
  858MOL0     H15789  11.977   8.744   5.267  0.6997 -3.0230 -0.8011
  858MOL0     H15790  12.407   8.805   5.120 -0.4039 -0.8636 -0.4361
  858MOL0     H15791  12.465   9.017   5.038 -0.1517 -0.7528 -0.8815
  858MOL0     H15792  12.550   9.330   4.745  1.4080 -1.5967  0.7792
  858MOL0     H15793  12.665   9.560   4.705 -2.1901 -1.1569 -2.0637
  858MOL0     H15794  12.554   9.854   4.977 -1.1194  0.7658 -3.2144
  858MOL0     H15795  12.716   9.876   5.059 -1.1306  0.5412  0.6212
  858MOL0     H15796  12.636  10.058   4.983 -3.4118  0.5541 -0.3303
  858MOL0     H15797  12.772  10.015   4.868 -0.1739  1.3894  0.7971
  858MOL0     H15798  12.472  10.005   4.796 -0.3831  1.1596  2.2134
  858MOL0     H15799  12.595  10.126   4.770 -0.0631 -0.4317  0.9251
  858MOL0     H15800  12.588   9.828   4.699  0.6965  0.7848  2.6798
  858MOL0     H15801  12.713   9.933   4.636  0.2752 -0.9775  0.3884
  858MOL0     H15802  12.413   9.962   4.564  0.1689 -0.8256 -3.3633
  858MOL0     H15803  12.536   9.874   4.480  0.4168 -2.1963  3.2247
  858MOL0     H15804  12.467  10.096   4.405 -1.3791  2.9001  1.6192
  858MOL0     H15805  12.534  10.166   4.551  3.8314  2.7818 -2.0722
  858MOL0     H15806  12.759  10.109   4.482  0.6545 -5.4461 -0.7090
  858MOL0     H15807  12.675  10.205   4.350  1.1478 -2.4863 -4.9923
  858MOL0     H15808  12.633  10.010   4.224  0.9666 -0.6517  0.3049
  858MOL0     H15809  12.801  10.065   4.243  0.5079  1.3226  2.2999
  858MOL0     H15810  12.601   9.659   5.106 -0.4339 -0.4470 -0.1773
  858MOL0     H15811  12.506   9.435   5.158  0.4609 -0.2727  0.3791
  858MOL0     H15812  12.075   9.174   5.144 -0.6098 -1.0258  0.0080
  858MOL0     H15813  12.019   8.957   5.233  0.7093 -0.3356  1.5616
  858MOL0     H15814  10.860   9.131   6.435  1.1085 -1.0891 -3.0929
  858MOL0     H15815  10.950   9.170   6.658 -1.1035  0.2586  0.2572
  858MOL0     H15816  11.111   9.704   6.939 -2.8420 -0.4901  0.6079
  858MOL0     H15817  11.091   9.741   7.158  2.1171  0.1487 -4.0095
  858MOL0     H15818  10.829   9.660   7.323 -0.4858  3.5349 -1.9598
  858MOL0     H15819  10.964   9.775   7.348  0.7974  0.9917  3.3309
  858MOL0     H15820  10.910   9.543   7.530  0.3440 -0.3345 -1.8989
  858MOL0     H15821  10.842   9.704   7.567 -1.4475 -1.4719 -1.9322
  858MOL0     H15822  11.090   9.785   7.539 -2.4459  0.8927 -0.7661
  858MOL0     H15823  11.142   9.617   7.553  1.7844  2.0661  1.3440
  858MOL0     H15824  10.958   9.739   7.761  0.9215 -0.9364  1.6782
  858MOL0     H15825  11.023   9.592   7.777 -1.0440  0.1873 -0.6491
  858MOL0     H15826  11.337   9.859   7.898 -0.9578 -2.7444  3.0739
  858MOL0     H15827  11.008   9.332   7.218  1.3403 -0.4983  0.5148
  858MOL0     H15828  11.114   9.204   6.898  2.5404  1.1449 -0.0945
  858MOL0     H15829  11.039   9.164   7.062 -0.6390  3.6034  1.9886
  858MOL0     H15830  10.941   9.229   6.927  2.2014 -0.2391 -3.7493
  859MOL0     O15831   7.031   6.419   9.913 -0.9119 -0.0565  0.5354
  859MOL0     C15832   6.946   6.426  10.002  0.0225 -0.3593 -0.5497
  859MOL0     O15833   6.820   6.483   9.987 -0.0823  0.4941  0.3827
  859MOL0     C15834   6.819   6.594   9.913 -0.2232  0.0961  0.5651
  859MOL0     C15835   6.839   6.727   9.973 -0.0231 -0.2025 -0.4961
  859MOL0     C15836   6.823   6.846   9.891 -0.1876 -0.0885 -0.8584
  859MOL0     C15837   6.780   6.831   9.759 -0.0789  0.1654  0.3574
  859MOL0     O15838   6.760   6.941   9.678  0.1175 -0.0957  0.2520
  859MOL0     C15839   6.845   6.931   9.562  0.1577 -0.4921  0.5862
  859MOL0     C15840   6.868   7.076   9.493 -0.5002  0.5903  0.6636
  859MOL0     C15841   6.924   7.198   9.582 -0.6215  0.4917  1.1524
  859MOL0     C15842   6.809   7.268   9.653 -0.4017 -0.0592  0.7649
  859MOL0     C15843   6.857   7.332   9.780  0.5396  0.4827  0.1732
  859MOL0     C15844   6.747   7.410   9.864 -0.9475 -0.5103  0.2053
  859MOL0     C15845   6.628   7.327   9.903  0.2317  0.1244  0.4538
  859MOL0     C15846   6.651   7.189   9.963  0.8934 -0.0064 -0.2231
  859MOL0     N15847   6.696   7.207  10.102 -0.0553  0.4595  0.0090
  859MOL0     C15848   6.626   7.256  10.208  0.7988  0.4345 -0.2457
  859MOL0     C15849   6.726   7.284  10.297  0.9101  0.1936 -0.4490
  859MOL0     C15850   6.727   7.362  10.428 -0.1192 -0.0645  0.0924
  859MOL0     C15851   6.734   7.516  10.401  1.3641 -0.5271 -0.7086
  859MOL0     C15852   6.860   7.568  10.334 -0.3640 -0.7498 -0.1229
  859MOL0     C15853   6.839   7.589  10.191 -0.5641  0.1759  0.4858
  859MOL0     O15854   6.913   7.706  10.152 -0.0112  0.1763 -0.1403
  859MOL0     C15855   6.886   7.790  10.051 -0.0937  0.7823  0.8579
  859MOL0     C15856   6.974   7.897  10.033 -0.4215 -1.0457 -0.5744
  859MOL0     C15857   6.971   7.981   9.919 -0.1958  0.3886 -0.5545
  859MOL0     C15858   6.862   7.969   9.832 -1.3144  0.3234 -0.1833
  859MOL0     C15859   6.848   8.051   9.712  0.6010  0.3446 -0.3360
  859MOL0     O15860   6.960   8.106   9.668  0.4968 -0.1911  0.1327
  859MOL0     C15861   6.963   8.200   9.563 -0.4883  0.6010  0.8647
  859MOL0     C15862   6.870   8.239   9.470  0.2302 -0.1252 -0.3534
  859MOL0     C15863   6.895   8.326   9.368 -1.2006 -0.8425 -0.3346
  859MOL0     C15864   7.021   8.386   9.356 -0.0221  0.3630  0.8935
  859MOL0     O15865   7.056   8.462   9.241 -0.0514 -0.3363  0.1648
  859MOL0     C15866   7.031   8.416   9.102  0.6911 -0.9113 -0.1183
  859MOL0     C15867   6.951   8.517   9.026 -0.8388 -0.5413  0.4125
  859MOL0     C15868   6.877   8.457   8.910  1.2158 -0.0946 -0.7504
  859MOL0     C15869   6.874   8.546   8.791  0.2685  0.1398 -0.6322
  859MOL0     C15870   6.767   8.502   8.684  1.2181  0.2284 -0.2141
  859MOL0     C15871   6.774   8.589   8.559 -0.6547 -0.3578 -0.7190
  859MOL0     C15872   6.677   8.541   8.454  0.9740 -0.6880  0.0643
  859MOL0     C15873   6.700   8.636   8.336 -0.2281 -0.4018  0.2090
  859MOL0    Cl15874   6.569   8.639   8.228 -0.0223 -0.4898 -0.0636
  859MOL0     C15875   7.126   8.342   9.441  0.3322 -0.0187  0.6642
  859MOL0     C15876   7.092   8.258   9.546 -0.0470 -0.6546  0.0510
  859MOL0     O15877   6.740   8.055   9.659 -0.2152 -0.0167  0.0720
  859MOL0     C15878   6.774   7.858   9.848 -0.1388  0.7055 -0.5115
  859MOL0     C15879   6.788   7.765   9.952 -1.0097  0.4967 -0.4161
  859MOL0     N15880   6.847   7.247  10.242  0.2711  0.1114  0.8485
  859MOL0     N15881   6.830   7.197  10.128 -0.1284 -0.1540 -0.1372
  859MOL0     C15882   6.747   6.702   9.709 -0.1498 -1.0022 -0.3433
  859MOL0     C15883   6.766   6.586   9.788  0.1639 -0.3390 -0.0188
  859MOL0     C15884   6.982   6.362  10.134  0.7245  0.1089  1.2687
  859MOL0     C15885   7.021   6.226  10.128 -1.0471 -0.8680 -0.6875
  859MOL0     C15886   7.055   6.153  10.237 -0.3093 -0.2116  0.0610
  859MOL0     C15887   7.041   6.219  10.365 -0.4930 -0.2631  1.5326
  859MOL0     O15888   7.067   6.146  10.475  0.2313  1.0739  0.1350
  859MOL0     C15889   7.202   6.086  10.490 -0.0970 -0.4663  0.6673
  859MOL0     C15890   7.302   6.187  10.539 -0.1965  0.8202  0.6096
  859MOL0     C15891   7.386   6.123  10.654 -0.4859  0.8191 -0.8340
  859MOL0     C15892   7.478   6.225  10.714  0.4358 -0.4146 -0.3887
  859MOL0     C15893   7.523   6.187  10.848 -0.0287 -0.0466 -0.2941
  859MOL0     C15894   7.560   6.147  10.955 -0.6940 -0.4251 -0.3590
  859MOL0     C15895   7.013   6.355  10.379 -0.5096 -0.0172  0.3858
  859MOL0     C15896   6.988   6.433  10.259  0.1415  0.8239  0.2826
  859MOL0     C15897   6.955   6.578  10.277 -0.7657 -0.1688 -0.5675
  859MOL0     H15898   6.879   6.737  10.073  0.7232 -3.9068 -0.2902
  859MOL0     H15899   6.829   6.942   9.942 -0.1627 -1.6396  2.2678
  859MOL0     H15900   6.935   6.885   9.603  0.9876  0.1167 -0.5009
  859MOL0     H15901   6.805   6.856   9.493 -0.2886  1.3531 -1.2473
  859MOL0     H15902   6.771   7.101   9.449  1.3610  0.3756 -4.2163
  859MOL0     H15903   6.927   7.062   9.402 -1.5101 -3.0551  0.3925
  859MOL0     H15904   6.979   7.274   9.527  0.6693 -1.4349 -0.3540
  859MOL0     H15905   7.002   7.165   9.652  0.1230 -0.5026 -0.0891
  859MOL0     H15906   6.768   7.342   9.583  2.0101  1.7162  1.1016
  859MOL0     H15907   6.736   7.190   9.674 -0.4566 -0.2232 -0.0217
  859MOL0     H15908   6.900   7.259   9.850 -1.5322 -0.9036  0.0887
  859MOL0     H15909   6.938   7.406   9.775  1.8964 -0.7935  1.7502
  859MOL0     H15910   6.784   7.457   9.956 -2.3473 -1.6570  1.3956
  859MOL0     H15911   6.720   7.498   9.804 -0.5167 -0.9963 -0.7159
  859MOL0     H15912   6.561   7.300   9.821 -0.1879 -0.0679  0.8544
  859MOL0     H15913   6.563   7.390   9.966 -1.5155  0.0534 -1.1972
  859MOL0     H15914   6.552   7.143   9.974 -0.5822  2.9624 -0.0772
  859MOL0     H15915   6.711   7.133   9.891 -3.9769 -3.1349 -2.4459
  859MOL0     H15916   6.520   7.276  10.208  0.8161  0.5961  1.1015
  859MOL0     H15917   6.639   7.326  10.483 -4.0946  3.4949 -3.1452
  859MOL0     H15918   6.824   7.353  10.478  0.1762 -0.3913 -0.5335
  859MOL0     H15919   6.654   7.555  10.338  3.5424  0.0266 -3.3240
  859MOL0     H15920   6.721   7.559  10.500 -1.1140 -0.0067 -1.1877
  859MOL0     H15921   6.945   7.503  10.356 -1.2015 -0.9849  2.9020
  859MOL0     H15922   6.885   7.667  10.373 -0.6177  1.0858 -4.1218
  859MOL0     H15923   6.736   7.596  10.153  0.2438  0.3611 -1.8213
  859MOL0     H15924   6.871   7.501  10.135 -1.5328 -0.1962  0.4884
  859MOL0     H15925   7.048   7.904  10.112 -0.6143  1.5201 -0.5514
  859MOL0     H15926   7.056   8.047   9.904  0.5832 -0.3691  0.4530
  859MOL0     H15927   6.774   8.189   9.467  0.3419 -0.4093  0.7178
  859MOL0     H15928   6.821   8.371   9.302 -1.7042 -2.0824 -0.6575
  859MOL0     H15929   7.126   8.392   9.053  2.6126  0.5911  2.6031
  859MOL0     H15930   6.972   8.324   9.109  0.3711 -0.8793 -1.8540
  859MOL0     H15931   6.875   8.557   9.095  1.2656 -0.9900  3.1643
  859MOL0     H15932   7.020   8.594   8.992 -0.0538 -1.1027  0.7060
  859MOL0     H15933   6.918   8.363   8.870  1.6045 -0.6669  0.9429
  859MOL0     H15934   6.773   8.439   8.939  1.1328  1.3399 -0.0823
  859MOL0     H15935   6.972   8.564   8.746  0.4875  1.9733  0.5025
  859MOL0     H15936   6.842   8.645   8.826 -0.3550 -0.5794  0.9613
  859MOL0     H15937   6.667   8.505   8.728  0.8465  1.3387 -1.0886
  859MOL0     H15938   6.789   8.400   8.651 -0.0102 -0.1870  0.2188
  859MOL0     H15939   6.752   8.693   8.586 -0.5689 -0.3291 -0.7606
  859MOL0     H15940   6.874   8.581   8.515  0.1766 -0.1165  1.0392
  859MOL0     H15941   6.577   8.565   8.489  0.1693 -4.1802  0.4571
  859MOL0     H15942   6.693   8.438   8.423 -0.3757 -1.1385  0.8169
  859MOL0     H15943   6.727   8.737   8.367 -4.0116  0.3279  1.7619
  859MOL0     H15944   6.785   8.591   8.284  0.6086  0.9289  0.4000
  859MOL0     H15945   7.225   8.385   9.427  0.3907  0.0629  1.3123
  859MOL0     H15946   7.179   8.235   9.607 -0.2526  0.4637  0.8012
  859MOL0     H15947   6.691   7.843   9.779 -1.8636  0.9040  1.4323
  859MOL0     H15948   6.706   7.695   9.964  0.0257 -0.3645  2.6987
  859MOL0     H15949   6.702   6.694   9.611 -0.1628 -0.6286 -0.3718
  859MOL0     H15950   6.727   6.493   9.749  1.4064 -0.8312 -0.1486
  859MOL0     H15951   7.032   6.183  10.029 -2.0529  0.4159 -1.3902
  859MOL0     H15952   7.090   6.052  10.222  2.3182  0.4856  0.9290
  859MOL0     H15953   7.243   6.050  10.395  0.9508 -3.3934  2.0989
  859MOL0     H15954   7.194   6.005  10.564 -1.2058 -0.0928  0.9763
  859MOL0     H15955   7.257   6.277  10.583 -0.9691  1.3725 -1.2375
  859MOL0     H15956   7.369   6.210  10.456  1.6312 -0.9945  1.4819
  859MOL0     H15957   7.449   6.035  10.635 -1.6824 -0.3821  0.4613
  859MOL0     H15958   7.317   6.090  10.732  1.2590 -0.7294  0.1471
  859MOL0     H15959   7.564   6.240  10.649  1.7765  1.5981  1.7047
  859MOL0     H15960   7.429   6.323  10.717  3.3620  1.1849 -0.8349
  859MOL0     H15961   7.595   6.119  11.052  2.2349  1.1351 -0.8467
  859MOL0     H15962   7.042   6.394  10.476  4.2576  1.8547 -1.4663
  859MOL0     H15963   6.966   6.608  10.381  0.4182  0.1477 -0.7590
  859MOL0     H15964   7.035   6.634  10.227 -0.6277  1.7599  1.6594
  859MOL0     H15965   6.855   6.597  10.238 -0.3315  2.7451 -0.5115
  860MOL0     O15966   7.125   9.597   0.146 -0.2613 -0.5904  0.4491
  860MOL0     C15967   7.089   9.543   0.042 -0.8171 -0.6019 -1.3604
  860MOL0     O15968   7.017   9.606  -0.063 -0.0835  0.5697  0.0209
  860MOL0     C15969   6.999   9.751  -0.063 -0.7667  0.7726 -0.2743
  860MOL0     C15970   7.031   9.844   0.031  0.2086  0.4079  0.6187
  860MOL0     C15971   7.004   9.979   0.015 -0.9087  0.1788  1.1100
  860MOL0     C15972   6.949  10.018  -0.104 -0.8058 -0.0750  0.7405
  860MOL0     O15973   6.929  10.146  -0.122 -0.0718 -0.6738  0.5547
  860MOL0     C15974   6.808  10.193  -0.187  0.0947 -0.8287  0.0595
  860MOL0     C15975   6.839  10.310  -0.281 -0.2817  0.8620 -0.4039
  860MOL0     C15976   6.918  10.255  -0.406 -1.2818 -0.2422  0.3811
  860MOL0     C15977   6.956  10.379  -0.502  0.9523 -0.6326 -0.0568
  860MOL0     C15978   6.971  10.347  -0.650  0.4408 -0.3781  0.6428
  860MOL0     C15979   7.005  10.480  -0.723  0.3389  0.0085  0.9467
  860MOL0     C15980   7.155  10.527  -0.713 -1.0653  1.0314 -0.7186
  860MOL0     C15981   7.261  10.417  -0.763  0.6662 -0.1340  0.4390
  860MOL0     N15982   7.246  10.381  -0.906  0.3182 -0.3718 -0.4446
  860MOL0     C15983   7.254  10.465  -1.011  0.2619 -0.6702  0.2448
  860MOL0     C15984   7.274  10.388  -1.116 -1.6670  0.1226 -0.0958
  860MOL0     C15985   7.312  10.434  -1.254  0.1989  0.0889  0.5335
  860MOL0     C15986   7.463  10.478  -1.283  0.2216  0.7939 -0.5565
  860MOL0     C15987   7.563  10.373  -1.311 -0.5521  0.2401 -0.7414
  860MOL0     C15988   7.702  10.423  -1.336 -0.6103  0.6542  0.0853
  860MOL0     O15989   7.792  10.318  -1.297  0.8681  0.4743  0.1481
  860MOL0     C15990   7.930  10.324  -1.331  0.8493  0.7401 -0.4573
  860MOL0     C15991   8.004  10.212  -1.290 -0.5234 -1.5450  0.6763
  860MOL0     C15992   8.142  10.216  -1.292  0.2718  1.2129 -0.5797
  860MOL0     C15993   8.216  10.314  -1.353 -0.7579  0.3307  0.7552
  860MOL0     C15994   8.364  10.299  -1.389  0.2660  0.7457  1.1745
  860MOL0     O15995   8.414  10.176  -1.354 -0.5710  0.4598  0.1702
  860MOL0     C15996   8.550  10.166  -1.359  0.2315 -0.1761 -0.7871
  860MOL0     C15997   8.628  10.244  -1.265 -1.1620 -0.3125 -0.0767
  860MOL0     C15998   8.762  10.256  -1.284 -0.7556 -0.0612 -1.1579
  860MOL0     C15999   8.832  10.196  -1.387  0.6685  0.2619 -0.1156
  860MOL0     O16000   8.970  10.186  -1.406 -0.0617  0.3137 -0.2597
  860MOL0     C16001   9.055  10.196  -1.286 -0.6530  0.3704  0.1206
  860MOL0     C16002   9.196  10.134  -1.298 -1.0777 -0.2976  0.8332
  860MOL0     C16003   9.257  10.116  -1.163 -0.8960 -0.4779  0.0256
  860MOL0     C16004   9.402  10.069  -1.186 -0.7321 -0.6338 -0.1906
  860MOL0     C16005   9.495  10.151  -1.281  0.0601 -0.2232 -0.4206
  860MOL0     C16006   9.641  10.119  -1.258  1.0073 -0.2560  0.1094
  860MOL0     C16007   9.723  10.226  -1.351  0.2720 -0.1181  0.4992
  860MOL0     C16008   9.866  10.199  -1.328  0.7230 -0.8622 -0.3347
  860MOL0    Cl16009   9.955  10.317  -1.419  0.8414  0.2132 -0.2317
  860MOL0     C16010   8.757  10.117  -1.473 -0.7216 -0.1832 -0.5907
  860MOL0     C16011   8.620  10.102  -1.463 -0.3666 -0.2030 -0.3667
  860MOL0     O16012   8.425  10.390  -1.445  0.2027  0.1309 -0.2303
  860MOL0     C16013   8.144  10.424  -1.400 -0.1654  0.4595 -0.0635
  860MOL0     C16014   8.003  10.435  -1.379 -0.7549  0.4703 -0.0967
  860MOL0     N16015   7.266  10.251  -1.079  0.5653  0.1966  0.3292
  860MOL0     N16016   7.242  10.249  -0.948 -0.4909  0.0572  0.4926
  860MOL0     C16017   6.923   9.925  -0.211  0.4241 -0.1028  0.7324
  860MOL0     C16018   6.952   9.794  -0.186  0.4667  0.1918  1.0739
  860MOL0     C16019   7.130   9.399   0.034 -0.0038  0.1723  0.2202
  860MOL0     C16020   7.157   9.329   0.151  0.4800 -0.2699 -0.5181
  860MOL0     C16021   7.200   9.203   0.151 -0.1767 -0.5069  0.2347
  860MOL0     C16022   7.212   9.128   0.036  0.3415 -0.2011 -0.0888
  860MOL0     O16023   7.275   9.003   0.038  0.1683 -0.2079 -0.6008
  860MOL0     C16024   7.341   8.949  -0.074  0.0584 -0.3486  0.8346
  860MOL0     C16025   7.471   9.028  -0.114 -0.1077 -0.2629 -0.0482
  860MOL0     C16026   7.523   8.969  -0.245 -0.7930 -1.1462 -1.0692
  860MOL0     C16027   7.643   9.052  -0.297 -0.1581 -0.7047 -0.8001
  860MOL0     C16028   7.766   9.008  -0.243 -0.0327 -0.2415 -0.8729
  860MOL0     C16029   7.878   8.982  -0.204 -0.4060  0.2286  0.0957
  860MOL0     C16030   7.184   9.188  -0.084 -0.0214 -0.1088 -0.0715
  860MOL0     C16031   7.133   9.328  -0.086 -1.3728 -0.1434 -0.7510
  860MOL0     C16032   7.105   9.383  -0.222  1.2777  0.4245 -0.7873
  860MOL0     H16033   7.077   9.808   0.122  0.8753  0.9032  0.4875
  860MOL0     H16034   7.013  10.045   0.100 -2.2649  1.1346  0.5498
  860MOL0     H16035   6.755  10.111  -0.235  0.2243 -2.4764  2.5612
  860MOL0     H16036   6.740  10.232  -0.111 -0.9353  1.1507 -1.7512
  860MOL0     H16037   6.915  10.365  -0.224 -0.3843 -0.6940  1.3579
  860MOL0     H16038   6.749  10.365  -0.310 -0.3084  0.2578 -1.5268
  860MOL0     H16039   6.853  10.179  -0.451  1.3193 -2.5288  0.2472
  860MOL0     H16040   7.006  10.207  -0.363 -1.5389 -1.4649 -0.4022
  860MOL0     H16041   6.879  10.457  -0.496  4.8614  3.8275 -1.1532
  860MOL0     H16042   7.047  10.426  -0.463  0.0289  0.5195  0.7868
  860MOL0     H16043   7.047  10.271  -0.671 -0.6191 -0.6125 -2.9034
  860MOL0     H16044   6.876  10.309  -0.689  1.2137 -1.5225 -0.1993
  860MOL0     H16045   6.976  10.471  -0.828  1.8048  1.3648  0.3879
  860MOL0     H16046   6.938  10.555  -0.679 -0.4526 -1.1978  1.8878
  860MOL0     H16047   7.186  10.552  -0.611 -0.2045  0.0907 -0.7306
  860MOL0     H16048   7.159  10.622  -0.767  1.6916  0.4038 -1.7885
  860MOL0     H16049   7.360  10.458  -0.740  1.2527 -1.7168  0.8705
  860MOL0     H16050   7.247  10.328  -0.702 -0.2426 -1.0835 -1.0966
  860MOL0     H16051   7.266  10.573  -1.009 -1.1572 -0.5013  0.7164
  860MOL0     H16052   7.284  10.354  -1.323  0.5793  1.4957 -1.3335
  860MOL0     H16053   7.253  10.519  -1.288 -1.5595 -1.1860  0.2002
  860MOL0     H16054   7.450  10.540  -1.372 -4.5616 -1.6612 -1.9022
  860MOL0     H16055   7.494  10.547  -1.203 -0.0704  0.8012 -0.4458
  860MOL0     H16056   7.527  10.302  -1.386 -0.7551 -0.9204  0.4232
  860MOL0     H16057   7.573  10.309  -1.223  2.1725  2.2835  0.6144
  860MOL0     H16058   7.716  10.511  -1.273  2.9331  0.4332 -0.2115
  860MOL0     H16059   7.712  10.457  -1.439  1.6533  3.3434  1.0985
  860MOL0     H16060   7.950  10.132  -1.238 -3.2278  0.3592  1.0183
  860MOL0     H16061   8.197  10.130  -1.254 -0.7841  1.4065  1.5137
  860MOL0     H16062   8.579  10.278  -1.175  2.4809  0.7630  1.6823
  860MOL0     H16063   8.818  10.310  -1.208  0.5648 -1.0852 -1.3813
  860MOL0     H16064   9.057  10.302  -1.260 -1.0169  0.6807 -1.0694
  860MOL0     H16065   9.006  10.151  -1.200 -1.0444  0.9461  0.2017
  860MOL0     H16066   9.183  10.041  -1.353 -2.4692 -0.4395  1.3768
  860MOL0     H16067   9.261  10.207  -1.349 -0.2370 -1.9676 -0.5964
  860MOL0     H16068   9.244  10.202  -1.096  2.1040  1.0388 -1.1342
  860MOL0     H16069   9.201  10.035  -1.115 -1.2076  1.0561  2.4343
  860MOL0     H16070   9.403   9.968  -1.226  0.9539  0.1816 -2.3535
  860MOL0     H16071   9.458  10.049  -1.094 -0.6082 -1.3235 -0.4131
  860MOL0     H16072   9.482  10.259  -1.273  2.8380  0.3996 -2.6494
  860MOL0     H16073   9.465  10.130  -1.384  0.8616  0.0455 -0.7166
  860MOL0     H16074   9.666  10.139  -1.153  0.5031  0.2642  0.1406
  860MOL0     H16075   9.649  10.011  -1.275 -3.6856 -1.0580  1.4989
  860MOL0     H16076   9.692  10.325  -1.315 -0.7146 -1.0123  2.2276
  860MOL0     H16077   9.705  10.202  -1.456 -1.6183 -2.8022  1.3213
  860MOL0     H16078   9.892  10.206  -1.222 -2.3991  1.7151  0.4392
  860MOL0     H16079   9.895  10.102  -1.369  0.9512  0.0743 -2.5203
  860MOL0     H16080   8.816  10.074  -1.554 -0.5147 -1.4865  0.2083
  860MOL0     H16081   8.563  10.038  -1.530 -1.8255 -1.4884  1.9460
  860MOL0     H16082   8.188  10.499  -1.465 -1.4416 -0.9071 -2.6141
  860MOL0     H16083   7.954  10.530  -1.402 -1.2627 -0.2187 -2.1096
  860MOL0     H16084   6.875   9.963  -0.301 -2.5225  0.0998  2.2680
  860MOL0     H16085   6.944   9.727  -0.271 -1.6967  2.0689 -0.3516
  860MOL0     H16086   7.142   9.378   0.246 -1.3806  1.9841 -1.8870
  860MOL0     H16087   7.218   9.156   0.247  0.1993 -0.1376  0.3510
  860MOL0     H16088   7.282   8.943  -0.166  4.2445  1.1083 -2.2790
  860MOL0     H16089   7.375   8.849  -0.049  1.5186 -0.0406  0.2031
  860MOL0     H16090   7.547   9.008  -0.038 -0.8677  1.3497  1.1927
  860MOL0     H16091   7.461   9.137  -0.114  2.3312  0.0095 -1.1412
  860MOL0     H16092   7.441   8.968  -0.317 -1.3879 -0.7894 -0.4117
  860MOL0     H16093   7.558   8.867  -0.229  0.2713 -1.0275 -2.5024
  860MOL0     H16094   7.635   9.035  -0.405 -3.6062  1.1154 -0.9843
  860MOL0     H16095   7.632   9.161  -0.285  3.1321 -0.3275 -0.3376
  860MOL0     H16096   7.970   8.961  -0.154  0.2347  1.8966 -0.3243
  860MOL0     H16097   7.200   9.138  -0.179 -2.1903 -0.0557 -0.5251
  860MOL0     H16098   7.011   9.438  -0.239  1.4454  0.9625 -0.0217
  860MOL0     H16099   7.190   9.450  -0.236  1.6981  0.0595 -0.0167
  860MOL0     H16100   7.104   9.301  -0.294  1.8589 -1.1368  0.9308
  861MOL0     O16101   1.295   2.940   4.752  1.2100  0.2310  0.1683
  861MOL0     C16102   1.268   3.045   4.805  0.7288  0.3087  0.5857
  861MOL0     O16103   1.138   3.075   4.833  0.0402  0.3820 -0.3243
  861MOL0     C16104   1.043   2.985   4.784 -0.1862 -0.1786 -0.3708
  861MOL0     C16105   1.033   2.856   4.831  0.5789  0.0947 -0.3412
  861MOL0     C16106   0.914   2.793   4.804  0.2005  0.5719  0.5896
  861MOL0     C16107   0.809   2.837   4.723 -0.2211 -0.1494  0.3469
  861MOL0     O16108   0.692   2.775   4.694  0.2481  0.2672  0.8023
  861MOL0     C16109   0.682   2.637   4.718 -0.5153 -0.8297  0.3399
  861MOL0     C16110   0.544   2.585   4.676  0.5646 -0.2144  0.5746
  861MOL0     C16111   0.513   2.425   4.694 -0.3646 -0.6403  1.1222
  861MOL0     C16112   0.634   2.328   4.670 -0.2788 -0.9630  0.3312
  861MOL0     C16113   0.604   2.191   4.723  0.2534  1.2468  1.1578
  861MOL0     C16114   0.694   2.074   4.669 -0.2101 -0.9299 -0.6445
  861MOL0     C16115   0.833   2.092   4.728  0.7270 -0.2517  0.1667
  861MOL0     C16116   0.916   1.966   4.711 -0.4438 -0.6054  0.3351
  861MOL0     N16117   1.035   1.952   4.790  0.5714  0.4594  0.5029
  861MOL0     C16118   1.101   2.057   4.852 -1.7735 -0.7680  0.2257
  861MOL0     C16119   1.187   1.992   4.931  0.3022  0.2150 -0.5197
  861MOL0     C16120   1.292   2.047   5.021 -0.8358 -1.0735 -0.5839
  861MOL0     C16121   1.412   2.087   4.935 -0.6393  0.3012  0.4493
  861MOL0     C16122   1.525   2.152   5.019 -1.3055 -0.1482 -0.4737
  861MOL0     C16123   1.666   2.153   4.950  0.2021 -0.0376 -0.3111
  861MOL0     O16124   1.756   2.223   5.039  0.0763 -0.4504  0.4819
  861MOL0     C16125   1.888   2.205   5.014 -0.7918  1.4960  0.5351
  861MOL0     C16126   1.943   2.096   4.937  0.1939 -0.4568  0.7942
  861MOL0     C16127   2.089   2.088   4.940 -0.4803 -0.2722 -0.6956
  861MOL0     C16128   2.162   2.187   4.993  0.2982  0.3346 -0.2325
  861MOL0     C16129   2.306   2.192   4.971 -0.1694  0.4677  0.1728
  861MOL0     O16130   2.371   2.068   4.966 -0.5575  0.1774  0.0551
  861MOL0     C16131   2.506   2.072   4.967 -0.3851 -0.0916 -0.5854
  861MOL0     C16132   2.584   2.039   4.860  0.3984  0.1533  0.2896
  861MOL0     C16133   2.722   2.011   4.864 -0.2592 -0.6198  1.1311
  861MOL0     C16134   2.795   2.044   4.982  0.3959  0.7677  0.9495
  861MOL0     O16135   2.928   2.056   5.004 -0.1651 -0.2093 -0.2409
  861MOL0     C16136   3.018   2.088   4.900  0.6535 -0.1605  0.0798
  861MOL0     C16137   3.157   2.125   4.967 -0.3477 -0.7648  0.5256
  861MOL0     C16138   3.169   2.275   4.983  0.2989  0.1573  0.2859
  861MOL0     C16139   3.062   2.323   5.084 -0.0946  0.3756  0.4120
  861MOL0     C16140   3.104   2.446   5.167  0.3477  1.2010  0.3316
  861MOL0     C16141   3.188   2.390   5.291 -0.0637 -0.2021  1.0066
  861MOL0     C16142   3.193   2.496   5.403 -0.3583 -0.6420 -0.1779
  861MOL0     C16143   3.307   2.465   5.498 -0.8937 -0.1829  0.4475
  861MOL0    Cl16144   3.244   2.312   5.586 -0.1427  0.2659 -0.1058
  861MOL0     C16145   2.711   2.086   5.084 -0.6768 -0.8319  0.6562
  861MOL0     C16146   2.577   2.097   5.085 -0.0927 -0.0708  0.1647
  861MOL0     O16147   2.351   2.297   4.947 -0.8155 -0.8381 -0.2545
  861MOL0     C16148   2.103   2.291   5.067  0.0488  0.2822 -0.1399
  861MOL0     C16149   1.967   2.298   5.069 -0.1470 -0.4275 -1.3566
  861MOL0     N16150   1.176   1.860   4.909 -0.0982 -0.0225  0.6972
  861MOL0     N16151   1.083   1.828   4.824  0.2497 -0.0955 -0.0872
  861MOL0     C16152   0.822   2.967   4.672 -0.7307 -0.2199  0.2814
  861MOL0     C16153   0.936   3.040   4.704 -1.0895  0.5817 -0.8038
  861MOL0     C16154   1.365   3.120   4.883 -1.0924 -0.9572  0.7668
  861MOL0     C16155   1.464   3.046   4.957  0.0153 -0.3474 -0.8620
  861MOL0     C16156   1.551   3.114   5.045 -0.0650 -0.0588 -0.5231
  861MOL0     C16157   1.528   3.246   5.072  0.7634 -0.2071  0.2457
  861MOL0     O16158   1.597   3.309   5.169 -0.0253 -0.2019 -0.4446
  861MOL0     C16159   1.534   3.309   5.302 -0.2726  1.0699  0.2281
  861MOL0     C16160   1.598   3.407   5.413  0.9427  0.2205  0.2011
  861MOL0     C16161   1.563   3.551   5.370 -0.5859 -0.1946 -0.3342
  861MOL0     C16162   1.683   3.646   5.349  0.4572  0.9536 -0.3145
  861MOL0     C16163   1.755   3.674   5.477 -0.0055  1.1700 -0.2977
  861MOL0     C16164   1.816   3.691   5.587  0.9943  0.1898  0.0450
  861MOL0     C16165   1.447   3.324   4.989  0.7664  0.6543  1.1873
  861MOL0     C16166   1.362   3.266   4.897 -0.1441  0.2582  0.5924
  861MOL0     C16167   1.268   3.350   4.813 -0.3108  0.3984 -0.5172
  861MOL0     H16168   1.107   2.824   4.903  0.7315 -1.1890 -1.0385
  861MOL0     H16169   0.910   2.689   4.838 -0.5321  1.1448  2.4180
  861MOL0     H16170   0.767   2.594   4.665  1.0964  2.9018 -0.4485
  861MOL0     H16171   0.685   2.620   4.826  0.6614  2.8791  1.0260
  861MOL0     H16172   0.529   2.607   4.570 -0.4504 -1.2421  0.4928
  861MOL0     H16173   0.473   2.649   4.728  0.4625  1.9692 -1.9862
  861MOL0     H16174   0.429   2.407   4.626  0.6298  1.7233 -0.8519
  861MOL0     H16175   0.487   2.403   4.798  1.1926 -2.7898  1.1380
  861MOL0     H16176   0.640   2.330   4.561  0.9495 -0.9499  0.3910
  861MOL0     H16177   0.726   2.363   4.716 -0.4665  1.2744 -0.8692
  861MOL0     H16178   0.613   2.197   4.832  0.1959  0.2541  1.2232
  861MOL0     H16179   0.499   2.178   4.694  0.2531  2.9949  0.2059
  861MOL0     H16180   0.642   1.983   4.700 -1.6190  0.5930  1.6994
  861MOL0     H16181   0.708   2.069   4.560  3.2063 -0.0226 -0.3605
  861MOL0     H16182   0.811   2.114   4.834 -2.3597  4.0879 -1.0777
  861MOL0     H16183   0.863   2.186   4.681 -2.4045  1.1870  0.7655
  861MOL0     H16184   0.850   1.881   4.729 -1.1408 -0.3384 -0.8325
  861MOL0     H16185   0.944   1.960   4.605 -1.8238 -0.4977 -0.0651
  861MOL0     H16186   1.099   2.165   4.838 -1.7407 -0.7719  0.1915
  861MOL0     H16187   1.246   2.135   5.068  0.7106  1.1873 -3.0042
  861MOL0     H16188   1.325   1.975   5.095 -0.7987 -0.4204  0.0450
  861MOL0     H16189   1.455   2.002   4.881 -1.8892  0.6066 -1.0787
  861MOL0     H16190   1.383   2.151   4.852  2.4024  1.2644  0.0167
  861MOL0     H16191   1.533   2.108   5.119 -1.0737 -1.3219 -0.9797
  861MOL0     H16192   1.505   2.256   5.043  0.3471 -0.3567  2.3046
  861MOL0     H16193   1.658   2.186   4.846  0.4326  0.4513 -0.1779
  861MOL0     H16194   1.700   2.049   4.946 -0.6450 -0.3177 -0.4226
  861MOL0     H16195   1.894   2.009   4.896  1.7236 -2.2895  2.6631
  861MOL0     H16196   2.149   2.019   4.881 -0.1809  1.4557 -2.5531
  861MOL0     H16197   2.542   2.045   4.760  2.0141  0.7798 -0.3763
  861MOL0     H16198   2.757   1.979   4.767 -1.0691 -1.1450  1.0118
  861MOL0     H16199   3.018   1.992   4.847 -0.7104 -1.0210  1.5318
  861MOL0     H16200   2.984   2.169   4.836 -0.7106  0.0969  1.0895
  861MOL0     H16201   3.186   2.074   5.059  0.3584 -0.8128  0.2799
  861MOL0     H16202   3.231   2.082   4.899  2.2361  1.2308  1.9404
  861MOL0     H16203   3.271   2.300   5.014 -0.4443  2.0929  1.3998
  861MOL0     H16204   3.156   2.328   4.888 -0.0545  0.1511  0.3290
  861MOL0     H16205   3.025   2.241   5.145 -0.7723  0.6247  0.3403
  861MOL0     H16206   2.972   2.355   5.032  0.7596 -1.2052 -2.2372
  861MOL0     H16207   3.016   2.505   5.195 -1.2822 -1.2227  0.7385
  861MOL0     H16208   3.177   2.495   5.102 -1.4690 -1.6813 -4.4743
  861MOL0     H16209   3.152   2.291   5.320  0.5831 -1.0059 -0.8276
  861MOL0     H16210   3.284   2.367   5.244 -1.8271 -0.1883 -2.9811
  861MOL0     H16211   3.104   2.498   5.465 -0.1507  4.0553  0.2908
  861MOL0     H16212   3.198   2.597   5.362 -0.3806  0.1961  1.7741
  861MOL0     H16213   3.393   2.426   5.442 -0.7173  0.2559  0.4131
  861MOL0     H16214   3.348   2.553   5.548 -1.5405  0.5140 -0.2297
  861MOL0     H16215   2.762   2.129   5.170 -1.5578 -1.3428  1.4534
  861MOL0     H16216   2.519   2.121   5.174  1.8280 -1.1827  1.7912
  861MOL0     H16217   2.171   2.362   5.113 -0.3069  0.7424 -0.3183
  861MOL0     H16218   1.908   2.376   5.116 -0.8213 -1.6340 -0.1388
  861MOL0     H16219   0.756   3.013   4.599  0.6257  0.9696 -0.2366
  861MOL0     H16220   0.951   3.141   4.669  4.6725  0.9289  1.5544
  861MOL0     H16221   1.468   2.938   4.947 -2.2191 -0.6856  1.0411
  861MOL0     H16222   1.634   3.067   5.097 -0.3785 -3.1746 -2.5453
  861MOL0     H16223   1.521   3.208   5.342 -1.5788  0.7110 -1.0209
  861MOL0     H16224   1.430   3.340   5.299 -1.0203 -1.2599 -0.9897
  861MOL0     H16225   1.707   3.409   5.422  1.0138  1.5285 -0.6256
  861MOL0     H16226   1.553   3.386   5.510 -0.5546 -1.5449 -0.8137
  861MOL0     H16227   1.509   3.592   5.456  2.2778  3.1565  0.1358
  861MOL0     H16228   1.499   3.557   5.282  0.8468  3.0104 -1.3411
  861MOL0     H16229   1.759   3.599   5.286  0.8273 -1.4680  1.7531
  861MOL0     H16230   1.652   3.738   5.298 -0.4366  0.7760 -0.0965
  861MOL0     H16231   1.856   3.692   5.686 -0.3450 -2.8500  0.7477
  861MOL0     H16232   1.423   3.430   5.000  0.8023  1.2148 -2.8229
  861MOL0     H16233   1.271   3.337   4.704 -3.2417  8.3715 -2.2362
  861MOL0     H16234   1.170   3.312   4.843  0.0514  0.2612  0.5205
  861MOL0     H16235   1.281   3.457   4.828 -0.6745  0.7587 -2.5197
  862MOL0     O16236   4.032   7.611   4.744  0.6426  0.3971  0.6399
  862MOL0     C16237   3.992   7.677   4.646  0.7415 -0.3767 -0.2185
  862MOL0     O16238   3.907   7.627   4.554 -0.7514 -0.1377  0.1187
  862MOL0     C16239   3.854   7.500   4.565 -1.0983 -0.0636 -0.5172
  862MOL0     C16240   3.756   7.477   4.657  0.2478  0.2846 -0.5621
  862MOL0     C16241   3.688   7.360   4.661 -0.4350  0.9907 -0.0005
  862MOL0     C16242   3.719   7.259   4.569  0.3810  0.6057 -0.2263
  862MOL0     O16243   3.662   7.136   4.576  0.0184  0.2933  0.5624
  862MOL0     C16244   3.557   7.106   4.659  0.0486 -1.0782 -0.0016
  862MOL0     C16245   3.471   6.988   4.598 -0.6631  0.2277  0.0738
  862MOL0     C16246   3.399   7.026   4.464  0.5286  0.6414 -0.8363
  862MOL0     C16247   3.292   6.929   4.420 -0.1190  0.4297  0.8020
  862MOL0     C16248   3.161   6.948   4.498 -0.7101  0.4688 -0.3015
  862MOL0     C16249   3.032   6.939   4.423 -0.4407 -0.2377  0.7838
  862MOL0     C16250   2.913   6.975   4.506  0.0850  0.3030 -0.4777
  862MOL0     C16251   2.767   6.977   4.438 -0.6978 -0.1241 -0.0888
  862MOL0     N16252   2.720   6.846   4.378  0.7141 -0.8740 -0.2846
  862MOL0     C16253   2.623   6.849   4.279 -0.5379 -0.3200  0.6360
  862MOL0     C16254   2.637   6.724   4.225  0.9269 -1.4412 -0.3292
  862MOL0     C16255   2.565   6.684   4.098 -0.2160 -0.8506  0.6283
  862MOL0     C16256   2.634   6.715   3.962 -0.7188  0.6573  0.0841
  862MOL0     C16257   2.701   6.856   3.959  0.2512 -0.1835  0.0546
  862MOL0     C16258   2.719   6.900   3.821 -0.3787 -0.1866  0.1431
  862MOL0     O16259   2.810   7.018   3.810  0.1657  0.0409  0.3081
  862MOL0     C16260   2.856   7.055   3.683 -0.0974  0.3984  0.1974
  862MOL0     C16261   2.971   7.137   3.680  0.6928  1.2993  0.0079
  862MOL0     C16262   3.022   7.173   3.554  0.0811 -0.4582 -0.2742
  862MOL0     C16263   2.974   7.130   3.434  0.8440 -0.0990 -0.8068
  862MOL0     C16264   3.038   7.162   3.298  1.2154 -0.6185  0.1574
  862MOL0     O16265   3.001   7.092   3.192  0.0650  0.0039  0.0702
  862MOL0     C16266   3.081   7.108   3.074  0.2177 -0.5493  0.6108
  862MOL0     C16267   3.168   7.012   3.036 -0.3053 -0.1210 -0.5584
  862MOL0     C16268   3.244   7.017   2.922 -0.0504  0.0160 -0.4873
  862MOL0     C16269   3.220   7.130   2.836  0.9456 -0.1013 -0.3360
  862MOL0     O16270   3.297   7.145   2.722 -0.2793  0.4110  0.1853
  862MOL0     C16271   3.381   7.043   2.675 -0.0586 -0.5365  0.8736
  862MOL0     C16272   3.409   7.071   2.524 -1.2276 -0.1523 -0.1620
  862MOL0     C16273   3.278   7.062   2.444  0.0117 -0.3979  1.0728
  862MOL0     C16274   3.310   7.085   2.298  0.1108  1.1692 -0.3045
  862MOL0     C16275   3.193   7.153   2.230 -0.2595 -0.1273 -0.0021
  862MOL0     C16276   3.210   7.195   2.081 -0.0539  0.0542  0.6068
  862MOL0     C16277   3.079   7.241   2.018 -0.3745 -0.8822 -0.9945
  862MOL0     C16278   3.065   7.394   2.020 -0.1435 -0.8654 -0.1817
  862MOL0    Cl16279   3.042   7.490   2.175 -0.0215 -0.0146  0.4655
  862MOL0     C16280   3.133   7.235   2.878 -0.1836  1.0060  0.3486
  862MOL0     C16281   3.061   7.217   2.996 -0.3913 -0.4391 -0.7248
  862MOL0     O16282   3.113   7.257   3.301  0.1919  0.0460  0.4001
  862MOL0     C16283   2.855   7.048   3.434 -0.3444  0.0454  0.6499
  862MOL0     C16284   2.799   7.013   3.565 -0.4854  0.3920 -0.1573
  862MOL0     N16285   2.731   6.649   4.303  0.2688  0.2432  0.1315
  862MOL0     N16286   2.773   6.723   4.404  0.3555 -0.4266  0.0625
  862MOL0     C16287   3.817   7.285   4.469 -0.1546  0.7530 -0.4885
  862MOL0     C16288   3.888   7.404   4.471  0.2149 -0.3233 -0.2662
  862MOL0     C16289   4.017   7.820   4.637 -1.3198 -0.1634  1.0835
  862MOL0     C16290   3.924   7.894   4.564 -0.1492  0.0648 -0.2587
  862MOL0     C16291   3.946   8.035   4.550 -0.5435  0.5623  0.5761
  862MOL0     C16292   4.061   8.088   4.612  0.6206  0.5069  0.3952
  862MOL0     O16293   4.074   8.220   4.590 -0.4958  0.0336  1.1202
  862MOL0     C16294   4.114   8.300   4.702 -0.1716 -0.0093  0.1882
  862MOL0     C16295   4.057   8.444   4.679  0.3481  1.1178  0.5938
  862MOL0     C16296   3.905   8.424   4.660 -0.4092 -0.7536 -0.3965
  862MOL0     C16297   3.818   8.558   4.655  0.2373  0.7202  0.2077
  862MOL0     C16298   3.883   8.642   4.551  0.1075  0.6936 -0.5778
  862MOL0     C16299   3.952   8.705   4.471  0.5044 -0.8816  0.6333
  862MOL0     C16300   4.161   8.015   4.675 -0.4689  0.4252  0.3767
  862MOL0     C16301   4.141   7.874   4.683 -0.3426 -1.5393  0.4265
  862MOL0     C16302   4.251   7.791   4.743 -0.0433  0.0455 -0.9000
  862MOL0     H16303   3.734   7.552   4.733 -0.1984 -1.6205  1.2786
  862MOL0     H16304   3.615   7.366   4.741 -1.1643  2.3703 -0.7225
  862MOL0     H16305   3.587   7.080   4.761  0.1688 -2.1947 -0.3144
  862MOL0     H16306   3.489   7.191   4.664 -0.4257 -0.9138 -4.5328
  862MOL0     H16307   3.406   6.944   4.673  1.0064 -0.3324  1.2419
  862MOL0     H16308   3.550   6.914   4.584  0.0727  0.6860  1.5642
  862MOL0     H16309   3.476   7.033   4.387  1.9968  0.3343  0.5385
  862MOL0     H16310   3.353   7.123   4.482  0.6367  0.3001  1.6121
  862MOL0     H16311   3.282   6.964   4.317  1.8189  3.6489  1.5751
  862MOL0     H16312   3.328   6.826   4.422  1.0200  0.7779 -0.2853
  862MOL0     H16313   3.153   6.881   4.585 -4.3494  1.5545  0.3365
  862MOL0     H16314   3.179   7.045   4.546 -2.4953  0.4705  0.4329
  862MOL0     H16315   3.036   7.007   4.337 -0.9700 -0.8234  0.2840
  862MOL0     H16316   3.023   6.841   4.373  1.9385 -0.7135  1.1708
  862MOL0     H16317   2.939   7.071   4.552 -0.7684 -1.5532  4.4903
  862MOL0     H16318   2.909   6.899   4.584 -0.8884  0.4482 -0.3758
  862MOL0     H16319   2.698   7.011   4.516 -4.0347 -2.2781 -1.8352
  862MOL0     H16320   2.771   7.052   4.358 -0.7680 -0.3769 -0.3313
  862MOL0     H16321   2.555   6.928   4.249 -0.0253  1.6976  4.1846
  862MOL0     H16322   2.542   6.577   4.098 -0.6962 -0.7512  0.2016
  862MOL0     H16323   2.471   6.740   4.093  0.6930  0.8274  1.3027
  862MOL0     H16324   2.714   6.641   3.952 -2.5711 -1.3298 -0.7146
  862MOL0     H16325   2.563   6.703   3.879 -1.0059  0.3370  0.3736
  862MOL0     H16326   2.802   6.861   4.001 -0.9862 -2.3554  3.8379
  862MOL0     H16327   2.629   6.922   4.009  0.7091 -0.7455  1.5363
  862MOL0     H16328   2.629   6.920   3.761  0.3574 -0.6743 -1.1524
  862MOL0     H16329   2.786   6.825   3.779 -2.5808 -1.7422 -0.8305
  862MOL0     H16330   3.000   7.175   3.777 -0.6065  1.7879  0.2364
  862MOL0     H16331   3.099   7.249   3.561  0.2427 -0.4772 -1.4860
  862MOL0     H16332   3.192   6.933   3.107 -2.2802 -0.8007 -0.5794
  862MOL0     H16333   3.319   6.943   2.895  1.6868  2.3646 -2.4907
  862MOL0     H16334   3.469   7.061   2.737  2.4438  2.0870 -2.9843
  862MOL0     H16335   3.327   6.950   2.694 -0.4687 -0.0376  2.3570
  862MOL0     H16336   3.438   7.176   2.512 -0.0761 -0.8023 -4.6601
  862MOL0     H16337   3.497   7.017   2.486 -1.0748  0.1708 -0.2680
  862MOL0     H16338   3.214   6.975   2.457  0.7494 -1.4296 -1.5494
  862MOL0     H16339   3.222   7.152   2.472  1.7442  0.1549  3.0294
  862MOL0     H16340   3.345   6.999   2.239  3.4337  2.7705 -0.9423
  862MOL0     H16341   3.386   7.162   2.281 -1.7774  2.7645 -2.0159
  862MOL0     H16342   3.179   7.249   2.282  1.1349  0.5570 -0.8183
  862MOL0     H16343   3.119   7.074   2.246  0.7333 -0.7986  1.5711
  862MOL0     H16344   3.297   7.260   2.071 -0.7416  0.6076 -2.6099
  862MOL0     H16345   3.242   7.111   2.019  0.0001 -0.4167  1.2607
  862MOL0     H16346   2.997   7.198   2.076 -0.3444  1.1294  0.6852
  862MOL0     H16347   3.069   7.209   1.914 -3.9322 -2.6897 -0.2183
  862MOL0     H16348   3.157   7.422   1.969 -0.0483 -2.7774 -1.1130
  862MOL0     H16349   2.988   7.421   1.948 -0.2813  1.6947  0.8119
  862MOL0     H16350   3.126   7.326   2.820 -0.8518  1.3666  0.9907
  862MOL0     H16351   2.986   7.290   3.024 -1.3216 -0.5961 -2.6301
  862MOL0     H16352   2.818   7.025   3.335 -0.7564 -0.3256  0.8877
  862MOL0     H16353   2.716   6.943   3.569  1.9408 -2.7365 -1.2001
  862MOL0     H16354   3.859   7.214   4.398  3.3997  1.9424  0.2149
  862MOL0     H16355   3.963   7.422   4.395 -1.0416  0.1877 -1.4299
  862MOL0     H16356   3.837   7.850   4.516  1.9940 -4.9046 -0.2319
  862MOL0     H16357   3.878   8.104   4.501 -3.1509 -2.1102  0.1252
  862MOL0     H16358   4.223   8.303   4.706 -0.1574  0.1486 -0.2513
  862MOL0     H16359   4.066   8.268   4.795 -0.6662 -1.9951 -0.6932
  862MOL0     H16360   4.103   8.491   4.592  0.0749  1.8970  0.8577
  862MOL0     H16361   4.082   8.498   4.771 -0.6131 -2.6001  3.2410
  862MOL0     H16362   3.861   8.363   4.739 -0.7470 -2.3068 -1.7302
  862MOL0     H16363   3.893   8.370   4.565 -1.2940  0.1868 -0.8272
  862MOL0     H16364   3.712   8.534   4.644 -0.1763 -0.0949  4.4491
  862MOL0     H16365   3.825   8.610   4.750  0.2561  0.6992  0.2177
  862MOL0     H16366   4.019   8.752   4.402  0.7030 -2.7590 -0.5231
  862MOL0     H16367   4.251   8.067   4.705 -0.1548 -0.4190  0.9331
  862MOL0     H16368   4.234   7.774   4.850  0.0400 -0.2201 -0.9296
  862MOL0     H16369   4.258   7.698   4.688  0.7014  1.4075 -3.2229
  862MOL0     H16370   4.349   7.838   4.741 -0.7703  2.7149  4.6365
  863MOL0     O16371   1.977   5.009   9.166  0.7551 -0.0425 -0.4030
  863MOL0     C16372   2.055   4.919   9.131  0.6516 -0.0816  0.1952
  863MOL0     O16373   2.062   4.787   9.183  0.0675 -0.4409 -0.0102
  863MOL0     C16374   1.945   4.743   9.237  0.4561 -0.2093  0.8581
  863MOL0     C16375   1.924   4.719   9.378  0.0243 -0.7339  1.4577
  863MOL0     C16376   1.816   4.638   9.424  0.0185 -0.3557 -0.3500
  863MOL0     C16377   1.720   4.593   9.336 -0.2821  0.3680  1.4781
  863MOL0     O16378   1.610   4.513   9.365  0.0271 -0.7368 -0.6699
  863MOL0     C16379   1.611   4.404   9.450 -0.2845  0.1557  0.2040
  863MOL0     C16380   1.484   4.393   9.540 -0.4869 -0.4758 -0.1554
  863MOL0     C16381   1.471   4.519   9.623 -0.0881 -0.0625  0.4337
  863MOL0     C16382   1.369   4.508   9.742  0.4954  0.7430  0.8638
  863MOL0     C16383   1.329   4.647   9.791  0.7257 -0.0037 -0.5368
  863MOL0     C16384   1.266   4.642   9.931  0.0480  0.0264  0.7132
  863MOL0     C16385   1.130   4.591   9.941 -0.3833  0.0856  0.3047
  863MOL0     C16386   1.071   4.633  10.076  0.1225 -0.1717 -1.0443
  863MOL0     N16387   0.963   4.538  10.125  0.0918 -0.0908  0.4100
  863MOL0     C16388   0.832   4.544  10.070 -0.2594  0.0077  0.1534
  863MOL0     C16389   0.771   4.446  10.127  0.5636  0.3575 -2.1350
  863MOL0     C16390   0.634   4.413  10.105  0.0054  0.1244  0.2784
  863MOL0     C16391   0.547   4.490  10.206  0.3438 -0.1224  0.0717
  863MOL0     C16392   0.402   4.433  10.203 -0.6145 -0.4383 -1.2919
  863MOL0     C16393   0.380   4.279  10.231 -0.1656 -0.7884  0.4821
  863MOL0     O16394   0.443   4.230  10.356 -0.0624  0.0269  0.3412
  863MOL0     C16395   0.437   4.099  10.378 -0.6219 -0.6883 -0.1868
  863MOL0     C16396   0.514   4.047  10.482 -0.2575  0.5232 -0.2874
  863MOL0     C16397   0.503   3.905  10.518  1.6091  0.4521 -0.1241
  863MOL0     C16398   0.414   3.822  10.456 -0.7186  1.2701  0.3609
  863MOL0     C16399   0.411   3.668  10.492 -0.6910 -0.5125  0.2845
  863MOL0     O16400   0.498   3.624  10.581 -0.0883  0.1244  0.4088
  863MOL0     C16401   0.481   3.489  10.622  0.9042  0.2537  0.0387
  863MOL0     C16402   0.439   3.462  10.749  0.8382  0.1186  0.3286
  863MOL0     C16403   0.410   3.332  10.789 -1.1476 -0.3709 -0.4067
  863MOL0     C16404   0.453   3.221  10.714  0.4115  0.0861  0.3928
  863MOL0     O16405   0.450   3.086  10.762 -0.3804 -1.1332  1.2230
  863MOL0     C16406   0.369   3.051  10.868  1.3833 -0.1453 -0.1959
  863MOL0     C16407   0.222   3.022  10.820 -0.1621  0.6077  0.9636
  863MOL0     C16408   0.162   2.892  10.866  0.7663 -0.6011 -0.3518
  863MOL0     C16409   0.011   2.906  10.895 -0.1613  0.0678 -1.1623
  863MOL0     C16410  -0.039   2.780  10.953  0.5781 -0.9673  0.5637
  863MOL0     C16411  -0.191   2.770  10.965  0.7407 -0.2344  0.2159
  863MOL0     C16412  -0.223   2.680  11.094 -1.5490 -0.3742  0.8405
  863MOL0     C16413  -0.371   2.677  11.120 -0.1105  0.2453  0.1599
  863MOL0    Cl16414  -0.401   2.568  11.258  0.5559 -0.0711  0.0284
  863MOL0     C16415   0.506   3.247  10.589 -0.4826  0.7450  0.3131
  863MOL0     C16416   0.523   3.383  10.533 -0.2143  0.2608 -0.5618
  863MOL0     O16417   0.325   3.599  10.437  0.0999 -0.0428  0.0189
  863MOL0     C16418   0.343   3.871  10.345  0.3942  0.4214 -0.5933
  863MOL0     C16419   0.354   4.003  10.304 -0.2771  0.0322  0.3534
  863MOL0     N16420   0.853   4.368  10.218 -0.0699  0.3018  0.0022
  863MOL0     N16421   0.972   4.428  10.209  0.5832  1.1276 -0.0192
  863MOL0     C16422   1.728   4.628   9.205  0.1225  0.2581  0.1680
  863MOL0     C16423   1.836   4.697   9.149 -0.3859 -0.2687 -1.3302
  863MOL0     C16424   2.157   4.953   9.040 -0.0654  0.1574  0.9250
  863MOL0     C16425   2.290   4.944   9.094  1.5866 -0.3370 -0.5971
  863MOL0     C16426   2.392   4.973   9.014  0.5692  0.2372  0.0307
  863MOL0     C16427   2.372   4.994   8.874  0.1381  0.1552 -0.3277
  863MOL0     O16428   2.491   5.012   8.809 -0.3567  0.3204  0.2107
  863MOL0     C16429   2.494   5.055   8.680 -0.1738 -1.0469  0.4703
  863MOL0     C16430   2.513   5.206   8.673 -0.2500 -0.1814  0.9614
  863MOL0     C16431   2.424   5.280   8.567 -0.8982  0.3297 -0.9653
  863MOL0     C16432   2.281   5.318   8.601  0.0993  0.5100 -0.4749
  863MOL0     C16433   2.222   5.374   8.478 -0.5253  0.6276  0.5804
  863MOL0     C16434   2.191   5.429   8.371 -0.5590 -0.2595  0.1595
  863MOL0     C16435   2.238   4.982   8.825  0.1861  0.3688 -0.2802
  863MOL0     C16436   2.130   4.972   8.911 -0.4781 -1.1672  0.8394
  863MOL0     C16437   1.991   5.003   8.852 -0.2437  1.2523  0.2663
  863MOL0     H16438   1.997   4.758   9.449  1.3943  1.9458 -1.1849
  863MOL0     H16439   1.806   4.616   9.530  1.0125 -2.2816 -0.6203
  863MOL0     H16440   1.609   4.315   9.385  1.6037  0.3844 -0.2275
  863MOL0     H16441   1.703   4.398   9.508  0.4177  1.4067 -0.7393
  863MOL0     H16442   1.485   4.298   9.593  2.7559 -0.9157 -0.8194
  863MOL0     H16443   1.397   4.397   9.473 -0.7303  0.6604  0.2042
  863MOL0     H16444   1.445   4.597   9.551  2.9790  0.3044 -0.4065
  863MOL0     H16445   1.568   4.550   9.665  1.1922 -0.0494 -2.3404
  863MOL0     H16446   1.278   4.456   9.708 -0.4111  0.3974  3.5950
  863MOL0     H16447   1.413   4.453   9.825 -1.3716 -4.0283 -0.9506
  863MOL0     H16448   1.419   4.708   9.800  0.2472  1.1825 -2.9545
  863MOL0     H16449   1.260   4.695   9.721  0.6478 -0.1714 -0.5770
  863MOL0     H16450   1.330   4.570   9.981  1.5690 -0.6036 -1.9663
  863MOL0     H16451   1.273   4.738   9.985  0.6169 -1.9650  4.5153
  863MOL0     H16452   1.140   4.483   9.928  4.0695  0.2523  0.7437
  863MOL0     H16453   1.068   4.640   9.865  0.3094 -0.3730 -0.5738
  863MOL0     H16454   1.152   4.655  10.146  0.1169  1.8028 -1.5990
  863MOL0     H16455   1.026   4.733  10.082 -2.5269 -1.3598  2.4110
  863MOL0     H16456   0.803   4.622  10.000 -2.8235 -1.6529 -0.7589
  863MOL0     H16457   0.597   4.452  10.009 -0.9130  1.8831  1.3065
  863MOL0     H16458   0.621   4.305  10.092  1.6624  0.0757 -1.4495
  863MOL0     H16459   0.591   4.493  10.306 -3.1032  1.8494  1.7197
  863MOL0     H16460   0.537   4.593  10.172  3.1121  0.8679  1.9557
  863MOL0     H16461   0.352   4.456  10.109 -0.1317 -0.1712 -1.4883
  863MOL0     H16462   0.343   4.491  10.274 -0.8839 -0.8797 -1.1496
  863MOL0     H16463   0.405   4.223  10.141 -1.0029 -2.9247  1.5311
  863MOL0     H16464   0.273   4.259  10.235 -0.2257 -1.5608 -2.5923
  863MOL0     H16465   0.565   4.118  10.547 -1.3484  2.2807 -1.2551
  863MOL0     H16466   0.558   3.860  10.600 -1.1630  0.6457  1.9932
  863MOL0     H16467   0.429   3.545  10.818 -0.1174  0.5177 -0.2626
  863MOL0     H16468   0.373   3.327  10.891 -0.6839 -1.6620 -0.2797
  863MOL0     H16469   0.420   2.961  10.905  3.9872  1.6921  0.9841
  863MOL0     H16470   0.379   3.128  10.945  6.8732  0.0851 -0.7513
  863MOL0     H16471   0.166   3.105  10.863 -0.3243  1.0439 -0.0600
  863MOL0     H16472   0.232   3.015  10.711 -1.0797 -1.0977  0.9573
  863MOL0     H16473   0.167   2.813  10.791 -2.4748  0.5022 -1.8810
  863MOL0     H16474   0.203   2.877  10.967 -1.2517 -0.2129  0.5689
  863MOL0     H16475  -0.044   2.923  10.802 -3.6570  0.0065  0.7087
  863MOL0     H16476   0.002   2.995  10.959  1.7551  0.7320 -1.7564
  863MOL0     H16477  -0.007   2.779  11.058 -0.3080  2.3143  0.9671
  863MOL0     H16478   0.001   2.696  10.896  0.2087 -0.5400 -0.3389
  863MOL0     H16479  -0.243   2.866  10.972 -1.1713 -1.0647 -1.4248
  863MOL0     H16480  -0.240   2.733  10.874 -0.1253  1.9526 -0.2566
  863MOL0     H16481  -0.174   2.730  11.178 -2.6406  1.3408  0.4953
  863MOL0     H16482  -0.187   2.577  11.082 -1.1371 -0.1935  0.4913
  863MOL0     H16483  -0.434   2.763  11.141 -2.6051 -1.3398 -0.3379
  863MOL0     H16484  -0.418   2.633  11.031 -1.2941  1.2244  0.2687
  863MOL0     H16485   0.540   3.164  10.528 -1.6635  0.5411 -0.0823
  863MOL0     H16486   0.566   3.401  10.435 -1.3857  1.0276 -0.9686
  863MOL0     H16487   0.275   3.814  10.282  2.9344  0.2307 -3.3945
  863MOL0     H16488   0.292   4.037  10.222 -1.4325 -3.7171 -0.5211
  863MOL0     H16489   1.660   4.606   9.123 -1.2512  3.9014  0.1532
  863MOL0     H16490   1.834   4.709   9.041 -0.5889 -0.2060 -1.3195
  863MOL0     H16491   2.304   4.914   9.197 -1.3227  2.3504  0.7578
  863MOL0     H16492   2.489   4.971   9.061  0.2726 -0.7093  0.6310
  863MOL0     H16493   2.410   5.018   8.619  0.2749 -0.0576 -0.8029
  863MOL0     H16494   2.582   5.019   8.625 -1.7569 -1.7811 -1.7548
  863MOL0     H16495   2.620   5.225   8.660 -0.5240  3.7672  3.0228
  863MOL0     H16496   2.495   5.251   8.771  2.1575  0.8917  0.9724
  863MOL0     H16497   2.433   5.224   8.474 -0.2446 -1.8113  0.3087
  863MOL0     H16498   2.468   5.379   8.555 -0.5602  0.2254 -0.5834
  863MOL0     H16499   2.230   5.223   8.620 -2.3989  0.8602 -4.3385
  863MOL0     H16500   2.259   5.382   8.687 -1.9795 -0.3787 -0.2780
  863MOL0     H16501   2.173   5.466   8.272  0.5294 -0.0598  0.0298
  863MOL0     H16502   2.221   4.996   8.719  1.4715  3.3955 -0.2038
  863MOL0     H16503   1.918   4.922   8.865  0.0687  0.2913 -3.0690
  863MOL0     H16504   1.947   5.090   8.902  1.0442  0.9897  1.9043
  863MOL0     H16505   1.990   5.026   8.745  0.6147 -4.4295 -1.2650
  864MOL0     O16506   9.294   7.987   8.350 -0.0532 -0.1405 -0.1171
  864MOL0     C16507   9.303   7.861   8.339 -1.2731 -0.1166 -0.3811
  864MOL0     O16508   9.248   7.766   8.423 -0.6263  0.2018 -0.4255
  864MOL0     C16509   9.184   7.799   8.541 -0.6322  0.6474  0.0008
  864MOL0     C16510   9.083   7.713   8.592  1.0962  0.6532  0.6227
  864MOL0     C16511   8.993   7.755   8.688 -0.4931  0.1098 -0.5007
  864MOL0     C16512   9.018   7.872   8.767 -0.9183 -1.0881  1.0695
  864MOL0     O16513   8.961   7.901   8.889  0.0153 -0.9176 -0.0519
  864MOL0     C16514   8.893   7.788   8.960  0.3585  0.1372 -0.3044
  864MOL0     C16515   8.746   7.777   8.909  0.3911  0.2860 -0.2743
  864MOL0     C16516   8.655   7.898   8.950 -0.6590  0.2896 -0.5819
  864MOL0     C16517   8.495   7.877   8.932  0.2307  0.7040  0.3719
  864MOL0     C16518   8.424   8.000   8.962  0.4076  0.2950 -1.1151
  864MOL0     C16519   8.273   7.992   8.930  0.3196 -0.2638  0.0209
  864MOL0     C16520   8.206   7.885   9.007 -0.4856 -0.1944  0.1458
  864MOL0     C16521   8.058   7.865   8.958 -0.1416 -0.4358 -0.0385
  864MOL0     N16522   7.984   7.989   8.929 -0.6202 -0.6127 -0.8026
  864MOL0     C16523   8.004   8.069   8.821  0.0743 -1.0131  1.4200
  864MOL0     C16524   7.931   8.183   8.853 -0.0321  0.7997  0.6975
  864MOL0     C16525   7.896   8.303   8.765 -0.1756 -0.6973 -0.0585
  864MOL0     C16526   7.786   8.291   8.662 -0.4282 -0.0403  0.1577
  864MOL0     C16527   7.725   8.413   8.591  0.7717 -0.1612  0.1951
  864MOL0     C16528   7.822   8.503   8.533  0.0268 -0.8604  0.6647
  864MOL0     O16529   7.871   8.438   8.413 -0.2379  0.7047  0.4406
  864MOL0     C16530   7.986   8.479   8.347 -0.4595 -0.5009 -0.2755
  864MOL0     C16531   8.063   8.589   8.391  0.6835 -0.4120  0.8672
  864MOL0     C16532   8.180   8.632   8.324  0.9068  0.7810 -1.2182
  864MOL0     C16533   8.224   8.561   8.209 -1.1109  1.1876  0.0895
  864MOL0     C16534   8.337   8.616   8.135  0.3417 -0.7108  0.3547
  864MOL0     O16535   8.369   8.556   8.020 -0.4776 -0.0198 -0.4837
  864MOL0     C16536   8.479   8.607   7.950 -1.3355  0.3560  0.0931
  864MOL0     C16537   8.508   8.744   7.920 -0.0025  0.1787  0.7822
  864MOL0     C16538   8.614   8.773   7.834 -0.0845  0.0497  0.4207
  864MOL0     C16539   8.695   8.665   7.800 -1.1361  0.5614 -0.1146
  864MOL0     O16540   8.809   8.686   7.723 -0.0318 -0.2679  0.1387
  864MOL0     C16541   8.889   8.800   7.755  0.4767  0.5471 -0.7927
  864MOL0     C16542   8.999   8.782   7.654  0.2739  0.3126  0.2514
  864MOL0     C16543   9.077   8.644   7.672 -0.7910  0.3370 -0.3814
  864MOL0     C16544   9.050   8.568   7.544  1.0525  0.5301 -0.0480
  864MOL0     C16545   9.118   8.426   7.537  0.1705 -0.2896 -0.1372
  864MOL0     C16546   9.272   8.437   7.514  0.4145 -0.3756 -0.3862
  864MOL0     C16547   9.353   8.312   7.532  0.3799 -0.1002  0.8247
  864MOL0     C16548   9.340   8.213   7.414  0.0102  0.5954  0.5560
  864MOL0    Cl16549   9.190   8.100   7.439  0.3329  0.0997  0.0557
  864MOL0     C16550   8.668   8.537   7.825  0.0139 -0.0121  0.2980
  864MOL0     C16551   8.552   8.501   7.908  0.3139  1.0260 -0.0893
  864MOL0     O16552   8.394   8.719   8.183  0.4890  0.3525 -0.0020
  864MOL0     C16553   8.166   8.436   8.174  0.2463 -0.0574 -1.5232
  864MOL0     C16554   8.049   8.399   8.250  0.3316 -1.1238 -0.0944
  864MOL0     N16555   7.868   8.161   8.979 -0.2890 -0.1306  0.1186
  864MOL0     N16556   7.920   8.056   9.027  0.5724 -0.4216  0.4011
  864MOL0     C16557   9.114   7.954   8.722  0.5505  0.1860 -0.4307
  864MOL0     C16558   9.189   7.923   8.607  0.6007  0.2417  0.6711
  864MOL0     C16559   9.408   7.815   8.241 -0.3747  0.0458  0.5457
  864MOL0     C16560   9.447   7.672   8.243  0.2216 -1.2175 -0.2371
  864MOL0     C16561   9.537   7.614   8.157 -0.9669  0.2676  0.2810
  864MOL0     C16562   9.590   7.691   8.061 -0.1358 -0.5547 -0.0916
  864MOL0     O16563   9.651   7.634   7.953 -0.1519 -0.2683 -0.2811
  864MOL0     C16564   9.648   7.704   7.817 -0.0885  0.2046  0.6531
  864MOL0     C16565   9.693   7.612   7.703 -0.0657 -0.2952 -0.4314
  864MOL0     C16566   9.607   7.491   7.678 -0.0612 -0.3882  0.4616
  864MOL0     C16567   9.626   7.421   7.546  0.3710  0.1007 -0.1107
  864MOL0     C16568   9.758   7.377   7.506  0.1111 -0.3686 -0.5450
  864MOL0     C16569   9.870   7.342   7.474  0.7869  0.2411 -0.1917
  864MOL0     C16570   9.559   7.829   8.052  0.2241 -0.0740  0.5169
  864MOL0     C16571   9.485   7.891   8.156 -0.8274 -1.2256  0.5123
  864MOL0     C16572   9.465   8.046   8.141 -0.1750 -0.2385  1.1480
  864MOL0     H16573   9.064   7.617   8.546 -3.0731  1.4922  0.2505
  864MOL0     H16574   8.904   7.698   8.715  0.1799 -1.3766 -1.3591
  864MOL0     H16575   8.956   7.700   8.945 -1.2076 -1.1362  0.3813
  864MOL0     H16576   8.891   7.804   9.068 -0.4914  1.3630 -0.4821
  864MOL0     H16577   8.713   7.689   8.966 -0.8228  0.8991  0.0098
  864MOL0     H16578   8.736   7.762   8.801 -3.1028 -2.3692  0.2282
  864MOL0     H16579   8.666   7.987   8.888 -1.5933  1.6495  1.1017
  864MOL0     H16580   8.686   7.919   9.053 -1.6512 -1.2186  0.0634
  864MOL0     H16581   8.486   7.846   8.828 -0.3610 -1.5199  1.0196
  864MOL0     H16582   8.464   7.791   8.992  4.2500 -0.3502  1.2839
  864MOL0     H16583   8.438   8.022   9.068 -3.1689 -0.2020 -0.4179
  864MOL0     H16584   8.457   8.082   8.897  0.2938 -0.0554 -1.6244
  864MOL0     H16585   8.226   8.089   8.947  0.3643  0.0753 -1.5934
  864MOL0     H16586   8.255   7.971   8.824  2.7424 -4.7995  0.2684
  864MOL0     H16587   8.199   7.909   9.113 -1.4424 -0.6031  0.1782
  864MOL0     H16588   8.252   7.787   8.992  1.9376  1.2173 -2.7339
  864MOL0     H16589   8.070   7.801   8.870  2.5039  0.0808 -0.1262
  864MOL0     H16590   7.992   7.818   9.032  0.2338 -0.8763  0.0253
  864MOL0     H16591   8.063   8.051   8.732 -3.1356 -1.2321 -0.8400
  864MOL0     H16592   7.873   8.385   8.834 -1.8821 -1.3367  0.1681
  864MOL0     H16593   7.984   8.333   8.707 -1.4990 -0.2072 -1.8904
  864MOL0     H16594   7.804   8.226   8.576 -2.0469  0.8019 -0.8747
  864MOL0     H16595   7.705   8.241   8.716 -4.2354  2.6743 -2.5242
  864MOL0     H16596   7.671   8.476   8.662 -0.1881  0.4030 -0.9860
  864MOL0     H16597   7.651   8.379   8.518  0.4017 -1.1996  1.0383
  864MOL0     H16598   7.915   8.522   8.587 -0.6398  1.6973  1.0501
  864MOL0     H16599   7.781   8.599   8.500 -1.9999 -1.3477  1.5742
  864MOL0     H16600   8.037   8.654   8.474  3.2395  0.9267  0.7241
  864MOL0     H16601   8.228   8.722   8.360 -2.0743  2.7919 -1.9016
  864MOL0     H16602   8.445   8.824   7.957  0.3989  0.8270  0.0873
  864MOL0     H16603   8.634   8.873   7.797 -0.4869 -0.9115 -2.6706
  864MOL0     H16604   8.835   8.893   7.736  1.1851  0.9971 -0.6504
  864MOL0     H16605   8.934   8.803   7.855 -3.5766  0.5066  1.2418
  864MOL0     H16606   8.945   8.779   7.559 -0.5919 -2.3959  0.7252
  864MOL0     H16607   9.074   8.861   7.655  1.7826 -1.0104 -1.3447
  864MOL0     H16608   9.184   8.659   7.692 -0.4262 -2.3148  0.0599
  864MOL0     H16609   9.038   8.603   7.766 -0.7417  0.9542 -0.0877
  864MOL0     H16610   9.088   8.633   7.464  3.6523  2.8582  2.8567
  864MOL0     H16611   8.943   8.547   7.532  1.0537  1.0247 -1.0998
  864MOL0     H16612   9.081   8.379   7.445  0.7805  3.5636 -2.5628
  864MOL0     H16613   9.099   8.362   7.624 -1.4081 -1.7545 -1.4791
  864MOL0     H16614   9.293   8.481   7.416 -1.1446 -0.0276 -0.5822
  864MOL0     H16615   9.326   8.506   7.580  0.2222 -1.5443  1.0367
  864MOL0     H16616   9.321   8.259   7.622 -1.6512 -0.9930 -0.3555
  864MOL0     H16617   9.457   8.345   7.546  0.3775 -0.1425  0.9493
  864MOL0     H16618   9.340   8.261   7.316 -0.3739 -3.2787 -1.5438
  864MOL0     H16619   9.428   8.149   7.403  1.4205  2.5442 -0.0962
  864MOL0     H16620   8.733   8.457   7.792  0.3539 -0.5415  2.1487
  864MOL0     H16621   8.525   8.397   7.924  1.3772  0.5566 -1.1389
  864MOL0     H16622   8.211   8.364   8.106  0.0671  0.1660 -1.8773
  864MOL0     H16623   8.005   8.303   8.224 -0.4640 -0.6461 -0.5625
  864MOL0     H16624   9.139   8.048   8.770 -1.2211  1.1751 -1.3132
  864MOL0     H16625   9.258   7.999   8.572  0.7751  0.5605  1.6821
  864MOL0     H16626   9.400   7.600   8.310  1.2402 -1.8914 -0.2241
  864MOL0     H16627   9.556   7.507   8.153  0.2088  0.4862 -0.4096
  864MOL0     H16628   9.710   7.793   7.831 -2.0266  1.3513  2.5916
  864MOL0     H16629   9.548   7.741   7.792  1.1289  1.8427 -2.3988
  864MOL0     H16630   9.795   7.579   7.720  0.0990 -0.9354 -2.3328
  864MOL0     H16631   9.690   7.683   7.619  0.5103  0.7973  0.4375
  864MOL0     H16632   9.502   7.521   7.686 -0.4900 -1.7905  0.3668
  864MOL0     H16633   9.619   7.422   7.762 -2.9899 -3.5180 -1.4468
  864MOL0     H16634   9.565   7.330   7.538  1.6174 -0.7846  0.2887
  864MOL0     H16635   9.590   7.493   7.471 -0.7005 -2.0616 -1.7987
  864MOL0     H16636   9.968   7.307   7.449  2.5635  3.6504  1.2751
  864MOL0     H16637   9.597   7.892   7.972 -1.2535 -1.0523 -1.0226
  864MOL0     H16638   9.520   8.075   8.051  2.4164 -3.0226  1.6589
  864MOL0     H16639   9.366   8.090   8.125  0.6678  1.3057 -0.1066
  864MOL0     H16640   9.514   8.094   8.226  0.0507  1.2069  0.2323
  865MOL0     O16641   0.966   6.516   3.365  0.2142  0.2104 -0.5397
  865MOL0     C16642   0.900   6.611   3.320  0.2085 -0.3863 -0.5012
  865MOL0     O16643   0.769   6.609   3.313  0.7512  0.2504  0.8331
  865MOL0     C16644   0.704   6.538   3.412 -0.2192  0.0143  0.8345
  865MOL0     C16645   0.657   6.609   3.524 -0.3618  0.5521 -0.2211
  865MOL0     C16646   0.587   6.549   3.625 -0.4839  0.3597 -0.4875
  865MOL0     C16647   0.548   6.417   3.608  1.0273  0.5563 -0.7739
  865MOL0     O16648   0.474   6.346   3.693  0.8400  0.6930  0.0586
  865MOL0     C16649   0.433   6.391   3.829  0.5693  0.2332  0.7141
  865MOL0     C16650   0.366   6.262   3.878 -1.4521 -0.7449 -0.0407
  865MOL0     C16651   0.221   6.251   3.823 -0.5054  0.2766 -1.0287
  865MOL0     C16652   0.131   6.339   3.897 -0.5318  0.2488 -0.6404
  865MOL0     C16653   0.021   6.391   3.810 -0.7268  0.1949 -0.5540
  865MOL0     C16654  -0.045   6.505   3.884  0.4328 -1.0950  0.2529
  865MOL0     C16655  -0.163   6.557   3.817 -0.9505 -0.3994  0.2601
  865MOL0     C16656  -0.274   6.449   3.819  0.5177 -0.2896 -0.8787
  865MOL0     N16657  -0.402   6.506   3.781 -0.1884 -0.5744  0.0431
  865MOL0     C16658  -0.467   6.595   3.858  0.0198 -0.2437 -0.3102
  865MOL0     C16659  -0.578   6.630   3.790 -0.2628 -1.2574  0.0419
  865MOL0     C16660  -0.662   6.742   3.821  0.8970 -0.6149  0.5533
  865MOL0     C16661  -0.644   6.869   3.730 -1.0016 -0.1354 -0.6242
  865MOL0     C16662  -0.735   6.986   3.794  0.1338  1.3871  0.6579
  865MOL0     C16663  -0.660   7.067   3.901  1.0067 -0.5185 -0.6277
  865MOL0     O16664  -0.732   7.194   3.931 -0.2650 -0.2205  0.4132
  865MOL0     C16665  -0.690   7.304   3.853 -0.0087  0.1536 -0.6345
  865MOL0     C16666  -0.627   7.301   3.738  0.4837  0.7286  0.6507
  865MOL0     C16667  -0.577   7.418   3.678  0.2762 -0.8467 -0.3662
  865MOL0     C16668  -0.586   7.536   3.753 -0.5211 -0.5918 -0.3252
  865MOL0     C16669  -0.533   7.663   3.691 -0.5357 -0.0241 -0.3487
  865MOL0     O16670  -0.562   7.777   3.752 -0.1654  0.2912  0.0527
  865MOL0     C16671  -0.578   7.885   3.662  0.4574  0.1895 -0.5992
  865MOL0     C16672  -0.601   8.009   3.725 -1.1835  0.2186 -1.1396
  865MOL0     C16673  -0.628   8.125   3.654 -0.8921 -0.1273  0.2080
  865MOL0     C16674  -0.649   8.108   3.518 -0.0604  0.0870  0.8099
  865MOL0     O16675  -0.685   8.211   3.435  0.7896 -0.1366 -0.7234
  865MOL0     C16676  -0.681   8.345   3.484 -0.0847 -0.6072  0.2352
  865MOL0     C16677  -0.702   8.453   3.379  0.4149 -0.2389  1.0211
  865MOL0     C16678  -0.848   8.456   3.312 -0.2938  0.5774 -0.2632
  865MOL0     C16679  -0.868   8.340   3.221 -0.1680 -0.0348 -0.2839
  865MOL0     C16680  -0.770   8.315   3.108 -0.4150 -0.0854 -0.1485
  865MOL0     C16681  -0.712   8.443   3.047  0.0998  0.6398 -0.1520
  865MOL0     C16682  -0.645   8.408   2.915 -0.1378 -0.4213  0.3027
  865MOL0     C16683  -0.632   8.532   2.830  0.6189 -0.8372 -0.9393
  865MOL0    Cl16684  -0.799   8.585   2.781  0.2378  0.7211  0.0882
  865MOL0     C16685  -0.642   7.984   3.454  0.6462  0.5278  0.2216
  865MOL0     C16686  -0.610   7.872   3.530 -0.4392 -0.0944  0.4604
  865MOL0     O16687  -0.435   7.643   3.622  0.0236  0.2074  0.7400
  865MOL0     C16688  -0.662   7.548   3.876  0.0002 -0.2410  0.9400
  865MOL0     C16689  -0.711   7.428   3.921  0.6069  0.0967 -0.5746
  865MOL0     N16690  -0.584   6.544   3.682  0.3271  0.1523  0.7537
  865MOL0     N16691  -0.481   6.467   3.677 -0.6513 -0.3530  0.4507
  865MOL0     C16692   0.586   6.343   3.494 -0.9992 -0.0731 -0.4596
  865MOL0     C16693   0.668   6.405   3.399 -0.1835  0.6424  0.1496
  865MOL0     C16694   0.965   6.715   3.250 -0.3608 -0.3943  0.5065
  865MOL0     C16695   0.882   6.795   3.172  0.5474 -0.1390 -0.5187
  865MOL0     C16696   0.936   6.909   3.103  0.0918 -0.0570  0.2000
  865MOL0     C16697   1.074   6.935   3.092 -0.0423  0.6197  0.0795
  865MOL0     O16698   1.137   7.038   3.027  0.3647  0.2503 -0.2405
  865MOL0     C16699   1.060   7.147   2.985  0.3553  0.6492  0.4090
  865MOL0     C16700   1.154   7.239   2.920  0.1492  0.9808  0.6029
  865MOL0     C16701   1.232   7.181   2.799  0.6575  0.2735 -0.8038
  865MOL0     C16702   1.155   7.096   2.703 -0.6313 -0.0229  0.0463
  865MOL0     C16703   1.218   7.094   2.568  0.2118  0.4118 -0.4332
  865MOL0     C16704   1.247   7.094   2.453 -0.8343  1.5810 -0.0310
  865MOL0     C16705   1.157   6.858   3.167 -0.7755  0.6447 -1.1409
  865MOL0     C16706   1.101   6.758   3.258  0.1406 -0.3637  0.7014
  865MOL0     C16707   1.203   6.680   3.346  0.9965 -0.0554 -0.6893
  865MOL0     H16708   0.678   6.714   3.538  2.6069 -0.2768  2.7228
  865MOL0     H16709   0.537   6.596   3.709 -3.2008 -0.4466 -1.5396
  865MOL0     H16710   0.504   6.419   3.907  0.0314 -0.1890  1.3638
  865MOL0     H16711   0.364   6.476   3.830 -2.0906 -1.6552 -1.9685
  865MOL0     H16712   0.369   6.262   3.987  2.0226  3.8026  0.1665
  865MOL0     H16713   0.435   6.183   3.847  2.1267  1.7814  0.8379
  865MOL0     H16714   0.178   6.151   3.836  0.2432  0.1964  1.2189
  865MOL0     H16715   0.235   6.271   3.716 -1.1379  2.7412 -0.7009
  865MOL0     H16716   0.085   6.282   3.978  1.2548 -1.7424 -0.9476
  865MOL0     H16717   0.179   6.419   3.953 -2.2635 -0.0750  1.4354
  865MOL0     H16718   0.065   6.414   3.712 -0.4272 -0.6120 -0.6135
  865MOL0     H16719  -0.032   6.297   3.792  0.4796 -0.5735 -0.2309
  865MOL0     H16720  -0.079   6.477   3.984  4.0469 -1.3189  1.5389
  865MOL0     H16721   0.027   6.586   3.900  0.5380 -1.5810  2.5253
  865MOL0     H16722  -0.141   6.581   3.713  1.3455 -1.8926  0.3340
  865MOL0     H16723  -0.187   6.652   3.865 -0.0841  0.3111 -0.6727
  865MOL0     H16724  -0.256   6.367   3.749 -0.0509 -1.8114  0.6853
  865MOL0     H16725  -0.295   6.418   3.922 -2.7349  0.1964 -1.2821
  865MOL0     H16726  -0.436   6.643   3.951 -0.6878  0.2370 -0.3198
  865MOL0     H16727  -0.766   6.709   3.826 -0.2558  2.7584  2.4948
  865MOL0     H16728  -0.633   6.758   3.926 -0.4122  0.4965  0.7730
  865MOL0     H16729  -0.541   6.904   3.729 -0.8585 -0.5463 -0.5035
  865MOL0     H16730  -0.683   6.856   3.628 -1.9564  0.3868 -0.3434
  865MOL0     H16731  -0.827   6.950   3.842 -0.5568  0.1955 -1.4148
  865MOL0     H16732  -0.774   7.051   3.716 -0.9899 -1.8563 -1.7233
  865MOL0     H16733  -0.558   7.083   3.865  1.9097 -1.2642  1.4605
  865MOL0     H16734  -0.646   6.998   3.984  0.5522 -1.8578 -1.6298
  865MOL0     H16735  -0.608   7.207   3.688  2.8943  1.1739  0.6379
  865MOL0     H16736  -0.530   7.422   3.581  0.7760  2.3450 -0.1172
  865MOL0     H16737  -0.584   8.013   3.832 -0.7573  0.3391 -1.2103
  865MOL0     H16738  -0.633   8.218   3.710 -1.7228  1.5867 -2.5522
  865MOL0     H16739  -0.743   8.364   3.571  0.2639 -0.1013  0.3803
  865MOL0     H16740  -0.579   8.366   3.519  0.7484 -2.2111 -1.0705
  865MOL0     H16741  -0.686   8.553   3.422 -1.8827  0.4960  0.3383
  865MOL0     H16742  -0.620   8.437   3.309  1.3926  0.5835  1.9443
  865MOL0     H16743  -0.930   8.465   3.383  1.9799  0.7124  2.5606
  865MOL0     H16744  -0.853   8.546   3.251 -2.7175 -0.7732 -2.2275
  865MOL0     H16745  -0.965   8.353   3.173  0.1759  1.2201 -0.6727
  865MOL0     H16746  -0.878   8.242   3.269 -1.9062  0.0426 -0.4544
  865MOL0     H16747  -0.824   8.256   3.033  1.7561 -2.0456 -0.2673
  865MOL0     H16748  -0.681   8.257   3.131  1.0374  0.2456 -4.1262
  865MOL0     H16749  -0.781   8.527   3.033  2.4647  3.0880  1.8372
  865MOL0     H16750  -0.623   8.479   3.099  0.0793 -1.4037  1.3844
  865MOL0     H16751  -0.706   8.331   2.866 -0.2720 -1.4282  1.9790
  865MOL0     H16752  -0.546   8.368   2.937  0.1021  0.1706  0.2889
  865MOL0     H16753  -0.597   8.621   2.884 -0.0676 -0.4332 -1.1462
  865MOL0     H16754  -0.575   8.515   2.739  4.1618  0.8307  0.7817
  865MOL0     H16755  -0.674   7.969   3.351  1.3908 -0.9947  0.1904
  865MOL0     H16756  -0.602   7.774   3.484  0.2797 -1.5537  3.3945
  865MOL0     H16757  -0.681   7.643   3.924 -0.4465 -0.3805  1.0468
  865MOL0     H16758  -0.768   7.429   4.014 -0.0336  3.3537 -0.8856
  865MOL0     H16759   0.558   6.239   3.483 -1.9813  0.0878  0.3946
  865MOL0     H16760   0.700   6.359   3.306 -2.1337  0.1483 -0.3330
  865MOL0     H16761   0.778   6.782   3.146  1.0649  0.5507 -3.1555
  865MOL0     H16762   0.874   6.979   3.048  0.0986 -0.7177 -0.6873
  865MOL0     H16763   1.005   7.198   3.064 -0.5439 -1.2976  1.1021
  865MOL0     H16764   0.985   7.114   2.912 -0.0832 -2.2263  2.0037
  865MOL0     H16765   1.216   7.266   3.006  0.4403 -2.1332  1.5002
  865MOL0     H16766   1.090   7.325   2.900 -1.0656  0.7589  3.1715
  865MOL0     H16767   1.303   7.107   2.837  1.7634  1.1420 -1.1083
  865MOL0     H16768   1.281   7.268   2.754  1.2140  2.2044  3.0507
  865MOL0     H16769   1.128   6.997   2.740 -0.1371 -0.6122 -1.1087
  865MOL0     H16770   1.057   7.143   2.686 -1.4652 -1.6042  0.3291
  865MOL0     H16771   1.268   7.085   2.348  0.3324 -0.0444  0.2883
  865MOL0     H16772   1.265   6.868   3.176 -1.0444  2.4696  1.1036
  865MOL0     H16773   1.148   6.671   3.440  1.3253  2.2491 -0.2356
  865MOL0     H16774   1.226   6.583   3.301 -2.0091 -1.7058  0.9862
  865MOL0     H16775   1.291   6.739   3.371  2.0843 -0.6895 -2.7918
  866MOL0     O16776  10.216   0.826  10.165 -0.3403  0.0635 -0.2268
  866MOL0     C16777  10.145   0.741  10.120 -0.4874 -1.0648  0.3752
  866MOL0     O16778  10.161   0.601  10.144 -0.2887  0.3024  0.5385
  866MOL0     C16779  10.273   0.558  10.205  0.7234  0.4442  0.5656
  866MOL0     C16780  10.281   0.553  10.338 -0.0724 -0.5542 -0.2034
  866MOL0     C16781  10.402   0.527  10.413  0.2944 -0.2235  0.9221
  866MOL0     C16782  10.513   0.485  10.342  0.0965  0.5630  0.1503
  866MOL0     O16783  10.638   0.443  10.389 -0.0603  0.6155 -0.6833
  866MOL0     C16784  10.688   0.486  10.514  0.1307  0.6986  0.0185
  866MOL0     C16785  10.843   0.500  10.514  0.4912  0.2183  0.0100
  866MOL0     C16786  10.920   0.362  10.517 -0.3625 -1.5723  0.5455
  866MOL0     C16787  11.071   0.396  10.533 -0.6059 -0.2988 -0.0752
  866MOL0     C16788  11.154   0.257  10.558 -0.1058 -0.4627 -0.0082
  866MOL0     C16789  11.137   0.201  10.695  0.2528 -0.0233  1.1010
  866MOL0     C16790  11.178   0.057  10.701 -0.2332 -0.3277  0.1974
  866MOL0     C16791  11.190   0.005  10.839  0.6137 -0.0630 -0.2320
  866MOL0     N16792  11.061  -0.024  10.910 -0.6702 -0.4139 -0.3033
  866MOL0     C16793  10.972  -0.121  10.874 -0.0299  0.7569 -0.7689
  866MOL0     C16794  10.873  -0.106  10.973  0.5063  0.2028  0.9658
  866MOL0     C16795  10.729  -0.171  10.975  0.8285  0.4918 -1.0509
  866MOL0     C16796  10.623  -0.103  10.880  0.1160  0.6775 -0.2115
  866MOL0     C16797  10.647  -0.171  10.741 -0.3315 -0.4047 -0.8406
  866MOL0     C16798  10.530  -0.174  10.645 -0.0090  0.6885  0.6585
  866MOL0     O16799  10.573  -0.244  10.530 -0.2361  0.2855 -0.0722
  866MOL0     C16800  10.467  -0.279  10.441 -0.1380  0.2445  0.0551
  866MOL0     C16801  10.345  -0.333  10.490 -1.0206 -0.5177  1.2775
  866MOL0     C16802  10.250  -0.382  10.395  0.4473  0.4552  0.6177
  866MOL0     C16803  10.260  -0.366  10.255 -0.3501  0.8460  0.2561
  866MOL0     C16804  10.151  -0.390  10.163  0.1239  0.6912  0.0061
  866MOL0     O16805  10.180  -0.377  10.023  0.5522  0.5097 -0.5485
  866MOL0     C16806  10.070  -0.391   9.945  1.7037  0.4517 -0.8215
  866MOL0     C16807  10.038  -0.516   9.882 -0.4036  0.6432  0.2928
  866MOL0     C16808   9.916  -0.541   9.811 -0.2619 -0.1731  0.2840
  866MOL0     C16809   9.831  -0.446   9.784  0.1375 -0.5121 -0.1803
  866MOL0     O16810   9.719  -0.486   9.725  0.4880 -1.5476  0.2616
  866MOL0     C16811   9.613  -0.384   9.734  0.1512 -0.2290  0.1474
  866MOL0     C16812   9.486  -0.444   9.666 -0.2582  0.6577 -0.1935
  866MOL0     C16813   9.392  -0.334   9.601  0.0441  0.2467 -0.8946
  866MOL0     C16814   9.236  -0.368   9.599  0.4720 -0.7147 -0.8208
  866MOL0     C16815   9.195  -0.436   9.475  0.1340 -0.4572  0.8614
  866MOL0     C16816   9.047  -0.409   9.453  0.5720 -0.3133  0.3391
  866MOL0     C16817   8.991  -0.497   9.339 -0.3663 -1.3412  0.6972
  866MOL0     C16818   8.854  -0.435   9.298 -0.1810  0.5205  0.4045
  866MOL0    Cl16819   8.738  -0.438   9.437 -0.3804 -0.3215 -0.3664
  866MOL0     C16820   9.877  -0.312   9.819 -0.0204  0.5711  0.1448
  866MOL0     C16821   9.993  -0.290   9.901  0.6591  0.5520  1.3050
  866MOL0     O16822  10.044  -0.422  10.220 -0.2314 -0.1142 -0.7012
  866MOL0     C16823  10.383  -0.318  10.212 -0.0742  0.7421  0.8079
  866MOL0     C16824  10.487  -0.282  10.299 -0.2447 -0.7680  0.4228
  866MOL0     N16825  10.906  -0.005  11.062 -0.6248  0.1501 -0.2420
  866MOL0     N16826  11.021   0.043  11.025  0.0467  0.1329 -0.5063
  866MOL0     C16827  10.510   0.488  10.198 -0.7106 -0.3724 -0.2223
  866MOL0     C16828  10.380   0.515  10.131  0.7461 -0.2464 -0.6123
  866MOL0     C16829  10.032   0.774  10.026 -0.6921 -0.1970  1.5188
  866MOL0     C16830  10.022   0.913   9.988  0.9393  0.2968  0.0759
  866MOL0     C16831   9.934   0.958   9.891  0.3084 -0.7276 -0.2504
  866MOL0     C16832   9.852   0.869   9.835 -0.2371  0.1851  0.0521
  866MOL0     O16833   9.759   0.923   9.743 -0.3161  0.2029  0.3204
  866MOL0     C16834   9.622   0.905   9.769  0.2092 -0.7505  0.0992
  866MOL0     C16835   9.511   0.926   9.655  0.0332 -0.7294  0.0831
  866MOL0     C16836   9.553   0.831   9.538 -0.7402 -0.8600  0.6781
  866MOL0     C16837   9.539   0.688   9.569 -0.3010  0.4278 -0.6794
  866MOL0     C16838   9.398   0.652   9.573 -0.4564  0.8499  0.5419
  866MOL0     C16839   9.280   0.617   9.569 -0.1726  0.2059 -0.2119
  866MOL0     C16840   9.849   0.734   9.878 -0.6270  0.0535 -1.1844
  866MOL0     C16841   9.937   0.679   9.969 -0.4559 -0.2284 -1.0467
  866MOL0     C16842   9.922   0.531  10.000  0.8307 -0.2901 -0.1960
  866MOL0     H16843  10.196   0.571  10.403  0.8834 -1.8642  1.4966
  866MOL0     H16844  10.400   0.528  10.522  1.2338 -1.4819  0.9818
  866MOL0     H16845  10.651   0.582  10.552  0.2079  1.0709 -0.8294
  866MOL0     H16846  10.660   0.411  10.589 -0.0198  2.0656  1.3925
  866MOL0     H16847  10.862   0.545  10.612  0.7054  1.1911 -0.4643
  866MOL0     H16848  10.869   0.559  10.426  1.3459 -1.1013 -0.6610
  866MOL0     H16849  10.906   0.300  10.428  2.5460 -1.3423 -0.1789
  866MOL0     H16850  10.874   0.303  10.597 -1.5902 -1.2647  0.0975
  866MOL0     H16851  11.110   0.447  10.444  2.3174  0.5317  1.5485
  866MOL0     H16852  11.102   0.461  10.615  1.3711 -2.0019  0.5992
  866MOL0     H16853  11.110   0.183  10.489 -0.4322 -2.5950  2.3308
  866MOL0     H16854  11.260   0.250  10.532 -0.1852  0.6630 -0.7250
  866MOL0     H16855  11.206   0.247  10.767  3.4536 -1.7719 -0.5916
  866MOL0     H16856  11.031   0.199  10.720 -0.1464 -1.5956 -0.5313
  866MOL0     H16857  11.280   0.055  10.660 -0.6270  0.7730 -0.8800
  866MOL0     H16858  11.116  -0.013  10.644  0.6885 -0.6359 -0.4566
  866MOL0     H16859  11.254  -0.081  10.857  3.8091  2.4895  1.7364
  866MOL0     H16860  11.243   0.082  10.897  0.6169 -0.3770  0.1819
  866MOL0     H16861  10.975  -0.174  10.779 -0.0381  0.0446 -0.3823
  866MOL0     H16862  10.737  -0.280  10.966  2.5561  0.7141 -2.8158
  866MOL0     H16863  10.694  -0.138  11.073  1.4544 -0.1300 -0.5994
  866MOL0     H16864  10.522  -0.133  10.908  0.1351  1.3144  0.5768
  866MOL0     H16865  10.625   0.007  10.886  0.2459  0.8547 -2.5619
  866MOL0     H16866  10.683  -0.273  10.758  1.2503 -0.0071 -1.6473
  866MOL0     H16867  10.733  -0.122  10.695  0.7858  1.0845  2.4702
  866MOL0     H16868  10.493  -0.079  10.606 -2.8166 -1.2387 -1.7997
  866MOL0     H16869  10.442  -0.221  10.691  0.7124  0.5111  1.9138
  866MOL0     H16870  10.330  -0.346  10.597  1.2360  1.5448  1.9500
  866MOL0     H16871  10.153  -0.425  10.417  1.4278 -1.4132  1.5028
  866MOL0     H16872  10.110  -0.597   9.894  0.8722  1.5054 -1.2228
  866MOL0     H16873   9.903  -0.642   9.776  2.2693 -0.6524  0.5603
  866MOL0     H16874   9.584  -0.369   9.839  1.3390 -1.7032  0.7346
  866MOL0     H16875   9.643  -0.293   9.682  0.6525 -1.1340 -1.1926
  866MOL0     H16876   9.520  -0.500   9.578  0.1274 -0.8734  0.8832
  866MOL0     H16877   9.444  -0.510   9.743  2.7979  0.7744  1.7210
  866MOL0     H16878   9.402  -0.255   9.675 -0.7139 -0.7850  0.3592
  866MOL0     H16879   9.427  -0.299   9.504 -0.0036 -1.5116 -1.5858
  866MOL0     H16880   9.181  -0.274   9.614  1.5527  0.5079 -3.7076
  866MOL0     H16881   9.222  -0.441   9.679 -2.8594 -2.5021 -2.7940
  866MOL0     H16882   9.210  -0.545   9.480 -0.0798 -0.4500  2.1419
  866MOL0     H16883   9.248  -0.392   9.391  0.0404  1.0080  1.5430
  866MOL0     H16884   8.982  -0.414   9.540  0.9198  1.4700  0.7428
  866MOL0     H16885   9.041  -0.301   9.435 -3.5083 -0.7957 -2.4273
  866MOL0     H16886   8.973  -0.602   9.363 -1.7443 -1.0674  0.9750
  866MOL0     H16887   9.048  -0.495   9.246 -1.8685  1.6216 -0.2890
  866MOL0     H16888   8.867  -0.330   9.270 -1.2453  0.8396  1.0466
  866MOL0     H16889   8.816  -0.490   9.211  1.5162 -0.8533  0.4727
  866MOL0     H16890   9.821  -0.224   9.788 -0.5544 -0.0231 -0.6156
  866MOL0     H16891  10.010  -0.186   9.926 -2.3057  1.6401 -0.6799
  866MOL0     H16892  10.398  -0.292  10.108 -0.2352 -0.5882  0.4355
  866MOL0     H16893  10.581  -0.253  10.254 -2.1667  1.2226 -2.6320
  866MOL0     H16894  10.599   0.452  10.147 -1.0121 -1.8970  0.2772
  866MOL0     H16895  10.375   0.511  10.022 -0.0245  2.3087 -0.7454
  866MOL0     H16896  10.090   0.982  10.036 -0.3638  1.6761  0.0233
  866MOL0     H16897   9.945   1.061   9.860  1.8216 -0.7918 -0.0050
  866MOL0     H16898   9.598   0.977   9.848 -1.6350 -1.4896  0.2644
  866MOL0     H16899   9.594   0.808   9.812  0.5247 -0.3290  1.2971
  866MOL0     H16900   9.500   1.034   9.646 -1.9011 -1.0163 -2.0965
  866MOL0     H16901   9.414   0.896   9.694 -1.1210 -0.2603 -2.2195
  866MOL0     H16902   9.657   0.856   9.517 -0.7168 -0.3142  1.4107
  866MOL0     H16903   9.501   0.851   9.444  1.1624 -2.0747 -0.6970
  866MOL0     H16904   9.590   0.628   9.493  0.6319  0.2112  0.1055
  866MOL0     H16905   9.582   0.654   9.663  2.5863  0.5025 -1.8710
  866MOL0     H16906   9.180   0.581   9.576  0.6589 -2.2543 -0.1278
  866MOL0     H16907   9.776   0.668   9.831 -3.0066  2.7688 -1.5774
  866MOL0     H16908   9.990   0.469   9.941 -0.2703  0.0271 -1.8587
  866MOL0     H16909   9.940   0.514  10.106 -0.1042 -2.7340 -0.3612
  866MOL0     H16910   9.815   0.508   9.992  0.3695  2.1736 -3.5006
  867MOL0     O16911   1.647   3.945   6.186  0.4707 -1.2122  0.4580
  867MOL0     C16912   1.580   3.931   6.285  0.2732 -0.3619  0.7023
  867MOL0     O16913   1.450   3.981   6.296 -0.9623 -0.2045  0.6712
  867MOL0     C16914   1.400   4.089   6.227 -0.2854  0.9402 -0.5683
  867MOL0     C16915   1.295   4.158   6.282  0.1928 -0.5700 -0.6738
  867MOL0     C16916   1.224   4.257   6.219  0.6042  0.6914 -0.5060
  867MOL0     C16917   1.245   4.290   6.091  1.4695 -0.5418 -0.2858
  867MOL0     O16918   1.165   4.399   6.037 -0.0440 -0.1196  0.5502
  867MOL0     C16919   1.118   4.374   5.904  0.5008 -0.3472  0.1634
  867MOL0     C16920   0.993   4.459   5.875  0.1948  0.3294 -0.1423
  867MOL0     C16921   0.878   4.433   5.983  0.2699 -1.4862 -1.0023
  867MOL0     C16922   0.742   4.465   5.924  0.3409 -0.5147 -0.1811
  867MOL0     C16923   0.701   4.612   5.918  1.2277  0.5935  0.8081
  867MOL0     C16924   0.695   4.670   6.063 -0.4226  0.1510 -0.0617
  867MOL0     C16925   0.609   4.799   6.066 -0.4636  0.1381  0.2110
  867MOL0     C16926   0.613   4.855   6.209 -0.6893 -0.2553 -0.0709
  867MOL0     N16927   0.530   4.976   6.217 -0.3676  0.2365 -0.4898
  867MOL0     C16928   0.571   5.107   6.191  0.1369 -0.1280  0.8131
  867MOL0     C16929   0.475   5.184   6.255 -0.4059  0.6460  0.2889
  867MOL0     C16930   0.461   5.338   6.253  0.4483  1.3313 -0.2154
  867MOL0     C16931   0.326   5.394   6.218 -0.1768 -0.1612 -0.0138
  867MOL0     C16932   0.280   5.355   6.078  0.8867  0.4734  0.9902
  867MOL0     C16933   0.160   5.265   6.071  0.3821  0.6845  0.0375
  867MOL0     O16934   0.140   5.266   5.932 -0.3590 -0.3502  0.0034
  867MOL0     C16935   0.141   5.151   5.855  0.5264  0.4822  1.0483
  867MOL0     C16936   0.156   5.025   5.905  0.9004  0.9576  0.3031
  867MOL0     C16937   0.168   4.910   5.817 -0.7629 -1.1258 -0.1450
  867MOL0     C16938   0.155   4.927   5.677 -0.2450  0.4151 -0.3342
  867MOL0     C16939   0.137   4.808   5.583  0.6558  0.0964  0.4771
  867MOL0     O16940   0.114   4.844   5.452  0.7400 -0.7093 -0.4208
  867MOL0     C16941   0.078   4.751   5.363 -0.1679 -0.1824  0.0085
  867MOL0     C16942  -0.002   4.636   5.364 -0.0282  0.6057  0.1241
  867MOL0     C16943  -0.001   4.556   5.237  0.9157 -0.1432 -0.1880
  867MOL0     C16944   0.078   4.576   5.131  0.1339  0.4108 -0.1722
  867MOL0     O16945   0.097   4.491   5.027  0.0077 -0.3246  0.1964
  867MOL0     C16946  -0.019   4.424   4.966 -1.0064 -0.4353  0.3363
  867MOL0     C16947   0.050   4.333   4.857  0.5898 -0.8289 -0.1487
  867MOL0     C16948  -0.043   4.228   4.799 -0.1336 -0.2116 -0.2949
  867MOL0     C16949  -0.146   4.285   4.698 -0.6029  0.1916  0.2759
  867MOL0     C16950  -0.237   4.175   4.645  0.5348 -0.0045 -0.0515
  867MOL0     C16951  -0.333   4.220   4.522  0.3805  0.5237  0.0049
  867MOL0     C16952  -0.416   4.099   4.476 -0.2682 -0.7815 -0.1546
  867MOL0     C16953  -0.328   4.041   4.356  0.1030 -0.1154  0.4449
  867MOL0    Cl16954  -0.395   3.882   4.311  0.7601  0.0215 -0.1346
  867MOL0     C16955   0.161   4.691   5.124  0.6593  0.4154 -0.8202
  867MOL0     C16956   0.159   4.772   5.242 -0.8692 -0.3222 -0.3643
  867MOL0     O16957   0.147   4.695   5.626 -0.2600  0.6812 -0.2302
  867MOL0     C16958   0.128   5.054   5.637 -0.1930 -0.5608  0.0522
  867MOL0     C16959   0.136   5.168   5.723 -1.0270 -0.0439  0.0102
  867MOL0     N16960   0.396   5.092   6.325  0.1609 -0.5424 -0.0804
  867MOL0     N16961   0.430   4.975   6.301  0.4496 -0.0786  0.1340
  867MOL0     C16962   1.361   4.233   6.034 -0.1543  0.4838 -0.4323
  867MOL0     C16963   1.437   4.135   6.098 -0.5349 -1.2846 -0.1241
  867MOL0     C16964   1.628   3.855   6.402  0.2765  0.4809 -0.4010
  867MOL0     C16965   1.569   3.887   6.520 -1.1009 -0.5565  0.4652
  867MOL0     C16966   1.590   3.820   6.638 -0.1457 -0.0118 -0.3529
  867MOL0     C16967   1.684   3.713   6.643  0.1812  0.3136 -0.8260
  867MOL0     O16968   1.700   3.652   6.765 -0.6006 -0.7032 -0.0864
  867MOL0     C16969   1.694   3.513   6.759  0.6654  0.9144  0.0621
  867MOL0     C16970   1.826   3.461   6.840  0.2582 -0.2171  1.4011
  867MOL0     C16971   1.838   3.314   6.843  0.4970 -0.5728 -0.1856
  867MOL0     C16972   1.834   3.244   6.701  0.1323 -0.1978 -1.2846
  867MOL0     C16973   1.887   3.105   6.720 -0.1132 -0.5775  1.3673
  867MOL0     C16974   1.937   2.995   6.733 -0.5041  0.9841 -0.5105
  867MOL0     C16975   1.757   3.686   6.520 -0.2365 -0.0751  0.4799
  867MOL0     C16976   1.738   3.766   6.403  0.1477 -0.7725  0.1497
  867MOL0     C16977   1.809   3.733   6.269  0.1026 -0.6530  0.2040
  867MOL0     H16978   1.264   4.141   6.385  2.0441  1.5820  0.3325
  867MOL0     H16979   1.142   4.299   6.277  0.7547 -0.4088  0.5374
  867MOL0     H16980   1.202   4.392   5.836  1.9370 -1.7139  1.4922
  867MOL0     H16981   1.079   4.274   5.886 -0.2613 -0.3911  1.8243
  867MOL0     H16982   0.969   4.441   5.770  1.2644 -0.2849 -0.2979
  867MOL0     H16983   1.006   4.566   5.889  5.6348 -0.1726  1.0226
  867MOL0     H16984   0.888   4.490   6.076 -1.9081 -0.2753 -1.4327
  867MOL0     H16985   0.867   4.326   6.003 -0.0520 -1.8377 -2.9370
  867MOL0     H16986   0.742   4.428   5.821 -0.0129 -0.9797 -0.0151
  867MOL0     H16987   0.667   4.402   5.973 -0.0773  1.5002  1.9316
  867MOL0     H16988   0.774   4.659   5.853  1.2605  0.8872  1.0572
  867MOL0     H16989   0.602   4.619   5.871  1.5970 -2.3725 -0.6544
  867MOL0     H16990   0.648   4.598   6.132 -1.0123  0.0949 -0.5164
  867MOL0     H16991   0.800   4.676   6.092 -0.1298 -2.3745 -0.3467
  867MOL0     H16992   0.509   4.767   6.038 -0.5584  2.4215 -2.5738
  867MOL0     H16993   0.637   4.881   5.999 -0.1429 -0.7847 -0.8182
  867MOL0     H16994   0.587   4.785   6.290  4.5757  1.3100  3.4770
  867MOL0     H16995   0.716   4.888   6.221 -0.8804  1.1385 -1.9754
  867MOL0     H16996   0.666   5.135   6.147  0.7949 -0.7694  1.7861
  867MOL0     H16997   0.483   5.367   6.356  2.9569  2.3048 -0.9527
  867MOL0     H16998   0.535   5.380   6.184 -1.7099  0.9938 -2.9022
  867MOL0     H16999   0.257   5.359   6.295  1.9209 -1.0229  1.5804
  867MOL0     H17000   0.336   5.503   6.217 -1.5767 -0.0162  0.3035
  867MOL0     H17001   0.358   5.314   6.012  1.3736  1.7499  0.7309
  867MOL0     H17002   0.253   5.450   6.030  0.2978 -0.5793 -0.8725
  867MOL0     H17003   0.076   5.303   6.130  0.6619  0.1787  0.7877
  867MOL0     H17004   0.195   5.169   6.110 -1.3335  1.1074  2.9392
  867MOL0     H17005   0.148   5.009   6.012  0.2071  1.1016  0.2749
  867MOL0     H17006   0.162   4.811   5.861 -1.9386 -1.9866 -2.0834
  867MOL0     H17007  -0.049   4.602   5.456  3.3242 -0.0005  1.7957
  867MOL0     H17008  -0.067   4.470   5.235 -0.6106  0.9923 -0.7018
  867MOL0     H17009  -0.075   4.358   5.033  1.1729 -0.9594  1.7383
  867MOL0     H17010  -0.090   4.487   4.911 -0.7425  1.2488  1.8538
  867MOL0     H17011   0.097   4.391   4.777  2.1171  0.2557  1.4596
  867MOL0     H17012   0.130   4.286   4.915  1.0159  3.0205  2.8130
  867MOL0     H17013   0.007   4.145   4.750 -2.3515 -1.1104 -1.1772
  867MOL0     H17014  -0.102   4.184   4.880  3.8073 -3.2949  1.1943
  867MOL0     H17015  -0.086   4.321   4.614  1.1279 -4.0991 -0.5455
  867MOL0     H17016  -0.203   4.364   4.749  0.5933  1.5920 -0.4672
  867MOL0     H17017  -0.309   4.141   4.721  0.2710 -2.4403 -1.2744
  867MOL0     H17018  -0.174   4.089   4.618 -1.2331 -1.0032 -1.2069
  867MOL0     H17019  -0.401   4.296   4.560  1.3128  0.3655  2.1460
  867MOL0     H17020  -0.267   4.262   4.445  0.2370  1.3226  0.3121
  867MOL0     H17021  -0.515   4.141   4.455 -0.1320 -0.0343  0.6316
  867MOL0     H17022  -0.422   4.029   4.560  1.8850 -1.2087 -0.2984
  867MOL0     H17023  -0.334   4.118   4.278  0.6697 -1.4750 -1.0155
  867MOL0     H17024  -0.224   4.024   4.387  0.4642  1.5349  0.2358
  867MOL0     H17025   0.222   4.702   5.035  0.7960 -3.0401 -1.2830
  867MOL0     H17026   0.231   4.854   5.236 -1.3225  0.2623  1.4906
  867MOL0     H17027   0.140   5.078   5.532 -0.6822  1.8875  0.5049
  867MOL0     H17028   0.127   5.264   5.672 -0.2837  0.6809  1.2032
  867MOL0     H17029   1.395   4.268   5.937  2.5971 -1.2924 -0.2410
  867MOL0     H17030   1.527   4.102   6.048  0.4661  2.4971 -1.1087
  867MOL0     H17031   1.490   3.961   6.516  2.0278  3.0772  0.2280
  867MOL0     H17032   1.539   3.858   6.726 -1.0939 -1.8117 -0.0692
  867MOL0     H17033   1.694   3.464   6.661  1.4894  0.9589  0.0329
  867MOL0     H17034   1.605   3.477   6.812  0.7297  1.3798  0.4907
  867MOL0     H17035   1.827   3.496   6.944  1.5803  1.7902  0.7720
  867MOL0     H17036   1.906   3.507   6.782  1.0952 -2.7827  0.3723
  867MOL0     H17037   1.754   3.273   6.900  0.5893 -1.0009 -0.3545
  867MOL0     H17038   1.932   3.290   6.894 -1.1012 -1.3816  2.6128
  867MOL0     H17039   1.732   3.234   6.662 -0.9084 -2.3636  1.6578
  867MOL0     H17040   1.904   3.284   6.627  0.0319 -0.4273 -1.5037
  867MOL0     H17041   1.985   2.902   6.753  0.6944  1.3908 -1.3976
  867MOL0     H17042   1.833   3.609   6.509  1.5217  1.8683 -2.0338
  867MOL0     H17043   1.875   3.646   6.269 -0.4739 -1.1988 -2.7237
  867MOL0     H17044   1.736   3.722   6.188 -0.7184  4.3563 -0.0582
  867MOL0     H17045   1.867   3.821   6.240 -2.9526  1.7581  0.7748
  868MOL0     O17046   2.725   0.778   6.319 -0.4497  0.2072  0.2349
  868MOL0     C17047   2.826   0.840   6.292 -0.8604  0.5566  0.2193
  868MOL0     O17048   2.957   0.791   6.285  0.6298 -0.5106  0.0175
  868MOL0     C17049   2.968   0.656   6.269 -0.4235  0.4544 -0.3530
  868MOL0     C17050   3.043   0.600   6.374  0.3871  0.0900  0.2914
  868MOL0     C17051   3.086   0.461   6.368 -0.2930 -0.8866  0.1679
  868MOL0     C17052   3.028   0.377   6.269 -0.4622 -0.5061 -0.7713
  868MOL0     O17053   3.064   0.240   6.257 -0.0638 -0.3110 -0.0510
  868MOL0     C17054   2.963   0.144   6.232 -0.4825  0.5967  0.5119
  868MOL0     C17055   2.945   0.065   6.359  0.4782  0.3653 -0.3032
  868MOL0     C17056   2.862   0.130   6.482  0.8120 -0.5600  0.8397
  868MOL0     C17057   2.739   0.207   6.420  0.3569  0.7832 -0.0210
  868MOL0     C17058   2.629   0.246   6.524  0.5840  0.1901 -0.3932
  868MOL0     C17059   2.578   0.136   6.616 -0.3278  0.0201 -0.1126
  868MOL0     C17060   2.492   0.190   6.727 -0.0046 -0.0723 -0.4730
  868MOL0     C17061   2.435   0.084   6.825 -0.7048  1.2095  0.2033
  868MOL0     N17062   2.341   0.143   6.920  1.0847 -0.4075 -0.2446
  868MOL0     C17063   2.231   0.219   6.893 -0.4937 -0.3258  0.5779
  868MOL0     C17064   2.190   0.266   7.020 -0.2759  0.3036 -0.8961
  868MOL0     C17065   2.080   0.366   7.048  0.8397  0.7336 -0.3489
  868MOL0     C17066   2.117   0.516   7.044 -0.4956  0.9330 -0.4955
  868MOL0     C17067   2.243   0.538   7.133  0.4528  0.1928  0.3749
  868MOL0     C17068   2.284   0.682   7.145 -0.3356  0.3800  0.5741
  868MOL0     O17069   2.204   0.760   7.242  0.4331 -0.2636 -0.4573
  868MOL0     C17070   2.196   0.902   7.222 -1.4769  0.2339  0.5249
  868MOL0     C17071   2.272   0.985   7.302 -0.5952 -0.7268  0.5397
  868MOL0     C17072   2.270   1.126   7.288  0.7674 -0.6287 -0.0371
  868MOL0     C17073   2.190   1.190   7.193  0.2053  1.5436  0.6596
  868MOL0     C17074   2.166   1.335   7.203  0.3753  0.4645 -0.4345
  868MOL0     O17075   2.105   1.400   7.099 -0.1795  0.4522 -0.5708
  868MOL0     C17076   2.067   1.535   7.103 -1.2071 -0.1717 -0.9504
  868MOL0     C17077   1.936   1.564   7.047 -0.5211  0.2732 -0.8049
  868MOL0     C17078   1.886   1.694   7.060  1.0785  1.4674  0.2049
  868MOL0     C17079   1.953   1.800   7.119  0.4544 -0.6256  0.0354
  868MOL0     O17080   1.893   1.917   7.143  0.3810  0.9129  0.3961
  868MOL0     C17081   1.971   2.032   7.161  0.9910  0.6900  0.8761
  868MOL0     C17082   1.971   2.086   7.302 -0.6043  0.3843  0.1894
  868MOL0     C17083   1.831   2.158   7.323 -0.5952 -0.2898  0.3061
  868MOL0     C17084   1.849   2.306   7.364  0.9416 -1.6574 -0.3521
  868MOL0     C17085   1.717   2.386   7.349 -0.7110  0.2605  0.1155
  868MOL0     C17086   1.612   2.337   7.447  0.3302 -0.2867  0.1741
  868MOL0     C17087   1.486   2.428   7.466 -0.6368 -0.4526 -0.5061
  868MOL0     C17088   1.395   2.441   7.345  0.5728  0.7246 -0.1192
  868MOL0    Cl17089   1.319   2.278   7.313 -0.2751 -0.4749  0.5085
  868MOL0     C17090   2.083   1.768   7.167  0.0448  0.0188  0.0047
  868MOL0     C17091   2.145   1.643   7.153 -0.2503  0.7691  0.0524
  868MOL0     O17092   2.207   1.398   7.303  0.3631  0.9968  0.2893
  868MOL0     C17093   2.122   1.102   7.099  0.4465  0.4730 -0.3103
  868MOL0     C17094   2.127   0.963   7.116 -0.6917  0.1596  0.3864
  868MOL0     N17095   2.266   0.199   7.114  0.1787  0.1133 -0.0993
  868MOL0     N17096   2.357   0.130   7.054 -0.0488 -0.1200  1.2469
  868MOL0     C17097   2.962   0.440   6.172  0.0186 -0.7690  0.5448
  868MOL0     C17098   2.934   0.578   6.160  0.3150  0.6560  0.3397
  868MOL0     C17099   2.844   0.985   6.314  0.5564  0.7586 -0.3478
  868MOL0     C17100   2.859   1.078   6.209  0.6835  0.8406 -0.3820
  868MOL0     C17101   2.867   1.218   6.248 -0.0139  1.3342  0.7340
  868MOL0     C17102   2.889   1.247   6.384  0.3160 -0.3342 -0.0794
  868MOL0     O17103   2.919   1.381   6.413 -0.5889  0.0470  0.3057
  868MOL0     C17104   2.840   1.463   6.493  0.3039 -0.3050  0.0057
  868MOL0     C17105   2.698   1.476   6.442 -0.3556  0.3566 -0.5809
  868MOL0     C17106   2.706   1.535   6.297  0.8631 -0.1266 -0.4442
  868MOL0     C17107   2.586   1.486   6.208 -0.1068 -0.4922 -0.1656
  868MOL0     C17108   2.561   1.568   6.089  0.1007 -0.0064 -0.0170
  868MOL0     C17109   2.543   1.616   5.981  0.0932  0.5407  0.2401
  868MOL0     C17110   2.886   1.154   6.479  0.0881 -0.3892  0.0129
  868MOL0     C17111   2.858   1.027   6.449 -0.5408  0.8593  0.0576
  868MOL0     C17112   2.871   0.926   6.562 -0.0707 -0.8301  0.2093
  868MOL0     H17113   3.087   0.658   6.455  1.0101 -2.0387  1.5856
  868MOL0     H17114   3.150   0.416   6.444  0.3034 -0.2556  0.0418
  868MOL0     H17115   2.868   0.183   6.197  0.7181  3.3731  0.1266
  868MOL0     H17116   3.010   0.080   6.156  1.8613  1.9154  0.7432
  868MOL0     H17117   3.036   0.028   6.408 -0.7862  0.0040  1.9330
  868MOL0     H17118   2.896  -0.028   6.331  1.6564 -0.5080  0.4611
  868MOL0     H17119   2.922   0.199   6.540 -1.5402 -0.2247  3.0648
  868MOL0     H17120   2.827   0.039   6.532  0.6466 -1.2002 -0.3790
  868MOL0     H17121   2.766   0.289   6.352  3.1863 -3.0634 -4.0896
  868MOL0     H17122   2.682   0.144   6.351 -0.8598  1.0280  0.7196
  868MOL0     H17123   2.670   0.324   6.589  2.2726 -0.8268 -0.1949
  868MOL0     H17124   2.541   0.289   6.475  0.7360  1.6362  0.5389
  868MOL0     H17125   2.530   0.064   6.547 -0.5049  0.2324 -0.2136
  868MOL0     H17126   2.669   0.092   6.657 -0.1536 -0.1501 -0.6662
  868MOL0     H17127   2.408   0.240   6.679  0.4488 -0.2286 -1.4605
  868MOL0     H17128   2.563   0.251   6.783 -0.6372 -0.3697  0.6952
  868MOL0     H17129   2.384   0.006   6.769  0.0350  0.4959  0.5145
  868MOL0     H17130   2.516   0.035   6.878 -0.7356 -2.5594 -2.7871
  868MOL0     H17131   2.201   0.238   6.791  1.0582 -3.3467 -0.5437
  868MOL0     H17132   2.021   0.344   6.958  4.2042 -1.3597 -2.2354
  868MOL0     H17133   2.043   0.342   7.148  3.9627 -2.3107  0.2484
  868MOL0     H17134   2.133   0.537   6.938 -0.1308 -0.8416 -0.8136
  868MOL0     H17135   2.038   0.578   7.090 -0.9141  0.0606 -0.0190
  868MOL0     H17136   2.336   0.489   7.102  1.9539  1.6781  2.2959
  868MOL0     H17137   2.217   0.519   7.237  0.3286  4.4647  1.3171
  868MOL0     H17138   2.281   0.719   7.042 -2.5816 -2.0237 -0.3376
  868MOL0     H17139   2.390   0.693   7.170 -0.8778  5.9787  1.7306
  868MOL0     H17140   2.323   0.958   7.394 -2.6961 -1.1179  1.6321
  868MOL0     H17141   2.311   1.178   7.374 -1.5992  1.7066 -0.1785
  868MOL0     H17142   1.867   1.488   7.012  0.9619 -0.9321 -1.2039
  868MOL0     H17143   1.783   1.715   7.031  1.4081  1.5702 -0.9003
  868MOL0     H17144   2.066   2.009   7.111 -0.4319  0.6097 -1.9810
  868MOL0     H17145   1.945   2.105   7.084 -0.7768  1.0771  1.7846
  868MOL0     H17146   1.993   2.002   7.368 -0.3004 -1.4535 -2.1115
  868MOL0     H17147   2.050   2.161   7.299 -0.0949 -0.1651 -2.1680
  868MOL0     H17148   1.750   2.148   7.250 -3.2960  0.1439  3.0370
  868MOL0     H17149   1.802   2.100   7.410  1.7666 -1.0546  0.6566
  868MOL0     H17150   1.921   2.356   7.299 -0.1468 -0.6090 -0.7803
  868MOL0     H17151   1.890   2.326   7.463  2.5673 -0.6007 -1.2039
  868MOL0     H17152   1.663   2.374   7.254 -4.4942  1.9548  1.8246
  868MOL0     H17153   1.745   2.491   7.363 -0.0300 -0.3137  4.3570
  868MOL0     H17154   1.589   2.236   7.411  0.4403 -0.0256 -0.6547
  868MOL0     H17155   1.659   2.334   7.546  1.2749  2.0633 -0.1528
  868MOL0     H17156   1.516   2.529   7.496 -3.5452  0.6691 -0.9671
  868MOL0     H17157   1.430   2.395   7.553 -2.1892  0.1909 -1.2079
  868MOL0     H17158   1.314   2.513   7.359 -3.0420 -2.8656 -0.4200
  868MOL0     H17159   1.451   2.471   7.256 -0.9610 -2.6123 -2.4387
  868MOL0     H17160   2.142   1.844   7.217 -1.4575  3.5953 -3.1242
  868MOL0     H17161   2.241   1.612   7.193 -0.5717  0.4192  0.5545
  868MOL0     H17162   2.071   1.142   7.011  1.8554  0.6334 -1.0763
  868MOL0     H17163   2.074   0.896   7.048  0.0125 -0.0241  0.0082
  868MOL0     H17164   2.928   0.377   6.091  0.4884  2.4590 -2.4424
  868MOL0     H17165   2.873   0.625   6.083  1.0512  1.9968  0.5515
  868MOL0     H17166   2.857   1.054   6.103  0.3267  0.3105 -0.2575
  868MOL0     H17167   2.879   1.294   6.172 -0.1752 -1.1919 -2.0244
  868MOL0     H17168   2.875   1.567   6.498 -0.5782 -0.0470  1.4262
  868MOL0     H17169   2.838   1.418   6.593  1.3577  0.2360  0.2888
  868MOL0     H17170   2.640   1.535   6.512 -1.6717 -1.2832 -0.2203
  868MOL0     H17171   2.660   1.374   6.426  0.4295  0.3288 -2.6635
  868MOL0     H17172   2.797   1.502   6.245  2.2384  2.0826  0.4558
  868MOL0     H17173   2.704   1.644   6.297 -2.4089 -0.0861 -0.6734
  868MOL0     H17174   2.595   1.378   6.192  1.6368 -0.8919  2.7715
  868MOL0     H17175   2.499   1.509   6.270  0.3917  3.5816 -0.6685
  868MOL0     H17176   2.549   1.663   5.885  1.6764 -1.3959 -0.6842
  868MOL0     H17177   2.905   1.182   6.582  1.9228  0.8175 -0.6104
  868MOL0     H17178   2.775   0.890   6.600  0.3409 -0.6545  1.4646
  868MOL0     H17179   2.930   0.840   6.526  0.7889 -0.4918  0.7677
  868MOL0     H17180   2.925   0.971   6.646 -2.0503  0.9767  0.5864
  869MOL0     O17181   5.701   0.389   3.843  0.1111 -0.3982  0.2057
  869MOL0     C17182   5.713   0.360   3.966 -0.6107  0.1493  0.2638
  869MOL0     O17183   5.756   0.243   4.021  0.2558 -0.3178  0.2311
  869MOL0     C17184   5.821   0.154   3.938 -0.3025  0.2594  0.3827
  869MOL0     C17185   5.889   0.182   3.815  1.3627 -0.1717 -0.3221
  869MOL0     C17186   5.934   0.077   3.735  2.1605 -0.5601 -0.3333
  869MOL0     C17187   5.948  -0.057   3.786  0.4965 -0.1273 -0.0564
  869MOL0     O17188   5.998  -0.157   3.714  0.4313  0.1174  0.6212
  869MOL0     C17189   6.092  -0.135   3.602  0.2078 -0.8192  0.5818
  869MOL0     C17190   6.175  -0.256   3.576 -0.1031 -0.5612 -0.7699
  869MOL0     C17191   6.268  -0.291   3.694 -0.2809  0.1344  0.0519
  869MOL0     C17192   6.387  -0.381   3.656  0.1319  0.9290  0.7960
  869MOL0     C17193   6.490  -0.391   3.771 -0.5074 -0.1440 -0.3248
  869MOL0     C17194   6.470  -0.504   3.879  0.4564  0.5832  0.2460
  869MOL0     C17195   6.592  -0.554   3.957  0.5146  0.6413  0.3452
  869MOL0     C17196   6.553  -0.642   4.075  0.2163 -0.3214  0.4827
  869MOL0     N17197   6.679  -0.708   4.123  0.6095  0.7460 -1.1606
  869MOL0     C17198   6.724  -0.685   4.246 -0.1518  0.0046 -1.3993
  869MOL0     C17199   6.842  -0.762   4.253 -0.0875 -0.7478  0.2640
  869MOL0     C17200   6.945  -0.757   4.358  0.3977  0.1349  0.8112
  869MOL0     C17201   6.927  -0.866   4.461  0.0118  0.3499 -0.0248
  869MOL0     C17202   7.048  -0.890   4.549  0.1595 -0.5349  0.7226
  869MOL0     C17203   7.007  -1.001   4.648 -0.5152 -0.2362  0.3186
  869MOL0     O17204   7.115  -1.038   4.737 -0.5943  0.3070  0.2374
  869MOL0     C17205   7.066  -1.111   4.845 -0.3990  0.2598 -1.0410
  869MOL0     C17206   7.029  -1.250   4.826 -0.6733 -0.2588  0.0147
  869MOL0     C17207   6.953  -1.311   4.921 -0.3319  0.0201  0.2452
  869MOL0     C17208   6.931  -1.248   5.045  0.0642  0.2455 -0.2915
  869MOL0     C17209   6.869  -1.324   5.153 -0.8297  0.2911  0.4078
  869MOL0     O17210   6.787  -1.249   5.231 -0.7380 -0.5659 -0.3349
  869MOL0     C17211   6.749  -1.294   5.355 -0.2218  0.0574 -0.2406
  869MOL0     C17212   6.792  -1.235   5.481  1.1713 -0.1947 -0.1400
  869MOL0     C17213   6.741  -1.283   5.598 -0.0146  0.9070 -0.3881
  869MOL0     C17214   6.654  -1.393   5.603 -0.5996  0.5806  0.0855
  869MOL0     O17215   6.598  -1.430   5.722  0.6027 -0.4712 -0.3383
  869MOL0     C17216   6.464  -1.483   5.712  0.5232  0.4796  0.2719
  869MOL0     C17217   6.406  -1.486   5.848 -0.1530  0.2182  0.3357
  869MOL0     C17218   6.471  -1.602   5.928  0.1208 -0.4887 -0.0422
  869MOL0     C17219   6.389  -1.629   6.055 -0.2406 -0.2506  0.3941
  869MOL0     C17220   6.429  -1.758   6.120 -0.8303  0.0625 -0.6530
  869MOL0     C17221   6.314  -1.833   6.188  0.9484  0.1237  0.2543
  869MOL0     C17222   6.352  -1.950   6.276 -0.8121  0.2668  0.1133
  869MOL0     C17223   6.228  -2.002   6.334  0.0954 -0.6907 -0.5914
  869MOL0    Cl17224   6.117  -1.885   6.422 -0.1901  0.1196 -0.2687
  869MOL0     C17225   6.626  -1.460   5.486 -0.0023 -0.7488 -0.1248
  869MOL0     C17226   6.673  -1.413   5.363  0.1258 -0.2819  0.0709
  869MOL0     O17227   6.880  -1.448   5.155 -0.1786 -0.4534 -0.1440
  869MOL0     C17228   6.961  -1.111   5.064 -0.2379  0.2130 -0.2241
  869MOL0     C17229   7.029  -1.046   4.967  0.5588  0.5540  0.0103
  869MOL0     N17230   6.851  -0.829   4.133 -0.3769 -0.6660  0.2968
  869MOL0     N17231   6.761  -0.797   4.047  0.2408 -0.8372  0.0941
  869MOL0     C17232   5.880  -0.087   3.909 -0.5876  0.0567  0.0183
  869MOL0     C17233   5.826   0.018   3.983  0.5346 -0.6349  0.7792
  869MOL0     C17234   5.667   0.454   4.077 -0.7789 -0.3298  0.1511
  869MOL0     C17235   5.708   0.426   4.213 -0.3294 -0.8318 -0.8844
  869MOL0     C17236   5.656   0.507   4.314 -0.0390 -0.0811  0.4223
  869MOL0     C17237   5.572   0.616   4.285  0.7879 -0.9988 -0.4419
  869MOL0     O17238   5.520   0.700   4.390  0.0193  0.3641  0.4748
  869MOL0     C17239   5.390   0.753   4.384 -0.2612 -0.1183  0.6886
  869MOL0     C17240   5.338   0.816   4.503 -0.5793 -0.5048  0.3653
  869MOL0     C17241   5.393   0.963   4.513  0.1773  0.1719 -0.2088
  869MOL0     C17242   5.381   1.031   4.655 -0.5564 -0.1465 -0.5795
  869MOL0     C17243   5.425   0.943   4.768  0.6487  0.9574  0.0070
  869MOL0     C17244   5.459   0.880   4.865 -0.1732 -0.2016  0.3404
  869MOL0     C17245   5.532   0.643   4.151 -0.1383 -0.5388 -0.2186
  869MOL0     C17246   5.587   0.569   4.054  0.4181  0.2497  0.1329
  869MOL0     C17247   5.525   0.620   3.922  0.5064 -0.3877  0.7901
  869MOL0     H17248   5.892   0.284   3.779  1.9206  0.5177  1.5620
  869MOL0     H17249   5.960   0.102   3.632 -1.1900 -3.0027 -1.9756
  869MOL0     H17250   6.044  -0.091   3.514  0.3343  1.9559  1.8046
  869MOL0     H17251   6.163  -0.057   3.633  0.2492 -0.6428  0.0458
  869MOL0     H17252   6.243  -0.243   3.491 -1.9719 -3.3071 -2.8737
  869MOL0     H17253   6.123  -0.346   3.543 -1.2051 -1.7511  3.6018
  869MOL0     H17254   6.207  -0.338   3.772 -1.4984  2.4454  0.5825
  869MOL0     H17255   6.306  -0.194   3.728  1.3177  0.1683 -1.6807
  869MOL0     H17256   6.344  -0.480   3.638  0.6154  0.9731 -0.7638
  869MOL0     H17257   6.437  -0.332   3.572  0.4158  1.8015  1.4651
  869MOL0     H17258   6.583  -0.423   3.724  0.4708 -0.6429  1.8081
  869MOL0     H17259   6.497  -0.294   3.821  4.2602 -1.4794  2.2014
  869MOL0     H17260   6.390  -0.479   3.949  0.7692  0.8385  0.5159
  869MOL0     H17261   6.431  -0.594   3.831  1.6876 -0.9671  2.0166
  869MOL0     H17262   6.664  -0.480   3.992 -0.1960  1.0763  0.9026
  869MOL0     H17263   6.630  -0.636   3.895 -1.2867  0.2127 -0.2423
  869MOL0     H17264   6.504  -0.586   4.156 -2.9551 -2.3620  0.1213
  869MOL0     H17265   6.482  -0.717   4.041  0.8054  0.2231 -2.1687
  869MOL0     H17266   6.698  -0.609   4.320  1.0085 -1.8132  0.9964
  869MOL0     H17267   7.044  -0.754   4.312  1.1439 -0.5761  2.3044
  869MOL0     H17268   6.930  -0.659   4.403  0.8758 -0.9010  3.3969
  869MOL0     H17269   6.833  -0.840   4.510 -1.6715 -0.6657 -2.4748
  869MOL0     H17270   6.914  -0.965   4.416 -0.0255  0.9171 -1.2999
  869MOL0     H17271   7.084  -0.803   4.604  3.1228 -1.6102  0.6609
  869MOL0     H17272   7.134  -0.918   4.488 -0.4559 -1.5101  0.2779
  869MOL0     H17273   6.978  -1.090   4.592 -2.5450  1.5902 -1.7168
  869MOL0     H17274   6.923  -0.978   4.714  1.5514  0.0841  3.0523
  869MOL0     H17275   7.055  -1.293   4.730  1.9841  0.6953  0.2249
  869MOL0     H17276   6.898  -1.404   4.905 -2.9382  1.7879 -2.0285
  869MOL0     H17277   6.860  -1.151   5.489 -1.3471  1.9268  0.6578
  869MOL0     H17278   6.768  -1.239   5.694  2.3213  0.4283 -0.7499
  869MOL0     H17279   6.401  -1.442   5.632  0.3621  0.2510  0.2810
  869MOL0     H17280   6.461  -1.587   5.679 -1.7738  1.1662 -2.0252
  869MOL0     H17281   6.426  -1.386   5.887  1.7901  0.4170 -1.0177
  869MOL0     H17282   6.297  -1.495   5.839 -0.4318  3.0814 -0.3352
  869MOL0     H17283   6.483  -1.697   5.875  0.4003 -0.8296  0.6214
  869MOL0     H17284   6.561  -1.559   5.972 -1.0746  2.2714 -0.0903
  869MOL0     H17285   6.287  -1.649   6.022  0.6881 -0.7861 -2.4492
  869MOL0     H17286   6.391  -1.551   6.131  2.9298  0.5216 -0.3381
  869MOL0     H17287   6.507  -1.742   6.195 -2.0653 -1.4268  1.0626
  869MOL0     H17288   6.474  -1.825   6.046 -2.2932 -1.2310 -0.4208
  869MOL0     H17289   6.267  -1.755   6.248 -1.9398  0.2577 -1.9573
  869MOL0     H17290   6.251  -1.872   6.108  1.3759 -0.9185  0.3979
  869MOL0     H17291   6.413  -1.919   6.361  1.1023  1.8593 -1.7323
  869MOL0     H17292   6.409  -2.024   6.219  0.9322  0.8986  0.9648
  869MOL0     H17293   6.165  -2.039   6.253 -0.1232  1.8891 -1.6976
  869MOL0     H17294   6.248  -2.082   6.407 -0.3969 -0.4931 -0.2326
  869MOL0     H17295   6.571  -1.553   5.483  1.5528 -1.9557  3.5594
  869MOL0     H17296   6.649  -1.462   5.269  3.0545 -1.4014 -0.1793
  869MOL0     H17297   6.926  -1.065   5.156  1.3744 -1.7299  1.4449
  869MOL0     H17298   7.054  -0.941   4.983  0.0032  0.2000  4.4563
  869MOL0     H17299   5.872  -0.191   3.937  1.4696  0.0398  0.6680
  869MOL0     H17300   5.772   0.012   4.077  1.0938 -1.5556  1.0500
  869MOL0     H17301   5.775   0.348   4.246  0.7432  0.0509 -0.9251
  869MOL0     H17302   5.693   0.496   4.415 -3.3097  0.2061  1.7972
  869MOL0     H17303   5.323   0.672   4.355  1.1777 -0.3555 -2.3810
  869MOL0     H17304   5.391   0.830   4.306  0.6735 -0.6182  0.1853
  869MOL0     H17305   5.360   0.760   4.595 -0.2144 -2.7381 -1.0112
  869MOL0     H17306   5.229   0.810   4.488 -1.0165 -3.0084  3.4095
  869MOL0     H17307   5.319   1.012   4.449  2.1354  1.3627 -1.6871
  869MOL0     H17308   5.489   0.968   4.459  0.9411 -1.5212  0.9244
  869MOL0     H17309   5.441   1.122   4.649  0.9110 -1.1848 -3.4487
  869MOL0     H17310   5.278   1.053   4.686 -0.4205  0.0377 -0.2519
  869MOL0     H17311   5.484   0.817   4.948 -0.3499 -0.2808  0.3350
  869MOL0     H17312   5.463   0.722   4.125 -0.0778 -0.0714  1.0016
  869MOL0     H17313   5.602   0.608   3.844  1.5423 -0.0103  1.7274
  869MOL0     H17314   5.435   0.562   3.902 -1.5912  2.0168  2.5980
  869MOL0     H17315   5.499   0.726   3.918  4.4827  0.9015  2.8933
  870MOL0     O17316  11.155   0.668   0.556 -0.9752 -0.4222 -0.6464
  870MOL0     C17317  11.250   0.686   0.633  0.5851  0.5320 -0.6282
  870MOL0     O17318  11.382   0.707   0.596  0.0965  0.7352 -0.0482
  870MOL0     C17319  11.430   0.733   0.472  1.3436  0.1390  0.9433
  870MOL0     C17320  11.352   0.806   0.381 -0.1564  0.9160 -0.3795
  870MOL0     C17321  11.395   0.832   0.246 -0.1746 -0.1215  0.1669
  870MOL0     C17322  11.529   0.817   0.212  0.3699  0.2640  0.2354
  870MOL0     O17323  11.589   0.862   0.097 -0.1642  0.0304  0.4612
  870MOL0     C17324  11.547   0.992   0.054  0.7931 -0.5482 -0.0241
  870MOL0     C17325  11.578   1.090   0.162  0.1395 -0.4433 -0.1180
  870MOL0     C17326  11.570   1.235   0.105 -0.5752  0.3594  0.7868
  870MOL0     C17327  11.685   1.257   0.004 -0.4337  0.8927 -0.4166
  870MOL0     C17328  11.717   1.405  -0.018 -0.0979  0.6211  0.8636
  870MOL0     C17329  11.617   1.474  -0.103 -0.3778 -0.5236 -1.1387
  870MOL0     C17330  11.638   1.620  -0.112  0.5663  0.0022  0.1109
  870MOL0     C17331  11.576   1.670  -0.251 -0.8939  1.0408  0.5486
  870MOL0     N17332  11.588   1.810  -0.277  0.3054 -1.0366 -0.1192
  870MOL0     C17333  11.474   1.889  -0.275 -0.5782 -0.0475  1.1894
  870MOL0     C17334  11.523   2.018  -0.280  0.1814 -1.0029 -0.9587
  870MOL0     C17335  11.445   2.158  -0.296  0.0017 -0.1980 -0.0922
  870MOL0     C17336  11.362   2.155  -0.420  0.2505  0.1390  0.1142
  870MOL0     C17337  11.299   2.292  -0.437  0.1891 -0.4306 -0.8511
  870MOL0     C17338  11.209   2.293  -0.558  0.0353  0.1401  0.3431
  870MOL0     O17339  11.290   2.262  -0.675 -0.8153 -1.4189 -0.7153
  870MOL0     C17340  11.349   2.371  -0.733 -0.3089  0.1927 -0.4279
  870MOL0     C17341  11.489   2.384  -0.723 -0.3792 -0.9849 -0.0927
  870MOL0     C17342  11.547   2.484  -0.803 -0.0305 -0.0317 -0.4751
  870MOL0     C17343  11.466   2.568  -0.882 -0.0914 -0.7844  0.1575
  870MOL0     C17344  11.526   2.670  -0.972 -0.3106 -0.0996 -0.1964
  870MOL0     O17345  11.670   2.682  -0.964 -0.0752 -0.2615  0.5417
  870MOL0     C17346  11.743   2.748  -1.058  0.7392  0.4128 -0.1955
  870MOL0     C17347  11.863   2.805  -1.008 -0.4451 -0.1585  0.8311
  870MOL0     C17348  11.940   2.873  -1.099 -0.3051  0.5394  0.3962
  870MOL0     C17349  11.912   2.887  -1.237 -0.0221  0.4260  0.5471
  870MOL0     O17350  11.978   2.974  -1.322 -0.2524 -0.4550  0.3123
  870MOL0     C17351  12.023   3.106  -1.282 -0.8518 -0.5321 -0.6546
  870MOL0     C17352  12.043   3.206  -1.400 -0.3693  0.4952  0.3514
  870MOL0     C17353  12.092   3.339  -1.372 -0.1022 -0.4518  0.1631
  870MOL0     C17354  12.106   3.428  -1.501  0.2787 -0.3405 -0.1179
  870MOL0     C17355  12.114   3.575  -1.466 -0.1107  0.3633  0.3376
  870MOL0     C17356  12.069   3.649  -1.592  0.3424 -0.6951 -0.0461
  870MOL0     C17357  12.062   3.804  -1.572 -0.2164 -1.1500 -0.1202
  870MOL0     C17358  12.057   3.872  -1.710 -0.7961 -0.4537  0.8256
  870MOL0    Cl17359  12.026   4.042  -1.660 -0.0284  0.2319  0.0359
  870MOL0     C17360  11.791   2.829  -1.284 -0.4804  0.2098 -0.9722
  870MOL0     C17361  11.714   2.748  -1.199 -0.1863  0.1620 -0.2709
  870MOL0     O17362  11.447   2.739  -1.037  0.0303 -0.3131 -0.2058
  870MOL0     C17363  11.323   2.551  -0.883  0.0859  0.2425  1.2688
  870MOL0     C17364  11.270   2.453  -0.811 -0.5673  0.5468 -0.1598
  870MOL0     N17365  11.658   2.015  -0.274 -0.1478  0.2613  0.3444
  870MOL0     N17366  11.693   1.892  -0.259  0.9862  0.5603 -0.2807
  870MOL0     C17367  11.610   0.751   0.304 -0.1664  0.1661 -0.1120
  870MOL0     C17368  11.560   0.724   0.433 -0.5473 -0.0777  0.5505
  870MOL0     C17369  11.232   0.661   0.769  0.5139  0.7304 -1.0460
  870MOL0     C17370  11.333   0.595   0.848 -0.1297  0.5370 -0.2034
  870MOL0     C17371  11.317   0.572   0.981 -0.3369 -0.0296  0.3221
  870MOL0     C17372  11.206   0.614   1.052  0.5124 -0.2641  0.5478
  870MOL0     O17373  11.202   0.575   1.182  0.4989 -0.4440  0.3888
  870MOL0     C17374  11.091   0.637   1.251 -0.5667 -0.4688  0.2242
  870MOL0     C17375  11.089   0.615   1.407  0.2575  0.4639 -0.4410
  870MOL0     C17376  11.065   0.471   1.436  0.1619 -0.4013 -0.4756
  870MOL0     C17377  11.048   0.454   1.586 -0.0036 -0.4951  0.1625
  870MOL0     C17378  11.163   0.500   1.669 -0.2234  0.0565  0.5302
  870MOL0     C17379  11.254   0.565   1.722 -0.1028  0.0062 -0.9170
  870MOL0     C17380  11.101   0.683   0.978  0.2559 -0.2468 -0.6069
  870MOL0     C17381  11.122   0.716   0.836  0.5959 -0.1946 -1.0010
  870MOL0     C17382  11.014   0.804   0.778  0.4265  0.2400 -0.1769
  870MOL0     H17383  11.250   0.841   0.395 -0.7330 -0.6972 -0.2338
  870MOL0     H17384  11.322   0.876   0.179  0.5341  2.6283  1.0590
  870MOL0     H17385  11.580   1.007  -0.050 -0.7718 -3.7397 -1.1082
  870MOL0     H17386  11.441   0.995   0.029  1.6282 -0.7854 -4.4297
  870MOL0     H17387  11.680   1.068   0.194  0.9508  1.9586 -0.8192
  870MOL0     H17388  11.513   1.078   0.249 -0.4783 -1.6092 -0.7161
  870MOL0     H17389  11.563   1.311   0.183 -0.5011 -0.3937  1.5395
  870MOL0     H17390  11.471   1.247   0.060  0.3305 -1.7412 -2.0914
  870MOL0     H17391  11.774   1.196   0.023  0.4458  2.0709 -0.6130
  870MOL0     H17392  11.664   1.217  -0.096 -1.9347 -0.2760  0.3385
  870MOL0     H17393  11.723   1.446   0.083  0.4425 -0.9091  1.4893
  870MOL0     H17394  11.817   1.408  -0.062  1.5124 -2.2596  3.8646
  870MOL0     H17395  11.607   1.426  -0.201 -2.6991  0.2540 -1.3360
  870MOL0     H17396  11.524   1.456  -0.050  1.0480 -1.7315  1.1325
  870MOL0     H17397  11.743   1.652  -0.109  0.8634 -1.0033  1.7229
  870MOL0     H17398  11.579   1.665  -0.032  1.0218 -0.8960  0.9788
  870MOL0     H17399  11.623   1.620  -0.337 -1.9071  1.9048 -0.5323
  870MOL0     H17400  11.469   1.652  -0.239 -0.8364  0.4511  0.2445
  870MOL0     H17401  11.368   1.866  -0.279 -0.7484  0.8735 -0.8076
  870MOL0     H17402  11.377   2.178  -0.213 -2.4599 -1.1444 -1.7780
  870MOL0     H17403  11.517   2.239  -0.309 -3.9412  3.6251 -0.4965
  870MOL0     H17404  11.414   2.117  -0.507 -2.5596  0.4365 -1.8367
  870MOL0     H17405  11.283   2.081  -0.403  2.0037 -1.7291  0.5614
  870MOL0     H17406  11.381   2.365  -0.438 -1.1178  1.0755 -0.5427
  870MOL0     H17407  11.235   2.313  -0.351 -0.6704 -1.1573 -1.3012
  870MOL0     H17408  11.155   2.387  -0.567 -0.8635 -0.5175 -1.5157
  870MOL0     H17409  11.135   2.213  -0.547 -0.0356  0.2632  0.7602
  870MOL0     H17410  11.544   2.312  -0.663  0.0638  1.5596  2.7754
  870MOL0     H17411  11.655   2.479  -0.806  0.3194  4.0219 -1.0700
  870MOL0     H17412  11.897   2.792  -0.905  1.0670 -0.1662  0.3607
  870MOL0     H17413  12.032   2.924  -1.072 -1.6657  2.2370  2.2452
  870MOL0     H17414  11.962   3.153  -1.204  3.6549  0.6880  2.5989
  870MOL0     H17415  12.113   3.091  -1.222  0.2942  3.2656 -1.1239
  870MOL0     H17416  12.121   3.161  -1.463  0.0767 -0.6676  1.6777
  870MOL0     H17417  11.954   3.208  -1.463  0.9580  1.0185 -1.6089
  870MOL0     H17418  12.017   3.382  -1.306  0.0066  0.7234 -0.4552
  870MOL0     H17419  12.186   3.352  -1.317 -0.5994 -0.8707  1.1320
  870MOL0     H17420  12.014   3.398  -1.553 -0.1046 -2.2339  1.5334
  870MOL0     H17421  12.190   3.398  -1.563 -0.2311 -0.7049 -0.6482
  870MOL0     H17422  12.221   3.599  -1.461  0.2222 -0.2908 -2.1952
  870MOL0     H17423  12.071   3.605  -1.370  1.3961  1.7497  0.6317
  870MOL0     H17424  12.133   3.617  -1.675 -1.2542 -1.9143 -0.8594
  870MOL0     H17425  11.967   3.625  -1.621 -0.2093  0.8441  0.5382
  870MOL0     H17426  12.155   3.833  -1.522 -0.9631  0.1290  0.5721
  870MOL0     H17427  11.979   3.837  -1.510 -0.9859  1.4758 -2.3458
  870MOL0     H17428  12.154   3.866  -1.759 -0.7855  1.0484  0.6288
  870MOL0     H17429  11.977   3.830  -1.772  0.3648 -2.0563  0.3537
  870MOL0     H17430  11.757   2.842  -1.386  0.3557  2.3822 -1.0192
  870MOL0     H17431  11.630   2.696  -1.241 -0.6487  1.1481 -0.5994
  870MOL0     H17432  11.259   2.600  -0.955  1.1866  2.4072  1.6462
  870MOL0     H17433  11.161   2.451  -0.815 -0.5545  1.0068 -0.9353
  870MOL0     H17434  11.709   0.723   0.267 -0.4255 -0.0047 -0.6969
  870MOL0     H17435  11.630   0.676   0.501 -0.9420  0.2856  1.2280
  870MOL0     H17436  11.424   0.564   0.798  0.1763  2.0670 -0.6421
  870MOL0     H17437  11.387   0.506   1.030 -1.3311 -1.7159 -0.4519
  870MOL0     H17438  10.992   0.605   1.219 -2.3689  3.0210  1.7852
  870MOL0     H17439  11.117   0.743   1.239  3.9809 -1.3748  0.3998
  870MOL0     H17440  10.997   0.657   1.449  0.2132  0.2342 -0.3083
  870MOL0     H17441  11.180   0.652   1.454 -0.1789 -0.5927  1.3205
  870MOL0     H17442  11.159   0.417   1.420  0.4833 -0.2244  0.7506
  870MOL0     H17443  10.975   0.446   1.379 -1.1756  1.8858  0.5042
  870MOL0     H17444  10.969   0.524   1.614  2.7630  3.1427 -0.4558
  870MOL0     H17445  11.033   0.347   1.604 -0.1079 -0.1651  2.3622
  870MOL0     H17446  11.334   0.605   1.781 -0.7747 -0.3262  0.2549
  870MOL0     H17447  11.013   0.730   1.020  1.2412  2.3008 -1.2368
  870MOL0     H17448  10.942   0.841   0.851 -1.8695 -1.0156 -1.7078
  870MOL0     H17449  11.060   0.886   0.721 -0.5566  2.7753  2.4054
  870MOL0     H17450  10.959   0.743   0.706  1.4059 -1.1798  0.2267
  871MOL0     O17451   7.172   1.248   9.883 -0.0606 -0.0930  0.2684
  871MOL0     C17452   7.162   1.368   9.881 -0.0988  0.3631 -0.4471
  871MOL0     O17453   7.158   1.447   9.991  0.3994  0.0559  0.1555
  871MOL0     C17454   7.146   1.380  10.106  1.0676  0.7537 -0.3867
  871MOL0     C17455   7.030   1.315  10.142 -0.2354 -0.7414 -0.2159
  871MOL0     C17456   7.024   1.228  10.250 -0.0393  0.2593  0.3782
  871MOL0     C17457   7.123   1.218  10.348 -0.4645  0.3822 -0.2674
  871MOL0     O17458   7.098   1.162  10.469  0.3293 -0.2113 -0.3540
  871MOL0     C17459   7.114   1.245  10.581 -0.3260 -0.2727 -0.4981
  871MOL0     C17460   7.160   1.153  10.696  0.6904 -0.4917 -0.1605
  871MOL0     C17461   7.168   1.228  10.834  0.1251  0.5478  0.0811
  871MOL0     C17462   7.229   1.138  10.944  0.2050 -0.5752  0.8047
  871MOL0     C17463   7.190   1.187  11.082 -0.2980 -0.1469  0.0058
  871MOL0     C17464   7.265   1.097  11.190 -0.3588  0.3939 -0.1814
  871MOL0     C17465   7.201   0.963  11.198 -0.0648 -0.2853  1.3541
  871MOL0     C17466   7.312   0.853  11.221 -0.7660 -0.6230  1.5177
  871MOL0     N17467   7.319   0.810  11.363  0.6568 -0.7793  0.8928
  871MOL0     C17468   7.395   0.869  11.459  0.3143  0.1057 -1.2716
  871MOL0     C17469   7.388   0.796  11.576  0.0099 -0.4328 -1.1125
  871MOL0     C17470   7.436   0.836  11.715 -0.6610  0.3459 -0.1514
  871MOL0     C17471   7.443   0.714  11.810 -0.2167 -0.0390 -0.4453
  871MOL0     C17472   7.580   0.677  11.853  0.3499 -0.4086  0.5753
  871MOL0     C17473   7.587   0.531  11.886  0.1490  0.5616  0.2364
  871MOL0     O17474   7.722   0.498  11.912 -0.5102 -0.2323  0.1737
  871MOL0     C17475   7.781   0.527  12.034  0.4472  0.4717  0.1273
  871MOL0     C17476   7.912   0.479  12.051 -0.7881  0.2204  0.1980
  871MOL0     C17477   7.984   0.490  12.173  0.9780  0.2426  0.7031
  871MOL0     C17478   7.920   0.570  12.270 -0.5707  0.7111 -0.1533
  871MOL0     C17479   7.995   0.605  12.389  0.3855 -0.0248 -0.0827
  871MOL0     O17480   7.942   0.706  12.476  0.0209  0.4047  0.1744
  871MOL0     C17481   8.023   0.775  12.559  0.6415  0.3294  0.1485
  871MOL0     C17482   7.952   0.892  12.605  0.1926  0.3986  0.0823
  871MOL0     C17483   8.007   0.969  12.698  0.1929 -0.5303  1.2805
  871MOL0     C17484   8.139   0.955  12.748  0.1056 -0.0653 -0.0419
  871MOL0     O17485   8.181   1.051  12.836 -0.3162  1.2775 -0.6667
  871MOL0     C17486   8.234   1.003  12.956 -0.5106  0.4656 -1.1480
  871MOL0     C17487   8.222   1.114  13.067  0.5286  0.3030  0.2679
  871MOL0     C17488   8.349   1.208  13.053 -0.1807 -1.3351 -0.3014
  871MOL0     C17489   8.345   1.330  13.148 -0.2245  0.7987  0.6188
  871MOL0     C17490   8.358   1.311  13.303  0.4619 -0.3148  1.7345
  871MOL0     C17491   8.502   1.331  13.356 -0.4789  0.8000  1.0083
  871MOL0     C17492   8.515   1.277  13.494  0.0221 -1.5122 -0.5706
  871MOL0     C17493   8.609   1.367  13.575  0.3112  0.0714  0.1494
  871MOL0    Cl17494   8.637   1.329  13.744  0.2470  0.2691 -0.0998
  871MOL0     C17495   8.207   0.837  12.706  0.2788 -0.0711 -0.4821
  871MOL0     C17496   8.150   0.744  12.609  0.1366  0.0859 -0.4064
  871MOL0     O17497   8.109   0.557  12.401  0.3077  0.2877 -0.4170
  871MOL0     C17498   7.791   0.617  12.249 -0.2012 -0.3832 -0.0479
  871MOL0     C17499   7.717   0.594  12.136 -0.7218  0.3415 -1.0204
  871MOL0     N17500   7.296   0.697  11.546 -0.9559 -0.0908 -0.1345
  871MOL0     N17501   7.259   0.700  11.425  0.6779  0.5466  0.2020
  871MOL0     C17502   7.238   1.297  10.325 -1.0758  0.4803  0.0082
  871MOL0     C17503   7.252   1.371  10.197 -0.4288  0.8607 -0.0323
  871MOL0     C17504   7.162   1.453   9.759  0.0567 -0.5720  0.6094
  871MOL0     C17505   7.134   1.588   9.756  0.0599 -0.1043  0.1521
  871MOL0     C17506   7.128   1.662   9.638  0.3725 -0.8149  1.0028
  871MOL0     C17507   7.150   1.601   9.516 -0.5756 -0.4971  0.2572
  871MOL0     O17508   7.149   1.670   9.397  0.6355 -0.6677  0.9881
  871MOL0     C17509   7.205   1.802   9.391  0.8416 -0.0275  0.6529
  871MOL0     C17510   7.137   1.876   9.269 -0.3183  0.2775 -0.1775
  871MOL0     C17511   7.033   1.983   9.307 -0.8645  0.5914 -0.4737
  871MOL0     C17512   6.963   2.035   9.181  0.5670 -0.2923 -0.5567
  871MOL0     C17513   6.850   2.132   9.205 -0.4158 -0.1742  0.8269
  871MOL0     C17514   6.760   2.215   9.233  0.1713 -0.2478 -0.1939
  871MOL0     C17515   7.181   1.467   9.508 -0.0477 -0.3776 -0.0658
  871MOL0     C17516   7.176   1.396   9.630  0.7663  1.3040 -0.4278
  871MOL0     C17517   7.194   1.245   9.598 -0.8236 -1.1128  0.1946
  871MOL0     H17518   6.949   1.315  10.069  0.3829 -0.1034 -0.9221
  871MOL0     H17519   6.937   1.165  10.262  2.0308 -2.7832  0.3304
  871MOL0     H17520   7.187   1.326  10.575 -0.2057 -0.0678  2.1981
  871MOL0     H17521   7.019   1.287  10.615  1.3409  1.3132  2.7476
  871MOL0     H17522   7.263   1.124  10.672  0.9314  0.2707 -0.0758
  871MOL0     H17523   7.091   1.068  10.689 -0.4217  0.2957  0.9288
  871MOL0     H17524   7.060   1.237  10.850  0.2376 -2.1515  3.3771
  871MOL0     H17525   7.225   1.321  10.824  0.3445  0.2871 -1.1915
  871MOL0     H17526   7.184   1.040  10.924 -1.4078  0.2707  0.0092
  871MOL0     H17527   7.336   1.136  10.920  0.0815  0.6084  0.0461
  871MOL0     H17528   7.212   1.292  11.099 -1.3343  0.0871 -0.0445
  871MOL0     H17529   7.082   1.171  11.093 -0.0252 -2.9789 -0.6679
  871MOL0     H17530   7.368   1.076  11.162 -1.3683 -1.9920 -2.5919
  871MOL0     H17531   7.251   1.135  11.292 -4.5279 -4.4078  1.4620
  871MOL0     H17532   7.168   0.937  11.097 -1.9111  0.4244  1.7333
  871MOL0     H17533   7.116   0.953  11.266 -2.3571  2.8739 -0.7904
  871MOL0     H17534   7.279   0.769  11.158 -2.0889 -0.2007  1.6168
  871MOL0     H17535   7.408   0.885  11.181 -2.6589  4.0240  0.0439
  871MOL0     H17536   7.445   0.965  11.457 -0.5206  0.5578 -0.9210
  871MOL0     H17537   7.532   0.888  11.722 -0.4189 -0.2746  1.8685
  871MOL0     H17538   7.361   0.906  11.751  0.4020  0.5894  1.7210
  871MOL0     H17539   7.383   0.715  11.901  0.7597  2.4827  0.2531
  871MOL0     H17540   7.408   0.633  11.745 -1.2461  1.0061 -1.2376
  871MOL0     H17541   7.601   0.741  11.939 -5.0239  1.6073  0.8273
  871MOL0     H17542   7.642   0.699  11.766 -5.1825 -0.7277 -4.0585
  871MOL0     H17543   7.558   0.475  11.797 -1.4461 -0.0949  1.1450
  871MOL0     H17544   7.521   0.500  11.967  1.1449  0.7749  1.1569
  871MOL0     H17545   7.934   0.404  11.976  1.7369  0.7393  0.3545
  871MOL0     H17546   8.082   0.444  12.178  1.1728  0.5060 -0.4345
  871MOL0     H17547   7.849   0.911  12.579  0.5909  2.1840 -0.2606
  871MOL0     H17548   7.933   1.041  12.730  1.4888  1.2884  0.3369
  871MOL0     H17549   8.179   0.913  12.983  0.5958 -0.1616 -0.9468
  871MOL0     H17550   8.339   0.976  12.945 -0.1493  1.0362  0.5610
  871MOL0     H17551   8.135   1.178  13.046  1.1046  1.1530  0.4190
  871MOL0     H17552   8.207   1.077  13.169 -1.5850  0.8675  0.2237
  871MOL0     H17553   8.434   1.142  13.073  1.0630  0.2182 -0.2138
  871MOL0     H17554   8.364   1.253  12.954 -0.5797  0.6249  0.4893
  871MOL0     H17555   8.244   1.369  13.135 -0.8973 -0.7574  0.9940
  871MOL0     H17556   8.423   1.402  13.120  1.0870 -0.3937  1.0491
  871MOL0     H17557   8.313   1.219  13.340 -1.4223  0.7268  2.1639
  871MOL0     H17558   8.308   1.389  13.360 -0.3491  0.6130 -0.1397
  871MOL0     H17559   8.563   1.265  13.293 -1.4657  1.1778 -0.3900
  871MOL0     H17560   8.534   1.434  13.345 -0.2304  0.7019  0.8110
  871MOL0     H17561   8.542   1.172  13.483  0.9380 -1.3805  0.2730
  871MOL0     H17562   8.418   1.279  13.545  0.8695  2.4771  1.3177
  871MOL0     H17563   8.708   1.372  13.528  1.0899 -2.5464  1.3596
  871MOL0     H17564   8.567   1.468  13.578 -1.5595 -0.6895  1.9436
  871MOL0     H17565   8.306   0.809  12.740 -0.5404  0.9669  3.2252
  871MOL0     H17566   8.211   0.661  12.574 -0.0516 -1.0935  1.8127
  871MOL0     H17567   7.731   0.667  12.325  1.5136 -2.0977  2.5464
  871MOL0     H17568   7.614   0.627  12.147  0.2935  3.1972  1.4839
  871MOL0     H17569   7.318   1.312  10.396 -0.8198 -1.9248  0.3109
  871MOL0     H17570   7.343   1.427  10.184 -0.3719  0.9942  0.9161
  871MOL0     H17571   7.116   1.644   9.847 -2.7246 -0.3563 -0.1597
  871MOL0     H17572   7.123   1.770   9.651  0.3694 -0.7129  0.2427
  871MOL0     H17573   7.313   1.797   9.377  0.9803 -0.6893  1.8257
  871MOL0     H17574   7.177   1.852   9.484 -0.5614 -0.6390  0.5870
  871MOL0     H17575   7.091   1.805   9.200 -0.2428  0.1180 -0.0655
  871MOL0     H17576   7.213   1.937   9.219 -0.3021  0.5821  0.2159
  871MOL0     H17577   7.096   2.062   9.349  0.4926 -1.0109  0.6027
  871MOL0     H17578   6.966   1.937   9.381 -0.2133 -0.5792 -0.5837
  871MOL0     H17579   7.040   2.079   9.117  1.4929  0.3076  0.9009
  871MOL0     H17580   6.918   1.942   9.147  0.4487 -0.7855  0.8693
  871MOL0     H17581   6.674   2.267   9.270  0.8403 -0.1335  1.2680
  871MOL0     H17582   7.195   1.434   9.406 -1.4277  0.1431 -0.4496
  871MOL0     H17583   7.295   1.206   9.615 -1.3275 -1.1695  3.7395
  871MOL0     H17584   7.118   1.192   9.656  0.8297 -1.8854  1.7431
  871MOL0     H17585   7.169   1.231   9.492 -0.0732 -3.5103  0.2637
  872MOL0     O17586   0.101   2.832   3.706 -0.2273  0.3007 -1.0968
  872MOL0     C17587   0.117   2.880   3.597 -0.5840 -0.7129  0.1395
  872MOL0     O17588   0.099   2.810   3.478  0.5026 -0.3294  0.8496
  872MOL0     C17589   0.045   2.686   3.483 -0.1387  0.3757 -0.1628
  872MOL0     C17590   0.129   2.569   3.472 -0.0103 -1.0605  1.0110
  872MOL0     C17591   0.081   2.443   3.489  0.4232  0.2565  0.0115
  872MOL0     C17592  -0.060   2.431   3.486 -0.3371  0.8195  0.4258
  872MOL0     O17593  -0.111   2.302   3.477  1.1137 -0.1115  0.5964
  872MOL0     C17594  -0.253   2.283   3.435 -0.7853 -0.0531 -0.5265
  872MOL0     C17595  -0.301   2.139   3.423 -0.1638 -0.1022 -0.5535
  872MOL0     C17596  -0.200   2.052   3.343  0.9105 -0.0137  0.4431
  872MOL0     C17597  -0.092   1.987   3.434  0.4076 -0.2127  0.6818
  872MOL0     C17598   0.031   1.947   3.336  0.7695 -0.5746 -0.3243
  872MOL0     C17599   0.113   2.075   3.302 -0.6431 -0.0040  0.6339
  872MOL0     C17600   0.206   2.067   3.174  0.2039  1.0213 -0.9216
  872MOL0     C17601   0.240   2.200   3.126 -0.2549 -0.6020 -0.0809
  872MOL0     N17602   0.128   2.257   3.055  0.0335  0.0292 -0.1080
  872MOL0     C17603   0.045   2.350   3.109 -0.3175  1.1182 -0.3989
  872MOL0     C17604  -0.043   2.370   3.014 -0.3070  0.1369  0.2783
  872MOL0     C17605  -0.176   2.443   3.019  0.9501  1.1203  0.7401
  872MOL0     C17606  -0.194   2.527   2.888 -0.4700  0.3522 -1.1004
  872MOL0     C17607  -0.080   2.634   2.898  0.2313 -0.3641 -0.7820
  872MOL0     C17608  -0.067   2.735   3.015  0.0873 -0.7349 -1.1255
  872MOL0     O17609  -0.199   2.780   3.061 -0.0336 -0.6077  0.0067
  872MOL0     C17610  -0.214   2.868   3.166  1.2464 -0.3530 -0.0999
  872MOL0     C17611  -0.343   2.913   3.207  0.1283  0.0994 -0.4726
  872MOL0     C17612  -0.365   3.021   3.302 -0.5437  0.4921  0.3778
  872MOL0     C17613  -0.258   3.072   3.374 -0.4498  0.2706 -0.1067
  872MOL0     C17614  -0.271   3.188   3.464  0.7407 -0.5584 -0.5775
  872MOL0     O17615  -0.162   3.253   3.509  0.5950  0.4830 -0.2152
  872MOL0     C17616  -0.179   3.370   3.587  0.4033  0.4322  0.3618
  872MOL0     C17617  -0.261   3.470   3.543  0.2566  1.2463 -0.4682
  872MOL0     C17618  -0.263   3.585   3.610  0.9290 -1.0902  0.2755
  872MOL0     C17619  -0.199   3.612   3.736  0.0778  0.4912  0.6006
  872MOL0     O17620  -0.195   3.727   3.808  0.1871  0.3441 -0.4152
  872MOL0     C17621  -0.279   3.840   3.766 -0.0224  0.2031 -0.2576
  872MOL0     C17622  -0.296   3.924   3.888 -0.2225 -0.8662 -0.9605
  872MOL0     C17623  -0.186   4.046   3.891  0.2219  0.0099  1.6493
  872MOL0     C17624  -0.211   4.136   4.014  0.0279 -0.3618  0.9794
  872MOL0     C17625  -0.126   4.254   4.012 -0.3748 -1.1330  0.3974
  872MOL0     C17626  -0.144   4.307   4.155  0.3161 -0.6691  0.4258
  872MOL0     C17627  -0.077   4.442   4.186  0.2270 -1.4661 -0.5892
  872MOL0     C17628  -0.149   4.560   4.122 -0.5425 -0.3374  0.8566
  872MOL0    Cl17629  -0.060   4.720   4.135  0.6681  0.1485 -0.0485
  872MOL0     C17630  -0.118   3.505   3.780 -0.2548 -0.2735 -0.8428
  872MOL0     C17631  -0.118   3.379   3.714  0.3890 -0.4167  0.4740
  872MOL0     O17632  -0.386   3.235   3.480  0.2914 -0.3450 -0.3675
  872MOL0     C17633  -0.132   3.012   3.345 -0.5683  1.2184 -0.6600
  872MOL0     C17634  -0.108   2.917   3.245 -0.1032 -0.3773 -0.5712
  872MOL0     N17635  -0.010   2.302   2.900  0.6740 -0.1584 -0.2762
  872MOL0     N17636   0.104   2.236   2.921 -0.4305  0.3421  0.0311
  872MOL0     C17637  -0.149   2.539   3.481 -0.6532 -0.0638  0.1132
  872MOL0     C17638  -0.094   2.673   3.482 -0.0269 -0.0980 -0.8847
  872MOL0     C17639   0.170   3.025   3.598  0.2234  0.3711  0.8202
  872MOL0     C17640   0.202   3.077   3.467  0.0014  0.3048 -0.6074
  872MOL0     C17641   0.258   3.205   3.463  0.0246 -0.4137  0.1036
  872MOL0     C17642   0.260   3.291   3.577  0.3085  0.0770 -0.2527
  872MOL0     O17643   0.311   3.412   3.553  0.2163 -0.0328  0.5794
  872MOL0     C17644   0.280   3.519   3.642  0.4669 -0.3518 -0.7714
  872MOL0     C17645   0.175   3.623   3.594  0.0011 -0.4577  0.7783
  872MOL0     C17646   0.217   3.695   3.468 -0.4131  0.1483  0.2329
  872MOL0     C17647   0.183   3.606   3.346 -0.3346  0.2982  0.1615
  872MOL0     C17648   0.316   3.558   3.285 -0.0742  0.4882  0.4184
  872MOL0     C17649   0.417   3.509   3.232 -0.0461  1.0758 -0.2341
  872MOL0     C17650   0.243   3.233   3.702  0.0477 -0.7544  0.4353
  872MOL0     C17651   0.191   3.106   3.715 -1.4506  0.3001 -0.3417
  872MOL0     C17652   0.159   3.057   3.858  0.1662 -0.3021 -0.0321
  872MOL0     H17653   0.235   2.591   3.469 -0.7350  3.3907 -0.5588
  872MOL0     H17654   0.133   2.348   3.494  2.4519  1.2552 -1.0097
  872MOL0     H17655  -0.308   2.321   3.523 -0.4392 -1.4687  0.3292
  872MOL0     H17656  -0.276   2.335   3.342 -2.6193  2.1788  1.0319
  872MOL0     H17657  -0.398   2.157   3.375 -1.4930  0.1105  1.9977
  872MOL0     H17658  -0.341   2.092   3.513  1.0498  2.3367  1.4218
  872MOL0     H17659  -0.153   2.110   3.263 -0.1144 -0.5081 -0.5467
  872MOL0     H17660  -0.262   1.985   3.283 -0.0718  3.0206 -2.2285
  872MOL0     H17661  -0.056   2.047   3.518  0.9824  0.1484  0.1955
  872MOL0     H17662  -0.132   1.893   3.470  1.3425 -1.4904 -1.4235
  872MOL0     H17663   0.095   1.868   3.379 -1.0847 -2.5168 -0.9637
  872MOL0     H17664  -0.014   1.890   3.255  0.9041 -1.0632 -0.0617
  872MOL0     H17665   0.048   2.163   3.292 -1.8114 -0.2561  4.3975
  872MOL0     H17666   0.176   2.105   3.386  0.6285  0.4536 -0.4711
  872MOL0     H17667   0.157   1.998   3.105 -2.3990  1.7233  0.1003
  872MOL0     H17668   0.305   2.023   3.190  0.0043  0.2665 -1.6925
  872MOL0     H17669   0.264   2.262   3.212  1.7858 -0.1620 -0.9031
  872MOL0     H17670   0.325   2.177   3.061  0.0214 -2.5678  0.8927
  872MOL0     H17671   0.049   2.396   3.207  0.8741  2.9550 -1.2392
  872MOL0     H17672  -0.254   2.367   3.024  2.5177 -0.5018  2.1026
  872MOL0     H17673  -0.175   2.497   3.114  0.2461  3.3274 -0.4422
  872MOL0     H17674  -0.194   2.468   2.795 -4.1207  0.9464 -1.6450
  872MOL0     H17675  -0.296   2.566   2.875  0.6468  3.9255 -0.1725
  872MOL0     H17676  -0.100   2.699   2.812  1.9502  3.5047  1.4473
  872MOL0     H17677   0.018   2.587   2.888  1.7383  2.3299  0.3120
  872MOL0     H17678  -0.016   2.826   2.984 -0.8862  0.9700  1.8888
  872MOL0     H17679  -0.016   2.694   3.103  0.6415 -0.3065 -1.2434
  872MOL0     H17680  -0.422   2.864   3.151 -0.2147 -0.9503  0.8682
  872MOL0     H17681  -0.468   3.054   3.304 -1.6694 -2.5073 -1.6387
  872MOL0     H17682  -0.319   3.462   3.452 -0.7954  0.4710  0.2616
  872MOL0     H17683  -0.315   3.669   3.564 -1.9742 -2.8736  0.0663
  872MOL0     H17684  -0.249   3.890   3.674  1.1271 -3.3955 -2.0411
  872MOL0     H17685  -0.379   3.800   3.749  0.6306 -2.4841  1.5168
  872MOL0     H17686  -0.398   3.963   3.897 -0.8953 -2.8908  1.0611
  872MOL0     H17687  -0.273   3.863   3.976  0.9522 -0.0181 -0.6676
  872MOL0     H17688  -0.093   3.993   3.913  0.4003  0.3128  1.6267
  872MOL0     H17689  -0.187   4.109   3.802 -1.0734 -2.3164 -0.0592
  872MOL0     H17690  -0.194   4.071   4.100 -0.7029 -0.9833  0.6672
  872MOL0     H17691  -0.317   4.164   4.018 -0.8055 -2.5159 -2.3069
  872MOL0     H17692  -0.160   4.330   3.942 -0.6950  1.8944  3.5417
  872MOL0     H17693  -0.020   4.234   3.994 -0.1331 -2.1460  2.5990
  872MOL0     H17694  -0.251   4.320   4.177  0.2880 -2.3891  1.5423
  872MOL0     H17695  -0.105   4.233   4.225  0.8228  0.8468  1.8109
  872MOL0     H17696   0.027   4.432   4.152  1.2172  0.7905  1.4792
  872MOL0     H17697  -0.085   4.463   4.293 -1.9270 -0.2235 -0.9507
  872MOL0     H17698  -0.164   4.531   4.018 -1.6052 -0.7121  1.0984
  872MOL0     H17699  -0.249   4.572   4.165 -0.4219  0.9970  0.8024
  872MOL0     H17700  -0.063   3.498   3.874 -2.0409 -2.6769  0.1170
  872MOL0     H17701  -0.071   3.291   3.757 -1.1327 -0.7491  1.5694
  872MOL0     H17702  -0.056   3.047   3.413 -1.5909  1.4828  0.3754
  872MOL0     H17703  -0.010   2.872   3.235 -0.2562 -0.8473  0.0226
  872MOL0     H17704  -0.256   2.528   3.461 -0.5523 -1.0166  0.0697
  872MOL0     H17705  -0.163   2.756   3.473  1.2050  0.9076 -1.4594
  872MOL0     H17706   0.185   3.027   3.372 -1.0458 -0.6229  0.0446
  872MOL0     H17707   0.297   3.252   3.373  2.9118 -1.2388  0.8204
  872MOL0     H17708   0.369   3.582   3.647  0.2190  0.1226 -2.0565
  872MOL0     H17709   0.257   3.480   3.742 -2.4775  1.8712 -0.4520
  872MOL0     H17710   0.165   3.701   3.670  0.0739  2.8774 -2.3282
  872MOL0     H17711   0.081   3.570   3.576 -0.0058  0.0969 -1.0794
  872MOL0     H17712   0.322   3.723   3.471  0.3633 -2.5186  2.9176
  872MOL0     H17713   0.157   3.786   3.450 -2.7212 -1.1297  1.0439
  872MOL0     H17714   0.121   3.521   3.377  0.5227  0.2284  1.7755
  872MOL0     H17715   0.124   3.673   3.283 -2.3115  1.2863  2.8459
  872MOL0     H17716   0.517   3.476   3.210  0.1567 -0.6023  2.6311
  872MOL0     H17717   0.272   3.286   3.793  1.5027  3.7687 -2.3515
  872MOL0     H17718   0.179   3.131   3.936  0.7528  0.8007 -1.1962
  872MOL0     H17719   0.054   3.031   3.872  0.4051 -0.4044  1.7171
  872MOL0     H17720   0.213   2.964   3.876  0.9113 -0.6452 -3.4287
  873MOL0     O17721   6.514   1.211   5.502 -0.5842 -0.6090  0.1146
  873MOL0     C17722   6.392   1.227   5.472  0.6274  0.2811 -0.6959
  873MOL0     O17723   6.345   1.233   5.343  0.2771 -0.7663  0.0807
  873MOL0     C17724   6.407   1.291   5.234 -0.0432  0.8476 -0.1374
  873MOL0     C17725   6.525   1.356   5.247  1.2140 -0.8389  0.2187
  873MOL0     C17726   6.593   1.399   5.140  0.1105  0.2382  0.4999
  873MOL0     C17727   6.542   1.375   5.006  0.8606 -0.4711  0.3283
  873MOL0     O17728   6.615   1.434   4.903  1.1216  0.4126 -0.2325
  873MOL0     C17729   6.633   1.353   4.780  0.1889 -0.5711  0.1937
  873MOL0     C17730   6.712   1.227   4.792 -0.0117 -0.0137  0.8485
  873MOL0     C17731   6.767   1.205   4.647 -1.0886 -0.2822  0.0521
  873MOL0     C17732   6.807   1.059   4.623  0.0436  0.6208 -0.1280
  873MOL0     C17733   6.692   0.959   4.610 -0.4913 -0.0605  0.0041
  873MOL0     C17734   6.619   0.980   4.475 -0.0854  0.7922 -1.3987
  873MOL0     C17735   6.494   0.895   4.460  0.2202  0.8046  0.9699
  873MOL0     C17736   6.383   0.927   4.561 -0.1950 -0.0921 -0.4369
  873MOL0     N17737   6.328   1.060   4.543 -0.4699  0.0033  0.6143
  873MOL0     C17738   6.232   1.099   4.450 -0.3574 -0.5532  0.5345
  873MOL0     C17739   6.215   1.232   4.465 -0.7425  0.2699 -0.3057
  873MOL0     C17740   6.132   1.323   4.372  0.5606 -0.4557 -0.3940
  873MOL0     C17741   6.203   1.452   4.321 -1.1055  0.5549  1.3702
  873MOL0     C17742   6.239   1.421   4.179  0.4945  0.5337 -0.2506
  873MOL0     C17743   6.349   1.517   4.126 -0.2734  0.4404 -0.6065
  873MOL0     O17744   6.392   1.487   3.990 -0.0959 -0.0751 -0.3127
  873MOL0     C17745   6.516   1.540   3.963  0.7442 -0.1163  0.0028
  873MOL0     C17746   6.621   1.472   3.988 -0.4594 -0.1618  0.2934
  873MOL0     C17747   6.749   1.532   3.979  0.3692  0.3828 -1.1497
  873MOL0     C17748   6.766   1.659   3.930 -0.3996  0.1078  0.8491
  873MOL0     C17749   6.901   1.720   3.917  0.2844  0.5703  0.0505
  873MOL0     O17750   6.996   1.694   4.021  0.2661 -0.2133  0.0844
  873MOL0     C17751   7.117   1.754   4.016  0.0999 -0.7728  0.2711
  873MOL0     C17752   7.207   1.743   3.909  0.0398  0.3485  0.6861
  873MOL0     C17753   7.339   1.799   3.907  0.5361 -0.1479  0.6230
  873MOL0     C17754   7.385   1.868   4.024  1.6463  0.4323  0.9350
  873MOL0     O17755   7.514   1.904   4.043  0.6190 -0.6959 -0.2005
  873MOL0     C17756   7.615   1.871   3.946  1.2262 -0.5304 -0.0607
  873MOL0     C17757   7.753   1.935   3.996  0.9750  0.4152  0.2654
  873MOL0     C17758   7.749   2.088   3.966 -0.3660  0.7606  0.7982
  873MOL0     C17759   7.781   2.095   3.817  0.0483  0.4350  0.2908
  873MOL0     C17760   7.782   2.244   3.781  0.0435  0.5208  0.0883
  873MOL0     C17761   7.829   2.256   3.635  0.2275  0.2313 -0.7802
  873MOL0     C17762   7.796   2.398   3.581  0.3602 -0.6927  0.9489
  873MOL0     C17763   7.700   2.393   3.458  0.8485 -0.2526  0.1122
  873MOL0    Cl17764   7.777   2.293   3.329  0.3130  0.5167 -0.0457
  873MOL0     C17765   7.293   1.881   4.124  0.3397 -1.5165 -0.8906
  873MOL0     C17766   7.162   1.834   4.123  0.3394  0.3452 -0.8685
  873MOL0     O17767   6.917   1.792   3.816  0.0505  0.7979 -0.0728
  873MOL0     C17768   6.646   1.724   3.880  0.0641  0.5127  0.7879
  873MOL0     C17769   6.523   1.668   3.903  0.2257 -0.5963 -0.0778
  873MOL0     N17770   6.290   1.266   4.576  0.3513 -0.0867  0.1102
  873MOL0     N17771   6.365   1.170   4.613 -0.4333 -0.9767 -0.9802
  873MOL0     C17772   6.415   1.303   5.000 -1.4564 -0.1767 -0.4217
  873MOL0     C17773   6.349   1.265   5.115 -0.6808  0.3717  0.5261
  873MOL0     C17774   6.291   1.188   5.574 -0.3134 -1.0143  0.2689
  873MOL0     C17775   6.154   1.183   5.536 -0.3077 -0.0596  0.0593
  873MOL0     C17776   6.056   1.169   5.635  0.4135 -0.9750 -0.6150
  873MOL0     C17777   6.086   1.165   5.768 -0.4195 -0.5401  0.4992
  873MOL0     O17778   5.994   1.171   5.875  0.4114 -0.1162  0.3576
  873MOL0     C17779   5.865   1.112   5.842 -0.1106  0.4491  0.6827
  873MOL0     C17780   5.791   1.119   5.976  1.0112 -0.4727  0.4384
  873MOL0     C17781   5.860   1.033   6.072  0.7323 -0.3539 -0.4114
  873MOL0     C17782   5.791   1.038   6.212  0.1754  0.6694 -1.3853
  873MOL0     C17783   5.829   0.927   6.305 -0.1962  0.1197  0.0689
  873MOL0     C17784   5.855   0.852   6.395 -1.3127 -0.0653  0.0095
  873MOL0     C17785   6.218   1.163   5.804 -0.1770  0.7402  0.4640
  873MOL0     C17786   6.321   1.176   5.710 -0.1494 -0.2857  0.2878
  873MOL0     C17787   6.459   1.181   5.772  0.0579  0.3349  0.3640
  873MOL0     H17788   6.582   1.379   5.337  0.4201  2.7655 -0.0541
  873MOL0     H17789   6.686   1.449   5.162 -0.7620 -0.2430  7.4653
  873MOL0     H17790   6.538   1.334   4.729  0.6489  0.7961 -1.2696
  873MOL0     H17791   6.687   1.423   4.716  0.0125 -0.8981 -0.3145
  873MOL0     H17792   6.643   1.151   4.830 -0.8275 -1.3329 -2.7815
  873MOL0     H17793   6.794   1.249   4.860 -2.5841 -0.8152  4.4818
  873MOL0     H17794   6.859   1.260   4.628  0.1433 -1.7520  1.4613
  873MOL0     H17795   6.699   1.241   4.568 -0.5384  0.0172 -0.2897
  873MOL0     H17796   6.869   1.043   4.534 -1.1662  1.4303 -1.1383
  873MOL0     H17797   6.865   1.037   4.714 -1.2994  1.5285  0.9845
  873MOL0     H17798   6.719   0.853   4.619  0.4461  0.3538  3.4272
  873MOL0     H17799   6.622   0.973   4.693 -1.3545 -2.9368 -0.1071
  873MOL0     H17800   6.589   1.084   4.460 -0.7492  0.2541 -4.3961
  873MOL0     H17801   6.685   0.945   4.396  2.0836  2.6212 -0.5041
  873MOL0     H17802   6.516   0.791   4.487 -1.5886  0.0415 -0.3068
  873MOL0     H17803   6.459   0.897   4.356  2.0846 -2.4322  0.1229
  873MOL0     H17804   6.315   0.842   4.554  2.7665 -2.6713 -0.1998
  873MOL0     H17805   6.424   0.920   4.663  0.4089 -2.7122 -0.7734
  873MOL0     H17806   6.194   1.039   4.367  0.0351  1.2154 -1.0077
  873MOL0     H17807   6.087   1.266   4.290  3.0543  0.2411 -2.3795
  873MOL0     H17808   6.058   1.361   4.444  0.5926  1.4269 -1.2931
  873MOL0     H17809   6.135   1.537   4.333  1.3514  2.9312 -0.3334
  873MOL0     H17810   6.298   1.472   4.372 -0.2959  0.6994 -0.1463
  873MOL0     H17811   6.145   1.430   4.124  1.8880 -2.1339 -3.4100
  873MOL0     H17812   6.271   1.317   4.170  0.0207  0.2506  1.1486
  873MOL0     H17813   6.433   1.503   4.195  0.3653  0.9116 -1.2677
  873MOL0     H17814   6.315   1.621   4.131  1.1027  0.8740  0.3808
  873MOL0     H17815   6.619   1.366   4.011  0.0411 -0.9680 -2.9808
  873MOL0     H17816   6.827   1.471   4.024 -0.5592 -0.4771 -0.6693
  873MOL0     H17817   7.177   1.685   3.822 -2.2711 -0.7498  2.1010
  873MOL0     H17818   7.399   1.783   3.819  3.9126  2.0492  2.2923
  873MOL0     H17819   7.609   1.762   3.949  0.3537 -0.4912 -0.1551
  873MOL0     H17820   7.583   1.902   3.846 -3.3293 -1.6066  0.8603
  873MOL0     H17821   7.777   1.932   4.103  0.1948 -0.0559  0.4380
  873MOL0     H17822   7.841   1.890   3.950 -1.0951  0.7573 -4.5257
  873MOL0     H17823   7.657   2.136   4.001 -1.3689  0.1474 -0.8844
  873MOL0     H17824   7.838   2.131   4.012  1.5516  1.7624 -3.3381
  873MOL0     H17825   7.701   2.049   3.758 -1.1809  1.4143  1.1314
  873MOL0     H17826   7.870   2.039   3.788  0.8918  0.8372  1.9765
  873MOL0     H17827   7.853   2.292   3.849 -2.4097  1.0654  2.4841
  873MOL0     H17828   7.684   2.288   3.805  0.4819 -0.0193  3.3739
  873MOL0     H17829   7.938   2.252   3.637  0.3984  2.6672  2.1597
  873MOL0     H17830   7.797   2.174   3.569  4.2355 -0.6089 -1.9532
  873MOL0     H17831   7.889   2.448   3.554 -0.9934  2.9957  2.3764
  873MOL0     H17832   7.759   2.466   3.658  1.3812  0.3331  0.5620
  873MOL0     H17833   7.606   2.353   3.498  1.0365 -2.2802 -1.3379
  873MOL0     H17834   7.687   2.493   3.416 -0.9020 -0.7029 -0.5370
  873MOL0     H17835   7.322   1.945   4.207 -0.3708 -1.8108 -0.3971
  873MOL0     H17836   7.096   1.863   4.204  1.5452 -0.1354  0.3202
  873MOL0     H17837   6.670   1.811   3.819  3.7695 -2.2388 -2.1857
  873MOL0     H17838   6.430   1.713   3.869 -0.0935 -2.1806 -1.4547
  873MOL0     H17839   6.380   1.280   4.900 -1.2164 -1.5527 -0.2117
  873MOL0     H17840   6.265   1.202   5.089 -2.0676  3.0330 -2.0491
  873MOL0     H17841   6.142   1.203   5.430  0.0267 -0.9770 -0.1616
  873MOL0     H17842   5.955   1.176   5.597  0.1155 -1.0159  0.1560
  873MOL0     H17843   5.872   1.012   5.798  1.4743  0.3672  1.0621
  873MOL0     H17844   5.820   1.181   5.770 -0.3313  1.0839  1.4221
  873MOL0     H17845   5.689   1.084   5.959 -0.8417  3.4000  2.2148
  873MOL0     H17846   5.782   1.221   6.015  2.9237  0.8684 -2.3213
  873MOL0     H17847   5.964   1.065   6.083  0.1571  2.0583 -1.4488
  873MOL0     H17848   5.866   0.931   6.031 -2.3491  0.3663 -3.1144
  873MOL0     H17849   5.806   1.138   6.253 -1.1856 -0.4175  2.1484
  873MOL0     H17850   5.683   1.027   6.197  0.0346  0.9984 -0.6728
  873MOL0     H17851   5.870   0.781   6.474  5.1604  0.5236 -0.0857
  873MOL0     H17852   6.235   1.145   5.910 -2.1129 -0.0512  0.6711
  873MOL0     H17853   6.535   1.108   5.742  0.9777  1.3514  0.1498
  873MOL0     H17854   6.500   1.282   5.761  2.6672 -0.7779 -1.0162
  873MOL0     H17855   6.439   1.170   5.879 -1.2883 -1.8574 -0.0536
  874MOL0     O17856   1.794   0.627   2.771  0.9177  0.0339 -0.2801
  874MOL0     C17857   1.686   0.588   2.728 -0.3103  0.8660 -0.0101
  874MOL0     O17858   1.585   0.664   2.687 -0.7678 -0.1732 -0.6360
  874MOL0     C17859   1.601   0.795   2.639  0.7215  0.0146  0.1938
  874MOL0     C17860   1.478   0.870   2.635 -0.4115 -0.3195  0.0966
  874MOL0     C17861   1.478   1.000   2.586  0.4797 -0.7541 -0.2328
  874MOL0     C17862   1.608   1.058   2.558 -0.2930 -0.9169 -0.5791
  874MOL0     O17863   1.608   1.183   2.509 -0.0016 -0.2409  0.5883
  874MOL0     C17864   1.720   1.269   2.502 -0.1342 -0.2458 -0.8786
  874MOL0     C17865   1.691   1.398   2.418  0.1858 -0.6223 -0.4744
  874MOL0     C17866   1.662   1.358   2.272  0.7015 -0.8366  0.2417
  874MOL0     C17867   1.602   1.472   2.187 -0.2505 -0.0416  0.8186
  874MOL0     C17868   1.549   1.432   2.049  0.0827  0.2079 -0.1639
  874MOL0     C17869   1.663   1.407   1.954  0.3538  0.6885 -0.5220
  874MOL0     C17870   1.626   1.395   1.800 -0.6448 -0.5321 -0.2521
  874MOL0     C17871   1.571   1.529   1.747  0.4168  0.5696  0.3229
  874MOL0     N17872   1.538   1.520   1.602 -0.4402  0.1044  0.8484
  874MOL0     C17873   1.441   1.441   1.534  0.3804  0.2136 -0.0973
  874MOL0     C17874   1.439   1.490   1.409  0.3568 -0.3655  0.2532
  874MOL0     C17875   1.346   1.466   1.299  0.3608 -0.0525 -0.6619
  874MOL0     C17876   1.275   1.332   1.309 -0.3776  0.2883 -0.5951
  874MOL0     C17877   1.152   1.312   1.226  0.2444 -0.0999 -0.5484
  874MOL0     C17878   1.101   1.167   1.231 -0.9751 -0.2068 -0.6603
  874MOL0     O17879   1.194   1.071   1.170  0.5058  0.4741 -0.7922
  874MOL0     C17880   1.134   0.962   1.117  0.1841  0.7342  0.1086
  874MOL0     C17881   1.150   0.941   0.981  0.6799  0.6715 -0.1988
  874MOL0     C17882   1.101   0.830   0.915  0.2421  0.6655 -0.7318
  874MOL0     C17883   1.020   0.740   0.989  0.6047  0.1373  0.6612
  874MOL0     C17884   0.953   0.630   0.922  0.3709 -0.5440 -0.1707
  874MOL0     O17885   0.898   0.538   1.004 -0.5408  0.0497  0.6042
  874MOL0     C17886   0.843   0.431   0.940  0.1634  0.2807 -0.1737
  874MOL0     C17887   0.712   0.392   0.972  0.2551 -0.7553 -0.5173
  874MOL0     C17888   0.646   0.285   0.913  0.0179  0.8994  0.0340
  874MOL0     C17889   0.713   0.204   0.818 -0.4409  0.4783 -0.2026
  874MOL0     O17890   0.642   0.098   0.763  0.3758 -0.2367 -0.0260
  874MOL0     C17891   0.704   0.028   0.657  1.2046 -0.7775  0.0018
  874MOL0     C17892   0.598  -0.068   0.600  0.1559  0.5867 -0.0700
  874MOL0     C17893   0.523  -0.016   0.475  0.2044  0.2164  0.6003
  874MOL0     C17894   0.615   0.010   0.347 -0.3835  0.1046 -1.0285
  874MOL0     C17895   0.550  -0.047   0.214  0.2821 -0.3748  0.9029
  874MOL0     C17896   0.535  -0.202   0.214 -0.2613 -0.9738 -0.9689
  874MOL0     C17897   0.482  -0.254   0.083  0.4068  0.0088  0.2998
  874MOL0     C17898   0.345  -0.199   0.055 -0.3777  0.0228 -0.6008
  874MOL0    Cl17899   0.258  -0.282  -0.078  0.3376 -0.1238 -0.1606
  874MOL0     C17900   0.838   0.250   0.773  0.3155  0.8888  0.2741
  874MOL0     C17901   0.900   0.363   0.835  0.2640  1.0406  0.5276
  874MOL0     O17902   0.946   0.631   0.801 -0.7293 -0.2983 -0.4050
  874MOL0     C17903   0.987   0.762   1.125 -0.3826  0.9172 -1.1822
  874MOL0     C17904   1.052   0.877   1.187  1.3100  1.2631  0.1174
  874MOL0     N17905   1.536   1.581   1.384  0.2991  0.6888  0.0656
  874MOL0     N17906   1.591   1.592   1.500  0.9416  0.6071 -0.0870
  874MOL0     C17907   1.729   0.986   2.574 -0.2739 -0.1033 -1.1058
  874MOL0     C17908   1.720   0.850   2.599 -0.0203  0.6466 -1.0711
  874MOL0     C17909   1.661   0.442   2.714 -0.1510  0.2276 -0.3484
  874MOL0     C17910   1.534   0.387   2.707  0.1369 -0.3549  0.2971
  874MOL0     C17911   1.496   0.254   2.691 -1.0051 -0.4617  0.4814
  874MOL0     C17912   1.594   0.154   2.684 -0.0211  0.0903 -0.7628
  874MOL0     O17913   1.555   0.019   2.688 -0.3634 -0.1630 -0.4033
  874MOL0     C17914   1.615  -0.063   2.598  0.0600 -0.2763  0.0526
  874MOL0     C17915   1.577  -0.017   2.446  0.2779 -1.0142 -0.4609
  874MOL0     C17916   1.631  -0.103   2.341  0.2793 -0.4079  0.8517
  874MOL0     C17917   1.628  -0.048   2.196 -0.6232  0.2153 -0.6150
  874MOL0     C17918   1.640  -0.134   2.080  0.1515  0.7785  0.6726
  874MOL0     C17919   1.641  -0.220   1.990  0.2497 -0.4756  0.2724
  874MOL0     C17920   1.725   0.195   2.715  0.3549  0.2755  0.9429
  874MOL0     C17921   1.757   0.333   2.727  0.8743 -1.5733  0.7780
  874MOL0     C17922   1.904   0.371   2.739 -1.0323 -0.6957 -0.5597
  874MOL0     H17923   1.386   0.824   2.670  0.4791 -0.6343  2.1775
  874MOL0     H17924   1.380   1.039   2.561  1.9075  0.6433 -4.8543
  874MOL0     H17925   1.748   1.298   2.604  1.9791 -1.7259 -0.9693
  874MOL0     H17926   1.809   1.215   2.471  1.8431  1.4451  1.4005
  874MOL0     H17927   1.775   1.468   2.426  0.2715 -0.8735  1.2409
  874MOL0     H17928   1.612   1.454   2.468  1.5506  0.3116  0.7346
  874MOL0     H17929   1.591   1.275   2.273  0.0897 -0.3554 -0.9460
  874MOL0     H17930   1.757   1.320   2.234  1.1948 -2.7735  3.1214
  874MOL0     H17931   1.517   1.514   2.242 -0.4608 -2.0222  2.0966
  874MOL0     H17932   1.690   1.535   2.173  1.3863 -2.0969  1.4280
  874MOL0     H17933   1.477   1.350   2.055 -1.4004  1.5542  3.8894
  874MOL0     H17934   1.486   1.515   2.013  1.0624  0.2026 -2.0334
  874MOL0     H17935   1.733   1.491   1.963  1.8295 -0.5807  0.3158
  874MOL0     H17936   1.724   1.319   1.977 -1.5330 -0.1433  1.6830
  874MOL0     H17937   1.547   1.320   1.795 -1.6656  0.3856  1.4106
  874MOL0     H17938   1.702   1.352   1.733  0.1984  1.8280 -0.9302
  874MOL0     H17939   1.481   1.556   1.803 -0.5558  1.8806 -1.7602
  874MOL0     H17940   1.644   1.609   1.760 -1.1475  2.4807 -1.9488
  874MOL0     H17941   1.387   1.358   1.578  1.3332  0.4674  1.6176
  874MOL0     H17942   1.269   1.544   1.299 -1.1155 -1.4182 -2.1456
  874MOL0     H17943   1.399   1.472   1.203 -0.2068 -0.5942 -1.0120
  874MOL0     H17944   1.351   1.254   1.294 -0.7836 -0.1278 -0.5220
  874MOL0     H17945   1.243   1.340   1.413 -0.4491 -2.4239 -0.3471
  874MOL0     H17946   1.167   1.330   1.119  0.8323  0.6292 -0.3444
  874MOL0     H17947   1.078   1.378   1.271 -0.0287  0.2873 -1.5322
  874MOL0     H17948   1.004   1.165   1.180  0.7286  1.2346 -4.3042
  874MOL0     H17949   1.086   1.156   1.339 -1.0040 -0.5026 -0.6935
  874MOL0     H17950   1.206   1.022   0.936 -0.2415  3.7488  3.6128
  874MOL0     H17951   1.123   0.822   0.809 -0.0647  2.9472 -1.0224
  874MOL0     H17952   0.663   0.453   1.046  1.1845  0.5376 -0.9311
  874MOL0     H17953   0.542   0.262   0.929  0.4256 -1.1860 -0.0485
  874MOL0     H17954   0.736   0.094   0.577  3.3271  0.3478  1.6572
  874MOL0     H17955   0.794  -0.021   0.695  0.0124 -0.1329  4.3092
  874MOL0     H17956   0.644  -0.162   0.569 -0.8033  0.8551 -2.5527
  874MOL0     H17957   0.525  -0.094   0.677  1.4030 -3.1824  0.0222
  874MOL0     H17958   0.455  -0.101   0.466  2.3659 -1.4724 -0.5804
  874MOL0     H17959   0.471   0.079   0.495 -1.3882 -0.4026 -0.3849
  874MOL0     H17960   0.718  -0.026   0.360 -0.2354  0.4596 -1.2032
  874MOL0     H17961   0.623   0.117   0.327  1.1264  0.3384  0.5933
  874MOL0     H17962   0.622  -0.016   0.138 -2.1287 -1.8022 -2.1419
  874MOL0     H17963   0.452  -0.000   0.200 -1.2743 -2.4275  3.7965
  874MOL0     H17964   0.638  -0.239   0.216  0.0681 -0.0942 -1.1620
  874MOL0     H17965   0.482  -0.235   0.304  0.1524 -0.3183 -0.4715
  874MOL0     H17966   0.493  -0.363   0.076  0.5371  0.0812 -0.8811
  874MOL0     H17967   0.547  -0.208   0.008 -0.0833 -2.8352 -2.0748
  874MOL0     H17968   0.276  -0.217   0.138 -0.2160  2.0965  0.0346
  874MOL0     H17969   0.354  -0.094   0.026  1.4911 -0.1522 -0.7688
  874MOL0     H17970   0.885   0.201   0.689 -2.5570  2.4170 -2.4333
  874MOL0     H17971   0.991   0.402   0.790 -1.3330  2.9753 -1.2544
  874MOL0     H17972   0.907   0.705   1.170 -0.6256  1.8514 -0.4224
  874MOL0     H17973   1.027   0.906   1.289 -1.4161 -0.2318 -0.0344
  874MOL0     H17974   1.818   1.036   2.537 -1.1717  0.2435 -2.9236
  874MOL0     H17975   1.807   0.785   2.602 -2.0691 -2.4038 -2.3310
  874MOL0     H17976   1.455   0.460   2.712  0.1964 -0.0233 -2.3623
  874MOL0     H17977   1.393   0.236   2.661  0.2492 -3.4129 -2.7961
  874MOL0     H17978   1.581  -0.167   2.610 -0.0885 -0.2645 -0.2754
  874MOL0     H17979   1.722  -0.056   2.617 -0.3025 -2.1306  3.9197
  874MOL0     H17980   1.620   0.083   2.435 -0.0874 -0.7059  0.7039
  874MOL0     H17981   1.469  -0.005   2.446  0.4065  0.5675  0.6253
  874MOL0     H17982   1.581  -0.200   2.353 -1.0009  0.1688  0.3754
  874MOL0     H17983   1.735  -0.117   2.370  0.5009  2.3568  1.6594
  874MOL0     H17984   1.534   0.005   2.183 -1.5933 -1.0416  0.8699
  874MOL0     H17985   1.711   0.022   2.182 -1.4722  1.9295  2.2753
  874MOL0     H17986   1.624  -0.284   1.906  2.1499  0.0502 -0.5825
  874MOL0     H17987   1.784   0.104   2.720 -3.1278 -2.1458  2.5843
  874MOL0     H17988   1.965   0.283   2.719 -2.9942 -2.6927  1.5927
  874MOL0     H17989   1.928   0.445   2.662  0.8623  0.4745  1.0534
  874MOL0     H17990   1.928   0.407   2.840 -0.1528 -3.5794  0.3520
  875MOL0     O17991   8.073   0.840   8.741  0.3183 -0.0909  0.0242
  875MOL0     C17992   8.000   0.748   8.695  0.1767 -0.1641  0.5657
  875MOL0     O17993   7.887   0.764   8.628  0.6104 -0.3906 -0.4201
  875MOL0     C17994   7.837   0.885   8.598 -1.0056 -0.2562 -0.0677
  875MOL0     C17995   7.887   0.949   8.489  0.0299  0.0257 -0.0998
  875MOL0     C17996   7.841   1.074   8.457  0.6059 -0.9491 -0.3133
  875MOL0     C17997   7.759   1.152   8.542  0.5955 -0.6373  0.0063
  875MOL0     O17998   7.749   1.295   8.521  0.6673 -0.7120 -0.4437
  875MOL0     C17999   7.687   1.380   8.624  1.3628 -0.1400 -0.3709
  875MOL0     C18000   7.667   1.534   8.589  0.0517 -0.0864  0.0086
  875MOL0     C18001   7.612   1.603   8.710  0.3781 -0.7664  0.2618
  875MOL0     C18002   7.567   1.745   8.660 -0.6287  0.1435 -0.4004
  875MOL0     C18003   7.567   1.846   8.785 -0.7135 -0.4134  1.0963
  875MOL0     C18004   7.466   1.801   8.887 -0.4768  1.3552  0.5529
  875MOL0     C18005   7.469   1.885   9.011 -0.0946  0.1471  0.2799
  875MOL0     C18006   7.588   1.893   9.103 -1.1790 -0.6738  0.8440
  875MOL0     N18007   7.631   1.771   9.169 -0.5921 -0.0419  0.3266
  875MOL0     C18008   7.697   1.672   9.100 -0.4768 -0.2819 -0.8138
  875MOL0     C18009   7.739   1.592   9.198 -0.4935  0.7781 -0.1399
  875MOL0     C18010   7.829   1.472   9.191 -0.4645  0.1748  0.5052
  875MOL0     C18011   7.754   1.337   9.209 -0.5364 -0.1380  0.3047
  875MOL0     C18012   7.700   1.306   9.076  0.1309 -0.3261  0.4303
  875MOL0     C18013   7.592   1.196   9.077 -0.2232  0.3580 -0.2692
  875MOL0     O18014   7.464   1.245   9.127 -0.5385  0.2451 -0.4465
  875MOL0     C18015   7.396   1.337   9.046 -0.5850  0.5597 -0.3433
  875MOL0     C18016   7.350   1.449   9.099  0.6305  0.7256 -0.1714
  875MOL0     C18017   7.284   1.539   9.017  0.5245 -0.9482 -0.8953
  875MOL0     C18018   7.270   1.520   8.877 -0.5282 -0.9812 -0.8079
  875MOL0     C18019   7.177   1.608   8.803  0.1599  0.0672  0.2748
  875MOL0     O18020   7.177   1.592   8.670 -0.0546 -0.1713 -0.2797
  875MOL0     C18021   7.094   1.663   8.598 -0.4111  1.2504  0.7622
  875MOL0     C18022   6.975   1.604   8.555 -0.7266 -0.1448 -0.3173
  875MOL0     C18023   6.899   1.675   8.471 -0.8771 -0.0509 -0.7877
  875MOL0     C18024   6.938   1.798   8.413 -0.7098 -0.1756 -0.8701
  875MOL0     O18025   6.871   1.854   8.314  0.7139 -0.0898  0.3316
  875MOL0     C18026   6.880   1.779   8.193 -1.1306  0.1449  0.2982
  875MOL0     C18027   6.840   1.868   8.071  0.1162 -0.5463 -0.3387
  875MOL0     C18028   6.931   2.002   8.061 -0.1417  0.5133  0.3602
  875MOL0     C18029   6.879   2.132   8.117 -0.4803 -0.3171  0.2770
  875MOL0     C18030   6.963   2.258   8.069 -0.0169  0.5704  0.0968
  875MOL0     C18031   7.019   2.348   8.177  0.0359  0.1238 -0.2470
  875MOL0     C18032   7.084   2.482   8.131 -0.1717  0.0592  0.2403
  875MOL0     C18033   6.995   2.593   8.077  0.0879 -1.0390 -0.5920
  875MOL0    Cl18034   6.898   2.691   8.201  0.1953  0.0606 -0.7217
  875MOL0     C18035   7.061   1.849   8.446 -0.6400  0.4756  0.0198
  875MOL0     C18036   7.140   1.784   8.540 -0.4832  0.2448  0.8878
  875MOL0     O18037   7.115   1.697   8.862  0.0530  0.3376  0.1714
  875MOL0     C18038   7.328   1.409   8.821  0.7951  0.2139 -0.4175
  875MOL0     C18039   7.384   1.312   8.909 -0.4347  0.1309  0.4444
  875MOL0     N18040   7.681   1.626   9.321 -0.0921  0.6321  0.5757
  875MOL0     N18041   7.611   1.731   9.301 -0.7235 -0.1749 -0.5836
  875MOL0     C18042   7.712   1.086   8.656 -0.8385  0.0080  0.6623
  875MOL0     C18043   7.746   0.954   8.670 -0.3494 -1.0085 -0.2200
  875MOL0     C18044   8.033   0.606   8.714 -0.8391  0.7721 -0.9216
  875MOL0     C18045   8.150   0.589   8.799 -0.1028 -0.1251 -0.6935
  875MOL0     C18046   8.215   0.465   8.815 -0.5164  0.0630  0.3486
  875MOL0     C18047   8.146   0.346   8.774 -0.3334  0.1129 -0.5219
  875MOL0     O18048   8.199   0.215   8.780 -0.4574 -0.7651 -1.0709
  875MOL0     C18049   8.289   0.184   8.893  0.0556  0.4948 -0.8058
  875MOL0     C18050   8.373   0.056   8.858 -0.0763  0.5419  0.2162
  875MOL0     C18051   8.472   0.046   8.981 -0.2587 -0.0691  0.6310
  875MOL0     C18052   8.433  -0.041   9.107 -0.7963  0.4597  0.1230
  875MOL0     C18053   8.331   0.021   9.197 -0.2793  0.2482 -0.2405
  875MOL0     C18054   8.246   0.079   9.262 -0.5934  0.3905 -0.9187
  875MOL0     C18055   8.030   0.365   8.693  0.7852  0.2746 -0.6330
  875MOL0     C18056   7.978   0.491   8.646  0.3750  0.1043  0.5331
  875MOL0     C18057   7.867   0.494   8.545  0.1055  0.2352  0.5773
  875MOL0     H18058   7.957   0.916   8.414 -1.1985 -0.9548 -0.8410
  875MOL0     H18059   7.892   1.125   8.376  2.5015 -0.3178  1.2023
  875MOL0     H18060   7.594   1.335   8.657  0.6531  2.4297  1.4982
  875MOL0     H18061   7.746   1.368   8.715 -1.1915 -0.8594  1.2843
  875MOL0     H18062   7.612   1.548   8.496 -1.7589 -1.8447  0.7198
  875MOL0     H18063   7.766   1.579   8.580  0.2326 -0.3260  0.6994
  875MOL0     H18064   7.689   1.607   8.787  0.4226  2.8060  0.1813
  875MOL0     H18065   7.522   1.550   8.743  0.1119  1.4121  3.4848
  875MOL0     H18066   7.636   1.787   8.587 -3.6657  0.8273 -3.0782
  875MOL0     H18067   7.470   1.737   8.611  0.0566 -0.0200 -1.7723
  875MOL0     H18068   7.668   1.832   8.824  3.0072  4.6441 -4.9443
  875MOL0     H18069   7.556   1.948   8.746 -1.0892 -1.8291 -2.9358
  875MOL0     H18070   7.371   1.813   8.834 -0.8262 -4.3738 -0.7844
  875MOL0     H18071   7.458   1.695   8.912 -4.7469  1.3936  0.2174
  875MOL0     H18072   7.377   1.870   9.070  0.1731 -2.2944  0.2034
  875MOL0     H18073   7.448   1.986   8.976 -0.0406 -0.9979 -3.4383
  875MOL0     H18074   7.671   1.930   9.042  0.1972 -2.3646  1.5726
  875MOL0     H18075   7.573   1.966   9.183 -0.1869  2.4348 -1.5916
  875MOL0     H18076   7.714   1.671   8.993  1.1478 -0.5800 -0.5790
  875MOL0     H18077   7.875   1.480   9.092 -2.1513  2.1802 -0.1890
  875MOL0     H18078   7.902   1.479   9.272 -1.0711  0.7698  1.0154
  875MOL0     H18079   7.836   1.266   9.226  1.8774  2.1850 -0.8742
  875MOL0     H18080   7.669   1.340   9.278 -0.6453 -0.6909  0.1956
  875MOL0     H18081   7.788   1.271   9.020  0.1230 -2.1182  1.4474
  875MOL0     H18082   7.656   1.393   9.027  4.0718  2.7520  1.7909
  875MOL0     H18083   7.632   1.126   9.151  1.4088  2.2523  0.7596
  875MOL0     H18084   7.597   1.146   8.980  1.6461 -2.2816  1.0775
  875MOL0     H18085   7.368   1.449   9.206 -4.6177 -0.7807  1.0088
  875MOL0     H18086   7.233   1.621   9.067  3.3299  0.0537  0.5502
  875MOL0     H18087   6.941   1.509   8.594 -1.8092  0.1226 -0.5697
  875MOL0     H18088   6.805   1.629   8.441 -1.3445 -0.2934  0.9310
  875MOL0     H18089   6.976   1.728   8.177 -0.5833  1.1854  0.2107
  875MOL0     H18090   6.808   1.698   8.206  0.8419 -1.6347  0.8884
  875MOL0     H18091   6.831   1.807   7.981 -1.2352 -1.7541  0.5878
  875MOL0     H18092   6.736   1.899   8.082 -0.2923 -0.2332 -3.9348
  875MOL0     H18093   7.029   1.986   8.105 -0.1461  0.9381  0.5367
  875MOL0     H18094   6.935   2.008   7.951 -0.5954 -0.6820  0.2690
  875MOL0     H18095   6.899   2.127   8.224 -0.9590  4.2730  0.7662
  875MOL0     H18096   6.771   2.142   8.104 -1.1378 -1.5882  3.8105
  875MOL0     H18097   6.901   2.316   8.000  1.7879  3.0372  0.4024
  875MOL0     H18098   7.043   2.218   8.007 -0.9753 -1.3890  0.0436
  875MOL0     H18099   6.934   2.374   8.240  0.3836 -0.1115  0.3297
  875MOL0     H18100   7.087   2.298   8.246  1.6767  0.9702 -1.1918
  875MOL0     H18101   7.143   2.438   8.050  0.8037 -4.0666  2.8882
  875MOL0     H18102   7.134   2.534   8.213  0.1522  0.7369 -0.3713
  875MOL0     H18103   7.052   2.660   8.012 -0.1897 -0.5861 -0.3702
  875MOL0     H18104   6.931   2.535   8.011 -0.0618 -1.7898  0.1987
  875MOL0     H18105   7.100   1.937   8.395 -1.9288  0.0993 -1.6927
  875MOL0     H18106   7.240   1.815   8.568 -0.0783  0.0554 -0.2734
  875MOL0     H18107   7.313   1.384   8.716 -1.1281 -1.6573  0.2477
  875MOL0     H18108   7.412   1.218   8.861 -1.4959  0.0138  0.0454
  875MOL0     H18109   7.656   1.148   8.725  0.2522  1.9466 -0.1009
  875MOL0     H18110   7.721   0.890   8.754  4.1328 -1.5675  0.9099
  875MOL0     H18111   8.195   0.669   8.857  0.5427 -0.0682 -1.2622
  875MOL0     H18112   8.315   0.461   8.856 -1.1252 -1.2334  1.8245
  875MOL0     H18113   8.244   0.175   8.993  1.8587  1.0675  0.1146
  875MOL0     H18114   8.362   0.266   8.893 -1.6151  2.0684 -2.8216
  875MOL0     H18115   8.437   0.082   8.773  2.3702 -2.4103  0.9439
  875MOL0     H18116   8.315  -0.036   8.844  3.3042 -1.6061 -0.9892
  875MOL0     H18117   8.491   0.144   9.026  1.2975 -0.6919  1.4255
  875MOL0     H18118   8.567   0.007   8.942  0.7242  0.7045  2.1821
  875MOL0     H18119   8.396  -0.137   9.070 -1.5849  0.9441 -0.3751
  875MOL0     H18120   8.526  -0.059   9.163  0.5283 -3.3425 -2.8530
  875MOL0     H18121   8.166   0.121   9.319 -2.9412  0.8259 -4.2465
  875MOL0     H18122   7.978   0.279   8.650 -0.7838  0.8399  0.0774
  875MOL0     H18123   7.853   0.404   8.484  0.7260  2.2119 -2.7587
  875MOL0     H18124   7.771   0.508   8.595 -2.2152  0.6041 -3.4808
  875MOL0     H18125   7.876   0.580   8.478 -2.1470 -0.1090 -0.2571
  876MOL0     O18126  10.697   2.845   8.473  0.1128  0.1254  0.4480
  876MOL0     C18127  10.743   2.939   8.420 -0.1627 -0.1839  0.6188
  876MOL0     O18128  10.824   2.939   8.305  0.2750 -0.3130  0.0112
  876MOL0     C18129  10.893   2.823   8.268  0.6591  0.0353 -0.1116
  876MOL0     C18130  10.927   2.814   8.133  0.0002  0.7289  0.4085
  876MOL0     C18131  11.001   2.694   8.094 -0.1121  0.0031 -0.3949
  876MOL0     C18132  11.060   2.608   8.184 -1.6529 -0.6169  0.1010
  876MOL0     O18133  11.132   2.491   8.154 -0.3154  0.2747 -0.5685
  876MOL0     C18134  11.156   2.459   8.012  0.9470 -0.1272 -1.1271
  876MOL0     C18135  11.203   2.317   7.991 -0.7666  0.1412  0.9485
  876MOL0     C18136  11.319   2.304   8.094 -0.6571 -0.0200  0.8896
  876MOL0     C18137  11.287   2.241   8.226  0.3602  0.3300  0.6342
  876MOL0     C18138  11.415   2.176   8.286  0.0579  0.2048  0.4645
  876MOL0     C18139  11.422   2.177   8.440  0.0069 -0.0828  0.0884
  876MOL0     C18140  11.333   2.068   8.512 -0.1884  0.6864 -0.3215
  876MOL0     C18141  11.365   2.053   8.660 -0.1453 -0.7335  0.6554
  876MOL0     N18142  11.497   1.991   8.688  0.1986  0.0326 -0.3972
  876MOL0     C18143  11.550   1.873   8.635  0.4743 -0.5310 -0.0611
  876MOL0     C18144  11.678   1.864   8.686 -0.6478  0.4403 -0.5706
  876MOL0     C18145  11.779   1.755   8.642 -0.6212  0.5253  0.1231
  876MOL0     C18146  11.885   1.725   8.744 -0.0847 -0.0346 -0.1949
  876MOL0     C18147  12.008   1.644   8.689  0.5642 -0.8784 -0.3667
  876MOL0     C18148  12.104   1.621   8.806 -0.7436 -0.8436 -0.3066
  876MOL0     O18149  12.033   1.546   8.904 -0.4239  0.0128  1.2085
  876MOL0     C18150  12.110   1.482   8.992 -0.5326 -0.0725 -0.0208
  876MOL0     C18151  12.043   1.395   9.085 -0.2813  0.0983 -0.5537
  876MOL0     C18152  12.108   1.317   9.182  0.3451  0.3731 -0.2543
  876MOL0     C18153  12.248   1.324   9.196  0.6613  0.2568  0.4898
  876MOL0     C18154  12.331   1.248   9.295  0.2474 -0.5089  0.1242
  876MOL0     O18155  12.251   1.164   9.380 -0.1154 -0.4482  0.3298
  876MOL0     C18156  12.299   1.072   9.470 -1.0052  0.2826  0.0026
  876MOL0     C18157  12.437   1.014   9.469  0.1592  0.2198  0.3973
  876MOL0     C18158  12.476   0.929   9.571  0.0086  0.5451  0.0009
  876MOL0     C18159  12.384   0.906   9.679 -0.8125 -0.2334 -0.3247
  876MOL0     O18160  12.432   0.840   9.785  0.2857  0.4703 -0.7987
  876MOL0     C18161  12.351   0.737   9.847 -0.7294 -0.7417  0.0300
  876MOL0     C18162  12.430   0.607   9.884 -0.0708 -0.4507  0.0237
  876MOL0     C18163  12.342   0.516   9.963 -0.6184  0.3298  0.1633
  876MOL0     C18164  12.434   0.438  10.062 -1.0015  0.6408 -0.4183
  876MOL0     C18165  12.367   0.323  10.140  0.3449 -0.3087 -0.2197
  876MOL0     C18166  12.217   0.346  10.188 -0.4607 -0.3122  0.2056
  876MOL0     C18167  12.176   0.258  10.301  0.5494  0.5104 -0.4917
  876MOL0     C18168  12.252   0.275  10.430  0.3760  0.2884 -0.0579
  876MOL0    Cl18169  12.212   0.149  10.556  0.3208  0.2406  0.0029
  876MOL0     C18170  12.247   0.961   9.679 -0.6667  0.6182 -0.0721
  876MOL0     C18171  12.209   1.038   9.571  0.5262 -0.9756  0.2460
  876MOL0     O18172  12.453   1.274   9.298  0.4583  1.0429 -0.2025
  876MOL0     C18173  12.309   1.423   9.112  0.0831 -1.5944  1.0477
  876MOL0     C18174  12.243   1.502   9.011  0.4304 -0.1197  0.8738
  876MOL0     N18175  11.699   1.968   8.778 -0.5316  0.6593  1.1202
  876MOL0     N18176  11.595   2.042   8.771 -0.0684 -0.1052 -0.0197
  876MOL0     C18177  11.039   2.627   8.319 -1.0861  0.1250  0.3720
  876MOL0     C18178  10.953   2.729   8.357  0.7288  0.0629  0.5053
  876MOL0     C18179  10.735   3.071   8.488  0.0306 -0.0042  0.2281
  876MOL0     C18180  10.709   3.065   8.628  0.3623 -0.0764  0.1421
  876MOL0     C18181  10.696   3.180   8.707 -0.5053  0.5555 -0.3850
  876MOL0     C18182  10.702   3.306   8.642 -0.3406 -0.3772 -0.0263
  876MOL0     O18183  10.690   3.411   8.733  0.5510  0.1299 -0.9440
  876MOL0     C18184  10.702   3.539   8.674  0.1998 -0.3553  0.4768
  876MOL0     C18185  10.755   3.633   8.787 -0.1770  0.8487  0.1654
  876MOL0     C18186  10.712   3.789   8.777 -0.3174  0.0242  0.0260
  876MOL0     C18187  10.560   3.801   8.792 -0.8205  0.9862  0.5245
  876MOL0     C18188  10.518   3.936   8.746 -0.3663  0.2849  1.1600
  876MOL0     C18189  10.489   4.046   8.718  0.6329 -0.6780  0.5333
  876MOL0     C18190  10.733   3.316   8.503  0.2781 -0.3364  0.6012
  876MOL0     C18191  10.732   3.203   8.423  0.1610 -0.4095 -0.3951
  876MOL0     C18192  10.729   3.214   8.276  0.6501 -0.1252  0.3227
  876MOL0     H18193  10.882   2.869   8.051 -3.2775 -4.4726 -1.7845
  876MOL0     H18194  11.020   2.680   7.988  0.7172 -1.5953 -0.0708
  876MOL0     H18195  11.062   2.462   7.956 -0.4271  0.0162  1.0721
  876MOL0     H18196  11.230   2.532   7.977 -0.1201  0.8759 -1.3620
  876MOL0     H18197  11.232   2.302   7.887  1.1359  1.9833  1.1252
  876MOL0     H18198  11.133   2.238   8.019  1.6163 -1.1903  3.7168
  876MOL0     H18199  11.358   2.404   8.114  0.3519  0.1717 -1.6900
  876MOL0     H18200  11.405   2.255   8.049 -1.0460 -1.7346  1.9038
  876MOL0     H18201  11.267   2.330   8.287 -0.5994  0.4074  0.2130
  876MOL0     H18202  11.209   2.164   8.221 -1.2026  1.2954  5.0124
  876MOL0     H18203  11.413   2.073   8.248 -0.4260  0.4382 -0.1636
  876MOL0     H18204  11.511   2.218   8.254 -0.1898 -0.1320 -0.7981
  876MOL0     H18205  11.527   2.179   8.469  0.8590  2.7201 -2.6028
  876MOL0     H18206  11.385   2.276   8.468 -0.7553 -0.0687 -0.8884
  876MOL0     H18207  11.350   1.976   8.455 -0.4561  0.4656 -0.0475
  876MOL0     H18208  11.228   2.096   8.498  0.7378  3.1970 -3.8899
  876MOL0     H18209  11.364   2.143   8.722 -0.4487  0.0756 -0.4855
  876MOL0     H18210  11.295   1.984   8.709  1.1728 -0.3232  3.2859
  876MOL0     H18211  11.510   1.814   8.554  1.3656 -3.1812  1.3177
  876MOL0     H18212  11.725   1.662   8.624 -0.6023  0.6732 -0.7500
  876MOL0     H18213  11.826   1.796   8.552 -1.1765 -0.6025 -0.7000
  876MOL0     H18214  11.922   1.825   8.772 -1.3715  0.9405 -1.7993
  876MOL0     H18215  11.832   1.686   8.831 -2.0517 -1.5817 -1.9783
  876MOL0     H18216  12.041   1.677   8.591 -1.9487  1.8897 -0.4412
  876MOL0     H18217  11.973   1.541   8.677  2.5707 -1.4590 -1.6651
  876MOL0     H18218  12.148   1.717   8.835 -2.6087  0.1997 -0.7051
  876MOL0     H18219  12.181   1.559   8.761 -0.0797 -0.2524  0.0032
  876MOL0     H18220  11.935   1.380   9.082 -0.5723  1.8545 -0.1898
  876MOL0     H18221  12.044   1.274   9.258 -1.8427  1.5390 -1.3542
  876MOL0     H18222  12.510   1.028   9.390  1.0389  2.9293  1.6042
  876MOL0     H18223  12.566   0.868   9.572 -0.4490 -0.2401  2.8511
  876MOL0     H18224  12.306   0.792   9.929 -3.2766 -0.1591 -1.6242
  876MOL0     H18225  12.281   0.701   9.771 -0.3552 -2.3752  0.4191
  876MOL0     H18226  12.459   0.562   9.789  2.1498  0.5774  0.1653
  876MOL0     H18227  12.522   0.622   9.940 -1.7301 -1.2913  3.2158
  876MOL0     H18228  12.269   0.570  10.023 -0.0130  0.4844  0.7742
  876MOL0     H18229  12.287   0.456   9.890  2.0730 -0.1187 -1.6345
  876MOL0     H18230  12.466   0.515  10.133 -1.2439 -0.2931  0.7316
  876MOL0     H18231  12.516   0.387  10.010 -1.1050  0.3689 -0.3176
  876MOL0     H18232  12.428   0.313  10.230  2.8859  0.1657 -1.7907
  876MOL0     H18233  12.360   0.231  10.081  0.0681 -0.2127 -0.3386
  876MOL0     H18234  12.214   0.450  10.223 -0.9618  0.9184 -3.1232
  876MOL0     H18235  12.145   0.338  10.106 -1.9505 -2.1076  1.5982
  876MOL0     H18236  12.180   0.153  10.270 -4.0258 -0.4570  1.2869
  876MOL0     H18237  12.073   0.294  10.309  0.6268  0.5931  0.1936
  876MOL0     H18238  12.361   0.259  10.426  0.3860  0.0210  0.9988
  876MOL0     H18239  12.230   0.374  10.471  3.1721  0.3825  1.5253
  876MOL0     H18240  12.169   0.930   9.748 -1.2904  1.5869 -0.3269
  876MOL0     H18241  12.112   1.086   9.583  1.2753  0.3919  1.1031
  876MOL0     H18242  12.416   1.440   9.117  0.1665 -1.2613 -0.9902
  876MOL0     H18243  12.296   1.575   8.951  0.6869  0.5606  1.9052
  876MOL0     H18244  11.085   2.562   8.393 -1.4922 -0.5706  0.0221
  876MOL0     H18245  10.954   2.740   8.465 -0.6217 -0.5416  0.6105
  876MOL0     H18246  10.701   2.971   8.683  0.9782 -1.3882 -1.8760
  876MOL0     H18247  10.674   3.168   8.812 -0.9605 -1.3651 -0.6636
  876MOL0     H18248  10.608   3.566   8.626  0.5064 -0.0372  0.0410
  876MOL0     H18249  10.786   3.544   8.604  1.2560  0.4075  1.7325
  876MOL0     H18250  10.863   3.617   8.784 -0.1009  1.1816  1.0454
  876MOL0     H18251  10.726   3.599   8.886 -1.6996  0.1315 -0.4955
  876MOL0     H18252  10.753   3.826   8.683  0.4270 -1.7615 -0.4057
  876MOL0     H18253  10.761   3.837   8.862 -1.3813 -1.5546  1.6170
  876MOL0     H18254  10.506   3.718   8.746  2.3913  0.0259 -1.8009
  876MOL0     H18255  10.548   3.784   8.900  0.3593  0.1806  0.5548
  876MOL0     H18256  10.466   4.144   8.681 -1.7754 -0.7209  1.7371
  876MOL0     H18257  10.742   3.416   8.462 -1.7454 -0.2836  0.2208
  876MOL0     H18258  10.732   3.315   8.234  1.7631 -0.8251 -1.3854
  876MOL0     H18259  10.829   3.176   8.250  0.1609 -2.8797  2.0189
  876MOL0     H18260  10.656   3.151   8.225 -1.4353  2.2333  0.2193
  877MOL0     O18261   0.619   2.536   0.575  0.1226  0.1368  0.4791
  877MOL0     C18262   0.603   2.559   0.455 -0.7800 -0.6973 -0.0075
  877MOL0     O18263   0.677   2.658   0.397  0.3784 -0.0862 -0.2455
  877MOL0     C18264   0.744   2.754   0.472 -0.2960 -1.5734 -0.0671
  877MOL0     C18265   0.748   2.883   0.423  0.3673  0.3105  0.2678
  877MOL0     C18266   0.855   2.971   0.443  0.2217  0.0382 -0.8091
  877MOL0     C18267   0.956   2.942   0.539  0.3156 -0.1521 -0.3894
  877MOL0     O18268   1.057   3.027   0.581  0.0781 -0.5819  0.3608
  877MOL0     C18269   1.056   3.161   0.536 -0.1985 -0.9685 -0.5143
  877MOL0     C18270   1.145   3.198   0.412 -0.5290  1.2987  0.6057
  877MOL0     C18271   1.159   3.351   0.404  0.5654 -0.7239  0.5292
  877MOL0     C18272   1.172   3.413   0.260 -0.3911  0.4566  0.5733
  877MOL0     C18273   1.186   3.562   0.250  0.1161  0.2841 -0.1890
  877MOL0     C18274   1.240   3.615   0.112  0.6436  0.2099 -0.0277
  877MOL0     C18275   1.286   3.758   0.115 -0.8562 -0.9998  0.3263
  877MOL0     C18276   1.194   3.866   0.166  0.1067 -0.5563 -0.4289
  877MOL0     N18277   1.249   4.002   0.144  1.2161 -0.2375 -0.2369
  877MOL0     C18278   1.293   4.079   0.246 -0.5515 -0.4050  0.4960
  877MOL0     C18279   1.354   4.181   0.182 -0.0435  0.0663 -1.0365
  877MOL0     C18280   1.428   4.296   0.243  0.7800  0.3373 -0.2218
  877MOL0     C18281   1.341   4.388   0.326 -0.8245 -0.1847 -0.1005
  877MOL0     C18282   1.417   4.503   0.379 -1.0475 -0.7976  0.2468
  877MOL0     C18283   1.337   4.584   0.473  0.7553 -0.0324  0.9877
  877MOL0     O18284   1.248   4.669   0.389 -0.5727 -0.0416 -0.2665
  877MOL0     C18285   1.293   4.795   0.348 -0.3842  0.6799 -0.7791
  877MOL0     C18286   1.209   4.872   0.268  0.0917  1.0563 -0.8135
  877MOL0     C18287   1.241   5.003   0.238 -0.2132  0.0712 -0.8146
  877MOL0     C18288   1.375   5.047   0.259  0.8882  1.3467  0.5773
  877MOL0     C18289   1.432   5.172   0.213  0.1133 -0.3030 -0.4425
  877MOL0     O18290   1.352   5.243   0.138 -0.2376 -0.8080 -0.2710
  877MOL0     C18291   1.409   5.335   0.047  0.3106  0.2514 -0.5581
  877MOL0     C18292   1.453   5.466   0.073  0.2174  1.1595 -0.3210
  877MOL0     C18293   1.514   5.546  -0.022  0.1954 -0.6924 -1.0463
  877MOL0     C18294   1.534   5.496  -0.156  0.8583 -0.3089  0.2356
  877MOL0     O18295   1.582   5.561  -0.267 -0.0971 -0.6163  0.5872
  877MOL0     C18296   1.662   5.682  -0.251 -0.6865 -0.4233 -0.4425
  877MOL0     C18297   1.741   5.717  -0.367 -0.3345  0.5299  0.2940
  877MOL0     C18298   1.644   5.764  -0.479 -0.3296  0.9124  0.3777
  877MOL0     C18299   1.726   5.805  -0.609 -0.0299  0.0788 -0.0637
  877MOL0     C18300   1.632   5.817  -0.718  0.3657 -0.7528  0.4029
  877MOL0     C18301   1.700   5.833  -0.851  0.6370  0.7752 -0.1310
  877MOL0     C18302   1.597   5.823  -0.963 -0.4607 -0.6319 -0.4307
  877MOL0     C18303   1.652   5.831  -1.108 -0.3296  0.5892 -0.1000
  877MOL0    Cl18304   1.822   5.878  -1.120 -0.4360 -0.2138 -0.2478
  877MOL0     C18305   1.479   5.369  -0.182  0.3382  1.1849 -0.6257
  877MOL0     C18306   1.418   5.292  -0.080  0.5417  0.3488  0.2698
  877MOL0     O18307   1.547   5.198   0.237  0.3514  0.2311  0.2759
  877MOL0     C18308   1.458   4.970   0.338  0.0655 -0.4771  0.3279
  877MOL0     C18309   1.416   4.842   0.385 -0.3339 -0.5722 -0.4098
  877MOL0     N18310   1.335   4.167   0.052  0.1809 -0.7910  0.0328
  877MOL0     N18311   1.280   4.047   0.020 -0.2303 -0.4310 -0.0995
  877MOL0     C18312   0.945   2.821   0.607 -0.0536  0.5813  0.5315
  877MOL0     C18313   0.847   2.730   0.566 -0.5192  0.2829  0.2569
  877MOL0     C18314   0.530   2.480   0.365  0.3689  0.0589  0.6895
  877MOL0     C18315   0.552   2.492   0.222 -0.2887  0.6690 -0.1617
  877MOL0     C18316   0.479   2.406   0.129 -0.1994  0.0928 -0.0845
  877MOL0     C18317   0.388   2.317   0.177  0.2070  0.2460  1.2653
  877MOL0     O18318   0.312   2.250   0.085  0.0986 -0.7082  0.7923
  877MOL0     C18319   0.269   2.111   0.104  0.3600 -0.0393  0.0301
  877MOL0     C18320   0.131   2.104   0.166 -0.5155  0.4999  0.6752
  877MOL0     C18321   0.015   2.150   0.079 -0.0263  0.5717 -0.4634
  877MOL0     C18322  -0.119   2.143   0.155 -0.3002 -0.3182 -0.5611
  877MOL0     C18323  -0.124   2.243   0.267  0.2007 -0.1456 -0.1990
  877MOL0     C18324  -0.127   2.331   0.348 -0.1437 -0.7377  0.1033
  877MOL0     C18325   0.369   2.303   0.315 -0.4563 -0.1230  0.9163
  877MOL0     C18326   0.442   2.374   0.411 -0.4690 -0.3074 -0.5325
  877MOL0     C18327   0.412   2.359   0.560  0.1724  0.0622 -0.2980
  877MOL0     H18328   0.667   2.911   0.357 -3.3361 -2.3100  3.2545
  877MOL0     H18329   0.851   3.064   0.387 -1.0291  1.3484  1.2872
  877MOL0     H18330   0.951   3.191   0.530  0.4220  1.2708 -5.4834
  877MOL0     H18331   1.099   3.213   0.622 -1.2087 -3.0101  1.3174
  877MOL0     H18332   1.098   3.164   0.319  0.8825  1.0941 -0.0732
  877MOL0     H18333   1.248   3.162   0.412 -1.2336 -0.8157  0.9239
  877MOL0     H18334   1.253   3.376   0.454  1.9912 -2.3164 -1.1884
  877MOL0     H18335   1.071   3.400   0.447  1.2980  0.2462  0.9652
  877MOL0     H18336   1.269   3.370   0.235  1.1369  0.9954  4.6949
  877MOL0     H18337   1.104   3.368   0.187 -0.9947  2.8887 -0.4373
  877MOL0     H18338   1.084   3.598   0.267 -0.5095 -2.5242  3.4343
  877MOL0     H18339   1.237   3.599   0.340  0.9318  1.4704 -1.1166
  877MOL0     H18340   1.327   3.559   0.076  1.7129 -1.0501  3.9758
  877MOL0     H18341   1.162   3.604   0.037  1.4131  0.0442 -0.8214
  877MOL0     H18342   1.318   3.785   0.014  0.9869  1.4630  1.4731
  877MOL0     H18343   1.382   3.754   0.167  0.2998 -0.6121 -1.6963
  877MOL0     H18344   1.091   3.865   0.129 -0.6990  0.8492  1.5943
  877MOL0     H18345   1.188   3.856   0.274  0.6489  2.9589  0.0501
  877MOL0     H18346   1.283   4.066   0.353 -2.2247  0.0879  0.4388
  877MOL0     H18347   1.505   4.252   0.307 -1.1114 -1.4455  0.9741
  877MOL0     H18348   1.482   4.344   0.161  2.6782 -1.9488 -0.4016
  877MOL0     H18349   1.254   4.427   0.271 -1.7892 -0.2848  1.2908
  877MOL0     H18350   1.306   4.326   0.410 -1.0453 -1.3682 -1.0428
  877MOL0     H18351   1.454   4.571   0.302  3.9329 -1.5284  1.6331
  877MOL0     H18352   1.509   4.466   0.426 -1.0421 -1.8453 -0.5579
  877MOL0     H18353   1.398   4.642   0.544  2.9461  2.7553 -2.7635
  877MOL0     H18354   1.272   4.516   0.529  1.2646  0.4810  2.2453
  877MOL0     H18355   1.118   4.820   0.243  0.1426  0.2310  0.6033
  877MOL0     H18356   1.167   5.059   0.183  1.9976 -0.4680 -4.6819
  877MOL0     H18357   1.442   5.496   0.177 -0.3926  1.0441 -0.3450
  877MOL0     H18358   1.559   5.640   0.009  0.8155 -1.7069  1.3686
  877MOL0     H18359   1.586   5.758  -0.234 -0.9736 -0.6581 -0.6819
  877MOL0     H18360   1.730   5.687  -0.166  0.3611  2.1913 -1.3180
  877MOL0     H18361   1.808   5.797  -0.333  0.7693 -0.0267 -0.5225
  877MOL0     H18362   1.801   5.633  -0.404 -1.0698  0.8594 -1.7704
  877MOL0     H18363   1.578   5.678  -0.492  2.2024 -1.2748  1.1274
  877MOL0     H18364   1.572   5.843  -0.456 -1.5535  0.9181 -2.9427
  877MOL0     H18365   1.783   5.718  -0.644 -1.3461  0.0987 -2.4324
  877MOL0     H18366   1.783   5.898  -0.600 -1.3287  0.8009  1.0891
  877MOL0     H18367   1.568   5.903  -0.696  0.1595 -1.1942  1.6375
  877MOL0     H18368   1.577   5.722  -0.711  1.0489 -1.0569  2.4447
  877MOL0     H18369   1.766   5.920  -0.860  2.3312 -0.7212 -3.7231
  877MOL0     H18370   1.762   5.745  -0.866 -0.1684  0.5014 -2.1924
  877MOL0     H18371   1.524   5.902  -0.944  1.3421  0.9578  0.1802
  877MOL0     H18372   1.549   5.726  -0.950  2.5029 -2.1519  0.2607
  877MOL0     H18373   1.648   5.738  -1.166  0.6246  1.7528 -2.1135
  877MOL0     H18374   1.595   5.911  -1.155 -1.5002  0.8127  1.5928
  877MOL0     H18375   1.490   5.331  -0.283  1.0227  1.7897 -0.7898
  877MOL0     H18376   1.380   5.193  -0.103  1.1857  0.1541 -0.0150
  877MOL0     H18377   1.546   5.015   0.383  0.5743  1.0349 -1.9640
  877MOL0     H18378   1.483   4.783   0.447  0.2556  0.6521  0.1789
  877MOL0     H18379   1.007   2.800   0.693  3.0286  3.0846 -0.8748
  877MOL0     H18380   0.857   2.630   0.609 -2.4169 -0.8793 -1.7867
  877MOL0     H18381   0.626   2.559   0.179  3.3874 -2.0182  1.3778
  877MOL0     H18382   0.494   2.403   0.021 -0.3527  0.3267 -0.1154
  877MOL0     H18383   0.349   2.068   0.165  0.6555 -0.1737 -0.4449
  877MOL0     H18384   0.267   2.069   0.003  2.3177 -1.1669  0.4180
  877MOL0     H18385   0.140   2.159   0.260 -2.6930  0.4172  0.9787
  877MOL0     H18386   0.110   1.999   0.187 -0.8050  0.1184 -1.3041
  877MOL0     H18387   0.010   2.085  -0.009  0.8500  0.1725 -0.2304
  877MOL0     H18388   0.020   2.254   0.047 -0.2185  1.1548  1.3178
  877MOL0     H18389  -0.200   2.171   0.087 -1.6832 -0.6072  0.9134
  877MOL0     H18390  -0.134   2.040   0.190  3.0961 -0.8979 -0.4656
  877MOL0     H18391  -0.138   2.410   0.420 -3.1791  0.7774 -1.7822
  877MOL0     H18392   0.299   2.227   0.350 -0.0708 -2.8644 -3.4971
  877MOL0     H18393   0.355   2.267   0.579  1.9840 -1.3078 -1.2540
  877MOL0     H18394   0.502   2.331   0.616  0.3663  1.0435 -0.1043
  877MOL0     H18395   0.364   2.450   0.597 -1.1225 -1.2100  1.2904
  878MOL0     O18396   2.559  10.819   7.216 -0.4099  0.9165 -0.3584
  878MOL0     C18397   2.502  10.894   7.288 -0.6592 -0.0084 -0.8796
  878MOL0     O18398   2.560  11.007   7.330 -0.5444  0.9527 -0.0336
  878MOL0     C18399   2.686  11.038   7.292  0.3242 -0.6974 -0.0408
  878MOL0     C18400   2.701  11.120   7.175  0.8883  0.6898  0.4256
  878MOL0     C18401   2.827  11.149   7.125  0.1732  0.5086 -0.1495
  878MOL0     C18402   2.940  11.116   7.195  0.7711  0.7021 -0.4641
  878MOL0     O18403   3.060  11.156   7.155  0.0166  0.0418  0.7338
  878MOL0     C18404   3.092  11.290   7.136  0.1297 -0.5352  0.5183
  878MOL0     C18405   3.249  11.299   7.130 -0.0380  0.0110 -0.6263
  878MOL0     C18406   3.289  11.435   7.074  0.4272 -0.3229  0.3542
  878MOL0     C18407   3.436  11.464   7.108 -0.2989  0.8810 -0.9897
  878MOL0     C18408   3.486  11.592   7.041 -0.2105  0.4771  0.7516
  878MOL0     C18409   3.637  11.618   7.069  1.1856 -1.0150 -0.3688
  878MOL0     C18410   3.680  11.760   7.018  1.0404 -0.6747  0.2223
  878MOL0     C18411   3.695  11.780   6.862 -0.3812 -0.5570  0.0949
  878MOL0     N18412   3.723  11.920   6.825  0.1955 -0.7347  0.2282
  878MOL0     C18413   3.840  11.985   6.871  0.5869 -1.7450  0.6111
  878MOL0     C18414   3.827  12.113   6.823  0.4124 -0.0956 -0.6473
  878MOL0     C18415   3.924  12.227   6.861  0.6974  0.8751  0.9872
  878MOL0     C18416   3.922  12.230   7.012  0.0034 -0.4948 -0.5183
  878MOL0     C18417   3.801  12.299   7.078 -0.7717 -0.5122 -0.4792
  878MOL0     C18418   3.822  12.309   7.230  1.1983  0.0337 -0.2292
  878MOL0     O18419   3.835  12.180   7.291 -0.2855  0.2860 -0.1745
  878MOL0     C18420   3.728  12.094   7.297 -0.4738  0.9468 -0.1569
  878MOL0     C18421   3.597  12.132   7.296  0.2062 -0.6333  0.0851
  878MOL0     C18422   3.490  12.042   7.282 -0.0747 -0.1840  0.8189
  878MOL0     C18423   3.513  11.905   7.315  0.3742 -0.3929 -0.5045
  878MOL0     C18424   3.406  11.807   7.329  0.0138 -0.9437 -0.0204
  878MOL0     O18425   3.417  11.702   7.425  0.1306 -0.2248  0.2557
  878MOL0     C18426   3.312  11.608   7.446 -0.1377  0.7310  0.5070
  878MOL0     C18427   3.174  11.634   7.438 -0.4082  0.3479 -0.8012
  878MOL0     C18428   3.073  11.539   7.468 -0.5287  0.0381 -0.0620
  878MOL0     C18429   3.114  11.414   7.513  0.2530  0.1029 -0.3029
  878MOL0     O18430   3.030  11.307   7.544 -0.9245  0.4941  0.7650
  878MOL0     C18431   2.895  11.338   7.593 -0.6112 -0.3032  0.1129
  878MOL0     C18432   2.817  11.220   7.644 -0.4865  0.6655  0.3715
  878MOL0     C18433   2.718  11.259   7.751  0.8498  0.8488 -0.2360
  878MOL0     C18434   2.622  11.139   7.793  0.2132 -0.0271  0.4700
  878MOL0     C18435   2.511  11.193   7.881 -0.0122  0.0915 -1.1032
  878MOL0     C18436   2.426  11.076   7.908 -0.7043  0.1464  1.0516
  878MOL0     C18437   2.313  11.094   8.003  0.9756 -0.2732  1.3995
  878MOL0     C18438   2.247  10.953   8.011  0.1305 -0.6270 -0.4764
  878MOL0    Cl18439   2.111  10.964   7.901  0.1777  0.2344 -0.0836
  878MOL0     C18440   3.248  11.388   7.519 -0.2489  1.1027 -0.0582
  878MOL0     C18441   3.349  11.473   7.489  1.2940  0.3702  1.1588
  878MOL0     O18442   3.304  11.829   7.263 -0.3191 -0.0949  0.1990
  878MOL0     C18443   3.642  11.869   7.349 -0.1122 -0.2518 -0.9472
  878MOL0     C18444   3.753  11.953   7.326 -0.0602 -0.4340  0.1289
  878MOL0     N18445   3.716  12.134   6.743  0.9786  0.2952  0.0067
  878MOL0     N18446   3.651  12.016   6.744  0.4509 -0.0004 -0.1027
  878MOL0     C18447   2.926  11.050   7.312 -0.1593 -0.7582  0.1787
  878MOL0     C18448   2.802  11.005   7.367  0.3557  1.0632  0.1268
  878MOL0     C18449   2.365  10.858   7.355  0.2571  0.1270 -0.6609
  878MOL0     C18450   2.346  10.926   7.475  1.0683  0.3717 -0.3855
  878MOL0     C18451   2.232  10.904   7.555 -0.3404  0.7061 -0.4122
  878MOL0     C18452   2.140  10.801   7.512 -0.1343 -0.0274 -0.2715
  878MOL0     O18453   2.032  10.767   7.592  0.0376 -0.1589  0.2230
  878MOL0     C18454   1.982  10.629   7.604  0.3436  0.6514  0.2197
  878MOL0     C18455   1.829  10.630   7.558 -0.2698 -0.0622  0.0592
  878MOL0     C18456   1.762  10.500   7.528  0.7260 -0.4900 -0.6093
  878MOL0     C18457   1.843  10.388   7.460 -0.6864  1.3745 -0.0231
  878MOL0     C18458   1.924  10.423   7.346 -1.0178 -1.6601 -1.0538
  878MOL0     C18459   1.979  10.455   7.239  0.1544  0.3334 -0.8288
  878MOL0     C18460   2.159  10.740   7.386 -0.4942  0.7284  0.1645
  878MOL0     C18461   2.268  10.770   7.300  1.3971 -0.5518 -0.5759
  878MOL0     C18462   2.285  10.690   7.174  0.1301 -0.6158  0.6956
  878MOL0     H18463   2.620  11.148   7.108 -0.7889 -3.8293  0.1711
  878MOL0     H18464   2.843  11.211   7.037 -2.2431  0.9733 -0.3258
  878MOL0     H18465   3.067  11.316   7.032  3.7075 -1.6000 -0.7486
  878MOL0     H18466   3.048  11.366   7.201 -3.2659 -1.9122  0.0811
  878MOL0     H18467   3.288  11.222   7.063 -0.6160 -1.4733  0.7004
  878MOL0     H18468   3.272  11.286   7.236 -5.0685  2.5997  1.1292
  878MOL0     H18469   3.227  11.519   7.108  0.8983 -0.1315  0.7598
  878MOL0     H18470   3.282  11.432   6.965  0.0003 -0.8041  0.3918
  878MOL0     H18471   3.445  11.472   7.216  0.0368  0.5544 -0.9926
  878MOL0     H18472   3.490  11.375   7.076 -2.6212 -0.5751 -1.0981
  878MOL0     H18473   3.470  11.586   6.933 -1.4646 -0.1461  0.9597
  878MOL0     H18474   3.424  11.673   7.080 -0.0596 -0.6446  3.5511
  878MOL0     H18475   3.655  11.600   7.176 -0.7205 -5.0105 -0.5388
  878MOL0     H18476   3.708  11.553   7.019  1.8796 -1.2473  0.8790
  878MOL0     H18477   3.780  11.773   7.061  1.7720  0.8642 -1.7759
  878MOL0     H18478   3.609  11.835   7.051 -2.8749 -3.3751 -1.2368
  878MOL0     H18479   3.778  11.710   6.850  0.7741 -0.4625  5.1723
  878MOL0     H18480   3.606  11.752   6.804 -1.7505 -0.5348  2.1034
  878MOL0     H18481   3.922  11.947   6.932  0.4062 -0.7073  1.5241
  878MOL0     H18482   4.022  12.195   6.822 -0.8003 -1.9527 -0.7844
  878MOL0     H18483   3.889  12.320   6.816  0.1390 -0.5269 -1.6688
  878MOL0     H18484   3.924  12.129   7.055 -0.7740  0.5506  2.1595
  878MOL0     H18485   4.013  12.284   7.041 -0.5201  0.8925 -1.3502
  878MOL0     H18486   3.704  12.251   7.064 -2.5438  1.0727  4.2525
  878MOL0     H18487   3.793  12.401   7.041 -2.5737 -0.0073  1.1466
  878MOL0     H18488   3.740  12.363   7.277  0.9748 -0.3599 -0.1631
  878MOL0     H18489   3.904  12.380   7.245 -2.1916  3.7715  3.3599
  878MOL0     H18490   3.582  12.239   7.291 -1.1901 -0.7947  0.3712
  878MOL0     H18491   3.397  12.087   7.250 -0.2804 -0.8552  0.4475
  878MOL0     H18492   3.158  11.739   7.415  0.8086  1.3193  2.2655
  878MOL0     H18493   2.967  11.560   7.467 -1.1166 -2.5637 -1.9280
  878MOL0     H18494   2.915  11.411   7.672  0.6746 -1.0687  0.5421
  878MOL0     H18495   2.840  11.391   7.515 -0.8482 -0.8909 -0.1265
  878MOL0     H18496   2.759  11.182   7.560 -1.8306 -0.8376  1.9127
  878MOL0     H18497   2.882  11.139   7.680 -1.3081 -0.9075 -1.5170
  878MOL0     H18498   2.772  11.296   7.839  4.6851  0.2825 -2.1202
  878MOL0     H18499   2.655  11.339   7.712  0.3947  0.9283  0.6239
  878MOL0     H18500   2.681  11.069   7.852 -1.3797 -2.7762 -0.9767
  878MOL0     H18501   2.585  11.090   7.702  3.3978 -2.2337  0.2156
  878MOL0     H18502   2.454  11.269   7.827  0.5901 -0.3204 -2.3537
  878MOL0     H18503   2.554  11.233   7.973  1.1539  0.7783 -1.9112
  878MOL0     H18504   2.392  11.027   7.816  1.0609 -3.2258  2.0338
  878MOL0     H18505   2.491  11.002   7.956  0.1813  0.7520  0.8061
  878MOL0     H18506   2.236  11.164   7.970  0.6780  0.4711  3.5431
  878MOL0     H18507   2.354  11.130   8.098  0.1408  0.5504  1.4618
  878MOL0     H18508   2.308  10.866   7.986  2.2165  0.4104  0.7026
  878MOL0     H18509   2.204  10.932   8.109 -0.7682 -3.2148 -1.3682
  878MOL0     H18510   3.285  11.290   7.544  1.8352  1.6888 -0.6880
  878MOL0     H18511   3.452  11.442   7.499  2.6997  2.6684 -3.4169
  878MOL0     H18512   3.670  11.775   7.395 -1.5827  0.2671  1.1483
  878MOL0     H18513   3.854  11.913   7.334  0.3783  0.5932 -0.1240
  878MOL0     H18514   3.020  11.009   7.349 -0.3519 -0.7202  0.7298
  878MOL0     H18515   2.810  10.962   7.466  1.8065  3.1617  0.9856
  878MOL0     H18516   2.417  10.998   7.513 -1.8063  4.0113 -1.3657
  878MOL0     H18517   2.204  10.954   7.648 -0.6124  0.2062 -0.2227
  878MOL0     H18518   1.990  10.590   7.705 -1.4516 -4.3586 -1.3084
  878MOL0     H18519   2.032  10.555   7.541 -2.5110 -0.5990 -0.7482
  878MOL0     H18520   1.824  10.682   7.462 -0.1833 -1.7881 -0.9066
  878MOL0     H18521   1.766  10.692   7.622  0.5164  3.5497 -2.3437
  878MOL0     H18522   1.671  10.499   7.467 -0.7819 -0.4974  1.5209
  878MOL0     H18523   1.719  10.457   7.619  0.0243 -0.3939 -0.8855
  878MOL0     H18524   1.912  10.360   7.539  0.4852  3.6024 -0.1652
  878MOL0     H18525   1.788  10.296   7.436  2.9274 -1.1796  0.7072
  878MOL0     H18526   2.015  10.447   7.138  0.6334 -4.3597 -0.5217
  878MOL0     H18527   2.078  10.675   7.354  2.7095 -1.9214 -3.4726
  878MOL0     H18528   2.349  10.733   7.097 -0.1669  3.9325  2.7089
  878MOL0     H18529   2.328  10.594   7.205 -0.0661 -0.1374  2.5637
  878MOL0     H18530   2.194  10.668   7.118  0.6880  3.0548 -2.0118
  879MOL0     O18531   6.638   5.208   7.934 -0.4044  0.2655  0.1570
  879MOL0     C18532   6.523   5.210   7.979  0.0586  0.1844  0.5866
  879MOL0     O18533   6.480   5.237   8.108  0.1248 -0.3636  1.0906
  879MOL0     C18534   6.572   5.266   8.204  0.6718 -0.7874 -0.5372
  879MOL0     C18535   6.566   5.396   8.259 -0.1207  0.7562 -0.6201
  879MOL0     C18536   6.658   5.441   8.350 -0.5919 -0.2221 -0.1112
  879MOL0     C18537   6.749   5.360   8.408 -0.5590  1.1703  0.1853
  879MOL0     O18538   6.838   5.408   8.498 -0.1687  0.3551 -0.4123
  879MOL0     C18539   6.798   5.422   8.636  0.3186 -0.7522  0.6863
  879MOL0     C18540   6.831   5.292   8.705 -0.8341  0.1735  0.0232
  879MOL0     C18541   6.836   5.304   8.848 -0.5827  0.9449  0.1852
  879MOL0     C18542   6.964   5.365   8.907  0.7053 -0.7705 -0.1772
  879MOL0     C18543   6.970   5.335   9.056  1.4590 -0.9150  0.2485
  879MOL0     C18544   7.101   5.373   9.101 -0.1136  0.0309 -0.5036
  879MOL0     C18545   7.133   5.378   9.256  0.0774  0.6348  0.2953
  879MOL0     C18546   7.083   5.511   9.315 -0.2719  0.6928 -0.4843
  879MOL0     N18547   7.195   5.560   9.403  0.7873 -1.3301  0.3116
  879MOL0     C18548   7.177   5.616   9.522 -0.5954  0.1129 -0.4455
  879MOL0     C18549   7.295   5.680   9.544  1.0749  0.6834  0.5441
  879MOL0     C18550   7.348   5.751   9.665  0.2761  0.8270 -0.1696
  879MOL0     C18551   7.496   5.719   9.691  0.0907 -0.2421  1.0152
  879MOL0     C18552   7.545   5.766   9.831  0.8036 -0.5793  0.3455
  879MOL0     C18553   7.695   5.745   9.861 -0.8025  0.1207 -0.2844
  879MOL0     O18554   7.725   5.788   9.992 -0.0272  0.4905  1.1880
  879MOL0     C18555   7.784   5.710  10.091  0.2277 -1.0670  0.1725
  879MOL0     C18556   7.843   5.768  10.196 -0.8130 -0.1956 -0.2063
  879MOL0     C18557   7.902   5.696  10.303  0.1040  1.5704  0.1859
  879MOL0     C18558   7.923   5.557  10.294 -0.5198  0.1347 -1.3038
  879MOL0     C18559   7.994   5.476  10.403 -0.2540  0.3332 -0.9260
  879MOL0     O18560   7.961   5.345  10.408 -0.0149  0.5447 -0.7358
  879MOL0     C18561   8.005   5.254  10.508 -1.4300  0.1436  0.2986
  879MOL0     C18562   7.954   5.127  10.508  0.2459  0.3679  0.1396
  879MOL0     C18563   7.991   5.039  10.607 -1.0928  0.1372  0.9797
  879MOL0     C18564   8.088   5.071  10.697 -0.8936 -0.6157 -0.6230
  879MOL0     O18565   8.140   4.977  10.788  0.1267 -0.0317 -1.2355
  879MOL0     C18566   8.141   4.838  10.751 -0.1650  0.1910 -0.0235
  879MOL0     C18567   8.225   4.754  10.846 -0.3575 -0.9613  0.4522
  879MOL0     C18568   8.369   4.747  10.800  0.1545 -0.8888 -0.7753
  879MOL0     C18569   8.442   4.884  10.821  0.2875  0.5739  0.5577
  879MOL0     C18570   8.463   4.940  10.961  0.4757 -0.0277  0.3009
  879MOL0     C18571   8.499   5.089  10.941  0.1300 -1.1629 -0.5691
  879MOL0     C18572   8.551   5.142  11.082 -0.4679 -0.6279  0.5708
  879MOL0     C18573   8.444   5.130  11.196  0.3100  0.0422  0.4439
  879MOL0    Cl18574   8.286   5.202  11.140  0.4119  0.0948  0.4404
  879MOL0     C18575   8.136   5.193  10.704 -0.9896  0.0360  0.1029
  879MOL0     C18576   8.096   5.283  10.609 -0.1588  1.1113  0.9533
  879MOL0     O18577   8.044   5.536  10.492  1.0629 -0.0842 -0.3373
  879MOL0     C18578   7.877   5.493  10.177  0.7617 -0.5120  0.1797
  879MOL0     C18579   7.804   5.571  10.081  0.1371 -0.7459 -0.0265
  879MOL0     N18580   7.373   5.679   9.429 -0.0580 -1.2184 -0.0414
  879MOL0     N18581   7.308   5.607   9.347  0.1651 -0.5635  0.3131
  879MOL0     C18582   6.764   5.231   8.352  0.3579 -0.0373 -0.0239
  879MOL0     C18583   6.679   5.183   8.251  0.0816  0.5000 -0.2651
  879MOL0     C18584   6.411   5.173   7.876 -0.6825 -0.1130  0.4667
  879MOL0     C18585   6.306   5.089   7.914 -0.5684  0.2437 -0.9839
  879MOL0     C18586   6.219   5.037   7.819  0.2479  0.2023 -0.7886
  879MOL0     C18587   6.232   5.065   7.688  0.7910 -0.0176 -0.2084
  879MOL0     O18588   6.152   5.018   7.585  0.8684  0.0897 -0.2856
  879MOL0     C18589   6.212   4.976   7.467  0.0792  0.6041  0.6210
  879MOL0     C18590   6.321   4.874   7.488  0.2972  0.0345  1.2550
  879MOL0     C18591   6.367   4.834   7.349 -0.9232 -0.4692 -0.5025
  879MOL0     C18592   6.462   4.712   7.326  0.4165  1.1968 -0.6321
  879MOL0     C18593   6.407   4.587   7.374  0.6520 -0.0723  0.6704
  879MOL0     C18594   6.357   4.497   7.427 -0.6969 -0.4555  0.0559
  879MOL0     C18595   6.322   5.165   7.659  0.3572 -0.7681 -1.0544
  879MOL0     C18596   6.416   5.214   7.745 -0.0814  0.4106 -0.4081
  879MOL0     C18597   6.519   5.312   7.687 -0.2028 -0.4542  0.0466
  879MOL0     H18598   6.492   5.457   8.208  1.1320  1.8747 -1.1299
  879MOL0     H18599   6.661   5.546   8.377 -1.4302 -0.2506  0.1081
  879MOL0     H18600   6.858   5.510   8.662  2.6393 -1.4604 -1.9410
  879MOL0     H18601   6.691   5.440   8.653  0.7629  2.2753  0.9142
  879MOL0     H18602   6.919   5.240   8.668 -2.1682 -1.9538 -0.3604
  879MOL0     H18603   6.744   5.227   8.689 -2.1829  1.2756  2.3169
  879MOL0     H18604   6.822   5.203   8.888  0.5492  0.9297  0.5773
  879MOL0     H18605   6.751   5.365   8.880 -0.8719  0.0699  1.1345
  879MOL0     H18606   7.048   5.315   8.859  3.3825  1.0055  2.3243
  879MOL0     H18607   6.971   5.470   8.878  4.0958 -0.6596  0.6363
  879MOL0     H18608   6.887   5.388   9.103  3.0319  0.0711  2.0635
  879MOL0     H18609   6.962   5.227   9.073  1.3115 -1.0997 -0.9188
  879MOL0     H18610   7.168   5.302   9.053  1.4332  0.8672  0.3634
  879MOL0     H18611   7.106   5.479   9.073 -3.1346  1.0988  2.3131
  879MOL0     H18612   7.242   5.367   9.267  0.1637 -0.3925 -1.2422
  879MOL0     H18613   7.095   5.286   9.302  0.8513  0.5953  0.8807
  879MOL0     H18614   7.057   5.594   9.249  1.3268  0.6375 -1.2435
  879MOL0     H18615   6.998   5.471   9.371  1.5492 -0.9706  1.2464
  879MOL0     H18616   7.087   5.607   9.582 -1.9382  1.3827 -2.1715
  879MOL0     H18617   7.334   5.856   9.638  1.6983  0.5633 -2.1648
  879MOL0     H18618   7.282   5.736   9.751 -0.6430  2.6424 -0.5178
  879MOL0     H18619   7.529   5.616   9.673 -1.2984 -0.5096 -0.1578
  879MOL0     H18620   7.546   5.778   9.614 -3.7952  0.7039 -1.0324
  879MOL0     H18621   7.499   5.710   9.913 -0.1469 -0.6693 -0.2420
  879MOL0     H18622   7.519   5.870   9.851  3.3715  0.0570  0.7630
  879MOL0     H18623   7.747   5.792   9.777 -1.2381 -1.2843 -1.3846
  879MOL0     H18624   7.720   5.640   9.847 -0.8362  0.2169 -1.0916
  879MOL0     H18625   7.819   5.874  10.198 -2.9365 -0.6426 -0.3775
  879MOL0     H18626   7.930   5.741  10.398  1.1829 -0.0680  0.6715
  879MOL0     H18627   7.898   5.093  10.422  0.7433 -0.2141  0.0360
  879MOL0     H18628   7.935   4.947  10.625  1.0665 -0.8888  3.0195
  879MOL0     H18629   8.038   4.802  10.763  0.0949 -2.0731 -3.3229
  879MOL0     H18630   8.182   4.828  10.650  0.7761  0.9709  0.2666
  879MOL0     H18631   8.206   4.785  10.949  0.7415  1.2501  0.0253
  879MOL0     H18632   8.188   4.651  10.836 -0.0097 -0.9831 -0.7438
  879MOL0     H18633   8.419   4.672  10.861  0.5508 -0.8587 -1.0604
  879MOL0     H18634   8.361   4.726  10.693 -0.9118 -2.2102 -0.4663
  879MOL0     H18635   8.393   4.965  10.766  0.7658  1.0278  0.7926
  879MOL0     H18636   8.533   4.866  10.763 -2.0691 -0.4494 -3.1784
  879MOL0     H18637   8.541   4.886  11.015  0.6257 -0.7306 -0.5980
  879MOL0     H18638   8.368   4.928  11.013  1.0687 -3.3146  0.8136
  879MOL0     H18639   8.581   5.092  10.868  1.0143 -1.5565  0.3938
  879MOL0     H18640   8.419   5.153  10.902  2.2633  2.2333  0.1853
  879MOL0     H18641   8.595   5.241  11.071 -0.8941 -0.3157  1.5214
  879MOL0     H18642   8.636   5.077  11.103  1.6699  1.0781 -2.2033
  879MOL0     H18643   8.429   5.027  11.227 -1.0838  0.2742  0.5885
  879MOL0     H18644   8.484   5.189  11.279 -0.9463  0.4108  0.8057
  879MOL0     H18645   8.211   5.220  10.778 -0.1770 -4.6810  1.3178
  879MOL0     H18646   8.154   5.374  10.601  2.6828 -0.6897 -1.7129
  879MOL0     H18647   7.895   5.387  10.164  1.0850 -0.7611  2.2742
  879MOL0     H18648   7.777   5.517   9.991 -2.0213  0.5199 -0.1997
  879MOL0     H18649   6.834   5.155   8.385  1.2338  1.0258  0.6537
  879MOL0     H18650   6.682   5.080   8.216 -1.5420  0.5152 -0.5301
  879MOL0     H18651   6.307   5.050   8.016  0.5479  1.4510 -0.5088
  879MOL0     H18652   6.140   4.964   7.833  1.6340 -1.5977 -1.8377
  879MOL0     H18653   6.255   5.058   7.408  1.4316 -0.9376 -0.6244
  879MOL0     H18654   6.140   4.930   7.398  3.9478 -1.0895 -2.7304
  879MOL0     H18655   6.276   4.784   7.531  0.0967  0.1629  1.3111
  879MOL0     H18656   6.399   4.908   7.556 -0.5930  0.9739  1.8319
  879MOL0     H18657   6.417   4.916   7.298  1.1623 -1.0449  0.5403
  879MOL0     H18658   6.275   4.816   7.292 -2.2297  1.0831  1.0128
  879MOL0     H18659   6.485   4.689   7.222 -0.5806 -1.4183 -0.3675
  879MOL0     H18660   6.559   4.738   7.370  0.3719 -0.7150  0.7207
  879MOL0     H18661   6.308   4.415   7.476  0.0781 -0.5361  0.7275
  879MOL0     H18662   6.321   5.207   7.559  0.7833  2.3375  0.1259
  879MOL0     H18663   6.614   5.282   7.641  0.9896  3.5076 -0.4819
  879MOL0     H18664   6.464   5.368   7.611  1.3016 -0.3379 -1.0196
  879MOL0     H18665   6.562   5.379   7.763 -1.3831  2.4126 -1.6457
  880MOL0     O18666   7.266   8.831   2.107 -0.2684  0.2353 -0.2488
  880MOL0     C18667   7.301   8.891   2.005  0.5944  0.6685  0.2497
  880MOL0     O18668   7.427   8.896   1.955 -0.1196  0.5234  1.0899
  880MOL0     C18669   7.526   8.825   2.016  0.6645 -0.0185 -0.2745
  880MOL0     C18670   7.561   8.832   2.151 -0.0249 -0.4133 -0.1023
  880MOL0     C18671   7.681   8.785   2.194  0.0888 -1.1546  0.4443
  880MOL0     C18672   7.768   8.722   2.107 -0.3883  0.9315 -0.4801
  880MOL0     O18673   7.890   8.683   2.165 -0.2317  0.0507 -0.3088
  880MOL0     C18674   7.962   8.577   2.097  0.9740  0.2923  0.1202
  880MOL0     C18675   8.073   8.531   2.180  0.0050  0.6999  0.1206
  880MOL0     C18676   8.146   8.412   2.128 -0.1863 -0.3085 -0.0288
  880MOL0     C18677   8.195   8.323   2.245 -0.4899  0.3816 -0.2906
  880MOL0     C18678   8.252   8.185   2.193 -0.3832  0.4735 -1.0833
  880MOL0     C18679   8.357   8.126   2.293 -0.2989  0.9325  0.0013
  880MOL0     C18680   8.286   8.088   2.427  0.0468 -0.9540  0.6391
  880MOL0     C18681   8.196   7.968   2.420  0.4676 -0.1682  0.7690
  880MOL0     N18682   8.116   7.966   2.544 -0.4455  0.6023 -1.2337
  880MOL0     C18683   8.156   8.031   2.664  0.5126  0.9371 -0.0111
  880MOL0     C18684   8.068   7.968   2.752  0.6978 -0.2075  0.9720
  880MOL0     C18685   8.058   8.007   2.894  0.8428  1.0259  0.6508
  880MOL0     C18686   7.926   8.033   2.957 -0.0329 -0.2036  0.6487
  880MOL0     C18687   7.857   8.149   2.884  0.3272  0.1452  0.0028
  880MOL0     C18688   7.753   8.207   2.983 -0.5796 -0.2180  0.3727
  880MOL0     O18689   7.820   8.285   3.082  0.4498 -0.5684  0.6910
  880MOL0     C18690   7.736   8.352   3.172  0.4145 -0.3841 -0.1377
  880MOL0     C18691   7.810   8.424   3.272  1.0851 -0.3352  0.2920
  880MOL0     C18692   7.744   8.487   3.376  0.2308  0.5123 -0.5957
  880MOL0     C18693   7.608   8.475   3.404  0.1999 -0.7341  1.3046
  880MOL0     C18694   7.534   8.507   3.529  0.0210 -0.6617  1.3814
  880MOL0     O18695   7.402   8.499   3.528 -0.2816 -0.9176  0.9633
  880MOL0     C18696   7.329   8.540   3.634  0.1082 -0.2382 -1.5473
  880MOL0     C18697   7.201   8.483   3.643  0.4822  1.2734 -0.2687
  880MOL0     C18698   7.109   8.495   3.752 -0.1554  0.1285  0.2693
  880MOL0     C18699   7.140   8.569   3.858 -0.5554 -0.8144  0.0693
  880MOL0     O18700   7.052   8.582   3.963  0.1037 -0.3226 -0.5735
  880MOL0     C18701   7.097   8.600   4.101  0.4119  0.5401  0.3667
  880MOL0     C18702   7.138   8.466   4.153  0.0480  0.8062 -1.3240
  880MOL0     C18703   7.230   8.479   4.287  0.8465 -0.5148  0.6251
  880MOL0     C18704   7.220   8.362   4.391 -0.0354  0.2134  0.4991
  880MOL0     C18705   7.314   8.242   4.353  0.5577 -0.0539  0.0028
  880MOL0     C18706   7.344   8.166   4.483  0.6162 -0.5154 -0.2992
  880MOL0     C18707   7.224   8.074   4.523  0.1255 -0.1355  0.0644
  880MOL0     C18708   7.265   7.926   4.549  0.9635 -0.7330  0.7825
  880MOL0    Cl18709   7.324   7.858   4.391 -0.7028  0.3265  0.1480
  880MOL0     C18710   7.251   8.645   3.855 -0.3992 -0.2135  0.4413
  880MOL0     C18711   7.345   8.633   3.745 -0.4229 -0.1031  0.4304
  880MOL0     O18712   7.608   8.548   3.620  0.4112 -0.9501  0.1470
  880MOL0     C18713   7.536   8.412   3.303 -0.6516  0.4727  0.4711
  880MOL0     C18714   7.595   8.349   3.187  0.0240  0.1165  0.1593
  880MOL0     N18715   7.982   7.872   2.697 -1.0871 -0.1033 -0.1227
  880MOL0     N18716   8.005   7.877   2.570  1.3545  0.1366 -0.3756
  880MOL0     C18717   7.719   8.686   1.983  0.2734  0.5128 -0.1805
  880MOL0     C18718   7.602   8.741   1.934  1.1499 -0.2917  0.3969
  880MOL0     C18719   7.204   8.964   1.922  0.1191  0.9263 -0.7990
  880MOL0     C18720   7.242   8.981   1.785 -0.0043  0.3746  0.3903
  880MOL0     C18721   7.175   9.059   1.693  0.4471  0.7059  0.7785
  880MOL0     C18722   7.052   9.092   1.716  0.7472  0.3309 -0.5649
  880MOL0     O18723   6.986   9.164   1.620  0.2467 -0.4613 -0.3112
  880MOL0     C18724   6.845   9.195   1.638  0.4321  0.0030 -0.9114
  880MOL0     C18725   6.788   9.314   1.557 -0.4137  0.4525  0.5944
  880MOL0     C18726   6.767   9.270   1.407 -0.0198  0.8870 -0.1897
  880MOL0     C18727   6.703   9.376   1.331 -0.0978  0.1008  0.0038
  880MOL0     C18728   6.555   9.374   1.369 -0.6583 -0.1363  0.3757
  880MOL0     C18729   6.443   9.361   1.409 -0.1068 -0.4590 -0.0683
  880MOL0     C18730   6.999   9.067   1.844  0.3224  0.0534 -0.3976
  880MOL0     C18731   7.075   9.022   1.952 -0.4805  0.5929  0.0883
  880MOL0     C18732   7.023   9.031   2.086 -0.4078 -0.2317  0.3306
  880MOL0     H18733   7.497   8.888   2.219  1.1836 -0.8923  1.4980
  880MOL0     H18734   7.707   8.789   2.299 -0.5254 -1.3083  0.6082
  880MOL0     H18735   7.899   8.490   2.076  2.2971 -1.4418  2.8320
  880MOL0     H18736   8.006   8.617   2.005  2.2736 -2.5913 -0.6488
  880MOL0     H18737   8.034   8.502   2.278 -0.7094  0.0706 -0.3391
  880MOL0     H18738   8.143   8.614   2.195  1.4706 -0.6255  0.9168
  880MOL0     H18739   8.236   8.447   2.078 -1.2447  1.7330 -0.6226
  880MOL0     H18740   8.075   8.356   2.067  0.6413 -0.8547 -0.5152
  880MOL0     H18741   8.272   8.379   2.300 -1.1959  0.8896  0.1952
  880MOL0     H18742   8.111   8.295   2.309 -0.5207 -0.8489 -0.8527
  880MOL0     H18743   8.168   8.117   2.177  0.2740 -0.7003  0.2135
  880MOL0     H18744   8.302   8.215   2.100 -1.7180  2.0687 -1.3359
  880MOL0     H18745   8.399   8.035   2.250 -2.0682  1.0526 -2.1332
  880MOL0     H18746   8.443   8.191   2.312 -1.8725  2.8265  1.1781
  880MOL0     H18747   8.219   8.171   2.451  0.2277  0.5851 -3.4662
  880MOL0     H18748   8.357   8.060   2.505  0.6554  0.2541  0.5379
  880MOL0     H18749   8.124   7.977   2.337  1.7154 -3.8618 -0.9473
  880MOL0     H18750   8.243   7.869   2.412 -0.2395 -0.6030  1.7305
  880MOL0     H18751   8.240   8.099   2.673  2.6791 -1.8711  3.5999
  880MOL0     H18752   8.104   7.924   2.948  1.3994  2.6057  2.7587
  880MOL0     H18753   8.105   8.104   2.912  0.6878  1.6142 -1.8587
  880MOL0     H18754   7.858   7.950   2.937 -1.9698  1.4616 -0.0072
  880MOL0     H18755   7.946   8.039   3.065  2.0976 -1.4863  0.3886
  880MOL0     H18756   7.812   8.118   2.789  0.8135  0.3774 -0.3094
  880MOL0     H18757   7.924   8.235   2.878 -1.7265  1.8513 -6.5460
  880MOL0     H18758   7.685   8.135   3.030  1.7170 -1.1413  2.5651
  880MOL0     H18759   7.688   8.278   2.932 -1.1860  0.3853  1.9060
  880MOL0     H18760   7.917   8.408   3.268  1.3367 -0.4164 -6.8666
  880MOL0     H18761   7.807   8.520   3.459  1.1865 -5.6310  1.6104
  880MOL0     H18762   7.162   8.456   3.545 -1.4386  3.5255 -0.2336
  880MOL0     H18763   7.012   8.449   3.733  0.4057 -0.1698 -2.2027
  880MOL0     H18764   7.187   8.662   4.103  0.9934 -0.2331 -0.5839
  880MOL0     H18765   7.012   8.642   4.156 -0.7105 -0.7329 -0.3085
  880MOL0     H18766   7.058   8.392   4.165  0.0206  0.5621 -2.8765
  880MOL0     H18767   7.204   8.414   4.084  1.2260 -0.5238  0.7122
  880MOL0     H18768   7.333   8.489   4.250 -0.3687  2.3373 -2.5415
  880MOL0     H18769   7.195   8.573   4.330  1.1079 -0.1973  0.1529
  880MOL0     H18770   7.117   8.326   4.397 -0.0604  0.0449 -0.6768
  880MOL0     H18771   7.251   8.407   4.485 -4.0495  2.4799  0.9716
  880MOL0     H18772   7.403   8.286   4.306  1.8153  0.1884  2.4318
  880MOL0     H18773   7.273   8.182   4.271 -0.6031  0.1392  0.4338
  880MOL0     H18774   7.435   8.106   4.476  2.2017  1.2833  2.6827
  880MOL0     H18775   7.368   8.237   4.563  1.8959 -2.0106  0.7127
  880MOL0     H18776   7.147   8.079   4.445  0.3923  3.1873 -0.1276
  880MOL0     H18777   7.173   8.117   4.610  0.3018  3.0237 -1.2900
  880MOL0     H18778   7.343   7.934   4.626  1.4755  0.5237  0.1730
  880MOL0     H18779   7.178   7.865   4.575  0.7977 -0.4035  1.0015
  880MOL0     H18780   7.282   8.727   3.919 -0.1410  0.7400 -0.8735
  880MOL0     H18781   7.437   8.689   3.740  0.8432 -2.1292 -0.5279
  880MOL0     H18782   7.428   8.406   3.313 -1.0230  0.8991 -2.3179
  880MOL0     H18783   7.528   8.303   3.115 -0.9316  3.7946 -1.5482
  880MOL0     H18784   7.786   8.631   1.918 -1.0052  2.4622 -3.3682
  880MOL0     H18785   7.582   8.731   1.827  0.9432  0.1323  0.3961
  880MOL0     H18786   7.322   8.931   1.730  1.8945  1.2815  2.1877
  880MOL0     H18787   7.225   9.074   1.598  0.2044 -0.1244  0.5147
  880MOL0     H18788   6.834   9.231   1.741  1.9405 -1.4595 -0.1888
  880MOL0     H18789   6.779   9.109   1.626  1.2079 -1.4395  3.2942
  880MOL0     H18790   6.858   9.395   1.578 -0.4633  1.0452 -1.3932
  880MOL0     H18791   6.690   9.340   1.598 -1.0961 -1.8397  0.5410
  880MOL0     H18792   6.719   9.172   1.403  0.0716  0.5164  3.6900
  880MOL0     H18793   6.861   9.254   1.354 -0.8185 -0.1187 -1.3595
  880MOL0     H18794   6.751   9.471   1.356 -1.4197  0.5532  0.9093
  880MOL0     H18795   6.729   9.360   1.226  2.6387  0.9297  0.4754
  880MOL0     H18796   6.343   9.362   1.447 -0.4577 -0.3567 -0.9613
  880MOL0     H18797   6.896   9.079   1.875  0.0760 -3.4241  0.5358
  880MOL0     H18798   6.983   8.931   2.107 -0.2705 -0.3792 -0.0919
  880MOL0     H18799   7.097   9.040   2.166 -0.1427  0.3362  0.0277
  880MOL0     H18800   6.949   9.109   2.100  0.0512 -0.1187  2.4481
  881MOL0     O18801   3.621   6.228   3.224  0.3588  0.0021 -0.4791
  881MOL0     C18802   3.743   6.243   3.205  0.9242  0.4029 -1.0441
  881MOL0     O18803   3.843   6.144   3.213 -0.2164 -0.4506 -0.7989
  881MOL0     C18804   3.827   6.011   3.155 -0.0869 -0.9418  0.7440
  881MOL0     C18805   3.924   5.908   3.170 -0.1919  0.2421 -0.1458
  881MOL0     C18806   3.929   5.797   3.088  0.8208 -0.0284  0.1654
  881MOL0     C18807   3.834   5.780   2.987  0.7727 -0.3333 -0.3555
  881MOL0     O18808   3.839   5.665   2.918  0.6482 -0.1649  0.5181
  881MOL0     C18809   3.765   5.650   2.794 -0.6700  0.2298  0.4211
  881MOL0     C18810   3.826   5.539   2.715 -0.5752 -0.1789  0.4942
  881MOL0     C18811   3.975   5.572   2.680  0.9087 -0.1601 -0.2773
  881MOL0     C18812   4.016   5.490   2.557  0.4198 -0.0320 -0.0396
  881MOL0     C18813   4.150   5.417   2.585 -0.1073 -0.4092  0.3146
  881MOL0     C18814   4.264   5.509   2.565  0.2156 -0.6826 -1.1209
  881MOL0     C18815   4.390   5.432   2.605 -0.7684  0.1406 -0.5024
  881MOL0     C18816   4.509   5.521   2.599 -0.1310 -0.2401  0.0424
  881MOL0     N18817   4.507   5.619   2.706  0.0581 -0.1454 -0.2854
  881MOL0     C18818   4.574   5.614   2.827 -0.2468  0.2019  0.1026
  881MOL0     C18819   4.567   5.735   2.876  0.0914 -1.2628  0.4631
  881MOL0     C18820   4.641   5.800   2.992  0.0319 -0.6379  0.5902
  881MOL0     C18821   4.720   5.709   3.083  0.3381 -0.1881 -0.0298
  881MOL0     C18822   4.854   5.677   3.024  0.0040  0.0186 -0.5234
  881MOL0     C18823   4.904   5.535   3.038 -0.0356  0.0443  0.9177
  881MOL0     O18824   4.834   5.447   2.945  0.0914  0.3748  0.2386
  881MOL0     C18825   4.853   5.311   2.957 -0.1585  0.5867 -0.2867
  881MOL0     C18826   4.951   5.261   3.046 -0.6385  0.4943  0.1062
  881MOL0     C18827   4.982   5.118   3.043  0.8257 -0.1077 -0.3972
  881MOL0     C18828   4.893   5.033   2.994 -0.1618  0.4271  0.7574
  881MOL0     C18829   4.910   4.893   3.013  0.5362  0.0007 -0.6640
  881MOL0     O18830   4.996   4.847   3.112 -0.2674 -0.0133  0.3073
  881MOL0     C18831   5.025   4.711   3.102 -0.8154  0.0905 -0.0447
  881MOL0     C18832   5.144   4.655   3.061  0.2159 -0.1305 -0.5797
  881MOL0     C18833   5.172   4.515   3.051  0.3743 -0.1976  0.0191
  881MOL0     C18834   5.074   4.431   3.100  0.4552 -0.5337 -0.0986
  881MOL0     O18835   5.093   4.297   3.108 -0.1400 -0.0668 -0.5845
  881MOL0     C18836   5.015   4.205   3.173  0.3106  0.3156 -0.4290
  881MOL0     C18837   4.910   4.141   3.070  0.0822  0.3001 -0.1152
  881MOL0     C18838   4.969   4.065   2.952 -0.1855 -0.6799  0.5609
  881MOL0     C18839   5.046   3.949   2.998 -0.8380 -0.1904 -0.7649
  881MOL0     C18840   4.962   3.856   3.078  0.5098  0.7107 -0.1812
  881MOL0     C18841   5.025   3.721   3.088 -0.2484  0.6223  0.4797
  881MOL0     C18842   4.978   3.616   3.187 -0.2192  0.1049 -1.1378
  881MOL0     C18843   4.831   3.581   3.165 -0.4565  1.2772  0.9366
  881MOL0    Cl18844   4.746   3.661   3.309  0.4060 -0.2826  0.2723
  881MOL0     C18845   4.946   4.484   3.128  0.5183  0.2054 -0.2535
  881MOL0     C18846   4.924   4.621   3.130 -0.7272  0.1324 -0.1031
  881MOL0     O18847   4.847   4.822   2.933  0.4600  0.1359  0.1295
  881MOL0     C18848   4.802   5.078   2.890 -0.2372 -0.0787  0.1913
  881MOL0     C18849   4.787   5.215   2.868 -0.2818  0.1591 -0.6940
  881MOL0     N18850   4.491   5.806   2.792 -0.2898 -0.2538 -0.8253
  881MOL0     N18851   4.441   5.736   2.696 -0.8512 -0.2136 -0.1372
  881MOL0     C18852   3.735   5.879   2.967 -0.0983 -0.0374  0.5307
  881MOL0     C18853   3.733   5.989   3.050  0.3366  0.2465  0.2275
  881MOL0     C18854   3.792   6.381   3.213  0.7236  0.2751  1.2359
  881MOL0     C18855   3.745   6.477   3.309 -0.4981 -0.3984  0.2055
  881MOL0     C18856   3.805   6.604   3.327  0.1400  0.1868 -0.1020
  881MOL0     C18857   3.897   6.648   3.236 -0.4785  0.1261 -0.1478
  881MOL0     O18858   3.948   6.773   3.229  0.6193 -1.2214  0.1870
  881MOL0     C18859   3.950   6.859   3.350 -0.3758 -0.3263  0.2872
  881MOL0     C18860   4.007   6.792   3.472 -0.0046  0.1290  0.3909
  881MOL0     C18861   3.939   6.853   3.600  0.3900 -0.1979 -0.2790
  881MOL0     C18862   4.031   6.960   3.660  0.5620  1.2746 -0.3050
  881MOL0     C18863   4.057   7.072   3.565  0.1764  0.1679  0.3220
  881MOL0     C18864   4.096   7.175   3.505 -0.5714  0.4853 -0.4668
  881MOL0     C18865   3.945   6.559   3.148 -0.7264 -0.0574  0.0234
  881MOL0     C18866   3.897   6.433   3.129  0.4061 -0.3488  0.1886
  881MOL0     C18867   3.958   6.355   3.015  0.7269 -0.8105 -0.4918
  881MOL0     H18868   4.003   5.933   3.241  1.6275 -1.7914 -1.3098
  881MOL0     H18869   4.003   5.718   3.100  2.5931  0.8606 -3.5240
  881MOL0     H18870   3.657   5.641   2.809 -1.0168  1.2911 -1.1368
  881MOL0     H18871   3.767   5.741   2.733 -0.3218  1.8720  2.7570
  881MOL0     H18872   3.763   5.525   2.626 -0.4919  0.1331  0.3863
  881MOL0     H18873   3.834   5.453   2.783  2.6042 -1.1356 -0.8868
  881MOL0     H18874   4.046   5.572   2.764  1.1961 -1.6002 -0.4957
  881MOL0     H18875   3.978   5.674   2.639 -0.9627 -1.2469 -3.5015
  881MOL0     H18876   3.940   5.415   2.531 -0.0066  0.3748  0.0330
  881MOL0     H18877   4.036   5.553   2.470  2.5349 -1.1363 -0.4279
  881MOL0     H18878   4.147   5.390   2.691 -3.9369  2.0888  1.0704
  881MOL0     H18879   4.161   5.321   2.534  1.1379  0.0850 -0.3783
  881MOL0     H18880   4.257   5.555   2.466 -3.9253 -0.8783 -1.0724
  881MOL0     H18881   4.260   5.589   2.640 -0.4799 -0.0063 -1.8606
  881MOL0     H18882   4.407   5.348   2.537 -2.6366  1.1530 -2.3337
  881MOL0     H18883   4.382   5.404   2.710  0.9362 -0.7231 -0.5703
  881MOL0     H18884   4.598   5.462   2.622  0.6757  0.0550 -2.1364
  881MOL0     H18885   4.529   5.559   2.498  2.4158 -1.9837 -0.1980
  881MOL0     H18886   4.629   5.532   2.871  1.0864  1.0388  0.0549
  881MOL0     H18887   4.690   5.886   2.946 -2.0160 -0.1673 -0.8974
  881MOL0     H18888   4.561   5.853   3.044 -0.9359  0.7682 -2.1140
  881MOL0     H18889   4.726   5.766   3.176  1.2272 -1.6612  0.8525
  881MOL0     H18890   4.671   5.616   3.115 -0.2523  0.7745  2.0996
  881MOL0     H18891   4.922   5.744   3.079 -1.3699  0.1412  1.1283
  881MOL0     H18892   4.858   5.712   2.921 -1.2887  1.0163 -0.2540
  881MOL0     H18893   4.874   5.493   3.134 -3.6307 -1.8262 -0.8292
  881MOL0     H18894   5.012   5.532   3.019 -0.4773  0.7070 -2.4729
  881MOL0     H18895   5.027   5.323   3.092 -2.1383  0.4156  2.9055
  881MOL0     H18896   5.061   5.090   3.112 -1.0991  2.7666  3.4244
  881MOL0     H18897   5.225   4.721   3.034 -0.1752  1.3313  1.6149
  881MOL0     H18898   5.269   4.475   3.020  0.4960  0.2010 -0.1129
  881MOL0     H18899   5.087   4.137   3.219  0.3138  0.0842 -0.7793
  881MOL0     H18900   4.964   4.244   3.262 -0.5591  1.7939 -1.5299
  881MOL0     H18901   4.844   4.077   3.129  2.9349 -2.0985  0.6879
  881MOL0     H18902   4.842   4.218   3.032 -0.3653  0.6108  1.2421
  881MOL0     H18903   4.878   4.033   2.901 -0.7353 -1.9847  2.2742
  881MOL0     H18904   5.023   4.139   2.891 -1.5261 -1.5244 -1.7764
  881MOL0     H18905   5.127   3.985   3.061  0.6084  2.6019 -3.9080
  881MOL0     H18906   5.095   3.900   2.914 -1.8004 -2.0809 -0.2800
  881MOL0     H18907   4.869   3.847   3.021  0.8561 -2.4371 -0.3994
  881MOL0     H18908   4.936   3.892   3.178  1.0150 -0.0957  0.2394
  881MOL0     H18909   5.014   3.681   2.986 -0.3008 -0.8445  1.0274
  881MOL0     H18910   5.129   3.740   3.116  0.1029 -2.0896  1.3836
  881MOL0     H18911   4.990   3.664   3.284 -2.5305 -0.4550 -0.5196
  881MOL0     H18912   5.041   3.526   3.194  0.8457  0.8457 -0.9218
  881MOL0     H18913   4.799   3.621   3.069  3.0394  1.8891 -0.1215
  881MOL0     H18914   4.823   3.472   3.162  2.2115  1.0268  0.4282
  881MOL0     H18915   4.873   4.414   3.167  0.1928 -0.1146 -1.3907
  881MOL0     H18916   4.828   4.660   3.163 -1.0627  0.2328 -1.1713
  881MOL0     H18917   4.741   5.010   2.831 -1.2788  0.3290  0.7747
  881MOL0     H18918   4.711   5.249   2.799 -0.6533  2.7795  0.8905
  881MOL0     H18919   3.657   5.854   2.895  1.7511 -3.2961 -0.5209
  881MOL0     H18920   3.656   6.058   3.018 -0.1589  0.3688  1.6346
  881MOL0     H18921   3.661   6.443   3.368 -1.0097  2.4173  1.2593
  881MOL0     H18922   3.750   6.667   3.396  0.6515  0.1157  0.3763
  881MOL0     H18923   3.847   6.888   3.372 -0.6846  1.2495 -2.6254
  881MOL0     H18924   4.003   6.954   3.336 -0.3812 -0.6933 -3.1160
  881MOL0     H18925   4.116   6.807   3.477 -0.0401  1.0728 -1.1403
  881MOL0     H18926   3.985   6.686   3.485 -0.9449  0.4125  1.2318
  881MOL0     H18927   3.927   6.769   3.670  2.4632 -1.2086 -1.0716
  881MOL0     H18928   3.837   6.890   3.583 -1.2376 -4.3105 -0.6792
  881MOL0     H18929   3.973   7.016   3.734 -0.8800  0.1716 -0.5498
  881MOL0     H18930   4.108   6.903   3.712 -2.0873 -1.7711  0.6181
  881MOL0     H18931   4.123   7.265   3.454  0.1696  1.2214  1.1680
  881MOL0     H18932   4.017   6.591   3.074 -1.5893  1.6339 -0.1353
  881MOL0     H18933   3.965   6.422   2.928 -2.9143  2.4498  1.3840
  881MOL0     H18934   4.059   6.332   3.050  0.7444  1.9369  1.6201
  881MOL0     H18935   3.911   6.260   2.990  0.4046 -0.4773 -1.1780
  882MOL0     O18936   8.149   3.892   3.165  0.0861 -0.5740  0.1559
  882MOL0     C18937   8.071   3.795   3.182 -0.1443  0.2024  0.6715
  882MOL0     O18938   7.978   3.782   3.286 -0.4249 -0.4724  0.2434
  882MOL0     C18939   7.990   3.885   3.372 -0.3318 -0.2843  0.3615
  882MOL0     C18940   7.898   3.991   3.372 -1.0451  0.4853  0.5524
  882MOL0     C18941   7.902   4.108   3.448  0.5681 -0.5478 -0.0557
  882MOL0     C18942   8.012   4.132   3.530 -0.3620  0.3022 -0.3426
  882MOL0     O18943   8.021   4.264   3.567  0.0693  0.9209  0.1103
  882MOL0     C18944   8.102   4.302   3.673  0.6719  0.6409 -0.2314
  882MOL0     C18945   8.062   4.235   3.811 -0.2033 -1.3261  0.0693
  882MOL0     C18946   8.068   4.342   3.922 -0.0195 -0.1787  0.3045
  882MOL0     C18947   7.935   4.423   3.918 -0.7595  1.0067  0.6134
  882MOL0     C18948   7.929   4.558   3.990 -1.0807 -0.3007 -0.4530
  882MOL0     C18949   7.780   4.609   3.986  0.8933 -0.4954 -0.4249
  882MOL0     C18950   7.764   4.725   4.083 -0.1865  0.1749 -1.2180
  882MOL0     C18951   7.633   4.811   4.078  0.1159 -0.2598 -0.2085
  882MOL0     N18952   7.513   4.732   4.058  0.0296  0.3827  0.9203
  882MOL0     C18953   7.430   4.698   4.164  0.3485 -1.1579  0.9388
  882MOL0     C18954   7.315   4.655   4.099  0.5508 -1.2374  0.2157
  882MOL0     C18955   7.183   4.606   4.158 -0.7222 -0.3875  0.2836
  882MOL0     C18956   7.081   4.717   4.184 -1.1202 -1.5727  0.3794
  882MOL0     C18957   6.953   4.640   4.219  0.2998 -0.1104  0.0818
  882MOL0     C18958   6.877   4.586   4.097 -0.1084 -0.1260  0.1860
  882MOL0     O18959   6.882   4.439   4.074 -0.5475  0.1648  0.7552
  882MOL0     C18960   6.779   4.357   4.093  0.5941  0.5124 -0.4205
  882MOL0     C18961   6.655   4.386   4.158 -1.1202 -0.8126  0.8280
  882MOL0     C18962   6.557   4.293   4.184 -0.4508 -0.2335 -0.4709
  882MOL0     C18963   6.574   4.167   4.146 -0.1322  1.8468 -0.3908
  882MOL0     C18964   6.474   4.064   4.169 -0.6324 -0.4824 -0.2883
  882MOL0     O18965   6.526   3.937   4.195  0.1638 -0.6219  0.5125
  882MOL0     C18966   6.439   3.835   4.241  0.3510  0.0332 -0.2199
  882MOL0     C18967   6.307   3.851   4.298 -0.1345  0.1926  0.4129
  882MOL0     C18968   6.237   3.745   4.350  0.4260  0.2672 -1.2896
  882MOL0     C18969   6.285   3.612   4.347  0.2321  0.2434  0.5877
  882MOL0     O18970   6.214   3.504   4.402 -1.3093  0.1990 -0.3863
  882MOL0     C18971   6.142   3.415   4.315  0.2486  0.0828 -0.4829
  882MOL0     C18972   6.091   3.285   4.393  1.3870 -0.8622 -0.2329
  882MOL0     C18973   6.197   3.188   4.441 -0.3615 -1.1298  0.2997
  882MOL0     C18974   6.125   3.066   4.505 -0.9363  0.0566 -0.2553
  882MOL0     C18975   6.218   2.986   4.606 -0.9289 -0.0393  1.0546
  882MOL0     C18976   6.143   2.861   4.652  1.2752  0.4556 -0.3786
  882MOL0     C18977   6.223   2.801   4.760  0.7765 -0.1428 -1.0196
  882MOL0     C18978   6.184   2.663   4.799  0.4163 -0.9826  0.1662
  882MOL0    Cl18979   6.024   2.657   4.882  0.2232  0.4350 -0.0169
  882MOL0     C18980   6.411   3.601   4.279 -1.3627  0.2992  0.0281
  882MOL0     C18981   6.485   3.703   4.228 -0.1624 -0.6419 -0.2421
  882MOL0     O18982   6.360   4.101   4.158  0.1905  0.7952  0.4153
  882MOL0     C18983   6.688   4.127   4.078 -0.3287  0.8442 -1.0569
  882MOL0     C18984   6.785   4.222   4.055 -1.3385 -0.7253  0.7169
  882MOL0     N18985   7.329   4.663   3.966 -0.7189 -0.0476 -0.2698
  882MOL0     N18986   7.447   4.698   3.939 -0.2000 -0.2584 -0.9672
  882MOL0     C18987   8.099   4.016   3.551  0.0714  0.9085 -0.0617
  882MOL0     C18988   8.085   3.900   3.473  0.2994  0.9216 -0.1341
  882MOL0     C18989   8.068   3.680   3.079 -0.3658 -0.4818  0.0680
  882MOL0     C18990   7.982   3.574   3.100  0.7729  0.5737 -0.4662
  882MOL0     C18991   7.990   3.461   3.027 -0.8290  0.2770 -0.2620
  882MOL0     C18992   8.090   3.439   2.930  0.4904  1.6077 -0.5510
  882MOL0     O18993   8.108   3.316   2.861 -0.1224  0.5212 -0.3551
  882MOL0     C18994   8.064   3.197   2.925  0.1318  0.0613 -0.1273
  882MOL0     C18995   8.103   3.083   2.839 -0.7935  0.8025 -0.3374
  882MOL0     C18996   8.250   3.039   2.864  0.1266 -0.3893 -0.2412
  882MOL0     C18997   8.311   2.999   2.736 -0.2859  0.6687  0.4569
  882MOL0     C18998   8.457   2.995   2.750 -0.2612 -0.0165 -0.0342
  882MOL0     C18999   8.576   2.978   2.719  0.2109  0.9257 -1.2585
  882MOL0     C19000   8.176   3.544   2.902  0.0962  0.6269 -0.2807
  882MOL0     C19001   8.172   3.662   2.976 -0.0622 -0.8044 -0.6816
  882MOL0     C19002   8.255   3.776   2.922 -0.1404 -0.7798 -0.4722
  882MOL0     H19003   7.815   3.965   3.307  0.2858 -5.1712  0.5455
  882MOL0     H19004   7.819   4.177   3.457  0.0385 -1.3728  1.9259
  882MOL0     H19005   8.204   4.273   3.646  0.6485  0.2176  0.1016
  882MOL0     H19006   8.111   4.411   3.673 -0.6098  0.7590 -0.9384
  882MOL0     H19007   8.141   4.165   3.837  2.4096  1.2237 -0.4482
  882MOL0     H19008   7.960   4.198   3.802 -0.3990 -1.4715  2.3316
  882MOL0     H19009   8.143   4.421   3.915  0.3114 -0.5286 -0.1711
  882MOL0     H19010   8.081   4.286   4.015 -0.4484  1.0018  1.1010
  882MOL0     H19011   7.907   4.441   3.814 -0.1691 -0.5800  0.1552
  882MOL0     H19012   7.861   4.351   3.954  1.5851 -2.5068 -1.0563
  882MOL0     H19013   7.972   4.545   4.090  2.9367  0.5288 -1.9058
  882MOL0     H19014   8.002   4.620   3.937  0.3029 -0.4131  1.2471
  882MOL0     H19015   7.751   4.629   3.882  1.3630  1.1280 -0.2555
  882MOL0     H19016   7.713   4.527   4.016  1.8140 -1.6801 -1.4625
  882MOL0     H19017   7.853   4.788   4.075 -0.6018  0.7574 -1.3109
  882MOL0     H19018   7.769   4.686   4.184 -2.8386  2.5620 -0.0004
  882MOL0     H19019   7.623   4.865   4.172 -1.0805 -1.4168  0.3673
  882MOL0     H19020   7.637   4.881   3.994 -0.7802  0.6022  0.4574
  882MOL0     H19021   7.458   4.699   4.269  2.0554 -1.1642  0.5222
  882MOL0     H19022   7.143   4.542   4.078  1.2708 -1.2330 -0.0988
  882MOL0     H19023   7.199   4.539   4.243  0.1183  0.5844  0.9005
  882MOL0     H19024   7.120   4.778   4.266 -1.2980 -1.8563  0.6794
  882MOL0     H19025   7.068   4.782   4.097  0.3848 -4.8171 -2.5264
  882MOL0     H19026   6.880   4.711   4.259 -1.1215 -0.3164 -2.0114
  882MOL0     H19027   6.975   4.562   4.292 -3.3070 -0.4720  0.9704
  882MOL0     H19028   6.917   4.637   4.010  1.5839  2.5425  2.3777
  882MOL0     H19029   6.777   4.629   4.110  0.1874  0.2844  1.1715
  882MOL0     H19030   6.641   4.488   4.191 -3.7229  0.1385 -2.6278
  882MOL0     H19031   6.468   4.316   4.242 -0.8999 -3.0200  0.0599
  882MOL0     H19032   6.256   3.947   4.304 -1.9518 -0.7978  4.0114
  882MOL0     H19033   6.155   3.765   4.418  2.4772  0.2148  1.3835
  882MOL0     H19034   6.053   3.462   4.271  0.5894  0.3377 -0.9072
  882MOL0     H19035   6.197   3.387   4.225 -0.9175 -0.7221 -0.9747
  882MOL0     H19036   6.038   3.321   4.482  1.7459 -1.3166  0.1678
  882MOL0     H19037   6.021   3.232   4.328  0.9585 -0.9390  0.2859
  882MOL0     H19038   6.260   3.151   4.360  3.3011  2.3185  1.2373
  882MOL0     H19039   6.271   3.231   4.510  1.1020 -1.0835 -1.2387
  882MOL0     H19040   6.100   2.995   4.426  0.9940 -2.3381  1.1053
  882MOL0     H19041   6.031   3.091   4.555 -1.6977 -3.6598  0.4700
  882MOL0     H19042   6.227   3.056   4.690  0.5498  0.7763  0.2676
  882MOL0     H19043   6.318   2.968   4.564 -1.8315 -2.3395 -0.3173
  882MOL0     H19044   6.040   2.883   4.680  1.3126 -0.5550  0.6179
  882MOL0     H19045   6.127   2.784   4.576 -0.3722 -0.2492  0.6213
  882MOL0     H19046   6.211   2.869   4.844 -1.2255  0.1335 -1.4746
  882MOL0     H19047   6.330   2.801   4.738  1.3926  1.8986  1.5245
  882MOL0     H19048   6.188   2.588   4.719  1.2802 -1.4657  0.6474
  882MOL0     H19049   6.257   2.629   4.873 -0.1850 -3.0131 -0.0988
  882MOL0     H19050   6.458   3.505   4.261  1.0360  1.5863 -0.9672
  882MOL0     H19051   6.579   3.673   4.182 -0.5865  0.4795 -1.9563
  882MOL0     H19052   6.707   4.022   4.063 -0.2265  0.7603 -0.3601
  882MOL0     H19053   6.879   4.204   4.004 -0.5822  2.3227  0.8414
  882MOL0     H19054   8.191   4.014   3.610  0.7469  0.2655 -1.1023
  882MOL0     H19055   8.176   3.843   3.487 -0.2431  0.3832  1.4041
  882MOL0     H19056   7.909   3.589   3.178 -1.0639  0.4270 -2.0976
  882MOL0     H19057   7.916   3.390   3.062  2.3020 -3.4350 -0.5413
  882MOL0     H19058   7.954   3.197   2.925 -0.1532  2.8011 -4.7536
  882MOL0     H19059   8.109   3.192   3.024  2.2284 -0.5667 -1.0705
  882MOL0     H19060   8.099   3.121   2.737  3.6103  1.9612 -0.3033
  882MOL0     H19061   8.037   2.997   2.847  0.7771 -0.4644 -0.3455
  882MOL0     H19062   8.253   2.956   2.936  2.0437 -1.3414 -1.3366
  882MOL0     H19063   8.302   3.120   2.916  0.1476  0.5585 -1.7007
  882MOL0     H19064   8.276   2.900   2.707 -2.2326  1.6695 -0.8715
  882MOL0     H19065   8.291   3.071   2.656  1.6074  1.1262  0.3534
  882MOL0     H19066   8.677   2.962   2.690  0.2956  0.9662 -0.9926
  882MOL0     H19067   8.250   3.543   2.823  0.5923  2.7155  0.0990
  882MOL0     H19068   8.311   3.839   2.992 -3.5785  1.1247  0.7966
  882MOL0     H19069   8.315   3.742   2.837  1.5563  1.4392 -0.2694
  882MOL0     H19070   8.183   3.839   2.869  2.7300  2.9984 -0.3529
  883MOL0     O19071   7.984   7.390   9.326  0.6332  0.6806  0.7759
  883MOL0     C19072   8.043   7.494   9.315 -0.1712  0.3413  0.1172
  883MOL0     O19073   7.999   7.604   9.248 -0.1965  0.4812  0.3331
  883MOL0     C19074   7.899   7.578   9.149  0.1434 -0.1761 -0.4952
  883MOL0     C19075   7.777   7.639   9.165  0.1062 -0.6079  0.1598
  883MOL0     C19076   7.680   7.608   9.066 -0.5911  0.1469 -0.8026
  883MOL0     C19077   7.712   7.541   8.945  0.5827  0.4517 -0.9088
  883MOL0     O19078   7.616   7.536   8.848  0.3536  0.4494 -0.0694
  883MOL0     C19079   7.584   7.400   8.819 -0.1277  0.2017  0.1475
  883MOL0     C19080   7.486   7.404   8.702 -0.4768 -0.1422  0.6484
  883MOL0     C19081   7.450   7.257   8.667  1.1051  0.8131 -0.0418
  883MOL0     C19082   7.348   7.239   8.555  0.8020 -0.3090 -0.1925
  883MOL0     C19083   7.322   7.087   8.519  0.5845  0.0700 -1.2449
  883MOL0     C19084   7.284   7.092   8.370 -0.5371  0.1431  0.5503
  883MOL0     C19085   7.247   6.949   8.310 -0.1625 -0.1046 -0.8421
  883MOL0     C19086   7.163   6.969   8.184 -0.1923 -0.5449  0.0755
  883MOL0     N19087   7.254   7.019   8.075 -0.2980  0.1109  0.0893
  883MOL0     C19088   7.216   7.101   7.977  0.3961  0.9313  0.6945
  883MOL0     C19089   7.318   7.090   7.883  0.3968 -0.4868 -0.7452
  883MOL0     C19090   7.333   7.157   7.751 -0.6175  1.1190 -0.0860
  883MOL0     C19091   7.406   7.293   7.754  0.5051 -1.2740 -0.3669
  883MOL0     C19092   7.556   7.281   7.773 -0.2714 -0.1780  0.3348
  883MOL0     C19093   7.613   7.229   7.645 -0.3602  0.6306  0.4977
  883MOL0     O19094   7.644   7.333   7.553  0.1087 -0.6135  0.0170
  883MOL0     C19095   7.735   7.295   7.462 -0.9323  0.2917 -0.2885
  883MOL0     C19096   7.696   7.206   7.367 -0.3560 -0.7603  0.6092
  883MOL0     C19097   7.798   7.160   7.274  0.4061  0.7317 -0.5327
  883MOL0     C19098   7.928   7.195   7.283  1.0370 -0.4881  0.5563
  883MOL0     C19099   8.027   7.145   7.184  0.8438 -1.3282  0.5863
  883MOL0     O19100   8.152   7.183   7.198 -0.5005 -0.3255 -0.6576
  883MOL0     C19101   8.251   7.129   7.112 -0.8297  0.2965  0.2058
  883MOL0     C19102   8.239   7.134   6.970  0.3274  0.7611  0.0643
  883MOL0     C19103   8.352   7.093   6.891  0.3433  0.2938 -0.9318
  883MOL0     C19104   8.481   7.064   6.957 -0.7225 -0.7558  0.0576
  883MOL0     O19105   8.590   7.027   6.885 -1.2789  0.1369  0.7932
  883MOL0     C19106   8.637   7.119   6.781 -0.2023  0.4070  0.5371
  883MOL0     C19107   8.588   7.077   6.639 -0.6138 -0.0242  1.6154
  883MOL0     C19108   8.656   7.154   6.523 -0.4132  0.9365 -0.8593
  883MOL0     C19109   8.661   7.077   6.388  0.5282  1.0269 -0.1295
  883MOL0     C19110   8.722   7.167   6.275 -0.7466  0.0272  0.0251
  883MOL0     C19111   8.846   7.116   6.194 -0.0139 -0.2523 -0.5164
  883MOL0     C19112   8.905   7.236   6.114 -0.1930  0.0135 -0.3639
  883MOL0     C19113   8.960   7.207   5.974  0.1205  0.4239 -0.7312
  883MOL0    Cl19114   9.071   7.054   5.979 -0.1076 -0.1895 -0.1405
  883MOL0     C19115   8.479   7.054   7.090  0.5193 -0.3821 -0.9001
  883MOL0     C19116   8.367   7.082   7.168 -0.2896 -0.2518 -0.3914
  883MOL0     O19117   7.984   7.068   7.100 -0.0926 -0.0665  0.2270
  883MOL0     C19118   7.970   7.284   7.389  0.1632 -0.9341  0.7086
  883MOL0     C19119   7.869   7.325   7.484 -0.0428  0.5997  1.3261
  883MOL0     N19120   7.408   6.997   7.928  0.1916 -0.4885 -0.4422
  883MOL0     N19121   7.367   6.945   8.041  0.7899  0.2810 -0.1184
  883MOL0     C19122   7.838   7.492   8.933 -0.0245 -0.7276  0.0579
  883MOL0     C19123   7.931   7.508   9.035 -0.3768  0.1207  0.4521
  883MOL0     C19124   8.146   7.509   9.422 -0.3756 -0.6499 -0.0909
  883MOL0     C19125   8.128   7.452   9.542 -0.0784 -0.2958  0.7547
  883MOL0     C19126   8.223   7.445   9.644  0.5332  0.2311  1.3585
  883MOL0     C19127   8.346   7.509   9.619  0.6179  0.3492  0.2959
  883MOL0     O19128   8.431   7.499   9.730 -0.6863  0.2844 -0.4916
  883MOL0     C19129   8.575   7.495   9.707 -0.4448 -0.2872 -0.1263
  883MOL0     C19130   8.631   7.370   9.626  0.6987  1.0721  0.7615
  883MOL0     C19131   8.757   7.382   9.553 -0.8581  0.0096  1.2784
  883MOL0     C19132   8.895   7.375   9.620  0.4126 -0.7345  0.2983
  883MOL0     C19133   8.908   7.467   9.737 -0.4529  0.1691  0.0671
  883MOL0     C19134   8.896   7.549   9.824  0.1017 -1.5211  0.3315
  883MOL0     C19135   8.370   7.572   9.500  0.0976 -1.1324 -0.1916
  883MOL0     C19136   8.276   7.576   9.399 -0.1638 -0.0722  0.7861
  883MOL0     C19137   8.316   7.641   9.260 -0.8595  0.4545  0.0266
  883MOL0     H19138   7.745   7.711   9.240  0.5910 -0.0281 -0.1876
  883MOL0     H19139   7.587   7.657   9.094 -0.6736  0.4176 -1.5401
  883MOL0     H19140   7.669   7.335   8.798  0.9105  0.7581  2.2653
  883MOL0     H19141   7.538   7.353   8.907  1.7415 -2.0177  0.0550
  883MOL0     H19142   7.536   7.441   8.612 -2.4706 -0.8081 -0.8182
  883MOL0     H19143   7.395   7.464   8.711 -0.4541 -0.0043  0.0060
  883MOL0     H19144   7.412   7.205   8.755 -1.0640  0.1688 -1.2684
  883MOL0     H19145   7.543   7.215   8.628  1.2488 -0.7097  1.8120
  883MOL0     H19146   7.248   7.276   8.576  0.6276 -0.7758 -0.1841
  883MOL0     H19147   7.387   7.294   8.469 -0.8252  0.9350 -0.1757
  883MOL0     H19148   7.411   7.028   8.543  2.6266  3.8219  1.5753
  883MOL0     H19149   7.237   7.048   8.576  2.1872 -2.5338 -0.4868
  883MOL0     H19150   7.209   7.169   8.349  0.1752  1.7829  3.4628
  883MOL0     H19151   7.379   7.121   8.326  0.5237  3.0500  4.2510
  883MOL0     H19152   7.197   6.878   8.375 -1.0981  0.8175 -0.5260
  883MOL0     H19153   7.336   6.892   8.282 -0.0708  0.2686 -1.3385
  883MOL0     H19154   7.132   6.879   8.130 -0.1902  1.5479 -3.7374
  883MOL0     H19155   7.071   7.028   8.193  0.5251  0.4933  0.7796
  883MOL0     H19156   7.117   7.141   7.958 -2.1989 -2.4646  5.0177
  883MOL0     H19157   7.388   7.090   7.683  0.7795  1.5262  0.6086
  883MOL0     H19158   7.238   7.177   7.700 -1.0027 -1.7974 -0.6968
  883MOL0     H19159   7.394   7.355   7.665 -2.8199 -2.2668 -0.7303
  883MOL0     H19160   7.368   7.349   7.840  0.5397  0.4796 -1.4371
  883MOL0     H19161   7.583   7.219   7.858 -1.1892  0.6858  1.2779
  883MOL0     H19162   7.602   7.379   7.792 -0.3044 -0.3854  1.5573
  883MOL0     H19163   7.553   7.154   7.591 -2.4828  1.1793  1.9729
  883MOL0     H19164   7.705   7.179   7.677 -1.5809 -2.1331  0.0551
  883MOL0     H19165   7.597   7.163   7.360 -1.6470  1.5415  3.0626
  883MOL0     H19166   7.759   7.108   7.186 -1.4719 -0.0454  0.6874
  883MOL0     H19167   8.154   7.185   6.926  0.7735 -1.3292 -3.5954
  883MOL0     H19168   8.341   7.082   6.784 -1.1161 -0.5970 -0.7123
  883MOL0     H19169   8.630   7.225   6.807 -0.8984  1.0032 -1.8342
  883MOL0     H19170   8.746   7.122   6.783  0.1676 -4.4468  1.8833
  883MOL0     H19171   8.585   6.969   6.618 -0.3618 -0.4738  3.6513
  883MOL0     H19172   8.482   7.106   6.642 -0.8402 -0.8098  1.5138
  883MOL0     H19173   8.621   7.258   6.524 -0.1357  1.0507  1.3248
  883MOL0     H19174   8.762   7.166   6.546  0.0257 -0.6663 -1.8565
  883MOL0     H19175   8.563   7.044   6.353  2.1008 -3.4955 -0.8390
  883MOL0     H19176   8.711   6.983   6.410  0.2742  1.0581  0.6312
  883MOL0     H19177   8.763   7.251   6.332 -0.4848  1.9109 -2.7471
  883MOL0     H19178   8.642   7.198   6.206 -1.3418 -0.1639  0.6143
  883MOL0     H19179   8.919   7.066   6.258  0.2945  1.0100  0.1467
  883MOL0     H19180   8.804   7.038   6.129  0.1489 -1.2480  0.5345
  883MOL0     H19181   8.989   7.277   6.172 -0.1773  0.0042 -0.3799
  883MOL0     H19182   8.834   7.320   6.112 -2.8091 -2.0831 -0.7157
  883MOL0     H19183   8.877   7.201   5.903  1.3253 -0.6785 -2.1111
  883MOL0     H19184   9.017   7.287   5.926  0.9677 -0.1153 -0.6445
  883MOL0     H19185   8.575   7.025   7.131 -0.2609 -3.3308 -0.9480
  883MOL0     H19186   8.363   7.072   7.276 -3.6668  3.1777 -0.0207
  883MOL0     H19187   8.074   7.311   7.402 -0.0055  0.5242 -0.6638
  883MOL0     H19188   7.903   7.392   7.562  1.0469  0.5160  0.9469
  883MOL0     H19189   7.857   7.448   8.836 -2.2902  1.3812 -1.4702
  883MOL0     H19190   8.034   7.476   9.021 -1.2442 -1.8477 -2.5997
  883MOL0     H19191   8.036   7.396   9.559 -0.0248 -0.9790 -1.0610
  883MOL0     H19192   8.193   7.395   9.735  0.6394  0.7598  1.6845
  883MOL0     H19193   8.628   7.504   9.802 -4.4949 -1.6033  2.4561
  883MOL0     H19194   8.611   7.581   9.648 -1.1376 -0.5821 -0.9905
  883MOL0     H19195   8.568   7.337   9.543  5.5968 -1.5298 -2.4061
  883MOL0     H19196   8.623   7.280   9.687  0.9587  0.3323 -0.2683
  883MOL0     H19197   8.764   7.477   9.499  3.4707 -0.0088  1.5193
  883MOL0     H19198   8.756   7.307   9.474 -0.9687  2.3325 -1.0438
  883MOL0     H19199   8.911   7.272   9.652 -2.6728 -1.1816  0.7776
  883MOL0     H19200   8.971   7.416   9.553  0.9571  0.5653  1.6760
  883MOL0     H19201   8.862   7.627   9.890  2.3014  2.3915 -2.6598
  883MOL0     H19202   8.474   7.605   9.500  0.9437 -3.5922 -0.2445
  883MOL0     H19203   8.232   7.698   9.218 -0.3744  0.3476 -1.1269
  883MOL0     H19204   8.400   7.707   9.283 -2.6637  2.9873 -0.2104
  883MOL0     H19205   8.340   7.561   9.189 -1.5570 -0.8857  1.2491
  884MOL0     O19206   7.907   8.658   9.047  0.1394 -0.0914 -0.2880
  884MOL0     C19207   7.889   8.614   9.160  0.0292  0.2394 -0.5814
  884MOL0     O19208   7.931   8.493   9.207  0.4005  0.2695 -0.6469
  884MOL0     C19209   8.069   8.445   9.186  0.5454 -0.9581 -0.2012
  884MOL0     C19210   8.172   8.534   9.198 -0.2043 -0.5684  0.1983
  884MOL0     C19211   8.311   8.495   9.187  0.0627 -0.5830  0.0497
  884MOL0     C19212   8.348   8.356   9.166 -0.2613  0.2899 -0.0862
  884MOL0     O19213   8.470   8.307   9.168 -0.3110  0.2407  0.0030
  884MOL0     C19214   8.557   8.405   9.101 -0.6277 -0.3142  0.6197
  884MOL0     C19215   8.682   8.323   9.038  0.0833 -0.1847  0.7870
  884MOL0     C19216   8.776   8.235   9.130  0.1423  0.4811  0.1451
  884MOL0     C19217   8.880   8.315   9.219  1.1814 -0.0538  0.8313
  884MOL0     C19218   9.021   8.255   9.223  0.7709  0.3946 -0.4905
  884MOL0     C19219   9.113   8.338   9.313  0.3848 -0.1455 -0.1043
  884MOL0     C19220   9.118   8.489   9.273 -0.2146 -0.6259 -0.0220
  884MOL0     C19221   9.259   8.544   9.331 -0.8361 -0.7350 -0.6276
  884MOL0     N19222   9.255   8.687   9.344 -0.3712 -0.0236  0.9465
  884MOL0     C19223   9.290   8.773   9.236 -0.4569  0.7291  0.0745
  884MOL0     C19224   9.256   8.898   9.284 -0.1410  0.0813 -0.6128
  884MOL0     C19225   9.261   9.013   9.195  0.4384 -0.5913 -0.1335
  884MOL0     C19226   9.188   9.133   9.261 -0.0887  0.1354 -0.3978
  884MOL0     C19227   9.148   9.240   9.161 -0.5492  0.4790  0.4183
  884MOL0     C19228   9.044   9.344   9.206 -0.3859 -1.1277  0.3400
  884MOL0     O19229   9.104   9.404   9.319 -0.2432  0.3169  0.0650
  884MOL0     C19230   9.044   9.521   9.340 -0.2518 -0.0849 -0.0688
  884MOL0     C19231   8.926   9.518   9.418  0.8021 -0.6029 -0.0144
  884MOL0     C19232   8.871   9.633   9.468 -0.7307 -0.0384  0.7259
  884MOL0     C19233   8.935   9.754   9.444 -0.2990 -0.2987  0.4719
  884MOL0     C19234   8.874   9.880   9.477  0.6742 -0.1380  0.1634
  884MOL0     O19235   8.942  10.000   9.461  0.1156 -0.2127  0.9541
  884MOL0     C19236   8.880  10.116   9.480 -0.3834 -0.9019  0.2040
  884MOL0     C19237   8.848  10.153   9.609 -0.6140 -1.1304  0.2018
  884MOL0     C19238   8.797  10.273   9.635 -1.1998 -0.6206 -0.3059
  884MOL0     C19239   8.779  10.366   9.537 -0.5247 -0.8110  0.5284
  884MOL0     O19240   8.724  10.489   9.564  0.5156 -0.2853  0.1085
  884MOL0     C19241   8.625  10.534   9.472  0.1117  0.9890  0.2896
  884MOL0     C19242   8.661  10.663   9.412 -0.5302 -0.2762 -0.3218
  884MOL0     C19243   8.551  10.710   9.324  0.4894 -0.1538  0.5634
  884MOL0     C19244   8.559  10.852   9.271 -0.0023 -0.7272 -0.6923
  884MOL0     C19245   8.446  10.873   9.172  0.0832  0.2563  0.0553
  884MOL0     C19246   8.405  11.024   9.171  0.1831 -0.5419 -0.5943
  884MOL0     C19247   8.309  11.069   9.290  0.5883  0.0640  0.2561
  884MOL0     C19248   8.153  11.090   9.255 -1.0193  1.1943  0.4142
  884MOL0    Cl19249   8.129  11.214   9.120  0.4662 -0.0376 -0.0604
  884MOL0     C19250   8.811  10.332   9.405  0.1529 -0.3408 -0.6844
  884MOL0     C19251   8.854  10.207   9.375 -0.2293  0.6097 -0.1518
  884MOL0     O19252   8.753   9.879   9.513  0.4164  0.3271  0.3004
  884MOL0     C19253   9.050   9.755   9.360  0.5388 -0.4756  0.6314
  884MOL0     C19254   9.106   9.638   9.313  0.6086 -0.3167 -0.1528
  884MOL0     N19255   9.184   8.878   9.408  0.5987 -0.6980  0.3882
  884MOL0     N19256   9.187   8.756   9.433  0.6775 -0.1359 -0.6247
  884MOL0     C19257   8.240   8.263   9.159  1.0333 -0.4177 -0.0370
  884MOL0     C19258   8.102   8.311   9.181 -0.2918  0.7338 -0.3693
  884MOL0     C19259   7.813   8.691   9.259 -0.3937 -0.3191  0.1543
  884MOL0     C19260   7.808   8.631   9.392  0.6769 -0.0413  0.7780
  884MOL0     C19261   7.734   8.689   9.492 -0.5706 -0.7506 -0.4563
  884MOL0     C19262   7.668   8.813   9.469  0.1124  1.1902  0.3794
  884MOL0     O19263   7.598   8.852   9.579  0.6500  0.5868  0.5320
  884MOL0     C19264   7.572   8.993   9.595  0.2308 -0.0250 -0.6571
  884MOL0     C19265   7.502   9.035   9.725 -0.7382 -0.6108  0.8653
  884MOL0     C19266   7.516   9.182   9.782 -0.6739  0.7481 -0.4909
  884MOL0     C19267   7.465   9.269   9.673  0.0465  0.4789  0.5409
  884MOL0     C19268   7.497   9.403   9.693 -0.3842  0.1640 -0.9774
  884MOL0     C19269   7.531   9.515   9.713  0.7829  0.4297  0.2107
  884MOL0     C19270   7.668   8.874   9.343  0.1664 -0.9172 -0.1748
  884MOL0     C19271   7.736   8.810   9.235 -0.1596  0.7132 -0.2429
  884MOL0     C19272   7.731   8.866   9.096 -0.3166  0.6388 -0.1946
  884MOL0     H19273   8.167   8.642   9.192 -0.4395 -0.6020 -0.2055
  884MOL0     H19274   8.393   8.567   9.190 -1.9887  1.9639 -1.1817
  884MOL0     H19275   8.510   8.451   9.013 -0.7732 -0.6297  0.5356
  884MOL0     H19276   8.596   8.480   9.171  3.7711  0.4635 -2.2795
  884MOL0     H19277   8.743   8.395   8.984  1.6274 -1.6522  0.4906
  884MOL0     H19278   8.635   8.255   8.967  0.5888  1.3253 -1.0578
  884MOL0     H19279   8.826   8.161   9.068  4.2914  0.8690  2.6197
  884MOL0     H19280   8.717   8.177   9.202  1.8784  2.5359  3.4929
  884MOL0     H19281   8.886   8.414   9.172 -1.4659  1.7965  3.9479
  884MOL0     H19282   8.847   8.317   9.323 -1.1488 -3.7950  0.3381
  884MOL0     H19283   9.022   8.156   9.270 -2.9436  1.2887  1.8914
  884MOL0     H19284   9.065   8.237   9.125 -0.4114 -0.2836 -0.9189
  884MOL0     H19285   9.062   8.332   9.410 -3.4571  1.0000 -1.8315
  884MOL0     H19286   9.215   8.301   9.324 -0.1831 -1.4253  1.2587
  884MOL0     H19287   9.029   8.535   9.316  0.4947  1.6549 -0.8659
  884MOL0     H19288   9.123   8.507   9.166  2.1745  1.6058  0.3622
  884MOL0     H19289   9.273   8.490   9.425  1.5205  0.8932  0.0749
  884MOL0     H19290   9.331   8.514   9.255 -0.2722 -0.0850 -0.3713
  884MOL0     H19291   9.343   8.746   9.145  2.0413 -1.6238  2.0640
  884MOL0     H19292   9.368   9.029   9.180  0.0693  0.4388 -1.9559
  884MOL0     H19293   9.209   8.999   9.100 -2.8251 -4.9140  1.9359
  884MOL0     H19294   9.099   9.082   9.299 -0.3429 -1.1519 -2.5601
  884MOL0     H19295   9.250   9.161   9.347  0.4510 -2.4398  0.1371
  884MOL0     H19296   9.105   9.180   9.081 -2.5916 -0.4830  2.1645
  884MOL0     H19297   9.230   9.292   9.109  0.3364  0.6811  1.9530
  884MOL0     H19298   8.951   9.294   9.233 -2.1342  1.4863 -0.3973
  884MOL0     H19299   9.023   9.414   9.125 -1.7931 -0.3589  1.3333
  884MOL0     H19300   8.873   9.425   9.436  2.0969 -1.4542 -0.4707
  884MOL0     H19301   8.788   9.631   9.537 -0.1881 -1.1881  1.3772
  884MOL0     H19302   8.868  10.074   9.682  1.0575  0.1003  1.1579
  884MOL0     H19303   8.782  10.313   9.734  0.2904  1.1505 -0.7405
  884MOL0     H19304   8.587  10.465   9.396  2.4944  0.7438 -0.7444
  884MOL0     H19305   8.532  10.557   9.526 -0.6641 -3.2573  1.0803
  884MOL0     H19306   8.688  10.727   9.496 -0.6291 -0.3807 -0.2111
  884MOL0     H19307   8.748  10.644   9.347  0.3642 -1.5437  1.1852
  884MOL0     H19308   8.544  10.648   9.234 -0.9449  1.4212 -0.4770
  884MOL0     H19309   8.455  10.701   9.375  1.1625  0.7564  2.0658
  884MOL0     H19310   8.654  10.853   9.217 -0.3468 -1.4879 -1.3159
  884MOL0     H19311   8.569  10.933   9.345 -0.3401  0.9148 -2.3620
  884MOL0     H19312   8.363  10.809   9.203 -0.9751  2.4332  2.0064
  884MOL0     H19313   8.485  10.845   9.074 -1.2539  2.0855 -1.0831
  884MOL0     H19314   8.489  11.093   9.168 -0.6037  0.4872  0.4473
  884MOL0     H19315   8.348  11.032   9.077 -1.6408 -2.1150  0.2821
  884MOL0     H19316   8.339  11.161   9.341  1.5544 -1.5763  2.8261
  884MOL0     H19317   8.325  10.992   9.366 -1.3281 -0.7186 -0.0642
  884MOL0     H19318   8.104  10.998   9.222  0.1495  0.3844  0.8464
  884MOL0     H19319   8.093  11.130   9.337 -0.2935  0.1826  1.4870
  884MOL0     H19320   8.795  10.399   9.321  0.0188  0.9179  0.3266
  884MOL0     H19321   8.864  10.185   9.269 -1.1501 -0.2982 -0.0579
  884MOL0     H19322   9.098   9.846   9.326 -2.0842 -0.2822 -3.0739
  884MOL0     H19323   9.193   9.646   9.249  0.1689  4.3758 -0.5296
  884MOL0     H19324   8.252   8.155   9.153  2.4359 -0.2303 -0.9179
  884MOL0     H19325   8.034   8.231   9.209  2.0112 -0.9228  0.7361
  884MOL0     H19326   7.843   8.530   9.408 -4.8614 -2.6365 -1.1013
  884MOL0     H19327   7.712   8.650   9.591 -1.4200  1.0692  0.1072
  884MOL0     H19328   7.499   9.022   9.519  0.2298 -0.6857 -0.9191
  884MOL0     H19329   7.668   9.046   9.593  0.8246 -0.9803  0.6573
  884MOL0     H19330   7.551   8.960   9.789  1.4616 -0.0295 -0.0310
  884MOL0     H19331   7.400   8.997   9.729 -0.6341 -0.8885  0.9629
  884MOL0     H19332   7.616   9.205   9.820 -0.1328  1.4430 -2.2220
  884MOL0     H19333   7.467   9.201   9.877  2.7288  1.5261  1.2638
  884MOL0     H19334   7.498   9.240   9.573 -0.9348 -0.6178  0.5090
  884MOL0     H19335   7.358   9.245   9.671 -0.1421  1.1217  1.8834
  884MOL0     H19336   7.563   9.613   9.743  4.5490  0.1159 -2.0808
  884MOL0     H19337   7.615   8.968   9.333 -1.3751 -1.3217  2.8319
  884MOL0     H19338   7.715   8.790   9.019 -0.9079 -1.4928  1.9062
  884MOL0     H19339   7.655   8.944   9.094 -2.2206 -1.1221  0.2107
  884MOL0     H19340   7.824   8.923   9.084  1.4405 -1.7320  1.0617
  885MOL0     O19341   3.592   0.843   5.545 -0.2539 -0.3059  0.4719
  885MOL0     C19342   3.600   0.899   5.652  0.1008 -0.6414 -0.3824
  885MOL0     O19343   3.535   0.855   5.774 -0.7196  0.0849  0.5168
  885MOL0     C19344   3.495   0.726   5.787 -0.4119 -0.4312 -0.2954
  885MOL0     C19345   3.513   0.612   5.698  0.0114 -0.6043  1.0196
  885MOL0     C19346   3.469   0.485   5.740 -0.1410  0.5620 -0.3023
  885MOL0     C19347   3.401   0.470   5.854 -0.7637 -0.3026  0.0403
  885MOL0     O19348   3.349   0.342   5.876 -0.3448 -0.1353 -0.9939
  885MOL0     C19349   3.208   0.345   5.874 -0.1009  0.1862  0.1994
  885MOL0     C19350   3.156   0.212   5.860  0.1452  0.2391 -0.1678
  885MOL0     C19351   3.225   0.125   5.751  1.0600  0.0963  0.0320
  885MOL0     C19352   3.118   0.075   5.656 -0.9540 -0.1808 -1.3200
  885MOL0     C19353   3.170  -0.017   5.555 -0.1258 -0.7437 -0.9875
  885MOL0     C19354   3.237  -0.147   5.587  0.8261 -0.6507 -0.4214
  885MOL0     C19355   3.280  -0.216   5.458 -0.3650 -0.5824  0.2697
  885MOL0     C19356   3.383  -0.333   5.485 -0.6555  0.2378  0.2665
  885MOL0     N19357   3.315  -0.462   5.523 -0.0209 -0.4786  0.3686
  885MOL0     C19358   3.231  -0.527   5.439 -0.5302  0.0583  1.0231
  885MOL0     C19359   3.192  -0.645   5.508 -0.7867  0.7459  0.5113
  885MOL0     C19360   3.108  -0.755   5.452 -0.1057  0.1848 -0.4308
  885MOL0     C19361   2.968  -0.735   5.503  0.7606  0.1319  0.2995
  885MOL0     C19362   2.883  -0.853   5.509 -0.5254 -0.0699 -0.0371
  885MOL0     C19363   2.855  -0.908   5.368  0.1928 -0.1958  1.0900
  885MOL0     O19364   2.771  -0.813   5.289  0.2011 -0.4315 -0.1681
  885MOL0     C19365   2.728  -0.860   5.170 -0.5240 -0.4277 -0.0985
  885MOL0     C19366   2.641  -0.781   5.097  0.2381 -1.1496  0.4510
  885MOL0     C19367   2.598  -0.809   4.968  0.4027  0.0821  0.1047
  885MOL0     C19368   2.632  -0.933   4.907 -1.0003 -0.6887  0.1855
  885MOL0     C19369   2.612  -0.972   4.757  1.0743 -0.3628 -0.1823
  885MOL0     O19370   2.685  -1.074   4.707  0.1911  0.3082 -0.0817
  885MOL0     C19371   2.663  -1.114   4.578 -0.4442 -1.0996 -0.6443
  885MOL0     C19372   2.608  -1.042   4.465 -0.1209  0.6935  0.6748
  885MOL0     C19373   2.603  -1.101   4.337 -0.1845  0.4861 -0.5936
  885MOL0     C19374   2.632  -1.239   4.330 -0.1314  0.8222 -0.0255
  885MOL0     O19375   2.636  -1.309   4.211 -0.0240 -0.6624  0.6089
  885MOL0     C19376   2.664  -1.230   4.097 -1.0807 -0.2242 -0.6218
  885MOL0     C19377   2.745  -1.325   3.995 -0.1423  1.8516  1.4889
  885MOL0     C19378   2.807  -1.262   3.877 -0.2435 -0.2844  0.1728
  885MOL0     C19379   2.911  -1.348   3.803 -0.6773 -0.9806 -0.2770
  885MOL0     C19380   2.971  -1.277   3.682  0.0198  0.3737 -1.1473
  885MOL0     C19381   2.875  -1.273   3.566  0.5893 -0.4293  1.2093
  885MOL0     C19382   2.951  -1.238   3.432 -0.4720  0.7353 -0.6207
  885MOL0     C19383   3.006  -1.097   3.428 -0.4423  1.0671  0.5985
  885MOL0    Cl19384   3.036  -1.041   3.253  0.0795 -0.1996 -0.1570
  885MOL0     C19385   2.670  -1.308   4.444  1.0232  0.4217  0.5865
  885MOL0     C19386   2.685  -1.252   4.563  0.0855  0.2770 -0.2266
  885MOL0     O19387   2.507  -0.916   4.712  0.2319  0.1347 -0.0456
  885MOL0     C19388   2.705  -1.021   4.988 -0.2104  0.0075 -0.7887
  885MOL0     C19389   2.761  -0.978   5.109  0.9689 -0.0915  0.1806
  885MOL0     N19390   3.250  -0.636   5.629  0.2874 -0.2630  0.0859
  885MOL0     N19391   3.321  -0.530   5.641 -0.9480  0.9979 -0.5399
  885MOL0     C19392   3.378   0.589   5.938  0.6781  0.2009 -0.4209
  885MOL0     C19393   3.429   0.704   5.911 -0.1774 -0.0486  0.0681
  885MOL0     C19394   3.680   1.024   5.654  0.5106 -1.0945  0.8294
  885MOL0     C19395   3.785   1.032   5.567 -1.4729  0.0187  0.4862
  885MOL0     C19396   3.863   1.154   5.562  0.5190  0.5024  0.2977
  885MOL0     C19397   3.827   1.262   5.646 -0.0068 -0.6770  1.0998
  885MOL0     O19398   3.918   1.368   5.631  0.0318  0.3763 -0.2939
  885MOL0     C19399   3.903   1.495   5.712  0.4349  0.0623  0.1494
  885MOL0     C19400   4.038   1.572   5.720  0.6167  0.4034  1.0910
  885MOL0     C19401   4.146   1.480   5.754  0.0215 -0.6076 -0.6582
  885MOL0     C19402   4.286   1.532   5.722  0.3972  0.2235 -0.3841
  885MOL0     C19403   4.349   1.619   5.824  0.8815  0.4283 -0.7107
  885MOL0     C19404   4.391   1.679   5.918 -0.2793 -0.3628 -0.6427
  885MOL0     C19405   3.721   1.257   5.726 -0.0916  0.3565  0.8648
  885MOL0     C19406   3.640   1.136   5.729 -1.3457  0.1683 -0.3352
  885MOL0     C19407   3.517   1.146   5.802  0.6134  0.3010 -0.1558
  885MOL0     H19408   3.570   0.621   5.606 -3.0876  1.0245 -0.9445
  885MOL0     H19409   3.495   0.403   5.674 -1.0550  1.5214 -1.9397
  885MOL0     H19410   3.161   0.383   5.965  1.8266  0.9972  0.9271
  885MOL0     H19411   3.177   0.394   5.781  3.1617 -1.0303 -1.6857
  885MOL0     H19412   3.047   0.206   5.862  0.2232 -2.8490  0.5223
  885MOL0     H19413   3.158   0.158   5.955 -1.3575  0.6856  0.1413
  885MOL0     H19414   3.280   0.040   5.793  0.8221 -1.7979 -3.1888
  885MOL0     H19415   3.300   0.186   5.701  0.2103  0.7322 -0.4889
  885MOL0     H19416   3.034   0.033   5.713 -0.8605  1.1304 -0.1649
  885MOL0     H19417   3.075   0.166   5.612 -0.9797  0.3165 -0.2947
  885MOL0     H19418   3.080  -0.031   5.496  0.9954 -1.3844 -2.6026
  885MOL0     H19419   3.241   0.045   5.499  1.7764  1.4637  3.2981
  885MOL0     H19420   3.326  -0.145   5.652  0.9115  0.5897 -0.5584
  885MOL0     H19421   3.173  -0.215   5.644 -1.7623 -0.0207 -2.4203
  885MOL0     H19422   3.323  -0.138   5.395 -1.6643 -0.1466 -0.1223
  885MOL0     H19423   3.191  -0.247   5.402 -0.3393 -1.6715  0.7875
  885MOL0     H19424   3.441  -0.358   5.396  0.4629  2.9585  0.1296
  885MOL0     H19425   3.451  -0.314   5.569  0.5729 -1.4324 -0.2922
  885MOL0     H19426   3.195  -0.489   5.344  4.8996  0.8805 -1.0298
  885MOL0     H19427   3.113  -0.751   5.343 -0.8180  0.5839 -0.4487
  885MOL0     H19428   3.147  -0.852   5.484 -2.8258 -0.1716  2.1986
  885MOL0     H19429   2.956  -0.697   5.605 -1.2276  0.0843  0.1208
  885MOL0     H19430   2.924  -0.654   5.444 -1.6424 -1.6605 -0.5631
  885MOL0     H19431   2.785  -0.832   5.555  0.4024 -0.9386  2.5184
  885MOL0     H19432   2.924  -0.924   5.581  0.5362  1.0165  0.4653
  885MOL0     H19433   2.805  -1.004   5.385  1.6098 -0.8227  1.9236
  885MOL0     H19434   2.951  -0.921   5.318 -0.4855  1.0174 -0.6010
  885MOL0     H19435   2.598  -0.689   5.138 -2.1718 -1.0073 -2.0881
  885MOL0     H19436   2.541  -0.740   4.908  1.1566  0.9639  0.3787
  885MOL0     H19437   2.579  -0.938   4.473  1.2647  1.2185 -0.5163
  885MOL0     H19438   2.570  -1.047   4.249 -2.7691  1.4727  0.8851
  885MOL0     H19439   2.573  -1.197   4.046  0.2695  0.6954 -2.5471
  885MOL0     H19440   2.722  -1.138   4.107  0.2423 -0.8733 -1.9331
  885MOL0     H19441   2.826  -1.387   4.037 -1.9476 -0.4907  1.7244
  885MOL0     H19442   2.667  -1.394   3.962  1.9655  0.7071 -1.5903
  885MOL0     H19443   2.725  -1.234   3.810  1.5485  1.2243 -1.5244
  885MOL0     H19444   2.845  -1.166   3.912 -0.0250  0.0402 -0.9026
  885MOL0     H19445   2.858  -1.438   3.769  3.0686 -3.6984  0.4267
  885MOL0     H19446   2.987  -1.374   3.877 -0.5358  0.5443  0.1396
  885MOL0     H19447   3.061  -1.337   3.664  1.8569  1.2571  3.5244
  885MOL0     H19448   2.989  -1.175   3.716 -1.2195  0.3194 -0.2633
  885MOL0     H19449   2.831  -1.372   3.547 -0.4010  0.3520 -1.0319
  885MOL0     H19450   2.794  -1.208   3.599 -1.3028 -2.4915  0.9033
  885MOL0     H19451   2.891  -1.246   3.341 -0.0622 -0.4286 -0.8076
  885MOL0     H19452   3.035  -1.306   3.413  0.1291  1.4479 -0.5398
  885MOL0     H19453   2.933  -1.027   3.469  0.0747  1.7095  0.4420
  885MOL0     H19454   3.099  -1.099   3.484  1.4134 -0.0873 -2.2618
  885MOL0     H19455   2.692  -1.414   4.442  0.7685  0.3597  0.8956
  885MOL0     H19456   2.718  -1.311   4.648  2.4434  1.7608 -0.0062
  885MOL0     H19457   2.743  -1.113   4.944  1.2697 -0.9096  2.1332
  885MOL0     H19458   2.830  -1.049   5.153  0.7137 -1.2860 -1.2822
  885MOL0     H19459   3.328   0.576   6.034  1.5593  1.6145  0.2553
  885MOL0     H19460   3.426   0.782   5.986  0.1062 -0.2711  0.3100
  885MOL0     H19461   3.828   0.946   5.517  2.2592  0.0516  3.1603
  885MOL0     H19462   3.958   1.152   5.511  0.5114  4.2641 -0.1147
  885MOL0     H19463   3.873   1.460   5.811  1.7743  0.5819  0.7695
  885MOL0     H19464   3.827   1.566   5.677 -0.7030 -0.9455  0.5251
  885MOL0     H19465   4.035   1.654   5.792  0.6944  1.6991 -0.3294
  885MOL0     H19466   4.052   1.632   5.630  0.0647  2.2374  2.1785
  885MOL0     H19467   4.145   1.394   5.686  4.0727 -1.8916  0.6035
  885MOL0     H19468   4.150   1.442   5.857  6.1021  1.1168  0.1511
  885MOL0     H19469   4.341   1.440   5.701 -3.5806 -2.2455 -1.1146
  885MOL0     H19470   4.282   1.577   5.623 -3.8631  0.9533 -0.0698
  885MOL0     H19471   4.450   1.733   5.989 -1.3734 -2.8619  2.4398
  885MOL0     H19472   3.693   1.343   5.786  0.5783 -0.0707  1.8224
  885MOL0     H19473   3.431   1.111   5.744  0.1062 -1.7024  1.6679
  885MOL0     H19474   3.531   1.079   5.887 -1.1209 -0.2400 -0.2625
  885MOL0     H19475   3.503   1.246   5.844 -1.6877  0.0954 -0.2951
  886MOL0     O19476   5.413   5.624   7.127 -0.0296 -0.3109 -1.0840
  886MOL0     C19477   5.412   5.748   7.167 -0.4658 -0.6689 -1.0363
  886MOL0     O19478   5.439   5.852   7.083  0.1981  0.8369  0.0525
  886MOL0     C19479   5.423   5.840   6.949 -0.3790 -0.2784  0.1484
  886MOL0     C19480   5.529   5.882   6.871 -0.9402  0.2377 -0.1621
  886MOL0     C19481   5.535   5.884   6.732  0.6001  0.2549  0.5338
  886MOL0     C19482   5.416   5.841   6.671 -0.0524 -0.0192 -0.4383
  886MOL0     O19483   5.404   5.828   6.535  0.3125 -0.2553 -0.0658
  886MOL0     C19484   5.509   5.847   6.444  0.2930 -0.3784  0.7443
  886MOL0     C19485   5.594   5.724   6.439  0.7474 -0.2550 -0.1983
  886MOL0     C19486   5.535   5.607   6.362 -0.1902  0.0222 -0.0006
  886MOL0     C19487   5.644   5.501   6.333 -0.0788 -0.7789 -0.7413
  886MOL0     C19488   5.604   5.419   6.213  0.0413  0.0747  0.1845
  886MOL0     C19489   5.686   5.299   6.181 -1.0026 -0.3801 -0.4659
  886MOL0     C19490   5.680   5.242   6.039  0.1965  0.2422 -0.5864
  886MOL0     C19491   5.767   5.116   6.014  0.1923 -0.2372 -0.8685
  886MOL0     N19492   5.916   5.149   6.016  0.7493 -0.1468 -0.0225
  886MOL0     C19493   5.991   5.188   5.902 -0.1267 -0.4175 -0.3829
  886MOL0     C19494   6.115   5.213   5.957  0.7831  0.2827  0.3763
  886MOL0     C19495   6.232   5.260   5.871 -0.2773 -1.4488  0.2648
  886MOL0     C19496   6.368   5.193   5.897 -0.8732  1.2975 -0.0895
  886MOL0     C19497   6.378   5.033   5.909 -0.3763  0.1587  0.4599
  886MOL0     C19498   6.518   4.989   5.942 -0.1055  0.1723 -0.9423
  886MOL0     O19499   6.620   5.020   5.840  0.6001 -0.1942 -0.6832
  886MOL0     C19500   6.643   4.917   5.747  0.3431  0.0797 -0.1232
  886MOL0     C19501   6.564   4.807   5.721  0.7169 -0.2638  0.2288
  886MOL0     C19502   6.586   4.725   5.613  0.6707  0.4400  0.7323
  886MOL0     C19503   6.687   4.755   5.520 -0.3780 -1.0908 -0.6340
  886MOL0     C19504   6.685   4.684   5.389  0.3950 -0.1508 -0.4908
  886MOL0     O19505   6.758   4.749   5.300 -1.0961  0.5282  0.0066
  886MOL0     C19506   6.786   4.701   5.173 -0.5902 -0.5722  0.1029
  886MOL0     C19507   6.694   4.688   5.073  0.5595  0.9786  0.8845
  886MOL0     C19508   6.715   4.617   4.951  0.2001 -0.6810  0.6689
  886MOL0     C19509   6.830   4.543   4.949  0.4540 -1.2328  0.6872
  886MOL0     O19510   6.875   4.476   4.835 -0.1794 -0.4677  0.3131
  886MOL0     C19511   6.784   4.444   4.729 -0.0879 -0.9573 -0.3676
  886MOL0     C19512   6.850   4.407   4.607 -0.7470  0.2599  0.7332
  886MOL0     C19513   6.911   4.269   4.612 -0.4823 -0.0365  0.0438
  886MOL0     C19514   6.987   4.223   4.485  0.2440  1.2714 -0.2651
  886MOL0     C19515   7.041   4.077   4.487  0.0457 -0.0083  0.6312
  886MOL0     C19516   6.949   3.972   4.428  0.7753 -0.3694  1.1374
  886MOL0     C19517   6.932   3.994   4.281  0.5815 -0.4271  0.1502
  886MOL0     C19518   6.934   3.868   4.186 -0.1646  1.3743  0.3825
  886MOL0    Cl19519   6.816   3.761   4.261  0.0843  0.4496  0.4321
  886MOL0     C19520   6.924   4.548   5.046  0.5736 -0.1267  0.1356
  886MOL0     C19521   6.910   4.634   5.161 -0.4007  0.6435  0.0418
  886MOL0     O19522   6.626   4.581   5.371  0.3298  0.2292 -0.0539
  886MOL0     C19523   6.776   4.864   5.552  0.4771 -0.3891  0.7256
  886MOL0     C19524   6.759   4.931   5.668 -0.3785 -0.6555  0.2328
  886MOL0     N19525   6.107   5.180   6.092  0.5625  0.0117  0.0879
  886MOL0     N19526   5.987   5.143   6.125  0.0479  0.7462  0.8399
  886MOL0     C19527   5.302   5.813   6.745  0.2273 -0.4532 -0.1990
  886MOL0     C19528   5.300   5.817   6.884 -0.1639 -1.1106 -0.9072
  886MOL0     C19529   5.414   5.783   7.317 -0.0937  0.3833  0.3386
  886MOL0     C19530   5.460   5.913   7.353  0.3689 -0.3804  0.1136
  886MOL0     C19531   5.466   5.948   7.486 -0.8300 -0.1471 -0.2483
  886MOL0     C19532   5.422   5.861   7.587  0.3243 -0.1603 -0.2892
  886MOL0     O19533   5.424   5.913   7.718 -0.5366  0.2971 -0.0486
  886MOL0     C19534   5.349   5.838   7.826  0.3306 -0.7216  0.4141
  886MOL0     C19535   5.196   5.855   7.793 -0.3262  0.3774 -0.1848
  886MOL0     C19536   5.153   5.998   7.818 -0.0046 -1.0308 -0.3340
  886MOL0     C19537   5.125   6.049   7.962  0.8499  0.2939 -0.7169
  886MOL0     C19538   5.246   6.102   8.021  0.8311  0.3630  0.0336
  886MOL0     C19539   5.349   6.151   8.063 -0.5405 -0.4475  1.1582
  886MOL0     C19540   5.379   5.734   7.552 -0.9806 -1.5145 -0.0201
  886MOL0     C19541   5.366   5.693   7.415 -0.4437 -0.6922  0.1832
  886MOL0     C19542   5.299   5.552   7.406  0.5629 -0.3394 -0.6632
  886MOL0     H19543   5.622   5.916   6.915 -0.6428 -0.5049 -0.2019
  886MOL0     H19544   5.615   5.918   6.669 -1.0642 -1.1609 -2.5761
  886MOL0     H19545   5.467   5.865   6.345 -2.1197  0.8213  1.9021
  886MOL0     H19546   5.568   5.935   6.471  0.6672 -0.2644 -0.3810
  886MOL0     H19547   5.616   5.694   6.542 -0.1921  1.5587  0.5763
  886MOL0     H19548   5.685   5.758   6.389  0.4253  0.4949 -0.2733
  886MOL0     H19549   5.478   5.642   6.275  0.3146 -0.9288 -0.7453
  886MOL0     H19550   5.457   5.557   6.419  0.4577 -2.6807 -1.3284
  886MOL0     H19551   5.727   5.566   6.304  1.4218 -1.8134  0.9912
  886MOL0     H19552   5.683   5.431   6.407 -0.4798 -0.6474 -0.4011
  886MOL0     H19553   5.497   5.394   6.208  0.4712 -1.7017 -2.2089
  886MOL0     H19554   5.614   5.486   6.127  2.8227 -0.2139  0.2016
  886MOL0     H19555   5.792   5.321   6.198 -1.7160  2.1672  1.4208
  886MOL0     H19556   5.648   5.229   6.256  0.3124  0.3172  0.9017
  886MOL0     H19557   5.715   5.324   5.975 -1.1843  0.3616 -1.2068
  886MOL0     H19558   5.575   5.223   6.017  0.9182 -1.7870 -2.6119
  886MOL0     H19559   5.740   5.040   6.087 -0.3662  1.1708  0.4444
  886MOL0     H19560   5.746   5.078   5.913 -1.6841 -4.2170  0.8090
  886MOL0     H19561   5.952   5.199   5.802 -0.9662 -0.6864 -0.0941
  886MOL0     H19562   6.214   5.241   5.765  0.8359  0.7585 -0.3757
  886MOL0     H19563   6.245   5.369   5.874  1.9058 -1.6170 -1.2584
  886MOL0     H19564   6.436   5.221   5.817  3.9511 -0.7773  2.8529
  886MOL0     H19565   6.412   5.232   5.990 -1.0686  0.3495  0.4089
  886MOL0     H19566   6.361   5.001   5.806  1.0741  2.0129 -0.4284
  886MOL0     H19567   6.314   4.982   5.981  4.7309 -1.3437  4.4992
  886MOL0     H19568   6.515   4.889   5.986 -1.0100  0.9393  0.8606
  886MOL0     H19569   6.543   5.043   6.034  1.3677 -0.5854 -0.8617
  886MOL0     H19570   6.466   4.794   5.765  0.7284 -1.5223 -0.0656
  886MOL0     H19571   6.514   4.648   5.585  0.6876  0.6322  0.1511
  886MOL0     H19572   6.602   4.741   5.095 -0.7550 -0.6367 -0.4409
  886MOL0     H19573   6.632   4.625   4.882 -1.7437  1.3713  3.0372
  886MOL0     H19574   6.718   4.369   4.772 -0.3449 -1.8481 -2.2202
  886MOL0     H19575   6.726   4.531   4.695  1.5551 -0.1297 -1.1708
  886MOL0     H19576   6.781   4.412   4.523  0.5825  2.5074 -0.3281
  886MOL0     H19577   6.932   4.474   4.581  0.4712 -1.8109 -1.0759
  886MOL0     H19578   6.979   4.264   4.698 -0.4593 -2.6148 -0.0530
  886MOL0     H19579   6.841   4.188   4.631  0.7560 -1.8099 -2.3637
  886MOL0     H19580   7.070   4.293   4.472  0.3397  1.9052  3.0415
  886MOL0     H19581   6.918   4.231   4.400 -0.7678 -0.4623  0.3626
  886MOL0     H19582   7.065   4.043   4.588 -0.5503 -2.6077 -0.0264
  886MOL0     H19583   7.125   4.078   4.417 -2.4586  1.0646 -2.5892
  886MOL0     H19584   6.980   3.871   4.457 -2.1810 -0.8163  3.1823
  886MOL0     H19585   6.854   3.984   4.480  0.2112  0.4376 -0.0270
  886MOL0     H19586   6.992   4.080   4.249 -2.4027  1.7911  0.0790
  886MOL0     H19587   6.834   4.042   4.274  0.9631  0.1091 -3.7268
  886MOL0     H19588   6.919   3.894   4.081 -0.0824  1.9234  0.5056
  886MOL0     H19589   7.030   3.816   4.195 -0.0536  0.9332 -2.3180
  886MOL0     H19590   7.010   4.486   5.023 -1.5039 -2.6454 -1.2795
  886MOL0     H19591   6.987   4.637   5.237 -1.8675  2.6128  1.5659
  886MOL0     H19592   6.864   4.892   5.495 -0.1074 -4.9880 -3.0922
  886MOL0     H19593   6.831   5.010   5.686 -0.7468 -0.5907  1.5034
  886MOL0     H19594   5.213   5.785   6.691 -0.6601 -1.5523  1.7287
  886MOL0     H19595   5.210   5.791   6.938  0.4112 -2.7870 -0.7065
  886MOL0     H19596   5.508   5.979   7.281 -0.7492  0.9862  0.5721
  886MOL0     H19597   5.515   6.043   7.506 -0.6516 -0.3511  0.3325
  886MOL0     H19598   5.373   5.885   7.922 -2.0457 -2.3272  1.8929
  886MOL0     H19599   5.391   5.737   7.835  1.1965 -0.3274  0.9682
  886MOL0     H19600   5.154   5.781   7.862  2.1175  0.4721  1.5335
  886MOL0     H19601   5.175   5.821   7.691  1.1623 -0.0026 -0.3818
  886MOL0     H19602   5.055   6.014   7.773 -0.0470  1.8836  0.5891
  886MOL0     H19603   5.227   6.056   7.762  1.0516 -3.2374 -1.3507
  886MOL0     H19604   5.053   6.131   7.962  3.7526  3.0142  0.3814
  886MOL0     H19605   5.077   5.971   8.022 -2.4252  3.2279  0.8336
  886MOL0     H19606   5.434   6.207   8.098 -1.8832  2.8593 -0.4145
  886MOL0     H19607   5.351   5.659   7.626 -3.0535 -2.1272 -1.3570
  886MOL0     H19608   5.235   5.552   7.318  1.0674  2.6433 -1.1239
  886MOL0     H19609   5.376   5.478   7.384  0.8941  0.4064 -2.0918
  886MOL0     H19610   5.232   5.529   7.489  0.4804  2.4655  0.1467
  887MOL0     O19611   4.304   4.123   2.643  0.2122 -0.2819 -0.9784
  887MOL0     C19612   4.353   4.239   2.657  0.3128  0.1612 -0.0199
  887MOL0     O19613   4.474   4.260   2.681  0.4731 -0.5156 -0.3051
  887MOL0     C19614   4.564   4.159   2.658  0.9299  0.3047 -0.0817
  887MOL0     C19615   4.669   4.185   2.579  0.9467 -0.1947 -0.3690
  887MOL0     C19616   4.776   4.100   2.554 -1.2524  0.4248 -0.9202
  887MOL0     C19617   4.778   3.978   2.620  0.4941 -0.6652  1.2651
  887MOL0     O19618   4.875   3.883   2.585 -0.8009 -0.8378  0.8738
  887MOL0     C19619   4.826   3.751   2.561 -0.4425 -0.4426  0.7635
  887MOL0     C19620   4.872   3.644   2.664 -0.9105 -1.3305  0.6606
  887MOL0     C19621   5.027   3.640   2.687  0.2021 -0.5509 -0.4241
  887MOL0     C19622   5.061   3.512   2.756  0.5966 -0.6324  0.2374
  887MOL0     C19623   5.209   3.524   2.813 -0.3007  0.0896 -0.0862
  887MOL0     C19624   5.238   3.415   2.914  0.8198  0.1714  0.2909
  887MOL0     C19625   5.365   3.428   3.005 -0.0492 -1.0910 -0.5305
  887MOL0     C19626   5.489   3.462   2.928 -0.5265  0.5721  0.5859
  887MOL0     N19627   5.536   3.352   2.834  0.3855  0.0012  0.9934
  887MOL0     C19628   5.595   3.230   2.867 -0.2592  1.0261 -1.2641
  887MOL0     C19629   5.635   3.177   2.754  0.6336  0.7534  0.2171
  887MOL0     C19630   5.738   3.066   2.731  0.3221 -0.1469  0.3298
  887MOL0     C19631   5.862   3.104   2.652  0.5297  0.6467 -0.2843
  887MOL0     C19632   5.930   2.982   2.612 -0.0233  0.7059 -0.0614
  887MOL0     C19633   6.003   2.912   2.730 -0.4120  0.9892  0.4117
  887MOL0     O19634   6.052   2.789   2.673  0.4442  0.0718 -0.6648
  887MOL0     C19635   5.987   2.670   2.683  0.7583 -0.0902 -1.4591
  887MOL0     C19636   5.849   2.646   2.716  0.4763 -0.2809  0.2422
  887MOL0     C19637   5.790   2.517   2.726  0.1580 -1.1093  0.2896
  887MOL0     C19638   5.876   2.403   2.713  0.4235  0.4236 -0.6146
  887MOL0     C19639   5.824   2.266   2.723  0.6827 -0.2367 -1.1641
  887MOL0     O19640   5.692   2.248   2.681 -0.2751  0.0865  0.1096
  887MOL0     C19641   5.644   2.120   2.683 -0.1713  0.5163 -0.1564
  887MOL0     C19642   5.639   2.052   2.555  0.2093 -0.7934 -0.9007
  887MOL0     C19643   5.617   1.918   2.563  0.0423 -0.2223 -0.5853
  887MOL0     C19644   5.591   1.842   2.682  0.2395 -1.1752 -0.4191
  887MOL0     O19645   5.586   1.705   2.665 -0.5958 -0.5598 -0.2029
  887MOL0     C19646   5.528   1.641   2.779  0.6154 -0.5696  0.2486
  887MOL0     C19647   5.528   1.493   2.750  0.5450  0.2020  0.2897
  887MOL0     C19648   5.518   1.395   2.862 -0.3130 -0.5341 -0.0161
  887MOL0     C19649   5.404   1.416   2.970  0.0522  0.2498  0.5243
  887MOL0     C19650   5.275   1.370   2.902 -0.2099 -1.1647 -0.4713
  887MOL0     C19651   5.151   1.372   2.980 -0.2977 -0.1886  0.0872
  887MOL0     C19652   5.128   1.498   3.065 -0.2764  0.5798 -0.3792
  887MOL0     C19653   4.983   1.522   3.079  1.5190 -0.1113  0.3695
  887MOL0    Cl19654   4.906   1.399   3.173 -0.3620  0.9360  0.1561
  887MOL0     C19655   5.608   1.913   2.806 -0.2203  0.0855  0.1097
  887MOL0     C19656   5.624   2.052   2.807  0.7196 -0.0128  0.5259
  887MOL0     O19657   5.898   2.184   2.778  0.4716  0.1041 -0.7287
  887MOL0     C19658   6.011   2.429   2.683  0.2301  0.1531 -0.8496
  887MOL0     C19659   6.063   2.551   2.666 -0.3220 -0.4034  1.2161
  887MOL0     N19660   5.589   3.258   2.651  0.5929  1.1425  0.2485
  887MOL0     N19661   5.534   3.351   2.695  0.1108  0.0023  0.2633
  887MOL0     C19662   4.667   3.945   2.699 -0.2325 -0.3479  0.1568
  887MOL0     C19663   4.558   4.028   2.726 -0.5857 -0.3908 -0.4902
  887MOL0     C19664   4.263   4.365   2.648  0.4788 -0.3399  0.9752
  887MOL0     C19665   4.272   4.470   2.749 -0.6475  0.0196 -0.4632
  887MOL0     C19666   4.179   4.574   2.760 -0.2029  0.1239  0.6268
  887MOL0     C19667   4.079   4.593   2.662 -0.0596  0.1409  1.0166
  887MOL0     O19668   3.999   4.703   2.686 -0.4744 -0.3357  0.3586
  887MOL0     C19669   3.926   4.764   2.574 -1.2460 -0.6179 -0.1138
  887MOL0     C19670   3.935   4.910   2.590 -0.0322  0.0368 -0.0540
  887MOL0     C19671   3.836   4.995   2.507  0.2589 -0.5855  0.0396
  887MOL0     C19672   3.884   5.135   2.493  0.2625  0.4230  0.2803
  887MOL0     C19673   3.783   5.229   2.454 -0.0486  0.0792 -0.2610
  887MOL0     C19674   3.704   5.312   2.434 -0.0493  0.2021 -0.8553
  887MOL0     C19675   4.056   4.485   2.574 -0.4195  0.1434  0.8992
  887MOL0     C19676   4.150   4.373   2.562  0.0527 -0.0131 -0.2512
  887MOL0     C19677   4.129   4.282   2.445 -0.3201  0.2495  0.3169
  887MOL0     H19678   4.666   4.290   2.548 -4.5399 -0.4661 -1.7226
  887MOL0     H19679   4.866   4.145   2.514  0.0131  2.4383  3.5891
  887MOL0     H19680   4.718   3.746   2.544 -0.6338  3.2816  0.0495
  887MOL0     H19681   4.876   3.735   2.466  0.9996  3.3295  0.7254
  887MOL0     H19682   4.826   3.554   2.625 -0.8175  0.0669 -3.0578
  887MOL0     H19683   4.831   3.654   2.765  1.7178  0.5064  1.6603
  887MOL0     H19684   5.047   3.722   2.757 -0.0611 -0.0644 -0.9045
  887MOL0     H19685   5.083   3.638   2.593  0.4012 -4.4225 -0.3780
  887MOL0     H19686   4.999   3.508   2.847  2.0611 -1.7946  1.2416
  887MOL0     H19687   5.033   3.423   2.699 -4.9048 -0.4259  2.0402
  887MOL0     H19688   5.286   3.519   2.736  1.5435  2.1887  1.4636
  887MOL0     H19689   5.229   3.618   2.866 -0.2708  0.0756 -0.0722
  887MOL0     H19690   5.143   3.413   2.970 -0.4398  1.7290 -1.6867
  887MOL0     H19691   5.231   3.324   2.854 -0.2958  0.8272 -0.6255
  887MOL0     H19692   5.371   3.331   3.056  3.3594 -0.0407  1.4094
  887MOL0     H19693   5.353   3.505   3.082 -0.4460 -1.5342 -0.1411
  887MOL0     H19694   5.477   3.553   2.869 -1.1300  0.6093  0.7583
  887MOL0     H19695   5.568   3.497   2.995  1.5068 -0.2533 -1.2786
  887MOL0     H19696   5.613   3.197   2.969 -2.7856  1.6744 -0.5395
  887MOL0     H19697   5.765   3.021   2.827 -2.2893  1.1366  1.7704
  887MOL0     H19698   5.683   2.988   2.677  0.8655 -1.3069  1.3874
  887MOL0     H19699   5.843   3.167   2.565  3.9249  2.3887  0.0683
  887MOL0     H19700   5.926   3.168   2.714  0.9060  2.0382 -2.0196
  887MOL0     H19701   6.008   2.998   2.537 -0.3086  2.4986  0.0018
  887MOL0     H19702   5.854   2.911   2.577  0.6581  0.2631 -0.6737
  887MOL0     H19703   5.929   2.907   2.810  0.4692  4.3721  1.6327
  887MOL0     H19704   6.087   2.968   2.773  1.1727 -2.2017  1.7628
  887MOL0     H19705   5.785   2.732   2.729  1.4562  0.0798  3.8514
  887MOL0     H19706   5.682   2.531   2.720  0.4353  1.3580  0.3303
  887MOL0     H19707   5.660   2.119   2.472 -1.0305  1.0751  0.1879
  887MOL0     H19708   5.622   1.867   2.467 -1.1782 -1.1939 -0.1657
  887MOL0     H19709   5.580   1.664   2.873 -1.4994 -2.2756  1.9529
  887MOL0     H19710   5.424   1.676   2.784  0.7842  0.0383 -0.3215
  887MOL0     H19711   5.450   1.470   2.678 -0.3058  1.4120  0.8023
  887MOL0     H19712   5.630   1.482   2.711 -0.0633  3.3521 -2.6026
  887MOL0     H19713   5.496   1.297   2.819  1.0242 -0.6316 -0.5306
  887MOL0     H19714   5.612   1.381   2.916 -1.1241  0.5890  1.8063
  887MOL0     H19715   5.399   1.517   3.011  4.0394  1.1562 -0.7829
  887MOL0     H19716   5.434   1.350   3.052  1.2460 -0.2570 -0.2909
  887MOL0     H19717   5.297   1.275   2.854 -2.5527 -1.9441 -0.1298
  887MOL0     H19718   5.261   1.428   2.810 -3.3430  1.7696  1.5756
  887MOL0     H19719   5.070   1.361   2.908 -0.2381  0.2229 -0.0446
  887MOL0     H19720   5.149   1.286   3.047  1.8424  0.6748  1.3618
  887MOL0     H19721   5.172   1.582   3.010  2.5614 -0.4173  0.2239
  887MOL0     H19722   5.179   1.488   3.161  0.9171 -0.5520 -1.0988
  887MOL0     H19723   4.967   1.622   3.119 -2.3925  1.3352 -3.8428
  887MOL0     H19724   4.922   1.520   2.988  2.1791 -2.7068 -0.1022
  887MOL0     H19725   5.596   1.865   2.903 -2.7086  0.3567  0.0059
  887MOL0     H19726   5.637   2.111   2.897 -1.3246  4.1762 -1.6368
  887MOL0     H19727   6.073   2.342   2.666  1.5050  1.1037 -1.2576
  887MOL0     H19728   6.166   2.562   2.636 -0.6044  0.4183  0.4983
  887MOL0     H19729   4.674   3.849   2.749 -1.4327 -0.1191  0.8033
  887MOL0     H19730   4.468   3.992   2.775  0.5066  0.0836  2.0636
  887MOL0     H19731   4.361   4.470   2.811  0.0597  0.2388 -1.4493
  887MOL0     H19732   4.190   4.649   2.838  1.7423 -0.9334  1.4618
  887MOL0     H19733   3.822   4.729   2.575 -1.5846  0.3643  0.5529
  887MOL0     H19734   3.969   4.748   2.474  4.0174  1.9179  1.4176
  887MOL0     H19735   4.041   4.934   2.576 -0.1805  1.0158  0.4251
  887MOL0     H19736   3.921   4.931   2.696 -0.6043  0.8188 -0.2757
  887MOL0     H19737   3.739   4.996   2.557  0.5626 -2.3670  0.7384
  887MOL0     H19738   3.830   4.967   2.401 -1.0568 -0.8060  0.1587
  887MOL0     H19739   3.918   5.165   2.593  2.0082 -0.0489 -0.1418
  887MOL0     H19740   3.969   5.151   2.427 -1.8128  0.1618 -2.6332
  887MOL0     H19741   3.634   5.393   2.440  0.1113  0.2416  1.6014
  887MOL0     H19742   3.957   4.489   2.530  0.6120  0.5880 -1.5096
  887MOL0     H19743   4.125   4.177   2.473  0.2490 -0.5850 -2.4643
  887MOL0     H19744   4.035   4.304   2.393  1.2723  1.2693 -2.3487
  887MOL0     H19745   4.202   4.299   2.366 -0.7558 -0.4604 -0.2491
  888MOL0     O19746  10.283   8.456   4.381 -0.4081 -0.4054 -0.9070
  888MOL0     C19747  10.250   8.375   4.289 -0.5599 -0.4186 -0.9401
  888MOL0     O19748  10.333   8.334   4.188  0.3199 -0.5291  0.2959
  888MOL0     C19749  10.456   8.383   4.185  0.5454 -2.0969 -0.9169
  888MOL0     C19750  10.504   8.486   4.097 -0.4169  0.1231 -0.3693
  888MOL0     C19751  10.637   8.530   4.119  0.0336  0.0959  0.4473
  888MOL0     C19752  10.731   8.479   4.208  0.2381  0.7872  0.1682
  888MOL0     O19753  10.855   8.536   4.195  0.1378  0.9031  0.1657
  888MOL0     C19754  10.960   8.512   4.305 -0.0562  0.2826 -0.0016
  888MOL0     C19755  11.104   8.563   4.261  0.1549  0.7179 -0.3723
  888MOL0     C19756  11.087   8.706   4.209 -0.5697 -0.9017 -0.2826
  888MOL0     C19757  11.236   8.765   4.205 -0.7595  0.0440  0.2157
  888MOL0     C19758  11.235   8.897   4.138 -0.4320  0.5483  0.2926
  888MOL0     C19759  11.372   8.963   4.153  0.0414 -0.3248 -0.3368
  888MOL0     C19760  11.359   9.113   4.108 -0.1575 -0.0413 -0.1742
  888MOL0     C19761  11.284   9.206   4.198  0.4783  0.1391 -0.5263
  888MOL0     N19762  11.308   9.174   4.341  0.0392 -0.0145  0.3390
  888MOL0     C19763  11.217   9.108   4.418 -0.1524 -0.4097  0.2745
  888MOL0     C19764  11.270   9.096   4.540 -0.8266  0.5376  0.0790
  888MOL0     C19765  11.222   9.031   4.665  0.1511  0.0617  0.3680
  888MOL0     C19766  11.249   8.886   4.694  0.4069 -0.5996 -0.4238
  888MOL0     C19767  11.154   8.806   4.611 -0.0971  0.5832  0.1578
  888MOL0     C19768  11.135   8.655   4.649 -0.2431  0.7016 -0.3006
  888MOL0     O19769  11.271   8.603   4.643 -0.7463  0.3037 -0.1985
  888MOL0     C19770  11.303   8.481   4.702  0.4452 -0.2127 -0.2490
  888MOL0     C19771  11.440   8.446   4.718  0.6211  0.1684  0.2866
  888MOL0     C19772  11.475   8.328   4.788 -0.6819  0.4941  0.5233
  888MOL0     C19773  11.376   8.244   4.833  0.3081  0.3752 -0.6466
  888MOL0     C19774  11.403   8.121   4.906 -0.4435 -0.1630  0.8193
  888MOL0     O19775  11.289   8.094   4.995  0.7183  0.3066  0.3404
  888MOL0     C19776  11.290   7.980   5.067  0.2301 -0.0269 -0.2803
  888MOL0     C19777  11.170   7.920   5.097  0.7551  0.8105  0.4711
  888MOL0     C19778  11.165   7.815   5.179  0.4638  0.0008  0.0655
  888MOL0     C19779  11.282   7.771   5.258  0.1862 -0.8824 -0.1748
  888MOL0     O19780  11.273   7.675   5.355 -0.2597  0.5891  0.7971
  888MOL0     C19781  11.166   7.574   5.351  1.2123  0.2627 -1.2673
  888MOL0     C19782  11.191   7.490   5.476  0.5040  0.1704  0.2487
  888MOL0     C19783  11.082   7.389   5.491  0.4605  1.4280  0.2178
  888MOL0     C19784  11.064   7.278   5.382 -0.4755  0.6610 -0.5415
  888MOL0     C19785  10.985   7.159   5.440 -0.2295  0.6377  0.4258
  888MOL0     C19786  11.036   7.026   5.386  0.5780 -0.1340  0.1239
  888MOL0     C19787  10.950   6.903   5.431 -0.4101 -0.2746 -0.0329
  888MOL0     C19788  10.949   6.787   5.331  0.3429  0.7579 -0.5318
  888MOL0    Cl19789  11.122   6.753   5.282  0.3117 -0.0445 -0.0867
  888MOL0     C19790  11.396   7.842   5.230  0.7095  0.4674 -1.0554
  888MOL0     C19791  11.397   7.952   5.147 -0.3953 -0.6650 -0.3712
  888MOL0     O19792  11.504   8.057   4.881 -0.4062 -0.2240 -0.0201
  888MOL0     C19793  11.240   8.280   4.818 -0.2817 -0.0750 -0.6341
  888MOL0     C19794  11.210   8.407   4.768 -0.4797  0.0842 -0.4044
  888MOL0     N19795  11.395   9.153   4.537 -0.8027 -0.6209  0.2774
  888MOL0     N19796  11.419   9.207   4.416  1.0564  0.3449  0.5904
  888MOL0     C19797  10.682   8.376   4.298 -0.0675 -0.6645  0.1856
  888MOL0     C19798  10.547   8.330   4.278 -0.5248  0.4736 -0.5638
  888MOL0     C19799  10.111   8.349   4.263 -0.0316 -0.6538  0.4460
  888MOL0     C19800  10.079   8.260   4.153 -0.2190  0.5031  0.0667
  888MOL0     C19801   9.951   8.241   4.101  0.5258 -0.3032  0.5790
  888MOL0     C19802   9.837   8.296   4.172  0.0358 -0.4044 -0.6537
  888MOL0     O19803   9.719   8.275   4.117  0.8153 -0.6568  0.3127
  888MOL0     C19804   9.615   8.229   4.208  0.2699  0.2244 -0.8528
  888MOL0     C19805   9.670   8.088   4.270 -0.7038 -0.5486  0.4975
  888MOL0     C19806   9.710   7.990   4.163 -0.7094 -0.4277  0.8414
  888MOL0     C19807   9.603   7.940   4.066 -0.0591 -0.4439 -0.1440
  888MOL0     C19808   9.461   7.958   4.088 -1.1559 -0.4917 -0.1489
  888MOL0     C19809   9.339   7.947   4.101 -0.2485 -0.0702  0.6291
  888MOL0     C19810   9.859   8.375   4.280 -0.5599 -0.3368 -0.4782
  888MOL0     C19811   9.992   8.400   4.330  0.0601 -0.4466 -0.0825
  888MOL0     C19812   9.999   8.467   4.459  0.0587 -0.0263 -1.0011
  888MOL0     H19813  10.455   8.549   4.023 -1.2149  2.6630  2.1743
  888MOL0     H19814  10.680   8.603   4.052  0.0299  0.0288  0.3721
  888MOL0     H19815  10.932   8.557   4.400 -1.3588  3.1364 -1.5846
  888MOL0     H19816  10.958   8.406   4.328 -0.2162  0.7384  2.2662
  888MOL0     H19817  11.145   8.502   4.180  2.7128  1.8707 -0.0192
  888MOL0     H19818  11.177   8.551   4.341  0.0107  1.4167 -0.1357
  888MOL0     H19819  11.021   8.758   4.279 -0.2389 -1.0168  0.1269
  888MOL0     H19820  11.048   8.703   4.107  0.1276  0.6278 -0.6105
  888MOL0     H19821  11.263   8.767   4.311 -4.4941 -1.4918  1.3795
  888MOL0     H19822  11.304   8.696   4.156 -1.8905 -0.3827 -0.7994
  888MOL0     H19823  11.217   8.884   4.031  2.6793  1.4394 -0.4581
  888MOL0     H19824  11.159   8.959   4.186 -0.2741  0.7664  0.2667
  888MOL0     H19825  11.403   8.964   4.258  1.4929  3.6442 -0.6410
  888MOL0     H19826  11.445   8.895   4.108 -2.8292 -3.7633 -0.2600
  888MOL0     H19827  11.324   9.119   4.004 -0.6436  0.2218 -0.0021
  888MOL0     H19828  11.457   9.161   4.107 -1.3262  2.5199 -0.3551
  888MOL0     H19829  11.310   9.311   4.184 -1.9909  0.9661  0.5129
  888MOL0     H19830  11.177   9.197   4.176  0.6477 -1.9689 -0.7568
  888MOL0     H19831  11.114   9.077   4.403  0.3698 -1.9645 -0.2545
  888MOL0     H19832  11.265   9.083   4.751  2.3304 -2.5131  0.9873
  888MOL0     H19833  11.114   9.048   4.663  0.3260  1.2096  0.0670
  888MOL0     H19834  11.357   8.873   4.679  0.2963 -0.7359 -1.1230
  888MOL0     H19835  11.228   8.870   4.801 -2.1301  2.9160 -0.2002
  888MOL0     H19836  11.202   8.808   4.512 -0.8363  1.7519 -0.2134
  888MOL0     H19837  11.052   8.845   4.600 -1.4942 -2.7793  0.2709
  888MOL0     H19838  11.069   8.616   4.571  1.9089  2.7097 -3.3458
  888MOL0     H19839  11.102   8.647   4.753 -0.7727 -0.2748 -0.5282
  888MOL0     H19840  11.512   8.522   4.691  0.9468 -0.3094 -0.2013
  888MOL0     H19841  11.578   8.297   4.797  0.0428  1.9292 -1.8302
  888MOL0     H19842  11.074   7.950   5.058  1.1814 -0.9367 -2.1799
  888MOL0     H19843  11.076   7.770   5.221 -1.3711 -1.3038 -4.6075
  888MOL0     H19844  11.069   7.624   5.354 -0.1899 -2.2375 -1.7136
  888MOL0     H19845  11.187   7.517   5.260  0.4384 -0.8581 -0.7585
  888MOL0     H19846  11.282   7.430   5.472  0.8235  0.7199 -2.4763
  888MOL0     H19847  11.183   7.554   5.565  0.1494  0.5556 -0.0584
  888MOL0     H19848  11.093   7.334   5.585  0.3197  1.0419  0.0110
  888MOL0     H19849  10.984   7.437   5.498 -1.1213 -1.3422 -1.1335
  888MOL0     H19850  11.165   7.242   5.357 -0.8200 -0.6202 -0.1407
  888MOL0     H19851  11.017   7.308   5.288  0.6914  2.6185 -0.5595
  888MOL0     H19852  10.879   7.166   5.416 -0.7139  0.8957  2.4233
  888MOL0     H19853  10.985   7.139   5.548 -0.2071 -0.7123  0.1939
  888MOL0     H19854  11.041   7.024   5.277  0.2305 -2.7068  0.0969
  888MOL0     H19855  11.137   7.018   5.430 -0.7681  0.9784  3.8343
  888MOL0     H19856  10.843   6.923   5.441 -0.5350 -1.9845  2.9873
  888MOL0     H19857  10.991   6.860   5.522 -1.7070 -2.6177 -0.4752
  888MOL0     H19858  10.904   6.698   5.374  0.6787  1.0829  0.5261
  888MOL0     H19859  10.891   6.819   5.243 -2.9949 -1.0921  0.8109
  888MOL0     H19860  11.479   7.818   5.296  1.2202  3.7553 -0.2812
  888MOL0     H19861  11.485   8.016   5.141  0.4287 -1.8351 -1.1348
  888MOL0     H19862  11.151   8.234   4.860 -0.0449 -0.6461 -0.7563
  888MOL0     H19863  11.104   8.427   4.768 -0.6903 -0.8274 -2.0328
  888MOL0     H19864  10.746   8.343   4.379  0.6532  1.8932  0.7261
  888MOL0     H19865  10.518   8.243   4.336 -0.6753  3.0437  3.6122
  888MOL0     H19866  10.156   8.204   4.101  1.2356 -0.7227  3.2752
  888MOL0     H19867   9.929   8.183   4.013  0.3920 -2.4798  1.9744
  888MOL0     H19868   9.518   8.222   4.158 -0.5360 -1.0240  0.8041
  888MOL0     H19869   9.589   8.294   4.292  0.6513 -1.9747  1.0693
  888MOL0     H19870   9.578   8.044   4.310  0.6243 -3.4985  0.5610
  888MOL0     H19871   9.736   8.091   4.358  0.3379 -1.2976 -0.2381
  888MOL0     H19872   9.747   7.906   4.222  3.4948  1.7037  1.5979
  888MOL0     H19873   9.799   8.021   4.109 -1.3402 -0.2015 -0.1078
  888MOL0     H19874   9.633   8.003   3.982 -0.2812 -0.5598 -0.3106
  888MOL0     H19875   9.623   7.834   4.044  3.9858  0.2136 -0.4447
  888MOL0     H19876   9.233   7.935   4.092 -0.1237 -0.8692  0.1541
  888MOL0     H19877   9.783   8.420   4.342 -0.4032 -1.6612  0.7200
  888MOL0     H19878  10.024   8.574   4.452  1.0699 -0.3340 -2.3852
  888MOL0     H19879   9.911   8.460   4.524  1.0479  1.0696  0.5304
  888MOL0     H19880  10.078   8.429   4.524  0.3141 -0.8015 -1.7624
  889MOL0     O19881   9.927   5.998   0.722 -0.3092  0.1698 -0.4281
  889MOL0     C19882   9.983   5.940   0.816  0.8104  0.8044  0.2175
  889MOL0     O19883   9.920   5.865   0.908 -0.3161  0.0336 -0.3733
  889MOL0     C19884   9.790   5.846   0.875  0.3523  0.5848 -0.2240
  889MOL0     C19885   9.753   5.708   0.849 -0.6566 -0.8742  0.8079
  889MOL0     C19886   9.616   5.682   0.833 -0.9580 -0.3261  0.0659
  889MOL0     C19887   9.520   5.776   0.860  0.5943 -0.1555 -0.0171
  889MOL0     O19888   9.394   5.732   0.855  0.1858 -0.3017 -0.2205
  889MOL0     C19889   9.305   5.785   0.955 -0.1554  0.2121 -0.0932
  889MOL0     C19890   9.212   5.883   0.882  0.1436  0.0773  0.0543
  889MOL0     C19891   9.078   5.909   0.950  0.6229 -0.4696 -0.3048
  889MOL0     C19892   8.978   5.975   0.855  0.0630 -0.0706  0.2864
  889MOL0     C19893   8.869   6.058   0.913  0.6390 -0.6819 -1.1449
  889MOL0     C19894   8.771   6.112   0.807  0.1203 -0.0689  0.5698
  889MOL0     C19895   8.656   6.014   0.792 -0.5205  0.7859  0.2643
  889MOL0     C19896   8.551   6.054   0.685 -0.2720 -0.2640 -0.9714
  889MOL0     N19897   8.502   6.193   0.699  1.1318  0.3710 -0.4112
  889MOL0     C19898   8.556   6.294   0.628  0.3098 -0.1818  0.2874
  889MOL0     C19899   8.488   6.410   0.663  0.6511 -0.4969 -0.5496
  889MOL0     C19900   8.531   6.545   0.620  0.3808 -0.1960 -0.0894
  889MOL0     C19901   8.433   6.639   0.534  0.5048 -0.3586  0.5243
  889MOL0     C19902   8.400   6.564   0.401 -0.0663  0.1587 -1.1592
  889MOL0     C19903   8.320   6.639   0.300 -0.6152 -0.3498  1.4051
  889MOL0     O19904   8.353   6.603   0.167 -0.1603 -0.0347 -0.1549
  889MOL0     C19905   8.278   6.657   0.065  0.5813 -0.2040 -0.1326
  889MOL0     C19906   8.148   6.722   0.082  0.5171  0.0118 -0.7320
  889MOL0     C19907   8.079   6.784  -0.026 -0.2038 -0.3625 -0.3225
  889MOL0     C19908   8.131   6.768  -0.158 -0.3825 -0.3711  0.0047
  889MOL0     C19909   8.059   6.831  -0.277  0.0968 -0.4474 -0.1880
  889MOL0     O19910   7.979   6.932  -0.235  0.1960 -0.2534  0.3126
  889MOL0     C19911   7.911   7.003  -0.339 -0.2642  0.1557 -0.2461
  889MOL0     C19912   7.990   7.103  -0.412  0.6312 -1.0893  0.3148
  889MOL0     C19913   7.935   7.165  -0.517 -0.0384 -0.1074  0.1399
  889MOL0     C19914   7.799   7.143  -0.547  0.1398 -0.2328 -0.7240
  889MOL0     O19915   7.740   7.203  -0.659  0.1387 -0.4495 -1.1487
  889MOL0     C19916   7.648   7.132  -0.732  1.1360 -0.3271  0.0504
  889MOL0     C19917   7.525   7.213  -0.755 -0.8149 -0.7479 -0.9560
  889MOL0     C19918   7.445   7.167  -0.881 -0.5592 -0.1128  1.0657
  889MOL0     C19919   7.425   7.282  -0.982 -0.4471  0.0391 -0.5662
  889MOL0     C19920   7.327   7.244  -1.089  0.7470  0.1729  0.4867
  889MOL0     C19921   7.329   7.360  -1.188 -0.8523 -0.5531  0.8742
  889MOL0     C19922   7.258   7.310  -1.313  0.7463  1.0097  0.2022
  889MOL0     C19923   7.242   7.408  -1.423 -0.5569 -0.4948  0.6269
  889MOL0    Cl19924   7.158   7.320  -1.550 -0.7547 -0.0223  0.0088
  889MOL0     C19925   7.722   7.061  -0.472  0.2443 -0.3684 -0.5359
  889MOL0     C19926   7.774   6.984  -0.366 -0.5036  0.3236 -0.2995
  889MOL0     O19927   8.077   6.795  -0.390 -0.0112  0.1344  0.4732
  889MOL0     C19928   8.261   6.715  -0.171 -0.2003 -0.5245  0.7101
  889MOL0     C19929   8.331   6.659  -0.064 -0.7309  0.8542 -0.3683
  889MOL0     N19930   8.380   6.373   0.738 -0.1275 -0.8245  0.0720
  889MOL0     N19931   8.395   6.248   0.764 -0.1468 -0.0929  0.9291
  889MOL0     C19932   9.560   5.904   0.894 -0.0758 -0.1664 -0.3633
  889MOL0     C19933   9.689   5.937   0.904 -0.8942  0.1832  0.0451
  889MOL0     C19934  10.125   5.949   0.851  0.1735 -0.9830  0.5727
  889MOL0     C19935  10.171   5.881   0.975  0.0291 -0.7219  0.0860
  889MOL0     C19936  10.313   5.870   0.997  0.4640 -0.2742  0.1177
  889MOL0     C19937  10.402   5.933   0.911  0.1541 -0.2572 -0.2140
  889MOL0     O19938  10.536   5.916   0.932  0.3495  0.5017  0.0592
  889MOL0     C19939  10.588   5.774   0.907 -0.3854 -0.7486 -0.6283
  889MOL0     C19940  10.529   5.716   0.778 -0.0524 -0.0098 -0.8863
  889MOL0     C19941  10.602   5.577   0.754  0.1735 -0.3933 -0.7383
  889MOL0     C19942  10.501   5.459   0.744  0.0517  0.1738  0.4876
  889MOL0     C19943  10.399   5.471   0.633 -0.2448  0.0083  0.2703
  889MOL0     C19944  10.330   5.477   0.533 -0.3412  0.7169 -0.4700
  889MOL0     C19945  10.358   6.002   0.803  0.4641  0.2681 -0.2401
  889MOL0     C19946  10.219   6.007   0.767  0.2326  0.2382  0.6717
  889MOL0     C19947  10.178   6.085   0.640 -0.3544  0.0431 -0.9381
  889MOL0     H19948   9.813   5.620   0.829 -2.1665 -1.5065 -1.2548
  889MOL0     H19949   9.592   5.583   0.796 -0.0234 -0.6009  0.1913
  889MOL0     H19950   9.258   5.698   1.002  0.8356 -0.4672 -0.3375
  889MOL0     H19951   9.356   5.840   1.035 -1.8067  0.7349  0.6593
  889MOL0     H19952   9.188   5.856   0.778 -4.2734 -0.9418  1.1573
  889MOL0     H19953   9.267   5.976   0.866  1.9667 -0.9250  0.1909
  889MOL0     H19954   9.078   5.970   1.041  0.2517 -0.1065 -0.5478
  889MOL0     H19955   9.027   5.818   0.984 -0.0015 -1.0299 -2.5855
  889MOL0     H19956   9.035   6.038   0.788  0.9553  0.1895  1.2644
  889MOL0     H19957   8.943   5.894   0.791 -0.4860 -1.1590  1.8855
  889MOL0     H19958   8.814   5.992   0.980  1.3472  0.0350  0.1804
  889MOL0     H19959   8.912   6.153   0.946 -1.7048 -0.5030  1.9248
  889MOL0     H19960   8.746   6.217   0.822  2.1743  0.4701  0.5877
  889MOL0     H19961   8.819   6.109   0.708  2.2633 -1.6007  1.5661
  889MOL0     H19962   8.608   5.991   0.887 -0.4284  0.2206  0.1805
  889MOL0     H19963   8.707   5.923   0.757 -0.2273  1.5902 -1.5201
  889MOL0     H19964   8.592   6.046   0.584 -0.9739  0.8863 -1.3674
  889MOL0     H19965   8.472   5.979   0.688 -0.2813 -0.3085 -2.0466
  889MOL0     H19966   8.649   6.282   0.573  0.0886 -2.2336  0.2807
  889MOL0     H19967   8.536   6.593   0.718  1.7692  0.5485 -0.4865
  889MOL0     H19968   8.629   6.547   0.571  0.7905  0.8133  0.7239
  889MOL0     H19969   8.338   6.668   0.579 -0.3441  1.5656 -2.2399
  889MOL0     H19970   8.486   6.727   0.499 -1.2204 -0.3831 -2.5390
  889MOL0     H19971   8.351   6.472   0.435  4.3369 -1.1753  2.6065
  889MOL0     H19972   8.498   6.551   0.356  1.8154  0.8810  2.3343
  889MOL0     H19973   8.321   6.748   0.309  0.6875  0.2099 -3.2623
  889MOL0     H19974   8.212   6.628   0.315 -1.1689  2.5449  0.1909
  889MOL0     H19975   8.087   6.721   0.172  0.9907 -0.0194 -0.4064
  889MOL0     H19976   7.987   6.840  -0.012 -0.3650 -0.5246 -0.7194
  889MOL0     H19977   8.095   7.123  -0.396  0.3420  2.5735 -1.4086
  889MOL0     H19978   8.000   7.225  -0.580 -0.1056  0.8455  0.9603
  889MOL0     H19979   7.700   7.126  -0.828  1.5665 -3.4228  0.3825
  889MOL0     H19980   7.632   7.028  -0.703 -0.5049 -0.5348 -1.3996
  889MOL0     H19981   7.453   7.203  -0.674 -1.0324  2.5889 -0.6063
  889MOL0     H19982   7.553   7.318  -0.769 -2.2534 -0.6094 -3.3867
  889MOL0     H19983   7.483   7.084  -0.941  1.4226  1.7262 -0.4040
  889MOL0     H19984   7.345   7.143  -0.844 -0.7363  1.7367  1.8920
  889MOL0     H19985   7.521   7.309  -1.027 -0.1228 -0.4103 -0.1550
  889MOL0     H19986   7.389   7.373  -0.933  1.2427 -0.4521  1.7454
  889MOL0     H19987   7.226   7.230  -1.050  0.8200 -2.5719 -0.0637
  889MOL0     H19988   7.352   7.152  -1.143 -0.1032 -0.6178  1.3867
  889MOL0     H19989   7.278   7.445  -1.141 -1.5352 -1.2071  1.3442
  889MOL0     H19990   7.431   7.385  -1.217 -1.4832  3.9984  1.8980
  889MOL0     H19991   7.160   7.270  -1.285  0.8122  0.0725 -0.8450
  889MOL0     H19992   7.309   7.221  -1.350  0.7085  1.6929 -1.5606
  889MOL0     H19993   7.181   7.495  -1.397 -1.5973 -1.4783  1.6130
  889MOL0     H19994   7.343   7.436  -1.455 -1.8015  1.6606 -1.6891
  889MOL0     H19995   7.614   7.058  -0.488  0.1268  0.0951  0.1059
  889MOL0     H19996   7.707   6.927  -0.302  2.3009 -1.5472  1.1836
  889MOL0     H19997   8.305   6.707  -0.270 -1.9403  1.8468 -0.3443
  889MOL0     H19998   8.432   6.622  -0.076 -1.3335 -0.5844 -1.3784
  889MOL0     H19999   9.488   5.982   0.917 -1.0502 -0.1966 -2.9212
  889MOL0     H20000   9.720   6.032   0.945  1.0273  1.8077 -4.5784
  889MOL0     H20001  10.098   5.840   1.045 -1.4138  2.4521  0.5929
  889MOL0     H20002  10.351   5.818   1.085 -1.0064 -1.6725 -0.0314
  889MOL0     H20003  10.561   5.704   0.987  1.9653 -1.0167 -0.0078
  889MOL0     H20004  10.697   5.772   0.900 -0.1840 -0.8714  1.6548
  889MOL0     H20005  10.537   5.790   0.697 -1.4944 -1.2056 -2.1730
  889MOL0     H20006  10.424   5.689   0.791  0.3851 -1.5515 -0.4578
  889MOL0     H20007  10.675   5.557   0.833  0.6966  0.1947 -1.0579
  889MOL0     H20008  10.648   5.586   0.655  0.6088  3.2782 -0.3281
  889MOL0     H20009  10.557   5.366   0.732  1.2706  0.7937  1.2129
  889MOL0     H20010  10.456   5.468   0.844  3.0235  1.0271  1.8746
  889MOL0     H20011  10.279   5.483   0.440 -1.3328  4.2870  0.1679
  889MOL0     H20012  10.436   6.045   0.741  0.4037  3.2577  1.5807
  889MOL0     H20013  10.120   6.172   0.671  0.5528 -0.0853  1.3014
  889MOL0     H20014  10.268   6.131   0.598  0.5494  2.0887  2.8582
  889MOL0     H20015  10.134   6.017   0.566  3.8170 -2.3058 -1.5975
  890MOL0     O20016   9.891   2.964   5.596 -0.1292 -0.3211 -0.9478
  890MOL0     C20017   9.806   2.974   5.685  0.0898  0.1550  0.5692
  890MOL0     O20018   9.692   2.897   5.691  0.2997  0.0262 -1.0637
  890MOL0     C20019   9.689   2.777   5.631  0.3922  0.0397 -0.1068
  890MOL0     C20020   9.797   2.691   5.600  1.1507  0.2807  0.2011
  890MOL0     C20021   9.765   2.564   5.555 -0.6426  0.0126  0.4560
  890MOL0     C20022   9.641   2.522   5.504  0.0046  0.1271  0.0070
  890MOL0     O20023   9.613   2.401   5.437 -0.4351 -0.1259  0.8243
  890MOL0     C20024   9.677   2.281   5.490 -0.7013 -0.4575 -0.4069
  890MOL0     C20025   9.623   2.158   5.423  0.2831  0.2299  0.4505
  890MOL0     C20026   9.699   2.029   5.467 -0.0824  0.2707 -0.1497
  890MOL0     C20027   9.621   1.949   5.574  0.1917 -0.1398 -0.4265
  890MOL0     C20028   9.697   1.837   5.644 -0.4257 -0.5099 -1.5082
  890MOL0     C20029   9.793   1.750   5.559 -0.4251  0.8972 -0.3098
  890MOL0     C20030   9.705   1.664   5.473  0.1425  0.4623  1.4852
  890MOL0     C20031   9.796   1.557   5.395  0.8813 -0.0523 -0.4963
  890MOL0     N20032   9.909   1.611   5.317  0.2864 -0.5385 -0.4446
  890MOL0     C20033  10.043   1.583   5.338 -0.3168 -0.4519  0.4637
  890MOL0     C20034  10.113   1.662   5.245  0.1915 -0.7004 -0.1119
  890MOL0     C20035  10.269   1.684   5.233  0.6894 -0.4065 -0.1885
  890MOL0     C20036  10.319   1.623   5.098  0.2562 -0.4185  0.2382
  890MOL0     C20037  10.287   1.727   4.984 -0.5017  0.4877  0.3445
  890MOL0     C20038  10.332   1.683   4.848 -0.2678 -0.1237  0.3863
  890MOL0     O20039  10.266   1.774   4.759 -0.1433 -0.0267 -0.1817
  890MOL0     C20040  10.321   1.789   4.636  0.0080  0.0997  0.4476
  890MOL0     C20041  10.442   1.733   4.579 -0.3948  0.7421 -0.0816
  890MOL0     C20042  10.491   1.774   4.454  0.0874  0.3157  0.2379
  890MOL0     C20043  10.418   1.868   4.379 -1.0776 -0.1463  0.0930
  890MOL0     C20044  10.458   1.899   4.234  1.1628 -0.7296  0.4984
  890MOL0     O20045  10.368   1.994   4.172  0.5950  0.0364  1.0800
  890MOL0     C20046  10.400   2.028   4.043  0.2801 -0.0617  0.7949
  890MOL0     C20047  10.490   2.130   4.022 -0.0483 -0.4447  0.4171
  890MOL0     C20048  10.530   2.167   3.888  0.5595 -1.0088 -0.0227
  890MOL0     C20049  10.487   2.097   3.777 -0.1111  0.3028 -0.9882
  890MOL0     O20050  10.519   2.136   3.646  1.0462 -0.9005 -0.5587
  890MOL0     C20051  10.579   2.048   3.553 -0.9083  0.0605 -0.0347
  890MOL0     C20052  10.739   2.029   3.551  0.2444 -0.5039 -0.5607
  890MOL0     C20053  10.798   1.907   3.478  0.0667 -0.0486 -0.4987
  890MOL0     C20054  10.954   1.888   3.505  1.1024 -1.0010 -0.0636
  890MOL0     C20055  11.009   1.755   3.462  0.7328  0.0592  1.3489
  890MOL0     C20056  11.025   1.635   3.563 -0.5732 -0.6470 -0.2326
  890MOL0     C20057  11.149   1.563   3.517 -0.1534  0.1314 -0.1177
  890MOL0     C20058  11.184   1.454   3.620 -0.8262  1.2389  0.8529
  890MOL0    Cl20059  11.320   1.368   3.547 -0.2911  0.1203 -0.5233
  890MOL0     C20060  10.406   1.985   3.804 -0.1200 -1.0109  0.1237
  890MOL0     C20061  10.361   1.959   3.932 -0.1802  0.4481  0.1134
  890MOL0     O20062  10.551   1.851   4.175  0.4000  0.5976 -0.4562
  890MOL0     C20063  10.317   1.937   4.442 -0.3076  0.1748 -0.8585
  890MOL0     C20064  10.269   1.891   4.566 -0.4874 -0.7259 -0.4747
  890MOL0     N20065  10.023   1.734   5.179 -0.0501 -0.6886 -0.2070
  890MOL0     N20066   9.900   1.693   5.209  0.4614  0.4270  0.1591
  890MOL0     C20067   9.537   2.611   5.544 -0.3105  0.3041  0.2600
  890MOL0     C20068   9.563   2.732   5.611 -0.4989 -0.5086  0.1888
  890MOL0     C20069   9.832   3.084   5.787 -0.1638  0.9654  0.3767
  890MOL0     C20070   9.734   3.086   5.884  1.2337  0.7121  0.4634
  890MOL0     C20071   9.726   3.184   5.977 -0.6734 -0.0325 -0.2519
  890MOL0     C20072   9.837   3.276   5.990  0.5174 -0.1427  0.9065
  890MOL0     O20073   9.835   3.363   6.093  0.2091  0.0668 -0.4026
  890MOL0     C20074   9.852   3.507   6.077  0.5394  0.3606 -0.2285
  890MOL0     C20075   9.747   3.570   5.984 -0.0359  0.0145  0.9120
  890MOL0     C20076   9.779   3.708   5.933  0.1376  1.0016 -0.1094
  890MOL0     C20077   9.862   3.730   5.803 -0.2885  0.1593 -0.0379
  890MOL0     C20078   9.972   3.638   5.788  0.6407  0.9418  0.7265
  890MOL0     C20079  10.078   3.581   5.767 -1.2166 -0.1021 -0.4679
  890MOL0     C20080   9.945   3.261   5.909 -0.1709  0.3975 -0.2967
  890MOL0     C20081   9.948   3.167   5.806 -0.6018  1.2430 -0.5844
  890MOL0     C20082  10.088   3.124   5.744  1.0082  0.1845 -0.3614
  890MOL0     H20083   9.901   2.715   5.622  0.8485  0.5795  1.4129
  890MOL0     H20084   9.852   2.505   5.528  0.6433  2.3777 -0.9235
  890MOL0     H20085   9.786   2.292   5.482 -0.3809  0.9918  3.5322
  890MOL0     H20086   9.658   2.274   5.598 -1.8437  0.4489 -0.5321
  890MOL0     H20087   9.648   2.154   5.316 -0.7708  0.4525  0.1790
  890MOL0     H20088   9.517   2.141   5.445  0.3414 -0.0163  0.5484
  890MOL0     H20089   9.792   2.072   5.503  0.0173  0.3937 -0.5492
  890MOL0     H20090   9.723   1.966   5.381 -1.2447  0.6246 -0.7548
  890MOL0     H20091   9.607   2.017   5.659  2.5105 -1.2007  0.8901
  890MOL0     H20092   9.524   1.911   5.542 -0.7511 -0.2795  2.3326
  890MOL0     H20093   9.757   1.889   5.719  0.6428 -0.9111 -2.0639
  890MOL0     H20094   9.630   1.765   5.692  0.2081 -1.1099 -1.4967
  890MOL0     H20095   9.865   1.803   5.497  1.9155 -1.4503  0.2294
  890MOL0     H20096   9.841   1.682   5.630 -0.0937  3.0405  1.6353
  890MOL0     H20097   9.649   1.716   5.395 -0.9166 -0.5947  1.5022
  890MOL0     H20098   9.628   1.612   5.532 -0.3280 -0.4456  0.1193
  890MOL0     H20099   9.826   1.481   5.468  1.0418  3.5991  3.6383
  890MOL0     H20100   9.724   1.505   5.330  1.5073 -2.4126  0.6100
  890MOL0     H20101  10.091   1.510   5.402 -1.0370  0.0904  1.6326
  890MOL0     H20102  10.281   1.792   5.244 -0.0368 -0.2608 -0.7559
  890MOL0     H20103  10.319   1.632   5.316 -0.9276 -1.8543 -0.0745
  890MOL0     H20104  10.427   1.606   5.102  0.4603  0.3408 -1.2818
  890MOL0     H20105  10.271   1.527   5.077 -2.3002 -0.2129  4.2038
  890MOL0     H20106  10.324   1.829   5.001  2.8286 -0.7542  1.3433
  890MOL0     H20107  10.178   1.729   4.978 -0.5035 -0.0221  0.1389
  890MOL0     H20108  10.281   1.588   4.827 -3.2691  1.4839 -0.2563
  890MOL0     H20109  10.440   1.678   4.831  0.0250  2.2110  1.2035
  890MOL0     H20110  10.495   1.651   4.625  1.2295 -0.6818 -4.0458
  890MOL0     H20111  10.575   1.730   4.401 -1.9145  0.0919 -3.0159
  890MOL0     H20112  10.519   2.195   4.104  3.3727 -1.6421  0.3045
  890MOL0     H20113  10.588   2.258   3.884 -0.0604 -0.5375  1.1959
  890MOL0     H20114  10.537   1.947   3.553 -0.4590 -0.1864  1.9665
  890MOL0     H20115  10.549   2.104   3.465  1.1357  4.0541  1.5339
  890MOL0     H20116  10.790   2.119   3.517 -0.2376 -0.2370 -0.5898
  890MOL0     H20117  10.765   2.022   3.657  0.3351  1.5088 -0.4173
  890MOL0     H20118  10.761   1.813   3.519 -0.2713  0.1344 -0.3810
  890MOL0     H20119  10.777   1.913   3.371  2.1779  2.0384 -0.8814
  890MOL0     H20120  10.988   1.902   3.607  3.2164  2.7469 -1.1230
  890MOL0     H20121  11.014   1.964   3.455  0.7237 -2.1850 -2.4780
  890MOL0     H20122  11.110   1.782   3.429 -0.2768 -1.0948 -3.4552
  890MOL0     H20123  10.960   1.720   3.370  1.3887 -1.4906  1.5656
  890MOL0     H20124  11.046   1.674   3.663  0.9390 -2.4374  0.2059
  890MOL0     H20125  10.932   1.578   3.559 -1.9702  1.3188  1.6911
  890MOL0     H20126  11.232   1.625   3.483  0.0702 -1.3155 -2.3626
  890MOL0     H20127  11.126   1.517   3.421  1.8333  4.1136 -2.7350
  890MOL0     H20128  11.218   1.492   3.716  1.5755  1.2706  0.0492
  890MOL0     H20129  11.097   1.391   3.642 -0.1689 -0.6171 -1.3681
  890MOL0     H20130  10.363   1.943   3.714  0.6267  0.8776 -1.1771
  890MOL0     H20131  10.296   1.873   3.939  0.0766  0.0891 -1.4343
  890MOL0     H20132  10.271   2.025   4.399 -2.0225 -0.5187 -0.5530
  890MOL0     H20133  10.189   1.948   4.613  0.5924  0.2070  0.2852
  890MOL0     H20134   9.432   2.591   5.523  0.9114 -2.7584 -4.3971
  890MOL0     H20135   9.479   2.800   5.619  1.5604  2.0875  0.9715
  890MOL0     H20136   9.661   3.007   5.896 -0.0873  2.0286  1.3699
  890MOL0     H20137   9.652   3.181   6.056 -1.9132  3.0360 -1.1829
  890MOL0     H20138   9.949   3.521   6.030 -0.4139 -1.3377 -2.9892
  890MOL0     H20139   9.843   3.562   6.170 -0.0907 -1.7061  1.0068
  890MOL0     H20140   9.646   3.570   6.027 -0.6373 -0.2607 -0.4334
  890MOL0     H20141   9.740   3.517   5.888  1.2313 -1.2334  1.4806
  890MOL0     H20142   9.831   3.760   6.013 -0.5595  0.4080  0.7477
  890MOL0     H20143   9.686   3.762   5.915 -0.1707  0.0087 -1.7264
  890MOL0     H20144   9.784   3.708   5.730 -1.3054 -2.2036  1.5953
  890MOL0     H20145   9.898   3.833   5.799 -1.5303  0.6490  0.7378
  890MOL0     H20146  10.164   3.528   5.732  0.4438  2.7620 -1.0740
  890MOL0     H20147  10.036   3.315   5.932  0.4377 -0.4853 -0.5814
  890MOL0     H20148  10.094   3.143   5.637  6.0576  0.0999 -0.3174
  890MOL0     H20149  10.165   3.191   5.783 -1.9519  3.1169  0.9781
  890MOL0     H20150  10.108   3.017   5.759  0.2182  0.0405 -0.3012
  891MOL0     O20151  11.481   6.659   7.038  0.0558 -0.6738 -0.7102
  891MOL0     C20152  11.467   6.628   6.919 -0.8703 -0.4617  0.1307
  891MOL0     O20153  11.393   6.526   6.881 -0.8682 -0.8683  0.0930
  891MOL0     C20154  11.364   6.425   6.965 -0.0585 -0.5928 -0.3728
  891MOL0     C20155  11.267   6.338   6.898 -0.6147 -0.1478 -0.0337
  891MOL0     C20156  11.226   6.218   6.959 -0.7672  0.2105 -0.7653
  891MOL0     C20157  11.275   6.180   7.085 -0.6344  1.0714 -0.7301
  891MOL0     O20158  11.227   6.077   7.156 -0.3750  0.2671  0.6285
  891MOL0     C20159  11.100   6.099   7.215  0.4215  0.0806  0.0879
  891MOL0     C20160  11.054   5.955   7.249 -0.3147  0.1001  0.2923
  891MOL0     C20161  11.000   5.889   7.118  0.1144 -0.0580  0.6651
  891MOL0     C20162  10.850   5.915   7.111  0.2422 -0.6623 -0.1333
  891MOL0     C20163  10.782   5.914   6.982  0.2887 -0.2073  0.9190
  891MOL0     C20164  10.767   5.770   6.914 -0.1768  0.2766  0.3642
  891MOL0     C20165  10.774   5.786   6.758 -0.4307 -0.4279  0.1543
  891MOL0     C20166  10.786   5.648   6.691  0.9822  1.0078  1.2762
  891MOL0     N20167  10.767   5.662   6.541  0.1480 -0.3678  0.5067
  891MOL0     C20168  10.866   5.697   6.463 -0.3112 -0.9498  0.1950
  891MOL0     C20169  10.811   5.703   6.337 -0.6787 -0.2558 -0.2340
  891MOL0     C20170  10.861   5.730   6.196 -0.4665 -0.2016 -0.6711
  891MOL0     C20171  11.018   5.733   6.185  0.1084 -0.8301  0.1920
  891MOL0     C20172  11.062   5.801   6.059 -0.0323  0.3491  0.4257
  891MOL0     C20173  11.221   5.815   6.057  0.2684  0.0525 -0.8831
  891MOL0     O20174  11.251   5.905   6.170  0.2729  1.0422  0.0015
  891MOL0     C20175  11.382   5.900   6.210 -0.7634  0.9822 -0.1865
  891MOL0     C20176  11.411   5.916   6.350  0.4611  0.4572  0.0097
  891MOL0     C20177  11.545   5.936   6.390 -0.0324 -0.1320 -1.1757
  891MOL0     C20178  11.649   5.942   6.302 -0.3002  0.9915 -0.1075
  891MOL0     C20179  11.798   5.963   6.344 -0.0774  0.2176  0.7003
  891MOL0     O20180  11.824   5.967   6.479 -0.5814 -0.4386  0.6959
  891MOL0     C20181  11.962   5.979   6.508 -0.1384  0.6205  0.3515
  891MOL0     C20182  12.032   6.099   6.512  0.4464 -0.0437  0.1772
  891MOL0     C20183  12.180   6.097   6.528 -0.0287  0.0798  1.1074
  891MOL0     C20184  12.246   5.967   6.559 -0.9393 -0.0185  0.4333
  891MOL0     O20185  12.381   5.961   6.585  0.3725 -0.1946  0.0970
  891MOL0     C20186  12.474   6.056   6.541 -0.2160 -0.2426  0.3142
  891MOL0     C20187  12.615   6.041   6.602 -0.0938  0.6436  1.0147
  891MOL0     C20188  12.710   6.148   6.538 -1.2277  0.2032  0.3204
  891MOL0     C20189  12.857   6.122   6.580  0.0094 -0.3658 -0.4204
  891MOL0     C20190  12.941   6.240   6.527  0.1064  0.6610 -1.3202
  891MOL0     C20191  13.095   6.211   6.542 -0.2299  0.4166  0.4123
  891MOL0     C20192  13.181   6.225   6.408  0.1350 -0.9350  0.2302
  891MOL0     C20193  13.205   6.359   6.353  0.2715 -0.2551 -0.1553
  891MOL0    Cl20194  13.312   6.442   6.465 -0.5363 -0.5751  0.3575
  891MOL0     C20195  12.168   5.855   6.558  0.5314  0.4742  0.4390
  891MOL0     C20196  12.030   5.857   6.547  0.6342  0.5986 -0.4579
  891MOL0     O20197  11.885   5.977   6.253 -0.2369 -0.3682  0.6138
  891MOL0     C20198  11.615   5.924   6.166  0.4469 -0.2033  0.2781
  891MOL0     C20199  11.489   5.903   6.120 -0.5980 -0.0037  0.5117
  891MOL0     N20200  10.684   5.680   6.346  0.0717  0.6481 -0.7857
  891MOL0     N20201  10.646   5.668   6.465 -0.8422  0.2094 -0.7987
  891MOL0     C20202  11.375   6.265   7.147 -0.7515  1.0485 -0.2009
  891MOL0     C20203  11.421   6.379   7.084 -0.4647 -0.0043 -0.4485
  891MOL0     C20204  11.542   6.705   6.814 -0.8735 -0.5767  0.9978
  891MOL0     C20205  11.558   6.660   6.686  0.2600 -0.6576  0.0495
  891MOL0     C20206  11.639   6.708   6.593  0.3385 -0.0384  0.6823
  891MOL0     C20207  11.713   6.817   6.615 -0.2130  1.0285  0.2931
  891MOL0     O20208  11.793   6.884   6.524  0.7014 -0.0104  0.1986
  891MOL0     C20209  11.782   6.833   6.394 -0.2414  0.5892 -0.5674
  891MOL0     C20210  11.863   6.920   6.294 -0.1215  0.4167 -0.5543
  891MOL0     C20211  12.014   6.938   6.334  0.0705 -0.7922  0.3960
  891MOL0     C20212  12.093   7.013   6.223  0.4575 -0.1382  0.1581
  891MOL0     C20213  12.036   7.145   6.222  0.0026 -0.5800  0.0831
  891MOL0     C20214  11.993   7.258   6.219  0.1347 -0.5595 -0.4419
  891MOL0     C20215  11.693   6.873   6.736 -0.3697  0.3169 -0.0822
  891MOL0     C20216  11.613   6.825   6.841 -0.8717  0.2351  0.2724
  891MOL0     C20217  11.614   6.902   6.969  0.0771  0.1434  0.2772
  891MOL0     H20218  11.225   6.367   6.802  1.4599  2.1807 -0.3473
  891MOL0     H20219  11.146   6.159   6.916  1.0568 -2.1698 -1.0999
  891MOL0     H20220  11.117   6.153   7.308  0.0397 -0.3929  0.4397
  891MOL0     H20221  11.020   6.142   7.154 -0.8762 -1.1699  0.8423
  891MOL0     H20222  10.979   5.943   7.328 -2.1795 -1.2091 -1.5859
  891MOL0     H20223  11.146   5.906   7.281  0.8922 -0.4645 -3.5717
  891MOL0     H20224  11.009   5.780   7.113 -0.9653 -0.0963 -0.8510
  891MOL0     H20225  11.048   5.936   7.032 -2.9467  1.4232 -0.3582
  891MOL0     H20226  10.798   5.847   7.180  1.1244  0.8875  2.1729
  891MOL0     H20227  10.835   6.014   7.154  2.1516 -0.5418  0.3329
  891MOL0     H20228  10.683   5.960   6.987  1.1546  2.1709 -1.4467
  891MOL0     H20229  10.846   5.979   6.922 -0.5259 -0.4765 -0.3031
  891MOL0     H20230  10.837   5.701   6.962  0.6174  0.6668 -0.2126
  891MOL0     H20231  10.664   5.742   6.937  0.4560 -1.2573  1.4680
  891MOL0     H20232  10.867   5.843   6.744  2.0618 -3.3307  3.0398
  891MOL0     H20233  10.685   5.838   6.724  0.5655  1.5653  0.4453
  891MOL0     H20234  10.885   5.606   6.708  2.2957  1.9799 -2.8488
  891MOL0     H20235  10.703   5.584   6.723 -0.4080  1.9530 -0.2188
  891MOL0     H20236  10.968   5.717   6.493 -0.7730 -0.4991  1.5437
  891MOL0     H20237  10.812   5.653   6.135 -3.5140  0.1441  1.1245
  891MOL0     H20238  10.838   5.832   6.167  2.3149  0.6395 -0.2496
  891MOL0     H20239  11.055   5.786   6.273  0.2022  1.4709 -1.1452
  891MOL0     H20240  11.051   5.629   6.182 -0.6818 -1.0685 -0.9582
  891MOL0     H20241  11.030   5.905   6.048 -3.6718 -0.8915 -3.1960
  891MOL0     H20242  11.022   5.749   5.972  1.6597 -1.2633  0.5575
  891MOL0     H20243  11.252   5.857   5.961  1.2996  0.8065 -0.2470
  891MOL0     H20244  11.260   5.716   6.083 -4.2319 -1.4517  1.2063
  891MOL0     H20245  11.323   5.902   6.413  0.7895 -1.2435  0.1555
  891MOL0     H20246  11.553   5.967   6.494 -2.3517 -0.0774 -0.9591
  891MOL0     H20247  11.971   6.189   6.507  0.3506  0.0120  1.7332
  891MOL0     H20248  12.240   6.187   6.519  1.1643 -0.8417 -0.6006
  891MOL0     H20249  12.474   6.064   6.432 -1.3686  2.6800  0.4377
  891MOL0     H20250  12.443   6.157   6.568 -1.5592  0.0518 -2.0305
  891MOL0     H20251  12.621   6.061   6.710 -0.0924  1.0827  0.9362
  891MOL0     H20252  12.653   5.940   6.587  1.2391  1.4297 -1.2638
  891MOL0     H20253  12.706   6.157   6.429  1.7823  1.1881  0.2101
  891MOL0     H20254  12.685   6.248   6.574  3.3572  1.3452  0.9212
  891MOL0     H20255  12.887   6.028   6.533 -0.1658  0.1402 -1.5712
  891MOL0     H20256  12.857   6.121   6.690 -1.8993 -0.8863 -0.3975
  891MOL0     H20257  12.916   6.336   6.574  0.1418 -0.4148  1.0190
  891MOL0     H20258  12.917   6.247   6.420  1.9107  1.1921 -1.7305
  891MOL0     H20259  13.150   6.258   6.624 -0.0877  0.0350  0.5365
  891MOL0     H20260  13.098   6.103   6.556 -0.9228  0.3122 -0.1620
  891MOL0     H20261  13.123   6.168   6.334 -0.1901 -0.7613  0.3496
  891MOL0     H20262  13.276   6.173   6.419  1.0627 -0.0703 -2.6873
  891MOL0     H20263  13.258   6.346   6.259  0.4859  0.9454 -0.2105
  891MOL0     H20264  13.114   6.415   6.330  1.9819  1.5947 -2.9960
  891MOL0     H20265  12.213   5.757   6.542 -2.8703 -1.0353 -0.8972
  891MOL0     H20266  11.978   5.762   6.549  0.4563  0.6202 -2.2554
  891MOL0     H20267  11.690   5.942   6.089 -1.2920  0.2730 -1.3939
  891MOL0     H20268  11.477   5.877   6.015  2.5817 -3.2611  0.7423
  891MOL0     H20269  11.424   6.224   7.235  1.3393 -0.3031 -1.8658
  891MOL0     H20270  11.508   6.425   7.130  0.6685 -2.4449 -0.0473
  891MOL0     H20271  11.498   6.577   6.652 -1.4029 -0.4635  2.3064
  891MOL0     H20272  11.653   6.652   6.501  2.4237  1.8215 -0.2460
  891MOL0     H20273  11.679   6.839   6.357  0.0828  3.7581 -1.2455
  891MOL0     H20274  11.819   6.732   6.378  2.7009  1.1966  1.5751
  891MOL0     H20275  11.811   7.017   6.297 -0.5285  0.2800 -2.2036
  891MOL0     H20276  11.862   6.883   6.191  0.3104  0.9827 -0.7659
  891MOL0     H20277  12.054   6.837   6.345 -0.2429 -1.0686 -0.8091
  891MOL0     H20278  12.022   6.990   6.429  2.4320  0.2381 -0.2958
  891MOL0     H20279  12.196   7.013   6.258  0.1162 -1.0687  1.2322
  891MOL0     H20280  12.085   6.960   6.128  0.4105  2.3413 -1.3216
  891MOL0     H20281  11.958   7.359   6.222  0.5267 -0.4410  0.9397
  891MOL0     H20282  11.742   6.963   6.770 -3.8425  2.1142  0.6899
  891MOL0     H20283  11.639   6.845   7.059  1.2803 -1.8831 -1.2467
  891MOL0     H20284  11.691   6.979   6.968 -0.2976  0.5206 -0.3828
  891MOL0     H20285  11.513   6.945   6.966 -0.2361 -0.4971  1.0342
  892MOL0     O20286   7.875  10.565   2.337 -0.3071 -0.6259 -0.0746
  892MOL0     C20287   7.820  10.457   2.313 -0.5466  0.6125 -0.3253
  892MOL0     O20288   7.683  10.433   2.309 -0.4391 -0.4972 -0.1131
  892MOL0     C20289   7.610  10.545   2.313 -0.0803 -0.8611 -2.6831
  892MOL0     C20290   7.597  10.624   2.432  0.0148 -0.0564  0.1598
  892MOL0     C20291   7.522  10.743   2.430 -0.3021  0.2271 -0.1057
  892MOL0     C20292   7.451  10.778   2.313  0.3640  0.1136  0.5959
  892MOL0     O20293   7.386  10.896   2.281  0.3716  0.9474 -0.8936
  892MOL0     C20294   7.351  11.007   2.375 -0.8316  1.0872 -0.9887
  892MOL0     C20295   7.262  11.111   2.311  0.4531 -0.3952 -0.2786
  892MOL0     C20296   7.333  11.194   2.204 -0.1124  0.2030 -1.2425
  892MOL0     C20297   7.437  11.297   2.255  0.4513  0.8717 -0.4803
  892MOL0     C20298   7.458  11.408   2.150  0.6859  0.9194 -0.1827
  892MOL0     C20299   7.335  11.500   2.136 -0.2584  0.2571 -0.2629
  892MOL0     C20300   7.349  11.626   2.058  0.1804  0.0432  0.5380
  892MOL0     C20301   7.407  11.744   2.137 -0.0713 -0.2164 -0.3889
  892MOL0     N20302   7.394  11.877   2.069 -0.0552  0.0790  0.3948
  892MOL0     C20303   7.374  11.902   1.934 -0.4606 -0.8720  0.1726
  892MOL0     C20304   7.356  12.030   1.919 -0.4278 -0.1999  0.2219
  892MOL0     C20305   7.349  12.109   1.790  0.7901 -0.1203 -0.3743
  892MOL0     C20306   7.310  12.262   1.818 -0.9159  0.1907  0.2796
  892MOL0     C20307   7.329  12.341   1.688 -0.0210 -0.0992 -0.5960
  892MOL0     C20308   7.301  12.494   1.710 -0.7585  0.0133  0.2632
  892MOL0     O20309   7.370  12.575   1.609  0.0906 -1.0534 -0.5631
  892MOL0     C20310   7.371  12.712   1.650 -0.6244 -0.1652 -0.1725
  892MOL0     C20311   7.295  12.781   1.746 -0.5119  0.1193  0.0887
  892MOL0     C20312   7.294  12.918   1.751  0.0938  0.7531 -0.5865
  892MOL0     C20313   7.394  12.990   1.682  0.1630  0.6254  0.4630
  892MOL0     C20314   7.416  13.131   1.710 -0.5696  0.1368  0.6252
  892MOL0     O20315   7.387  13.184   1.834 -0.1220  0.0129  0.4947
  892MOL0     C20316   7.413  13.310   1.856  0.4559  0.7308 -1.0936
  892MOL0     C20317   7.369  13.407   1.768  0.1013  0.3601  0.4996
  892MOL0     C20318   7.389  13.549   1.798 -1.1619 -0.8084  0.1655
  892MOL0     C20319   7.446  13.586   1.920  0.3392 -0.5920  0.3955
  892MOL0     O20320   7.441  13.714   1.949 -1.1848 -0.2820  0.4462
  892MOL0     C20321   7.514  13.764   2.067 -0.1344 -0.3235 -0.3162
  892MOL0     C20322   7.497  13.911   2.077  0.7887  0.5108 -0.2253
  892MOL0     C20323   7.600  13.989   2.154  0.4077  0.5112 -0.6348
  892MOL0     C20324   7.560  14.142   2.174  0.2298  0.0865  0.5481
  892MOL0     C20325   7.516  14.212   2.042  0.3398 -0.4333  0.1315
  892MOL0     C20326   7.503  14.364   2.064 -0.2976 -0.0102 -1.3206
  892MOL0     C20327   7.486  14.442   1.936  0.0122 -0.0210  0.6271
  892MOL0     C20328   7.344  14.440   1.877  1.0026 -0.1804 -0.4663
  892MOL0    Cl20329   7.362  14.527   1.715 -0.0903  0.2408 -0.3641
  892MOL0     C20330   7.481  13.476   2.013  0.2057 -0.4191 -0.3294
  892MOL0     C20331   7.471  13.342   1.978 -0.2808 -0.2100 -0.0931
  892MOL0     O20332   7.480  13.192   1.621 -0.0496  0.8254  0.2879
  892MOL0     C20333   7.470  12.921   1.586 -0.2776 -0.0673 -0.1823
  892MOL0     C20334   7.446  12.793   1.564 -0.4152  0.7351  0.1107
  892MOL0     N20335   7.352  12.084   2.045 -0.3102  0.0413  0.4788
  892MOL0     N20336   7.366  11.992   2.138  1.1500 -0.5679 -0.6709
  892MOL0     C20337   7.452  10.688   2.203 -1.2103 -0.9677 -0.3334
  892MOL0     C20338   7.539  10.578   2.196 -0.4903 -0.9674 -0.4432
  892MOL0     C20339   7.914  10.338   2.283  0.4023 -0.5781  0.6785
  892MOL0     C20340   8.044  10.365   2.288 -0.0355 -0.0705 -0.1016
  892MOL0     C20341   8.136  10.259   2.273 -0.3755  0.8368 -0.1210
  892MOL0     C20342   8.100  10.132   2.228 -0.0690  0.7255 -0.5682
  892MOL0     O20343   8.194  10.030   2.232  0.0504  0.3899  0.2958
  892MOL0     C20344   8.305  10.053   2.149 -0.1096 -0.2924 -0.1574
  892MOL0     C20345   8.333   9.934   2.057 -0.8983  0.4048 -0.3413
  892MOL0     C20346   8.406   9.818   2.130 -0.0983  0.3037 -0.0906
  892MOL0     C20347   8.405   9.692   2.028 -0.2647 -0.9678 -0.1412
  892MOL0     C20348   8.299   9.604   2.047  0.2062  0.8680  0.0145
  892MOL0     C20349   8.216   9.517   2.047 -0.1263  0.5095  0.3917
  892MOL0     C20350   7.960  10.106   2.218  0.1240  0.0663  0.4195
  892MOL0     C20351   7.865  10.209   2.237 -0.9013 -0.3352 -0.2757
  892MOL0     C20352   7.721  10.166   2.204 -0.5956  0.4570  0.4282
  892MOL0     H20353   7.653  10.588   2.517  1.3888 -1.7155 -1.3933
  892MOL0     H20354   7.519  10.809   2.516 -1.3621 -2.7539  2.3251
  892MOL0     H20355   7.306  10.963   2.464 -1.1997 -1.1275 -2.1826
  892MOL0     H20356   7.441  11.057   2.409 -0.6736 -1.0425  2.1874
  892MOL0     H20357   7.219  11.177   2.387  0.0908  0.3907 -1.1574
  892MOL0     H20358   7.174  11.066   2.263  0.2875  0.2329 -0.5727
  892MOL0     H20359   7.247  11.251   2.169  0.0231  1.3630  0.2375
  892MOL0     H20360   7.368  11.116   2.136  1.9788 -1.9365  1.9983
  892MOL0     H20361   7.408  11.337   2.352 -2.7606  0.0764 -1.0229
  892MOL0     H20362   7.534  11.252   2.280  0.7277  0.1925 -2.5320
  892MOL0     H20363   7.528  11.477   2.199  2.0113 -0.1538 -0.5028
  892MOL0     H20364   7.510  11.369   2.062 -0.9304  2.5011 -1.9137
  892MOL0     H20365   7.259  11.441   2.084 -0.0158  0.8790 -1.3475
  892MOL0     H20366   7.288  11.526   2.231 -0.1019  1.3755 -0.4705
  892MOL0     H20367   7.248  11.648   2.022 -0.7346 -4.1464  0.0616
  892MOL0     H20368   7.409  11.612   1.968 -0.1497 -1.2255  0.4893
  892MOL0     H20369   7.349  11.761   2.228 -0.6160  1.5167 -1.0039
  892MOL0     H20370   7.510  11.728   2.170  0.9280 -0.2888 -3.2440
  892MOL0     H20371   7.371  11.836   1.849 -0.1812  2.4527 -2.6451
  892MOL0     H20372   7.448  12.094   1.746  0.2964 -2.9833 -0.6560
  892MOL0     H20373   7.270  12.074   1.724 -2.7060  0.6842  2.9872
  892MOL0     H20374   7.207  12.275   1.851 -0.8445 -0.0911  0.6141
  892MOL0     H20375   7.374  12.310   1.893 -0.9934  0.6229  0.0730
  892MOL0     H20376   7.255  12.310   1.614  0.8596 -2.3948 -0.6061
  892MOL0     H20377   7.426  12.319   1.644  1.6732  1.9648  1.7759
  892MOL0     H20378   7.338  12.533   1.806  1.3881  4.2221 -2.0290
  892MOL0     H20379   7.193  12.511   1.712 -0.8190 -0.3114  1.7714
  892MOL0     H20380   7.229  12.727   1.813 -0.1075 -0.6226 -0.1081
  892MOL0     H20381   7.229  12.972   1.819  0.6867  3.0812 -1.7422
  892MOL0     H20382   7.304  13.401   1.681 -2.3260  5.7488  1.5410
  892MOL0     H20383   7.352  13.625   1.729  5.6831 -0.6992 -4.3077
  892MOL0     H20384   7.493  13.708   2.158  0.8015  0.6072  0.4930
  892MOL0     H20385   7.622  13.751   2.054  0.3248  0.2531  2.4451
  892MOL0     H20386   7.499  13.949   1.975  0.6863  0.1873 -0.3488
  892MOL0     H20387   7.395  13.918   2.116  0.4137 -3.0162 -0.2059
  892MOL0     H20388   7.626  13.938   2.247 -1.8921 -0.8889 -0.6986
  892MOL0     H20389   7.692  13.971   2.096  0.1364 -5.5230  0.2158
  892MOL0     H20390   7.648  14.197   2.209  0.5934 -0.9580  1.3127
  892MOL0     H20391   7.481  14.152   2.249 -0.4510  0.3611 -0.1864
  892MOL0     H20392   7.419  14.177   2.005  0.9370  0.5832 -2.7147
  892MOL0     H20393   7.583  14.202   1.955  0.1455 -1.2190  0.0635
  892MOL0     H20394   7.422  14.377   2.136  2.7270 -0.7678  2.5479
  892MOL0     H20395   7.584  14.412   2.120 -1.0905  0.1742 -0.3174
  892MOL0     H20396   7.552  14.409   1.856 -2.4486 -3.4327 -0.1803
  892MOL0     H20397   7.517  14.544   1.961  0.8625 -0.8593  3.3505
  892MOL0     H20398   7.275  14.355   1.880 -0.5445  1.0314 -0.1252
  892MOL0     H20399   7.288  14.507   1.944 -2.5844 -3.5262  0.2660
  892MOL0     H20400   7.525  13.505   2.108  0.3665 -1.0690 -0.1996
  892MOL0     H20401   7.514  13.266   2.042 -0.5874 -0.4752 -0.1992
  892MOL0     H20402   7.549  12.972   1.531 -0.8084 -2.0452 -2.9588
  892MOL0     H20403   7.501  12.752   1.480 -2.3622  1.9270 -1.8498
  892MOL0     H20404   7.390  10.708   2.116  1.3956  1.2052 -1.8142
  892MOL0     H20405   7.546  10.517   2.107  1.3750 -1.3547 -0.0824
  892MOL0     H20406   8.081  10.463   2.317  0.1559  0.3990 -1.8078
  892MOL0     H20407   8.241  10.280   2.291 -0.0257 -0.2030 -0.8269
  892MOL0     H20408   8.394  10.085   2.204 -2.0579  3.9841  0.9784
  892MOL0     H20409   8.280  10.136   2.082 -3.2475 -0.2485  0.8978
  892MOL0     H20410   8.391   9.971   1.972  0.1985 -1.5032 -0.4844
  892MOL0     H20411   8.235   9.897   2.026 -1.7352 -1.8800  4.2606
  892MOL0     H20412   8.337   9.803   2.214 -1.5135  1.2724 -1.0337
  892MOL0     H20413   8.499   9.838   2.183 -1.4592  0.6867  2.3253
  892MOL0     H20414   8.402   9.734   1.927  0.4952 -2.5444 -0.8503
  892MOL0     H20415   8.505   9.650   2.041  0.6349  1.2269  0.4784
  892MOL0     H20416   8.152   9.431   2.056  0.6769 -0.0792  0.5598
  892MOL0     H20417   7.936  10.005   2.185 -0.3757 -0.2738  1.7807
  892MOL0     H20418   7.652  10.179   2.288  0.8907 -1.4315  2.0187
  892MOL0     H20419   7.683  10.226   2.120 -0.6393 -0.6205 -0.3550
  892MOL0     H20420   7.718  10.066   2.160 -0.8408  1.2810 -1.5862
  893MOL0     O20421   9.415  11.393   1.717 -0.2677  0.4161 -0.3307
  893MOL0     C20422   9.498  11.305   1.735  0.4227 -0.1599 -0.2022
  893MOL0     O20423   9.482  11.179   1.696  1.2105  0.1200 -0.3707
  893MOL0     C20424   9.362  11.132   1.644  0.4407  0.5535 -0.9206
  893MOL0     C20425   9.295  11.202   1.543 -0.6388  0.0072 -0.4935
  893MOL0     C20426   9.184  11.142   1.480 -0.5901  0.5485 -0.1373
  893MOL0     C20427   9.135  11.016   1.518  0.5652 -0.0741  0.5721
  893MOL0     O20428   9.048  10.950   1.437 -0.4067 -0.5961 -0.2455
  893MOL0     C20429   8.942  11.035   1.385  0.1631  0.0113  0.1758
  893MOL0     C20430   8.825  10.951   1.339  0.1753  0.4544  1.0246
  893MOL0     C20431   8.787  10.942   1.185  0.4318  0.1336  0.1731
  893MOL0     C20432   8.708  11.064   1.139  0.6797  0.2370  0.0543
  893MOL0     C20433   8.692  11.062   0.984  0.4986 -0.3569  0.2934
  893MOL0     C20434   8.682  11.203   0.922  1.0596 -0.2071  0.1264
  893MOL0     C20435   8.644  11.186   0.773  0.4004  0.1190  0.3735
  893MOL0     C20436   8.648  11.331   0.706 -0.0533  0.5122  0.3263
  893MOL0     N20437   8.630  11.328   0.563 -0.0975  0.9677  0.7991
  893MOL0     C20438   8.517  11.276   0.508  0.2138 -0.2010 -0.2331
  893MOL0     C20439   8.539  11.313   0.383  1.1292  0.5482 -0.0504
  893MOL0     C20440   8.447  11.288   0.270  0.5338 -0.4503 -0.5097
  893MOL0     C20441   8.426  11.412   0.177  1.2093  0.1262  0.4191
  893MOL0     C20442   8.278  11.428   0.132 -0.5371  0.2805  0.1144
  893MOL0     C20443   8.281  11.540   0.034 -0.3411 -0.3844  1.0703
  893MOL0     O20444   8.156  11.585  -0.001  0.6351  0.1613 -0.4385
  893MOL0     C20445   8.137  11.677  -0.103 -0.0798  0.2711 -0.2682
  893MOL0     C20446   8.035  11.654  -0.203 -0.8587  0.5676  0.9057
  893MOL0     C20447   8.015  11.739  -0.311 -0.0208  0.2618  0.6179
  893MOL0     C20448   8.095  11.853  -0.326 -0.5221  0.3546 -0.2979
  893MOL0     C20449   8.070  11.932  -0.445 -0.7007  0.5042 -0.1388
  893MOL0     O20450   8.162  12.029  -0.465  0.1364 -0.6518  0.1227
  893MOL0     C20451   8.145  12.127  -0.567  0.3791 -0.1212  0.3598
  893MOL0     C20452   8.033  12.205  -0.582  0.4898 -0.1096 -0.4420
  893MOL0     C20453   8.034  12.316  -0.658 -0.2371 -0.3304 -0.1766
  893MOL0     C20454   8.141  12.349  -0.741 -0.5001  0.4558 -0.8079
  893MOL0     O20455   8.155  12.457  -0.816 -0.5471 -0.2988  0.0290
  893MOL0     C20456   8.073  12.454  -0.926 -0.2957 -0.0860  0.0881
  893MOL0     C20457   8.150  12.505  -1.055 -0.7057 -0.4140 -0.0838
  893MOL0     C20458   8.281  12.432  -1.078  0.2847  0.8294 -0.6850
  893MOL0     C20459   8.336  12.455  -1.216 -0.9968 -0.3874 -0.4295
  893MOL0     C20460   8.436  12.572  -1.210 -0.3152  0.3070 -0.7274
  893MOL0     C20461   8.545  12.560  -1.318 -0.1160 -0.0591  0.3444
  893MOL0     C20462   8.503  12.574  -1.471 -0.1782  0.9421  0.5342
  893MOL0     C20463   8.623  12.517  -1.562  0.1287 -0.4393 -0.0151
  893MOL0    Cl20464   8.773  12.615  -1.534  0.0045  0.0360  0.2361
  893MOL0     C20465   8.248  12.259  -0.738  0.0149  0.4222  0.0227
  893MOL0     C20466   8.251  12.150  -0.653  0.4425  0.6887 -0.3505
  893MOL0     O20467   7.979  11.910  -0.519 -0.1931  0.2275  0.2829
  893MOL0     C20468   8.195  11.875  -0.228  0.2870  0.3053 -0.5353
  893MOL0     C20469   8.216  11.790  -0.123  1.2868 -0.3829 -0.0646
  893MOL0     N20470   8.667  11.365   0.360 -0.2883 -0.1188  0.2384
  893MOL0     N20471   8.724  11.375   0.474 -0.2360  0.3463  0.0784
  893MOL0     C20472   9.192  10.960   1.627  0.8071 -0.2807 -0.0903
  893MOL0     C20473   9.300  11.017   1.694  0.4458 -0.0902  0.4577
  893MOL0     C20474   9.619  11.336   1.810  0.1765 -0.9808  0.2766
  893MOL0     C20475   9.738  11.261   1.789  0.3613 -0.4456  0.4110
  893MOL0     C20476   9.859  11.275   1.850  0.7867 -0.2622 -0.4471
  893MOL0     C20477   9.864  11.360   1.956 -0.6074  0.3042 -0.1208
  893MOL0     O20478   9.981  11.365   2.025  0.0017 -0.4731 -0.1246
  893MOL0     C20479  10.066  11.472   1.994  0.0810 -0.3513  0.4815
  893MOL0     C20480  10.205  11.420   1.942 -0.0530 -0.0260 -1.0289
  893MOL0     C20481  10.278  11.376   2.063  1.1082  0.0622 -0.3054
  893MOL0     C20482  10.418  11.333   2.047  0.6972  0.1418  0.0819
  893MOL0     C20483  10.519  11.443   2.044 -0.4948 -0.6345 -0.8242
  893MOL0     C20484  10.605  11.529   2.038  0.1605 -0.4965 -0.0649
  893MOL0     C20485   9.760  11.443   1.982  0.7705 -0.3120 -0.2931
  893MOL0     C20486   9.640  11.438   1.905  0.2786  0.4229 -0.9444
  893MOL0     C20487   9.542  11.548   1.955 -0.2979 -0.5927  0.7937
  893MOL0     H20488   9.342  11.296   1.517 -0.6005 -0.2167 -1.2700
  893MOL0     H20489   9.160  11.194   1.388 -0.2403  0.3470 -0.3420
  893MOL0     H20490   8.892  11.106   1.451  2.5240  2.8986 -0.8993
  893MOL0     H20491   8.973  11.088   1.294 -0.1029 -1.3842 -0.7657
  893MOL0     H20492   8.727  10.972   1.383 -1.6205 -5.1087  0.4438
  893MOL0     H20493   8.851  10.849   1.368  1.3137  0.8393  1.3915
  893MOL0     H20494   8.725  10.852   1.184 -2.3037  1.8760 -1.7030
  893MOL0     H20495   8.878  10.929   1.127  1.7259  2.3065  1.5644
  893MOL0     H20496   8.610  11.062   1.188 -0.3320 -2.8267 -1.8173
  893MOL0     H20497   8.766  11.150   1.174  2.0282 -0.0063 -1.4917
  893MOL0     H20498   8.780  11.018   0.937 -0.9727 -0.8368 -2.2116
  893MOL0     H20499   8.611  10.999   0.945 -0.4921  1.8970 -1.5135
  893MOL0     H20500   8.611  11.274   0.965  0.5069  1.9002 -3.8375
  893MOL0     H20501   8.784  11.241   0.914  1.8981 -2.3286  0.0152
  893MOL0     H20502   8.543  11.145   0.765  1.4530 -2.3617 -1.2193
  893MOL0     H20503   8.711  11.118   0.720  0.1591  0.8890 -0.9680
  893MOL0     H20504   8.570  11.386   0.758 -0.9683 -1.6998  1.4130
  893MOL0     H20505   8.744  11.382   0.724  0.0861  0.5007 -0.3624
  893MOL0     H20506   8.430  11.238   0.561 -0.3526  2.5971  1.0443
  893MOL0     H20507   8.488  11.205   0.212  2.0233 -0.3791  0.3824
  893MOL0     H20508   8.353  11.266   0.322  1.8182 -4.6567  0.4836
  893MOL0     H20509   8.454  11.506   0.225  0.7627  1.5939 -2.0323
  893MOL0     H20510   8.482  11.407   0.084 -1.7140 -2.1016 -1.4209
  893MOL0     H20511   8.236  11.462   0.227 -1.8492 -0.8297 -0.0337
  893MOL0     H20512   8.240  11.333   0.092  1.4308 -0.6847  0.4134
  893MOL0     H20513   8.327  11.510  -0.061 -1.0224  1.1083  0.2259
  893MOL0     H20514   8.330  11.634   0.061 -2.7505  1.2581  0.1244
  893MOL0     H20515   7.982  11.559  -0.200 -0.6847  0.2154 -2.8559
  893MOL0     H20516   7.934  11.715  -0.379  1.6836 -0.6430 -1.2161
  893MOL0     H20517   7.941  12.176  -0.532 -1.3338  3.0361 -1.6977
  893MOL0     H20518   7.949  12.383  -0.666  1.5660  2.0171 -0.4899
  893MOL0     H20519   8.029  12.355  -0.946  1.2629 -0.9893  0.9731
  893MOL0     H20520   7.994  12.527  -0.903 -1.0964 -0.4830 -1.2693
  893MOL0     H20521   8.088  12.480  -1.141  1.0920  0.9839 -1.8679
  893MOL0     H20522   8.146  12.614  -1.050 -2.3078 -0.4199 -0.7550
  893MOL0     H20523   8.353  12.451  -0.998 -2.0059  0.2259  1.6318
  893MOL0     H20524   8.252  12.327  -1.077  2.3683  0.2098  0.2930
  893MOL0     H20525   8.266  12.481  -1.296 -1.2337  1.9793  0.4631
  893MOL0     H20526   8.388  12.364  -1.247  4.7176  0.6927  4.1136
  893MOL0     H20527   8.483  12.577  -1.111  0.7202  2.7435 -1.2906
  893MOL0     H20528   8.384  12.661  -1.246 -0.5468  0.2470 -0.5495
  893MOL0     H20529   8.621  12.638  -1.307  0.6571 -1.1234  3.6502
  893MOL0     H20530   8.585  12.460  -1.303 -0.9879 -0.7218 -1.4647
  893MOL0     H20531   8.481  12.677  -1.500  1.0013  0.9615 -0.3961
  893MOL0     H20532   8.415  12.516  -1.496 -0.4099  1.9114 -1.0286
  893MOL0     H20533   8.644  12.418  -1.521 -1.2746 -1.1486 -0.9290
  893MOL0     H20534   8.595  12.506  -1.668 -0.6009 -3.3419  0.4002
  893MOL0     H20535   8.338  12.285  -0.794  0.5612  3.1595  1.9452
  893MOL0     H20536   8.334  12.080  -0.657 -1.7952 -2.2628  0.6870
  893MOL0     H20537   8.251  11.968  -0.232 -1.1354  1.4679  2.9623
  893MOL0     H20538   8.287  11.829  -0.050  0.1135  2.7114 -0.4054
  893MOL0     H20539   9.153  10.862   1.652  0.6359 -0.0852  0.4081
  893MOL0     H20540   9.328  10.951   1.776 -4.4977 -1.5025  1.3541
  893MOL0     H20541   9.740  11.176   1.722  2.3180 -0.4970  0.4560
  893MOL0     H20542   9.947  11.215   1.832  0.1028 -2.1873  2.0319
  893MOL0     H20543  10.070  11.542   2.078 -0.7063  0.0219  0.2159
  893MOL0     H20544  10.034  11.538   1.913  1.4303  0.4930  0.6004
  893MOL0     H20545  10.257  11.497   1.885  0.1299 -1.5070 -2.9730
  893MOL0     H20546  10.186  11.335   1.876 -3.6000 -0.9852  0.9233
  893MOL0     H20547  10.217  11.303   2.117 -4.9365  3.9417 -0.9674
  893MOL0     H20548  10.265  11.456   2.137 -0.4910 -1.5971  1.3095
  893MOL0     H20549  10.434  11.264   2.130 -2.3619 -1.2338 -0.3695
  893MOL0     H20550  10.429  11.281   1.952  1.5097 -2.3755  1.4592
  893MOL0     H20551  10.663  11.619   2.039  0.0663 -0.4332 -0.2236
  893MOL0     H20552   9.781  11.513   2.062 -0.9885 -0.1898  0.0925
  893MOL0     H20553   9.586  11.635   2.003  1.3873 -0.3787 -1.0204
  893MOL0     H20554   9.494  11.580   1.862  0.6586  1.3044  0.9120
  893MOL0     H20555   9.457  11.500   2.005 -4.3923  1.8607 -2.9962
  894MOL0     O20556   6.951   4.998   3.794 -0.3831  0.4427  0.4409
  894MOL0     C20557   6.877   4.897   3.814 -0.4144 -0.7866 -0.5524
  894MOL0     O20558   6.886   4.781   3.758  0.5576 -0.2377  0.4227
  894MOL0     C20559   6.988   4.757   3.668 -0.0299 -0.0493  0.2670
  894MOL0     C20560   6.977   4.798   3.538  0.6559 -0.3213  0.7142
  894MOL0     C20561   7.059   4.747   3.439 -0.1593  0.3107 -0.4169
  894MOL0     C20562   7.171   4.681   3.480 -0.7208  0.6481  0.6008
  894MOL0     O20563   7.272   4.647   3.391 -0.1985 -0.3252 -0.6595
  894MOL0     C20564   7.285   4.513   3.359  0.5937  0.3850  0.4511
  894MOL0     C20565   7.154   4.457   3.293  0.2771  0.4351  0.3021
  894MOL0     C20566   7.102   4.536   3.170  0.1564  0.8395  0.5628
  894MOL0     C20567   7.139   4.478   3.039  0.4830 -0.4867  0.1486
  894MOL0     C20568   7.070   4.526   2.915  0.0957 -0.1882 -0.0835
  894MOL0     C20569   6.924   4.514   2.949 -0.6196 -0.2978  1.1033
  894MOL0     C20570   6.837   4.522   2.828  0.2840  0.6529  0.8193
  894MOL0     C20571   6.751   4.657   2.831 -0.3749 -0.1906  0.1106
  894MOL0     N20572   6.687   4.673   2.701  0.0727  0.3420 -0.7778
  894MOL0     C20573   6.558   4.635   2.689 -0.3167 -0.3488 -0.9547
  894MOL0     C20574   6.531   4.636   2.552  1.3123 -0.7965 -1.1493
  894MOL0     C20575   6.412   4.585   2.471  0.3876 -0.4573 -0.4613
  894MOL0     C20576   6.290   4.684   2.507 -0.6890  0.2511  0.9931
  894MOL0     C20577   6.295   4.798   2.417  0.2146 -0.2862 -0.4975
  894MOL0     C20578   6.165   4.880   2.437  0.5221  0.2800 -0.7696
  894MOL0     O20579   6.041   4.806   2.420  1.1804 -0.1594 -0.3159
  894MOL0     C20580   5.993   4.804   2.295  0.0213 -0.7516 -0.8942
  894MOL0     C20581   6.023   4.687   2.216 -0.0297 -0.3296 -0.1083
  894MOL0     C20582   5.982   4.679   2.085  0.5901  0.7362 -0.3277
  894MOL0     C20583   5.904   4.777   2.029 -0.3455 -0.3031  0.7773
  894MOL0     C20584   5.856   4.748   1.891 -0.0821 -0.6785 -0.6169
  894MOL0     O20585   5.862   4.624   1.846  0.0101 -0.7864  1.2851
  894MOL0     C20586   5.814   4.573   1.726  0.1913  0.3472 -0.0402
  894MOL0     C20587   5.722   4.631   1.641  1.0083 -0.3917  0.8169
  894MOL0     C20588   5.657   4.565   1.532 -0.1150  0.2836 -0.3118
  894MOL0     C20589   5.711   4.441   1.499 -0.8157 -0.1635  0.4385
  894MOL0     O20590   5.661   4.367   1.393 -0.3823 -0.4690  0.1806
  894MOL0     C20591   5.549   4.431   1.310 -0.4768 -1.0350 -0.4480
  894MOL0     C20592   5.500   4.329   1.203 -0.1273 -0.5797  0.1387
  894MOL0     C20593   5.408   4.391   1.092  0.8981 -0.6795 -1.1554
  894MOL0     C20594   5.385   4.308   0.965  0.0284  0.2245  0.1409
  894MOL0     C20595   5.265   4.219   0.993 -0.7758 -0.3664  0.1369
  894MOL0     C20596   5.225   4.125   0.887  0.0257  0.0974  1.6507
  894MOL0     C20597   5.329   4.011   0.879  0.0058 -0.8598 -1.6874
  894MOL0     C20598   5.288   3.874   0.841 -0.4630  0.4708  0.3878
  894MOL0    Cl20599   5.185   3.885   0.690 -0.5339  0.0426 -0.6797
  894MOL0     C20600   5.808   4.381   1.580 -0.2933  0.2512 -0.5100
  894MOL0     C20601   5.849   4.440   1.696  0.7804 -0.2165 -0.3671
  894MOL0     O20602   5.810   4.843   1.831 -0.1481  0.0773 -0.3805
  894MOL0     C20603   5.865   4.892   2.102 -0.0762 -0.2654 -0.0439
  894MOL0     C20604   5.916   4.909   2.232  0.2852 -0.5957  0.3665
  894MOL0     N20605   6.649   4.682   2.491  0.2253  0.0648  0.5490
  894MOL0     N20606   6.739   4.705   2.586 -0.8185 -0.3764  0.2541
  894MOL0     C20607   7.194   4.654   3.615  1.0305  0.0828 -0.4967
  894MOL0     C20608   7.099   4.682   3.709  0.1055  0.2612  0.1514
  894MOL0     C20609   6.793   4.904   3.939  0.7939 -0.4432 -1.1393
  894MOL0     C20610   6.839   4.964   4.056 -0.4190 -0.7528 -0.5505
  894MOL0     C20611   6.757   4.978   4.163 -0.3631  0.8789  0.4319
  894MOL0     C20612   6.638   4.918   4.174  0.2726 -0.7722 -0.4318
  894MOL0     O20613   6.567   4.927   4.292  0.5578  0.9739 -0.4174
  894MOL0     C20614   6.583   4.817   4.381 -0.1679 -0.0114 -0.6235
  894MOL0     C20615   6.660   4.859   4.508 -1.2090 -0.2076 -0.2706
  894MOL0     C20616   6.603   4.974   4.589 -0.0851 -0.3889  0.6792
  894MOL0     C20617   6.676   4.985   4.723  0.8206  0.1583  0.4841
  894MOL0     C20618   6.582   5.054   4.812  0.2730  0.9078 -0.9000
  894MOL0     C20619   6.497   5.076   4.902 -0.5012 -0.8026  0.4586
  894MOL0     C20620   6.593   4.858   4.059 -0.5419  0.1636  0.1686
  894MOL0     C20621   6.668   4.841   3.937 -0.6901 -0.1383 -0.1576
  894MOL0     C20622   6.599   4.768   3.826  0.1653 -1.0268  0.2021
  894MOL0     H20623   6.892   4.856   3.503  0.7063 -1.2457 -1.0398
  894MOL0     H20624   7.041   4.777   3.336  1.1039 -0.1687 -0.7980
  894MOL0     H20625   7.374   4.494   3.299  2.4532 -2.2547  3.6868
  894MOL0     H20626   7.314   4.459   3.449 -0.6169 -0.0482  0.6073
  894MOL0     H20627   7.082   4.458   3.375  2.3748 -1.5304  2.3212
  894MOL0     H20628   7.169   4.350   3.276  1.8571  0.6511  0.2338
  894MOL0     H20629   7.118   4.644   3.174  3.4062  0.4906 -0.0486
  894MOL0     H20630   6.993   4.536   3.184  0.2697 -0.3604  1.6457
  894MOL0     H20631   7.245   4.498   3.021  0.2200  3.4972  1.9275
  894MOL0     H20632   7.123   4.372   3.059  2.2938 -0.2499  3.3740
  894MOL0     H20633   7.100   4.628   2.894  1.3707 -0.5859 -0.2811
  894MOL0     H20634   7.105   4.470   2.828 -0.5916 -1.8612  0.6599
  894MOL0     H20635   6.889   4.427   3.005 -1.0819  0.8602  2.6987
  894MOL0     H20636   6.901   4.612   2.992  1.6263  0.4583  0.7371
  894MOL0     H20637   6.777   4.431   2.830  0.1542  0.7036  3.4021
  894MOL0     H20638   6.901   4.527   2.740  0.9705  2.1223  1.3586
  894MOL0     H20639   6.671   4.642   2.904  0.1486  1.8858  1.1652
  894MOL0     H20640   6.794   4.752   2.864 -2.0053  1.7103 -2.8212
  894MOL0     H20641   6.499   4.612   2.777 -0.3000 -0.3613 -0.9466
  894MOL0     H20642   6.442   4.582   2.366  3.9787  1.3523  0.3330
  894MOL0     H20643   6.388   4.483   2.503 -3.0809 -0.8922 -3.8095
  894MOL0     H20644   6.198   4.627   2.503  0.3234 -1.4290 -3.2436
  894MOL0     H20645   6.298   4.712   2.613  0.0552  1.0944  0.7378
  894MOL0     H20646   6.290   4.765   2.313  0.8915 -0.0317 -0.6123
  894MOL0     H20647   6.386   4.857   2.431 -0.3182  0.8117 -1.4613
  894MOL0     H20648   6.160   4.973   2.381 -0.2738  0.7507  0.0697
  894MOL0     H20649   6.158   4.908   2.543 -2.8285  3.2999 -1.6100
  894MOL0     H20650   6.089   4.614   2.263 -1.0534 -1.0105  0.3028
  894MOL0     H20651   5.991   4.580   2.040  0.3193  0.3393  0.4797
  894MOL0     H20652   5.701   4.737   1.639 -1.6975 -0.8507  0.5104
  894MOL0     H20653   5.584   4.621   1.474  0.9114  1.8983 -0.1088
  894MOL0     H20654   5.459   4.463   1.363  0.0581  1.9361 -1.1731
  894MOL0     H20655   5.600   4.516   1.263  0.7517  0.3864  3.1238
  894MOL0     H20656   5.585   4.271   1.165  0.0366 -1.7091  2.0805
  894MOL0     H20657   5.436   4.256   1.254  0.1578 -2.4818 -2.0605
  894MOL0     H20658   5.311   4.426   1.128  0.0090 -1.5063 -2.6762
  894MOL0     H20659   5.449   4.488   1.060 -1.4453  1.1149  0.9189
  894MOL0     H20660   5.468   4.239   0.951  1.9814  1.8036  2.9978
  894MOL0     H20661   5.378   4.383   0.886 -0.0654  1.3997  1.2268
  894MOL0     H20662   5.175   4.278   1.013 -1.5144 -1.9783  1.9264
  894MOL0     H20663   5.279   4.157   1.082 -2.4765  0.3901  0.9660
  894MOL0     H20664   5.120   4.096   0.898 -0.4968  1.5663  0.8387
  894MOL0     H20665   5.234   4.171   0.788 -1.0438 -1.3385  0.8338
  894MOL0     H20666   5.376   4.001   0.978 -1.5394 -3.4062 -1.1155
  894MOL0     H20667   5.408   4.044   0.811 -0.0405  1.3503 -0.7729
  894MOL0     H20668   5.382   3.820   0.830  0.8229  3.0629 -2.4798
  894MOL0     H20669   5.231   3.826   0.922 -2.4660  3.3990  0.8749
  894MOL0     H20670   5.840   4.282   1.549 -1.9843 -0.1422 -1.1059
  894MOL0     H20671   5.910   4.372   1.755 -2.3274 -2.4564  0.5812
  894MOL0     H20672   5.808   4.968   2.049  0.2810 -0.8936 -1.3795
  894MOL0     H20673   5.898   4.998   2.290  2.9695 -0.1919  0.7018
  894MOL0     H20674   7.276   4.595   3.656  0.0982  0.7290  2.6253
  894MOL0     H20675   7.108   4.646   3.811 -1.8284 -3.5058 -0.8196
  894MOL0     H20676   6.935   5.015   4.062 -0.6898 -0.3901  0.9549
  894MOL0     H20677   6.790   5.008   4.262 -1.5017  2.7106  0.2928
  894MOL0     H20678   6.623   4.719   4.354  1.2016  0.2012  0.5037
  894MOL0     H20679   6.482   4.787   4.409 -0.9125  3.0109  0.2625
  894MOL0     H20680   6.758   4.888   4.469 -1.0902  0.2156  0.3400
  894MOL0     H20681   6.677   4.767   4.565 -3.5284 -0.0229  0.8320
  894MOL0     H20682   6.496   4.957   4.608 -0.5534 -0.9407 -2.0994
  894MOL0     H20683   6.613   5.066   4.532 -4.1114  0.6726  1.3276
  894MOL0     H20684   6.702   4.889   4.767  0.7804 -0.9981 -1.8806
  894MOL0     H20685   6.764   5.049   4.712 -0.3368  1.4188 -3.1217
  894MOL0     H20686   6.444   5.098   4.993 -0.1798 -0.4383  0.5595
  894MOL0     H20687   6.489   4.829   4.053  0.3421 -3.6494  0.2497
  894MOL0     H20688   6.649   4.672   3.809 -2.1108 -1.7554 -3.3530
  894MOL0     H20689   6.494   4.751   3.849  0.7660 -1.0737  3.3481
  894MOL0     H20690   6.602   4.827   3.734 -2.6162 -1.3629 -0.2084
  895MOL0     O20691  11.451   9.634   1.023 -1.2377  0.0912 -0.2055
  895MOL0     C20692  11.529   9.604   0.935  0.2295 -0.0146  0.1825
  895MOL0     O20693  11.497   9.620   0.818 -0.0324 -0.2447 -0.0515
  895MOL0     C20694  11.398   9.693   0.764 -0.3535 -0.5027 -0.0008
  895MOL0     C20695  11.297   9.766   0.825 -0.6216 -0.6215 -0.0826
  895MOL0     C20696  11.225   9.855   0.749  0.4835  0.0098 -0.1403
  895MOL0     C20697  11.240   9.863   0.613  0.6959  0.2134 -1.6845
  895MOL0     O20698  11.181   9.961   0.536 -0.1826 -0.7221  0.3142
  895MOL0     C20699  11.128  10.085   0.598  0.2417  0.0091  0.3567
  895MOL0     C20700  11.097  10.186   0.488  0.5220  0.9567 -0.9353
  895MOL0     C20701  11.002  10.134   0.379  0.5510 -0.1146 -0.4697
  895MOL0     C20702  10.986  10.232   0.267 -0.0013 -0.1748  1.0030
  895MOL0     C20703  10.925  10.372   0.306  0.2361 -0.5255  0.6392
  895MOL0     C20704  10.914  10.471   0.190  0.4118  0.4642 -0.0536
  895MOL0     C20705  10.847  10.601   0.233  0.3021 -1.2819  0.7440
  895MOL0     C20706  10.695  10.599   0.259 -0.2745 -0.1079  0.2920
  895MOL0     N20707  10.640  10.728   0.313  0.2414 -0.2701 -0.3672
  895MOL0     C20708  10.593  10.833   0.235 -0.5334 -0.2619 -0.0986
  895MOL0     C20709  10.582  10.930   0.335 -1.1242 -0.4581  0.4372
  895MOL0     C20710  10.529  11.053   0.323  1.0688  0.3163 -0.1168
  895MOL0     C20711  10.397  11.066   0.241  0.0517 -0.1477 -0.1211
  895MOL0     C20712  10.276  11.036   0.323 -0.6818  0.3777 -0.1992
  895MOL0     C20713  10.245  11.142   0.421 -0.0713  0.7167 -0.0372
  895MOL0     O20714  10.219  11.269   0.366  0.4577  0.1518 -0.3805
  895MOL0     C20715  10.163  11.375   0.449  0.0841  0.3465  0.2929
  895MOL0     C20716  10.111  11.352   0.569 -0.5398  0.3540 -0.7121
  895MOL0     C20717  10.048  11.462   0.640 -0.8472  0.1888  0.3963
  895MOL0     C20718  10.029  11.588   0.581 -0.4065  0.2081  0.1125
  895MOL0     C20719   9.949  11.691   0.641 -0.9940  1.3788  0.3423
  895MOL0     O20720   9.906  11.796   0.560 -0.3899  0.3234 -0.1420
  895MOL0     C20721   9.855  11.915   0.613  1.2956 -0.1422 -0.0152
  895MOL0     C20722   9.871  12.022   0.522 -0.4584  0.6133 -0.1404
  895MOL0     C20723   9.818  12.146   0.548  0.5479  0.7276 -0.1989
  895MOL0     C20724   9.754  12.156   0.678 -0.0484  0.4922  0.2506
  895MOL0     O20725   9.700  12.276   0.696 -0.0467  0.2498 -0.3547
  895MOL0     C20726   9.719  12.341   0.825 -0.9417  0.1694 -0.1088
  895MOL0     C20727   9.865  12.367   0.864  0.1466 -0.1802  0.6187
  895MOL0     C20728   9.861  12.436   0.996  0.6129 -0.4567  0.2499
  895MOL0     C20729  10.006  12.459   1.055 -1.0441  0.6641 -0.1965
  895MOL0     C20730  10.001  12.486   1.202 -0.2932 -1.3832 -0.2082
  895MOL0     C20731  10.133  12.456   1.276  0.8788 -1.1795  0.0410
  895MOL0     C20732  10.121  12.306   1.318  0.0907  0.1737 -0.1346
  895MOL0     C20733  10.195  12.264   1.454 -0.0836  0.5052 -1.1542
  895MOL0    Cl20734  10.170  12.087   1.501 -0.2123 -0.4930  0.1753
  895MOL0     C20735   9.739  12.051   0.766  0.4867 -0.1579 -0.5270
  895MOL0     C20736   9.785  11.925   0.738 -0.1617 -0.4476 -0.8006
  895MOL0     O20737   9.945  11.692   0.762  0.4988 -0.1913  0.1654
  895MOL0     C20738  10.071  11.607   0.441  0.0240  0.5500  0.6108
  895MOL0     C20739  10.133  11.499   0.386  0.1469 -0.1864  0.2550
  895MOL0     N20740  10.630  10.888   0.455 -1.0864  0.0495  0.8468
  895MOL0     N20741  10.668  10.763   0.442 -0.2070  0.5028  0.0299
  895MOL0     C20742  11.344   9.797   0.554 -0.2787 -0.5147 -0.1614
  895MOL0     C20743  11.416   9.699   0.629  0.1342  0.5788  0.3912
  895MOL0     C20744  11.668   9.586   0.971 -0.1077 -0.3794 -0.4836
  895MOL0     C20745  11.704   9.616   1.105  0.8246 -0.4354  1.1755
  895MOL0     C20746  11.831   9.595   1.151 -0.0710 -0.4783  0.5537
  895MOL0     C20747  11.927   9.542   1.062  0.3615  1.0530  0.2648
  895MOL0     O20748  12.048   9.500   1.108 -0.0216 -0.4100 -0.3096
  895MOL0     C20749  12.135   9.600   1.161 -0.4391  0.8212  0.5275
  895MOL0     C20750  12.284   9.529   1.158 -0.0726 -0.1454 -0.7309
  895MOL0     C20751  12.288   9.408   1.249  0.1278  0.0458  0.6715
  895MOL0     C20752  12.427   9.344   1.253 -0.1966  0.0358 -0.0640
  895MOL0     C20753  12.538   9.429   1.295  0.0493 -0.3774 -0.6996
  895MOL0     C20754  12.616   9.505   1.341  0.3015 -0.3172  0.4133
  895MOL0     C20755  11.890   9.504   0.939 -0.4013 -0.4218  0.7250
  895MOL0     C20756  11.764   9.523   0.890  0.4585 -0.4296 -1.1229
  895MOL0     C20757  11.734   9.473   0.747  0.2333 -0.0173 -0.6661
  895MOL0     H20758  11.279   9.749   0.930 -3.1071 -4.2306 -0.8876
  895MOL0     H20759  11.154   9.925   0.792  2.0984  2.0127 -0.5703
  895MOL0     H20760  11.038  10.050   0.650  1.2006 -2.3437  0.5597
  895MOL0     H20761  11.189  10.127   0.678 -0.3527 -1.1877  1.4817
  895MOL0     H20762  11.192  10.208   0.438  0.3716  0.5825 -1.3999
  895MOL0     H20763  11.060  10.279   0.530  0.2968  0.2220  0.5637
  895MOL0     H20764  10.904  10.101   0.414 -0.8562 -0.1431 -4.0302
  895MOL0     H20765  11.052  10.044   0.342  2.4261  1.0338 -0.8600
  895MOL0     H20766  11.085  10.255   0.227 -0.5798  1.3991  0.3801
  895MOL0     H20767  10.926  10.187   0.186 -0.2653 -1.3573  1.8271
  895MOL0     H20768  10.828  10.369   0.358  1.2804  3.2402  3.2039
  895MOL0     H20769  10.998  10.418   0.373 -0.9984  2.2863  0.1866
  895MOL0     H20770  11.002  10.486   0.126  1.8206 -0.0008  1.7042
  895MOL0     H20771  10.852  10.423   0.113  2.5334  0.0289 -1.5924
  895MOL0     H20772  10.865  10.675   0.155  0.7533  0.4218  2.3946
  895MOL0     H20773  10.897  10.640   0.323 -5.9067 -0.2266  4.2878
  895MOL0     H20774  10.646  10.587   0.163 -0.2568  2.6216 -0.1279
  895MOL0     H20775  10.672  10.520   0.332  0.6494 -1.3114 -0.6710
  895MOL0     H20776  10.552  10.834   0.134 -0.9442 -0.1736  0.0692
  895MOL0     H20777  10.515  11.101   0.420  0.7451  2.8461 -1.3344
  895MOL0     H20778  10.600  11.119   0.273  1.9725  2.7476  3.9585
  895MOL0     H20779  10.388  11.170   0.210 -0.4177 -0.0254  0.4047
  895MOL0     H20780  10.392  11.002   0.153 -1.9712 -0.3889  0.1252
  895MOL0     H20781  10.284  10.938   0.372  2.6304  0.5929 -0.0639
  895MOL0     H20782  10.196  11.020   0.250 -0.3339  3.5408 -1.4080
  895MOL0     H20783  10.318  11.140   0.502 -2.7574 -1.2232  2.5338
  895MOL0     H20784  10.155  11.114   0.476  0.7334  1.2987  1.6405
  895MOL0     H20785  10.135  11.259   0.620  2.1988  1.4126  0.1490
  895MOL0     H20786  10.024  11.439   0.744  2.1047  0.3386  1.1950
  895MOL0     H20787   9.914  11.995   0.426  0.4491  3.0104 -0.4727
  895MOL0     H20788   9.814  12.211   0.462  0.9695 -1.4074 -1.9281
  895MOL0     H20789   9.666  12.436   0.824  0.7048  1.1303 -0.9810
  895MOL0     H20790   9.669  12.292   0.909 -1.4035  1.8607  0.6328
  895MOL0     H20791   9.915  12.272   0.883 -1.5276 -1.0508  0.8345
  895MOL0     H20792   9.908  12.437   0.791 -2.3004  0.5886 -0.1592
  895MOL0     H20793   9.819  12.532   0.964 -2.0005 -1.1044  1.4817
  895MOL0     H20794   9.791  12.387   1.064 -0.1325  1.8487  1.2337
  895MOL0     H20795  10.062  12.531   0.994 -0.7717  1.0530  0.5127
  895MOL0     H20796  10.041  12.356   1.045  0.1688  1.1738 -1.6440
  895MOL0     H20797   9.911  12.437   1.243 -2.2262  2.1011  0.1379
  895MOL0     H20798   9.981  12.593   1.208  2.3136 -0.7913 -1.1249
  895MOL0     H20799  10.225  12.468   1.219  2.4616 -0.6691  2.5263
  895MOL0     H20800  10.143  12.518   1.366  5.1091 -1.8855  0.2495
  895MOL0     H20801  10.157  12.235   1.243 -1.1323 -1.7793  1.0598
  895MOL0     H20802  10.017  12.288   1.344  0.7260 -1.2544  1.7022
  895MOL0     H20803  10.302  12.283   1.441  1.1339 -0.1675  5.1308
  895MOL0     H20804  10.164  12.326   1.539 -0.4321 -1.3682  0.1223
  895MOL0     H20805   9.691  12.076   0.860  0.9767  1.4357 -0.6770
  895MOL0     H20806   9.757  11.838   0.797 -1.9326 -1.1371 -2.5215
  895MOL0     H20807  10.056  11.699   0.385 -1.6744  1.2721  2.1525
  895MOL0     H20808  10.176  11.495   0.286  0.3504 -2.1525  0.3819
  895MOL0     H20809  11.371   9.806   0.449  1.5397 -0.4601  0.2801
  895MOL0     H20810  11.491   9.642   0.574  1.0793  2.2198 -0.0914
  895MOL0     H20811  11.632   9.652   1.177 -0.3753 -0.7134  0.1543
  895MOL0     H20812  11.868   9.616   1.251 -1.9334  2.0516  0.8184
  895MOL0     H20813  12.116   9.618   1.267  2.4180  0.2766  1.2111
  895MOL0     H20814  12.119   9.692   1.103  1.5440  1.0218  0.2306
  895MOL0     H20815  12.357   9.600   1.196 -1.8171 -0.6440  4.2608
  895MOL0     H20816  12.317   9.511   1.055  4.4111  3.9603 -0.3971
  895MOL0     H20817  12.215   9.340   1.204 -2.2061  1.5093  1.9808
  895MOL0     H20818  12.242   9.432   1.346  1.3519  0.4372  1.1714
  895MOL0     H20819  12.424   9.250   1.310  0.8652  0.4347  0.6807
  895MOL0     H20820  12.442   9.306   1.151 -2.2259 -0.4142 -0.2259
  895MOL0     H20821  12.697   9.567   1.373  0.7325 -0.7455  0.1695
  895MOL0     H20822  11.948   9.438   0.875 -2.1603  0.6453 -2.1698
  895MOL0     H20823  11.803   9.394   0.714  0.4018 -0.6127  1.0043
  895MOL0     H20824  11.635   9.426   0.741  0.4198 -0.6457  0.8028
  895MOL0     H20825  11.737   9.564   0.687 -2.0633  0.6763  0.1822
  896MOL0     O20826   1.747   4.798   5.413  0.6269 -0.3281  0.0869
  896MOL0     C20827   1.645   4.740   5.366  0.0358  0.2390 -1.3507
  896MOL0     O20828   1.524   4.788   5.368  0.2284 -0.4842  0.3140
  896MOL0     C20829   1.504   4.923   5.398 -0.2965  0.0607 -0.2731
  896MOL0     C20830   1.507   5.015   5.298 -0.2697  0.8463 -0.2551
  896MOL0     C20831   1.493   5.151   5.328 -0.6883  0.7471  0.8081
  896MOL0     C20832   1.467   5.193   5.463 -0.4484  0.1467  0.2159
  896MOL0     O20833   1.439   5.318   5.510  0.0735 -0.0861  0.0893
  896MOL0     C20834   1.469   5.431   5.426 -0.5626  0.4704 -0.8027
  896MOL0     C20835   1.346   5.439   5.335 -0.4493  0.0615  0.5825
  896MOL0     C20836   1.372   5.544   5.223 -0.7086 -0.8839 -0.0455
  896MOL0     C20837   1.460   5.497   5.115  0.5989 -0.2326  0.6620
  896MOL0     C20838   1.426   5.583   4.986 -0.7247  0.4918 -0.2256
  896MOL0     C20839   1.546   5.592   4.889 -0.0309  0.8541  0.6624
  896MOL0     C20840   1.592   5.463   4.828 -0.0191 -0.4431 -0.1835
  896MOL0     C20841   1.714   5.482   4.738  0.2072  0.4459 -0.9580
  896MOL0     N20842   1.684   5.557   4.622  0.5702 -0.8217  0.3654
  896MOL0     C20843   1.747   5.679   4.594 -0.9304  0.4941  0.0118
  896MOL0     C20844   1.693   5.712   4.466 -0.5019 -0.0714  0.7801
  896MOL0     C20845   1.738   5.842   4.405 -1.0067 -0.3525 -1.2604
  896MOL0     C20846   1.645   5.960   4.447 -0.7677  0.6361  0.2289
  896MOL0     C20847   1.492   5.927   4.418 -0.5991 -0.5954  0.7163
  896MOL0     C20848   1.458   5.894   4.270 -0.8727  0.3081 -0.0260
  896MOL0     O20849   1.528   5.987   4.191 -0.1669 -0.7866  0.3714
  896MOL0     C20850   1.501   6.115   4.202  0.8956 -0.6415 -1.3787
  896MOL0     C20851   1.375   6.169   4.237 -0.0898 -0.0638 -0.1287
  896MOL0     C20852   1.363   6.306   4.236 -0.6849  1.0174  0.6773
  896MOL0     C20853   1.457   6.396   4.200 -0.1517 -0.3187 -0.1409
  896MOL0     C20854   1.434   6.543   4.198  0.3683 -0.1077  0.2756
  896MOL0     O20855   1.300   6.587   4.202  0.0153 -0.6876 -0.1302
  896MOL0     C20856   1.262   6.706   4.150  0.8515  0.0235 -0.3242
  896MOL0     C20857   1.314   6.752   4.027 -0.5097 -0.1271  0.2035
  896MOL0     C20858   1.265   6.877   3.969  0.2445  0.5332 -0.3263
  896MOL0     C20859   1.172   6.950   4.030  1.4004 -0.3919  0.1080
  896MOL0     O20860   1.115   7.069   3.982  0.7770  0.4418 -0.1928
  896MOL0     C20861   1.184   7.184   4.041 -1.0558  0.4038 -0.6697
  896MOL0     C20862   1.147   7.315   3.967 -0.6951 -0.1879 -0.6611
  896MOL0     C20863   0.993   7.337   3.976 -0.3214 -0.5510  0.5614
  896MOL0     C20864   0.957   7.465   3.907  0.3421 -0.5034 -0.0554
  896MOL0     C20865   0.802   7.461   3.903  0.5709  0.1565  0.7222
  896MOL0     C20866   0.738   7.598   3.869 -0.5003 -0.4598  0.3239
  896MOL0     C20867   0.603   7.578   3.810 -0.3960 -0.4494  0.7660
  896MOL0     C20868   0.516   7.701   3.844  0.3175  1.4199 -0.7475
  896MOL0    Cl20869   0.479   7.698   4.018  0.1962 -0.1152  0.0323
  896MOL0     C20870   1.120   6.904   4.154 -0.6878  0.3312  0.3102
  896MOL0     C20871   1.165   6.785   4.211 -0.6898  0.3281  0.1654
  896MOL0     O20872   1.532   6.622   4.200 -0.3098  0.7278 -0.0944
  896MOL0     C20873   1.580   6.339   4.179  0.2970 -0.3542  1.1950
  896MOL0     C20874   1.600   6.203   4.171  0.3865  0.2316  0.6593
  896MOL0     N20875   1.593   5.619   4.434 -0.6432 -0.3372 -0.7887
  896MOL0     N20876   1.588   5.532   4.524 -0.3668  1.0104 -0.5438
  896MOL0     C20877   1.450   5.097   5.564 -0.1078 -0.4334 -0.7101
  896MOL0     C20878   1.478   4.961   5.535  0.8416  0.7306  0.2764
  896MOL0     C20879   1.663   4.611   5.304 -1.3000  0.5185 -0.9422
  896MOL0     C20880   1.776   4.540   5.346 -0.3481 -0.8153  0.6055
  896MOL0     C20881   1.812   4.423   5.285 -0.3940 -0.0909 -0.8426
  896MOL0     C20882   1.733   4.359   5.192  0.4563 -0.4439 -0.6868
  896MOL0     O20883   1.743   4.234   5.136 -0.6682 -0.0669 -0.3933
  896MOL0     C20884   1.839   4.147   5.197  0.2389  0.4637  0.4493
  896MOL0     C20885   1.818   4.010   5.154 -0.3524  0.1384 -1.3859
  896MOL0     C20886   1.845   4.002   5.003 -0.0991  0.3824 -0.3280
  896MOL0     C20887   1.843   3.860   4.944  0.5411  1.0967 -0.1810
  896MOL0     C20888   1.719   3.789   4.964 -0.1347 -0.8554  0.0555
  896MOL0     C20889   1.604   3.750   4.972  0.4873 -0.4275 -0.0815
  896MOL0     C20890   1.619   4.424   5.147  0.2886 -0.5761 -0.2570
  896MOL0     C20891   1.578   4.550   5.196 -0.3024 -1.0943 -0.7511
  896MOL0     C20892   1.456   4.626   5.140 -0.3325  0.2707 -0.4632
  896MOL0     H20893   1.509   4.982   5.195  2.2965  0.1328 -0.0654
  896MOL0     H20894   1.486   5.221   5.245  0.6213 -0.0462 -0.0108
  896MOL0     H20895   1.472   5.525   5.482  5.7867  0.3054 -0.1347
  896MOL0     H20896   1.566   5.435   5.374 -0.9262  2.2880 -1.4369
  896MOL0     H20897   1.269   5.484   5.398 -0.2928  1.7767 -0.3730
  896MOL0     H20898   1.310   5.341   5.304 -0.2716 -0.8192  2.9812
  896MOL0     H20899   1.410   5.641   5.256  3.5114 -2.3644  0.0230
  896MOL0     H20900   1.268   5.551   5.188 -0.8475  0.3590  0.5738
  896MOL0     H20901   1.569   5.503   5.130  0.3965  3.2423  1.6734
  896MOL0     H20902   1.436   5.393   5.089  1.6597 -0.1070 -0.9734
  896MOL0     H20903   1.339   5.545   4.932 -0.8004 -2.1205  1.5969
  896MOL0     H20904   1.396   5.684   5.017  1.3581  0.6785  1.3626
  896MOL0     H20905   1.536   5.675   4.819 -1.9366  0.8805  0.9352
  896MOL0     H20906   1.628   5.632   4.950  1.6962  1.2485 -1.7636
  896MOL0     H20907   1.518   5.417   4.762 -0.1763 -0.0078 -0.3109
  896MOL0     H20908   1.617   5.400   4.914 -1.3169  0.1349  0.6368
  896MOL0     H20909   1.797   5.525   4.795 -1.1705  2.7775 -0.5449
  896MOL0     H20910   1.739   5.379   4.713  0.9956 -0.0829  1.7372
  896MOL0     H20911   1.826   5.735   4.641  0.4994 -0.4256 -1.2098
  896MOL0     H20912   1.842   5.854   4.436 -1.4864 -0.7039  0.5915
  896MOL0     H20913   1.737   5.833   4.296  1.9296 -0.9003 -1.3462
  896MOL0     H20914   1.665   5.969   4.554  0.4089 -0.4795  0.1289
  896MOL0     H20915   1.661   6.054   4.394 -3.3056  1.6870  1.1682
  896MOL0     H20916   1.439   6.014   4.459  1.3703  1.2087 -0.3610
  896MOL0     H20917   1.448   5.845   4.475 -4.6231  1.1704  0.4660
  896MOL0     H20918   1.355   5.904   4.235 -1.1357  2.5597  1.1698
  896MOL0     H20919   1.490   5.792   4.249  0.1401 -0.4490  4.2044
  896MOL0     H20920   1.285   6.111   4.252  1.1812 -2.0471  0.1373
  896MOL0     H20921   1.271   6.358   4.261 -1.6776 -1.2936  2.2413
  896MOL0     H20922   1.385   6.692   3.971 -0.4184  1.9468 -2.0958
  896MOL0     H20923   1.319   6.898   3.877 -0.4891  0.5698 -0.7646
  896MOL0     H20924   1.153   7.205   4.144  0.0197  0.3155 -0.3115
  896MOL0     H20925   1.290   7.157   4.045 -1.0363  0.5589  0.0600
  896MOL0     H20926   1.201   7.394   4.019 -3.3174 -0.9588  3.7362
  896MOL0     H20927   1.187   7.309   3.865  4.0000 -0.0823  0.9351
  896MOL0     H20928   0.942   7.256   3.923 -0.6351 -1.8529  2.7396
  896MOL0     H20929   0.960   7.340   4.080 -0.4939 -0.7574  0.5142
  896MOL0     H20930   0.998   7.483   3.807  0.0543 -2.4230 -0.5649
  896MOL0     H20931   0.988   7.550   3.968  1.8447 -1.3008  0.3330
  896MOL0     H20932   0.747   7.422   3.990 -2.0407  1.1829 -0.3728
  896MOL0     H20933   0.778   7.393   3.821 -0.9619  3.3364 -1.6794
  896MOL0     H20934   0.728   7.664   3.955 -3.7107 -1.4418  0.8494
  896MOL0     H20935   0.792   7.652   3.790 -3.6610  2.4937 -0.0520
  896MOL0     H20936   0.554   7.484   3.839  1.0025 -2.3213 -2.4339
  896MOL0     H20937   0.617   7.566   3.702 -0.1818 -0.7690  0.8258
  896MOL0     H20938   0.557   7.796   3.809 -0.1448  2.8398  2.2364
  896MOL0     H20939   0.418   7.687   3.796 -0.1006 -0.8014  0.5738
  896MOL0     H20940   1.043   6.953   4.212 -1.7534 -2.2064  1.1794
  896MOL0     H20941   1.120   6.766   4.308  0.4118  2.6382  1.1982
  896MOL0     H20942   1.659   6.414   4.173 -0.2212  0.2805  2.1432
  896MOL0     H20943   1.692   6.157   4.137 -0.4946  0.8089 -2.9260
  896MOL0     H20944   1.441   5.117   5.670  2.1703 -0.4320 -0.4810
  896MOL0     H20945   1.447   4.884   5.604 -2.1164 -0.5540 -2.2475
  896MOL0     H20946   1.844   4.577   5.423  1.7368 -1.7998 -0.6823
  896MOL0     H20947   1.899   4.374   5.327 -1.0884 -2.0181 -1.5220
  896MOL0     H20948   1.837   4.156   5.306  3.6271 -1.7643  0.8190
  896MOL0     H20949   1.939   4.176   5.165  0.3044 -1.0602 -0.8709
  896MOL0     H20950   1.716   3.987   5.185 -1.2005  1.3478 -3.0985
  896MOL0     H20951   1.878   3.938   5.211 -2.6957 -1.1780 -0.4220
  896MOL0     H20952   1.929   4.056   4.957 -0.9778  2.1354  0.0818
  896MOL0     H20953   1.764   4.060   4.960  2.8766  2.6955 -3.3775
  896MOL0     H20954   1.843   3.871   4.835 -3.2811  1.5454 -0.2608
  896MOL0     H20955   1.931   3.810   4.987 -0.7182 -2.1721 -1.0869
  896MOL0     H20956   1.516   3.690   4.975 -1.1399  1.7614  3.5867
  896MOL0     H20957   1.574   4.380   5.059 -0.5271 -1.4617  0.5790
  896MOL0     H20958   1.373   4.622   5.212 -0.6897  1.4372 -0.7893
  896MOL0     H20959   1.486   4.730   5.127  1.1723 -0.0079  0.5506
  896MOL0     H20960   1.427   4.587   5.042  0.6162 -2.8585  0.4020
  897MOL0     O20961   0.607   9.069   4.163 -0.4900 -0.0258  0.2630
  897MOL0     C20962   0.688   9.012   4.085  0.0437 -0.5013 -0.1010
  897MOL0     O20963   0.644   8.960   3.961 -0.0093  0.4366 -0.0870
  897MOL0     C20964   0.513   8.978   3.916  0.0296  0.1106  0.3379
  897MOL0     C20965   0.396   9.015   3.988  0.1080 -0.2104  0.8831
  897MOL0     C20966   0.270   9.043   3.923  0.3340 -0.0898 -0.7750
  897MOL0     C20967   0.261   9.016   3.788  1.4243 -0.7009  0.4590
  897MOL0     O20968   0.130   9.033   3.739  0.0944 -0.4089 -0.3232
  897MOL0     C20969   0.048   8.915   3.732 -0.4413  0.1267 -0.3626
  897MOL0     C20970  -0.104   8.960   3.742  0.1056  1.3751  0.2300
  897MOL0     C20971  -0.195   8.945   3.614  0.2411 -0.4060 -0.4858
  897MOL0     C20972  -0.222   8.801   3.583  0.6018 -0.6935  0.4585
  897MOL0     C20973  -0.356   8.788   3.514  0.1958  1.1649  0.6697
  897MOL0     C20974  -0.338   8.808   3.362 -0.1804 -0.3155 -0.1444
  897MOL0     C20975  -0.473   8.813   3.275  0.8845  0.4801  0.8782
  897MOL0     C20976  -0.545   8.950   3.303 -0.0596  0.8755 -0.6380
  897MOL0     N20977  -0.615   9.018   3.195  0.4122 -0.0802  0.2224
  897MOL0     C20978  -0.560   9.121   3.121 -0.0020  1.0817 -0.2183
  897MOL0     C20979  -0.633   9.121   3.011 -0.1683 -0.4355  0.2449
  897MOL0     C20980  -0.628   9.224   2.907  0.2981  0.1884 -0.0177
  897MOL0     C20981  -0.760   9.302   2.882 -0.6661 -0.2452 -0.7433
  897MOL0     C20982  -0.814   9.388   3.000 -0.6033 -0.0644  0.4592
  897MOL0     C20983  -0.894   9.329   3.113  0.8535  0.4070 -1.2532
  897MOL0     O20984  -0.890   9.427   3.226  0.0106 -0.5023  0.6178
  897MOL0     C20985  -1.012   9.495   3.241  0.0166 -0.2395 -0.4702
  897MOL0     C20986  -1.111   9.526   3.150  0.3300  0.0598  0.1985
  897MOL0     C20987  -1.236   9.584   3.186  1.0726  0.5071  0.8511
  897MOL0     C20988  -1.272   9.607   3.314  1.0101  0.3236 -0.5124
  897MOL0     C20989  -1.404   9.669   3.359 -0.3317 -0.4469 -0.0830
  897MOL0     O20990  -1.417   9.739   3.483  0.5536 -0.0593  0.5118
  897MOL0     C20991  -1.534   9.810   3.510  0.3298  0.3276 -1.2573
  897MOL0     C20992  -1.658   9.739   3.508  0.3213 -0.2324 -0.2605
  897MOL0     C20993  -1.777   9.794   3.556 -0.3034  0.7360 -0.5456
  897MOL0     C20994  -1.775   9.927   3.599  0.2892  1.0346 -0.2798
  897MOL0     O20995  -1.882  10.007   3.622 -0.0985 -0.5494  0.5065
  897MOL0     C20996  -1.971   9.999   3.506 -0.0497  0.7743 -0.5199
  897MOL0     C20997  -2.107  10.068   3.555 -0.6264 -0.9720 -0.0371
  897MOL0     C20998  -2.128  10.054   3.710  0.0959 -0.8241  0.3427
  897MOL0     C20999  -2.153   9.905   3.759  0.1142  0.0108 -0.0785
  897MOL0     C21000  -2.218   9.909   3.900 -0.5858 -0.2185  1.0442
  897MOL0     C21001  -2.280   9.774   3.918  0.6065 -0.0317  0.7816
  897MOL0     C21002  -2.354   9.759   4.054  0.3142 -0.9648  0.0620
  897MOL0     C21003  -2.498   9.797   4.008  0.0657  0.9037 -0.2628
  897MOL0    Cl21004  -2.623   9.803   4.142  0.3147 -0.0033  0.3256
  897MOL0     C21005  -1.653   9.997   3.610  0.1825 -0.0359  0.5367
  897MOL0     C21006  -1.538   9.938   3.579 -0.7802  0.1926 -0.2832
  897MOL0     O21007  -1.500   9.643   3.286  0.3827  0.2360 -0.5639
  897MOL0     C21008  -1.173   9.584   3.412  0.3787  0.2072  0.1346
  897MOL0     C21009  -1.048   9.531   3.373 -0.1344  0.3545 -0.0685
  897MOL0     N21010  -0.732   9.022   3.031  0.5866  0.0987 -0.2619
  897MOL0     N21011  -0.728   8.967   3.146 -0.1143 -0.6553  0.3263
  897MOL0     C21012   0.370   8.978   3.709 -0.8423  0.5119 -0.3380
  897MOL0     C21013   0.491   8.952   3.775 -0.0436 -0.2285 -1.1168
  897MOL0     C21014   0.818   8.983   4.128 -0.4591 -0.2907  0.0051
  897MOL0     C21015   0.877   8.860   4.074 -0.3723  0.3667 -0.0170
  897MOL0     C21016   0.992   8.815   4.128  0.0050 -0.1924 -0.3599
  897MOL0     C21017   1.060   8.879   4.228  0.1273  0.2774 -0.1145
  897MOL0     O21018   1.175   8.843   4.291 -0.4392  0.0013  0.6751
  897MOL0     C21019   1.226   8.707   4.299 -0.7066  0.7935 -0.2701
  897MOL0     C21020   1.137   8.627   4.403  0.3856 -0.1964  0.9517
  897MOL0     C21021   1.211   8.500   4.445 -0.3251 -0.0615 -0.6376
  897MOL0     C21022   1.285   8.516   4.581 -0.2549 -0.2238 -0.1726
  897MOL0     C21023   1.354   8.388   4.602 -0.3782 -0.2527  0.4469
  897MOL0     C21024   1.410   8.282   4.614  0.7974  0.4068 -0.6270
  897MOL0     C21025   1.013   9.006   4.269 -0.1840 -0.4041 -0.5053
  897MOL0     C21026   0.892   9.058   4.224  0.8492 -0.2021  0.4404
  897MOL0     C21027   0.838   9.179   4.291  0.5183 -0.3404 -0.2776
  897MOL0     H21028   0.390   9.047   4.092 -2.4859  1.3918  0.3311
  897MOL0     H21029   0.187   9.098   3.967  0.1378 -0.4171 -0.7360
  897MOL0     H21030   0.056   8.865   3.635  1.1059  2.5951 -1.5913
  897MOL0     H21031   0.069   8.842   3.811 -2.1286 -0.0052  0.0029
  897MOL0     H21032  -0.101   9.059   3.790 -0.3944  0.0166  3.2882
  897MOL0     H21033  -0.153   8.906   3.823 -1.1847 -0.7859 -1.8625
  897MOL0     H21034  -0.165   9.006   3.528 -0.3935  1.7411  0.7507
  897MOL0     H21035  -0.288   8.991   3.650 -0.5286 -3.0753  1.2586
  897MOL0     H21036  -0.151   8.754   3.513  1.7406  0.6346  0.6801
  897MOL0     H21037  -0.228   8.742   3.675 -1.6904  1.7993  2.0141
  897MOL0     H21038  -0.378   8.681   3.521  2.0152  0.6352 -0.9544
  897MOL0     H21039  -0.426   8.846   3.574  0.4650  1.5441  0.6234
  897MOL0     H21040  -0.278   8.898   3.350 -3.0555  1.6582 -0.7131
  897MOL0     H21041  -0.271   8.733   3.318  1.8898 -0.0014  2.2508
  897MOL0     H21042  -0.546   8.734   3.293 -0.1501  1.5447  1.4615
  897MOL0     H21043  -0.446   8.820   3.169 -2.3636  1.0305  0.0031
  897MOL0     H21044  -0.620   8.918   3.375 -0.0237 -1.3985 -1.5287
  897MOL0     H21045  -0.477   9.016   3.357 -1.1210  0.3265  1.4954
  897MOL0     H21046  -0.469   9.178   3.133 -1.0282  2.8974 -0.6865
  897MOL0     H21047  -0.552   9.299   2.927  1.5196 -0.3379 -2.2637
  897MOL0     H21048  -0.591   9.188   2.810  2.4446  2.6022 -0.1953
  897MOL0     H21049  -0.748   9.365   2.794  0.3257 -1.7341 -1.7124
  897MOL0     H21050  -0.822   9.222   2.841  0.8442 -2.2135  0.6186
  897MOL0     H21051  -0.876   9.470   2.963  0.4243 -0.8669 -3.4987
  897MOL0     H21052  -0.722   9.435   3.035 -0.8984  3.5900 -3.0251
  897MOL0     H21053  -0.852   9.233   3.145  2.5120  1.5881  0.3241
  897MOL0     H21054  -0.997   9.304   3.087  1.2876 -1.0724 -1.6315
  897MOL0     H21055  -1.101   9.510   3.043  1.5891  0.8960  0.1710
  897MOL0     H21056  -1.302   9.598   3.100  0.1111  0.5568  1.5807
  897MOL0     H21057  -1.647   9.635   3.476 -0.7810 -0.3250 -0.3631
  897MOL0     H21058  -1.869   9.737   3.567  1.0326 -1.2628  1.0923
  897MOL0     H21059  -1.928  10.045   3.416  0.4689 -0.8938 -1.1622
  897MOL0     H21060  -1.979   9.893   3.481  1.6589 -0.1485  2.3369
  897MOL0     H21061  -2.076  10.168   3.525 -0.1498 -0.4911  1.9164
  897MOL0     H21062  -2.201  10.040   3.505 -1.2949 -0.4869  0.9259
  897MOL0     H21063  -2.054  10.111   3.767  0.5244  0.2585 -1.2325
  897MOL0     H21064  -2.224  10.100   3.738  0.8020 -1.4134  4.3281
  897MOL0     H21065  -2.064   9.841   3.749 -0.7196 -1.0087 -1.2651
  897MOL0     H21066  -2.229   9.869   3.690  1.1774 -0.6952 -0.9241
  897MOL0     H21067  -2.290   9.991   3.897  0.6917  0.9819 -2.7905
  897MOL0     H21068  -2.149   9.927   3.983  2.3085 -1.8488 -0.8175
  897MOL0     H21069  -2.339   9.748   3.830  1.2107  0.8447  0.1010
  897MOL0     H21070  -2.200   9.699   3.926  2.1772  1.4325 -0.3882
  897MOL0     H21071  -2.313   9.826   4.130 -1.7654  0.4306  0.0498
  897MOL0     H21072  -2.336   9.654   4.079  3.5226 -1.0136 -1.8992
  897MOL0     H21073  -2.483   9.893   3.957  2.0688  1.0179  0.4272
  897MOL0     H21074  -2.520   9.715   3.939  1.4440  0.8928 -0.7263
  897MOL0     H21075  -1.655  10.102   3.638 -0.1073 -0.2476  1.3408
  897MOL0     H21076  -1.446   9.993   3.597 -1.4161  1.2618 -0.2309
  897MOL0     H21077  -1.177   9.619   3.515  5.1665 -0.2838  0.7522
  897MOL0     H21078  -0.979   9.530   3.457  0.5257  0.6726 -0.5938
  897MOL0     H21079   0.361   8.965   3.602  2.3619  0.9433 -0.7515
  897MOL0     H21080   0.557   8.908   3.701 -1.5561 -0.3046 -2.4929
  897MOL0     H21081   0.819   8.807   3.999  0.2344  0.2161 -0.3826
  897MOL0     H21082   1.036   8.726   4.084  1.2530  1.1327 -1.9163
  897MOL0     H21083   1.330   8.718   4.332 -0.9634 -0.3528  0.9930
  897MOL0     H21084   1.221   8.649   4.206  3.0282 -3.7100  1.9193
  897MOL0     H21085   1.040   8.596   4.364  1.1686 -0.4626 -0.8765
  897MOL0     H21086   1.113   8.695   4.485 -0.3328 -1.7268  2.0614
  897MOL0     H21087   1.282   8.469   4.367  0.2937 -1.6667  0.5250
  897MOL0     H21088   1.136   8.422   4.457 -0.8229  0.2670 -1.5126
  897MOL0     H21089   1.360   8.597   4.578  0.0734 -0.2583  3.5194
  897MOL0     H21090   1.224   8.537   4.669 -0.0041 -3.7966  0.9945
  897MOL0     H21091   1.457   8.195   4.654 -1.7405 -0.0147  1.7745
  897MOL0     H21092   1.059   9.055   4.354 -1.7994 -3.4682  2.3484
  897MOL0     H21093   0.744   9.162   4.344  1.6127 -0.6725  1.6723
  897MOL0     H21094   0.902   9.226   4.366  0.7799 -1.7798  0.4313
  897MOL0     H21095   0.824   9.244   4.204 -1.6854 -1.6434 -0.9698
  898MOL0     O21096   3.325   4.448   0.354  0.8831 -0.1974  0.1682
  898MOL0     C21097   3.414   4.477   0.275 -0.1805  1.4604 -1.1430
  898MOL0     O21098   3.452   4.605   0.252  0.2016  0.2035 -0.2680
  898MOL0     C21099   3.388   4.715   0.312  0.5965 -0.2844  1.1851
  898MOL0     C21100   3.308   4.804   0.236  0.0277  0.1532  0.0749
  898MOL0     C21101   3.243   4.910   0.306 -0.2423 -0.1478 -0.4085
  898MOL0     C21102   3.261   4.933   0.440 -0.2265  0.5199 -0.4708
  898MOL0     O21103   3.209   5.034   0.518 -0.1553  0.4248  0.5658
  898MOL0     C21104   3.078   5.084   0.493  0.0165  0.3124 -0.4564
  898MOL0     C21105   3.092   5.195   0.387 -1.1531 -0.7676 -0.1347
  898MOL0     C21106   2.972   5.280   0.376 -1.1801  0.0241 -0.3429
  898MOL0     C21107   2.983   5.377   0.259 -0.2131 -0.0208  0.1526
  898MOL0     C21108   2.881   5.494   0.260 -0.7402 -0.3891  0.0521
  898MOL0     C21109   2.911   5.608   0.159 -0.4583 -0.3364  0.1381
  898MOL0     C21110   2.797   5.712   0.141  0.2965  0.1902 -0.9585
  898MOL0     C21111   2.832   5.839   0.058  0.3520  0.4812 -0.5509
  898MOL0     N21112   2.890   5.811  -0.076  0.2224  0.5728 -0.2908
  898MOL0     C21113   3.016   5.843  -0.112  0.2899  0.4490  0.5311
  898MOL0     C21114   3.007   5.856  -0.248  0.6970 -0.3637 -0.0986
  898MOL0     C21115   3.112   5.908  -0.342 -0.5064  0.8497 -0.4115
  898MOL0     C21116   3.164   6.043  -0.295 -0.1530  0.7673  0.5602
  898MOL0     C21117   3.296   6.093  -0.361 -0.4579 -0.4249  0.1012
  898MOL0     C21118   3.266   6.239  -0.379 -1.3326  0.4487 -0.9459
  898MOL0     O21119   3.384   6.288  -0.452 -0.8412  0.1492 -0.1267
  898MOL0     C21120   3.389   6.419  -0.490 -0.4561 -0.5880 -0.3965
  898MOL0     C21121   3.290   6.515  -0.466  0.3600  0.9186  0.1690
  898MOL0     C21122   3.302   6.640  -0.523 -0.1268 -0.4509 -0.5141
  898MOL0     C21123   3.406   6.666  -0.616 -0.3315  0.4783 -1.3781
  898MOL0     C21124   3.411   6.801  -0.679 -0.1175  0.0746 -0.3173
  898MOL0     O21125   3.335   6.897  -0.616 -0.1005  0.4957  0.1392
  898MOL0     C21126   3.378   7.027  -0.632  0.0319  0.6018 -0.5094
  898MOL0     C21127   3.504   7.069  -0.599  0.4824  0.6621  0.2238
  898MOL0     C21128   3.541   7.196  -0.649  1.3355 -0.3368 -0.5688
  898MOL0     C21129   3.451   7.283  -0.716  0.6691 -0.0714 -0.9183
  898MOL0     O21130   3.480   7.411  -0.738 -0.7920  0.1940  0.3938
  898MOL0     C21131   3.606   7.440  -0.809 -0.3219 -0.1994  0.2474
  898MOL0     C21132   3.632   7.591  -0.769 -0.4817  0.3873  0.3874
  898MOL0     C21133   3.653   7.622  -0.621  1.3428  0.2150  0.1670
  898MOL0     C21134   3.778   7.542  -0.565  0.4587 -0.6047  0.4821
  898MOL0     C21135   3.818   7.614  -0.430 -0.4338  0.3948 -0.3008
  898MOL0     C21136   3.737   7.556  -0.318 -0.0307 -0.4743  1.0064
  898MOL0     C21137   3.711   7.402  -0.309 -0.1826  0.9971 -0.3459
  898MOL0     C21138   3.572   7.366  -0.342  0.0937 -0.2484 -0.1597
  898MOL0    Cl21139   3.518   7.209  -0.265  0.3092  0.0693  0.3610
  898MOL0     C21140   3.318   7.234  -0.739 -0.1832 -1.2117 -0.2075
  898MOL0     C21141   3.281   7.112  -0.700 -0.6196 -0.0251 -0.2590
  898MOL0     O21142   3.487   6.818  -0.776  0.0393 -0.1973 -0.5180
  898MOL0     C21143   3.506   6.570  -0.635  0.5583  1.0492 -0.0311
  898MOL0     C21144   3.494   6.448  -0.569 -0.8350  0.0658 -0.0986
  898MOL0     N21145   2.882   5.822  -0.287  0.1740 -0.1537  0.8009
  898MOL0     N21146   2.814   5.798  -0.184  0.0031  0.3082  0.6273
  898MOL0     C21147   3.349   4.853   0.503  0.6838 -0.3105 -1.0968
  898MOL0     C21148   3.408   4.742   0.447 -0.3158 -0.0630 -0.1194
  898MOL0     C21149   3.492   4.354   0.212 -0.9038  0.1406  0.9821
  898MOL0     C21150   3.454   4.228   0.253 -0.7924 -0.0903 -0.8395
  898MOL0     C21151   3.507   4.113   0.188  1.5931 -0.7609 -0.3567
  898MOL0     C21152   3.592   4.126   0.089 -0.2517 -0.6727 -0.3003
  898MOL0     O21153   3.634   4.004   0.023 -0.5040  0.6640 -1.0460
  898MOL0     C21154   3.772   3.988  -0.030 -0.2565 -0.1439 -0.6567
  898MOL0     C21155   3.869   3.941   0.081  0.2267  0.4401  0.6794
  898MOL0     C21156   3.852   3.795   0.133  0.6694 -0.2925  0.1875
  898MOL0     C21157   3.708   3.760   0.179  0.2627  0.3709 -0.5131
  898MOL0     C21158   3.674   3.834   0.299 -0.7046  0.4419  0.0336
  898MOL0     C21159   3.673   3.911   0.396 -0.4669  0.2900  1.2810
  898MOL0     C21160   3.641   4.251   0.056 -0.0848 -0.6411  0.8193
  898MOL0     C21161   3.596   4.372   0.116 -0.1303  0.2470 -0.1460
  898MOL0     C21162   3.660   4.511   0.079  0.4625  0.6167 -0.2743
  898MOL0     H21163   3.293   4.777   0.132 -0.8208 -0.0879  0.2584
  898MOL0     H21164   3.181   4.974   0.244 -1.7719 -0.7546  0.4231
  898MOL0     H21165   3.004   5.010   0.461 -3.1416  2.2861  1.7581
  898MOL0     H21166   3.038   5.128   0.584  1.8092  1.7856 -0.3268
  898MOL0     H21167   3.105   5.142   0.292  0.1077 -1.9033  0.6332
  898MOL0     H21168   3.182   5.256   0.397  2.2165 -4.6228 -3.5668
  898MOL0     H21169   2.938   5.327   0.469  2.5623  1.0301  0.7048
  898MOL0     H21170   2.880   5.227   0.350 -2.1080  0.0641  2.4861
  898MOL0     H21171   3.080   5.427   0.269 -0.6210  0.7833  0.1818
  898MOL0     H21172   2.969   5.317   0.168 -0.8321 -1.0329  0.8862
  898MOL0     H21173   2.782   5.459   0.229 -0.2021 -1.0674 -0.9293
  898MOL0     H21174   2.883   5.530   0.364  1.2849 -0.6551  0.1448
  898MOL0     H21175   3.005   5.659   0.185  0.7783 -3.3177  2.0391
  898MOL0     H21176   2.930   5.555   0.066 -2.1938  1.0971 -1.1083
  898MOL0     H21177   2.756   5.741   0.238  1.0340  0.6874 -0.7879
  898MOL0     H21178   2.718   5.663   0.082 -0.0045  2.7695 -2.8754
  898MOL0     H21179   2.749   5.910   0.052 -0.3060  0.1977  2.8057
  898MOL0     H21180   2.901   5.891   0.126  0.5284 -2.6182  1.8746
  898MOL0     H21181   3.101   5.862  -0.047 -0.5163  0.7822  1.5148
  898MOL0     H21182   3.191   5.834  -0.354  0.5059  1.9342 -0.6846
  898MOL0     H21183   3.070   5.933  -0.440 -2.6304  0.2519  0.3042
  898MOL0     H21184   3.082   6.113  -0.314  1.0010  2.0513  0.0963
  898MOL0     H21185   3.190   6.041  -0.188  1.4595 -1.9637  0.2085
  898MOL0     H21186   3.321   6.050  -0.458  2.0251 -0.4773  0.6848
  898MOL0     H21187   3.385   6.077  -0.299 -0.0222 -0.3758 -0.5074
  898MOL0     H21188   3.259   6.288  -0.282  1.8238  2.7869 -1.7394
  898MOL0     H21189   3.174   6.256  -0.435 -1.2640  0.4190 -1.0674
  898MOL0     H21190   3.198   6.503  -0.410  0.3128 -0.8548 -0.2332
  898MOL0     H21191   3.227   6.712  -0.494 -0.6552 -0.7870 -1.0416
  898MOL0     H21192   3.589   7.016  -0.556  1.9285 -0.5523 -3.6904
  898MOL0     H21193   3.638   7.232  -0.616  0.7919  3.8817 -2.9151
  898MOL0     H21194   3.688   7.380  -0.769  1.9492  3.0897  1.0093
  898MOL0     H21195   3.583   7.430  -0.915 -2.0284 -1.3288  0.6827
  898MOL0     H21196   3.727   7.615  -0.818 -1.1752  1.7092 -0.3750
  898MOL0     H21197   3.551   7.650  -0.812  0.4375  0.8904 -0.7356
  898MOL0     H21198   3.670   7.730  -0.616  0.5761  0.5611 -2.8572
  898MOL0     H21199   3.564   7.594  -0.565  0.9999 -0.0492 -0.5115
  898MOL0     H21200   3.849   7.554  -0.647 -3.3099 -1.2259 -3.2101
  898MOL0     H21201   3.756   7.435  -0.555 -1.0545 -0.2600  1.1182
  898MOL0     H21202   3.809   7.723  -0.432  0.4873  0.4804 -2.0054
  898MOL0     H21203   3.922   7.589  -0.408 -0.5897 -0.3239 -0.3467
  898MOL0     H21204   3.801   7.586  -0.234  3.2844 -1.3992 -0.9864
  898MOL0     H21205   3.647   7.617  -0.313 -1.9273 -2.7326 -2.2264
  898MOL0     H21206   3.728   7.377  -0.205 -0.8328  1.3058 -0.1575
  898MOL0     H21207   3.765   7.341  -0.383 -1.1006  2.3728 -2.2526
  898MOL0     H21208   3.513   7.448  -0.300 -0.3946 -0.8232  0.2841
  898MOL0     H21209   3.566   7.357  -0.451 -1.5769  0.9127 -0.2033
  898MOL0     H21210   3.243   7.297  -0.786  2.6053  2.2909 -0.4111
  898MOL0     H21211   3.176   7.085  -0.711 -0.7700 -0.8976  2.6132
  898MOL0     H21212   3.597   6.595  -0.690 -0.4802  1.2446 -1.7295
  898MOL0     H21213   3.562   6.367  -0.592 -1.8771  0.3607 -5.8356
  898MOL0     H21214   3.365   4.875   0.608 -2.4170 -3.0817  0.1590
  898MOL0     H21215   3.477   4.683   0.507  0.0485  1.9304  1.5158
  898MOL0     H21216   3.383   4.215   0.334 -0.3945  2.1805 -0.0535
  898MOL0     H21217   3.464   4.017   0.214 -3.6813  1.0700 -1.1629
  898MOL0     H21218   3.811   4.086  -0.060  2.9782 -1.2720 -0.4314
  898MOL0     H21219   3.776   3.918  -0.114  0.0574  0.4443 -1.1453
  898MOL0     H21220   3.870   4.005   0.170 -1.0886 -1.7031  2.3518
  898MOL0     H21221   3.974   3.944   0.050  0.9407 -1.8154  2.5027
  898MOL0     H21222   3.930   3.774   0.207 -1.4108  0.8412  2.9160
  898MOL0     H21223   3.871   3.742   0.040  1.7253 -2.0985  1.3879
  898MOL0     H21224   3.628   3.788   0.109  2.0639  1.9419 -2.0690
  898MOL0     H21225   3.707   3.654   0.204 -0.7102  0.3040 -0.8155
  898MOL0     H21226   3.673   3.978   0.479  1.2195  1.0270  0.7175
  898MOL0     H21227   3.721   4.258  -0.017 -2.3318 -1.6952 -1.9454
  898MOL0     H21228   3.697   4.555   0.172  2.5332 -1.8974  0.2217
  898MOL0     H21229   3.748   4.495   0.015 -0.8221  0.1107 -1.9770
  898MOL0     H21230   3.588   4.572   0.024 -0.8587  0.7498  1.5546
  899MOL0     O21231   1.511   7.944  10.994  0.2889  0.3881 -0.1540
  899MOL0     C21232   1.408   7.962  11.065 -0.0996 -0.4312  0.3229
  899MOL0     O21233   1.290   7.991  11.005 -0.3788 -0.6790  0.0015
  899MOL0     C21234   1.274   8.090  10.911 -0.3613  0.2951 -0.5600
  899MOL0     C21235   1.139   8.129  10.893 -0.0695 -0.0727 -0.7499
  899MOL0     C21236   1.101   8.231  10.802 -0.0991 -0.3634 -0.4642
  899MOL0     C21237   1.196   8.281  10.712  0.0974  0.0030  0.4610
  899MOL0     O21238   1.172   8.383  10.621 -0.2704 -0.1204  0.0767
  899MOL0     C21239   1.043   8.427  10.576 -0.2036  1.2712 -0.6428
  899MOL0     C21240   0.990   8.545  10.652  0.1128  1.1484 -0.8485
  899MOL0     C21241   0.926   8.651  10.565 -0.6398  0.4847  0.1908
  899MOL0     C21242   1.006   8.740  10.475  0.0250  0.3433  0.2459
  899MOL0     C21243   1.121   8.809  10.549  0.5053 -0.4176 -0.3214
  899MOL0     C21244   1.153   8.951  10.491 -0.4534 -0.2474 -0.1166
  899MOL0     C21245   1.229   8.931  10.347 -0.2806 -0.2294 -0.9390
  899MOL0     C21246   1.374   8.898  10.366 -1.0171  0.0639  0.6057
  899MOL0     N21247   1.435   8.861  10.232  0.1501 -0.9917 -0.1766
  899MOL0     C21248   1.440   8.951  10.123  0.2816 -0.1164 -0.2302
  899MOL0     C21249   1.505   8.883  10.029  0.0204  1.2064  1.2124
  899MOL0     C21250   1.531   8.923   9.882 -1.1652  0.3614 -0.4668
  899MOL0     C21251   1.406   8.966   9.819 -0.0356 -0.1210  0.3999
  899MOL0     C21252   1.340   8.844   9.746  0.5940 -0.6032 -0.3987
  899MOL0     C21253   1.255   8.748   9.846  0.0017 -0.1180  0.3051
  899MOL0     O21254   1.139   8.814   9.902 -0.3423  0.0561  0.6785
  899MOL0     C21255   1.053   8.743   9.975 -0.6794  0.8243  0.4312
  899MOL0     C21256   0.954   8.822  10.034 -0.1223 -1.0891  0.2943
  899MOL0     C21257   0.854   8.763  10.113 -0.1915  0.4987 -0.6582
  899MOL0     C21258   0.866   8.625  10.135  0.5133  0.2213 -0.2146
  899MOL0     C21259   0.771   8.553  10.226 -0.1785  0.1357 -0.3970
  899MOL0     O21260   0.798   8.422  10.246 -0.5040  0.4589  0.0595
  899MOL0     C21261   0.697   8.341  10.307  1.0114 -0.5389 -0.0332
  899MOL0     C21262   0.737   8.262  10.414 -0.1891  0.0523 -0.1705
  899MOL0     C21263   0.648   8.168  10.474 -0.6849  0.3052  0.2889
  899MOL0     C21264   0.518   8.163  10.431  0.3525  0.1158 -0.1731
  899MOL0     O21265   0.436   8.064  10.471  0.1680 -0.1224 -0.5387
  899MOL0     C21266   0.412   8.067  10.616  0.0493  0.8802  1.1785
  899MOL0     C21267   0.272   8.125  10.641 -0.5331 -0.3171  0.3943
  899MOL0     C21268   0.272   8.283  10.618  0.0503  0.7119  0.5306
  899MOL0     C21269   0.352   8.353  10.734 -0.9617 -0.0191  0.0493
  899MOL0     C21270   0.316   8.319  10.882  0.1209 -0.1755 -0.2003
  899MOL0     C21271   0.170   8.337  10.919 -0.1878 -0.3546 -0.2487
  899MOL0     C21272   0.124   8.487  10.916  0.6731  0.5768  0.0594
  899MOL0     C21273   0.032   8.529  11.036 -0.9570 -0.2734 -0.5422
  899MOL0    Cl21274   0.148   8.576  11.172  0.2641  0.1713 -0.4128
  899MOL0     C21275   0.469   8.247  10.328 -0.0159  0.8125  0.4063
  899MOL0     C21276   0.563   8.320  10.261  0.1262 -0.0772 -0.2915
  899MOL0     O21277   0.676   8.621  10.262  0.5237 -0.2464 -0.5085
  899MOL0     C21278   0.959   8.539  10.055  0.3544 -0.3237 -0.7753
  899MOL0     C21279   1.056   8.604   9.981 -0.4988  0.7212  0.2200
  899MOL0     N21280   1.545   8.762  10.085  0.0685  0.0916 -1.0440
  899MOL0     N21281   1.505   8.750  10.207 -0.3592  0.1886 -0.2997
  899MOL0     C21282   1.325   8.247  10.724  0.7406 -0.1961 -0.0752
  899MOL0     C21283   1.369   8.156  10.825  0.6622  0.7354 -0.5475
  899MOL0     C21284   1.413   7.926  11.206 -0.3764  0.0067  0.1702
  899MOL0     C21285   1.528   7.868  11.252 -0.4689 -0.3259  0.1259
  899MOL0     C21286   1.546   7.832  11.387 -0.7818  0.2754 -0.3163
  899MOL0     C21287   1.447   7.848  11.480 -0.1361  0.2808  0.8342
  899MOL0     O21288   1.462   7.789  11.608  0.3744  0.0079 -0.0389
  899MOL0     C21289   1.392   7.849  11.724  0.1198  0.1317 -0.6493
  899MOL0     C21290   1.463   7.970  11.764 -0.1348  0.6903  0.0390
  899MOL0     C21291   1.380   8.041  11.872  0.4363 -0.1035 -0.4373
  899MOL0     C21292   1.441   8.180  11.905  0.0370  0.2892 -1.2659
  899MOL0     C21293   1.514   8.177  12.027 -0.6380 -0.0315 -1.6184
  899MOL0     C21294   1.590   8.162  12.124  0.7507  0.2480 -0.7391
  899MOL0     C21295   1.329   7.914  11.434  0.0056  0.1156  0.1450
  899MOL0     C21296   1.310   7.958  11.306  0.2127 -0.2294  0.1934
  899MOL0     C21297   1.199   8.048  11.283  0.9494  0.4400 -0.7874
  899MOL0     H21298   1.054   8.091  10.950 -1.9412  3.4858 -0.9060
  899MOL0     H21299   0.996   8.256  10.805 -0.3465 -1.2860 -1.0468
  899MOL0     H21300   1.054   8.462  10.473  4.6746 -0.5430 -0.9826
  899MOL0     H21301   0.983   8.335  10.576  0.8659  0.5629 -0.7623
  899MOL0     H21302   1.074   8.590  10.706  0.4441 -0.5355  0.1071
  899MOL0     H21303   0.920   8.513  10.730 -0.7286 -3.0406 -3.0609
  899MOL0     H21304   0.872   8.716  10.634  0.9864  0.3744  1.6390
  899MOL0     H21305   0.859   8.596  10.498  3.2236 -0.6387 -3.1852
  899MOL0     H21306   1.046   8.692  10.385 -0.5099  3.3114 -1.7255
  899MOL0     H21307   0.936   8.807  10.423  1.7835  1.4200 -0.8428
  899MOL0     H21308   1.090   8.825  10.653 -1.7211  2.1375 -1.2401
  899MOL0     H21309   1.212   8.749  10.545 -0.0443 -1.4438  1.4767
  899MOL0     H21310   1.062   9.011  10.477 -0.3871 -0.0885  0.1333
  899MOL0     H21311   1.217   8.996  10.567  1.4664 -2.4626 -0.3230
  899MOL0     H21312   1.239   9.022  10.287  0.8706 -1.5335 -2.8431
  899MOL0     H21313   1.172   8.865  10.281 -1.9209  0.3011 -0.0954
  899MOL0     H21314   1.411   8.993  10.404  2.0404 -1.4046  1.6751
  899MOL0     H21315   1.403   8.820  10.438 -0.4653  0.5208  0.8885
  899MOL0     H21316   1.405   9.053  10.120  1.6631  0.3565 -2.5234
  899MOL0     H21317   1.603   9.005   9.884  1.4256 -1.7594 -1.1032
  899MOL0     H21318   1.570   8.833   9.834 -0.2820  0.3557  0.2516
  899MOL0     H21319   1.320   9.004   9.874  0.1786  0.3082  0.4446
  899MOL0     H21320   1.443   9.044   9.751  3.2177  0.5243  2.6697
  899MOL0     H21321   1.413   8.788   9.686  2.8019  1.0019  0.6949
  899MOL0     H21322   1.277   8.892   9.670  3.2380 -0.1976 -2.5028
  899MOL0     H21323   1.321   8.713   9.926  2.7419  0.3108 -1.6286
  899MOL0     H21324   1.210   8.667   9.788 -0.7222 -0.2808  1.0812
  899MOL0     H21325   0.951   8.931  10.025  3.2876 -0.7711  1.3938
  899MOL0     H21326   0.786   8.827  10.168 -0.2910 -1.4722  1.7039
  899MOL0     H21327   0.841   8.271  10.443 -0.8434  0.3751  2.3414
  899MOL0     H21328   0.696   8.101  10.545  1.5268 -0.9067 -2.1178
  899MOL0     H21329   0.429   7.970  10.664 -1.4588 -0.1803 -0.3060
  899MOL0     H21330   0.482   8.135  10.665  1.6776  0.1553 -0.0406
  899MOL0     H21331   0.197   8.083  10.572  2.0414 -3.4797 -0.7636
  899MOL0     H21332   0.227   8.104  10.738 -1.9970 -1.5763 -0.4955
  899MOL0     H21333   0.325   8.304  10.524  0.4622  1.3113  0.8829
  899MOL0     H21334   0.169   8.316  10.603 -1.1395 -2.6492  0.5013
  899MOL0     H21335   0.350   8.461  10.717 -0.0982 -0.3412 -2.6035
  899MOL0     H21336   0.455   8.320  10.719 -1.1601 -0.2109 -0.9436
  899MOL0     H21337   0.379   8.373  10.954  0.5389  1.3105 -1.6057
  899MOL0     H21338   0.339   8.214  10.902 -1.4413 -0.3847  0.6187
  899MOL0     H21339   0.091   8.290  10.859 -0.7407  1.3461 -0.9135
  899MOL0     H21340   0.152   8.289  11.015  0.1543 -0.1006 -0.0543
  899MOL0     H21341   0.066   8.491  10.824  0.4689  0.7325  0.1931
  899MOL0     H21342   0.213   8.551  10.914  2.6294 -1.8491  1.9879
  899MOL0     H21343  -0.034   8.612  11.009 -1.5703 -0.1996  1.0672
  899MOL0     H21344  -0.030   8.445  11.067  0.0655 -1.0177 -0.4935
  899MOL0     H21345   0.365   8.260  10.299  0.5261  1.0535 -1.5390
  899MOL0     H21346   0.535   8.383  10.178  3.4486  0.3479 -1.2086
  899MOL0     H21347   0.962   8.431  10.060 -0.7593 -0.3045  1.3799
  899MOL0     H21348   1.135   8.544   9.937 -1.5528 -0.3758 -0.2472
  899MOL0     H21349   1.404   8.294  10.665  1.6139 -0.9482  0.4703
  899MOL0     H21350   1.474   8.131  10.830  0.0245 -1.9864  1.5663
  899MOL0     H21351   1.603   7.838  11.180 -0.5335  1.4727 -0.7367
  899MOL0     H21352   1.637   7.779  11.410 -0.9265 -0.2487 -0.9214
  899MOL0     H21353   1.412   7.790  11.814 -1.3592  1.3973  0.5581
  899MOL0     H21354   1.285   7.859  11.702  0.0574  0.2561 -0.2884
  899MOL0     H21355   1.472   8.031  11.674  1.3521  0.0692 -0.2689
  899MOL0     H21356   1.564   7.946  11.797 -0.0845 -1.7298 -1.6311
  899MOL0     H21357   1.370   7.984  11.964 -1.5412  2.4857  1.0936
  899MOL0     H21358   1.282   8.057  11.826 -0.6052 -0.6086  1.5069
  899MOL0     H21359   1.511   8.211  11.826 -1.0569  0.8974 -2.0206
  899MOL0     H21360   1.361   8.255  11.904  1.8317  2.3291 -0.7144
  899MOL0     H21361   1.670   8.149  12.194  0.3587 -2.5186 -0.7094
  899MOL0     H21362   1.252   7.943  11.504 -1.7158  2.6582 -2.5598
  899MOL0     H21363   1.246   8.147  11.279  0.8178  0.6258  1.2800
  899MOL0     H21364   1.142   8.009  11.199  0.9626 -3.9931  1.0043
  899MOL0     H21365   1.132   8.038  11.369 -0.6755  0.9518 -1.9455
  900MOL0     O21366   4.150  10.445   2.975  0.7922  0.0144 -0.4975
  900MOL0     C21367   4.092  10.415   3.080 -0.4043 -0.6956  0.5227
  900MOL0     O21368   3.991  10.333   3.091  0.1418 -0.6877  0.7811
  900MOL0     C21369   3.912  10.288   2.990  0.8429  0.3820 -0.1447
  900MOL0     C21370   3.861  10.369   2.894 -0.2472 -0.5142 -0.0863
  900MOL0     C21371   3.794  10.320   2.782  0.2448  0.1279  0.7289
  900MOL0     C21372   3.763  10.183   2.770 -1.0598  0.5633 -0.0904
  900MOL0     O21373   3.688  10.124   2.665  0.3283  0.4188 -0.7432
  900MOL0     C21374   3.578  10.192   2.613  0.2812  0.0886 -0.1358
  900MOL0     C21375   3.445  10.105   2.615  0.2406  0.2712 -0.1994
  900MOL0     C21376   3.466   9.966   2.559 -0.7691  1.1041 -0.4856
  900MOL0     C21377   3.337   9.882   2.564 -0.2102 -0.6711  0.8139
  900MOL0     C21378   3.375   9.750   2.511 -0.9593 -0.5618 -0.4907
  900MOL0     C21379   3.251   9.666   2.483  0.5284 -0.5505  0.4523
  900MOL0     C21380   3.159   9.635   2.604 -0.6265  0.3034  1.1132
  900MOL0     C21381   3.020   9.692   2.576  1.0435  0.1341  0.3776
  900MOL0     N21382   2.943   9.685   2.700 -0.5593  0.0606 -0.6665
  900MOL0     C21383   2.974   9.747   2.818 -0.3280  0.7672 -0.1942
  900MOL0     C21384   2.880   9.709   2.911 -1.1570  0.7619 -0.5967
  900MOL0     C21385   2.856   9.724   3.062 -0.1044 -0.7877 -0.5296
  900MOL0     C21386   2.740   9.824   3.094 -0.1715  0.6427  0.2496
  900MOL0     C21387   2.765   9.894   3.233 -0.5092  0.5541 -0.2985
  900MOL0     C21388   2.660   9.855   3.330  0.0816  0.0359 -1.0458
  900MOL0     O21389   2.661   9.915   3.466 -0.7908 -0.7209  0.0039
  900MOL0     C21390   2.584  10.029   3.500 -1.3153  0.9440 -0.9951
  900MOL0     C21391   2.590  10.065   3.639 -0.8360 -1.0337 -0.7007
  900MOL0     C21392   2.516  10.181   3.683  0.3389 -0.0276 -0.0470
  900MOL0     C21393   2.434  10.259   3.596 -0.4060  0.2106 -0.1854
  900MOL0     C21394   2.369  10.389   3.641  0.3769  0.4802 -0.1553
  900MOL0     O21395   2.422  10.428   3.762  0.3305 -0.4741  0.3792
  900MOL0     C21396   2.353  10.536   3.808  0.3598 -0.0209  0.6272
  900MOL0     C21397   2.381  10.663   3.755 -0.5697 -0.1887 -1.2375
  900MOL0     C21398   2.326  10.777   3.820  0.7329  0.0067  0.9624
  900MOL0     C21399   2.252  10.765   3.938  0.1315  0.3882  0.3595
  900MOL0     O21400   2.214  10.878   4.004 -0.8357 -0.2703 -0.4527
  900MOL0     C21401   2.079  10.887   4.060 -0.7495  0.6437  0.5536
  900MOL0     C21402   2.072  11.037   4.096  0.2763  0.7521 -0.2664
  900MOL0     C21403   1.991  11.124   3.995  0.0895  0.1922 -0.1022
  900MOL0     C21404   2.075  11.218   3.906 -0.2286 -0.5523 -0.0786
  900MOL0     C21405   2.111  11.147   3.770 -0.0227 -0.1808 -0.3835
  900MOL0     C21406   2.176  11.256   3.686  0.2405 -0.1070 -0.4409
  900MOL0     C21407   2.206  11.195   3.542  0.3174 -0.8575 -0.4680
  900MOL0     C21408   2.269  11.307   3.454 -0.4923  0.0679  0.1004
  900MOL0    Cl21409   2.381  11.253   3.320 -0.0055  0.0006  0.1765
  900MOL0     C21410   2.231  10.638   3.985 -0.5843  0.5241  0.2412
  900MOL0     C21411   2.282  10.525   3.923  0.0324 -0.0668  0.3923
  900MOL0     O21412   2.275  10.437   3.570  0.6136  0.0013  0.8908
  900MOL0     C21413   2.426  10.218   3.458  0.7720  0.1188 -0.5853
  900MOL0     C21414   2.506  10.109   3.410  1.4720 -0.2705 -0.4332
  900MOL0     N21415   2.793   9.625   2.844 -0.7945 -0.7422 -0.1870
  900MOL0     N21416   2.831   9.613   2.727 -0.0931  0.2671  0.3136
  900MOL0     C21417   3.789  10.098   2.877 -0.9584 -0.1150 -0.3272
  900MOL0     C21418   3.862  10.156   2.982  0.3519  0.0037 -0.7928
  900MOL0     C21419   4.148  10.464   3.202 -0.0930  0.7545 -0.4489
  900MOL0     C21420   4.104  10.586   3.251  0.1524 -0.0570 -0.4406
  900MOL0     C21421   4.147  10.634   3.365  0.0762 -0.0934  0.1685
  900MOL0     C21422   4.244  10.575   3.442 -1.2424 -0.8333 -0.2682
  900MOL0     O21423   4.280  10.629   3.565  0.6718  0.2811 -0.7004
  900MOL0     C21424   4.246  10.766   3.611  0.0099 -1.1935  0.0601
  900MOL0     C21425   4.272  10.795   3.752 -0.3238 -0.2957 -0.1842
  900MOL0     C21426   4.216  10.686   3.840 -0.1419  0.0142  0.0803
  900MOL0     C21427   4.187  10.746   3.981 -1.2181 -0.2238 -1.3956
  900MOL0     C21428   4.141  10.657   4.086  0.2395 -0.4396 -0.0400
  900MOL0     C21429   4.085  10.590   4.172 -1.0610  0.2509  0.5973
  900MOL0     C21430   4.290  10.448   3.391 -0.2437 -1.0656  0.1188
  900MOL0     C21431   4.242  10.391   3.274  0.2080  0.0683 -0.6916
  900MOL0     C21432   4.302  10.259   3.234  0.4738 -0.1495  0.0829
  900MOL0     H21433   3.884  10.475   2.893 -1.7781 -0.1448  1.1334
  900MOL0     H21434   3.750  10.389   2.710  1.7496 -0.5940 -0.9566
  900MOL0     H21435   3.562  10.284   2.670  0.9923 -0.3826  0.8517
  900MOL0     H21436   3.607  10.231   2.515  7.7088  0.6179  1.6687
  900MOL0     H21437   3.367  10.156   2.558  0.0655  1.2461  0.8923
  900MOL0     H21438   3.414  10.110   2.720  3.4683 -2.7453  1.1003
  900MOL0     H21439   3.544   9.907   2.609  0.3576  2.4084 -0.6288
  900MOL0     H21440   3.484   9.979   2.452 -1.9888  2.8317 -0.5211
  900MOL0     H21441   3.288   9.874   2.662 -3.6790 -3.9256 -0.9451
  900MOL0     H21442   3.274   9.928   2.487  5.3055  2.3440 -2.5638
  900MOL0     H21443   3.427   9.756   2.415  1.1853  2.1009  0.6928
  900MOL0     H21444   3.433   9.703   2.591 -0.2098 -0.7862 -1.1590
  900MOL0     H21445   3.201   9.696   2.390  2.8108 -0.9344 -0.9586
  900MOL0     H21446   3.298   9.572   2.453 -3.1734 -2.4464  0.0174
  900MOL0     H21447   3.201   9.672   2.697 -0.1527 -1.2140  1.5355
  900MOL0     H21448   3.137   9.528   2.616  2.1040 -0.5213 -0.3444
  900MOL0     H21449   3.022   9.798   2.549  0.9416 -0.5063 -2.3421
  900MOL0     H21450   2.968   9.641   2.495 -0.7783  0.0111  1.5429
  900MOL0     H21451   3.059   9.813   2.830  0.7052 -1.0012  3.4239
  900MOL0     H21452   2.836   9.626   3.106 -0.4862 -0.4546  0.0456
  900MOL0     H21453   2.943   9.764   3.114  0.9617 -0.9377 -2.1437
  900MOL0     H21454   2.739   9.903   3.019 -1.5173  2.0247  1.6435
  900MOL0     H21455   2.646   9.768   3.091  0.5186 -0.5101 -2.8163
  900MOL0     H21456   2.780  10.000   3.212 -0.6065  0.3909 -1.2525
  900MOL0     H21457   2.853   9.852   3.282 -0.5893  1.7665  0.9292
  900MOL0     H21458   2.662   9.748   3.348  0.2538  0.3249  0.8795
  900MOL0     H21459   2.564   9.884   3.288  0.5026  0.6127 -1.6280
  900MOL0     H21460   2.646  10.005   3.709  0.3436  4.1490  3.3987
  900MOL0     H21461   2.530  10.230   3.778  2.2117  0.0518 -0.3362
  900MOL0     H21462   2.444  10.669   3.667  2.4091  4.8470  0.8168
  900MOL0     H21463   2.346  10.869   3.764 -2.4505  0.1070 -0.1967
  900MOL0     H21464   2.020  10.858   3.973  1.4555 -1.8090 -0.2714
  900MOL0     H21465   2.064  10.808   4.134  1.3091 -0.8077 -0.4674
  900MOL0     H21466   2.033  11.046   4.198  2.0610 -3.2638  0.9745
  900MOL0     H21467   2.173  11.077   4.111  0.4286 -0.7053  3.8904
  900MOL0     H21468   1.926  11.060   3.934  0.8429  1.8186 -2.7924
  900MOL0     H21469   1.915  11.182   4.048 -2.4877  0.5377 -3.8161
  900MOL0     H21470   2.174  11.249   3.940  0.8186 -1.8518 -1.7997
  900MOL0     H21471   2.029  11.316   3.891  1.3745  0.3829  0.8798
  900MOL0     H21472   2.024  11.101   3.721  0.4388 -0.5694 -0.8415
  900MOL0     H21473   2.187  11.072   3.794  0.3961  0.4225  0.2136
  900MOL0     H21474   2.125  11.353   3.682  0.5618  0.1093  0.5004
  900MOL0     H21475   2.271  11.271   3.737 -0.7025  0.9278  1.0815
  900MOL0     H21476   2.116  11.154   3.496  2.5812 -3.7826 -2.7138
  900MOL0     H21477   2.270  11.106   3.544 -0.5887 -1.5190  1.8780
  900MOL0     H21478   2.194  11.376   3.413  0.5695  0.8184 -0.6157
  900MOL0     H21479   2.328  11.378   3.512  4.1259 -1.3061 -2.4031
  900MOL0     H21480   2.180  10.613   4.078 -1.1247 -2.0437 -0.6391
  900MOL0     H21481   2.263  10.432   3.976 -2.7694  1.1579  1.7899
  900MOL0     H21482   2.359  10.283   3.402 -1.9607  0.1811  2.4797
  900MOL0     H21483   2.513  10.094   3.303 -1.1945  1.4081 -0.9439
  900MOL0     H21484   3.773   9.990   2.879 -0.6922 -0.2116  3.6264
  900MOL0     H21485   3.900  10.096   3.064  0.7347  2.5693  1.0429
  900MOL0     H21486   4.021  10.641   3.208 -0.1734 -1.6254 -1.9256
  900MOL0     H21487   4.102  10.725   3.404  0.6855  0.2401  0.0993
  900MOL0     H21488   4.139  10.770   3.584  0.5560  0.9114 -2.1722
  900MOL0     H21489   4.286  10.847   3.550 -2.9369  0.0814 -0.3937
  900MOL0     H21490   4.230  10.891   3.783 -0.1148 -0.4172  0.4939
  900MOL0     H21491   4.381  10.802   3.765  0.1040 -4.7007  0.1560
  900MOL0     H21492   4.290  10.608   3.861 -1.9228 -0.8674  3.8919
  900MOL0     H21493   4.128  10.640   3.795  1.6287 -2.2164 -1.3111
  900MOL0     H21494   4.275  10.796   4.023  0.5639 -3.1581 -1.4071
  900MOL0     H21495   4.108  10.821   3.970 -0.4610  1.2157  1.9218
  900MOL0     H21496   4.014  10.549   4.241 -1.0467 -3.0237 -1.1377
  900MOL0     H21497   4.363  10.392   3.449  1.6405 -2.4090 -3.2525
  900MOL0     H21498   4.309  10.192   3.321 -0.0482 -0.0533  0.2021
  900MOL0     H21499   4.229  10.203   3.175 -0.2431 -0.6702  1.4030
  900MOL0     H21500   4.400  10.263   3.187  0.7044 -0.3655  0.5384
  901MOL0     O21501   9.683   4.029   8.887  0.0879 -0.0041 -0.7601
  901MOL0     C21502   9.726   3.977   8.782  0.9953  0.0670  0.1572
  901MOL0     O21503   9.853   3.959   8.750  0.1919 -1.0392 -0.3190
  901MOL0     C21504   9.948   3.961   8.855 -0.6233  0.6862  0.6503
  901MOL0     C21505  10.064   4.035   8.853  0.3733  0.2525 -0.2218
  901MOL0     C21506  10.145   4.023   8.972  0.1126  0.0582 -0.4103
  901MOL0     C21507  10.112   3.941   9.080 -0.4285 -0.1769 -0.3848
  901MOL0     O21508  10.182   3.934   9.200  0.0786  0.1136  0.1936
  901MOL0     C21509  10.251   4.054   9.249 -0.1109  0.3054 -0.9666
  901MOL0     C21510  10.399   4.053   9.205 -0.2099 -0.8728  0.0222
  901MOL0     C21511  10.485   3.957   9.280  0.1418  0.4344  1.1321
  901MOL0     C21512  10.634   3.983   9.244  0.5032  0.4934 -0.4220
  901MOL0     C21513  10.751   3.922   9.321  0.4080 -0.7176 -0.1031
  901MOL0     C21514  10.890   3.933   9.253  0.3020 -0.7035  0.1134
  901MOL0     C21515  10.927   4.084   9.214 -0.1173 -0.3458 -0.5012
  901MOL0     C21516  11.064   4.103   9.153 -0.8526 -0.7077 -0.3226
  901MOL0     N21517  11.176   4.048   9.225  1.2087  0.6443  0.2083
  901MOL0     C21518  11.228   4.113   9.334  0.6509  0.2367 -0.0450
  901MOL0     C21519  11.356   4.075   9.345 -1.1721  1.6561 -0.2297
  901MOL0     C21520  11.460   4.122   9.441  0.5188  0.6802 -0.5342
  901MOL0     C21521  11.449   4.019   9.564  0.3970 -0.1407  0.5484
  901MOL0     C21522  11.316   4.041   9.645 -0.5785  0.6924  0.2693
  901MOL0     C21523  11.290   4.183   9.698  0.0178  1.2408 -0.7789
  901MOL0     O21524  11.176   4.235   9.621 -0.4200 -0.5132 -0.5122
  901MOL0     C21525  11.047   4.198   9.648 -1.6418 -0.3295  0.4067
  901MOL0     C21526  10.945   4.247   9.565  0.6938  1.3093 -0.7372
  901MOL0     C21527  10.814   4.245   9.594  0.3046  0.0660 -1.1900
  901MOL0     C21528  10.778   4.160   9.696 -0.3990  0.3224 -0.1626
  901MOL0     C21529  10.628   4.125   9.717  0.4885 -0.7088 -0.0931
  901MOL0     O21530  10.606   4.039   9.810  0.1314  0.2141  0.5803
  901MOL0     C21531  10.492   3.974   9.832  0.7508  0.4155 -0.0110
  901MOL0     C21532  10.507   3.831   9.847  0.6144 -0.1042 -0.3319
  901MOL0     C21533  10.388   3.755   9.866  0.2998 -0.0354 -0.2360
  901MOL0     C21534  10.256   3.818   9.883  0.4530 -0.4186  1.2167
  901MOL0     O21535  10.138   3.759   9.901  0.1290  0.1941  0.6096
  901MOL0     C21536  10.121   3.678  10.013 -0.2406  0.3725  0.0437
  901MOL0     C21537  10.049   3.548   9.967 -0.4832  0.2868 -0.1429
  901MOL0     C21538  10.119   3.485   9.846 -0.3786  0.2285  0.2197
  901MOL0     C21539  10.067   3.350   9.818  0.0313 -0.3969  0.7383
  901MOL0     C21540  10.141   3.302   9.693 -0.3653  0.4792 -0.6222
  901MOL0     C21541  10.132   3.155   9.666 -0.2903  0.5008 -0.1027
  901MOL0     C21542   9.985   3.107   9.632 -0.3446  0.2716 -0.9224
  901MOL0     C21543   9.992   2.957   9.579  0.1857  0.1886  0.7144
  901MOL0    Cl21544  10.120   2.862   9.651 -0.2883 -0.2890 -0.0402
  901MOL0     C21545  10.249   3.954   9.865 -0.1474  0.3677 -0.7079
  901MOL0     C21546  10.363   4.038   9.845 -0.5019 -0.3351 -0.1775
  901MOL0     O21547  10.556   4.157   9.628 -0.4988  0.0799 -0.0720
  901MOL0     C21548  10.878   4.105   9.781 -0.0110  0.6575 -0.0541
  901MOL0     C21549  11.015   4.117   9.756  0.6098 -0.1159 -0.0661
  901MOL0     N21550  11.383   3.977   9.251  0.1423  0.3930  0.0916
  901MOL0     N21551  11.270   3.970   9.177  0.3823 -0.5208  0.6614
  901MOL0     C21552  10.007   3.857   9.073 -0.0485  0.4819  0.1565
  901MOL0     C21553   9.928   3.866   8.961  0.2116  0.1085  0.3462
  901MOL0     C21554   9.625   3.950   8.674  0.2287  0.6965 -0.8652
  901MOL0     C21555   9.658   3.966   8.538 -1.1681 -0.3578 -0.0349
  901MOL0     C21556   9.564   3.948   8.438  0.9494 -0.4267 -0.2124
  901MOL0     C21557   9.434   3.916   8.468  0.8128  0.2142  0.1757
  901MOL0     O21558   9.346   3.896   8.363  0.3564 -0.0219  0.0878
  901MOL0     C21559   9.242   3.800   8.377  0.0765  0.8077  0.7595
  901MOL0     C21560   9.220   3.727   8.241  0.4908 -0.4238 -0.1380
  901MOL0     C21561   9.325   3.628   8.208  0.5479  0.3186  0.5903
  901MOL0     C21562   9.297   3.494   8.149 -0.8963 -0.0312  0.4441
  901MOL0     C21563   9.231   3.524   8.021  0.0572 -0.1292  0.5595
  901MOL0     C21564   9.187   3.557   7.917  0.3071 -0.0969  0.1941
  901MOL0     C21565   9.394   3.902   8.599 -0.8084 -0.4461  0.1027
  901MOL0     C21566   9.492   3.917   8.703  0.3216  0.4529  0.2954
  901MOL0     C21567   9.439   3.903   8.841  0.3778 -0.0750  0.0126
  901MOL0     H21568  10.089   4.091   8.764 -1.5832  0.4623 -0.6779
  901MOL0     H21569  10.229   4.092   8.974 -0.1057  0.5356 -3.4433
  901MOL0     H21570  10.192   4.133   9.203 -2.8123 -0.7927  0.3771
  901MOL0     H21571  10.246   4.060   9.358 -0.0797  1.2710 -1.0144
  901MOL0     H21572  10.434   4.157   9.203  0.2537 -1.0363 -0.3504
  901MOL0     H21573  10.394   4.015   9.103  3.0000  0.3214 -0.6987
  901MOL0     H21574  10.457   3.855   9.252  0.7143  0.3290  0.9336
  901MOL0     H21575  10.482   3.969   9.389  0.2578 -0.1829  1.2096
  901MOL0     H21576  10.658   3.960   9.139  0.4833 -0.7122 -0.1828
  901MOL0     H21577  10.649   4.091   9.252  1.2491  0.3391  0.4383
  901MOL0     H21578  10.751   3.967   9.421 -6.5870  0.8190 -0.3169
  901MOL0     H21579  10.717   3.819   9.335 -2.6407  0.2950  0.6594
  901MOL0     H21580  10.975   3.895   9.311 -0.5340  0.9503  2.5975
  901MOL0     H21581  10.879   3.886   9.156 -4.8381  1.6546 -0.7645
  901MOL0     H21582  10.914   4.151   9.300 -2.0339  1.6522 -2.2310
  901MOL0     H21583  10.846   4.114   9.148  1.1176  0.9555 -1.4910
  901MOL0     H21584  11.056   4.063   9.051 -3.1334  1.2521 -1.0015
  901MOL0     H21585  11.079   4.210   9.138  1.3251 -0.9166  0.0406
  901MOL0     H21586  11.174   4.184   9.397  1.0079 -2.0433  3.1171
  901MOL0     H21587  11.558   4.109   9.395  0.2240 -0.6423 -0.8207
  901MOL0     H21588  11.429   4.223   9.471  3.2604  0.9094  2.0342
  901MOL0     H21589  11.452   3.918   9.521  4.6706 -0.9409  2.1793
  901MOL0     H21590  11.540   4.030   9.624  0.4230  0.4565  0.4024
  901MOL0     H21591  11.300   3.966   9.723 -1.3257 -1.8747 -2.1658
  901MOL0     H21592  11.236   4.012   9.577  2.0259  0.1718 -2.8606
  901MOL0     H21593  11.375   4.252   9.690  0.1563  1.6383  2.5832
  901MOL0     H21594  11.275   4.191   9.807  2.3074  1.8527 -0.4570
  901MOL0     H21595  10.973   4.300   9.474 -2.8171  1.8666 -1.6263
  901MOL0     H21596  10.749   4.313   9.539  2.9555  2.4278 -1.6460
  901MOL0     H21597  10.606   3.787   9.851 -0.0220 -1.6253 -0.7091
  901MOL0     H21598  10.399   3.648   9.881 -0.2347  0.2877  2.9791
  901MOL0     H21599  10.217   3.654  10.060 -0.4171 -0.6443 -0.0868
  901MOL0     H21600  10.057   3.733  10.081  0.3497  0.2468  0.7112
  901MOL0     H21601  10.055   3.470  10.044  0.7297  0.2654 -0.2378
  901MOL0     H21602   9.948   3.571   9.932 -1.7910 -0.9562  2.4969
  901MOL0     H21603  10.086   3.553   9.767 -0.6539 -0.7397 -0.5188
  901MOL0     H21604  10.228   3.484   9.848 -0.2290  2.7619  4.0607
  901MOL0     H21605   9.960   3.344   9.799  0.2576  3.1420 -2.8000
  901MOL0     H21606  10.095   3.282   9.900 -1.8227 -1.8068  0.2677
  901MOL0     H21607  10.249   3.316   9.701 -0.6786  3.1346  0.0076
  901MOL0     H21608  10.114   3.367   9.609 -1.7550  0.4332 -0.2503
  901MOL0     H21609  10.199   3.144   9.580 -0.0316  5.5865 -0.9142
  901MOL0     H21610  10.181   3.096   9.743 -1.0585 -1.1117 -0.7926
  901MOL0     H21611   9.931   3.164   9.555 -1.3452  3.2864  1.7738
  901MOL0     H21612   9.919   3.110   9.719  1.2721 -0.9998  0.4126
  901MOL0     H21613   9.901   2.904   9.608  0.1085  1.5697  3.2436
  901MOL0     H21614  10.015   2.944   9.473 -1.0124  3.1498 -0.0194
  901MOL0     H21615  10.152   4.003   9.876  0.7592  2.6638 -2.0628
  901MOL0     H21616  10.367   4.142   9.814  0.8511  0.1824  1.6166
  901MOL0     H21617  10.845   4.040   9.862  0.7844 -1.3479 -1.2739
  901MOL0     H21618  11.090   4.071   9.820  2.9522  2.8053 -0.4805
  901MOL0     H21619   9.980   3.805   9.165  0.1904  2.2026  1.2455
  901MOL0     H21620   9.856   3.784   8.956  1.1423 -0.7231  0.1453
  901MOL0     H21621   9.765   3.983   8.529 -0.3587 -3.3243  2.2737
  901MOL0     H21622   9.585   3.960   8.332 -2.4227  1.4435 -0.7970
  901MOL0     H21623   9.151   3.859   8.393 -1.2884 -0.0342 -2.8718
  901MOL0     H21624   9.254   3.720   8.451 -0.7772 -0.4665 -0.4288
  901MOL0     H21625   9.188   3.782   8.152 -0.5355  2.6081  1.9406
  901MOL0     H21626   9.123   3.680   8.261 -0.6994  1.9813  0.0277
  901MOL0     H21627   9.393   3.611   8.292  2.4362  1.7371 -0.5862
  901MOL0     H21628   9.395   3.681   8.143  1.5393 -2.4337 -0.7268
  901MOL0     H21629   9.383   3.427   8.155 -0.9347 -0.0437  0.9314
  901MOL0     H21630   9.222   3.441   8.208 -3.7710  2.1730 -0.9691
  901MOL0     H21631   9.136   3.591   7.829 -1.9832 -2.7171  0.3908
  901MOL0     H21632   9.289   3.895   8.623 -1.4326 -0.5653 -2.4021
  901MOL0     H21633   9.433   3.997   8.897 -4.4449  0.1403 -0.4459
  901MOL0     H21634   9.338   3.862   8.838 -0.2653  1.4986 -1.0623
  901MOL0     H21635   9.501   3.830   8.894  1.2031  0.3255 -0.3823
  902MOL0     O21636   7.550   8.378  10.750  0.3317  0.5999 -0.1401
  902MOL0     C21637   7.561   8.461  10.660  0.2496  0.6581 -0.0198
  902MOL0     O21638   7.464   8.492  10.573  0.2668  0.0611 -0.3496
  902MOL0     C21639   7.343   8.431  10.564 -0.6350 -0.1999  0.0544
  902MOL0     C21640   7.331   8.293  10.592 -0.6880 -0.8529 -0.7480
  902MOL0     C21641   7.210   8.232  10.574  0.1428 -0.6317 -1.1085
  902MOL0     C21642   7.105   8.304  10.520  0.1338  0.5672  0.1955
  902MOL0     O21643   6.981   8.253  10.494  0.0448  0.6364  0.2714
  902MOL0     C21644   6.940   8.127  10.539  0.1950  1.1836  0.8852
  902MOL0     C21645   6.907   8.022  10.430 -0.8598  0.3954  0.4433
  902MOL0     C21646   6.809   8.060  10.326  0.0849 -0.2250 -0.2975
  902MOL0     C21647   6.659   8.049  10.367  0.3181 -0.3867 -0.0144
  902MOL0     C21648   6.567   8.064  10.252 -1.0216 -0.6336  0.4685
  902MOL0     C21649   6.567   7.931  10.173 -0.2823  0.5551  0.4701
  902MOL0     C21650   6.496   7.822  10.250  0.1042  0.6300 -0.5908
  902MOL0     C21651   6.425   7.717  10.167  0.5454  0.4057  1.4557
  902MOL0     N21652   6.346   7.611  10.225 -0.0512 -0.3545 -0.7470
  902MOL0     C21653   6.211   7.613  10.214 -0.5282  0.1765  0.4915
  902MOL0     C21654   6.160   7.540  10.315 -0.8914  0.0068  0.2247
  902MOL0     C21655   6.017   7.520  10.353 -0.2607  0.2431 -0.0407
  902MOL0     C21656   5.947   7.633  10.429  0.1012  0.4028 -0.1137
  902MOL0     C21657   5.957   7.786  10.387 -0.3871  0.2920 -0.0629
  902MOL0     C21658   5.863   7.867  10.477  0.0560  0.0791  0.1385
  902MOL0     O21659   5.887   7.857  10.614 -0.1155 -0.5054 -0.3026
  902MOL0     C21660   5.799   7.931  10.690  1.4743  0.5655 -0.0301
  902MOL0     C21661   5.813   7.899  10.826  0.4258 -1.1610 -0.6673
  902MOL0     C21662   5.739   7.959  10.928 -0.0329  0.3674  0.3040
  902MOL0     C21663   5.645   8.059  10.886  0.2750 -0.4860 -0.9201
  902MOL0     C21664   5.551   8.128  10.987  0.4354 -0.4432  0.8317
  902MOL0     O21665   5.489   8.256  10.963  0.3377  0.5264  0.8370
  902MOL0     C21666   5.381   8.297  11.038  0.5284  0.6848  0.5046
  902MOL0     C21667   5.396   8.329  11.171 -0.7393 -0.0386  1.2611
  902MOL0     C21668   5.286   8.379  11.249 -0.0477 -0.2277 -0.6330
  902MOL0     C21669   5.170   8.411  11.186 -0.3087 -0.8795 -0.0420
  902MOL0     O21670   5.060   8.446  11.259  0.2207  0.0185 -0.4419
  902MOL0     C21671   5.060   8.503  11.389 -0.5906 -0.7628  0.6648
  902MOL0     C21672   4.917   8.514  11.429 -0.1124  0.2967 -0.2569
  902MOL0     C21673   4.869   8.368  11.468  0.7663 -0.1313 -0.2259
  902MOL0     C21674   4.868   8.338  11.616  0.9605  0.1605  0.6486
  902MOL0     C21675   4.794   8.207  11.637  0.8246  0.3033  0.3203
  902MOL0     C21676   4.780   8.186  11.792 -0.5038 -0.3495 -0.7194
  902MOL0     C21677   4.649   8.117  11.824 -0.2072  1.0995  0.1965
  902MOL0     C21678   4.640   8.069  11.966 -0.1285 -0.3085 -0.3969
  902MOL0    Cl21679   4.755   7.929  11.975  0.0609  0.0976  0.1825
  902MOL0     C21680   5.156   8.382  11.051  0.7804  0.7613  0.0465
  902MOL0     C21681   5.258   8.328  10.969 -0.0331  0.4396  0.1550
  902MOL0     O21682   5.541   8.062  11.089 -0.4791  0.3093 -0.6006
  902MOL0     C21683   5.639   8.104  10.754  0.1544 -0.3188 -0.6545
  902MOL0     C21684   5.711   8.033  10.661  0.3383  0.0926 -0.4727
  902MOL0     N21685   6.259   7.499  10.393  0.3610  0.2303 -0.2117
  902MOL0     N21686   6.366   7.541  10.342  0.7608 -0.3551  0.2329
  902MOL0     C21687   7.118   8.444  10.509  0.3128 -0.6597  0.3976
  902MOL0     C21688   7.229   8.512  10.532 -0.3140 -0.8795  0.1229
  902MOL0     C21689   7.695   8.514  10.635 -0.9218  0.0505  1.2300
  902MOL0     C21690   7.715   8.578  10.514 -0.1906 -0.5032 -1.0042
  902MOL0     C21691   7.832   8.660  10.493  0.4562 -0.7790 -0.5907
  902MOL0     C21692   7.941   8.671  10.582 -0.4170 -0.3335 -0.1232
  902MOL0     O21693   8.063   8.728  10.550  0.6235  0.2206 -0.9010
  902MOL0     C21694   8.076   8.824  10.445 -1.2306  0.0277 -0.1855
  902MOL0     C21695   8.008   8.952  10.480 -0.5307  0.0931  0.1452
  902MOL0     C21696   8.071   9.021  10.607  0.4035 -0.6320  0.0000
  902MOL0     C21697   7.982   9.013  10.729  0.0245 -0.6976 -0.3055
  902MOL0     C21698   7.875   9.114  10.713  0.4773  0.3096  0.2349
  902MOL0     C21699   7.788   9.197  10.687 -0.3849  0.0631  0.3301
  902MOL0     C21700   7.923   8.591  10.696 -0.6371  0.4051 -0.6700
  902MOL0     C21701   7.802   8.520  10.728  0.1462 -0.2979  0.1924
  902MOL0     C21702   7.805   8.447  10.857 -0.4632 -0.0362 -0.0348
  902MOL0     H21703   7.419   8.231  10.607  1.1778  2.0955  1.8447
  902MOL0     H21704   7.206   8.125  10.590  1.4294 -0.3589  1.4488
  902MOL0     H21705   7.012   8.079  10.606 -0.2187 -1.4104 -0.3915
  902MOL0     H21706   6.845   8.134  10.591 -0.9288 -1.1140 -0.6592
  902MOL0     H21707   6.870   7.925  10.465 -3.0452  2.3372  4.1310
  902MOL0     H21708   6.997   8.002  10.371 -0.9226 -1.6673  0.9815
  902MOL0     H21709   6.847   8.020  10.231  2.3185  2.9400 -0.8882
  902MOL0     H21710   6.814   8.164  10.293 -0.6795 -1.4965 -5.2397
  902MOL0     H21711   6.638   7.959  10.426  0.8019 -0.0479  0.6914
  902MOL0     H21712   6.632   8.134  10.430  0.3392 -0.6192  0.3079
  902MOL0     H21713   6.466   8.089  10.284 -2.0566 -2.1907 -1.3252
  902MOL0     H21714   6.602   8.149  10.192  1.4406 -1.1915  0.9992
  902MOL0     H21715   6.506   7.949  10.084 -0.4122  1.6759  0.7732
  902MOL0     H21716   6.661   7.894  10.130 -1.4126 -0.5403 -1.1606
  902MOL0     H21717   6.417   7.858  10.316 -2.9536 -0.9267 -3.1564
  902MOL0     H21718   6.579   7.791  10.315 -0.1574  2.0558  0.4657
  902MOL0     H21719   6.369   7.769  10.088  1.1169  1.3027  1.6289
  902MOL0     H21720   6.497   7.656  10.113 -1.2774 -0.6506  0.1090
  902MOL0     H21721   6.147   7.660  10.140 -3.2702 -0.3830  2.3203
  902MOL0     H21722   5.961   7.492  10.263 -1.3603  0.1287  0.6602
  902MOL0     H21723   6.010   7.432  10.417 -0.3620  0.1890 -0.1260
  902MOL0     H21724   5.842   7.604  10.440  1.1521 -3.5567  1.0456
  902MOL0     H21725   5.996   7.624  10.526  3.3398  0.3538 -1.6086
  902MOL0     H21726   5.935   7.793  10.280  0.9538  0.8722 -0.3200
  902MOL0     H21727   6.058   7.828  10.391 -1.8304  4.1469 -0.1445
  902MOL0     H21728   5.761   7.832  10.457  0.0721  0.6206 -0.9510
  902MOL0     H21729   5.870   7.968  10.437 -2.5697 -0.5077 -2.1162
  902MOL0     H21730   5.880   7.819  10.858 -1.6326 -2.0718  1.6790
  902MOL0     H21731   5.749   7.929  11.031  3.0042 -0.0559 -0.0216
  902MOL0     H21732   5.492   8.302  11.215 -1.9568 -3.5517  2.0679
  902MOL0     H21733   5.309   8.375  11.355  2.0594 -5.0815 -0.9998
  902MOL0     H21734   5.105   8.432  11.459 -2.0641 -0.7959  1.6219
  902MOL0     H21735   5.113   8.597  11.375  1.6584 -1.9800  0.5549
  902MOL0     H21736   4.910   8.579  11.517  1.0334  3.7042 -2.4606
  902MOL0     H21737   4.863   8.565  11.348 -1.0826  2.9794  1.9027
  902MOL0     H21738   4.762   8.357  11.445  0.2647 -0.0765  1.8758
  902MOL0     H21739   4.919   8.293  11.406  3.1854  0.3066  1.0899
  902MOL0     H21740   4.810   8.417  11.664 -0.8776 -0.1094 -1.0067
  902MOL0     H21741   4.967   8.342  11.662 -0.4187  3.1525  3.8220
  902MOL0     H21742   4.833   8.116  11.590 -0.4320 -2.2052  3.6867
  902MOL0     H21743   4.692   8.219  11.599  0.6903  1.5045  1.0244
  902MOL0     H21744   4.862   8.131  11.838 -0.2486  1.2088  0.7905
  902MOL0     H21745   4.772   8.283  11.844 -0.6776 -1.0726  0.6457
  902MOL0     H21746   4.622   8.034  11.758 -2.1484  0.3983  1.7760
  902MOL0     H21747   4.565   8.186  11.812  1.0724  3.3227  2.8699
  902MOL0     H21748   4.674   8.147  12.035  2.8035 -0.9361 -1.0149
  902MOL0     H21749   4.538   8.044  11.996  0.0972  1.1033  1.8228
  902MOL0     H21750   5.055   8.378  11.010  0.3333  1.5736  1.0307
  902MOL0     H21751   5.240   8.299  10.866 -0.9615  0.6678  0.2445
  902MOL0     H21752   5.563   8.176  10.724  1.0773  0.5174 -1.0466
  902MOL0     H21753   5.693   8.061  10.558 -0.4266  0.4734 -0.2399
  902MOL0     H21754   7.039   8.497  10.456  1.0727  1.2494  1.0789
  902MOL0     H21755   7.249   8.618  10.519  0.1710 -0.5661  2.7732
  902MOL0     H21756   7.635   8.576  10.442 -0.3071 -4.3787 -0.9716
  902MOL0     H21757   7.844   8.708  10.397  1.5105 -1.4598 -0.8130
  902MOL0     H21758   8.034   8.778  10.356  1.0610 -0.4627 -1.0948
  902MOL0     H21759   8.179   8.847  10.415 -1.7003  1.4248 -0.8406
  902MOL0     H21760   7.902   8.933  10.502  0.2574 -1.4129  3.0292
  902MOL0     H21761   8.024   9.010  10.388  1.3441 -2.7075 -1.4448
  902MOL0     H21762   8.089   9.125  10.577  0.7557 -0.0457  2.0933
  902MOL0     H21763   8.169   8.976  10.625  0.8160  0.5729  0.8576
  902MOL0     H21764   7.941   8.918  10.765 -0.1472 -0.4876  0.0547
  902MOL0     H21765   8.050   9.044  10.809 -2.0978  0.8292  1.0111
  902MOL0     H21766   7.727   9.285  10.688  0.6336  0.8636  3.2958
  902MOL0     H21767   8.012   8.596  10.758 -0.2865 -3.6285 -0.6060
  902MOL0     H21768   7.898   8.469  10.910  0.0627  1.7370 -1.5863
  902MOL0     H21769   7.728   8.474  10.930  1.7626  1.6588  1.8358
  902MOL0     H21770   7.804   8.340  10.832  1.9087 -0.6117  1.9774
  903MOL0     O21771   0.207   6.344   6.410  0.1769 -0.2161  0.6745
  903MOL0     C21772   0.137   6.322   6.310  0.1312 -0.3739 -0.1677
  903MOL0     O21773   0.172   6.343   6.187 -0.6992  0.3514 -0.8039
  903MOL0     C21774   0.287   6.401   6.160  0.4772  0.1923  0.4298
  903MOL0     C21775   0.301   6.534   6.160 -0.2852 -0.0303 -0.5276
  903MOL0     C21776   0.421   6.587   6.120  0.0353 -0.8414 -0.4452
  903MOL0     C21777   0.532   6.518   6.089  0.2463 -0.4951  0.1907
  903MOL0     O21778   0.650   6.577   6.060  0.0621 -0.3646  0.8989
  903MOL0     C21779   0.769   6.543   6.132 -0.4428 -0.3090 -0.0540
  903MOL0     C21780   0.892   6.593   6.044 -0.5100 -0.2314 -0.1720
  903MOL0     C21781   1.018   6.521   6.097 -0.1014 -0.3844 -0.2128
  903MOL0     C21782   1.041   6.386   6.035 -0.0247  0.6174 -0.9142
  903MOL0     C21783   1.144   6.312   6.108 -1.0603  0.8577  0.3762
  903MOL0     C21784   1.281   6.341   6.045 -0.7332 -0.2365  1.1107
  903MOL0     C21785   1.395   6.252   6.100  2.3391 -0.5030 -0.2974
  903MOL0     C21786   1.413   6.128   6.016 -0.0319  0.6872 -0.4502
  903MOL0     N21787   1.476   6.161   5.893  0.4338  0.2880  1.0061
  903MOL0     C21788   1.609   6.179   5.862 -0.4022 -1.0480 -0.0137
  903MOL0     C21789   1.600   6.205   5.734  0.1844  0.2076  0.0252
  903MOL0     C21790   1.719   6.244   5.652 -0.0025  1.3955 -1.1538
  903MOL0     C21791   1.692   6.359   5.550 -0.6060 -0.0352  0.0939
  903MOL0     C21792   1.804   6.391   5.459  0.6876 -0.1552  0.8065
  903MOL0     C21793   1.896   6.493   5.524  0.0060  0.1478 -1.1403
  903MOL0     O21794   1.849   6.629   5.526 -0.0298 -0.4063  0.2802
  903MOL0     C21795   1.850   6.695   5.403  0.1780 -0.0869 -0.3020
  903MOL0     C21796   1.738   6.716   5.344  0.1200 -0.1221 -0.2276
  903MOL0     C21797   1.727   6.786   5.222 -0.0304  0.4821 -0.1536
  903MOL0     C21798   1.847   6.835   5.163 -0.3453 -0.5483  0.9842
  903MOL0     C21799   1.845   6.930   5.043 -0.1709  0.6400  0.5119
  903MOL0     O21800   1.957   6.942   4.979  0.2004 -0.2596 -0.3003
  903MOL0     C21801   1.987   7.053   4.893  0.1085 -0.1876 -1.2581
  903MOL0     C21802   2.008   7.179   4.950 -0.4026 -0.7199  0.2719
  903MOL0     C21803   2.056   7.283   4.868  0.2438 -1.2963  0.8763
  903MOL0     C21804   2.065   7.266   4.725  0.6514 -0.1166 -0.3579
  903MOL0     O21805   2.103   7.373   4.649  0.0877  0.6077  0.7515
  903MOL0     C21806   2.007   7.450   4.576  0.1961 -0.6344  0.4867
  903MOL0     C21807   2.038   7.600   4.597 -0.9869 -0.3402 -0.7183
  903MOL0     C21808   2.178   7.629   4.534  0.6452  0.6067 -0.4005
  903MOL0     C21809   2.202   7.781   4.516  0.1295  0.9087 -0.2128
  903MOL0     C21810   2.336   7.805   4.444  0.0140 -0.2629 -0.1112
  903MOL0     C21811   2.357   7.947   4.420  0.3313 -0.6096  1.2706
  903MOL0     C21812   2.234   8.029   4.360 -0.2206 -0.2836 -0.2273
  903MOL0     C21813   2.299   8.153   4.305 -0.7001  0.2566  0.3030
  903MOL0    Cl21814   2.368   8.100   4.143 -0.3831 -0.1314  0.3343
  903MOL0     C21815   2.037   7.139   4.675 -0.7714  1.0693 -0.1904
  903MOL0     C21816   1.995   7.036   4.754 -0.2665  0.7435  0.0133
  903MOL0     O21817   1.736   6.977   5.008  0.1528  0.3002 -0.2747
  903MOL0     C21818   1.969   6.807   5.231 -0.5550 -0.9569 -0.6568
  903MOL0     C21819   1.962   6.731   5.347 -1.0221  0.8555 -0.6597
  903MOL0     N21820   1.475   6.192   5.675 -0.5161  0.0854 -0.2837
  903MOL0     N21821   1.402   6.137   5.770  0.3753 -0.2757 -0.3953
  903MOL0     C21822   0.529   6.382   6.096 -0.3685  1.0003 -1.5949
  903MOL0     C21823   0.405   6.315   6.122  0.4412 -0.2832 -0.4123
  903MOL0     C21824  -0.007   6.290   6.344 -0.2238 -0.7659 -0.3866
  903MOL0     C21825  -0.036   6.263   6.481 -0.5172 -0.1523  0.0692
  903MOL0     C21826  -0.164   6.234   6.533  0.4050  0.4625  0.3707
  903MOL0     C21827  -0.269   6.215   6.447 -0.5460  0.8593  0.6691
  903MOL0     O21828  -0.383   6.163   6.501 -0.8957 -0.6767 -0.7855
  903MOL0     C21829  -0.484   6.094   6.431 -0.1218 -0.7826  0.7713
  903MOL0     C21830  -0.603   6.188   6.451  0.3884 -0.0466  0.0176
  903MOL0     C21831  -0.590   6.328   6.373  0.1553  0.1534  1.2776
  903MOL0     C21832  -0.706   6.409   6.408  0.6093 -1.6625 -0.3084
  903MOL0     C21833  -0.716   6.449   6.546 -0.4366 -0.4332  0.2686
  903MOL0     C21834  -0.732   6.506   6.653  0.2351 -0.4485  0.2999
  903MOL0     C21835  -0.243   6.235   6.309  0.4883  0.0435 -0.3050
  903MOL0     C21836  -0.119   6.272   6.252 -0.0804  0.0127 -0.4573
  903MOL0     C21837  -0.122   6.282   6.105  0.4751  0.1087  0.7412
  903MOL0     H21838   0.215   6.599   6.173 -0.4562 -0.7118  2.1842
  903MOL0     H21839   0.448   6.691   6.108  2.5410 -1.5768 -1.8808
  903MOL0     H21840   0.782   6.596   6.227  3.1135 -1.9322  0.5195
  903MOL0     H21841   0.775   6.436   6.152 -4.4803 -1.0986 -1.9463
  903MOL0     H21842   0.915   6.699   6.051 -0.5577 -0.3120  2.8161
  903MOL0     H21843   0.875   6.576   5.938 -0.4328  1.9020 -0.5682
  903MOL0     H21844   1.014   6.525   6.207  0.8421 -0.1808 -0.1762
  903MOL0     H21845   1.101   6.586   6.069  2.0037 -0.5785  4.4815
  903MOL0     H21846   0.955   6.320   6.051  1.3548 -0.9314  0.4827
  903MOL0     H21847   1.067   6.386   5.929 -0.0829 -2.8244 -1.0457
  903MOL0     H21848   1.143   6.346   6.212 -1.4787 -0.7182  0.9216
  903MOL0     H21849   1.117   6.206   6.104  1.9994 -0.0034 -1.5248
  903MOL0     H21850   1.281   6.344   5.935 -1.8360 -0.5640  1.0872
  903MOL0     H21851   1.305   6.446   6.063 -2.2394  1.2882 -4.0140
  903MOL0     H21852   1.361   6.226   6.201  1.9502 -1.1951 -0.6048
  903MOL0     H21853   1.482   6.316   6.123 -0.1937  2.5314  1.7172
  903MOL0     H21854   1.477   6.060   6.073 -1.5974  0.7205  1.4594
  903MOL0     H21855   1.311   6.092   5.999 -0.8568  2.4639  0.3583
  903MOL0     H21856   1.696   6.178   5.927 -1.8082 -1.7387  1.9793
  903MOL0     H21857   1.801   6.269   5.721 -0.7896  3.8060 -0.9740
  903MOL0     H21858   1.763   6.152   5.613  0.9625  0.9790  0.7688
  903MOL0     H21859   1.605   6.333   5.490  0.4759 -3.0731 -0.3652
  903MOL0     H21860   1.668   6.447   5.611 -2.4670 -0.8871  0.6582
  903MOL0     H21861   1.765   6.430   5.365 -0.0127  0.2150  1.2394
  903MOL0     H21862   1.864   6.300   5.449  0.5488 -0.1210 -0.4580
  903MOL0     H21863   1.998   6.479   5.489  0.0813 -0.8905 -0.5326
  903MOL0     H21864   1.897   6.466   5.630 -2.5766  0.4930 -0.9586
  903MOL0     H21865   1.657   6.686   5.410  0.0523  2.5879  1.0740
  903MOL0     H21866   1.633   6.815   5.177 -0.5808 -3.3821 -1.8791
  903MOL0     H21867   2.005   7.186   5.058 -1.8828  2.5353  0.1221
  903MOL0     H21868   2.070   7.382   4.909  0.8804 -0.0519 -2.1535
  903MOL0     H21869   2.016   7.425   4.470  0.1876  0.2562  0.2652
  903MOL0     H21870   1.904   7.428   4.607  0.6875 -0.7090  2.2045
  903MOL0     H21871   1.955   7.655   4.551 -2.9571 -2.6319 -0.1412
  903MOL0     H21872   2.031   7.620   4.704 -1.7613 -1.5018 -0.5250
  903MOL0     H21873   2.266   7.602   4.593  0.6473  0.7184 -0.3509
  903MOL0     H21874   2.181   7.576   4.439 -0.6732 -0.9021  0.3565
  903MOL0     H21875   2.205   7.821   4.618 -0.6150 -3.1390  1.5944
  903MOL0     H21876   2.123   7.832   4.460 -0.3196 -0.2197 -0.6399
  903MOL0     H21877   2.335   7.749   4.349 -2.8560 -3.5976  1.6546
  903MOL0     H21878   2.428   7.770   4.492  0.4603  1.3801  0.2898
  903MOL0     H21879   2.380   8.000   4.513  1.6148  1.3409 -0.0709
  903MOL0     H21880   2.435   7.951   4.343 -0.9468 -1.5172 -0.1262
  903MOL0     H21881   2.159   8.054   4.436  0.7883 -0.2164  0.7750
  903MOL0     H21882   2.184   7.982   4.276 -1.5481  2.0604 -0.8325
  903MOL0     H21883   2.222   8.229   4.289 -2.2005 -1.5716 -1.7323
  903MOL0     H21884   2.381   8.192   4.367  0.4300  2.6124 -2.4427
  903MOL0     H21885   2.066   7.128   4.571  0.9123  2.7679  0.0240
  903MOL0     H21886   1.963   6.942   4.711  1.6217 -0.9049  1.9923
  903MOL0     H21887   2.056   6.860   5.195 -1.7436  1.6951  0.1605
  903MOL0     H21888   2.048   6.716   5.411 -0.6902  1.0043 -1.0659
  903MOL0     H21889   0.609   6.311   6.078  0.4958  1.6675 -0.5258
  903MOL0     H21890   0.390   6.207   6.123  4.4187 -0.9894  0.0390
  903MOL0     H21891   0.040   6.255   6.557 -3.4382 -0.6639  3.1579
  903MOL0     H21892  -0.179   6.216   6.638  0.7521 -0.2709  0.3052
  903MOL0     H21893  -0.508   6.002   6.485 -4.4454  0.5015  1.4312
  903MOL0     H21894  -0.463   6.069   6.327 -4.0002 -0.7867 -0.1563
  903MOL0     H21895  -0.596   6.230   6.552  1.1484  2.5573 -1.0225
  903MOL0     H21896  -0.694   6.136   6.420  0.8058 -0.5030 -0.4662
  903MOL0     H21897  -0.586   6.309   6.266  2.2610  2.2797  0.8916
  903MOL0     H21898  -0.499   6.383   6.397  0.5010  1.5844 -2.6370
  903MOL0     H21899  -0.691   6.502   6.353 -3.6771 -0.8497 -0.3875
  903MOL0     H21900  -0.800   6.374   6.366  1.3067 -0.6548 -2.9098
  903MOL0     H21901  -0.758   6.525   6.755 -3.1805 -0.2100 -0.4944
  903MOL0     H21902  -0.325   6.212   6.241  1.4632 -0.3846 -1.3711
  903MOL0     H21903  -0.219   6.270   6.056  0.7158 -3.5551  0.8701
  903MOL0     H21904  -0.090   6.386   6.096 -1.6571  0.8477  1.1536
  903MOL0     H21905  -0.040   6.217   6.072  2.7032  2.0153  2.1571
  904MOL0     O21906   0.080   1.081   7.187 -0.2456  0.5990  0.5425
  904MOL0     C21907   0.080   1.201   7.162 -0.0012  0.7514 -0.5704
  904MOL0     O21908   0.097   1.294   7.265  0.2222  0.0051 -0.0684
  904MOL0     C21909   0.117   1.273   7.400 -0.7576  0.6358  0.0183
  904MOL0     C21910   0.040   1.344   7.496 -0.0199  0.5419  0.0701
  904MOL0     C21911   0.078   1.333   7.627 -0.1405  0.1695 -0.4403
  904MOL0     C21912   0.176   1.242   7.683 -0.2320 -1.1640  0.8683
  904MOL0     O21913   0.201   1.246   7.816 -0.6914  0.0911 -0.3318
  904MOL0     C21914   0.282   1.141   7.879 -0.2253 -1.1526  0.5396
  904MOL0     C21915   0.178   1.049   7.952  0.1207 -0.3636 -0.2447
  904MOL0     C21916   0.244   0.931   8.026  0.0358  0.3822 -0.2136
  904MOL0     C21917   0.286   0.968   8.163 -0.4188 -0.4646  0.1385
  904MOL0     C21918   0.331   0.838   8.234 -0.4212  0.1720  0.3969
  904MOL0     C21919   0.410   0.876   8.354 -1.2611 -0.4358 -0.0504
  904MOL0     C21920   0.472   0.760   8.422 -0.0797 -0.2608 -0.0814
  904MOL0     C21921   0.383   0.670   8.506 -0.2612  0.0447 -0.0092
  904MOL0     N21922   0.454   0.558   8.585  0.0985  0.8109  0.5745
  904MOL0     C21923   0.564   0.579   8.662 -0.1717 -0.3176  0.8791
  904MOL0     C21924   0.593   0.458   8.712 -0.9765 -0.7554 -0.0924
  904MOL0     C21925   0.696   0.418   8.814 -0.8139  0.1371 -1.0523
  904MOL0     C21926   0.645   0.471   8.948  0.6302 -0.1794 -0.8222
  904MOL0     C21927   0.745   0.449   9.062  0.3703  0.4050 -0.0704
  904MOL0     C21928   0.752   0.304   9.109 -0.0618 -0.7852  0.3627
  904MOL0     O21929   0.875   0.293   9.185 -0.4294 -0.2605 -0.0102
  904MOL0     C21930   0.914   0.174   9.242 -0.5492 -0.4991 -0.6344
  904MOL0     C21931   0.853   0.055   9.236  0.0635  0.4455  0.0706
  904MOL0     C21932   0.904  -0.053   9.312 -0.0639  0.0096 -1.1870
  904MOL0     C21933   1.005  -0.040   9.406  0.5208 -0.0618  0.1559
  904MOL0     C21934   1.059  -0.152   9.478 -0.3518 -0.0883 -0.7678
  904MOL0     O21935   0.965  -0.243   9.536  0.0370  0.0198  0.0807
  904MOL0     C21936   1.011  -0.353   9.586 -0.4382  0.0535  0.0209
  904MOL0     C21937   1.117  -0.434   9.538  0.1023  0.0033 -0.3868
  904MOL0     C21938   1.151  -0.555   9.591  1.3120 -0.3922  0.0895
  904MOL0     C21939   1.091  -0.597   9.711 -0.2882 -0.5115 -0.5001
  904MOL0     O21940   1.143  -0.712   9.766 -0.4172  0.3110 -0.3931
  904MOL0     C21941   1.095  -0.747   9.900 -0.6954  0.0517  0.2631
  904MOL0     C21942   1.156  -0.875   9.949  0.1348 -0.3225 -0.1726
  904MOL0     C21943   1.129  -0.990   9.850  0.0645  0.7768 -0.1959
  904MOL0     C21944   1.203  -1.113   9.897  0.7351 -1.0017  0.3801
  904MOL0     C21945   1.201  -1.235   9.802  0.8920 -0.9333 -0.2305
  904MOL0     C21946   1.257  -1.217   9.661  0.1596 -0.2373  0.5205
  904MOL0     C21947   1.228  -1.346   9.581  0.0301 -1.0509 -0.5966
  904MOL0     C21948   1.298  -1.349   9.444 -0.3844  0.6676 -0.5637
  904MOL0    Cl21949   1.190  -1.451   9.346  0.4857  0.4455 -0.2393
  904MOL0     C21950   0.990  -0.512   9.757 -0.6253 -0.2819 -0.9936
  904MOL0     C21951   0.943  -0.397   9.692 -0.0990  1.1009  0.1961
  904MOL0     O21952   1.184  -0.162   9.485 -0.0650  0.0867  0.5584
  904MOL0     C21953   1.070   0.088   9.401 -0.5547 -0.4396 -0.7023
  904MOL0     C21954   1.033   0.190   9.315  0.5455  0.3088 -0.2501
  904MOL0     N21955   0.501   0.365   8.661  0.8139  0.1089  0.5326
  904MOL0     N21956   0.418   0.428   8.586 -0.4387  0.1638 -1.0879
  904MOL0     C21957   0.237   1.162   7.583 -0.0064 -0.7785  0.1509
  904MOL0     C21958   0.207   1.182   7.441  0.5453  0.1581 -0.2843
  904MOL0     C21959   0.069   1.247   7.023 -0.8132  0.2361  0.4079
  904MOL0     C21960   0.109   1.378   7.001 -0.1997  0.5346 -0.1880
  904MOL0     C21961   0.088   1.442   6.886  0.1109 -1.5653  0.7645
  904MOL0     C21962   0.042   1.374   6.773  1.3417  1.3653 -0.0707
  904MOL0     O21963   0.031   1.422   6.649  0.4022 -0.3115 -0.3119
  904MOL0     C21964   0.052   1.561   6.619  0.6640 -0.4390 -0.6044
  904MOL0     C21965  -0.028   1.599   6.499  0.3029  0.4310 -0.1985
  904MOL0     C21966  -0.080   1.749   6.490 -0.4471 -0.6621 -0.0374
  904MOL0     C21967  -0.010   1.811   6.368  0.7266  0.8075  0.1973
  904MOL0     C21968   0.136   1.808   6.355 -0.1214 -0.6076 -0.4080
  904MOL0     C21969   0.257   1.797   6.352  0.3683  1.1390  0.1808
  904MOL0     C21970  -0.017   1.250   6.793  0.4856 -0.4605 -0.2866
  904MOL0     C21971  -0.008   1.187   6.921  0.1760 -0.0068  0.7628
  904MOL0     C21972  -0.058   1.042   6.935 -1.1488 -0.3376 -0.2710
  904MOL0     H21973  -0.036   1.409   7.454 -0.4872 -0.2611 -0.3619
  904MOL0     H21974   0.039   1.403   7.701  2.3420  1.5949 -0.3765
  904MOL0     H21975   0.349   1.087   7.812  1.9897  1.0838  0.7793
  904MOL0     H21976   0.349   1.188   7.952  1.3488  0.3314 -1.7645
  904MOL0     H21977   0.107   1.009   7.879 -0.1016 -3.4259  1.4686
  904MOL0     H21978   0.115   1.110   8.018  0.0073  0.1201 -0.7938
  904MOL0     H21979   0.330   0.898   7.966 -0.1291 -0.1152 -0.1789
  904MOL0     H21980   0.174   0.849   8.046  1.7463 -0.9895  0.4058
  904MOL0     H21981   0.365   1.043   8.169 -0.1076 -0.7449 -0.4009
  904MOL0     H21982   0.200   1.013   8.213 -0.0900 -0.0640  0.3462
  904MOL0     H21983   0.243   0.780   8.265 -0.0971 -0.1894  0.6475
  904MOL0     H21984   0.392   0.781   8.165  1.2225 -0.7775  2.5215
  904MOL0     H21985   0.497   0.934   8.323 -2.0253  1.2667  0.8433
  904MOL0     H21986   0.352   0.942   8.420 -2.9341 -1.2547 -0.6697
  904MOL0     H21987   0.549   0.797   8.490 -0.1251 -3.3511  1.8660
  904MOL0     H21988   0.531   0.703   8.350  0.8221  1.0427 -0.4065
  904MOL0     H21989   0.334   0.729   8.584 -1.7309  0.3975 -1.1262
  904MOL0     H21990   0.294   0.638   8.450 -0.0202 -0.2027 -0.2526
  904MOL0     H21991   0.603   0.677   8.689 -0.3128  0.7185 -2.3222
  904MOL0     H21992   0.715   0.311   8.819 -2.7260 -0.2158 -0.4520
  904MOL0     H21993   0.792   0.469   8.799 -0.3045  0.8942  3.3961
  904MOL0     H21994   0.631   0.580   8.951  3.5079  0.2481  0.9403
  904MOL0     H21995   0.544   0.442   8.979  0.5795 -0.3075 -1.1101
  904MOL0     H21996   0.722   0.517   9.145 -1.5915 -0.8466  0.4852
  904MOL0     H21997   0.835   0.475   9.006  0.4943 -1.2879 -0.6897
  904MOL0     H21998   0.764   0.238   9.023  0.7326 -0.8235  0.4985
  904MOL0     H21999   0.667   0.260   9.162 -0.2541  0.6125  1.2742
  904MOL0     H22000   0.774   0.032   9.166  2.1555 -1.5709 -1.7783
  904MOL0     H22001   0.848  -0.146   9.308  0.5192 -0.3940 -0.3681
  904MOL0     H22002   1.189  -0.408   9.461 -1.4203  1.0953 -1.5065
  904MOL0     H22003   1.236  -0.603   9.546  0.1817 -2.8551  0.4230
  904MOL0     H22004   1.111  -0.662   9.967  1.5643 -1.6757  2.0614
  904MOL0     H22005   0.987  -0.762   9.889 -0.8110 -0.4152  1.8745
  904MOL0     H22006   1.264  -0.862   9.954 -0.1879  2.6723  1.4058
  904MOL0     H22007   1.118  -0.905  10.047 -0.6725 -2.2681 -1.0167
  904MOL0     H22008   1.025  -1.023   9.843  0.9695 -2.0817 -1.9337
  904MOL0     H22009   1.161  -0.976   9.746  0.0511 -3.8010 -1.0247
  904MOL0     H22010   1.172  -1.141   9.999  0.1773  0.9758  0.7822
  904MOL0     H22011   1.310  -1.089   9.893 -0.0527  3.5292  1.2896
  904MOL0     H22012   1.097  -1.268   9.802  1.1411 -1.7473  0.2459
  904MOL0     H22013   1.255  -1.320   9.844  1.2963 -0.8215 -0.5167
  904MOL0     H22014   1.203  -1.132   9.618  0.6495  0.8634  2.0115
  904MOL0     H22015   1.362  -1.186   9.654  0.3789 -0.9967  0.3188
  904MOL0     H22016   1.120  -1.357   9.575 -0.2513  1.3046 -0.4821
  904MOL0     H22017   1.269  -1.432   9.637 -0.0034 -1.0388 -0.5533
  904MOL0     H22018   1.312  -1.250   9.399  0.6883 -0.0738 -1.9287
  904MOL0     H22019   1.400  -1.386   9.451  1.4937  5.4410  2.5166
  904MOL0     H22020   0.940  -0.555   9.844  0.9307 -3.4901 -1.5434
  904MOL0     H22021   0.860  -0.339   9.729 -0.0035  2.1690 -1.1580
  904MOL0     H22022   1.157   0.100   9.465 -0.1293 -0.0493 -1.3382
  904MOL0     H22023   1.085   0.282   9.291 -0.2893  0.0154 -3.8538
  904MOL0     H22024   0.310   1.091   7.619  1.4811  1.4745  1.9057
  904MOL0     H22025   0.255   1.130   7.359  0.2224  1.5012 -1.3587
  904MOL0     H22026   0.155   1.446   7.073  1.9533 -1.2792  0.2527
  904MOL0     H22027   0.116   1.547   6.890 -0.1941 -1.5171  3.3698
  904MOL0     H22028   0.160   1.573   6.628  0.8125  0.7008 -3.1610
  904MOL0     H22029   0.008   1.620   6.700 -1.1692  0.6500 -2.3043
  904MOL0     H22030  -0.113   1.530   6.493 -0.7550  1.7774 -1.8711
  904MOL0     H22031   0.020   1.571   6.405  0.0482 -1.2019  0.1381
  904MOL0     H22032  -0.054   1.815   6.574  0.7841  0.5605 -1.3267
  904MOL0     H22033  -0.187   1.748   6.468 -0.1574  0.8358 -1.7332
  904MOL0     H22034  -0.045   1.760   6.278  1.1829  1.2569 -0.2398
  904MOL0     H22035  -0.038   1.917   6.358  0.4815  0.7283  0.0333
  904MOL0     H22036   0.358   1.762   6.345 -0.4275 -1.2945  0.0127
  904MOL0     H22037  -0.074   1.200   6.715 -2.1451 -0.1832  1.3121
  904MOL0     H22038  -0.109   1.040   7.031 -2.2642 -0.7963 -0.8575
  904MOL0     H22039  -0.130   1.019   6.856 -1.0442 -0.6111 -0.2908
  904MOL0     H22040   0.026   0.972   6.922 -1.1130 -0.0059 -2.0947
  905MOL0     O22041   4.108   5.642   7.415 -0.1855 -0.2004  0.3843
  905MOL0     C22042   4.099   5.706   7.313 -0.4844  0.2121 -0.5317
  905MOL0     O22043   4.152   5.666   7.192  0.3806  1.1490 -0.4739
  905MOL0     C22044   4.234   5.557   7.195  1.1498  0.0677  1.3752
  905MOL0     C22045   4.175   5.429   7.207 -0.6410 -0.4197 -0.2250
  905MOL0     C22046   4.252   5.313   7.214  0.6365 -0.6756 -0.7924
  905MOL0     C22047   4.397   5.328   7.187  0.0634  0.5735 -0.1951
  905MOL0     O22048   4.477   5.216   7.192  0.3214 -0.2381  0.5382
  905MOL0     C22049   4.587   5.201   7.098  0.5611 -0.2093 -1.0300
  905MOL0     C22050   4.650   5.058   7.115 -0.5150  0.1274  0.3083
  905MOL0     C22051   4.778   5.026   7.017  0.6734 -0.1148 -0.3136
  905MOL0     C22052   4.761   5.075   6.876  0.0927  0.0405  0.8818
  905MOL0     C22053   4.887   5.031   6.796  0.6274 -0.7986 -0.2934
  905MOL0     C22054   4.902   5.110   6.661 -0.8183  0.7066 -0.1338
  905MOL0     C22055   5.035   5.060   6.595  0.7260  0.0836 -0.3996
  905MOL0     C22056   5.054   5.120   6.453  0.5408 -0.3324 -0.3731
  905MOL0     N22057   5.079   5.263   6.475 -0.2211  0.6017  0.0463
  905MOL0     C22058   4.982   5.360   6.466  0.4894  0.2445  0.9576
  905MOL0     C22059   5.050   5.477   6.461 -0.8297 -0.6237  0.0122
  905MOL0     C22060   4.985   5.619   6.462 -0.1924  0.4133  1.0278
  905MOL0     C22061   5.082   5.717   6.413  0.0767  0.1187 -1.3761
  905MOL0     C22062   5.029   5.858   6.419 -0.1176 -0.1959  0.4480
  905MOL0     C22063   5.122   5.967   6.414  0.4622  0.3744  0.2264
  905MOL0     O22064   5.220   5.943   6.310  0.3027 -0.1243  0.1125
  905MOL0     C22065   5.297   6.047   6.253  1.1382 -0.2263  0.2407
  905MOL0     C22066   5.391   6.005   6.156  1.3908 -1.1932  0.1614
  905MOL0     C22067   5.475   6.099   6.088  0.7428  0.1685  0.5272
  905MOL0     C22068   5.468   6.239   6.118 -0.1786 -0.6425 -0.0206
  905MOL0     C22069   5.559   6.345   6.059  0.2278  0.8294  0.5302
  905MOL0     O22070   5.687   6.297   6.021  0.1738 -0.1992  0.9171
  905MOL0     C22071   5.757   6.377   5.928 -0.5043  0.3368  0.9160
  905MOL0     C22072   5.902   6.385   5.947  0.7492  0.2446  0.5338
  905MOL0     C22073   5.983   6.467   5.871 -0.3201  0.0440 -0.2349
  905MOL0     C22074   5.927   6.540   5.764  0.4431 -0.0076  0.2794
  905MOL0     O22075   6.004   6.599   5.666  0.3152 -0.4611  0.9642
  905MOL0     C22076   6.148   6.583   5.662  0.2412 -0.0271  0.2365
  905MOL0     C22077   6.214   6.698   5.591  0.2307 -0.0080  0.1421
  905MOL0     C22078   6.368   6.686   5.606  0.1836  0.5360 -0.2958
  905MOL0     C22079   6.427   6.810   5.539 -0.8446  0.2200  0.9867
  905MOL0     C22080   6.582   6.821   5.563  0.4213 -0.2167  0.3253
  905MOL0     C22081   6.626   6.952   5.504  0.3697 -1.0185  0.7606
  905MOL0     C22082   6.773   7.003   5.531 -0.0181  0.9909  0.3822
  905MOL0     C22083   6.803   7.135   5.464  0.5876 -0.3018 -0.4662
  905MOL0    Cl22084   6.977   7.174   5.477 -0.1564  0.1223  0.1737
  905MOL0     C22085   5.788   6.531   5.747 -0.9343  0.2009  0.4052
  905MOL0     C22086   5.703   6.468   5.836  0.4573 -0.7797 -0.0115
  905MOL0     O22087   5.515   6.462   6.045 -0.4471  0.0533  0.2692
  905MOL0     C22088   5.369   6.271   6.210  0.9004  0.0701 -0.9372
  905MOL0     C22089   5.293   6.184   6.282  0.5843 -0.0799  1.3848
  905MOL0     N22090   5.185   5.445   6.469 -0.5925 -0.0481  0.3291
  905MOL0     N22091   5.202   5.325   6.463 -0.1437  0.6255 -1.0784
  905MOL0     C22092   4.450   5.455   7.156 -0.0636  0.4164 -0.7683
  905MOL0     C22093   4.363   5.564   7.162  0.3111 -0.3313  0.8349
  905MOL0     C22094   4.005   5.817   7.303 -0.2763  0.9627  0.3935
  905MOL0     C22095   3.870   5.805   7.314 -0.3873  0.6351  0.0690
  905MOL0     C22096   3.778   5.895   7.283  0.2455 -0.6469  0.5018
  905MOL0     C22097   3.824   6.013   7.230  0.4224 -0.5255  0.5259
  905MOL0     O22098   3.742   6.113   7.189 -0.0220  0.1629  0.8464
  905MOL0     C22099   3.615   6.132   7.265  0.6122  0.4970  1.1360
  905MOL0     C22100   3.579   6.280   7.272 -1.2034  0.4820 -0.5752
  905MOL0     C22101   3.658   6.348   7.394  0.3391  1.7188  0.5311
  905MOL0     C22102   3.623   6.491   7.395 -0.0278  0.1875  0.1493
  905MOL0     C22103   3.659   6.559   7.269 -0.4335  0.8646 -0.4818
  905MOL0     C22104   3.714   6.616   7.176 -0.5214  0.8270 -0.0717
  905MOL0     C22105   3.960   6.034   7.223  0.3759 -0.4725  0.3592
  905MOL0     C22106   4.055   5.942   7.265 -0.3915  0.4939  0.1158
  905MOL0     C22107   4.208   5.987   7.255  0.8122  0.0964  0.3421
  905MOL0     H22108   4.070   5.414   7.232 -0.6339 -0.2227 -0.0685
  905MOL0     H22109   4.211   5.216   7.242  0.6912 -0.5901 -0.4074
  905MOL0     H22110   4.566   5.224   6.993 -1.1954  0.9002 -0.4685
  905MOL0     H22111   4.665   5.268   7.135 -1.9713  0.2936  4.3422
  905MOL0     H22112   4.570   4.988   7.091 -0.0030  0.3157 -2.2562
  905MOL0     H22113   4.680   5.041   7.219 -3.3628 -0.5048  1.1291
  905MOL0     H22114   4.789   4.917   7.016 -1.4723 -0.3825  0.8817
  905MOL0     H22115   4.869   5.068   7.061 -0.8783  1.1083  1.9339
  905MOL0     H22116   4.686   5.025   6.813  0.5552  0.4153  0.0201
  905MOL0     H22117   4.748   5.183   6.871  1.4119  0.1617 -2.0394
  905MOL0     H22118   4.977   5.054   6.854  1.0890 -1.6591 -0.6327
  905MOL0     H22119   4.892   4.923   6.779 -1.2556 -0.5150 -3.5600
  905MOL0     H22120   4.820   5.093   6.590  0.6426  0.3885 -1.8367
  905MOL0     H22121   4.916   5.217   6.676  1.3728  0.5751 -0.8003
  905MOL0     H22122   5.005   4.955   6.584 -0.7491  0.3937  0.3717
  905MOL0     H22123   5.124   5.086   6.654  0.8085 -0.5516 -0.2319
  905MOL0     H22124   5.136   5.080   6.392 -1.1702 -0.6076 -2.6177
  905MOL0     H22125   4.958   5.103   6.405 -0.5802 -1.0464  1.9533
  905MOL0     H22126   4.878   5.341   6.444  0.7532 -1.9366  1.3468
  905MOL0     H22127   4.906   5.600   6.389 -1.2786 -2.4153  2.7566
  905MOL0     H22128   4.949   5.650   6.561  0.5821 -0.4277  1.5920
  905MOL0     H22129   5.176   5.716   6.469 -1.2413  0.9460  1.0043
  905MOL0     H22130   5.096   5.677   6.313  0.1683 -0.3210 -1.1917
  905MOL0     H22131   4.970   5.882   6.508 -2.4309  1.1442 -1.3261
  905MOL0     H22132   4.951   5.869   6.344  0.6607 -0.0317 -0.3477
  905MOL0     H22133   5.176   5.969   6.509 -0.5396  1.2604  0.8069
  905MOL0     H22134   5.071   6.063   6.401  0.5440  0.9470  3.3630
  905MOL0     H22135   5.397   5.900   6.131  0.5414 -1.2905  0.3208
  905MOL0     H22136   5.523   6.071   5.995 -3.4222 -0.0473 -1.8028
  905MOL0     H22137   5.959   6.338   6.027  2.9240  1.5929 -0.1366
  905MOL0     H22138   6.085   6.486   5.902 -0.4457 -2.2635  1.8992
  905MOL0     H22139   6.183   6.589   5.765  1.4168 -0.4312 -0.1230
  905MOL0     H22140   6.167   6.488   5.612 -1.1029 -0.6226  0.8354
  905MOL0     H22141   6.182   6.682   5.488  0.4121  2.3209 -0.3425
  905MOL0     H22142   6.179   6.790   5.640 -0.1037 -1.0642  1.9959
  905MOL0     H22143   6.398   6.688   5.711  0.8729  2.4484 -0.4868
  905MOL0     H22144   6.389   6.588   5.563 -1.4311 -0.1231  0.3628
  905MOL0     H22145   6.384   6.902   5.581 -0.1818  1.4550 -0.8841
  905MOL0     H22146   6.416   6.807   5.430  2.0930  0.9204  0.5797
  905MOL0     H22147   6.616   6.733   5.508 -2.5892  0.4412 -2.9557
  905MOL0     H22148   6.619   6.825   5.666 -1.1365  2.1065  0.8685
  905MOL0     H22149   6.604   6.948   5.397 -3.1158 -5.6104  1.3436
  905MOL0     H22150   6.572   7.029   5.561  2.5899  0.7052  0.6875
  905MOL0     H22151   6.839   6.919   5.506 -0.3930  0.1156  2.1419
  905MOL0     H22152   6.800   7.010   5.637  2.4270  1.1997 -0.2096
  905MOL0     H22153   6.757   7.133   5.365 -0.9831 -4.5967  0.1313
  905MOL0     H22154   6.763   7.217   5.525  2.9489 -0.5149  1.5334
  905MOL0     H22155   5.753   6.578   5.656  2.5923  1.6102 -0.3881
  905MOL0     H22156   5.596   6.465   5.818 -0.2705  4.3356  1.7878
  905MOL0     H22157   5.375   6.377   6.230  1.6570  0.0506 -1.0451
  905MOL0     H22158   5.240   6.228   6.365  2.4033  2.0250  1.5123
  905MOL0     H22159   4.556   5.468   7.136  1.5321 -2.9459  3.9009
  905MOL0     H22160   4.407   5.661   7.138 -2.1603  0.5325 -0.5477
  905MOL0     H22161   3.841   5.709   7.354  1.9417  0.1616  0.7988
  905MOL0     H22162   3.675   5.866   7.302 -0.5737  1.1179 -0.8963
  905MOL0     H22163   3.613   6.078   7.360 -0.4563 -1.0937  0.2488
  905MOL0     H22164   3.537   6.083   7.206 -0.0565  2.4067  0.3618
  905MOL0     H22165   3.470   6.285   7.281 -1.4332 -1.1128 -2.0928
  905MOL0     H22166   3.612   6.328   7.179  1.1820  0.6493  0.3037
  905MOL0     H22167   3.763   6.321   7.375 -0.1916 -0.3369  0.1936
  905MOL0     H22168   3.632   6.300   7.489 -0.9237 -2.5711 -1.6732
  905MOL0     H22169   3.517   6.507   7.416 -0.1749 -0.3576 -0.1549
  905MOL0     H22170   3.681   6.545   7.470 -2.0626  0.8344  1.3166
  905MOL0     H22171   3.756   6.673   7.096  0.3604 -0.9960 -0.9758
  905MOL0     H22172   3.989   6.134   7.192  0.3677 -0.6679 -0.2953
  905MOL0     H22173   4.250   5.967   7.156  0.7550  3.1947 -0.3990
  905MOL0     H22174   4.226   6.091   7.284  1.6135 -0.4142  1.8234
  905MOL0     H22175   4.265   5.923   7.323 -0.6604  1.1938  2.7393
  906MOL0     O22176   3.812   6.206   5.028  0.6749 -0.1698 -0.2503
  906MOL0     C22177   3.843   6.238   5.141  0.3519  0.4061 -0.0650
  906MOL0     O22178   3.799   6.344   5.208  0.3830  0.4605  0.0177
  906MOL0     C22179   3.690   6.417   5.170 -0.7404  0.5043  0.2121
  906MOL0     C22180   3.709   6.554   5.201 -0.1461  0.7725 -0.0418
  906MOL0     C22181   3.607   6.642   5.178 -0.8876 -0.2043  0.4727
  906MOL0     C22182   3.485   6.597   5.132  0.3176 -0.7738 -0.9426
  906MOL0     O22183   3.381   6.686   5.111 -0.5562  0.1147  0.4720
  906MOL0     C22184   3.347   6.782   5.213 -1.0809 -0.4072  0.5559
  906MOL0     C22185   3.246   6.884   5.146 -0.8418  0.0056  0.2007
  906MOL0     C22186   3.314   6.972   5.039  1.0960  0.4230  0.5214
  906MOL0     C22187   3.200   7.045   4.972  0.2959 -0.0118  0.8761
  906MOL0     C22188   3.249   7.137   4.854  0.3564  0.5151 -0.1848
  906MOL0     C22189   3.123   7.198   4.781 -0.0187 -0.3997  0.2446
  906MOL0     C22190   3.150   7.292   4.668 -0.1339  0.0551  0.5259
  906MOL0     C22191   3.136   7.437   4.702 -0.0871 -0.0879  0.1601
  906MOL0     N22192   3.236   7.492   4.788 -0.2021  0.3252  0.3713
  906MOL0     C22193   3.225   7.618   4.849 -1.1629  0.1636  0.4958
  906MOL0     C22194   3.357   7.661   4.868  0.7431 -0.6206 -0.6450
  906MOL0     C22195   3.390   7.788   4.934 -0.1460 -0.2092 -0.5689
  906MOL0     C22196   3.388   7.912   4.840 -0.4457 -0.1718  0.2302
  906MOL0     C22197   3.523   7.899   4.758  0.4645  0.0739 -0.4658
  906MOL0     C22198   3.546   8.025   4.670 -0.0748  1.1776  0.1114
  906MOL0     O22199   3.502   8.142   4.739  0.7576 -0.1623 -0.1953
  906MOL0     C22200   3.467   8.252   4.658 -0.2634 -0.6059 -0.5967
  906MOL0     C22201   3.530   8.271   4.536 -0.4482  0.0920 -1.1644
  906MOL0     C22202   3.487   8.382   4.459 -0.6417 -0.1201 -0.5796
  906MOL0     C22203   3.409   8.484   4.514 -0.1639  0.5646  0.6530
  906MOL0     C22204   3.372   8.609   4.444  0.9338 -0.6057 -0.3138
  906MOL0     O22205   3.369   8.600   4.308  0.0926 -0.3980 -0.6167
  906MOL0     C22206   3.322   8.699   4.229  0.6473 -0.3002  0.5527
  906MOL0     C22207   3.275   8.833   4.259 -0.8053  0.2348  0.1199
  906MOL0     C22208   3.219   8.911   4.152 -0.0373  0.3448  0.2566
  906MOL0     C22209   3.207   8.866   4.022 -0.4026  0.4195 -0.0597
  906MOL0     O22210   3.144   8.927   3.923 -0.0519 -0.0247 -0.2559
  906MOL0     C22211   3.008   8.966   3.955  0.5485 -0.2816  1.1564
  906MOL0     C22212   2.904   8.849   3.936  0.3372  0.8135  0.3732
  906MOL0     C22213   2.758   8.894   3.991 -0.8786 -0.5274  0.8969
  906MOL0     C22214   2.755   8.868   4.142  0.1193  0.1103  0.4088
  906MOL0     C22215   2.617   8.923   4.207 -0.7712 -0.3449 -0.7673
  906MOL0     C22216   2.503   8.827   4.198 -0.1578  1.0628 -0.3134
  906MOL0     C22217   2.367   8.905   4.219 -0.2425 -1.2287  0.4345
  906MOL0     C22218   2.292   8.918   4.092  0.1812  0.7270 -0.1739
  906MOL0    Cl22219   2.168   9.036   4.116  0.1087  0.4315 -0.3518
  906MOL0     C22220   3.286   8.758   3.989 -0.6153  0.5245  0.0202
  906MOL0     C22221   3.338   8.671   4.091 -0.1501 -0.3126 -0.3223
  906MOL0     O22222   3.350   8.706   4.511  0.2604 -0.6351 -0.0927
  906MOL0     C22223   3.345   8.457   4.635 -0.3864 -0.5681 -1.3203
  906MOL0     C22224   3.379   8.343   4.710 -0.0908  0.0485 -0.0112
  906MOL0     N22225   3.438   7.559   4.819 -0.0881 -0.0538  0.6558
  906MOL0     N22226   3.365   7.453   4.779 -0.6995  1.4048  1.2579
  906MOL0     C22227   3.474   6.461   5.095 -0.3801 -0.5687  0.3400
  906MOL0     C22228   3.578   6.367   5.122  1.2566  0.3410 -0.3798
  906MOL0     C22229   3.941   6.154   5.203  0.2630  0.6867  0.0590
  906MOL0     C22230   4.013   6.206   5.310 -0.3578 -0.2996  0.7001
  906MOL0     C22231   4.105   6.130   5.380 -0.4053 -0.6423  0.2988
  906MOL0     C22232   4.139   5.998   5.341 -0.0664  0.2676 -0.0971
  906MOL0     O22233   4.207   5.909   5.418  0.2723  0.1765  1.4146
  906MOL0     C22234   4.291   5.968   5.514 -0.0144  0.8050 -0.1344
  906MOL0     C22235   4.385   5.850   5.557  0.2390 -0.1980 -0.5359
  906MOL0     C22236   4.483   5.809   5.449  0.3653 -0.0196 -0.7623
  906MOL0     C22237   4.556   5.681   5.477 -0.7146  0.1584 -0.1432
  906MOL0     C22238   4.648   5.635   5.374 -0.7120 -0.1881 -0.2627
  906MOL0     C22239   4.719   5.587   5.289 -1.1915  0.5045 -0.4517
  906MOL0     C22240   4.058   5.946   5.239  0.6799  0.6023  0.7712
  906MOL0     C22241   3.968   6.023   5.165  0.4819 -0.2418 -0.2829
  906MOL0     C22242   3.885   5.939   5.071  1.0369  0.8917 -0.2763
  906MOL0     H22243   3.814   6.567   5.222  0.5302 -2.5130 -0.7244
  906MOL0     H22244   3.625   6.747   5.194 -3.1331  0.2730  0.1647
  906MOL0     H22245   3.286   6.726   5.284  1.6190 -1.6888  2.0309
  906MOL0     H22246   3.432   6.822   5.269 -2.1633 -3.3472  4.7965
  906MOL0     H22247   3.205   6.944   5.228 -2.1021 -0.3811 -0.1409
  906MOL0     H22248   3.161   6.831   5.102  0.2449 -1.8817  0.2702
  906MOL0     H22249   3.369   6.910   4.968  5.5003  2.2836  1.8944
  906MOL0     H22250   3.378   7.051   5.081 -0.8891  3.4711 -1.7222
  906MOL0     H22251   3.137   6.973   4.919  1.6999  1.6880 -3.6322
  906MOL0     H22252   3.131   7.094   5.041 -0.1402 -0.6317  0.8887
  906MOL0     H22253   3.311   7.221   4.886  0.4208  0.5247 -0.3307
  906MOL0     H22254   3.311   7.087   4.778  1.3992 -0.0097  0.9767
  906MOL0     H22255   3.082   7.109   4.733  0.9528 -0.9262  0.3505
  906MOL0     H22256   3.054   7.249   4.848  0.6460  0.3962  0.3494
  906MOL0     H22257   3.087   7.266   4.583  1.2361 -0.4151 -0.3644
  906MOL0     H22258   3.252   7.286   4.630 -0.1836 -1.7922  0.6003
  906MOL0     H22259   3.141   7.479   4.601  3.5277 -0.5761  0.0043
  906MOL0     H22260   3.037   7.443   4.748 -0.7399 -3.9150 -0.3676
  906MOL0     H22261   3.136   7.679   4.855  1.7986  4.8832  1.5485
  906MOL0     H22262   3.319   7.804   5.015 -1.9156 -2.8042 -1.4922
  906MOL0     H22263   3.493   7.778   4.971 -0.3937  0.7187  0.4097
  906MOL0     H22264   3.307   7.906   4.766  0.2814 -1.2401 -0.4977
  906MOL0     H22265   3.383   8.006   4.895  1.2223 -0.1879  0.4623
  906MOL0     H22266   3.555   7.817   4.693  2.3629  1.7627 -1.8133
  906MOL0     H22267   3.606   7.896   4.829 -0.9579  0.1368  1.2504
  906MOL0     H22268   3.500   8.007   4.572  0.0857 -1.7517  0.4870
  906MOL0     H22269   3.651   8.020   4.642 -0.0882  1.4899  0.0032
  906MOL0     H22270   3.600   8.199   4.497 -0.0876  0.6728 -1.5938
  906MOL0     H22271   3.523   8.395   4.358 -0.4134  2.8724 -0.1767
  906MOL0     H22272   3.271   8.884   4.354 -0.2798 -0.0151  0.2848
  906MOL0     H22273   3.180   9.010   4.175  2.1356  0.9902  1.4261
  906MOL0     H22274   2.999   9.012   4.053  0.4180  0.3940  0.8355
  906MOL0     H22275   2.969   9.043   3.887  1.7942  0.5194  1.3123
  906MOL0     H22276   2.894   8.818   3.831  1.8184 -0.4904  0.5930
  906MOL0     H22277   2.942   8.762   3.990 -0.0864 -0.9207 -1.9498
  906MOL0     H22278   2.760   8.999   3.963  1.3919 -1.5090 -3.3842
  906MOL0     H22279   2.681   8.843   3.932 -0.8653  1.2815 -0.7786
  906MOL0     H22280   2.833   8.919   4.199  2.8285 -2.7978 -0.3927
  906MOL0     H22281   2.765   8.761   4.162  0.2956  0.3907  1.8565
  906MOL0     H22282   2.595   9.011   4.147 -1.3970  1.3248  1.7530
  906MOL0     H22283   2.644   8.953   4.309  0.4633  2.6292 -1.8572
  906MOL0     H22284   2.502   8.774   4.102  0.5975 -1.9038  1.2025
  906MOL0     H22285   2.515   8.748   4.272  0.8900  0.1244 -1.4407
  906MOL0     H22286   2.380   9.008   4.254 -3.5358 -0.8713  0.8806
  906MOL0     H22287   2.298   8.863   4.293  1.9155 -2.7161  1.7356
  906MOL0     H22288   2.365   8.951   4.017  0.1332  0.1385 -0.4864
  906MOL0     H22289   2.255   8.820   4.060  2.0415  0.1936 -0.8693
  906MOL0     H22290   3.298   8.727   3.885  0.4313 -0.7257  0.4866
  906MOL0     H22291   3.380   8.578   4.056  1.9540  0.8385 -1.0098
  906MOL0     H22292   3.275   8.529   4.677  2.4063  0.1944  2.5124
  906MOL0     H22293   3.316   8.329   4.797 -0.0192  0.7398  0.1617
  906MOL0     H22294   3.375   6.440   5.057 -1.4776  1.6349  1.7765
  906MOL0     H22295   3.567   6.260   5.103 -2.7478  0.1566  1.8560
  906MOL0     H22296   4.020   6.313   5.326  2.3767 -0.3762  0.4588
  906MOL0     H22297   4.174   6.182   5.446 -0.3689  1.4270 -1.2545
  906MOL0     H22298   4.235   6.018   5.594 -0.7068  0.8567 -0.6509
  906MOL0     H22299   4.352   6.046   5.467  0.5028  1.5978  1.7573
  906MOL0     H22300   4.323   5.766   5.589  0.4991 -1.0880 -2.2924
  906MOL0     H22301   4.434   5.891   5.646  0.1024  3.3731 -1.9615
  906MOL0     H22302   4.547   5.894   5.424  1.7072 -0.4036  1.1419
  906MOL0     H22303   4.419   5.771   5.368  0.2581 -3.3985  0.7285
  906MOL0     H22304   4.623   5.711   5.558 -0.3399 -0.8210 -0.0730
  906MOL0     H22305   4.498   5.596   5.514  0.7711  0.6445  3.8399
  906MOL0     H22306   4.793   5.546   5.223 -0.3984  3.1632 -1.3210
  906MOL0     H22307   4.072   5.844   5.203 -1.5284 -0.1275  1.7955
  906MOL0     H22308   3.917   5.963   4.970 -2.1296  0.3730 -1.5201
  906MOL0     H22309   3.892   5.834   5.098  2.9039  0.9800 -0.3333
  906MOL0     H22310   3.778   5.964   5.080  0.5228 -1.7847  2.8797
  907MOL0     O22311   0.260   1.582   3.131  0.7986 -0.9175  0.1356
  907MOL0     C22312   0.362   1.619   3.193 -0.0600 -0.6563  0.7325
  907MOL0     O22313   0.460   1.698   3.143  0.1258  1.0088  0.0379
  907MOL0     C22314   0.495   1.683   3.008  0.2432  0.3207 -0.3921
  907MOL0     C22315   0.508   1.558   2.944 -0.3659  0.2400  0.5987
  907MOL0     C22316   0.527   1.554   2.801 -0.9277 -0.3172  0.2318
  907MOL0     C22317   0.530   1.677   2.731 -1.1539  0.8926  0.3489
  907MOL0     O22318   0.534   1.695   2.591 -0.0284 -0.3170  0.0974
  907MOL0     C22319   0.487   1.585   2.512  0.7692 -0.3025  0.6017
  907MOL0     C22320   0.491   1.638   2.367  1.5948 -0.0981 -0.3236
  907MOL0     C22321   0.632   1.692   2.339 -0.5471  0.3534  0.3442
  907MOL0     C22322   0.640   1.730   2.185 -0.3190  0.0716 -0.0943
  907MOL0     C22323   0.793   1.773   2.155  0.2790 -0.5659  0.1745
  907MOL0     C22324   0.886   1.653   2.152  0.4830  0.5592  1.1423
  907MOL0     C22325   0.862   1.560   2.020  0.2886  0.6989 -0.8290
  907MOL0     C22326   0.983   1.471   1.981  0.3089  0.5626 -0.1890
  907MOL0     N22327   1.021   1.393   2.104 -0.3412  1.0347  0.3276
  907MOL0     C22328   1.120   1.439   2.183 -0.6172  0.5335  0.4361
  907MOL0     C22329   1.124   1.340   2.277  0.7949  0.5401 -0.6481
  907MOL0     C22330   1.214   1.346   2.402  0.3076  0.2200 -0.3898
  907MOL0     C22331   1.161   1.439   2.514 -0.0540 -0.2481  0.0657
  907MOL0     C22332   1.063   1.363   2.601 -0.3591 -0.4605  0.0331
  907MOL0     C22333   0.988   1.447   2.700  0.2348  0.5220  0.1589
  907MOL0     O22334   0.931   1.360   2.797 -0.0204  0.2374 -0.4102
  907MOL0     C22335   0.918   1.418   2.917 -0.1169 -1.1445  0.5288
  907MOL0     C22336   0.857   1.544   2.944 -0.5225  0.3166  0.4366
  907MOL0     C22337   0.859   1.600   3.068 -0.1588 -0.9743  0.8097
  907MOL0     C22338   0.925   1.539   3.176  0.1249  0.1074  0.0088
  907MOL0     C22339   0.938   1.602   3.306 -0.8733 -0.6455  0.0513
  907MOL0     O22340   0.968   1.512   3.410 -0.1939  0.3469  0.2259
  907MOL0     C22341   0.945   1.549   3.539 -0.2194 -0.6258  0.6653
  907MOL0     C22342   1.040   1.499   3.635  1.6775 -0.9338  0.8365
  907MOL0     C22343   1.026   1.547   3.760  0.4245  0.9601 -0.8229
  907MOL0     C22344   0.913   1.622   3.812 -0.6868  0.2575  0.6804
  907MOL0     O22345   0.913   1.646   3.941 -0.2638  0.1587 -0.0805
  907MOL0     C22346   0.795   1.713   3.997  0.1141 -0.3233 -0.1872
  907MOL0     C22347   0.820   1.744   4.144  0.7111  0.5817  0.1153
  907MOL0     C22348   0.710   1.823   4.213 -0.9644  0.1823  0.4789
  907MOL0     C22349   0.572   1.759   4.199  0.2902 -1.0774  0.1362
  907MOL0     C22350   0.476   1.825   4.304 -1.1964 -0.4851  0.0490
  907MOL0     C22351   0.446   1.979   4.301  0.1386 -0.0909  0.5478
  907MOL0     C22352   0.360   2.021   4.416 -0.2165  0.5720  0.3735
  907MOL0     C22353   0.311   2.163   4.409 -1.2603  0.3280 -0.6396
  907MOL0    Cl22354   0.437   2.277   4.385 -0.4519  0.0036 -0.2268
  907MOL0     C22355   0.825   1.670   3.719 -0.0801  0.1629 -0.8512
  907MOL0     C22356   0.835   1.633   3.580 -0.9726 -0.0398  0.0476
  907MOL0     O22357   0.927   1.723   3.320  0.3281 -0.1878  0.4545
  907MOL0     C22358   0.977   1.408   3.152 -0.2626 -0.0952  0.1124
  907MOL0     C22359   0.976   1.353   3.023 -0.7051 -0.8775  1.1403
  907MOL0     N22360   1.024   1.249   2.259  0.4819 -0.2960 -0.6905
  907MOL0     N22361   0.964   1.277   2.148 -0.5956  0.1955 -0.3092
  907MOL0     C22362   0.513   1.796   2.801  0.4206  0.5663  0.0543
  907MOL0     C22363   0.494   1.801   2.937 -0.4464 -0.9005  0.6047
  907MOL0     C22364   0.375   1.569   3.332 -1.2049 -0.9403 -0.5653
  907MOL0     C22365   0.507   1.556   3.377  0.1521  1.1653  0.2009
  907MOL0     C22366   0.534   1.499   3.499  0.2811  1.0667 -0.3832
  907MOL0     C22367   0.431   1.454   3.581  0.1027  0.0350 -0.3523
  907MOL0     O22368   0.443   1.396   3.705  0.1908  0.0448  0.1711
  907MOL0     C22369   0.566   1.396   3.767  0.8598  0.6853 -0.6362
  907MOL0     C22370   0.555   1.341   3.912 -0.6879 -0.2869  0.4549
  907MOL0     C22371   0.482   1.438   4.003 -0.2569 -0.2563 -0.1524
  907MOL0     C22372   0.466   1.385   4.143  0.9959  0.2585  0.2200
  907MOL0     C22373   0.388   1.261   4.151 -0.0796  0.1743  0.5582
  907MOL0     C22374   0.316   1.165   4.155  1.0255 -1.1287  0.0365
  907MOL0     C22375   0.295   1.467   3.538 -0.3989 -0.3535  0.1576
  907MOL0     C22376   0.268   1.533   3.422  0.3901 -0.4421 -0.0959
  907MOL0     C22377   0.122   1.554   3.386  0.5149 -0.3078 -0.9281
  907MOL0     H22378   0.502   1.465   2.999  0.6732  1.4418  2.8963
  907MOL0     H22379   0.547   1.461   2.751 -1.1190 -0.1158 -0.2272
  907MOL0     H22380   0.540   1.489   2.516 -1.4300 -1.5665  1.1300
  907MOL0     H22381   0.383   1.558   2.532  0.7092 -0.0902  0.5790
  907MOL0     H22382   0.414   1.712   2.342  1.7765  0.0624 -0.4070
  907MOL0     H22383   0.465   1.564   2.290 -3.6769  0.4333  0.5794
  907MOL0     H22384   0.710   1.618   2.359  1.8694  1.3269 -4.0174
  907MOL0     H22385   0.662   1.785   2.389  1.5678 -0.2907  0.3650
  907MOL0     H22386   0.604   1.641   2.133 -1.2808  0.3161  0.1306
  907MOL0     H22387   0.569   1.807   2.156  1.3903  0.4616 -3.8215
  907MOL0     H22388   0.787   1.825   2.059  1.8328 -4.0208 -1.9614
  907MOL0     H22389   0.833   1.848   2.224 -0.1906 -0.4587  0.3371
  907MOL0     H22390   0.992   1.680   2.143  1.1763 -2.3018 -0.8582
  907MOL0     H22391   0.876   1.594   2.244 -1.2514 -2.8443 -1.0255
  907MOL0     H22392   0.824   1.623   1.939 -2.8620 -1.7170 -1.3961
  907MOL0     H22393   0.775   1.497   2.041 -1.6327  3.2184 -0.7357
  907MOL0     H22394   0.952   1.392   1.912 -1.8570  1.7801 -0.7019
  907MOL0     H22395   1.062   1.524   1.927  0.0863  0.1034 -0.9802
  907MOL0     H22396   1.189   1.521   2.169 -2.4287  1.9252 -0.7553
  907MOL0     H22397   1.220   1.241   2.431 -0.0126 -0.3071 -2.1450
  907MOL0     H22398   1.308   1.385   2.362  1.4540 -1.3947  0.6207
  907MOL0     H22399   1.250   1.467   2.572  0.9798 -2.2084 -0.4912
  907MOL0     H22400   1.123   1.524   2.456  1.4300  0.8803  0.6579
  907MOL0     H22401   1.123   1.293   2.660 -3.6015 -3.1848  0.3692
  907MOL0     H22402   0.995   1.303   2.540  0.7421  0.1650 -1.8951
  907MOL0     H22403   0.903   1.496   2.652 -1.1073 -1.1102  0.7856
  907MOL0     H22404   1.063   1.512   2.746  0.9583  1.0332 -1.6749
  907MOL0     H22405   0.802   1.587   2.861 -1.7438 -1.2484  0.3889
  907MOL0     H22406   0.804   1.689   3.093  1.6199  0.2348  0.6146
  907MOL0     H22407   1.115   1.427   3.604  0.2295 -1.9642 -0.4736
  907MOL0     H22408   1.108   1.527   3.828 -0.0390 -1.2751 -0.8740
  907MOL0     H22409   0.784   1.809   3.946  1.6552  1.8827  3.2491
  907MOL0     H22410   0.709   1.648   3.982  0.0844 -1.1991  2.9384
  907MOL0     H22411   0.837   1.644   4.185 -0.7225  1.2416  2.5187
  907MOL0     H22412   0.909   1.807   4.138 -0.6456  2.4798 -2.0103
  907MOL0     H22413   0.737   1.834   4.318 -3.0826 -0.2570  1.1243
  907MOL0     H22414   0.703   1.918   4.157 -0.1348  0.1770  0.3492
  907MOL0     H22415   0.574   1.654   4.230 -1.5925 -0.3809  2.8869
  907MOL0     H22416   0.529   1.777   4.100 -0.0943  1.4510  0.7013
  907MOL0     H22417   0.529   1.807   4.399  0.5556 -2.7010 -1.2487
  907MOL0     H22418   0.388   1.763   4.286 -1.5979 -0.5566  2.0354
  907MOL0     H22419   0.542   2.033   4.305  0.8959 -1.0483 -2.2761
  907MOL0     H22420   0.378   1.998   4.218 -0.2670  2.5033  1.3869
  907MOL0     H22421   0.408   2.000   4.513  0.8687 -0.7043 -0.3958
  907MOL0     H22422   0.274   1.954   4.412 -1.7583  2.4417  0.7513
  907MOL0     H22423   0.232   2.164   4.334 -1.5949 -4.0063 -0.5673
  907MOL0     H22424   0.266   2.180   4.507 -3.2064 -0.7978 -1.2909
  907MOL0     H22425   0.753   1.745   3.750 -0.4981 -1.1361  1.6035
  907MOL0     H22426   0.777   1.685   3.505 -0.8307  1.7855  1.1298
  907MOL0     H22427   1.034   1.360   3.230  2.6543  0.9673 -1.2143
  907MOL0     H22428   1.025   1.259   3.000 -1.9386 -0.9098 -1.6646
  907MOL0     H22429   0.508   1.885   2.739  0.7008  1.7718  1.6868
  907MOL0     H22430   0.464   1.895   2.983 -0.5443 -1.2999  1.3557
  907MOL0     H22431   0.602   1.585   3.335  0.2025  1.7429  0.6972
  907MOL0     H22432   0.636   1.484   3.532  0.4104  0.9703 -0.8132
  907MOL0     H22433   0.605   1.498   3.771 -0.6067  1.2469  2.8468
  907MOL0     H22434   0.625   1.330   3.703 -1.0016 -0.6082 -1.0850
  907MOL0     H22435   0.658   1.340   3.949  0.5623  0.3063 -2.6089
  907MOL0     H22436   0.518   1.238   3.908 -2.9550  0.4913 -0.6311
  907MOL0     H22437   0.390   1.464   3.949  1.1934  0.6839 -2.2760
  907MOL0     H22438   0.544   1.527   4.003 -2.3970  1.3804  2.0719
  907MOL0     H22439   0.553   1.378   4.209  2.4014  6.9114 -0.1571
  907MOL0     H22440   0.417   1.472   4.187  0.8603 -0.3048  1.2099
  907MOL0     H22441   0.242   1.089   4.144  0.4394 -0.6094  0.3331
  907MOL0     H22442   0.216   1.437   3.607  1.6055  0.6951  3.1083
  907MOL0     H22443   0.114   1.612   3.294 -0.7342 -1.3303 -1.5016
  907MOL0     H22444   0.076   1.462   3.348 -0.7507  0.4572 -1.3089
  907MOL0     H22445   0.068   1.585   3.476  2.3280 -3.1294  1.3122
  908MOL0     O22446   0.670   0.086   1.563  0.4054  0.2922 -1.2170
  908MOL0     C22447   0.717   0.017   1.651 -0.0470 -0.0940  0.6141
  908MOL0     O22448   0.693  -0.108   1.680 -0.0286 -0.0852  0.1425
  908MOL0     C22449   0.630  -0.184   1.578 -0.4115 -0.1469  0.3633
  908MOL0     C22450   0.505  -0.236   1.593 -0.9893  0.2690  0.6959
  908MOL0     C22451   0.467  -0.338   1.512  0.0263 -0.6768  0.5211
  908MOL0     C22452   0.542  -0.376   1.399 -0.4597  0.0619  0.3971
  908MOL0     O22453   0.486  -0.481   1.329  0.0522 -0.3204 -0.0526
  908MOL0     C22454   0.555  -0.609   1.342 -0.1068  0.4262 -0.5201
  908MOL0     C22455   0.501  -0.675   1.469  0.0361 -0.4119  0.3267
  908MOL0     C22456   0.364  -0.746   1.443  0.3174  0.7071  0.9716
  908MOL0     C22457   0.246  -0.650   1.419  1.0131  0.0039  0.3213
  908MOL0     C22458   0.106  -0.710   1.444  0.1369 -0.5419 -0.8064
  908MOL0     C22459   0.094  -0.797   1.564  0.3104  1.3309 -0.8527
  908MOL0     C22460  -0.048  -0.847   1.585 -0.0713  0.6604 -0.2852
  908MOL0     C22461  -0.159  -0.741   1.591  0.1583  0.6352 -0.1933
  908MOL0     N22462  -0.147  -0.648   1.708 -0.1736  0.1716 -0.5024
  908MOL0     C22463  -0.061  -0.550   1.715 -0.7562  0.1968  0.6487
  908MOL0     C22464  -0.085  -0.488   1.838  0.3609  0.5847  0.6313
  908MOL0     C22465  -0.033  -0.357   1.877  0.2184  0.2131  0.1648
  908MOL0     C22466  -0.005  -0.364   2.029 -0.1514  0.7613 -1.7323
  908MOL0     C22467   0.079  -0.240   2.072 -0.1788  0.1474  0.2587
  908MOL0     C22468   0.080  -0.201   2.219 -0.8717  0.4231  0.1901
  908MOL0     O22469  -0.048  -0.187   2.286  0.1478 -0.2459 -0.5543
  908MOL0     C22470  -0.086  -0.065   2.339 -0.3615  0.4277  0.3712
  908MOL0     C22471   0.000   0.007   2.421 -0.5205  0.6669  0.1040
  908MOL0     C22472  -0.038   0.129   2.471 -0.6955 -0.3414  0.7863
  908MOL0     C22473  -0.167   0.182   2.437 -0.9412  0.8007 -0.4215
  908MOL0     C22474  -0.207   0.313   2.489 -1.2921 -0.1396  0.0607
  908MOL0     O22475  -0.113   0.371   2.574 -0.0018  0.2691  0.3231
  908MOL0     C22476  -0.153   0.482   2.635 -0.0426  0.7411  0.1647
  908MOL0     C22477  -0.228   0.470   2.754  0.3216  0.5330  1.1657
  908MOL0     C22478  -0.278   0.583   2.817 -0.0063 -0.1919 -0.3844
  908MOL0     C22479  -0.230   0.709   2.784 -0.1710 -0.1865  0.2953
  908MOL0     O22480  -0.284   0.823   2.844 -0.5965  0.4613  0.4828
  908MOL0     C22481  -0.309   0.810   2.986  0.3153 -0.4451  0.1931
  908MOL0     C22482  -0.321   0.950   3.045 -0.2352 -0.3101 -0.1573
  908MOL0     C22483  -0.406   1.059   2.986 -0.1073  0.3422 -0.5027
  908MOL0     C22484  -0.558   1.019   2.980 -0.0002  0.9446  0.2031
  908MOL0     C22485  -0.671   1.123   2.962  0.1553  0.3282 -0.2353
  908MOL0     C22486  -0.646   1.197   2.831 -0.3942 -0.1228  0.0542
  908MOL0     C22487  -0.724   1.336   2.828 -1.0029  0.3307  0.3609
  908MOL0     C22488  -0.707   1.398   2.687 -0.0573 -0.4652 -0.5376
  908MOL0    Cl22489  -0.733   1.578   2.687 -0.3762  0.2521 -0.4353
  908MOL0     C22490  -0.142   0.720   2.674  0.3688  0.0396 -0.8097
  908MOL0     C22491  -0.112   0.601   2.604  0.4950 -0.6033  0.5814
  908MOL0     O22492  -0.307   0.363   2.453  0.2476  0.1671 -0.5957
  908MOL0     C22493  -0.255   0.102   2.360 -0.0957 -0.6415  0.0941
  908MOL0     C22494  -0.208  -0.017   2.303  0.7373 -0.4797 -0.1270
  908MOL0     N22495  -0.198  -0.560   1.894  0.7422 -0.2000  0.4528
  908MOL0     N22496  -0.225  -0.655   1.811 -0.9353 -0.7451  0.2819
  908MOL0     C22497   0.667  -0.319   1.376 -0.2782 -0.4660 -0.7418
  908MOL0     C22498   0.710  -0.217   1.464  0.8220  0.1525 -0.1128
  908MOL0     C22499   0.799   0.092   1.759 -0.7044  0.4038  0.3211
  908MOL0     C22500   0.854   0.010   1.862 -0.1043  0.6263  0.8036
  908MOL0     C22501   0.909   0.053   1.974  0.7884 -1.1524 -0.0847
  908MOL0     C22502   0.933   0.192   1.977 -0.5242 -0.5983 -1.3613
  908MOL0     O22503   0.993   0.256   2.084  0.3784 -0.6584  0.0528
  908MOL0     C22504   1.038   0.184   2.199  0.8724  0.0989  1.4835
  908MOL0     C22505   0.939   0.236   2.309  0.1333  0.9627 -0.8460
  908MOL0     C22506   1.004   0.239   2.445 -0.2892 -0.8315  0.0108
  908MOL0     C22507   0.921   0.309   2.552 -0.5243 -0.7477  0.7688
  908MOL0     C22508   0.946   0.247   2.685 -0.1736 -0.3434 -0.3294
  908MOL0     C22509   0.959   0.197   2.795  0.0347  0.3262  0.0118
  908MOL0     C22510   0.887   0.277   1.874 -0.2303 -0.8356 -1.0547
  908MOL0     C22511   0.824   0.228   1.766  0.6342  0.2143 -0.3410
  908MOL0     C22512   0.774   0.326   1.654 -1.1704  0.3263  0.7680
  908MOL0     H22513   0.443  -0.210   1.679  0.4079 -0.5021  1.9773
  908MOL0     H22514   0.370  -0.386   1.519 -0.5842  0.5303  0.6304
  908MOL0     H22515   0.522  -0.681   1.266 -0.3403 -0.8636  0.7633
  908MOL0     H22516   0.665  -0.603   1.344 -0.0343 -0.6359 -0.6169
  908MOL0     H22517   0.487  -0.595   1.542  2.6103  1.3558 -0.9578
  908MOL0     H22518   0.562  -0.755   1.511 -2.1289 -2.6372 -0.5047
  908MOL0     H22519   0.346  -0.814   1.527  0.6420  0.8455  1.1551
  908MOL0     H22520   0.372  -0.804   1.351 -0.8520  0.5348  0.9649
  908MOL0     H22521   0.251  -0.564   1.486 -0.9849 -0.5145  1.2130
  908MOL0     H22522   0.257  -0.596   1.324 -0.1530  2.4938  1.5008
  908MOL0     H22523   0.032  -0.629   1.442 -0.8391 -1.2812  1.7787
  908MOL0     H22524   0.074  -0.784   1.370 -0.1866 -2.2318  0.9223
  908MOL0     H22525   0.151  -0.888   1.542 -0.2306  1.0130 -0.9758
  908MOL0     H22526   0.134  -0.754   1.656  2.4795  0.8149 -1.4993
  908MOL0     H22527  -0.062  -0.897   1.681  0.3943  0.0980 -0.5076
  908MOL0     H22528  -0.080  -0.919   1.509 -2.4254 -1.7004  2.6656
  908MOL0     H22529  -0.159  -0.677   1.502 -1.7722 -0.1779 -0.8395
  908MOL0     H22530  -0.254  -0.792   1.607  0.5213  0.4209  1.5524
  908MOL0     H22531   0.008  -0.531   1.634  0.6277 -1.7734  1.2970
  908MOL0     H22532   0.048  -0.319   1.814 -2.0460  2.0258 -1.8533
  908MOL0     H22533  -0.120  -0.291   1.868 -4.2985 -5.1128 -0.8001
  908MOL0     H22534  -0.100  -0.358   2.083  0.6577  0.7107 -0.2567
  908MOL0     H22535   0.048  -0.457   2.050 -1.4305  0.6412  1.6485
  908MOL0     H22536   0.038  -0.149   2.028  0.3861  0.7347  0.9273
  908MOL0     H22537   0.173  -0.243   2.016 -1.4968 -2.3715 -2.0833
  908MOL0     H22538   0.145  -0.113   2.230  0.5613 -0.2396 -2.1573
  908MOL0     H22539   0.135  -0.282   2.269 -0.9280 -0.8518 -1.7101
  908MOL0     H22540   0.086  -0.046   2.463 -1.6979 -0.5550  1.0741
  908MOL0     H22541   0.037   0.188   2.523 -0.6219  0.0432  0.2525
  908MOL0     H22542  -0.266   0.371   2.778  0.5027 -0.6231 -2.7534
  908MOL0     H22543  -0.349   0.584   2.899  0.8453  1.9586  0.4028
  908MOL0     H22544  -0.400   0.754   3.010 -2.2043  3.0744 -0.4035
  908MOL0     H22545  -0.224   0.760   3.034  2.0956  1.7862 -0.4935
  908MOL0     H22546  -0.351   0.931   3.148  1.3881 -1.4889  0.1290
  908MOL0     H22547  -0.217   0.983   3.049  0.5993 -2.7618 -0.0676
  908MOL0     H22548  -0.383   1.151   3.042  1.9694  0.4478 -1.4083
  908MOL0     H22549  -0.358   1.082   2.890  3.7949 -2.4843  0.5021
  908MOL0     H22550  -0.572   0.955   3.068  4.2315  1.5504  1.5540
  908MOL0     H22551  -0.561   0.941   2.903 -1.1489 -0.5685  1.6980
  908MOL0     H22552  -0.665   1.198   3.042  1.2375  1.4467 -1.3169
  908MOL0     H22553  -0.765   1.070   2.980  0.8607 -1.1489 -0.7358
  908MOL0     H22554  -0.540   1.211   2.809 -0.0358 -0.6931  1.3441
  908MOL0     H22555  -0.682   1.125   2.757 -0.9569 -1.0784  1.2296
  908MOL0     H22556  -0.670   1.393   2.904  1.9962 -0.9866 -0.6185
  908MOL0     H22557  -0.831   1.329   2.846 -1.4724 -1.2733 -2.4802
  908MOL0     H22558  -0.607   1.389   2.644  0.6911 -1.3205  1.2774
  908MOL0     H22559  -0.780   1.354   2.619 -1.8522  0.6245  0.6100
  908MOL0     H22560  -0.119   0.818   2.635  2.6341  0.3044  0.9862
  908MOL0     H22561  -0.051   0.606   2.514 -1.1877 -0.3070 -0.5910
  908MOL0     H22562  -0.355   0.146   2.359  1.6231  3.8212  0.4151
  908MOL0     H22563  -0.271  -0.069   2.231 -1.6669 -0.4484  1.8345
  908MOL0     H22564   0.730  -0.371   1.304 -3.4100 -4.4551 -1.0019
  908MOL0     H22565   0.814  -0.186   1.458  0.7413  0.5314  0.3877
  908MOL0     H22566   0.846  -0.098   1.858 -2.7100  0.7603  0.2680
  908MOL0     H22567   0.925  -0.015   2.057 -0.6513  2.8603  3.8892
  908MOL0     H22568   1.143   0.212   2.205  0.9951 -0.0551  0.3054
  908MOL0     H22569   1.038   0.075   2.193 -0.4052  0.1270  0.5205
  908MOL0     H22570   0.859   0.162   2.305  0.2535  0.8785 -1.9844
  908MOL0     H22571   0.891   0.333   2.295 -4.0501 -0.5556  1.2830
  908MOL0     H22572   1.101   0.289   2.437 -0.0961 -1.3882 -1.3635
  908MOL0     H22573   1.028   0.140   2.487  1.7074 -0.6847 -0.6593
  908MOL0     H22574   0.957   0.412   2.553  1.0491 -1.2299 -0.9734
  908MOL0     H22575   0.816   0.319   2.522  0.5199  0.8425 -2.8928
  908MOL0     H22576   0.996   0.162   2.889 -0.4072  0.3378  0.1929
  908MOL0     H22577   0.895   0.384   1.887  2.4878 -0.8857 -1.7302
  908MOL0     H22578   0.816   0.298   1.556 -3.7148  1.6818 -0.8096
  908MOL0     H22579   0.665   0.315   1.649 -1.1579  0.5016  0.0082
  908MOL0     H22580   0.813   0.427   1.664  0.0955  0.2369 -2.1890
  909MOL0     O22581  10.261   9.148   7.261 -0.1696  0.1183  0.0109
  909MOL0     C22582  10.316   9.117   7.157 -0.5022  0.3471  0.8367
  909MOL0     O22583  10.268   9.140   7.028  0.1392 -0.1891 -0.2141
  909MOL0     C22584  10.157   9.209   6.990 -0.1318  0.2430  0.0038
  909MOL0     C22585  10.153   9.255   6.860 -0.2091  0.1658 -0.0445
  909MOL0     C22586  10.039   9.333   6.817 -0.3370  0.0998 -0.9193
  909MOL0     C22587   9.934   9.372   6.897  0.4797  0.4022 -0.5558
  909MOL0     O22588   9.837   9.458   6.839 -0.8098  0.7981 -0.4105
  909MOL0     C22589   9.703   9.424   6.876  0.1451  0.7547  0.1937
  909MOL0     C22590   9.671   9.280   6.847  0.5729 -0.1620  0.1780
  909MOL0     C22591   9.527   9.244   6.866 -0.8906  0.7080  0.7010
  909MOL0     C22592   9.500   9.091   6.854  1.0483 -0.1643 -0.3265
  909MOL0     C22593   9.348   9.056   6.871 -0.2391  0.1931 -0.5597
  909MOL0     C22594   9.332   8.905   6.901 -0.0848 -0.5108 -0.1064
  909MOL0     C22595   9.189   8.873   6.935 -0.5360 -0.1199  0.5605
  909MOL0     C22596   9.149   8.749   6.860 -0.6527 -1.1777 -0.0732
  909MOL0     N22597   9.053   8.796   6.756  0.0151  0.3429  0.5153
  909MOL0     C22598   8.915   8.782   6.757 -0.8325 -0.8359 -0.1498
  909MOL0     C22599   8.876   8.838   6.635  0.0815 -0.5998  0.6004
  909MOL0     C22600   8.745   8.835   6.561 -0.4697 -0.0117 -0.5421
  909MOL0     C22601   8.690   8.690   6.554 -0.0358  0.6246  0.4592
  909MOL0     C22602   8.535   8.691   6.517 -0.6506 -0.1986  0.6945
  909MOL0     C22603   8.504   8.756   6.379 -0.9379  0.1055 -0.1254
  909MOL0     O22604   8.386   8.714   6.321  0.0130  1.0454  0.1038
  909MOL0     C22605   8.270   8.773   6.373  0.3477 -1.2596  0.7868
  909MOL0     C22606   8.223   8.893   6.314  0.3321  0.1548  0.3178
  909MOL0     C22607   8.098   8.942   6.345 -0.3255 -0.4721 -0.5540
  909MOL0     C22608   8.030   8.882   6.449 -0.2891  0.4642  0.8042
  909MOL0     C22609   7.893   8.926   6.467 -1.1493 -0.1600 -0.0049
  909MOL0     O22610   7.823   9.001   6.377  0.5831 -0.2788  0.2610
  909MOL0     C22611   7.681   8.989   6.387  0.1202 -0.2809  0.7126
  909MOL0     C22612   7.610   9.087   6.448  0.3433  0.2912  0.0326
  909MOL0     C22613   7.469   9.067   6.458 -1.3727 -0.2301 -0.1401
  909MOL0     C22614   7.407   8.955   6.410  0.2978  0.4868 -0.1413
  909MOL0     O22615   7.281   8.920   6.447  0.6686 -0.1151 -0.0395
  909MOL0     C22616   7.180   8.874   6.355 -0.3532 -0.1027  0.0866
  909MOL0     C22617   7.046   8.903   6.414 -0.6953 -0.2693  0.1338
  909MOL0     C22618   7.049   9.036   6.493  0.0603  0.2431 -1.0904
  909MOL0     C22619   7.064   9.144   6.394 -0.5104 -0.8266  0.1813
  909MOL0     C22620   7.052   9.270   6.482 -1.6732  0.2165  0.2602
  909MOL0     C22621   7.091   9.398   6.397 -0.1719  0.4479 -0.5093
  909MOL0     C22622   6.968   9.470   6.341  0.6084  0.0870 -0.0565
  909MOL0     C22623   6.869   9.534   6.439  0.3070 -0.3395  0.1863
  909MOL0    Cl22624   6.965   9.631   6.560  0.2515  0.1359 -0.3699
  909MOL0     C22625   7.471   8.862   6.332  0.4390  0.1497  0.2266
  909MOL0     C22626   7.608   8.887   6.316  0.2731  0.0860 -0.0432
  909MOL0     O22627   7.851   8.901   6.586  0.7438  0.5355  0.4216
  909MOL0     C22628   8.083   8.768   6.519  0.1804 -0.3239  0.2297
  909MOL0     C22629   8.208   8.714   6.482  0.2715  0.2521 -0.6548
  909MOL0     N22630   8.989   8.889   6.576 -0.2677  0.7293 -0.4802
  909MOL0     N22631   9.090   8.847   6.635 -0.1249 -0.1516 -0.0715
  909MOL0     C22632   9.944   9.323   7.029  0.4273 -1.7212  0.7871
  909MOL0     C22633  10.050   9.242   7.079  0.7130 -0.3697  0.6321
  909MOL0     C22634  10.456   9.066   7.171  0.8058  0.4567  0.2122
  909MOL0     C22635  10.532   9.088   7.293  0.2701  0.3055  0.0961
  909MOL0     C22636  10.661   9.032   7.309  0.8257 -0.4823 -0.8427
  909MOL0     C22637  10.723   8.980   7.196  0.9173 -0.5558 -0.3830
  909MOL0     O22638  10.854   8.940   7.199 -1.2149  0.4474  0.5516
  909MOL0     C22639  10.943   8.933   7.313 -0.1510  0.4926 -0.3939
  909MOL0     C22640  11.044   8.825   7.279  0.4253  0.3544  0.0737
  909MOL0     C22641  11.142   8.793   7.400 -0.1367 -0.3763 -0.3167
  909MOL0     C22642  11.181   8.650   7.419  0.0464 -0.3868 -0.4277
  909MOL0     C22643  11.057   8.561   7.431 -0.5637 -0.2911 -0.8227
  909MOL0     C22644  10.975   8.472   7.452  0.0313  0.1872  0.3962
  909MOL0     C22645  10.651   8.961   7.080  0.3363  0.2667  0.5089
  909MOL0     C22646  10.521   9.002   7.067  0.0406  0.5941  0.2507
  909MOL0     C22647  10.455   8.969   6.931 -0.6790 -0.6923 -0.0421
  909MOL0     H22648  10.234   9.240   6.789  1.2344  0.8952  1.3778
  909MOL0     H22649  10.030   9.367   6.715 -1.1267  2.4628 -0.1252
  909MOL0     H22650   9.680   9.446   6.981  1.5231  1.7686  0.3174
  909MOL0     H22651   9.641   9.487   6.812 -2.2913  0.9064  2.5380
  909MOL0     H22652   9.723   9.214   6.917  2.8604  1.1305 -0.2337
  909MOL0     H22653   9.696   9.261   6.742 -0.1024  1.2866 -0.2709
  909MOL0     H22654   9.476   9.300   6.787 -1.2813 -2.0953 -1.1817
  909MOL0     H22655   9.494   9.274   6.965  1.5414  1.5013  1.3583
  909MOL0     H22656   9.532   9.057   6.755  1.2550 -1.3006  0.1153
  909MOL0     H22657   9.558   9.038   6.931 -0.0792 -0.9966 -0.0219
  909MOL0     H22658   9.312   9.106   6.962  0.7699  2.1443 -1.1729
  909MOL0     H22659   9.286   9.086   6.787 -0.0533  0.6221 -0.5504
  909MOL0     H22660   9.374   8.856   6.813 -1.3086 -1.2077 -0.3240
  909MOL0     H22661   9.390   8.883   6.991 -1.2583 -0.7913  0.6057
  909MOL0     H22662   9.115   8.952   6.920 -0.2755  0.6732  3.0186
  909MOL0     H22663   9.184   8.851   7.042 -0.5046 -1.0050  0.3855
  909MOL0     H22664   9.232   8.700   6.809  0.2606 -1.7039  1.8356
  909MOL0     H22665   9.092   8.679   6.922 -3.8427 -0.3459 -1.8326
  909MOL0     H22666   8.854   8.724   6.825 -0.1620 -0.0039  1.1929
  909MOL0     H22667   8.684   8.909   6.612  1.6497  0.3690  1.6100
  909MOL0     H22668   8.751   8.865   6.456 -0.3933 -2.5916 -1.3592
  909MOL0     H22669   8.756   8.630   6.491 -0.5450  1.0985 -0.5530
  909MOL0     H22670   8.689   8.642   6.652 -1.7908 -0.7776 -0.1660
  909MOL0     H22671   8.477   8.737   6.597 -4.1391 -0.8138 -1.2912
  909MOL0     H22672   8.505   8.587   6.503 -2.1332  0.3494 -0.4469
  909MOL0     H22673   8.580   8.733   6.303  0.9351 -0.9526  1.9582
  909MOL0     H22674   8.499   8.864   6.393 -1.0172 -0.0446  1.1444
  909MOL0     H22675   8.267   8.942   6.227 -1.8441  0.6194 -0.5778
  909MOL0     H22676   8.079   9.039   6.300  0.6291 -0.1225 -0.2301
  909MOL0     H22677   7.670   9.159   6.501  4.7698 -2.5434 -0.5944
  909MOL0     H22678   7.416   9.137   6.522  0.2847 -1.7712  3.2065
  909MOL0     H22679   7.192   8.930   6.262  3.2157  1.0103  1.0200
  909MOL0     H22680   7.178   8.767   6.332 -2.2454  0.4881 -3.0083
  909MOL0     H22681   6.968   8.912   6.337 -0.6495 -1.0636 -0.0190
  909MOL0     H22682   7.009   8.825   6.481 -0.4060 -1.5764 -1.1909
  909MOL0     H22683   6.956   9.054   6.548  0.1912  3.4200 -1.7147
  909MOL0     H22684   7.124   9.043   6.573 -2.3735  2.2135  1.1744
  909MOL0     H22685   6.984   9.143   6.319 -2.4751  0.2997  2.1340
  909MOL0     H22686   7.164   9.147   6.350 -0.6906  0.4565 -0.1725
  909MOL0     H22687   7.134   9.277   6.554 -0.1553  3.3890 -1.5426
  909MOL0     H22688   6.958   9.277   6.538 -0.6741  2.2889  1.8365
  909MOL0     H22689   7.141   9.468   6.465 -2.0366  1.8639 -0.5419
  909MOL0     H22690   7.161   9.367   6.319  1.6232 -2.9042  2.1254
  909MOL0     H22691   6.919   9.396   6.276  1.4122 -1.7334  1.3299
  909MOL0     H22692   7.009   9.544   6.272  2.6985  0.0602  1.0898
  909MOL0     H22693   6.797   9.597   6.385 -0.5034  0.0240  1.6409
  909MOL0     H22694   6.814   9.460   6.497 -0.9027  1.3258  1.2343
  909MOL0     H22695   7.415   8.788   6.276 -0.3903  2.7680 -2.6901
  909MOL0     H22696   7.650   8.814   6.247  1.6073 -2.4500  3.1754
  909MOL0     H22697   8.026   8.722   6.599  0.4954  1.7911  1.7688
  909MOL0     H22698   8.236   8.614   6.516  1.9725 -0.2338 -3.2118
  909MOL0     H22699   9.870   9.359   7.100  0.1211 -4.3935  1.9255
  909MOL0     H22700  10.061   9.209   7.182  3.7587  2.3252  1.3259
  909MOL0     H22701  10.479   9.139   7.373  0.6279  0.3062  0.3361
  909MOL0     H22702  10.716   9.037   7.403  2.0661  0.0907 -1.5676
  909MOL0     H22703  10.886   8.916   7.405  0.3740  3.3530  0.5771
  909MOL0     H22704  10.994   9.027   7.338  2.9564 -0.9943 -0.7459
  909MOL0     H22705  11.111   8.836   7.193  1.1718 -1.4892  0.3934
  909MOL0     H22706  10.994   8.732   7.250 -1.2322  1.1431  0.2490
  909MOL0     H22707  11.092   8.813   7.495  1.1163 -0.8645  0.4776
  909MOL0     H22708  11.229   8.857   7.382  0.2873 -0.2506  1.8567
  909MOL0     H22709  11.255   8.609   7.350  1.4594 -3.5213  2.6622
  909MOL0     H22710  11.235   8.640   7.513  1.0177 -0.3181 -0.9656
  909MOL0     H22711  10.889   8.416   7.482 -0.9219  2.5032  2.2835
  909MOL0     H22712  10.693   8.908   6.994  0.2980  0.5993  0.2842
  909MOL0     H22713  10.509   8.885   6.886  2.0681  1.2294 -0.5763
  909MOL0     H22714  10.348   8.959   6.909 -0.5196  0.3342 -1.3774
  909MOL0     H22715  10.483   9.057   6.872  0.7599 -1.4368 -0.5254
  910MOL0     O22716   6.329   3.024   2.730 -0.6099 -0.0349  0.0435
  910MOL0     C22717   6.416   3.094   2.781  0.3296  0.7173 -0.6322
  910MOL0     O22718   6.532   3.042   2.838 -0.1226 -0.0098 -0.3303
  910MOL0     C22719   6.556   2.908   2.852 -0.1461  0.3986  1.3428
  910MOL0     C22720   6.683   2.874   2.864 -0.1411 -0.3398 -0.1882
  910MOL0     C22721   6.719   2.746   2.862  0.6409 -0.7217  0.3122
  910MOL0     C22722   6.629   2.640   2.856 -0.2524  0.0898 -0.6605
  910MOL0     O22723   6.695   2.515   2.845  0.4870 -0.6547  0.6067
  910MOL0     C22724   6.623   2.408   2.911 -0.4545 -0.2755  1.0091
  910MOL0     C22725   6.741   2.310   2.951 -0.0970 -0.7194 -0.3596
  910MOL0     C22726   6.814   2.367   3.072  0.3818  0.3103 -0.1331
  910MOL0     C22727   6.743   2.358   3.212  0.6143  0.8036 -0.1515
  910MOL0     C22728   6.673   2.215   3.252  0.2332 -0.1652 -0.4165
  910MOL0     C22729   6.769   2.102   3.254 -0.8408  0.7771 -0.0072
  910MOL0     C22730   6.865   2.113   3.378  0.7589  0.4407  0.1120
  910MOL0     C22731   6.788   2.085   3.513 -0.0638 -0.0374  0.2277
  910MOL0     N22732   6.680   1.989   3.513 -0.2294  0.0397 -0.2326
  910MOL0     C22733   6.702   1.858   3.488 -0.8343 -0.1055 -0.7503
  910MOL0     C22734   6.587   1.800   3.537 -1.0041  0.9693  0.1750
  910MOL0     C22735   6.571   1.653   3.530 -0.1993 -0.5134  0.3771
  910MOL0     C22736   6.476   1.612   3.414 -0.0508  0.1481  1.2145
  910MOL0     C22737   6.435   1.465   3.397  1.3460  0.9174 -0.1175
  910MOL0     C22738   6.383   1.411   3.530 -0.8016  0.3967 -0.1119
  910MOL0     O22739   6.321   1.279   3.513  0.4513  0.6712  0.4715
  910MOL0     C22740   6.184   1.274   3.527 -0.3598 -0.1982 -1.2858
  910MOL0     C22741   6.124   1.257   3.652 -0.6232  0.5833  0.6322
  910MOL0     C22742   5.990   1.262   3.657  0.2138  0.3180  0.6631
  910MOL0     C22743   5.903   1.278   3.544 -0.2432  0.4231  0.0547
  910MOL0     C22744   5.754   1.288   3.566 -0.5249  0.1849 -0.1583
  910MOL0     O22745   5.682   1.279   3.451  0.0895 -0.8619 -0.7304
  910MOL0     C22746   5.547   1.265   3.447 -0.2903 -0.2883 -0.1731
  910MOL0     C22747   5.486   1.322   3.335  0.6957  0.2527  0.4845
  910MOL0     C22748   5.356   1.291   3.304  0.2803  0.5140 -0.8129
  910MOL0     C22749   5.275   1.209   3.383 -0.2787  1.0150  0.0043
  910MOL0     O22750   5.140   1.179   3.340 -0.3692 -0.3003 -0.3495
  910MOL0     C22751   5.093   1.048   3.353  0.2277 -0.4214 -0.3580
  910MOL0     C22752   4.955   1.035   3.292  0.8220  0.0756  0.2695
  910MOL0     C22753   4.878   0.927   3.378  0.2964 -0.1928  0.4974
  910MOL0     C22754   4.765   0.867   3.291  0.2160  0.7158  0.6012
  910MOL0     C22755   4.683   0.769   3.368  0.4200  1.0229 -0.3293
  910MOL0     C22756   4.539   0.727   3.320  0.1336  0.6476  1.4571
  910MOL0     C22757   4.568   0.634   3.192  0.4040  0.2158 -0.5387
  910MOL0     C22758   4.440   0.558   3.144 -0.0408 -0.9738  0.3528
  910MOL0    Cl22759   4.323   0.670   3.061  0.5759 -0.1457  0.2637
  910MOL0     C22760   5.333   1.153   3.500 -0.1634 -0.4014  0.1210
  910MOL0     C22761   5.469   1.181   3.529 -0.2877 -0.4964  0.4856
  910MOL0     O22762   5.716   1.270   3.684 -0.1294  0.6397  0.0649
  910MOL0     C22763   5.960   1.274   3.420 -0.1684  0.3536  0.1545
  910MOL0     C22764   6.101   1.285   3.411  0.0969 -0.2394  0.1849
  910MOL0     N22765   6.493   1.883   3.580  0.1996 -0.8395 -0.1894
  910MOL0     N22766   6.550   1.999   3.561 -0.3190  0.3769 -1.6204
  910MOL0     C22767   6.495   2.666   2.846 -0.4055  0.1870 -0.4466
  910MOL0     C22768   6.460   2.804   2.849  0.2651  0.6368 -0.4455
  910MOL0     C22769   6.383   3.235   2.811 -0.1050 -0.4036  0.2165
  910MOL0     C22770   6.442   3.284   2.926 -0.9226 -0.2952  0.6467
  910MOL0     C22771   6.405   3.412   2.979 -0.0302 -0.4332  0.6161
  910MOL0     C22772   6.317   3.493   2.907 -0.1602 -0.1670 -0.3997
  910MOL0     O22773   6.297   3.614   2.959 -0.3975 -0.6045  0.1451
  910MOL0     C22774   6.249   3.723   2.867  0.4622 -0.8016  0.0528
  910MOL0     C22775   6.279   3.858   2.937 -0.5361 -0.5704  0.4543
  910MOL0     C22776   6.237   3.863   3.094  0.9535 -0.4319  1.0261
  910MOL0     C22777   6.087   3.857   3.114  0.0460 -0.1529 -0.3214
  910MOL0     C22778   6.009   3.966   3.056 -0.1240 -0.4793  0.2052
  910MOL0     C22779   5.942   4.060   3.020 -0.3579  0.4162 -0.7867
  910MOL0     C22780   6.264   3.448   2.786 -0.0300  0.1466 -0.6424
  910MOL0     C22781   6.303   3.322   2.737  0.4023  0.0390  0.0364
  910MOL0     C22782   6.244   3.286   2.602  1.0368  1.2587  0.3270
  910MOL0     H22783   6.754   2.956   2.866 -2.1472  1.5682 -1.9258
  910MOL0     H22784   6.825   2.729   2.878  0.2225 -1.0036  3.2956
  910MOL0     H22785   6.560   2.438   2.996 -1.5552  2.3864 -0.6089
  910MOL0     H22786   6.563   2.356   2.835  0.3274 -0.8640  0.7873
  910MOL0     H22787   6.815   2.279   2.876  0.1442 -1.5445  0.2045
  910MOL0     H22788   6.693   2.214   2.969  1.0045 -1.1536  0.3313
  910MOL0     H22789   6.832   2.474   3.064  1.0252  0.1332 -1.1288
  910MOL0     H22790   6.911   2.321   3.088  0.0762 -0.5353 -0.6270
  910MOL0     H22791   6.816   2.390   3.287 -0.7848 -0.7595  2.0199
  910MOL0     H22792   6.665   2.435   3.215 -0.3399 -0.1012  3.1726
  910MOL0     H22793   6.626   2.219   3.350 -0.0011 -1.0622 -0.4824
  910MOL0     H22794   6.591   2.188   3.185 -0.9397 -0.4103  1.0840
  910MOL0     H22795   6.713   2.008   3.251  1.1940 -0.7264  3.2093
  910MOL0     H22796   6.835   2.104   3.167  2.0388 -2.1882  1.8540
  910MOL0     H22797   6.913   2.211   3.380  1.4638  0.0924  0.8994
  910MOL0     H22798   6.952   2.045   3.378  1.5767  1.3775 -2.0474
  910MOL0     H22799   6.851   2.049   3.595  0.4796 -1.0150 -0.6026
  910MOL0     H22800   6.768   2.185   3.553  1.7368 -0.6087  2.8573
  910MOL0     H22801   6.795   1.825   3.442  1.2550 -0.1926  3.1323
  910MOL0     H22802   6.667   1.609   3.504 -1.4602 -1.6948 -2.8232
  910MOL0     H22803   6.544   1.611   3.627  1.6297  2.3233  2.2598
  910MOL0     H22804   6.378   1.658   3.429 -1.0053 -1.4173  0.1031
  910MOL0     H22805   6.522   1.656   3.325  2.0088 -0.9584  1.6605
  910MOL0     H22806   6.527   1.413   3.368  0.9559 -0.7947  1.5506
  910MOL0     H22807   6.359   1.448   3.320  1.0010 -2.3650  0.7981
  910MOL0     H22808   6.313   1.479   3.579 -2.9996 -1.3419 -0.6614
  910MOL0     H22809   6.479   1.396   3.579  0.0054  0.5961 -1.5914
  910MOL0     H22810   6.189   1.257   3.739 -0.0280  1.9351  0.2283
  910MOL0     H22811   5.957   1.268   3.760  1.0059 -0.6618  0.9872
  910MOL0     H22812   5.532   1.396   3.270 -1.7260  1.5193  0.0779
  910MOL0     H22813   5.319   1.347   3.219  0.6722 -0.6176 -1.7484
  910MOL0     H22814   5.167   0.972   3.325  0.5034  0.2113 -1.4125
  910MOL0     H22815   5.081   1.049   3.462  0.8106 -0.5752 -0.2888
  910MOL0     H22816   4.894   1.125   3.290 -0.1283 -0.5574 -1.6694
  910MOL0     H22817   4.955   0.988   3.193  1.6913 -1.8725  1.1437
  910MOL0     H22818   4.948   0.844   3.383 -0.7583 -1.1277  0.1992
  910MOL0     H22819   4.848   0.960   3.478  1.9091 -0.0079  0.9440
  910MOL0     H22820   4.817   0.825   3.204 -0.1018  4.5011 -1.6338
  910MOL0     H22821   4.697   0.948   3.265  0.8346  1.1160  0.2072
  910MOL0     H22822   4.688   0.810   3.469 -0.7454  0.3126  0.0403
  910MOL0     H22823   4.731   0.675   3.395  0.7725  1.7204  1.6019
  910MOL0     H22824   4.494   0.668   3.400  1.9767 -0.2134  1.8889
  910MOL0     H22825   4.474   0.810   3.289  0.2614 -0.0303 -0.7901
  910MOL0     H22826   4.632   0.550   3.221 -0.5080 -0.3567 -0.1257
  910MOL0     H22827   4.608   0.687   3.105  0.3290  1.5779  0.2261
  910MOL0     H22828   4.456   0.477   3.072  1.1636  0.5359 -1.1866
  910MOL0     H22829   4.393   0.520   3.234 -1.2562  0.6423  0.4401
  910MOL0     H22830   5.268   1.087   3.557 -1.2236 -0.5653 -1.2348
  910MOL0     H22831   5.506   1.129   3.617  0.8841 -3.2033 -1.4575
  910MOL0     H22832   5.902   1.263   3.328 -2.1128  1.9665  1.1097
  910MOL0     H22833   6.147   1.274   3.314  0.4169 -1.7906  0.4783
  910MOL0     H22834   6.426   2.583   2.847  0.0190 -0.4294  4.6825
  910MOL0     H22835   6.355   2.831   2.842  0.2936  1.7910  2.5102
  910MOL0     H22836   6.520   3.231   2.981  1.1787 -0.8732 -2.6209
  910MOL0     H22837   6.433   3.453   3.075 -0.2957  1.0669  0.0834
  910MOL0     H22838   6.142   3.712   2.849  0.6778  0.3147 -2.2444
  910MOL0     H22839   6.303   3.719   2.772 -0.4868  0.2186 -0.5563
  910MOL0     H22840   6.234   3.942   2.883  1.5046 -0.3273 -1.0104
  910MOL0     H22841   6.385   3.884   2.924 -1.1690  0.5630 -4.2257
  910MOL0     H22842   6.265   3.953   3.150 -0.6117  0.9324 -0.2597
  910MOL0     H22843   6.271   3.775   3.148  2.5781 -1.6576 -1.7532
  910MOL0     H22844   6.054   3.759   3.080  1.4806 -0.5413 -0.6541
  910MOL0     H22845   6.078   3.840   3.222 -1.0879 -2.2652 -0.7011
  910MOL0     H22846   5.880   4.145   3.002  0.7867  1.3490 -0.3948
  910MOL0     H22847   6.196   3.508   2.726 -1.1400 -1.7621 -1.4003
  910MOL0     H22848   6.142   3.252   2.624  1.2830  0.9636  1.0563
  910MOL0     H22849   6.247   3.370   2.532  0.6753  2.6499  1.8979
  910MOL0     H22850   6.296   3.201   2.557  1.9722  0.7865  2.1877
  911MOL0     O22851   8.707   1.661  11.321 -0.5983 -0.6193 -0.8279
  911MOL0     C22852   8.744   1.778  11.335  0.5184  0.3774 -0.6154
  911MOL0     O22853   8.870   1.811  11.375 -0.3161 -0.4279 -0.2180
  911MOL0     C22854   8.962   1.714  11.356 -0.2883  0.0376 -0.1566
  911MOL0     C22855   9.024   1.661  11.472  0.0147 -0.1150  0.0726
  911MOL0     C22856   9.113   1.550  11.469  0.5456 -0.2259  0.2655
  911MOL0     C22857   9.143   1.501  11.342 -0.3349  0.1168 -0.3662
  911MOL0     O22858   9.254   1.419  11.345 -0.3671 -0.5459 -0.2540
  911MOL0     C22859   9.294   1.346  11.221 -0.1554  0.0041 -1.2219
  911MOL0     C22860   9.364   1.209  11.242  0.6897 -0.0332 -0.1620
  911MOL0     C22861   9.258   1.107  11.282  0.5193  0.2771  0.3460
  911MOL0     C22862   9.327   0.985  11.338 -0.3998 -0.1595  0.6559
  911MOL0     C22863   9.236   0.875  11.389 -0.4989  0.4460 -0.0149
  911MOL0     C22864   9.318   0.758  11.441  0.9342  0.1045 -1.0136
  911MOL0     C22865   9.241   0.670  11.538 -0.3927 -0.1257 -0.4193
  911MOL0     C22866   9.121   0.607  11.472  0.3159  0.1328 -0.1895
  911MOL0     N22867   9.074   0.512  11.575 -0.3502  0.3709 -0.6078
  911MOL0     C22868   9.020   0.556  11.699 -0.5710 -0.2141 -0.3960
  911MOL0     C22869   8.966   0.452  11.754 -0.2386 -0.3200  0.5861
  911MOL0     C22870   8.903   0.450  11.887 -0.5834 -0.2398  0.0008
  911MOL0     C22871   8.771   0.375  11.885 -0.0724 -0.2341 -0.4709
  911MOL0     C22872   8.718   0.378  12.028 -0.6354 -0.7794  0.0337
  911MOL0     C22873   8.601   0.281  12.052  0.1228 -0.3450  0.3889
  911MOL0     O22874   8.497   0.303  11.952  0.5960 -0.2864 -0.4122
  911MOL0     C22875   8.397   0.209  11.956 -0.0946 -0.8365  0.6645
  911MOL0     C22876   8.290   0.249  11.879 -1.3593 -0.0014 -0.7634
  911MOL0     C22877   8.178   0.169  11.882  0.2540 -0.3750  0.0147
  911MOL0     C22878   8.173   0.063  11.973 -0.5989 -0.4782  0.3669
  911MOL0     C22879   8.047  -0.018  11.984  0.4933 -0.0466 -0.3447
  911MOL0     O22880   7.986  -0.035  11.861 -0.4699  0.2409  0.2864
  911MOL0     C22881   7.858  -0.083  11.852 -0.2838  0.4776 -0.6108
  911MOL0     C22882   7.762  -0.002  11.793  0.3466 -0.2214  0.0670
  911MOL0     C22883   7.638  -0.046  11.783  0.2384  0.4975  1.2927
  911MOL0     C22884   7.599  -0.169  11.820 -0.0955 -1.3459  0.2532
  911MOL0     O22885   7.466  -0.207  11.799 -0.7883  0.2431 -0.3663
  911MOL0     C22886   7.432  -0.348  11.807  0.2952  0.0386  0.1529
  911MOL0     C22887   7.297  -0.372  11.743 -0.3706 -0.0253  1.1478
  911MOL0     C22888   7.172  -0.294  11.804 -0.4970  0.2900  0.5094
  911MOL0     C22889   7.102  -0.376  11.902  0.3418 -0.0111 -0.2655
  911MOL0     C22890   6.973  -0.319  11.946  0.2076 -0.1501  0.6508
  911MOL0     C22891   6.972  -0.169  11.991  0.0980  0.5512 -0.1061
  911MOL0     C22892   7.075  -0.155  12.103 -0.0199  0.0908 -0.6050
  911MOL0     C22893   7.061  -0.026  12.194  0.2953 -0.4361  0.7796
  911MOL0    Cl22894   7.004   0.104  12.080 -0.4743 -0.0848  0.2871
  911MOL0     C22895   7.695  -0.249  11.886  0.2025 -0.9171 -0.8652
  911MOL0     C22896   7.828  -0.208  11.893 -0.2853  0.6961 -0.8532
  911MOL0     O22897   7.989  -0.036  12.093  0.0963  0.1568  0.3051
  911MOL0     C22898   8.276   0.030  12.052  0.2174 -0.1043 -0.1207
  911MOL0     C22899   8.396   0.102  12.044  0.2568  0.5290 -0.1917
  911MOL0     N22900   8.986   0.345  11.672  0.0833  0.3227 -0.5186
  911MOL0     N22901   9.047   0.380  11.563  1.1326 -0.1113  0.3763
  911MOL0     C22902   9.076   1.546  11.229 -0.2527  0.8624 -0.4701
  911MOL0     C22903   8.999   1.656  11.235  1.1960 -0.1767 -0.5218
  911MOL0     C22904   8.638   1.891  11.338  0.5836 -0.8122  0.5075
  911MOL0     C22905   8.697   2.017  11.308  0.7994  0.9622  0.6038
  911MOL0     C22906   8.615   2.122  11.301 -0.5686 -0.7121 -0.8896
  911MOL0     C22907   8.476   2.119  11.336  0.2478  0.3257  0.7000
  911MOL0     O22908   8.401   2.230  11.332 -0.6859 -1.1575  0.7648
  911MOL0     C22909   8.271   2.251  11.400 -0.4101  0.7159  0.3096
  911MOL0     C22910   8.164   2.208  11.296 -0.3510  0.2959  0.6534
  911MOL0     C22911   8.040   2.303  11.294  0.5915  0.5341  0.6355
  911MOL0     C22912   7.971   2.285  11.163  0.5111 -0.5634 -0.0507
  911MOL0     C22913   7.854   2.378  11.140  0.4213 -0.7738 -0.0036
  911MOL0     C22914   7.758   2.446  11.121  0.6372  0.7155  0.5493
  911MOL0     C22915   8.426   1.999  11.372  0.3186 -0.2368 -0.7843
  911MOL0     C22916   8.505   1.882  11.372  0.1111  0.0755 -0.4263
  911MOL0     C22917   8.446   1.752  11.406 -0.0120  0.2727 -0.1119
  911MOL0     H22918   8.994   1.706  11.566 -1.1571  0.2994 -0.4818
  911MOL0     H22919   9.156   1.506  11.558 -2.7141 -1.9019  1.1825
  911MOL0     H22920   9.211   1.325  11.153 -1.2390 -1.7124  0.5635
  911MOL0     H22921   9.364   1.416  11.173 -0.6635  1.0741 -0.4328
  911MOL0     H22922   9.444   1.227  11.313 -0.2794 -0.6491  1.1319
  911MOL0     H22923   9.408   1.175  11.148  2.6943 -1.1321  1.1224
  911MOL0     H22924   9.179   1.094  11.208  0.9938  0.9610 -0.2914
  911MOL0     H22925   9.208   1.150  11.369  1.3037 -3.5725  2.9621
  911MOL0     H22926   9.413   0.947  11.283  1.1272 -1.4041  3.6454
  911MOL0     H22927   9.386   1.020  11.424  0.6986  1.7704 -0.8122
  911MOL0     H22928   9.174   0.914  11.470 -2.3665 -1.4192 -0.4734
  911MOL0     H22929   9.174   0.841  11.306  1.9025  0.6604 -2.0182
  911MOL0     H22930   9.363   0.701  11.359 -0.9532 -2.2754 -0.5081
  911MOL0     H22931   9.401   0.799  11.499 -0.2889 -1.1808  1.8309
  911MOL0     H22932   9.201   0.732  11.620 -0.1472  0.0928 -0.4661
  911MOL0     H22933   9.307   0.600  11.590  0.1279 -0.1831 -1.1582
  911MOL0     H22934   9.051   0.689  11.454  0.4157  0.2298 -0.1344
  911MOL0     H22935   9.143   0.549  11.382 -0.1743 -0.2098 -0.0917
  911MOL0     H22936   9.022   0.656  11.741 -0.6586  1.0927 -3.2411
  911MOL0     H22937   8.966   0.407  11.966 -0.5724  0.2616  0.2686
  911MOL0     H22938   8.882   0.552  11.920 -2.3049 -0.6478  0.2789
  911MOL0     H22939   8.701   0.434  11.825 -1.0133 -0.9296 -0.0814
  911MOL0     H22940   8.772   0.267  11.865  0.1697 -0.9005  2.6810
  911MOL0     H22941   8.699   0.483  12.050  2.0419  0.8726 -4.2293
  911MOL0     H22942   8.808   0.365  12.089 -0.1423  0.0900 -0.4821
  911MOL0     H22943   8.572   0.269  12.157  1.4489 -2.0052  0.6017
  911MOL0     H22944   8.652   0.185  12.038  1.7002  0.2923  1.5784
  911MOL0     H22945   8.277   0.320  11.798 -0.6498 -2.4919 -3.1812
  911MOL0     H22946   8.085   0.194  11.833  0.4477 -1.1992 -0.8098
  911MOL0     H22947   7.794   0.090  11.745 -3.2618  1.3656  0.3572
  911MOL0     H22948   7.564   0.018  11.735 -0.2808 -1.1914 -0.2732
  911MOL0     H22949   7.494  -0.426  11.762 -1.3704 -0.8024 -0.7974
  911MOL0     H22950   7.417  -0.367  11.914  2.8052 -0.7194  0.4366
  911MOL0     H22951   7.309  -0.327  11.644 -1.6803 -0.2772  0.8615
  911MOL0     H22952   7.289  -0.481  11.739  3.0452 -0.3800 -0.0407
  911MOL0     H22953   7.198  -0.197  11.846  0.2154 -0.9357  3.0875
  911MOL0     H22954   7.098  -0.277  11.725  1.1746  1.1526 -0.9276
  911MOL0     H22955   7.157  -0.382  11.996  0.4678 -2.0593 -0.4168
  911MOL0     H22956   7.096  -0.480  11.870  0.3399 -0.3130  0.6729
  911MOL0     H22957   6.919  -0.382  12.017 -5.1026 -0.9871 -3.4462
  911MOL0     H22958   6.915  -0.324  11.853  1.5410 -1.6382 -0.1475
  911MOL0     H22959   6.998  -0.108  11.904  1.7470  0.0340 -0.0123
  911MOL0     H22960   6.873  -0.146  12.031 -0.3730 -0.5658 -0.6057
  911MOL0     H22961   7.174  -0.141  12.060  0.2135  1.1936  0.2593
  911MOL0     H22962   7.066  -0.244  12.165  0.0094  1.4433  1.4195
  911MOL0     H22963   6.986  -0.047  12.270  0.6324  0.3493  1.3379
  911MOL0     H22964   7.154   0.017  12.234  1.0456 -0.3689 -0.9246
  911MOL0     H22965   7.687  -0.352  11.919 -2.2665 -0.8416 -1.0715
  911MOL0     H22966   7.903  -0.276  11.933 -1.4498  0.3360  0.8094
  911MOL0     H22967   8.277  -0.046  12.129 -1.5018 -1.5238 -1.3871
  911MOL0     H22968   8.475   0.078  12.115  2.2222  2.9371 -1.4309
  911MOL0     H22969   9.100   1.498  11.135 -0.5752  1.0637 -0.6552
  911MOL0     H22970   8.951   1.708  11.153 -1.2874  1.9178  2.0347
  911MOL0     H22971   8.804   2.022  11.287  0.6045  0.1241 -0.7056
  911MOL0     H22972   8.666   2.214  11.274 -4.2134  1.1575 -1.9953
  911MOL0     H22973   8.257   2.355  11.428  0.3053  1.7360 -2.8053
  911MOL0     H22974   8.262   2.179  11.482  0.6494  1.9421  1.5388
  911MOL0     H22975   8.136   2.103  11.302  1.0076 -0.0899  0.5450
  911MOL0     H22976   8.210   2.214  11.196 -1.0791  1.2948  0.3602
  911MOL0     H22977   8.064   2.409  11.309 -0.9707  1.1242 -0.7108
  911MOL0     H22978   7.979   2.272  11.380  1.0296  2.1372  1.5706
  911MOL0     H22979   8.038   2.307  11.080 -2.6055  1.0220 -2.3705
  911MOL0     H22980   7.938   2.182  11.150 -0.4201 -0.8149  3.3120
  911MOL0     H22981   7.682   2.521  11.112 -0.9178 -0.6143  1.9629
  911MOL0     H22982   8.319   1.992  11.388  0.2929 -0.1072 -0.8949
  911MOL0     H22983   8.491   1.695  11.488  0.8598  0.3413 -0.5361
  911MOL0     H22984   8.337   1.747  11.407  0.0322 -3.0423  0.8929
  911MOL0     H22985   8.466   1.688  11.320  3.0244  1.1060 -0.1405
  912MOL0     O22986   8.331   1.204   6.164 -0.2059 -0.6147  1.1194
  912MOL0     C22987   8.388   1.211   6.272  0.4066  0.9110  0.3652
  912MOL0     O22988   8.413   1.323   6.339  0.8534  0.2800 -0.8040
  912MOL0     C22989   8.426   1.439   6.274 -1.0854 -1.7425  1.2262
  912MOL0     C22990   8.545   1.508   6.275  0.8330 -0.2894 -0.5530
  912MOL0     C22991   8.566   1.633   6.200 -0.2206  0.2590 -0.7312
  912MOL0     C22992   8.458   1.690   6.137  0.2200 -0.2842  0.1825
  912MOL0     O22993   8.465   1.819   6.085 -0.3105  0.0838 -0.1657
  912MOL0     C22994   8.421   1.834   5.948 -0.0323  0.1786 -0.2824
  912MOL0     C22995   8.500   1.746   5.856 -0.2895 -0.2171 -0.0257
  912MOL0     C22996   8.445   1.757   5.717 -0.1100  0.6261 -0.5576
  912MOL0     C22997   8.495   1.862   5.616 -0.0200 -0.5085  0.0010
  912MOL0     C22998   8.416   1.847   5.490 -0.4356  0.6043  0.6233
  912MOL0     C22999   8.505   1.924   5.384  0.9487  0.7317 -0.0058
  912MOL0     C23000   8.432   1.961   5.251  0.9451  0.5419 -0.2327
  912MOL0     C23001   8.423   1.817   5.184 -0.6150 -0.7799 -0.0515
  912MOL0     N23002   8.347   1.826   5.053 -0.5261  0.3959  0.4857
  912MOL0     C23003   8.374   1.788   4.927 -0.8409 -0.3730 -0.0794
  912MOL0     C23004   8.263   1.785   4.858  0.3470  0.1754 -0.1279
  912MOL0     C23005   8.257   1.754   4.717  0.3611  0.5922  0.0229
  912MOL0     C23006   8.337   1.840   4.621 -0.1570  0.7580  0.5028
  912MOL0     C23007   8.326   1.994   4.648 -0.9429  0.3852  0.5906
  912MOL0     C23008   8.184   2.042   4.627 -0.0963 -0.0336 -0.3962
  912MOL0     O23009   8.137   1.994   4.508 -0.2377  0.0966  0.1223
  912MOL0     C23010   8.160   2.065   4.393  0.6387  0.2283 -0.6666
  912MOL0     C23011   8.103   2.010   4.282  1.0916 -0.2143  0.3038
  912MOL0     C23012   8.117   2.058   4.151  0.4219  0.0328  0.0883
  912MOL0     C23013   8.202   2.168   4.127  0.5949  2.0026 -0.8111
  912MOL0     C23014   8.240   2.190   3.990  0.2335 -0.0215  0.0536
  912MOL0     O23015   8.351   2.274   3.968  0.2834 -0.4100 -0.0811
  912MOL0     C23016   8.386   2.287   3.832 -0.0610 -0.5966 -0.2168
  912MOL0     C23017   8.295   2.326   3.734  0.1921  0.2196  0.1979
  912MOL0     C23018   8.356   2.354   3.610 -0.1841  0.0363 -0.5617
  912MOL0     C23019   8.490   2.310   3.572  0.5218  0.3563  0.0475
  912MOL0     O23020   8.549   2.348   3.452  0.2832  0.7642  0.2395
  912MOL0     C23021   8.499   2.464   3.378 -0.7890  0.7550 -1.3613
  912MOL0     C23022   8.616   2.525   3.302  0.1004  0.0834 -0.3263
  912MOL0     C23023   8.566   2.644   3.215 -0.3115  1.0014 -0.4519
  912MOL0     C23024   8.509   2.761   3.294 -0.3269 -0.5375 -0.3821
  912MOL0     C23025   8.439   2.865   3.210  0.1410 -0.3815 -0.0498
  912MOL0     C23026   8.332   2.933   3.294 -0.2102  0.2232 -0.0476
  912MOL0     C23027   8.278   3.062   3.242  0.1404  0.0670  0.1393
  912MOL0     C23028   8.221   3.147   3.347 -0.0449 -0.8006  0.2695
  912MOL0    Cl23029   8.151   3.285   3.274 -0.0322  0.0374  0.2097
  912MOL0     C23030   8.576   2.276   3.684  0.4445  0.8274  0.9140
  912MOL0     C23031   8.522   2.265   3.808  0.3009 -0.0790  0.0231
  912MOL0     O23032   8.187   2.122   3.897 -0.3813 -0.0710  0.6986
  912MOL0     C23033   8.277   2.220   4.237 -0.0947 -0.1788 -0.6505
  912MOL0     C23034   8.250   2.175   4.367  0.1692  0.5653 -0.4719
  912MOL0     N23035   8.166   1.833   4.942 -0.1055  0.5295  1.1802
  912MOL0     N23036   8.213   1.850   5.061  0.0019  0.5055 -0.4619
  912MOL0     C23037   8.332   1.619   6.127 -0.1588  0.1621  0.1935
  912MOL0     C23038   8.317   1.496   6.203  0.1245 -0.6976  0.7871
  912MOL0     C23039   8.416   1.091   6.349 -0.6025 -0.5524 -0.3271
  912MOL0     C23040   8.379   1.083   6.488 -0.4794  0.2462 -0.1870
  912MOL0     C23041   8.414   0.968   6.567  0.0066  0.3138 -0.8550
  912MOL0     C23042   8.463   0.849   6.510  0.0619  0.6510  0.3010
  912MOL0     O23043   8.461   0.746   6.597  0.8518 -0.1073  0.4292
  912MOL0     C23044   8.500   0.617   6.560  0.4506  0.2224 -0.5158
  912MOL0     C23045   8.647   0.574   6.600 -0.5429 -0.2839 -0.3732
  912MOL0     C23046   8.674   0.577   6.757 -0.1455 -0.1434  1.2058
  912MOL0     C23047   8.817   0.547   6.780  0.2651  0.2433  0.8318
  912MOL0     C23048   8.847   0.401   6.762 -0.0749 -0.5500 -0.0328
  912MOL0     C23049   8.890   0.285   6.744  0.4976 -1.0583 -0.8325
  912MOL0     C23050   8.504   0.856   6.379  0.2531  0.4632 -0.8653
  912MOL0     C23051   8.482   0.972   6.296  0.1362 -0.1820  0.1286
  912MOL0     C23052   8.496   0.952   6.158  0.5160 -0.6905 -0.5964
  912MOL0     H23053   8.613   1.463   6.346 -3.7696 -3.3704  2.4678
  912MOL0     H23054   8.651   1.700   6.208 -2.1122  2.6933  0.7678
  912MOL0     H23055   8.312   1.831   5.951 -0.0386  1.2077  1.3173
  912MOL0     H23056   8.438   1.938   5.915  2.8881 -0.4028 -0.9281
  912MOL0     H23057   8.483   1.642   5.883 -2.6212  0.2333  0.4755
  912MOL0     H23058   8.604   1.777   5.869 -0.8255  2.7911 -1.9358
  912MOL0     H23059   8.337   1.738   5.710 -0.0314 -0.1187  0.0800
  912MOL0     H23060   8.491   1.666   5.678  1.8679 -0.0830  2.9754
  912MOL0     H23061   8.490   1.962   5.661 -1.4994  0.6337 -2.4996
  912MOL0     H23062   8.601   1.852   5.591 -0.6099 -0.7117 -2.8173
  912MOL0     H23063   8.388   1.746   5.457  1.9886  0.4125 -1.1593
  912MOL0     H23064   8.326   1.908   5.499  0.3251  1.5726  1.9645
  912MOL0     H23065   8.516   2.027   5.418 -1.4445  1.8600 -2.2829
  912MOL0     H23066   8.597   1.872   5.356  0.0927  0.6748 -3.1529
  912MOL0     H23067   8.495   2.032   5.197  0.4462 -2.2458 -5.0907
  912MOL0     H23068   8.329   1.993   5.270  0.1670 -2.2748  0.9120
  912MOL0     H23069   8.527   1.784   5.170 -1.0341 -2.1925 -0.0360
  912MOL0     H23070   8.382   1.743   5.254  2.2802 -0.0024  2.6851
  912MOL0     H23071   8.464   1.750   4.879 -1.9696  0.3968 -3.0416
  912MOL0     H23072   8.280   1.647   4.710 -3.3721 -0.3450  0.2501
  912MOL0     H23073   8.156   1.757   4.674  0.9050  1.4104 -1.2792
  912MOL0     H23074   8.436   1.795   4.632 -1.0536 -1.1447  1.2987
  912MOL0     H23075   8.307   1.816   4.518  1.9414 -0.0034  0.0194
  912MOL0     H23076   8.395   2.045   4.581 -3.0235  1.8345 -0.5656
  912MOL0     H23077   8.358   2.015   4.751  0.0674  3.2133 -0.2294
  912MOL0     H23078   8.180   2.152   4.629  0.3369 -0.0305  1.0383
  912MOL0     H23079   8.111   2.012   4.702 -2.0275 -0.7272 -2.4664
  912MOL0     H23080   8.030   1.932   4.297 -0.6739  1.3410  0.2144
  912MOL0     H23081   8.060   2.021   4.066  0.0870  1.3800 -0.2908
  912MOL0     H23082   8.194   2.345   3.769 -0.2613 -0.4163 -0.7178
  912MOL0     H23083   8.296   2.394   3.529 -1.5150  0.5046  0.6106
  912MOL0     H23084   8.417   2.444   3.308 -2.2530  1.4992  0.0782
  912MOL0     H23085   8.464   2.540   3.448 -0.6112 -0.2122 -0.1770
  912MOL0     H23086   8.692   2.538   3.380 -0.2291 -3.8945  0.9025
  912MOL0     H23087   8.657   2.448   3.236 -1.5527 -0.6654 -0.5264
  912MOL0     H23088   8.645   2.693   3.157 -0.4289  1.0154 -0.5992
  912MOL0     H23089   8.488   2.612   3.145  0.9155 -2.3459 -0.4879
  912MOL0     H23090   8.591   2.810   3.347 -2.0665  2.6871 -0.4175
  912MOL0     H23091   8.436   2.718   3.364 -0.5740  0.3867 -0.0686
  912MOL0     H23092   8.394   2.828   3.118 -0.3305  2.9374 -1.2823
  912MOL0     H23093   8.512   2.940   3.178  1.5800 -2.2932 -1.4850
  912MOL0     H23094   8.252   2.860   3.309 -0.7863  1.3845  3.7545
  912MOL0     H23095   8.381   2.951   3.391  1.0663  2.2770 -1.0056
  912MOL0     H23096   8.214   3.044   3.155  2.1210 -0.2088 -1.3283
  912MOL0     H23097   8.359   3.121   3.199 -1.5219  4.1843  2.1917
  912MOL0     H23098   8.151   3.094   3.411  1.3638 -1.2976  1.4437
  912MOL0     H23099   8.298   3.188   3.413 -1.4252 -0.4808  1.7514
  912MOL0     H23100   8.682   2.265   3.667  0.0007  0.3491 -2.2419
  912MOL0     H23101   8.585   2.263   3.897  1.7800  4.8023 -0.6008
  912MOL0     H23102   8.350   2.299   4.222  0.2033  0.4130  3.0492
  912MOL0     H23103   8.313   2.214   4.446  0.9229 -0.4263 -0.5573
  912MOL0     H23104   8.253   1.654   6.060  2.2751  1.2343 -2.3099
  912MOL0     H23105   8.217   1.455   6.205  0.4118 -1.3745  2.0298
  912MOL0     H23106   8.342   1.174   6.535 -1.5474 -0.1124 -0.3039
  912MOL0     H23107   8.382   0.983   6.670  0.6500 -1.0368 -0.4335
  912MOL0     H23108   8.477   0.591   6.456 -0.7119  0.4609 -0.3267
  912MOL0     H23109   8.424   0.554   6.607 -1.4024  3.4363  1.1309
  912MOL0     H23110   8.718   0.645   6.556 -1.1309  0.5849  0.0569
  912MOL0     H23111   8.668   0.470   6.575  3.1367 -0.1128  1.2860
  912MOL0     H23112   8.611   0.502   6.804 -0.0275 -2.7451 -2.4015
  912MOL0     H23113   8.653   0.674   6.803 -0.4478  0.2168  0.3313
  912MOL0     H23114   8.899   0.591   6.722  2.7798 -1.0946  3.1321
  912MOL0     H23115   8.835   0.572   6.885  0.4425  1.0951  0.6060
  912MOL0     H23116   8.916   0.183   6.727 -1.0522 -1.2336 -2.3813
  912MOL0     H23117   8.546   0.769   6.329  0.1236  0.6035 -1.2234
  912MOL0     H23118   8.400   0.930   6.110 -0.5715 -0.0513  1.1858
  912MOL0     H23119   8.522   1.048   6.112 -0.3863 -1.9701 -4.1621
  912MOL0     H23120   8.578   0.884   6.132  0.9706  0.0231 -1.0625
  913MOL0     O23121   9.345   7.908   2.019  0.1887  0.8693 -1.2598
  913MOL0     C23122   9.443   7.877   2.086 -0.3519 -0.2962  0.8630
  913MOL0     O23123   9.448   7.867   2.216  1.0499  0.3197 -0.3458
  913MOL0     C23124   9.336   7.878   2.303 -0.7078 -0.4874 -0.1784
  913MOL0     C23125   9.204   7.916   2.273  0.1817 -0.0933  1.3681
  913MOL0     C23126   9.100   7.902   2.368 -0.5410 -0.0961  0.1823
  913MOL0     C23127   9.126   7.849   2.495  0.2997 -0.0368  0.4000
  913MOL0     O23128   9.016   7.855   2.567  0.3552 -0.7789  0.3116
  913MOL0     C23129   9.033   7.806   2.696  0.2629 -0.1620  0.2039
  913MOL0     C23130   8.903   7.741   2.743  0.2476 -0.0716  0.6366
  913MOL0     C23131   8.847   7.623   2.656 -0.2975 -0.2897 -0.0461
  913MOL0     C23132   8.946   7.514   2.608 -0.4391  0.3710 -0.7784
  913MOL0     C23133   8.907   7.440   2.481 -0.0388 -0.7548  0.6917
  913MOL0     C23134   8.794   7.341   2.519 -0.2134 -0.3758 -0.0870
  913MOL0     C23135   8.738   7.262   2.401 -0.5557 -0.1285 -0.5774
  913MOL0     C23136   8.638   7.142   2.439 -0.7519 -0.7496  0.6258
  913MOL0     N23137   8.504   7.187   2.481  0.5713  0.2699  0.4726
  913MOL0     C23138   8.387   7.163   2.417 -0.9587 -0.2043 -0.2502
  913MOL0     C23139   8.292   7.220   2.487 -0.4733  0.1113  0.3772
  913MOL0     C23140   8.147   7.185   2.462 -1.0679 -0.5247  0.1011
  913MOL0     C23141   8.056   7.310   2.439 -0.0465  1.6362 -0.2397
  913MOL0     C23142   8.107   7.447   2.391  0.5491 -0.1325  0.2551
  913MOL0     C23143   8.177   7.435   2.258  0.9728 -0.6260  1.3150
  913MOL0     O23144   8.205   7.564   2.199 -0.4927  0.3741 -0.6406
  913MOL0     C23145   8.121   7.627   2.107 -0.0763 -0.8896 -0.8447
  913MOL0     C23146   7.994   7.581   2.071 -0.0643 -0.4993  0.2505
  913MOL0     C23147   7.916   7.633   1.968 -0.4496 -0.4243 -0.0480
  913MOL0     C23148   7.970   7.730   1.893 -0.5237 -0.2077  0.8080
  913MOL0     C23149   7.893   7.794   1.782  0.0455 -0.1417  0.0233
  913MOL0     O23150   7.753   7.779   1.781  0.4664  0.0979 -0.1213
  913MOL0     C23151   7.673   7.848   1.700  0.3102  0.0654 -0.8652
  913MOL0     C23152   7.551   7.881   1.760  0.3076 -0.3530 -0.1531
  913MOL0     C23153   7.464   7.960   1.697 -0.2527  1.0796 -0.4261
  913MOL0     C23154   7.478   8.000   1.563  0.3096 -0.3510  0.1546
  913MOL0     O23155   7.377   8.070   1.497 -0.5470 -0.2207 -0.2648
  913MOL0     C23156   7.376   8.093   1.357 -0.4369  0.3336  0.5281
  913MOL0     C23157   7.460   8.203   1.312  0.1332 -0.5822 -0.4650
  913MOL0     C23158   7.507   8.168   1.165  0.6462 -0.2027  0.2403
  913MOL0     C23159   7.630   8.251   1.124 -0.7605 -0.2384  0.5129
  913MOL0     C23160   7.751   8.236   1.214  0.3497 -1.1645  0.6242
  913MOL0     C23161   7.878   8.303   1.155  0.4638  0.2335 -0.6228
  913MOL0     C23162   7.946   8.211   1.054  0.3112 -0.6986  0.7154
  913MOL0     C23163   8.076   8.268   0.992 -0.5800 -0.4627  0.2684
  913MOL0    Cl23164   8.185   8.313   1.120 -0.2350 -0.1882 -0.0963
  913MOL0     C23165   7.610   7.977   1.514 -0.1321 -0.7677 -0.0186
  913MOL0     C23166   7.701   7.897   1.572  0.8344  0.2589 -0.1974
  913MOL0     O23167   7.957   7.861   1.699  0.6656  0.5438  0.0832
  913MOL0     C23168   8.095   7.783   1.922  1.0184  0.2082 -0.6111
  913MOL0     C23169   8.162   7.733   2.036  0.0425 -0.2459  1.0590
  913MOL0     N23170   8.347   7.282   2.601  0.8615  0.0316  0.1878
  913MOL0     N23171   8.471   7.255   2.592 -0.4199  0.2098  0.4889
  913MOL0     C23172   9.262   7.813   2.526 -0.7979  0.2422 -0.4654
  913MOL0     C23173   9.363   7.829   2.434 -0.2962  0.0714  0.0386
  913MOL0     C23174   9.558   7.834   2.009  0.6161  0.1912 -0.0899
  913MOL0     C23175   9.638   7.729   2.058  0.2847  0.2966 -0.4247
  913MOL0     C23176   9.748   7.681   1.985  0.2866  0.6988  0.2822
  913MOL0     C23177   9.775   7.726   1.855 -0.1470 -0.0146  0.4849
  913MOL0     O23178   9.884   7.674   1.792  0.1039 -0.7301 -0.8556
  913MOL0     C23179   9.904   7.675   1.656 -1.8198 -0.4452  0.3571
  913MOL0     C23180  10.044   7.634   1.626  0.1661 -0.8290  0.2386
  913MOL0     C23181  10.071   7.485   1.658  0.3836  0.4585 -0.1530
  913MOL0     C23182  10.071   7.452   1.806  0.3366  0.9866 -0.6435
  913MOL0     C23183  10.196   7.501   1.869  0.2686  0.4009  0.4588
  913MOL0     C23184  10.277   7.552   1.939 -0.8108  0.0443  1.1973
  913MOL0     C23185   9.702   7.831   1.803  0.7032  0.6314  0.1758
  913MOL0     C23186   9.596   7.888   1.878  0.4176 -0.5661 -0.2866
  913MOL0     C23187   9.539   8.018   1.831 -0.0086  0.1668 -0.0780
  913MOL0     H23188   9.181   7.962   2.177  2.0932 -1.0717  0.3844
  913MOL0     H23189   8.996   7.921   2.346 -1.1781 -1.4440  1.7269
  913MOL0     H23190   9.116   7.735   2.695  1.3173  0.9851 -1.9189
  913MOL0     H23191   9.059   7.884   2.767  1.0376 -0.3214  0.1033
  913MOL0     H23192   8.830   7.821   2.735  0.2729 -0.1431 -0.4162
  913MOL0     H23193   8.914   7.695   2.841 -1.3419 -1.0774  0.3733
  913MOL0     H23194   8.801   7.666   2.567  1.5560  1.7560 -0.1190
  913MOL0     H23195   8.771   7.578   2.721 -1.7670  2.4285  0.2470
  913MOL0     H23196   9.033   7.573   2.575 -1.9104  2.3900 -1.2053
  913MOL0     H23197   8.980   7.442   2.683 -0.7899  0.2510 -0.7369
  913MOL0     H23198   8.880   7.516   2.407  3.0002  0.3250  0.5541
  913MOL0     H23199   8.984   7.374   2.440  0.4215  1.8406 -3.1940
  913MOL0     H23200   8.831   7.269   2.593 -1.3223 -1.3206 -0.4120
  913MOL0     H23201   8.715   7.407   2.556 -1.6424 -1.6824 -0.6798
  913MOL0     H23202   8.826   7.225   2.347 -0.0490  0.5541 -0.2378
  913MOL0     H23203   8.679   7.334   2.344 -0.6011  1.6938  1.6583
  913MOL0     H23204   8.641   7.085   2.345 -2.5129 -3.5964  2.1492
  913MOL0     H23205   8.680   7.072   2.511 -0.7734 -2.3186 -0.8233
  913MOL0     H23206   8.369   7.114   2.322 -1.7778  2.0497 -1.3557
  913MOL0     H23207   8.143   7.120   2.374  0.0844 -2.1252  1.1973
  913MOL0     H23208   8.104   7.133   2.547  0.0857  0.6666  1.4579
  913MOL0     H23209   7.978   7.283   2.367 -1.3651  1.2041  1.3014
  913MOL0     H23210   8.008   7.311   2.537 -2.5126 -0.9045 -1.2602
  913MOL0     H23211   8.172   7.488   2.469  1.8963  3.6736 -2.5704
  913MOL0     H23212   8.020   7.513   2.389  1.2129  0.7853  0.8440
  913MOL0     H23213   8.120   7.378   2.184 -1.2055  2.8392  0.0946
  913MOL0     H23214   8.272   7.380   2.260  0.2865 -1.8437  1.5609
  913MOL0     H23215   7.945   7.512   2.140  2.9077 -3.2993 -0.1707
  913MOL0     H23216   7.813   7.604   1.950 -0.5233  1.5258 -3.9412
  913MOL0     H23217   7.547   7.855   1.866 -1.6840  0.1747 -0.0509
  913MOL0     H23218   7.384   8.003   1.756 -2.3565  1.3652 -3.2874
  913MOL0     H23219   7.404   8.002   1.303 -0.5434  0.2540  0.6049
  913MOL0     H23220   7.272   8.110   1.328 -0.2484  0.9770  0.2258
  913MOL0     H23221   7.401   8.295   1.320  0.2507 -0.6342  1.3107
  913MOL0     H23222   7.550   8.220   1.372 -1.2286  0.5465  1.3623
  913MOL0     H23223   7.538   8.063   1.158  3.0735  0.4375  0.3222
  913MOL0     H23224   7.417   8.187   1.105 -0.2581 -1.3326  1.1970
  913MOL0     H23225   7.616   8.359   1.109  0.1804  0.0431  1.4878
  913MOL0     H23226   7.662   8.227   1.022  1.0764 -2.7420  1.5815
  913MOL0     H23227   7.770   8.132   1.242  1.8309 -0.8979  0.7152
  913MOL0     H23228   7.733   8.281   1.312 -1.6996 -3.7377  1.5360
  913MOL0     H23229   7.869   8.404   1.112  0.8656  0.7099  0.3948
  913MOL0     H23230   7.945   8.311   1.241  0.7179  4.2993 -0.9901
  913MOL0     H23231   7.883   8.185   0.969  2.4140 -1.2942 -0.7342
  913MOL0     H23232   7.972   8.124   1.115 -0.2103 -1.1910  0.2414
  913MOL0     H23233   8.118   8.188   0.929  0.6823  0.5602 -0.2319
  913MOL0     H23234   8.047   8.358   0.937  2.5896  0.1493 -0.6145
  913MOL0     H23235   7.638   8.005   1.413  3.1247 -2.3391  0.3232
  913MOL0     H23236   7.795   7.871   1.523  1.8712 -0.6304  2.1081
  913MOL0     H23237   8.143   7.863   1.866  0.4282  0.0684 -1.3355
  913MOL0     H23238   8.260   7.779   2.048  0.1665  1.9886 -4.9130
  913MOL0     H23239   9.297   7.766   2.617 -1.1811 -1.0210 -0.9503
  913MOL0     H23240   9.467   7.809   2.459 -0.9013 -1.9012  1.1565
  913MOL0     H23241   9.610   7.689   2.155 -1.4186  0.6764 -0.7242
  913MOL0     H23242   9.829   7.616   2.015 -0.9314 -0.7080  0.6734
  913MOL0     H23243   9.915   7.782   1.636 -1.0809 -0.4319  0.7679
  913MOL0     H23244   9.828   7.627   1.594  0.1018 -1.6260 -1.2224
  913MOL0     H23245  10.120   7.705   1.662 -0.9496  1.7530 -2.0986
  913MOL0     H23246  10.051   7.654   1.519 -0.8869 -0.1800  0.2842
  913MOL0     H23247  10.150   7.441   1.597  0.7730  1.6195 -0.5234
  913MOL0     H23248   9.976   7.452   1.614  2.0505 -1.7877 -2.3097
  913MOL0     H23249   9.984   7.477   1.868  1.7050 -1.8165  2.7373
  913MOL0     H23250  10.075   7.343   1.819 -0.4132  1.2012  2.0960
  913MOL0     H23251  10.357   7.592   2.000 -0.8634  0.8796  0.7411
  913MOL0     H23252   9.733   7.882   1.712 -0.0734  0.1436 -0.3835
  913MOL0     H23253   9.580   8.054   1.736  0.1353  3.0845  1.0071
  913MOL0     H23254   9.433   7.999   1.814 -1.1882  3.8799  1.9967
  913MOL0     H23255   9.543   8.093   1.910 -1.5204 -0.8796  1.0379
  914MOL0     O23256   0.420   1.540   1.129 -0.5444 -0.0432  0.0379
  914MOL0     C23257   0.315   1.505   1.078 -0.0396 -0.7434 -0.0074
  914MOL0     O23258   0.215   1.600   1.036 -0.9944  0.6202  0.1798
  914MOL0     C23259   0.234   1.728   1.035 -0.0568  0.0581  0.3733
  914MOL0     C23260   0.116   1.806   1.041 -0.4519 -0.3875  0.0163
  914MOL0     C23261   0.123   1.939   1.071 -0.0474 -0.7904  0.1674
  914MOL0     C23262   0.246   2.006   1.085 -0.0569  0.4772  0.6269
  914MOL0     O23263   0.243   2.142   1.097  0.1346  0.3131  0.7551
  914MOL0     C23264   0.260   2.173   1.233  0.2230 -0.6059 -0.5364
  914MOL0     C23265   0.239   2.317   1.267 -0.0639  0.3148 -1.0562
  914MOL0     C23266   0.095   2.354   1.223 -0.8312  0.0402  0.2002
  914MOL0     C23267   0.071   2.497   1.280  0.5780  0.5673 -0.3368
  914MOL0     C23268  -0.075   2.535   1.299  0.3044 -0.7526 -0.0511
  914MOL0     C23269  -0.152   2.523   1.169 -0.5979 -0.5772 -0.3305
  914MOL0     C23270  -0.284   2.582   1.192 -0.3210 -0.4014 -0.6230
  914MOL0     C23271  -0.364   2.563   1.063  0.2962  0.2949 -0.4765
  914MOL0     N23272  -0.510   2.596   1.073 -0.1807 -0.4931 -0.6759
  914MOL0     C23273  -0.599   2.540   1.172  1.2200  0.4095 -0.3292
  914MOL0     C23274  -0.710   2.616   1.169 -0.3998 -0.4546  0.6721
  914MOL0     C23275  -0.838   2.603   1.249 -0.0001  0.1439 -0.2949
  914MOL0     C23276  -0.851   2.480   1.340 -0.7117 -0.2537  0.2782
  914MOL0     C23277  -0.996   2.444   1.386 -0.7184  0.6390 -0.2983
  914MOL0     C23278  -1.052   2.342   1.302 -0.4998  0.1006 -0.2852
  914MOL0     O23279  -0.987   2.211   1.289  0.4049 -0.1591  0.4059
  914MOL0     C23280  -0.993   2.158   1.158 -0.4047 -0.4314  0.5122
  914MOL0     C23281  -0.879   2.082   1.122 -1.2966 -1.2079  0.4862
  914MOL0     C23282  -0.876   2.009   1.007  0.0094 -0.1420 -0.4355
  914MOL0     C23283  -0.971   2.036   0.903  0.6446  0.0797 -0.5099
  914MOL0     C23284  -0.968   1.973   0.771 -0.5844  0.3229  0.1439
  914MOL0     O23285  -1.082   1.981   0.695  0.0173  0.5688  0.5495
  914MOL0     C23286  -1.085   1.944   0.560 -0.9820 -0.8350  0.2243
  914MOL0     C23287  -1.211   1.927   0.508 -0.1069  0.5868  0.1404
  914MOL0     C23288  -1.230   1.898   0.374  0.1135 -0.3467  0.6942
  914MOL0     C23289  -1.121   1.882   0.283 -1.4325 -0.6549 -0.4446
  914MOL0     O23290  -1.150   1.866   0.158 -0.6533 -0.2489 -0.4290
  914MOL0     C23291  -1.053   1.921   0.066  0.9416  1.1396 -0.1703
  914MOL0     C23292  -1.128   1.973  -0.060  0.4373  1.4649  0.2948
  914MOL0     C23293  -1.207   1.871  -0.150 -0.1445  0.0345 -0.7157
  914MOL0     C23294  -1.124   1.761  -0.216  0.4525  0.1039 -0.4897
  914MOL0     C23295  -1.201   1.673  -0.324 -0.3765 -0.8830  0.7322
  914MOL0     C23296  -1.110   1.571  -0.397  0.3963 -0.0140  0.5915
  914MOL0     C23297  -1.056   1.455  -0.316  1.5832  0.9276 -0.1144
  914MOL0     C23298  -0.975   1.345  -0.378  0.9231 -0.5336  0.4284
  914MOL0    Cl23299  -0.849   1.411  -0.489 -0.0517 -0.1491 -0.5209
  914MOL0     C23300  -0.992   1.898   0.336  0.1373 -0.4523 -0.0288
  914MOL0     C23301  -0.970   1.929   0.470  1.2414 -0.4006 -0.0094
  914MOL0     O23302  -0.858   1.927   0.737 -0.1491  0.1147  0.5174
  914MOL0     C23303  -1.079   2.115   0.943  0.4263  0.5262 -0.0149
  914MOL0     C23304  -1.085   2.178   1.065  0.2353 -0.7837 -0.1300
  914MOL0     N23305  -0.692   2.708   1.065  0.4776  0.9994 -0.4400
  914MOL0     N23306  -0.577   2.693   1.009  0.3169  0.2002 -0.1187
  914MOL0     C23307   0.364   1.939   1.072 -0.8012  0.8912  0.4507
  914MOL0     C23308   0.363   1.803   1.040  0.9807  0.4845 -0.8326
  914MOL0     C23309   0.288   1.361   1.052  0.1519  0.2486 -0.0060
  914MOL0     C23310   0.391   1.274   1.047 -0.2011  0.2260 -0.4943
  914MOL0     C23311   0.380   1.135   1.032  0.4849 -0.4823 -0.5783
  914MOL0     C23312   0.254   1.084   1.020  0.2068 -0.7325  0.7310
  914MOL0     O23313   0.247   0.949   0.997  0.2776  0.1001  0.4409
  914MOL0     C23314   0.127   0.872   1.025  0.1282  0.4037 -0.6581
  914MOL0     C23315   0.065   0.888   1.177 -0.6414  0.4828  0.3835
  914MOL0     C23316   0.138   0.828   1.301  0.6499 -0.4200  0.3703
  914MOL0     C23317   0.131   0.672   1.308  0.7946  0.0237 -0.5732
  914MOL0     C23318   0.146   0.630   1.445  0.3862  0.6989  0.1815
  914MOL0     C23319   0.145   0.596   1.560 -0.2331  0.2209  0.1646
  914MOL0     C23320   0.145   1.168   1.038 -0.6919  0.1776  0.9694
  914MOL0     C23321   0.160   1.311   1.038 -0.5092 -0.3234  0.3674
  914MOL0     C23322   0.031   1.397   1.040  0.1235 -0.5784 -0.1815
  914MOL0     H23323   0.019   1.758   1.029 -0.3011 -0.5421 -0.6294
  914MOL0     H23324   0.027   1.987   1.088 -0.0107 -0.7166  0.1635
  914MOL0     H23325   0.198   2.104   1.290  1.3831 -1.5827 -0.4175
  914MOL0     H23326   0.364   2.155   1.263 -0.1583  0.0920  1.3104
  914MOL0     H23327   0.310   2.375   1.207 -0.5749  3.6300  1.2842
  914MOL0     H23328   0.266   2.329   1.372  1.4016  0.4998 -1.4318
  914MOL0     H23329   0.015   2.299   1.274 -1.8578 -0.1905 -1.6078
  914MOL0     H23330   0.083   2.340   1.115  1.8757  0.1416 -0.1698
  914MOL0     H23331   0.123   2.507   1.376  2.8779 -1.8569 -1.2076
  914MOL0     H23332   0.112   2.571   1.210 -0.3969  1.3596 -0.0854
  914MOL0     H23333  -0.128   2.473   1.371  0.3357 -0.0575  0.5831
  914MOL0     H23334  -0.080   2.634   1.346 -2.9198 -1.3035  1.0290
  914MOL0     H23335  -0.105   2.578   1.087  0.1223  0.8204  0.9708
  914MOL0     H23336  -0.162   2.418   1.139 -3.7819 -0.4188 -0.2440
  914MOL0     H23337  -0.273   2.685   1.227  0.7769 -0.0705 -1.8760
  914MOL0     H23338  -0.346   2.534   1.269 -0.9265  1.2653 -0.0201
  914MOL0     H23339  -0.320   2.632   0.990  1.0262 -2.9049 -3.3423
  914MOL0     H23340  -0.344   2.468   1.011  1.4163  0.4364 -0.3263
  914MOL0     H23341  -0.580   2.465   1.248 -0.1455  0.7543  0.3870
  914MOL0     H23342  -0.845   2.689   1.317  1.4630 -0.9101  1.2873
  914MOL0     H23343  -0.915   2.601   1.172  1.4657 -2.1255 -1.8225
  914MOL0     H23344  -0.806   2.394   1.289  0.6739  0.6184 -0.0102
  914MOL0     H23345  -0.780   2.503   1.420  1.0791  3.0240 -2.0231
  914MOL0     H23346  -1.061   2.533   1.391 -2.3330 -0.5539  3.1534
  914MOL0     H23347  -1.007   2.412   1.490 -2.6921 -0.3529 -0.7664
  914MOL0     H23348  -1.069   2.387   1.203  2.6872 -0.0273 -0.9971
  914MOL0     H23349  -1.148   2.313   1.344  0.8805  0.3078  3.3516
  914MOL0     H23350  -0.804   2.077   1.201  0.6036 -2.5930 -1.2823
  914MOL0     H23351  -0.782   1.957   0.991  0.3731 -0.5597  2.5513
  914MOL0     H23352  -1.296   1.942   0.574 -1.5308 -4.3609 -0.2200
  914MOL0     H23353  -1.330   1.875   0.339  0.4545  1.5175 -1.7378
  914MOL0     H23354  -1.004   2.009   0.110 -1.9342  2.3520  0.9009
  914MOL0     H23355  -0.973   1.853   0.039 -0.4459 -0.5680 -0.1804
  914MOL0     H23356  -1.201   2.050  -0.029 -0.7725 -0.3645  2.3325
  914MOL0     H23357  -1.059   2.025  -0.126  3.2585 -1.2598  0.8895
  914MOL0     H23358  -1.291   1.827  -0.095  1.6138 -2.9900 -0.2214
  914MOL0     H23359  -1.252   1.947  -0.214 -1.0873 -1.0769 -1.4195
  914MOL0     H23360  -1.092   1.698  -0.133 -1.2357  1.1966  1.0678
  914MOL0     H23361  -1.031   1.800  -0.258 -0.0579  0.9867 -0.8263
  914MOL0     H23362  -1.248   1.728  -0.406  1.3238  0.9133  0.8647
  914MOL0     H23363  -1.284   1.624  -0.273 -0.5417 -0.0538  1.2853
  914MOL0     H23364  -1.162   1.528  -0.482 -0.0834 -1.2625  1.4831
  914MOL0     H23365  -1.017   1.618  -0.431  2.4825 -3.0341  1.6624
  914MOL0     H23366  -1.137   1.395  -0.273  0.9860  0.8430 -1.3112
  914MOL0     H23367  -0.993   1.500  -0.238  2.4126 -1.4561  0.6992
  914MOL0     H23368  -0.921   1.279  -0.309 -0.3298  1.2912  3.3512
  914MOL0     H23369  -1.044   1.284  -0.437  0.4452  0.4529 -0.0399
  914MOL0     H23370  -0.903   1.885   0.275  3.6101 -0.2567  4.4642
  914MOL0     H23371  -0.874   1.956   0.512  0.7739 -0.4229  1.0936
  914MOL0     H23372  -1.168   2.132   0.884 -0.5423  1.2739  1.6002
  914MOL0     H23373  -1.170   2.244   1.081  0.3867 -0.4710 -0.6146
  914MOL0     H23374   0.454   1.998   1.087  1.9622 -1.3653 -4.6801
  914MOL0     H23375   0.456   1.748   1.023  0.1562 -1.5137  0.7265
  914MOL0     H23376   0.490   1.314   1.065 -1.1223  2.2133  0.4300
  914MOL0     H23377   0.466   1.070   1.044 -0.1022 -1.1064  0.3119
  914MOL0     H23378   0.134   0.765   1.005 -0.5390  0.2161  0.0954
  914MOL0     H23379   0.056   0.900   0.946 -0.2668  2.5632  0.3895
  914MOL0     H23380  -0.032   0.837   1.174 -0.1060 -0.5260 -2.4673
  914MOL0     H23381   0.049   0.994   1.201 -1.1082  0.5351 -0.1293
  914MOL0     H23382   0.108   0.869   1.397  0.5870  0.3301  0.0410
  914MOL0     H23383   0.241   0.862   1.284  0.3686 -0.4849 -1.7743
  914MOL0     H23384   0.029   0.638   1.287  0.0723 -0.9171  3.5074
  914MOL0     H23385   0.197   0.611   1.246  1.0821 -0.4601  0.1993
  914MOL0     H23386   0.160   0.540   1.651 -1.8580 -1.3449 -0.4828
  914MOL0     H23387   0.056   1.112   1.012 -0.5612  0.9616 -1.4768
  914MOL0     H23388  -0.054   1.333   1.065  0.5803 -0.7529  0.9764
  914MOL0     H23389   0.040   1.471   1.120 -0.4725  0.8753 -1.4014
  914MOL0     H23390   0.012   1.457   0.951 -2.0282 -0.3488  0.3958
  915MOL0     O23391   0.836   9.380   5.952  0.1784 -0.1685 -0.8364
  915MOL0     C23392   0.743   9.468   5.969  0.0101  0.3952 -0.6885
  915MOL0     O23393   0.644   9.472   6.067 -0.5888 -0.4071  0.8117
  915MOL0     C23394   0.651   9.387   6.174  0.6762 -0.1163  1.3078
  915MOL0     C23395   0.640   9.252   6.146 -0.2220  1.0943 -0.8595
  915MOL0     C23396   0.637   9.158   6.255  1.2496 -0.3161  1.0930
  915MOL0     C23397   0.655   9.195   6.391 -0.2762  0.6112  0.1433
  915MOL0     O23398   0.668   9.115   6.504  0.0250 -0.2465  0.4328
  915MOL0     C23399   0.634   8.978   6.492  0.1286  0.2786 -0.4901
  915MOL0     C23400   0.634   8.907   6.634 -0.3379  0.0849 -0.5442
  915MOL0     C23401   0.565   9.006   6.739  0.1246 -0.2915  0.0222
  915MOL0     C23402   0.525   8.933   6.871  0.1956 -0.1846  0.5032
  915MOL0     C23403   0.411   9.004   6.952 -0.2489  0.6542 -0.0638
  915MOL0     C23404   0.396   8.938   7.088 -0.0078  0.4363 -0.2034
  915MOL0     C23405   0.272   8.994   7.159 -0.6902  0.4239  0.3132
  915MOL0     C23406   0.257   8.899   7.276 -0.5165  0.5765 -0.1586
  915MOL0     N23407   0.164   8.934   7.379 -0.1321 -0.4374 -1.1382
  915MOL0     C23408   0.158   8.876   7.502  0.1993  0.5620  0.0896
  915MOL0     C23409   0.061   8.946   7.569 -0.2393  1.0366 -0.8334
  915MOL0     C23410   0.004   8.940   7.709  0.1581 -0.3370  0.7452
  915MOL0     C23411   0.122   8.948   7.801 -0.6923 -0.1547 -0.2061
  915MOL0     C23412   0.089   9.007   7.942  0.2199 -0.2268 -0.3095
  915MOL0     C23413   0.224   9.054   7.996  0.2297 -0.5026  0.1377
  915MOL0     O23414   0.229   9.089   8.129 -0.1092  0.2921 -0.1741
  915MOL0     C23415   0.284   8.996   8.220 -0.0018  0.9315  0.3643
  915MOL0     C23416   0.198   8.913   8.294 -0.3098  0.1230 -0.1374
  915MOL0     C23417   0.266   8.814   8.381  1.3339 -0.2899  0.1305
  915MOL0     C23418   0.406   8.801   8.381 -0.1094  0.2292 -0.5637
  915MOL0     C23419   0.478   8.704   8.469  0.5950 -0.4118  0.1913
  915MOL0     O23420   0.605   8.740   8.506  0.2083  0.0067 -0.4363
  915MOL0     C23421   0.632   8.674   8.617 -0.6283 -0.0527  0.2749
  915MOL0     C23422   0.660   8.533   8.627  0.4153  0.1636  0.2717
  915MOL0     C23423   0.692   8.478   8.751  1.0063  0.4306 -0.4800
  915MOL0     C23424   0.701   8.561   8.866  0.2078 -0.8941  0.2745
  915MOL0     O23425   0.727   8.506   8.992 -0.2970  0.6099  0.2583
  915MOL0     C23426   0.736   8.588   9.116  0.1197  0.4410 -0.2764
  915MOL0     C23427   0.827   8.502   9.211 -0.2308  0.1145 -0.2527
  915MOL0     C23428   0.755   8.367   9.250 -0.1216 -0.3524 -0.0784
  915MOL0     C23429   0.799   8.323   9.395 -0.7460  0.5400 -0.1595
  915MOL0     C23430   0.732   8.384   9.510 -0.5845 -0.2601 -0.6175
  915MOL0     C23431   0.788   8.342   9.643 -0.6940 -0.7948  0.9200
  915MOL0     C23432   0.742   8.425   9.764  0.1079 -0.6301  0.3960
  915MOL0     C23433   0.786   8.570   9.761 -0.0978  0.4222  1.3777
  915MOL0    Cl23434   0.672   8.687   9.693  0.1121 -0.4741 -0.3367
  915MOL0     C23435   0.659   8.699   8.851  0.7393 -1.4349 -0.3352
  915MOL0     C23436   0.627   8.758   8.728 -0.3603  0.3023 -0.9162
  915MOL0     O23437   0.423   8.591   8.473 -0.5313 -0.1573  0.5148
  915MOL0     C23438   0.483   8.888   8.296  0.3823  0.1688  1.0137
  915MOL0     C23439   0.419   8.979   8.218  0.3220  0.4504  1.2743
  915MOL0     N23440   0.026   9.051   7.492 -0.6458 -0.7928  0.1273
  915MOL0     N23441   0.084   9.045   7.377 -0.9867  0.7235  1.0324
  915MOL0     C23442   0.665   9.332   6.411 -0.2257  0.0258 -0.4378
  915MOL0     C23443   0.668   9.423   6.309 -0.7116  0.4147  0.3696
  915MOL0     C23444   0.738   9.590   5.874 -0.2692 -0.3967 -0.2268
  915MOL0     C23445   0.638   9.691   5.906 -0.6114  0.2642 -0.4177
  915MOL0     C23446   0.630   9.811   5.826 -0.6049 -0.0970 -0.3029
  915MOL0     C23447   0.716   9.829   5.721 -1.3707 -0.3002  0.9670
  915MOL0     O23448   0.697   9.941   5.646  0.3549  0.1454  0.4600
  915MOL0     C23449   0.748  10.066   5.663 -0.3405  0.4874 -0.1032
  915MOL0     C23450   0.888  10.054   5.689  0.3990 -0.0171  0.7714
  915MOL0     C23451   0.951  10.191   5.661 -1.1608  0.1604  1.0509
  915MOL0     C23452   1.098  10.196   5.703  0.5907  0.5296  0.4542
  915MOL0     C23453   1.106  10.200   5.850 -0.1872 -0.3775  0.0362
  915MOL0     C23454   1.094  10.228   5.967  0.2349 -0.4260 -0.9756
  915MOL0     C23455   0.809   9.731   5.684 -0.2480 -1.1619 -0.2038
  915MOL0     C23456   0.812   9.614   5.758 -0.5599 -0.5072 -0.2404
  915MOL0     C23457   0.918   9.521   5.717 -0.6987 -0.1384  0.2683
  915MOL0     H23458   0.650   9.223   6.042  3.0532 -0.0402 -0.3391
  915MOL0     H23459   0.611   9.056   6.230 -2.4903  0.8496 -0.4755
  915MOL0     H23460   0.535   8.962   6.448  0.1882 -1.5727 -0.0125
  915MOL0     H23461   0.695   8.915   6.427 -1.3115 -1.0157 -0.6322
  915MOL0     H23462   0.739   8.896   6.665  1.3009  0.8643 -4.9768
  915MOL0     H23463   0.581   8.812   6.633 -1.0877  0.3203  3.4776
  915MOL0     H23464   0.484   9.056   6.685  0.0033 -3.3361 -2.9724
  915MOL0     H23465   0.631   9.090   6.763  0.6117 -0.7331  0.2722
  915MOL0     H23466   0.500   8.832   6.838  1.9859 -1.4416  2.7619
  915MOL0     H23467   0.619   8.931   6.927  2.4720 -1.2091 -2.9927
  915MOL0     H23468   0.443   9.108   6.962  3.6191 -0.2834 -1.3044
  915MOL0     H23469   0.314   8.999   6.901  0.2581  2.5706 -1.3172
  915MOL0     H23470   0.373   8.834   7.062 -0.1224  0.5668 -0.6458
  915MOL0     H23471   0.487   8.949   7.148 -0.6451 -0.0382  0.8751
  915MOL0     H23472   0.195   8.993   7.082  0.2871  4.8165 -1.0100
  915MOL0     H23473   0.287   9.098   7.189  0.8460 -0.6215  3.5909
  915MOL0     H23474   0.243   8.797   7.239 -1.1213  0.1277  1.2741
  915MOL0     H23475   0.351   8.888   7.331 -1.3129  2.3735  1.6690
  915MOL0     H23476   0.220   8.796   7.542  1.4493  2.3718  1.9844
  915MOL0     H23477  -0.064   9.022   7.730 -0.5451 -1.1166  1.5566
  915MOL0     H23478  -0.049   8.844   7.709 -2.8818  1.2244  1.2489
  915MOL0     H23479   0.161   8.847   7.811 -0.5614 -0.2427 -1.4423
  915MOL0     H23480   0.185   9.025   7.757  0.2833 -1.4584 -1.1636
  915MOL0     H23481   0.045   8.938   8.015  0.9210 -2.6884 -2.0607
  915MOL0     H23482   0.015   9.086   7.929 -0.6638 -0.9608  0.0991
  915MOL0     H23483   0.255   9.149   7.951 -0.5128  0.8682  2.3544
  915MOL0     H23484   0.301   8.977   7.984  1.6937  0.8442  0.4786
  915MOL0     H23485   0.093   8.940   8.289 -0.0266  1.0656 -3.7575
  915MOL0     H23486   0.201   8.763   8.451 -0.5397  2.2564  0.4273
  915MOL0     H23487   0.660   8.466   8.541 -0.4066  0.3203  0.1410
  915MOL0     H23488   0.713   8.372   8.760 -2.8115 -0.5220 -0.8024
  915MOL0     H23489   0.791   8.681   9.099 -1.0835  1.1273 -0.5591
  915MOL0     H23490   0.633   8.613   9.146  0.0402  3.2580 -2.4718
  915MOL0     H23491   0.927   8.476   9.176 -0.3833  2.7962 -3.0496
  915MOL0     H23492   0.845   8.563   9.300  0.6252  0.4460 -0.6512
  915MOL0     H23493   0.648   8.390   9.260  0.0500 -0.3018  2.0633
  915MOL0     H23494   0.777   8.283   9.183 -1.3866 -0.7021 -0.0854
  915MOL0     H23495   0.905   8.345   9.410 -0.1323 -3.1686  2.2725
  915MOL0     H23496   0.781   8.215   9.396  3.1636 -0.2685  2.1302
  915MOL0     H23497   0.627   8.352   9.506 -1.2410  1.8647 -3.1223
  915MOL0     H23498   0.734   8.493   9.503 -1.0929 -0.3345 -2.1269
  915MOL0     H23499   0.779   8.234   9.658  2.6271 -1.1404  1.0958
  915MOL0     H23500   0.896   8.355   9.643 -0.8995  1.2316  0.5384
  915MOL0     H23501   0.769   8.382   9.861  2.9347  0.1335  0.0316
  915MOL0     H23502   0.633   8.415   9.759  0.3572 -3.4101 -3.0559
  915MOL0     H23503   0.811   8.596   9.864  1.0049 -0.5184  1.3582
  915MOL0     H23504   0.882   8.572   9.708 -0.1532  0.3610  1.2747
  915MOL0     H23505   0.659   8.760   8.941  2.5503  0.6935 -1.6513
  915MOL0     H23506   0.603   8.863   8.739  0.8245  0.2999  4.1321
  915MOL0     H23507   0.591   8.881   8.290  0.3727  1.1096 -0.7695
  915MOL0     H23508   0.482   9.040   8.155  0.5413 -1.0336 -0.0227
  915MOL0     H23509   0.677   9.382   6.506 -0.3837 -0.6530 -0.0565
  915MOL0     H23510   0.677   9.530   6.324 -1.3267  1.2923 -4.1583
  915MOL0     H23511   0.575   9.681   5.994  0.2123  1.1354  0.2766
  915MOL0     H23512   0.557   9.888   5.850  2.1538  3.3422 -2.0195
  915MOL0     H23513   0.697  10.116   5.747 -0.3018 -0.8269  0.7257
  915MOL0     H23514   0.729  10.121   5.571 -3.5478  0.7564  0.5981
  915MOL0     H23515   0.941   9.977   5.633 -0.8864 -1.4706  1.4784
  915MOL0     H23516   0.901  10.034   5.796  0.2937  1.3962  1.0767
  915MOL0     H23517   0.894  10.260   5.723  0.5921  2.8501 -0.1496
  915MOL0     H23518   0.942  10.225   5.557  1.4953  1.0660  1.0658
  915MOL0     H23519   1.158  10.109   5.674  0.4259  1.5120 -3.4249
  915MOL0     H23520   1.148  10.278   5.651 -1.6332  1.1101 -0.8684
  915MOL0     H23521   1.095  10.252   6.071  1.0928 -2.0372 -0.5814
  915MOL0     H23522   0.876   9.747   5.600  1.6484  1.8765  1.6813
  915MOL0     H23523   0.879   9.428   5.674  3.3563 -2.1423  0.4397
  915MOL0     H23524   0.976   9.563   5.634  3.7179  0.0090  3.0812
  915MOL0     H23525   0.990   9.510   5.799 -0.7415  1.1284  0.4866
  916MOL0     O23526   8.137   5.541   3.300 -0.2045 -0.6484 -1.0662
  916MOL0     C23527   8.017   5.515   3.335  0.3689  0.5060 -0.6934
  916MOL0     O23528   7.945   5.418   3.267 -0.4296 -0.7319 -0.0410
  916MOL0     C23529   7.984   5.398   3.136  0.2789 -0.5639 -0.6997
  916MOL0     C23530   8.014   5.505   3.055 -0.2103 -0.1314  0.3524
  916MOL0     C23531   8.048   5.482   2.924 -0.1807 -0.4625  0.6398
  916MOL0     C23532   8.059   5.348   2.880 -0.4122  0.3892  0.2969
  916MOL0     O23533   8.096   5.314   2.750 -0.1357  0.4034 -0.1032
  916MOL0     C23534   8.130   5.414   2.650 -0.2957  1.0308  1.1160
  916MOL0     C23535   8.192   5.345   2.527 -0.5372 -0.0066 -0.1585
  916MOL0     C23536   8.324   5.288   2.566  0.2187 -0.1047 -0.0075
  916MOL0     C23537   8.383   5.207   2.450  0.5977  0.3717  0.2702
  916MOL0     C23538   8.520   5.137   2.482  0.6158  0.4966  0.3148
  916MOL0     C23539   8.641   5.229   2.480 -0.2121  0.0808  0.4136
  916MOL0     C23540   8.716   5.264   2.357 -0.4401  0.4162 -0.5812
  916MOL0     C23541   8.865   5.301   2.376  0.2590 -1.2583  0.6707
  916MOL0     N23542   8.894   5.432   2.441 -0.5264  1.0205 -0.5375
  916MOL0     C23543   8.939   5.448   2.568  0.2326  0.5346 -0.1401
  916MOL0     C23544   8.941   5.581   2.573  0.1556  0.5765 -0.6200
  916MOL0     C23545   8.984   5.659   2.692  0.2982  0.7568  0.0107
  916MOL0     C23546   8.865   5.712   2.771  0.0554 -0.4417  0.3603
  916MOL0     C23547   8.906   5.756   2.904 -0.1614 -0.0870 -0.6990
  916MOL0     C23548   8.825   5.877   2.964  0.0044 -0.2841  0.7794
  916MOL0     O23549   8.712   5.834   3.037 -0.1667 -0.1726 -0.6509
  916MOL0     C23550   8.640   5.908   3.125 -0.4729 -0.5543 -0.8979
  916MOL0     C23551   8.523   5.860   3.181  0.5492  0.0428 -0.2663
  916MOL0     C23552   8.455   5.932   3.276  0.0834 -0.4539 -0.5965
  916MOL0     C23553   8.490   6.065   3.306 -0.7681  0.4706 -1.0186
  916MOL0     C23554   8.414   6.134   3.405  0.6677 -0.5874 -0.2016
  916MOL0     O23555   8.421   6.272   3.417 -0.0141  1.1053  0.8583
  916MOL0     C23556   8.333   6.328   3.508  0.0175  0.4307  0.4520
  916MOL0     C23557   8.261   6.447   3.470 -0.3163 -0.3789  0.0981
  916MOL0     C23558   8.194   6.523   3.561  0.5331 -0.2075  0.4986
  916MOL0     C23559   8.192   6.485   3.694  0.1341  0.2062 -1.0507
  916MOL0     O23560   8.115   6.559   3.782  0.3666 -0.5079 -0.3835
  916MOL0     C23561   8.087   6.700   3.753  0.1305 -0.6314  0.1322
  916MOL0     C23562   8.022   6.765   3.872  0.2026  0.0232 -1.4427
  916MOL0     C23563   8.114   6.777   3.998 -0.9740 -0.4805 -0.1449
  916MOL0     C23564   8.219   6.886   3.987  1.1467 -0.1416  0.5010
  916MOL0     C23565   8.291   6.913   4.116 -1.0204  0.7416 -0.3650
  916MOL0     C23566   8.373   7.046   4.110 -0.1918  0.1091  0.1982
  916MOL0     C23567   8.512   7.025   4.048  1.1081  0.3041 -0.2278
  916MOL0     C23568   8.626   6.971   4.137  0.6381 -0.4777 -0.8133
  916MOL0    Cl23569   8.679   7.085   4.265  0.1239 -0.1388 -0.0165
  916MOL0     C23570   8.266   6.370   3.732  0.7104  0.4255 -0.7337
  916MOL0     C23571   8.340   6.296   3.644 -1.0009 -0.5302  0.6445
  916MOL0     O23572   8.344   6.060   3.480 -0.3141 -0.1224 -0.3890
  916MOL0     C23573   8.604   6.119   3.245 -1.0167  0.5082  0.1209
  916MOL0     C23574   8.676   6.044   3.156  0.6830  0.6206  0.0865
  916MOL0     N23575   8.873   5.642   2.469 -0.6908  0.2081 -0.0062
  916MOL0     N23576   8.849   5.549   2.388  0.1756 -1.3583 -0.2445
  916MOL0     C23577   8.042   5.239   2.963 -0.6376  0.2018 -0.3069
  916MOL0     C23578   7.998   5.260   3.099  1.2229 -1.4397  0.4120
  916MOL0     C23579   7.951   5.569   3.458  0.4092 -0.6200  0.1108
  916MOL0     C23580   7.848   5.487   3.523  0.7374  0.8144 -0.0749
  916MOL0     C23581   7.774   5.523   3.632  0.1497  0.5121  1.5401
  916MOL0     C23582   7.794   5.652   3.688 -0.0894 -0.2903  1.0863
  916MOL0     O23583   7.708   5.682   3.788 -0.1365  0.6459  0.3845
  916MOL0     C23584   7.706   5.815   3.829 -0.7649  0.7764 -0.8514
  916MOL0     C23585   7.620   5.837   3.952  0.0788  0.2105  0.9968
  916MOL0     C23586   7.647   5.974   4.011  0.2801  0.4466 -0.0040
  916MOL0     C23587   7.555   6.081   3.945 -0.0002  0.1036 -1.2155
  916MOL0     C23588   7.588   6.218   4.003 -0.4751 -0.7038 -0.0633
  916MOL0     C23589   7.618   6.327   4.049  0.0290  0.0141  0.2502
  916MOL0     C23590   7.909   5.726   3.642  0.6270  0.4921 -0.4495
  916MOL0     C23591   7.988   5.679   3.537 -0.2613  0.4837  0.1639
  916MOL0     C23592   8.108   5.766   3.491  0.6658  0.4590  0.5081
  916MOL0     H23593   8.021   5.611   3.078 -1.0166  0.6388 -2.4805
  916MOL0     H23594   8.067   5.564   2.856  0.6466 -0.9583  0.2603
  916MOL0     H23595   8.036   5.467   2.630  0.4797  2.9972  2.3350
  916MOL0     H23596   8.214   5.475   2.685  1.3885 -0.6400  0.1941
  916MOL0     H23597   8.198   5.422   2.449 -2.5316  1.6782  1.2568
  916MOL0     H23598   8.127   5.262   2.498  2.5506 -3.0203  0.9088
  916MOL0     H23599   8.317   5.225   2.655  0.7736  1.3660  1.1084
  916MOL0     H23600   8.385   5.369   2.606 -0.8200  2.3276 -2.8905
  916MOL0     H23601   8.314   5.131   2.413  3.4794 -1.6531 -1.3578
  916MOL0     H23602   8.405   5.274   2.367 -1.0839 -0.4727 -0.8977
  916MOL0     H23603   8.511   5.094   2.583 -1.8436  1.0130  0.3581
  916MOL0     H23604   8.532   5.049   2.419  1.3562  1.3932 -0.8364
  916MOL0     H23605   8.621   5.326   2.527  1.8700  1.6601 -1.7689
  916MOL0     H23606   8.714   5.164   2.529 -0.2971 -0.4643 -0.1752
  916MOL0     H23607   8.672   5.343   2.295  2.8326  2.1958 -0.8047
  916MOL0     H23608   8.735   5.175   2.296  1.7815  0.5926 -0.2198
  916MOL0     H23609   8.915   5.224   2.435 -0.5445  0.1370  3.3696
  916MOL0     H23610   8.919   5.298   2.281 -1.2487  0.3852 -0.3121
  916MOL0     H23611   8.955   5.377   2.649 -0.3693 -1.1128 -1.4131
  916MOL0     H23612   9.048   5.594   2.753  1.4084 -0.4581 -2.3471
  916MOL0     H23613   9.047   5.742   2.659 -0.0211  2.0017  2.3311
  916MOL0     H23614   8.828   5.798   2.714  1.0779  0.7959  1.4940
  916MOL0     H23615   8.784   5.639   2.779 -0.0597 -0.3047  0.4456
  916MOL0     H23616   9.010   5.789   2.899 -0.4528  0.7097 -3.2646
  916MOL0     H23617   8.901   5.669   2.970 -0.4844  0.4387 -0.0247
  916MOL0     H23618   8.785   5.931   2.877  0.3768 -0.8560  0.2466
  916MOL0     H23619   8.894   5.940   3.021  0.6379 -0.5164  0.2867
  916MOL0     H23620   8.484   5.761   3.160 -3.1041  1.5512 -1.4401
  916MOL0     H23621   8.362   5.892   3.316  1.0693 -2.1127  0.1154
  916MOL0     H23622   8.253   6.468   3.363  0.5015 -0.5968 -0.0134
  916MOL0     H23623   8.116   6.591   3.530 -0.6536 -2.2189 -1.2509
  916MOL0     H23624   8.177   6.757   3.726  0.9290  0.4279  4.2861
  916MOL0     H23625   8.010   6.713   3.677  1.0748  1.4258 -0.5357
  916MOL0     H23626   7.975   6.859   3.842  1.3373  1.4875  1.0145
  916MOL0     H23627   7.940   6.696   3.895  1.2206 -0.7109  0.1671
  916MOL0     H23628   8.057   6.797   4.089 -0.5753  0.5992 -0.1166
  916MOL0     H23629   8.162   6.680   4.012 -2.9302 -1.0772  3.6755
  916MOL0     H23630   8.150   6.962   3.949 -2.3383 -3.3121 -0.0880
  916MOL0     H23631   8.289   6.864   3.905  0.2408 -1.5963  0.0938
  916MOL0     H23632   8.363   6.834   4.140 -0.2257  2.2621  2.7755
  916MOL0     H23633   8.219   6.906   4.198  1.3737 -0.5201  1.8028
  916MOL0     H23634   8.321   7.117   4.046 -0.8938  0.5206  1.2037
  916MOL0     H23635   8.387   7.078   4.214  0.1437 -0.9437  0.4955
  916MOL0     H23636   8.543   7.117   3.998 -1.9200  0.7885 -1.3762
  916MOL0     H23637   8.490   6.947   3.975 -0.4810  0.2207  0.2973
  916MOL0     H23638   8.593   6.881   4.189 -2.7708 -0.0583 -2.0406
  916MOL0     H23639   8.709   6.954   4.067  1.0502  0.4975 -0.5841
  916MOL0     H23640   8.253   6.327   3.831 -1.8216 -0.8663 -1.5536
  916MOL0     H23641   8.391   6.206   3.676 -3.3514 -1.3578  2.3454
  916MOL0     H23642   8.626   6.223   3.266  3.0318 -0.2989  0.5903
  916MOL0     H23643   8.770   6.073   3.111 -0.1740  1.2367 -1.3604
  916MOL0     H23644   8.038   5.134   2.934  1.3672 -0.3611  1.2059
  916MOL0     H23645   7.975   5.174   3.161  2.6541 -0.4452  2.4269
  916MOL0     H23646   7.834   5.382   3.498  2.7065 -0.0822  2.2514
  916MOL0     H23647   7.710   5.456   3.689  1.4032  0.0128  2.4145
  916MOL0     H23648   7.687   5.880   3.743  0.3002  0.4401 -1.3612
  916MOL0     H23649   7.806   5.843   3.863 -0.8752 -0.8796  1.0583
  916MOL0     H23650   7.634   5.756   4.024  2.1602  0.0114  0.4636
  916MOL0     H23651   7.513   5.830   3.931  0.2567 -3.1531  0.7362
  916MOL0     H23652   7.751   5.995   3.984 -0.9746  1.2657 -5.2792
  916MOL0     H23653   7.640   5.966   4.120  0.4572 -0.0801 -0.0260
  916MOL0     H23654   7.587   6.083   3.840  0.2621  1.5000 -1.1331
  916MOL0     H23655   7.450   6.052   3.954 -0.1689 -0.2198 -3.5724
  916MOL0     H23656   7.660   6.421   4.078  3.4802 -1.5110  0.7450
  916MOL0     H23657   7.947   5.822   3.677  1.8150  0.6377 -2.0438
  916MOL0     H23658   8.107   5.871   3.521 -2.2052  0.9852 -1.0873
  916MOL0     H23659   8.209   5.733   3.520  1.9891  1.3159 -2.7259
  916MOL0     H23660   8.113   5.769   3.382  2.7266  2.1344  0.5744
  917MOL0     O23661   1.498   4.811   3.829  0.5104  0.2465  0.1733
  917MOL0     C23662   1.380   4.781   3.814  0.3098  0.5064  0.0856
  917MOL0     O23663   1.279   4.869   3.816 -1.0162 -0.3542  0.8621
  917MOL0     C23664   1.316   5.003   3.846  0.5147  0.4526  0.9755
  917MOL0     C23665   1.372   5.032   3.977 -0.3169 -1.1650 -0.8773
  917MOL0     C23666   1.419   5.164   4.005 -0.1800  0.5434  0.2929
  917MOL0     C23667   1.419   5.263   3.892  0.6982 -0.1245 -0.8115
  917MOL0     O23668   1.476   5.378   3.919  0.2995  0.1874 -0.4405
  917MOL0     C23669   1.413   5.485   3.861  0.1115 -0.8148  0.9112
  917MOL0     C23670   1.455   5.620   3.926  0.0464 -0.0775  0.2473
  917MOL0     C23671   1.399   5.727   3.834  0.5258  0.6161  0.0994
  917MOL0     C23672   1.449   5.868   3.874 -0.0749 -0.0125  0.1999
  917MOL0     C23673   1.395   5.966   3.773 -0.0905 -0.6734 -0.2017
  917MOL0     C23674   1.440   6.103   3.828 -0.0110  0.6972 -0.4115
  917MOL0     C23675   1.586   6.141   3.823 -0.1577 -0.0918  0.1966
  917MOL0     C23676   1.637   6.142   3.677 -1.0194 -1.3799  0.1580
  917MOL0     N23677   1.784   6.141   3.690 -0.1631 -0.4698  0.6377
  917MOL0     C23678   1.861   6.028   3.691 -1.0994 -0.3134 -0.1673
  917MOL0     C23679   1.990   6.072   3.718 -0.1785 -1.0356 -0.2910
  917MOL0     C23680   2.113   5.991   3.719  0.4694 -0.0117  0.8353
  917MOL0     C23681   2.135   5.919   3.846 -0.8501  0.5865 -0.0488
  917MOL0     C23682   2.174   6.026   3.953  0.2334  0.1938 -0.2978
  917MOL0     C23683   2.219   5.947   4.086 -0.5245  0.7049 -0.7072
  917MOL0     O23684   2.112   5.871   4.140 -0.2855  0.4857  0.3295
  917MOL0     C23685   2.134   5.799   4.256 -0.2708  0.1560  0.9087
  917MOL0     C23686   2.249   5.808   4.333 -0.0305 -0.0455 -0.0268
  917MOL0     C23687   2.271   5.715   4.440  0.0374  0.9784 -0.2474
  917MOL0     C23688   2.169   5.612   4.472  0.1347  0.7667  1.3502
  917MOL0     C23689   2.173   5.524   4.585 -0.4773  0.1905 -0.2492
  917MOL0     O23690   2.293   5.514   4.643 -0.4838 -0.3311 -0.5256
  917MOL0     C23691   2.345   5.407   4.719 -0.1436  0.8822  0.1224
  917MOL0     C23692   2.263   5.299   4.767 -0.6291 -0.2106 -0.4009
  917MOL0     C23693   2.319   5.183   4.827  0.5952  0.3717 -0.1586
  917MOL0     C23694   2.453   5.188   4.862  0.4968 -0.2866 -0.3842
  917MOL0     O23695   2.524   5.087   4.931 -0.3591 -0.5436 -0.3047
  917MOL0     C23696   2.452   4.967   4.966 -0.5095 -0.4488  0.6663
  917MOL0     C23697   2.543   4.868   5.036  0.0059 -0.3646  0.6423
  917MOL0     C23698   2.600   4.771   4.928  0.4607  0.0242 -0.2029
  917MOL0     C23699   2.691   4.676   5.013 -0.2540 -0.0204  0.1525
  917MOL0     C23700   2.844   4.716   4.997  0.5024  0.9227  0.3942
  917MOL0     C23701   2.953   4.611   5.042  0.5510  0.2962  0.1477
  917MOL0     C23702   2.988   4.511   4.938 -0.3686  0.7073  0.2962
  917MOL0     C23703   3.024   4.384   4.988 -0.3496  0.4060 -0.3207
  917MOL0    Cl23704   3.198   4.362   4.933 -0.3233  0.4248 -0.2063
  917MOL0     C23705   2.532   5.299   4.835 -0.9085  0.2611  0.1075
  917MOL0     C23706   2.476   5.407   4.758  0.1451  0.7233  0.3745
  917MOL0     O23707   2.069   5.469   4.621 -1.4635  0.1804  0.5472
  917MOL0     C23708   2.047   5.608   4.394  0.3178 -0.4412  0.6014
  917MOL0     C23709   2.032   5.701   4.288  0.3238 -0.3856  0.1098
  917MOL0     N23710   1.977   6.207   3.751 -0.3514 -0.6092  0.1866
  917MOL0     N23711   1.860   6.250   3.733  0.3832 -0.6970 -0.4190
  917MOL0     C23712   1.382   5.226   3.767 -0.5067  0.2802  0.4122
  917MOL0     C23713   1.325   5.096   3.739  1.1570 -0.9597 -0.3337
  917MOL0     C23714   1.349   4.635   3.791 -0.2947  0.5140 -0.0967
  917MOL0     C23715   1.211   4.589   3.793 -0.3517 -1.2718 -0.4038
  917MOL0     C23716   1.168   4.459   3.781 -0.1264  0.1604  0.3476
  917MOL0     C23717   1.264   4.360   3.746 -0.8549 -0.2003  0.0498
  917MOL0     O23718   1.205   4.240   3.734 -0.4049 -0.9206  0.1130
  917MOL0     C23719   1.296   4.138   3.695  0.2478 -0.7374  0.1385
  917MOL0     C23720   1.227   4.030   3.616 -0.5124 -0.3188 -0.1162
  917MOL0     C23721   1.320   3.927   3.554 -1.4611 -1.0108 -0.4174
  917MOL0     C23722   1.473   3.961   3.518  0.0666 -0.8334 -0.1728
  917MOL0     C23723   1.480   4.065   3.418 -0.1646  0.3217  0.0057
  917MOL0     C23724   1.503   4.150   3.333 -0.6229 -0.1239 -0.2877
  917MOL0     C23725   1.400   4.394   3.749  0.1461  0.1420  0.8555
  917MOL0     C23726   1.436   4.526   3.760  0.4141 -0.1623  0.5239
  917MOL0     C23727   1.587   4.546   3.775  0.9331  0.4652  0.2104
  917MOL0     H23728   1.376   4.962   4.061 -0.5633 -0.6763 -0.4488
  917MOL0     H23729   1.450   5.189   4.106  1.1028  0.1007  0.0170
  917MOL0     H23730   1.434   5.487   3.753 -2.7510 -0.3744  0.2908
  917MOL0     H23731   1.307   5.463   3.868 -0.0838 -4.3025 -5.4377
  917MOL0     H23732   1.564   5.628   3.929  0.1490  1.0496 -2.9140
  917MOL0     H23733   1.391   5.627   4.015 -2.3298  0.9941 -1.4358
  917MOL0     H23734   1.292   5.736   3.858  0.4559  1.8006 -0.5748
  917MOL0     H23735   1.408   5.694   3.730  0.4178  3.1182 -0.7734
  917MOL0     H23736   1.416   5.896   3.974  1.7203  3.0064  0.0609
  917MOL0     H23737   1.558   5.868   3.874  0.0840  3.2741 -2.5534
  917MOL0     H23738   1.425   5.958   3.668  1.5759  0.1841  0.1780
  917MOL0     H23739   1.287   5.952   3.773 -0.0735 -0.9645  1.2018
  917MOL0     H23740   1.383   6.185   3.784 -0.8532  2.9293  4.1624
  917MOL0     H23741   1.402   6.095   3.931  1.7132 -0.0436  0.1960
  917MOL0     H23742   1.635   6.079   3.898 -0.4285 -1.6439 -0.8696
  917MOL0     H23743   1.594   6.245   3.858  2.5486 -0.5503  1.2137
  917MOL0     H23744   1.601   6.056   3.619 -2.1264 -0.6357 -0.2939
  917MOL0     H23745   1.611   6.236   3.628  1.7136 -0.2238  0.6955
  917MOL0     H23746   1.831   5.925   3.671  0.6781 -0.6470 -1.3498
  917MOL0     H23747   2.120   5.928   3.630 -1.3724  0.4945  0.2864
  917MOL0     H23748   2.201   6.054   3.703  0.9491 -0.3919  1.8845
  917MOL0     H23749   2.039   5.872   3.870 -2.4622  3.8989  0.6548
  917MOL0     H23750   2.215   5.847   3.830 -0.8247  0.6710 -0.3023
  917MOL0     H23751   2.084   6.087   3.962 -0.4375 -0.8057 -0.0603
  917MOL0     H23752   2.262   6.085   3.928  0.2370  1.6492  2.7023
  917MOL0     H23753   2.249   6.022   4.160 -0.3704  0.0863 -0.1276
  917MOL0     H23754   2.306   5.882   4.070 -0.5086  1.1280 -2.5535
  917MOL0     H23755   2.309   5.895   4.307 -2.2359  1.1805 -1.2320
  917MOL0     H23756   2.364   5.717   4.495 -0.3165  0.0512  0.4191
  917MOL0     H23757   2.160   5.281   4.740 -1.3012  1.6791  0.6641
  917MOL0     H23758   2.264   5.091   4.841 -1.4161  1.5688  0.1195
  917MOL0     H23759   2.369   5.001   5.029  1.4466  2.4429  1.8573
  917MOL0     H23760   2.417   4.930   4.869 -2.0019 -0.9709  1.3675
  917MOL0     H23761   2.630   4.923   5.073 -1.7633  3.7331 -0.7223
  917MOL0     H23762   2.480   4.816   5.109 -2.9768 -2.2866 -2.9905
  917MOL0     H23763   2.520   4.703   4.897  0.2088  0.1096  0.2561
  917MOL0     H23764   2.652   4.816   4.843  3.5784 -2.2751  0.2881
  917MOL0     H23765   2.678   4.580   4.963 -2.7451  1.3171 -2.0155
  917MOL0     H23766   2.668   4.677   5.120 -1.3645  0.2427 -0.0812
  917MOL0     H23767   2.864   4.798   5.066  0.7174  0.5915  0.7357
  917MOL0     H23768   2.854   4.756   4.896  0.4731 -1.5311 -0.6504
  917MOL0     H23769   3.050   4.652   5.073  2.4682 -1.7427 -2.6479
  917MOL0     H23770   2.893   4.559   5.118  0.0233 -2.2441 -1.8479
  917MOL0     H23771   3.073   4.559   4.889  2.0421 -1.0379  2.5135
  917MOL0     H23772   2.905   4.495   4.868 -1.5355  1.5538  1.4300
  917MOL0     H23773   3.021   4.376   5.097  0.2819 -0.8009 -0.3750
  917MOL0     H23774   2.946   4.314   4.956 -0.8203 -0.3475  2.2480
  917MOL0     H23775   2.640   5.296   4.847 -0.6708 -3.0810 -1.6805
  917MOL0     H23776   2.535   5.494   4.732  1.0231 -0.1104 -0.4763
  917MOL0     H23777   1.965   5.537   4.406 -1.0466  0.9729  0.0461
  917MOL0     H23778   1.943   5.698   4.225 -0.0652 -1.8419  0.7000
  917MOL0     H23779   1.392   5.291   3.681  3.9288  1.9418  1.9011
  917MOL0     H23780   1.287   5.068   3.641  1.1998  1.3843 -1.1005
  917MOL0     H23781   1.132   4.660   3.816  1.2541 -0.3377  2.8272
  917MOL0     H23782   1.067   4.440   3.815 -0.0521 -0.2095  0.3639
  917MOL0     H23783   1.341   4.086   3.780 -0.0586 -0.1543  0.6771
  917MOL0     H23784   1.376   4.176   3.631  2.1203  1.4852  3.4327
  917MOL0     H23785   1.165   4.078   3.539  0.4246 -1.5502 -1.6983
  917MOL0     H23786   1.150   3.981   3.676 -4.9871  1.7120 -3.6119
  917MOL0     H23787   1.278   3.892   3.460 -0.7471  0.1091 -1.1889
  917MOL0     H23788   1.329   3.853   3.634  1.6054 -2.2636 -1.7619
  917MOL0     H23789   1.528   3.977   3.611  1.0571 -3.7428 -0.1398
  917MOL0     H23790   1.509   3.869   3.469  4.1146  1.1816 -1.4171
  917MOL0     H23791   1.512   4.232   3.265 -0.4549  1.5470  1.6475
  917MOL0     H23792   1.476   4.318   3.740 -0.6632 -0.4688 -1.8008
  917MOL0     H23793   1.598   4.557   3.883 -2.0194 -0.1644  0.6523
  917MOL0     H23794   1.638   4.451   3.755  2.1849  0.4280  3.0857
  917MOL0     H23795   1.633   4.627   3.719  0.5777  1.5196  1.4151
  918MOL0     O23796   1.102   1.852   2.323  0.3806 -0.3150  0.9482
  918MOL0     C23797   1.201   1.806   2.376 -0.0670 -0.4898  0.7616
  918MOL0     O23798   1.306   1.756   2.306 -0.2029 -1.0799  0.8272
  918MOL0     C23799   1.340   1.802   2.173  0.5302  0.1823  0.0421
  918MOL0     C23800   1.256   1.810   2.067  0.2000  0.6420 -0.5936
  918MOL0     C23801   1.298   1.845   1.942 -1.3528  0.2431  0.1754
  918MOL0     C23802   1.433   1.857   1.918  0.1772 -0.0123 -0.4725
  918MOL0     O23803   1.465   1.857   1.788 -0.1606 -0.1233  0.0414
  918MOL0     C23804   1.589   1.912   1.749 -1.1256 -0.2870  0.9077
  918MOL0     C23805   1.582   1.956   1.600  0.6349  0.4834 -0.6805
  918MOL0     C23806   1.492   2.091   1.580  0.6849  0.4856  0.5762
  918MOL0     C23807   1.521   2.144   1.441  0.2584  0.2306  0.3945
  918MOL0     C23808   1.479   2.076   1.308 -0.5984  0.0065  0.8395
  918MOL0     C23809   1.329   2.041   1.320  0.7105 -0.2207  0.5372
  918MOL0     C23810   1.278   1.950   1.203 -0.3847  0.3935  0.7312
  918MOL0     C23811   1.340   1.803   1.186  0.0946 -0.0121  0.4371
  918MOL0     N23812   1.284   1.726   1.077  0.3016  0.5271 -0.6887
  918MOL0     C23813   1.346   1.635   0.996 -0.2354 -0.6324 -0.5315
  918MOL0     C23814   1.256   1.598   0.911 -0.7807  0.2093  0.4539
  918MOL0     C23815   1.263   1.495   0.796 -0.5862  0.1428  0.2812
  918MOL0     C23816   1.414   1.489   0.762 -0.2378  0.7592 -0.3983
  918MOL0     C23817   1.448   1.462   0.610 -0.2670  1.0492 -0.9810
  918MOL0     C23818   1.412   1.552   0.493  0.2947  0.4255  0.1840
  918MOL0     O23819   1.463   1.682   0.528  0.0239  0.4908  0.3476
  918MOL0     C23820   1.513   1.776   0.439  0.1884  0.1827 -0.1457
  918MOL0     C23821   1.592   1.882   0.472 -0.9956 -0.0789 -0.3241
  918MOL0     C23822   1.670   1.949   0.375 -0.5193 -0.2523 -0.0820
  918MOL0     C23823   1.663   1.914   0.245 -0.5742 -0.3605 -0.5553
  918MOL0     C23824   1.731   1.997   0.142  0.6366 -0.1206 -0.5805
  918MOL0     O23825   1.758   1.930   0.020  0.2995  0.0856 -0.3532
  918MOL0     C23826   1.780   1.996  -0.093  0.3727  0.2521 -0.7016
  918MOL0     C23827   1.869   1.940  -0.190  0.8067 -0.5545  0.5386
  918MOL0     C23828   1.908   2.021  -0.298 -0.5664  0.4590  0.4088
  918MOL0     C23829   1.860   2.138  -0.332  0.2805 -1.1217 -0.8268
  918MOL0     O23830   1.893   2.207  -0.446 -0.1253 -0.1908 -0.3923
  918MOL0     C23831   1.837   2.340  -0.467 -0.0678 -0.1473  0.5709
  918MOL0     C23832   1.893   2.376  -0.604 -0.1714  0.3882 -0.9640
  918MOL0     C23833   1.813   2.495  -0.655  0.3393  0.5260 -0.5176
  918MOL0     C23834   1.874   2.646  -0.628 -0.2265  0.0048  0.6176
  918MOL0     C23835   1.771   2.737  -0.704 -0.1497  0.2960 -0.5797
  918MOL0     C23836   1.810   2.886  -0.721  0.1068 -0.1025 -0.5646
  918MOL0     C23837   1.719   2.956  -0.819  0.0900 -1.3973 -0.0950
  918MOL0     C23838   1.723   3.104  -0.802  0.6030  0.2661  0.3342
  918MOL0    Cl23839   1.873   3.165  -0.726 -0.0921 -0.5335  0.3386
  918MOL0     C23840   1.766   2.196  -0.231 -0.8554 -0.7086  0.7604
  918MOL0     C23841   1.736   2.127  -0.116 -0.4924  0.8830 -0.3712
  918MOL0     O23842   1.770   2.112   0.171 -0.6754  0.0467  0.8115
  918MOL0     C23843   1.600   1.797   0.211 -0.5208  0.4357  0.9029
  918MOL0     C23844   1.513   1.741   0.299 -0.8161 -0.5595 -0.2375
  918MOL0     N23845   1.149   1.673   0.922 -0.2391 -0.1580 -0.1315
  918MOL0     N23846   1.159   1.745   1.025 -0.4735 -0.5464 -0.1878
  918MOL0     C23847   1.528   1.841   2.020  0.6151  0.0714 -0.1955
  918MOL0     C23848   1.479   1.816   2.149  0.5765 -0.1316 -0.4165
  918MOL0     C23849   1.211   1.810   2.526 -0.3600  0.4179  0.2705
  918MOL0     C23850   1.343   1.803   2.574  0.0041  0.5690 -0.5119
  918MOL0     C23851   1.370   1.793   2.716 -0.0040  0.9250  0.1982
  918MOL0     C23852   1.270   1.776   2.808  0.3480 -0.2327  0.7542
  918MOL0     O23853   1.302   1.756   2.939  0.5863  0.4925 -0.5729
  918MOL0     C23854   1.260   1.631   2.993  0.5595 -0.5306  0.3247
  918MOL0     C23855   1.316   1.512   2.901  0.2266 -0.2233 -0.6419
  918MOL0     C23856   1.478   1.499   2.905 -0.1586 -1.0321 -0.2505
  918MOL0     C23857   1.537   1.401   2.807 -0.4610 -0.1308  0.4496
  918MOL0     C23858   1.675   1.444   2.818  0.0580  0.2048 -0.3210
  918MOL0     C23859   1.785   1.486   2.820 -1.0128 -0.4597 -0.0619
  918MOL0     C23860   1.139   1.789   2.762  0.0221 -1.3833  0.1331
  918MOL0     C23861   1.112   1.810   2.625  1.6393 -0.4596 -0.4712
  918MOL0     C23862   0.956   1.803   2.602  0.2189 -1.0727 -0.4567
  918MOL0     H23863   1.149   1.797   2.083  0.8534 -2.1393  2.9946
  918MOL0     H23864   1.226   1.870   1.864  0.2979 -0.8912 -1.8284
  918MOL0     H23865   1.622   1.990   1.818 -1.0581 -0.4037  1.0082
  918MOL0     H23866   1.665   1.834   1.763 -1.1528 -1.0352 -2.2691
  918MOL0     H23867   1.545   1.876   1.536  0.0789  0.8020 -0.7723
  918MOL0     H23868   1.685   1.984   1.578  1.2245 -1.1379 -0.1037
  918MOL0     H23869   1.528   2.155   1.661 -0.7440  1.8666  0.1753
  918MOL0     H23870   1.385   2.069   1.580  1.1046 -1.7660  1.0835
  918MOL0     H23871   1.481   2.245   1.434  0.2984  0.2760  0.7919
  918MOL0     H23872   1.630   2.155   1.436  0.1250  1.1772 -0.5882
  918MOL0     H23873   1.506   2.160   1.244  1.0981  1.4012  3.1936
  918MOL0     H23874   1.539   1.989   1.281 -0.9772 -0.7206  2.2525
  918MOL0     H23875   1.300   1.982   1.408 -2.2908  0.4476  0.0996
  918MOL0     H23876   1.276   2.136   1.317  1.4150  0.1891  0.7866
  918MOL0     H23877   1.290   2.014   1.116 -1.1399 -0.1266  0.2299
  918MOL0     H23878   1.172   1.922   1.212 -0.1594 -2.3538 -2.7998
  918MOL0     H23879   1.448   1.806   1.173  0.2061  2.2970  1.3477
  918MOL0     H23880   1.331   1.741   1.276 -0.3249  0.0447  0.4378
  918MOL0     H23881   1.449   1.605   1.009  0.5359  1.8408 -0.4260
  918MOL0     H23882   1.210   1.409   0.837 -1.3600  0.8529  0.7923
  918MOL0     H23883   1.215   1.540   0.709  3.9544 -0.1805 -2.7272
  918MOL0     H23884   1.466   1.580   0.792  0.0166  0.2337  0.7762
  918MOL0     H23885   1.459   1.399   0.804  0.6090  1.0180 -0.7355
  918MOL0     H23886   1.421   1.359   0.582 -0.7189  0.4379  1.4707
  918MOL0     H23887   1.557   1.466   0.622 -0.2448 -0.9093 -0.0897
  918MOL0     H23888   1.306   1.560   0.467  1.0340 -0.0580 -3.5255
  918MOL0     H23889   1.469   1.512   0.409  2.1060  3.2183 -0.0526
  918MOL0     H23890   1.589   1.927   0.571  1.7286  0.6215 -0.4779
  918MOL0     H23891   1.740   2.026   0.408  3.0083 -3.1737 -0.1546
  918MOL0     H23892   1.902   1.837  -0.187 -0.5601 -1.2136 -3.0402
  918MOL0     H23893   1.972   1.974  -0.372 -3.2201 -2.0719 -0.4593
  918MOL0     H23894   1.728   2.335  -0.460 -0.0014 -0.0296  1.8881
  918MOL0     H23895   1.881   2.420  -0.406  0.8206  0.2217 -0.5142
  918MOL0     H23896   2.001   2.392  -0.611 -0.2476  1.2265 -0.3975
  918MOL0     H23897   1.874   2.295  -0.675 -1.1839 -1.1535  0.9684
  918MOL0     H23898   1.805   2.481  -0.764 -2.3903 -2.5029 -0.0671
  918MOL0     H23899   1.709   2.494  -0.623 -0.7020  1.6944 -3.4890
  918MOL0     H23900   1.976   2.656  -0.667 -0.2031  0.8225  0.8654
  918MOL0     H23901   1.875   2.669  -0.521  2.2611 -0.8490  0.8352
  918MOL0     H23902   1.675   2.730  -0.652 -1.3832 -0.9691 -2.8729
  918MOL0     H23903   1.749   2.686  -0.798 -2.2605  1.0605 -0.5628
  918MOL0     H23904   1.807   2.932  -0.621 -1.0118 -0.9748 -0.1739
  918MOL0     H23905   1.912   2.895  -0.758 -0.2548  1.4472 -1.2440
  918MOL0     H23906   1.614   2.931  -0.801 -0.6391 -1.1385 -3.4173
  918MOL0     H23907   1.755   2.933  -0.919 -1.0387  0.1262 -0.9019
  918MOL0     H23908   1.701   3.152  -0.898  0.0273 -1.6668 -0.5573
  918MOL0     H23909   1.633   3.127  -0.743  0.0575  1.3948 -0.8861
  918MOL0     H23910   1.718   2.289  -0.260  0.0516 -0.6474 -0.6207
  918MOL0     H23911   1.658   2.168  -0.054 -1.8097 -4.8408  2.4095
  918MOL0     H23912   1.598   1.762   0.108  0.4227  1.5292  0.4826
  918MOL0     H23913   1.437   1.670   0.267 -0.1229 -2.6110  2.3505
  918MOL0     H23914   1.636   1.836   2.013  0.6550 -3.6163  0.8339
  918MOL0     H23915   1.560   1.799   2.219 -1.0756 -0.3825  1.5403
  918MOL0     H23916   1.424   1.805   2.502 -0.9658 -1.5362 -1.7818
  918MOL0     H23917   1.471   1.777   2.751  0.1681  0.2817 -0.5801
  918MOL0     H23918   1.154   1.616   2.973  0.3873 -0.6207  1.2565
  918MOL0     H23919   1.286   1.622   3.099  0.1583 -4.0512  0.2486
  918MOL0     H23920   1.286   1.535   2.798  0.7901  0.0581 -0.7498
  918MOL0     H23921   1.271   1.420   2.938 -1.9399  0.8454 -0.4544
  918MOL0     H23922   1.507   1.456   3.001  1.8563 -0.8820 -0.7388
  918MOL0     H23923   1.511   1.601   2.882 -4.6205  0.5408 -0.7203
  918MOL0     H23924   1.520   1.294   2.824 -3.5574  0.5398  2.2533
  918MOL0     H23925   1.512   1.432   2.705  0.1121 -0.9675  0.0338
  918MOL0     H23926   1.878   1.540   2.821 -0.5204 -1.2864  0.2359
  918MOL0     H23927   1.057   1.783   2.833  0.8952 -0.3735  1.2690
  918MOL0     H23928   0.904   1.735   2.671  0.5864  0.6234  1.6060
  918MOL0     H23929   0.905   1.898   2.620  0.2933 -0.1781 -4.2424
  918MOL0     H23930   0.937   1.756   2.505  0.2930 -1.8235 -0.1212
  919MOL0     O23931   9.592   9.436   9.446 -0.0564  0.1971 -0.0201
  919MOL0     C23932   9.567   9.321   9.479  0.9968 -0.7250 -0.3158
  919MOL0     O23933   9.635   9.214   9.440 -0.2519  0.3735  0.3216
  919MOL0     C23934   9.739   9.219   9.352 -0.5527 -0.0267 -1.2479
  919MOL0     C23935   9.718   9.229   9.218 -0.3270  0.1509 -0.5607
  919MOL0     C23936   9.828   9.246   9.128 -0.9116  0.0756  0.3228
  919MOL0     C23937   9.959   9.253   9.182 -0.0994 -0.1222  0.2360
  919MOL0     O23938  10.056   9.271   9.087  0.2563  0.2529 -0.3923
  919MOL0     C23939  10.192   9.315   9.114 -0.1311 -0.5073 -0.1757
  919MOL0     C23940  10.229   9.433   9.008 -0.7143  0.0473  0.4563
  919MOL0     C23941  10.142   9.561   9.024 -0.0531  0.1977  0.0202
  919MOL0     C23942  10.168   9.641   9.155 -0.3311 -0.9643 -0.7222
  919MOL0     C23943  10.059   9.632   9.262  0.5190  0.0532  0.0409
  919MOL0     C23944  10.086   9.731   9.373 -0.6174  0.2611 -0.7602
  919MOL0     C23945   9.981   9.733   9.483 -0.1719 -0.3440  0.1552
  919MOL0     C23946   9.967   9.604   9.567  0.7000  0.1792 -0.2590
  919MOL0     N23947  10.089   9.567   9.642  0.4957 -0.7329  1.3699
  919MOL0     C23948  10.171   9.478   9.589  0.1036  0.2353  0.3724
  919MOL0     C23949  10.250   9.451   9.695 -0.3713  0.4369 -0.9070
  919MOL0     C23950  10.371   9.364   9.673  0.7734  0.0398 -0.0089
  919MOL0     C23951  10.334   9.215   9.689 -0.0270 -0.1820  0.6253
  919MOL0     C23952  10.449   9.118   9.657 -0.1003 -0.4301 -0.2066
  919MOL0     C23953  10.428   8.986   9.735  0.6074  0.4442  0.1890
  919MOL0     O23954  10.514   8.876   9.706  0.6832  0.3690 -0.4430
  919MOL0     C23955  10.507   8.822   9.580  1.0686 -0.5848  0.4036
  919MOL0     C23956  10.600   8.727   9.541  0.1229 -0.7205 -0.7176
  919MOL0     C23957  10.597   8.655   9.416  0.1198 -0.3006 -0.1797
  919MOL0     C23958  10.499   8.685   9.323 -0.1830 -0.4855 -0.6292
  919MOL0     C23959  10.505   8.623   9.183 -0.7896  0.2373 -0.0215
  919MOL0     O23960  10.597   8.517   9.167  0.3235 -0.5765  0.1838
  919MOL0     C23961  10.683   8.493   9.068  0.2116 -0.5771  0.2790
  919MOL0     C23962  10.745   8.606   9.002 -0.7169 -0.0044 -0.0390
  919MOL0     C23963  10.842   8.578   8.899 -0.5119  0.6516 -1.1818
  919MOL0     C23964  10.885   8.448   8.869  0.0818  0.5369 -0.3217
  919MOL0     O23965  10.987   8.429   8.784  0.4945 -0.0998  0.7276
  919MOL0     C23966  11.099   8.515   8.792  0.2278 -0.0315 -0.2100
  919MOL0     C23967  11.209   8.443   8.715  0.2085  0.3666  0.3005
  919MOL0     C23968  11.236   8.307   8.782 -0.0684  1.3786 -0.4610
  919MOL0     C23969  11.372   8.237   8.750 -0.7208  0.0797  0.7227
  919MOL0     C23970  11.370   8.086   8.737 -0.0584  0.9396 -0.3084
  919MOL0     C23971  11.336   8.021   8.870 -0.4438 -0.2584 -0.5562
  919MOL0     C23972  11.379   7.872   8.870  0.1371  0.3575 -0.9161
  919MOL0     C23973  11.259   7.780   8.878 -0.3480 -0.4821  0.4730
  919MOL0    Cl23974  11.146   7.802   8.740  0.4237  0.1938 -0.0871
  919MOL0     C23975  10.828   8.338   8.939  0.6212  0.2000  0.2562
  919MOL0     C23976  10.721   8.366   9.035  0.1401 -0.4019  0.2175
  919MOL0     O23977  10.448   8.677   9.090 -0.4495  1.2455  0.0898
  919MOL0     C23978  10.404   8.776   9.366 -0.6341  1.5081  0.3908
  919MOL0     C23979  10.406   8.845   9.484 -0.0868 -0.1361 -0.6007
  919MOL0     N23980  10.210   9.511   9.806 -0.0010  0.1177  0.4015
  919MOL0     N23981  10.104   9.569   9.777  0.0324 -0.3859  0.1252
  919MOL0     C23982   9.980   9.229   9.318  0.3936  0.0906 -1.2861
  919MOL0     C23983   9.869   9.223   9.406 -0.3601  0.6320 -0.1500
  919MOL0     C23984   9.439   9.284   9.554 -0.0552 -0.3148  0.3532
  919MOL0     C23985   9.417   9.146   9.583  0.0125  0.1250  0.4426
  919MOL0     C23986   9.310   9.105   9.644 -0.0068  0.2647  0.7441
  919MOL0     C23987   9.219   9.192   9.703  0.3125 -0.4126 -0.1281
  919MOL0     O23988   9.118   9.157   9.785  0.7766  0.4204 -0.3130
  919MOL0     C23989   9.122   9.026   9.843 -0.0402 -0.5212  0.2108
  919MOL0     C23990   9.028   8.997   9.958  0.0761  0.2732 -0.2358
  919MOL0     C23991   9.000   8.845   9.987 -0.4229 -0.5131  0.1006
  919MOL0     C23992   8.929   8.822  10.116 -0.3886  0.2786  0.0749
  919MOL0     C23993   9.018   8.852  10.227  0.0634 -0.2642  1.0117
  919MOL0     C23994   9.080   8.889  10.318 -0.4004 -0.2308  0.5090
  919MOL0     C23995   9.244   9.323   9.696 -0.0006  0.1734  0.4372
  919MOL0     C23996   9.354   9.375   9.623  0.8796  0.1687  1.1511
  919MOL0     C23997   9.359   9.528   9.627  0.1894 -0.1614  0.5415
  919MOL0     H23998   9.619   9.215   9.175  1.2857 -1.4166 -4.1767
  919MOL0     H23999   9.824   9.273   9.022  3.4013  0.2944  0.0340
  919MOL0     H24000  10.208   9.355   9.215 -1.7836  0.0670 -0.1192
  919MOL0     H24001  10.260   9.230   9.108  0.9463  0.1838  1.4808
  919MOL0     H24002  10.220   9.392   8.907  1.6185 -0.7043  0.4920
  919MOL0     H24003  10.336   9.445   9.030 -1.2713 -0.2268  4.0339
  919MOL0     H24004  10.044   9.513   9.020  0.8452 -1.7625  0.4567
  919MOL0     H24005  10.155   9.633   8.942  1.0043  0.4400  0.3965
  919MOL0     H24006  10.259   9.601   9.201  0.8098  0.3737 -1.7445
  919MOL0     H24007  10.192   9.743   9.122 -5.0422  0.3990 -0.7032
  919MOL0     H24008   9.961   9.658   9.222  1.6953 -1.7597 -4.7470
  919MOL0     H24009  10.058   9.527   9.294  0.9437  0.2181  0.6255
  919MOL0     H24010  10.184   9.707   9.415  0.1374 -0.2685 -2.7311
  919MOL0     H24011  10.085   9.832   9.333 -1.3240  1.4794  2.0817
  919MOL0     H24012   9.895   9.763   9.423 -0.5034 -3.2989 -0.9662
  919MOL0     H24013   9.994   9.818   9.551 -1.6745  2.0464 -2.2937
  919MOL0     H24014   9.885   9.618   9.638 -1.3276  0.2290 -2.4621
  919MOL0     H24015   9.933   9.528   9.496  0.0018  1.2853 -1.1394
  919MOL0     H24016  10.183   9.437   9.489  0.5901 -2.5444  1.4804
  919MOL0     H24017  10.414   9.381   9.574  0.2835 -1.8233 -0.5788
  919MOL0     H24018  10.442   9.388   9.752  1.4238  2.3275 -1.1909
  919MOL0     H24019  10.299   9.201   9.792 -0.3641 -3.6048  0.1549
  919MOL0     H24020  10.250   9.192   9.624  1.2748  1.5980 -1.8646
  919MOL0     H24021  10.551   9.153   9.675  0.2480 -1.3378 -0.3690
  919MOL0     H24022  10.444   9.089   9.552 -2.0038  3.5687 -1.3977
  919MOL0     H24023  10.320   8.969   9.730  0.4481  1.1686  0.8738
  919MOL0     H24024  10.456   9.007   9.839 -0.1578 -0.4959  0.6036
  919MOL0     H24025  10.678   8.707   9.614  0.5722  1.2475 -0.6125
  919MOL0     H24026  10.672   8.578   9.401  0.2714 -0.2620  0.3547
  919MOL0     H24027  10.711   8.706   9.028 -1.7994 -0.8641  2.0776
  919MOL0     H24028  10.895   8.659   8.852  2.9951 -1.8287 -1.9209
  919MOL0     H24029  11.082   8.619   8.760 -2.0701  0.4403  2.1557
  919MOL0     H24030  11.113   8.516   8.900 -0.3469 -0.6512 -0.1290
  919MOL0     H24031  11.180   8.429   8.611  1.7248 -2.2657  0.1308
  919MOL0     H24032  11.301   8.501   8.723 -0.2190  0.8935  1.8686
  919MOL0     H24033  11.229   8.317   8.891  0.3807  2.7165 -0.5341
  919MOL0     H24034  11.172   8.227   8.744 -0.1890  0.1832  2.0513
  919MOL0     H24035  11.453   8.257   8.820  0.1913 -2.4147  0.4599
  919MOL0     H24036  11.409   8.272   8.653 -0.8225  0.0324  0.6652
  919MOL0     H24037  11.471   8.056   8.708  0.1579  2.6147 -1.4478
  919MOL0     H24038  11.307   8.055   8.653  1.1423  4.1898 -2.6341
  919MOL0     H24039  11.383   8.077   8.951  0.1997  2.2807 -2.5578
  919MOL0     H24040  11.229   8.017   8.893 -1.4580  0.1011 -4.5525
  919MOL0     H24041  11.447   7.855   8.954 -2.2725  2.8202  1.7358
  919MOL0     H24042  11.430   7.845   8.777  0.6802  0.8345 -0.7646
  919MOL0     H24043  11.280   7.674   8.892 -1.4273 -0.3487  4.2916
  919MOL0     H24044  11.202   7.812   8.966  0.2981  2.6323 -0.1029
  919MOL0     H24045  10.865   8.241   8.909 -0.7782  0.0114 -0.9430
  919MOL0     H24046  10.672   8.281   9.082 -1.8282  1.4450  1.6923
  919MOL0     H24047  10.326   8.795   9.293 -0.1381  1.0252 -0.2915
  919MOL0     H24048  10.340   8.930   9.496  3.3430  2.7358 -0.6563
  919MOL0     H24049  10.082   9.220   9.353 -0.3657  0.5454  1.2243
  919MOL0     H24050   9.879   9.212   9.514  3.4205 -0.6218 -0.4713
  919MOL0     H24051   9.482   9.074   9.532 -1.9311 -1.7529  0.4832
  919MOL0     H24052   9.282   9.000   9.641 -1.2452  0.5340  1.9246
  919MOL0     H24053   9.225   9.007   9.876 -0.2347 -3.6029 -0.6088
  919MOL0     H24054   9.110   8.948   9.767  0.9807  0.5704 -1.1255
  919MOL0     H24055   8.935   9.050   9.937 -2.4830 -3.4464  0.7436
  919MOL0     H24056   9.074   9.024  10.054 -1.7157  3.0721 -0.0511
  919MOL0     H24057   9.097   8.795   9.993 -0.0374  0.3609  1.8323
  919MOL0     H24058   8.943   8.796   9.907 -3.0439  0.0281  1.5469
  919MOL0     H24059   8.850   8.895  10.135  2.2870  2.4487  4.3401
  919MOL0     H24060   8.893   8.720  10.134 -1.0180  0.4344 -0.2540
  919MOL0     H24061   9.144   8.911  10.401 -0.5817 -2.4725  1.3036
  919MOL0     H24062   9.176   9.387   9.751 -1.9839 -0.1404 -1.4980
  919MOL0     H24063   9.323   9.552   9.526 -0.2273  0.3313  0.8036
  919MOL0     H24064   9.292   9.569   9.703 -0.3323  0.3676 -0.1924
  919MOL0     H24065   9.459   9.560   9.657  0.5283 -1.8948  1.4160
  920MOL0     O24066   8.501   9.566  11.008 -0.1303 -0.0432  0.3838
  920MOL0     C24067   8.608   9.588  10.940  0.1899 -0.8339 -1.2073
  920MOL0     O24068   8.741   9.602  10.995  0.1891 -0.4326  1.0513
  920MOL0     C24069   8.751   9.579  11.128  0.1386  0.3929 -0.0789
  920MOL0     C24070   8.801   9.460  11.181  0.3212  0.7994 -0.6445
  920MOL0     C24071   8.820   9.450  11.318 -0.8909 -0.0531 -0.2914
  920MOL0     C24072   8.788   9.560  11.404 -0.7593  0.3589 -0.7703
  920MOL0     O24073   8.816   9.572  11.543  0.2970 -0.1877  0.5769
  920MOL0     C24074   8.901   9.463  11.596 -0.7127 -0.8005  0.1096
  920MOL0     C24075   8.927   9.497  11.737 -0.3927  0.2938 -0.7403
  920MOL0     C24076   9.016   9.396  11.797  0.0159  0.7785 -0.4629
  920MOL0     C24077   9.067   9.432  11.933  0.4933  0.3208  0.2886
  920MOL0     C24078   9.168   9.348  11.997  0.6189  0.9759  0.0541
  920MOL0     C24079   9.130   9.197  12.024  0.1570 -0.6946 -0.5410
  920MOL0     C24080   9.231   9.122  12.112  0.1676  0.2912  0.1642
  920MOL0     C24081   9.344   9.065  12.037 -0.7891 -0.1430 -0.3448
  920MOL0     N24082   9.434   8.989  12.131 -0.0608  0.1353  0.2623
  920MOL0     C24083   9.391   8.885  12.214  0.0390 -0.3917  0.7722
  920MOL0     C24084   9.473   8.882  12.317  0.3446 -0.1540  0.3857
  920MOL0     C24085   9.470   8.779  12.432  0.5225 -0.1857  0.0401
  920MOL0     C24086   9.348   8.791  12.523 -0.6197  0.5512  0.5903
  920MOL0     C24087   9.345   8.944  12.568  0.2324  0.7347 -1.0526
  920MOL0     C24088   9.240   8.966  12.683  0.9822 -0.0408  0.5326
  920MOL0     O24089   9.110   8.894  12.678  0.0146  0.4138 -0.5008
  920MOL0     C24090   9.022   8.940  12.580 -0.1810  0.5582  0.1684
  920MOL0     C24091   8.904   8.867  12.573 -0.3115 -1.0714 -0.3671
  920MOL0     C24092   8.799   8.913  12.490 -0.2135  0.2797  0.1540
  920MOL0     C24093   8.821   9.021  12.403 -0.4092  0.2099  0.4406
  920MOL0     C24094   8.720   9.066  12.303  0.3524  0.9797 -0.3646
  920MOL0     O24095   8.751   9.132  12.189  0.4930  0.6683 -0.8721
  920MOL0     C24096   8.647   9.167  12.105  0.4037  0.4779 -0.7562
  920MOL0     C24097   8.551   9.080  12.065 -0.1239  0.1270 -0.1309
  920MOL0     C24098   8.442   9.115  11.979  0.2478 -1.1336  0.4486
  920MOL0     C24099   8.437   9.250  11.929 -0.0037  0.0153  0.5446
  920MOL0     O24100   8.339   9.278  11.841 -0.6990  0.4139  0.1669
  920MOL0     C24101   8.287   9.409  11.830 -0.1459  0.6475  0.2429
  920MOL0     C24102   8.364   9.487  11.724  0.9546  0.2879 -0.0185
  920MOL0     C24103   8.272   9.583  11.647  0.0415  0.0798  0.2891
  920MOL0     C24104   8.362   9.643  11.538 -0.0476 -0.9720  0.6326
  920MOL0     C24105   8.302   9.766  11.462 -0.1827 -0.2464  0.0753
  920MOL0     C24106   8.405   9.817  11.367  1.3515  0.0201  1.4755
  920MOL0     C24107   8.347   9.945  11.295  0.5295  0.7919 -0.4824
  920MOL0     C24108   8.198   9.934  11.253  0.0712 -0.8963  0.5258
  920MOL0    Cl24109   8.167   9.797  11.135 -0.6249 -0.5677 -0.3380
  920MOL0     C24110   8.545   9.339  11.966 -0.2549 -0.0620  0.2003
  920MOL0     C24111   8.649   9.295  12.050  0.4676 -0.1947  0.7734
  920MOL0     O24112   8.602   9.051  12.343  0.2380 -0.4720 -0.1320
  920MOL0     C24113   8.940   9.094  12.413  0.6711 -0.3631 -0.6297
  920MOL0     C24114   9.041   9.060  12.510  0.5889 -0.8307 -0.5387
  920MOL0     N24115   9.569   8.977  12.300  0.0255  0.4336 -0.5004
  920MOL0     N24116   9.549   9.040  12.194  0.3014 -0.3101  0.5625
  920MOL0     C24117   8.727   9.673  11.346 -0.2710  0.3515 -0.7625
  920MOL0     C24118   8.716   9.685  11.213  0.3827 -0.2851  0.9422
  920MOL0     C24119   8.580   9.613  10.800 -0.3183 -0.2984  0.6019
  920MOL0     C24120   8.636   9.514  10.714 -0.5559  0.3384 -0.2415
  920MOL0     C24121   8.599   9.514  10.579  0.4828 -0.0413  0.6105
  920MOL0     C24122   8.496   9.603  10.536  0.1870  0.2957  0.1173
  920MOL0     O24123   8.446   9.607  10.410 -1.1316 -0.4861  1.1398
  920MOL0     C24124   8.504   9.514  10.304  0.0384  0.6089 -0.0781
  920MOL0     C24125   8.631   9.585  10.244 -0.1811 -0.0068 -0.2148
  920MOL0     C24126   8.673   9.497  10.121 -0.5492  0.2116 -0.0336
  920MOL0     C24127   8.796   9.542  10.038  0.0411 -0.9994  0.2709
  920MOL0     C24128   8.813   9.462   9.918  0.3912  1.5031  0.3962
  920MOL0     C24129   8.825   9.411   9.811  0.2362  0.2959  0.4528
  920MOL0     C24130   8.451   9.701  10.622 -0.3888 -0.2840 -0.1443
  920MOL0     C24131   8.500   9.713  10.751 -0.2856 -0.2762 -0.1083
  920MOL0     C24132   8.442   9.804  10.845 -0.0341 -0.5911 -0.9680
  920MOL0     H24133   8.838   9.370  11.133 -0.1327 -0.4803  1.2958
  920MOL0     H24134   8.846   9.349  11.350 -1.4939  0.1766  1.0287
  920MOL0     H24135   8.850   9.366  11.592  0.8466 -1.8139  2.3396
  920MOL0     H24136   8.993   9.457  11.537 -2.3747 -0.6348 -2.6284
  920MOL0     H24137   8.829   9.513  11.781 -0.3426  2.7591 -1.3385
  920MOL0     H24138   8.976   9.595  11.732  0.7224 -0.2477 -0.8383
  920MOL0     H24139   9.108   9.392  11.738  1.1751  1.1415  1.2313
  920MOL0     H24140   8.963   9.300  11.791 -5.4169  3.5103 -2.5095
  920MOL0     H24141   9.099   9.536  11.933 -0.1029  0.5151 -0.2573
  920MOL0     H24142   8.976   9.432  11.994 -0.0487  0.1272 -0.4934
  920MOL0     H24143   9.263   9.351  11.943  0.8730  1.0082  0.4942
  920MOL0     H24144   9.194   9.401  12.089  0.3620  0.3336  0.5048
  920MOL0     H24145   9.037   9.188  12.079 -0.4143 -1.7216 -1.6390
  920MOL0     H24146   9.116   9.145  11.929  2.6838  1.0503 -1.9916
  920MOL0     H24147   9.161   9.045  12.146 -1.7681  0.2371 -3.4644
  920MOL0     H24148   9.258   9.192  12.192  2.2971 -0.7031  0.3908
  920MOL0     H24149   9.312   8.998  11.957 -2.0165 -2.0213  1.6117
  920MOL0     H24150   9.402   9.145  11.989 -3.0826 -0.7212 -4.6369
  920MOL0     H24151   9.293   8.846  12.188  0.2701 -0.6767  0.3298
  920MOL0     H24152   9.467   8.675  12.396 -0.1457 -0.7327  1.6204
  920MOL0     H24153   9.559   8.798  12.493  1.6681  0.7086 -1.7921
  920MOL0     H24154   9.258   8.771  12.464 -0.7665  2.2703  0.1742
  920MOL0     H24155   9.358   8.719  12.605  0.1890  1.6664  1.4962
  920MOL0     H24156   9.318   9.003  12.480 -0.2637  1.8478 -0.1767
  920MOL0     H24157   9.445   8.980  12.596  0.7225 -0.6294 -0.9866
  920MOL0     H24158   9.222   9.073  12.696 -2.9955 -0.7939  3.2061
  920MOL0     H24159   9.280   8.933  12.779  0.8880 -1.6518  0.0463
  920MOL0     H24160   8.888   8.779  12.634 -2.1783 -0.0774  0.6531
  920MOL0     H24161   8.709   8.853  12.486  1.3728 -2.3671  0.9289
  920MOL0     H24162   8.551   8.988  12.123 -3.2062 -0.5160 -0.9886
  920MOL0     H24163   8.370   9.043  11.943 -1.9466  1.0159  0.2308
  920MOL0     H24164   8.184   9.402  11.794  0.6310  1.7451 -2.4647
  920MOL0     H24165   8.281   9.462  11.926 -2.9723  1.4231 -0.2645
  920MOL0     H24166   8.448   9.541  11.768  1.4641  0.1782 -0.8504
  920MOL0     H24167   8.408   9.408  11.663  0.0629 -1.3720  1.4026
  920MOL0     H24168   8.186   9.528  11.608  0.7125 -1.9147  1.4289
  920MOL0     H24169   8.233   9.661  11.713  0.8655  2.0344 -1.4155
  920MOL0     H24170   8.378   9.558  11.471  2.5655 -1.9272  2.2999
  920MOL0     H24171   8.461   9.666  11.577  1.2160  0.3819 -2.9724
  920MOL0     H24172   8.268   9.849  11.525  1.7692  1.4875 -1.0171
  920MOL0     H24173   8.218   9.734  11.400  1.3317 -1.2575 -1.5629
  920MOL0     H24174   8.491   9.845  11.429 -0.2198 -0.5263  4.0362
  920MOL0     H24175   8.418   9.738  11.293 -1.9939  0.3805  0.3102
  920MOL0     H24176   8.405   9.969  11.205  2.3271  2.4805  1.0272
  920MOL0     H24177   8.365  10.036  11.352  3.0416  1.0477 -1.5374
  920MOL0     H24178   8.135   9.941  11.342  0.3399  0.4101  0.6183
  920MOL0     H24179   8.177  10.018  11.187  1.9389 -1.1302 -0.4407
  920MOL0     H24180   8.546   9.439  11.924 -1.0184 -0.3375 -0.5166
  920MOL0     H24181   8.726   9.363  12.086  0.1822  0.1867  0.6815
  920MOL0     H24182   8.965   9.183  12.356  1.7331  0.8896  1.6349
  920MOL0     H24183   9.132   9.118  12.520  0.6880 -1.1358  0.3970
  920MOL0     H24184   8.705   9.751  11.418 -2.3862  1.3212 -2.3640
  920MOL0     H24185   8.672   9.775  11.171 -0.0842 -1.0514 -0.2593
  920MOL0     H24186   8.685   9.421  10.741 -1.4516 -0.1858 -0.3855
  920MOL0     H24187   8.639   9.428  10.525 -0.7682 -0.2230 -0.0638
  920MOL0     H24188   8.425   9.494  10.232 -2.3810 -1.0434  2.8227
  920MOL0     H24189   8.515   9.419  10.357  1.1458  2.2462  2.8475
  920MOL0     H24190   8.706   9.596  10.323 -0.8099  1.1267  0.2427
  920MOL0     H24191   8.612   9.688  10.213 -0.3065 -0.1549 -0.6480
  920MOL0     H24192   8.589   9.462  10.061  0.1351 -2.0044  0.2088
  920MOL0     H24193   8.705   9.406  10.174 -2.3083 -0.1882  0.3907
  920MOL0     H24194   8.790   9.648  10.012  1.1464 -1.6693 -3.3093
  920MOL0     H24195   8.886   9.548  10.100  1.6537  3.7533 -1.9928
  920MOL0     H24196   8.818   9.377   9.710  0.5193  1.8427 -0.1253
  920MOL0     H24197   8.369   9.764  10.589 -0.1961  0.8815  1.4934
  920MOL0     H24198   8.397   9.885  10.788 -1.0862  0.4498  1.2003
  920MOL0     H24199   8.369   9.752  10.909 -2.0701 -1.5674 -3.8538
  920MOL0     H24200   8.522   9.846  10.907  0.9268  0.1185 -2.6493
  921MOL0     O24201   4.903   9.194  11.410 -0.1424 -0.3582  0.7625
  921MOL0     C24202   4.997   9.279  11.409  0.0353  0.3285 -0.3644
  921MOL0     O24203   5.061   9.337  11.299 -0.2158 -0.6662 -0.1293
  921MOL0     C24204   5.001   9.349  11.175 -0.2717  1.0629  0.6646
  921MOL0     C24205   5.083   9.348  11.056  0.4337 -0.3908  0.8729
  921MOL0     C24206   5.026   9.363  10.928  0.5851 -0.6473  0.1371
  921MOL0     C24207   4.895   9.401  10.918  0.1386 -0.1601 -0.0251
  921MOL0     O24208   4.837   9.413  10.794 -0.3052  0.0510 -0.1936
  921MOL0     C24209   4.695   9.444  10.783  0.3514 -0.4873 -0.0772
  921MOL0     C24210   4.643   9.491  10.649 -0.0849 -0.8804  0.1648
  921MOL0     C24211   4.731   9.607  10.594  0.2800 -0.4864  0.0995
  921MOL0     C24212   4.660   9.720  10.513 -0.9666  0.7879 -0.3531
  921MOL0     C24213   4.739   9.842  10.468 -0.2933 -0.5307 -1.0639
  921MOL0     C24214   4.653   9.925  10.373  0.3784 -0.0355  0.3697
  921MOL0     C24215   4.519   9.973  10.428  0.6901 -1.2726  0.7224
  921MOL0     C24216   4.472  10.077  10.340  0.3293  0.2001  0.0651
  921MOL0     N24217   4.351  10.134  10.394 -0.6459  0.0861  0.1440
  921MOL0     C24218   4.234  10.071  10.377  0.4796  0.2567 -0.3434
  921MOL0     C24219   4.145  10.146  10.453  1.5681  0.2963 -0.0957
  921MOL0     C24220   3.996  10.114  10.449 -0.0366  0.1506 -0.1219
  921MOL0     C24221   3.887  10.213  10.491  0.1495  0.8364 -0.1203
  921MOL0     C24222   3.891  10.223  10.640 -0.4418 -0.9956  1.0291
  921MOL0     C24223   3.805  10.335  10.705  0.9427 -0.3083 -0.1309
  921MOL0     O24224   3.818  10.457  10.630 -0.9813  0.2296 -0.5685
  921MOL0     C24225   3.706  10.507  10.568 -0.1137  0.2307  0.3362
  921MOL0     C24226   3.708  10.646  10.591 -0.5844  0.9505  0.0443
  921MOL0     C24227   3.603  10.726  10.542  1.1764 -0.0103 -0.3590
  921MOL0     C24228   3.495  10.676  10.470 -0.4805 -0.5623  0.0376
  921MOL0     C24229   3.392  10.748  10.399  0.8926 -0.0856  0.4855
  921MOL0     O24230   3.290  10.672  10.350 -0.4476 -0.1140 -0.2027
  921MOL0     C24231   3.175  10.711  10.282 -0.8721 -0.0854 -1.0098
  921MOL0     C24232   3.115  10.836  10.276  0.3242 -0.0962 -1.1112
  921MOL0     C24233   3.013  10.865  10.186  0.5359 -0.7093  0.2159
  921MOL0     C24234   2.952  10.765  10.104  0.5718 -0.0586  0.3438
  921MOL0     O24235   2.846  10.779  10.021  0.2852  0.5176  0.5737
  921MOL0     C24236   2.748  10.867  10.060  0.1309 -0.2779  0.3139
  921MOL0     C24237   2.630  10.854   9.961  0.1149 -1.0149 -0.3037
  921MOL0     C24238   2.518  10.966  10.004  0.5919 -0.3991  0.8930
  921MOL0     C24239   2.563  11.115  10.007 -0.5829  1.5810  0.1524
  921MOL0     C24240   2.558  11.162  10.155 -0.3146 -1.0068  0.2422
  921MOL0     C24241   2.519  11.314  10.174 -0.2550  0.3074 -0.1507
  921MOL0     C24242   2.480  11.351  10.312 -0.0681 -0.0138 -0.3710
  921MOL0     C24243   2.457  11.508  10.329  0.0284  0.1752 -0.3018
  921MOL0    Cl24244   2.601  11.606  10.284 -0.0691 -0.2943  0.0034
  921MOL0     C24245   3.000  10.633  10.131 -0.4709 -0.9202  0.5482
  921MOL0     C24246   3.115  10.609  10.211  0.0547 -0.6476 -0.3979
  921MOL0     O24247   3.396  10.866  10.364  0.0805  0.1785 -0.0890
  921MOL0     C24248   3.500  10.537  10.448  0.0803  0.7297  1.2587
  921MOL0     C24249   3.600  10.454  10.493  1.2095 -0.4958 -0.1109
  921MOL0     N24250   4.212  10.238  10.526  0.4106 -0.2144  0.8974
  921MOL0     N24251   4.340  10.223  10.497 -0.2678 -0.3858 -0.1609
  921MOL0     C24252   4.817   9.403  11.035 -0.7401 -0.1804  0.9449
  921MOL0     C24253   4.867   9.372  11.161  1.1011 -0.4894 -0.0374
  921MOL0     C24254   5.048   9.309  11.540 -1.3769  0.9208  0.8009
  921MOL0     C24255   5.184   9.308  11.559  0.0808 -0.8999  0.1587
  921MOL0     C24256   5.238   9.319  11.680  0.0400 -0.4606  0.4024
  921MOL0     C24257   5.162   9.358  11.789 -0.0243 -1.3752 -0.4731
  921MOL0     O24258   5.192   9.408  11.914  0.7845  0.0109  0.4992
  921MOL0     C24259   5.331   9.413  11.949 -0.6006  0.2408 -0.0659
  921MOL0     C24260   5.341   9.532  12.065  0.0994  0.8270 -0.7049
  921MOL0     C24261   5.261   9.658  12.027 -0.2855 -0.0090 -0.3015
  921MOL0     C24262   5.288   9.732  11.900 -0.0500 -0.3536  0.5220
  921MOL0     C24263   5.421   9.784  11.907  0.1534 -0.3658 -1.0943
  921MOL0     C24264   5.531   9.824  11.922  0.6129 -0.6293  0.0254
  921MOL0     C24265   5.028   9.364  11.769 -0.5933  0.5823 -0.3347
  921MOL0     C24266   4.967   9.334  11.648  0.4972  0.6887  0.4428
  921MOL0     C24267   4.818   9.344  11.631  0.2305 -0.1825  0.1759
  921MOL0     H24268   5.191   9.333  11.063  0.7510  2.0969  4.9625
  921MOL0     H24269   5.086   9.355  10.837 -0.9078  1.7026 -1.1544
  921MOL0     H24270   4.637   9.355  10.810 -0.0539  0.4160  2.2922
  921MOL0     H24271   4.666   9.532  10.840 -4.8787 -1.9258 -0.0215
  921MOL0     H24272   4.540   9.527  10.649 -0.1785 -1.1299  0.8235
  921MOL0     H24273   4.642   9.405  10.581  1.4360 -0.8413  0.0453
  921MOL0     H24274   4.811   9.555  10.540 -0.1812 -5.5557  3.6064
  921MOL0     H24275   4.787   9.662  10.671 -2.0903 -2.1439  3.2331
  921MOL0     H24276   4.614   9.682  10.422  2.8523  0.3552 -2.3133
  921MOL0     H24277   4.578   9.751  10.578 -1.0949  0.0019 -0.1351
  921MOL0     H24278   4.773   9.898  10.556 -0.8791 -1.8902  0.0498
  921MOL0     H24279   4.832   9.813  10.417  1.4692 -1.4081  2.3543
  921MOL0     H24280   4.706  10.018  10.352 -1.9129  1.3361  0.3087
  921MOL0     H24281   4.634   9.874  10.278  0.4821  0.3495  0.1415
  921MOL0     H24282   4.520  10.007  10.532  0.2677 -2.2098  1.0418
  921MOL0     H24283   4.441   9.897  10.435 -0.1325 -1.1249 -3.8195
  921MOL0     H24284   4.540  10.158  10.314 -0.9899  1.1353 -0.5390
  921MOL0     H24285   4.450  10.040  10.240  0.0967 -0.7336  0.4412
  921MOL0     H24286   4.216   9.982  10.318  2.0142 -0.0374 -0.4258
  921MOL0     H24287   3.979  10.088  10.344  2.5727 -0.6302 -0.4354
  921MOL0     H24288   3.993  10.018  10.502 -2.3372 -0.5744 -1.4437
  921MOL0     H24289   3.890  10.313  10.449 -2.0063  0.6764 -0.7983
  921MOL0     H24290   3.789  10.173  10.465  0.3878  0.0180  0.1977
  921MOL0     H24291   3.993  10.240  10.675  0.3366 -1.6751 -0.7907
  921MOL0     H24292   3.869  10.124  10.681 -0.6192 -1.7464 -0.7769
  921MOL0     H24293   3.831  10.326  10.811 -2.9847 -1.1193  0.8958
  921MOL0     H24294   3.701  10.303  10.700 -0.7004  3.8672  2.3008
  921MOL0     H24295   3.782  10.704  10.646  0.7801 -0.8950  0.2591
  921MOL0     H24296   3.611  10.834  10.553 -2.3247  0.4887 -1.2374
  921MOL0     H24297   3.146  10.919  10.337 -3.4976  0.1321  0.8322
  921MOL0     H24298   2.969  10.964  10.181  2.6242  0.2020 -3.0572
  921MOL0     H24299   2.701  10.836  10.154 -1.5991 -4.3818 -1.6526
  921MOL0     H24300   2.790  10.968  10.061  1.0573 -0.6114 -1.3585
  921MOL0     H24301   2.668  10.874   9.861 -0.4748 -0.9636 -0.5202
  921MOL0     H24302   2.589  10.752   9.961  2.5934 -2.1350  1.8512
  921MOL0     H24303   2.444  10.955   9.924  1.1317 -0.4077  0.3853
  921MOL0     H24304   2.475  10.944  10.102 -0.9668  4.7284  1.6827
  921MOL0     H24305   2.497  11.172   9.941  0.0048  1.2358 -0.7582
  921MOL0     H24306   2.664  11.126   9.968 -0.3903 -3.0104 -1.2605
  921MOL0     H24307   2.653  11.148  10.208 -0.9438  0.5556  1.8786
  921MOL0     H24308   2.471  11.119  10.205 -0.5389  0.1173  0.8408
  921MOL0     H24309   2.605  11.373  10.142 -1.3106  2.0097  0.0666
  921MOL0     H24310   2.444  11.329  10.096 -1.5548 -1.4557  0.6840
  921MOL0     H24311   2.562  11.342  10.383  0.3869 -0.6698 -0.9671
  921MOL0     H24312   2.400  11.290  10.354 -1.4582  2.9049  1.5404
  921MOL0     H24313   2.370  11.536  10.268  0.1364 -4.2377 -2.8587
  921MOL0     H24314   2.434  11.524  10.435 -1.6821 -1.9162 -0.2926
  921MOL0     H24315   2.971  10.551  10.066 -2.1434  1.3561 -1.8451
  921MOL0     H24316   3.142  10.508  10.241 -0.8511 -0.9779 -0.6699
  921MOL0     H24317   3.424  10.490  10.387  2.1823 -0.7188 -0.3772
  921MOL0     H24318   3.588  10.350  10.461 -1.0507  0.3097 -2.1623
  921MOL0     H24319   4.715   9.441  11.032  0.3263  3.3124  2.7379
  921MOL0     H24320   4.812   9.373  11.254  3.2270  0.4683  1.2939
  921MOL0     H24321   5.253   9.291  11.477  1.7363  1.1922  1.0235
  921MOL0     H24322   5.346   9.307  11.689 -0.0505 -0.7564  1.1885
  921MOL0     H24323   5.385   9.439  11.857 -3.1231  5.1212 -0.5396
  921MOL0     H24324   5.367   9.320  11.992  0.9214  0.4567 -0.8323
  921MOL0     H24325   5.446   9.553  12.087  0.5553 -2.8410  1.4932
  921MOL0     H24326   5.293   9.505  12.159 -1.3192  1.1160 -1.3290
  921MOL0     H24327   5.270   9.717  12.119 -3.7622 -1.6783  1.3354
  921MOL0     H24328   5.156   9.627  12.026 -0.2923 -0.0376  0.4107
  921MOL0     H24329   5.276   9.664  11.814  1.6505  1.1999 -1.0098
  921MOL0     H24330   5.224   9.820  11.890 -2.9942 -2.2070  1.4062
  921MOL0     H24331   5.629   9.855  11.954 -0.0556  1.2236  0.4122
  921MOL0     H24332   4.950   9.391  11.840 -2.5619  0.5470 -2.3929
  921MOL0     H24333   4.765   9.250  11.651  2.1190 -1.6722 -1.4194
  921MOL0     H24334   4.770   9.418  11.695  3.0191  1.1924  0.8323
  921MOL0     H24335   4.792   9.393  11.537 -1.1669 -1.0886  0.0495
  922MOL0     O24336   4.394   5.556  10.950 -0.4595  0.7388  0.1523
  922MOL0     C24337   4.473   5.499  11.027  0.2733 -0.4388 -0.2525
  922MOL0     O24338   4.460   5.372  11.075 -0.3991 -0.2855 -0.1847
  922MOL0     C24339   4.357   5.292  11.035 -0.2736 -0.4977  0.6662
  922MOL0     C24340   4.336   5.177  11.107  0.7765 -1.1682 -0.5284
  922MOL0     C24341   4.247   5.081  11.069  0.2108  0.4008 -0.5118
  922MOL0     C24342   4.160   5.098  10.961  0.2290 -0.4365  0.0984
  922MOL0     O24343   4.062   5.009  10.937  0.0337 -0.1027 -0.5794
  922MOL0     C24344   4.033   4.978  10.807  0.3253  1.0468  0.3722
  922MOL0     C24345   4.053   4.823  10.799 -0.3406  0.1308 -0.2234
  922MOL0     C24346   4.178   4.802  10.708  0.3232 -0.2461  0.2939
  922MOL0     C24347   4.219   4.653  10.690 -0.2356 -1.8745  0.1896
  922MOL0     C24348   4.338   4.655  10.599 -0.5590 -0.2607  0.6349
  922MOL0     C24349   4.409   4.526  10.625  0.1019  0.3396 -0.1675
  922MOL0     C24350   4.520   4.506  10.522  0.4781  0.5584  0.2209
  922MOL0     C24351   4.549   4.359  10.514  1.6459  0.7075 -0.0939
  922MOL0     N24352   4.681   4.339  10.431 -0.0473  0.3690 -0.4473
  922MOL0     C24353   4.694   4.342  10.290 -0.0104  0.0697  0.0508
  922MOL0     C24354   4.803   4.262  10.259  0.0327  0.2404  0.1756
  922MOL0     C24355   4.849   4.218  10.119  0.3348 -0.5337 -0.5119
  922MOL0     C24356   4.922   4.337  10.059 -1.0167 -0.1334  0.7262
  922MOL0     C24357   4.987   4.298   9.928  0.0004 -0.8950  0.3562
  922MOL0     C24358   4.885   4.252   9.815 -0.6398 -0.0148  0.4960
  922MOL0     O24359   4.751   4.300   9.825 -0.1504 -1.2179 -0.2239
  922MOL0     C24360   4.721   4.439   9.815  0.1179  0.2490 -0.2457
  922MOL0     C24361   4.808   4.530   9.754 -0.1102 -0.5241  0.9295
  922MOL0     C24362   4.782   4.671   9.740  0.1133 -0.1190 -0.9086
  922MOL0     C24363   4.669   4.723   9.807 -0.6885 -0.6339  0.8936
  922MOL0     C24364   4.633   4.861   9.798  0.1777 -0.9287 -0.4530
  922MOL0     O24365   4.719   4.955   9.723 -0.3266  0.2671 -0.2255
  922MOL0     C24366   4.696   5.083   9.744 -0.2840 -0.6083 -0.0514
  922MOL0     C24367   4.802   5.155   9.802 -0.0133  0.1954 -0.0073
  922MOL0     C24368   4.789   5.288   9.839  0.2096  0.8636 -0.1676
  922MOL0     C24369   4.674   5.362   9.798 -0.8049  0.4265  0.6800
  922MOL0     O24370   4.666   5.491   9.848 -0.0545  0.8226  0.3043
  922MOL0     C24371   4.761   5.583   9.782  0.0100  0.0698 -0.6150
  922MOL0     C24372   4.706   5.728   9.780 -0.5414 -0.2196 -0.2171
  922MOL0     C24373   4.585   5.757   9.693  1.1684  1.5754  0.4363
  922MOL0     C24374   4.588   5.883   9.605 -0.0986 -0.0129  0.1261
  922MOL0     C24375   4.619   6.015   9.670 -0.4766  0.1242  0.2133
  922MOL0     C24376   4.543   6.144   9.612 -0.1466 -0.0054 -0.3799
  922MOL0     C24377   4.546   6.287   9.676  0.0891  0.0928 -0.5581
  922MOL0     C24378   4.436   6.377   9.630 -0.0551 -0.3329 -0.0938
  922MOL0    Cl24379   4.468   6.429   9.458  0.2394 -0.1851  0.1884
  922MOL0     C24380   4.571   5.289   9.742  0.3438  0.1095  0.0458
  922MOL0     C24381   4.580   5.154   9.714  0.3546 -0.1280 -0.6024
  922MOL0     O24382   4.536   4.898   9.865 -0.1675  0.0327  0.3396
  922MOL0     C24383   4.582   4.638   9.867 -0.9558 -0.6228 -0.2069
  922MOL0     C24384   4.601   4.504   9.867 -0.1663  0.0898  0.2368
  922MOL0     N24385   4.854   4.204  10.382  0.4540  0.0186  0.0559
  922MOL0     N24386   4.782   4.255  10.476  0.5785  0.2540 -0.1392
  922MOL0     C24387   4.177   5.216  10.882 -0.3804 -0.5553 -0.4766
  922MOL0     C24388   4.283   5.303  10.916 -0.3186  0.0007  0.8945
  922MOL0     C24389   4.574   5.591  11.082 -0.1824 -1.1497  0.2551
  922MOL0     C24390   4.637   5.683  10.990  0.7221  0.6164  0.2591
  922MOL0     C24391   4.728   5.783  11.030 -0.5582  0.2153  0.5938
  922MOL0     C24392   4.753   5.801  11.164 -0.1646 -1.6808 -0.6499
  922MOL0     O24393   4.851   5.896  11.187  0.4101 -0.0870  0.1472
  922MOL0     C24394   4.910   5.901  11.323 -0.7984  0.2312 -0.4894
  922MOL0     C24395   5.041   5.813  11.350  0.0849  0.2232  1.0597
  922MOL0     C24396   5.170   5.848  11.267 -1.0691 -0.6062 -0.1279
  922MOL0     C24397   5.223   5.976  11.329  0.0934  0.7355 -0.9052
  922MOL0     C24398   5.376   5.998  11.323 -0.0783 -0.5182  0.1127
  922MOL0     C24399   5.486   6.024  11.308 -0.3861 -0.4725 -0.3373
  922MOL0     C24400   4.707   5.705  11.255  0.4501 -0.8126  0.1233
  922MOL0     C24401   4.625   5.593  11.215 -1.5892 -0.3880 -0.6334
  922MOL0     C24402   4.591   5.484  11.312 -0.6459  0.0415  0.4615
  922MOL0     H24403   4.394   5.169  11.199 -1.3055  0.6861  1.0717
  922MOL0     H24404   4.218   4.993  11.125 -2.8949  0.7340 -1.4164
  922MOL0     H24405   3.932   5.006  10.774  0.5891 -0.0658 -1.5122
  922MOL0     H24406   4.096   5.026  10.731  0.4694  0.4029  0.0762
  922MOL0     H24407   3.972   4.778  10.740  1.4210  0.3139 -2.9600
  922MOL0     H24408   4.062   4.779  10.899 -0.8633  0.2427 -0.1219
  922MOL0     H24409   4.262   4.853  10.757 -1.0774  0.5768  1.9673
  922MOL0     H24410   4.162   4.856  10.614  0.9601  2.4656  1.6240
  922MOL0     H24411   4.255   4.618  10.787 -0.9340 -2.7054  0.1608
  922MOL0     H24412   4.142   4.587  10.650  0.8651 -1.9261 -2.0460
  922MOL0     H24413   4.314   4.679  10.495  0.7802  2.2602  0.8317
  922MOL0     H24414   4.404   4.742  10.604  0.6883 -1.1107 -0.4477
  922MOL0     H24415   4.454   4.535  10.724 -0.3207  0.8739 -0.0169
  922MOL0     H24416   4.332   4.449  10.616 -1.0976  1.6276 -1.5840
  922MOL0     H24417   4.613   4.556  10.552  1.0345  0.8062 -1.7920
  922MOL0     H24418   4.487   4.540  10.424  2.2139 -1.8953 -1.3315
  922MOL0     H24419   4.542   4.311  10.611 -0.4232 -0.7059 -0.8699
  922MOL0     H24420   4.468   4.312  10.457  2.0125  3.0308 -2.7899
  922MOL0     H24421   4.616   4.376  10.222  0.4153  1.7095  0.3216
  922MOL0     H24422   4.922   4.137  10.112 -0.3912 -1.1507 -1.0208
  922MOL0     H24423   4.763   4.187  10.060 -3.1178 -0.0402  3.7411
  922MOL0     H24424   4.856   4.424  10.046  0.4513  0.7289 -1.7234
  922MOL0     H24425   5.013   4.360  10.115  0.9961  1.3832 -2.7701
  922MOL0     H24426   5.054   4.213   9.941 -1.4899 -2.1455  0.0170
  922MOL0     H24427   5.039   4.387   9.890 -4.2900  0.8592 -2.0818
  922MOL0     H24428   4.880   4.146   9.841 -2.8350  0.2347  1.2338
  922MOL0     H24429   4.927   4.275   9.716  0.6281 -0.6979  0.8469
  922MOL0     H24430   4.888   4.494   9.689 -2.4023 -5.1090  0.2216
  922MOL0     H24431   4.846   4.731   9.677  1.0037  0.5009  0.5282
  922MOL0     H24432   4.897   5.111   9.832 -0.0945  1.0826  1.6910
  922MOL0     H24433   4.869   5.326   9.901  0.2479 -0.6074  0.7260
  922MOL0     H24434   4.856   5.573   9.835 -0.0854  0.0890 -0.4399
  922MOL0     H24435   4.781   5.554   9.678  0.1599  1.5490 -1.0301
  922MOL0     H24436   4.682   5.747   9.885  0.6322  0.0053  0.0240
  922MOL0     H24437   4.787   5.794   9.749  0.1309 -1.3505 -0.9459
  922MOL0     H24438   4.549   5.670   9.638  2.2215 -0.2675  2.5093
  922MOL0     H24439   4.511   5.798   9.763  3.4655  1.8375  2.8784
  922MOL0     H24440   4.497   5.891   9.544  1.1477  4.5997 -1.5387
  922MOL0     H24441   4.667   5.864   9.533 -0.5822 -2.7931  0.2283
  922MOL0     H24442   4.727   6.033   9.668 -0.8335  3.2676  2.0044
  922MOL0     H24443   4.588   6.015   9.775  0.3853  0.7895  0.4773
  922MOL0     H24444   4.559   6.146   9.504 -1.6823 -2.1333 -0.7182
  922MOL0     H24445   4.436   6.119   9.618 -0.9168  2.9809  0.2492
  922MOL0     H24446   4.645   6.332   9.666  0.4740 -0.4526  0.6318
  922MOL0     H24447   4.543   6.271   9.784 -0.8939 -1.1973 -0.7471
  922MOL0     H24448   4.341   6.327   9.649  0.1139 -0.0237  1.7574
  922MOL0     H24449   4.420   6.465   9.692 -1.2660  0.6965 -1.7787
  922MOL0     H24450   4.486   5.348   9.711  1.9867  2.3990 -0.4149
  922MOL0     H24451   4.498   5.094   9.675  0.5496 -0.4166 -0.5771
  922MOL0     H24452   4.491   4.673   9.914 -0.3191 -0.0443  0.6259
  922MOL0     H24453   4.530   4.440   9.916 -1.3847  1.6613  0.5998
  922MOL0     H24454   4.121   5.237  10.791  0.1291  0.5212 -0.5654
  922MOL0     H24455   4.317   5.382  10.849  2.8159 -1.1286  0.9876
  922MOL0     H24456   4.625   5.669  10.883 -3.8558 -2.0066  0.8450
  922MOL0     H24457   4.774   5.850  10.958  3.4608  0.4416  3.0401
  922MOL0     H24458   4.835   5.890  11.401 -0.5650  0.9215 -0.1613
  922MOL0     H24459   4.935   6.007  11.324  0.7251 -0.1131  0.1776
  922MOL0     H24460   5.013   5.713  11.314  1.2565 -0.3817  1.7891
  922MOL0     H24461   5.061   5.795  11.456 -1.3246  0.6259  1.4158
  922MOL0     H24462   5.134   5.873  11.167  0.5704  0.4512 -0.4845
  922MOL0     H24463   5.247   5.771  11.263  0.5018  0.9659 -2.5730
  922MOL0     H24464   5.162   6.060  11.296  0.1879  1.5649  0.9330
  922MOL0     H24465   5.206   5.981  11.437  0.1374  0.4709 -0.8863
  922MOL0     H24466   5.592   6.037  11.298 -0.7284  3.1219 -0.4529
  922MOL0     H24467   4.731   5.721  11.359 -1.5077  1.1470  0.3577
  922MOL0     H24468   4.604   5.507  11.418 -0.4684 -0.8479  0.6386
  922MOL0     H24469   4.486   5.456  11.300 -0.6124 -1.4559  2.9782
  922MOL0     H24470   4.643   5.392  11.284 -0.1574 -0.4597  2.8000
  923MOL0     O24471   2.260  10.890   1.745  0.2981 -1.2808  0.0139
  923MOL0     C24472   2.209  10.953   1.651 -0.1662  0.5862 -0.3672
  923MOL0     O24473   2.275  10.972   1.531 -0.2207  0.7012  0.1276
  923MOL0     C24474   2.383  10.888   1.514 -0.5996 -0.5376  0.3622
  923MOL0     C24475   2.510  10.939   1.531 -0.5627  0.4869 -0.4043
  923MOL0     C24476   2.628  10.867   1.539 -0.4977  0.2888  0.9819
  923MOL0     C24477   2.625  10.731   1.528 -0.0651  1.0914  0.9631
  923MOL0     O24478   2.741  10.655   1.539 -0.2257  0.4192  0.8503
  923MOL0     C24479   2.764  10.563   1.438 -0.3378 -0.0695 -0.3449
  923MOL0     C24480   2.840  10.452   1.504 -0.7528 -0.5491 -0.9662
  923MOL0     C24481   2.752  10.348   1.572  0.4471 -0.3569 -0.0772
  923MOL0     C24482   2.830  10.263   1.669 -1.6639  0.6541 -0.0950
  923MOL0     C24483   2.748  10.153   1.733  0.0501  1.0300  0.0638
  923MOL0     C24484   2.686  10.045   1.647 -0.3347  0.2256 -0.3855
  923MOL0     C24485   2.794   9.961   1.573  0.5922  0.0072  0.0117
  923MOL0     C24486   2.746   9.845   1.485  0.7749 -0.1720  0.4360
  923MOL0     N24487   2.830   9.834   1.369  0.7310  0.2218 -0.4286
  923MOL0     C24488   2.959   9.867   1.353 -0.4519 -0.0369 -0.1294
  923MOL0     C24489   2.998   9.834   1.228  0.8251 -0.6346  0.4359
  923MOL0     C24490   3.128   9.872   1.169 -0.4831 -0.7341  0.1552
  923MOL0     C24491   3.200   9.748   1.111 -0.5124  0.3757  0.1033
  923MOL0     C24492   3.167   9.727   0.957  0.1190  0.0653 -0.1697
  923MOL0     C24493   3.213   9.586   0.929 -0.2248  0.1957  0.0865
  923MOL0     O24494   3.356   9.582   0.940 -0.1005  0.3698  0.3678
  923MOL0     C24495   3.424   9.593   0.817 -0.5504 -0.3783  0.3205
  923MOL0     C24496   3.424   9.688   0.724 -0.3673 -0.4312  1.3877
  923MOL0     C24497   3.488   9.677   0.594 -0.1996  1.0296 -1.0496
  923MOL0     C24498   3.554   9.560   0.561 -0.5880 -0.5065 -0.2173
  923MOL0     C24499   3.632   9.536   0.435  0.1729  0.0602 -0.5805
  923MOL0     O24500   3.697   9.408   0.423  0.0280  0.6496 -0.9741
  923MOL0     C24501   3.726   9.363   0.293  0.4778 -1.2440 -0.3956
  923MOL0     C24502   3.666   9.250   0.245 -0.1846  0.0201 -0.2409
  923MOL0     C24503   3.704   9.197   0.126 -0.1832  0.5563 -0.3280
  923MOL0     C24504   3.782   9.272   0.037 -0.4181  0.8975  0.9047
  923MOL0     O24505   3.785   9.220  -0.095  0.3763 -1.0750 -0.5697
  923MOL0     C24506   3.907   9.237  -0.169 -0.2794  0.0111 -0.7692
  923MOL0     C24507   3.907   9.124  -0.282 -0.1262  0.0576  0.3172
  923MOL0     C24508   3.786   9.130  -0.367  0.2325  0.3592  0.1778
  923MOL0     C24509   3.809   9.075  -0.504  0.3476 -0.9474 -0.2587
  923MOL0     C24510   3.677   9.077  -0.577 -0.3895  0.5064 -1.0057
  923MOL0     C24511   3.692   9.048  -0.732  0.0912 -0.5393 -0.2615
  923MOL0     C24512   3.565   9.015  -0.817  0.4941  0.3998 -0.0932
  923MOL0     C24513   3.610   9.004  -0.967 -0.5017 -0.3103  1.3870
  923MOL0    Cl24514   3.464   8.956  -1.054 -0.1336  0.4118 -0.3072
  923MOL0     C24515   3.838   9.390   0.090 -0.2983  0.7745  0.2271
  923MOL0     C24516   3.817   9.434   0.215 -0.3148 -0.4189  0.5784
  923MOL0     O24517   3.621   9.616   0.352  0.1500  0.0183  0.8009
  923MOL0     C24518   3.549   9.455   0.653  0.1628 -0.7209 -0.4434
  923MOL0     C24519   3.496   9.476   0.779  1.2986  0.3903  0.2654
  923MOL0     N24520   2.880   9.774   1.169 -0.8372  0.9306 -0.9652
  923MOL0     N24521   2.781   9.779   1.253 -0.0547 -0.3015  0.8853
  923MOL0     C24522   2.496  10.675   1.514  0.2232  0.6909  0.1368
  923MOL0     C24523   2.379  10.752   1.517  0.6906  0.6816  0.6967
  923MOL0     C24524   2.075  11.019   1.665  0.9875 -0.7367  0.5098
  923MOL0     C24525   1.986  11.008   1.549 -0.6198  0.8040 -0.2486
  923MOL0     C24526   1.860  11.051   1.555 -0.3308  0.0246  0.0016
  923MOL0     C24527   1.812  11.108   1.680 -0.5317  0.2735  1.2111
  923MOL0     O24528   1.681  11.134   1.702 -0.1421 -0.0912  0.5154
  923MOL0     C24529   1.592  11.169   1.598 -0.6131 -0.0677 -0.0883
  923MOL0     C24530   1.463  11.213   1.653 -0.1052  0.1922  0.1983
  923MOL0     C24531   1.364  11.090   1.675  0.1064 -0.0612  0.6981
  923MOL0     C24532   1.391  11.031   1.816  0.2907 -0.2507 -0.2884
  923MOL0     C24533   1.306  10.918   1.834 -0.9756  0.3057 -0.5265
  923MOL0     C24534   1.245  10.818   1.859 -0.6828 -0.4869 -0.3023
  923MOL0     C24535   1.895  11.136   1.788  0.5875  0.1804 -0.4087
  923MOL0     C24536   2.029  11.085   1.785 -0.8812  1.2446  0.6304
  923MOL0     C24537   2.114  11.098   1.910  0.4413  0.2060  0.3407
  923MOL0     H24538   2.516  11.045   1.549  0.8244  0.7164 -1.9964
  923MOL0     H24539   2.728  10.906   1.555 -0.8952  1.2122  1.2921
  923MOL0     H24540   2.678  10.529   1.380  0.1156  0.0323 -1.0934
  923MOL0     H24541   2.835  10.620   1.377  0.1157 -1.1819 -0.8808
  923MOL0     H24542   2.898  10.502   1.582 -2.3286  2.0359 -1.3465
  923MOL0     H24543   2.900  10.397   1.431 -1.6523  1.1833 -3.1166
  923MOL0     H24544   2.699  10.291   1.496  0.3162 -0.3484  0.0079
  923MOL0     H24545   2.685  10.406   1.636 -1.3666  0.5754 -2.6763
  923MOL0     H24546   2.917  10.217   1.621  0.1473  0.0186  3.4512
  923MOL0     H24547   2.881  10.323   1.745  0.1720  1.0566 -1.5459
  923MOL0     H24548   2.806  10.090   1.802 -2.4782 -1.1070  0.3600
  923MOL0     H24549   2.665  10.197   1.789  0.5955  0.3641  1.4534
  923MOL0     H24550   2.629   9.974   1.708 -0.5816  1.2186  0.5732
  923MOL0     H24551   2.627  10.099   1.573  2.0867  2.5811 -0.7761
  923MOL0     H24552   2.861   9.910   1.643  1.0130 -2.8792 -2.3299
  923MOL0     H24553   2.839  10.032   1.503 -1.8468  0.4569 -1.2072
  923MOL0     H24554   2.749   9.747   1.534  1.6352 -1.4161 -1.9538
  923MOL0     H24555   2.647   9.857   1.441  2.0252  0.9405 -2.3270
  923MOL0     H24556   3.030   9.907   1.425  1.5114  1.1232 -2.5543
  923MOL0     H24557   3.105   9.949   1.095  1.4127 -1.3713 -1.1759
  923MOL0     H24558   3.182   9.918   1.252 -3.6087 -0.6846  2.3276
  923MOL0     H24559   3.307   9.773   1.119  0.3626 -2.6042 -0.8838
  923MOL0     H24560   3.172   9.667   1.178 -1.4942  1.4304  1.0120
  923MOL0     H24561   3.226   9.801   0.902  1.7091 -0.6699  0.4513
  923MOL0     H24562   3.062   9.732   0.927  0.1844 -3.6051 -1.5430
  923MOL0     H24563   3.171   9.549   0.836 -0.9537 -0.8484  0.8055
  923MOL0     H24564   3.167   9.521   1.005 -1.0040  1.7322  0.9746
  923MOL0     H24565   3.376   9.783   0.745  0.1054  0.4225 -1.0157
  923MOL0     H24566   3.479   9.759   0.525  2.0299  1.8572 -0.4454
  923MOL0     H24567   3.590   9.211   0.312 -1.9975  3.5493 -0.0308
  923MOL0     H24568   3.656   9.108   0.084 -0.5564  0.0048  1.2065
  923MOL0     H24569   3.895   9.335  -0.217  1.2906  2.6428  3.6004
  923MOL0     H24570   3.993   9.234  -0.102 -1.7905 -0.5460  1.2256
  923MOL0     H24571   3.995   9.145  -0.343  0.3859  1.9319  1.6279
  923MOL0     H24572   3.909   9.025  -0.236 -1.2667 -0.7347 -1.2279
  923MOL0     H24573   3.712   9.064  -0.321 -1.8925  1.4754 -1.4751
  923MOL0     H24574   3.751   9.233  -0.368 -0.8973 -0.0207 -0.8821
  923MOL0     H24575   3.851   8.975  -0.509  0.7904 -0.7160 -1.3960
  923MOL0     H24576   3.877   9.141  -0.558  1.3443 -1.4815  0.3191
  923MOL0     H24577   3.610   9.164  -0.574  1.1093  1.8573 -3.0798
  923MOL0     H24578   3.617   9.002  -0.526 -1.0229  1.8743  0.3397
  923MOL0     H24579   3.741   9.141  -0.762  0.1724 -0.2919  0.6103
  923MOL0     H24580   3.763   8.965  -0.734 -1.6626 -2.1046 -1.7051
  923MOL0     H24581   3.489   9.093  -0.807  1.9994  2.1965 -1.8640
  923MOL0     H24582   3.523   8.928  -0.765 -0.8502  2.2213  2.0590
  923MOL0     H24583   3.634   9.100  -1.014 -0.5054 -0.3705  1.2609
  923MOL0     H24584   3.693   8.933  -0.969  2.8482  2.8252  6.3646
  923MOL0     H24585   3.892   9.452   0.019 -0.8814  0.3880 -0.5679
  923MOL0     H24586   3.868   9.521   0.255  2.6658 -1.1342 -1.2467
  923MOL0     H24587   3.587   9.356   0.632 -0.8242 -1.1031 -0.5012
  923MOL0     H24588   3.496   9.399   0.855 -2.6799 -1.1715 -1.0374
  923MOL0     H24589   2.498  10.567   1.519  1.8992  0.7559  1.7144
  923MOL0     H24590   2.280  10.708   1.518  1.0561 -0.9761 -4.2967
  923MOL0     H24591   2.025  10.945   1.470  2.1867  1.3775  0.5689
  923MOL0     H24592   1.788  11.020   1.479 -2.2493  0.2688  1.6265
  923MOL0     H24593   1.584  11.082   1.533  0.5341  0.1340 -0.5300
  923MOL0     H24594   1.628  11.260   1.550 -3.2146  1.7412  1.1211
  923MOL0     H24595   1.401  11.275   1.589 -2.9344  0.5154  3.0418
  923MOL0     H24596   1.464  11.276   1.741  1.8009 -0.5733  0.7962
  923MOL0     H24597   1.382  11.006   1.607 -0.0509 -2.8780  3.8839
  923MOL0     H24598   1.261  11.124   1.662  0.0801 -0.5729 -0.6824
  923MOL0     H24599   1.492  11.004   1.845 -0.2674 -0.7166  1.3194
  923MOL0     H24600   1.355  11.107   1.886  0.3401  1.2742 -1.8424
  923MOL0     H24601   1.180  10.741   1.896 -0.3883 -0.9606 -0.7554
  923MOL0     H24602   1.856  11.171   1.883  0.2383  1.6568 -1.0740
  923MOL0     H24603   2.089  11.011   1.973 -1.0917 -0.0203 -0.5315
  923MOL0     H24604   2.222  11.100   1.895  0.9819 -1.6393  3.1610
  923MOL0     H24605   2.089  11.189   1.966  2.7513  0.1672  1.5496
  924MOL0     O24606   9.488   3.474   1.965 -0.0353  0.1777  0.2215
  924MOL0     C24607   9.570   3.437   1.883  0.7112  0.2431 -0.3971
  924MOL0     O24608   9.551   3.329   1.804 -0.7702  0.4549 -0.2091
  924MOL0     C24609   9.446   3.240   1.826 -0.2732 -0.5536 -0.6099
  924MOL0     C24610   9.366   3.200   1.721  0.0775 -0.1917  0.1908
  924MOL0     C24611   9.267   3.103   1.737  0.4089 -0.4096 -0.3601
  924MOL0     C24612   9.246   3.041   1.866 -0.1092 -0.0346 -0.3544
  924MOL0     O24613   9.156   2.937   1.867 -0.1614  0.0695  0.3483
  924MOL0     C24614   9.087   2.920   1.987 -0.3824 -0.7287 -0.2371
  924MOL0     C24615   8.962   2.835   1.970  0.7989  0.0129 -0.5451
  924MOL0     C24616   8.864   2.935   1.887 -0.5188  0.4026 -0.9916
  924MOL0     C24617   8.724   2.873   1.885  0.2749  0.3621 -0.4846
  924MOL0     C24618   8.612   2.968   1.843  0.3629 -0.2167  0.4011
  924MOL0     C24619   8.648   3.035   1.716  0.1166  0.0860  0.1093
  924MOL0     C24620   8.538   3.125   1.669 -1.0493 -0.8068  0.6081
  924MOL0     C24621   8.594   3.210   1.545 -1.5193  0.6377 -1.1958
  924MOL0     N24622   8.548   3.156   1.416  0.1098  0.1922 -0.9574
  924MOL0     C24623   8.613   3.060   1.347  0.0733  0.1022 -1.2913
  924MOL0     C24624   8.536   3.033   1.239 -0.4914  0.1560  0.8500
  924MOL0     C24625   8.571   2.947   1.126 -0.6248  0.2809  0.0861
  924MOL0     C24626   8.541   3.012   0.989  0.3152 -0.7520  0.3192
  924MOL0     C24627   8.636   3.131   0.961 -0.5494  0.0388  0.7496
  924MOL0     C24628   8.761   3.083   0.883  0.5401 -0.1105  0.4412
  924MOL0     O24629   8.862   3.178   0.914 -0.6151  0.1432 -0.3709
  924MOL0     C24630   8.925   3.245   0.807  0.0595 -0.0204  0.3208
  924MOL0     C24631   8.960   3.380   0.810 -0.2674 -0.5489 -0.2180
  924MOL0     C24632   9.034   3.443   0.702  1.3930  0.1646 -0.5372
  924MOL0     C24633   9.063   3.377   0.584  0.6884  0.0489 -0.8374
  924MOL0     C24634   9.127   3.439   0.462 -0.4719 -0.4879 -0.1853
  924MOL0     O24635   9.188   3.354   0.372 -0.0615  0.0323  0.2830
  924MOL0     C24636   9.266   3.384   0.263 -0.0530  0.0329  0.4311
  924MOL0     C24637   9.359   3.490   0.259  0.4519 -0.6272  0.4158
  924MOL0     C24638   9.418   3.508   0.142  0.4752  0.2804  0.2915
  924MOL0     C24639   9.408   3.421   0.033 -0.0107  0.7432  0.0103
  924MOL0     O24640   9.496   3.443  -0.072  0.5572 -0.1486 -0.0910
  924MOL0     C24641   9.553   3.330  -0.149 -0.2667  0.1183  0.1244
  924MOL0     C24642   9.635   3.395  -0.264 -0.1821 -0.2235  0.0481
  924MOL0     C24643   9.551   3.487  -0.363  0.2101  0.5569 -0.0090
  924MOL0     C24644   9.473   3.392  -0.464  0.6783 -0.4289 -0.7035
  924MOL0     C24645   9.559   3.325  -0.567 -0.6929 -0.0936 -1.1961
  924MOL0     C24646   9.494   3.200  -0.632 -0.9298 -0.5869  0.2414
  924MOL0     C24647   9.522   3.069  -0.547  0.2654  1.1249 -0.0214
  924MOL0     C24648   9.479   2.941  -0.613  0.7558 -0.8217 -1.0074
  924MOL0    Cl24649   9.334   2.974  -0.712  0.0633 -0.2706  0.0218
  924MOL0     C24650   9.316   3.308   0.045 -0.5643 -0.4774 -0.5544
  924MOL0     C24651   9.241   3.301   0.154  0.0836 -0.3534  0.3389
  924MOL0     O24652   9.131   3.564   0.461 -0.4185  0.6776  0.2541
  924MOL0     C24653   9.029   3.241   0.584 -1.0326 -0.1086 -0.5092
  924MOL0     C24654   8.960   3.176   0.691  0.4909 -0.5515  0.1196
  924MOL0     N24655   8.435   3.117   1.239 -0.5323 -0.0497  0.3002
  924MOL0     N24656   8.432   3.192   1.344  0.0444  0.5007  1.1139
  924MOL0     C24657   9.320   3.088   1.971 -0.0442 -0.0264  0.1568
  924MOL0     C24658   9.427   3.183   1.954  0.2913  0.2740  0.3657
  924MOL0     C24659   9.685   3.522   1.855 -0.2201 -0.1288  0.5308
  924MOL0     C24660   9.717   3.558   1.720 -0.3922  0.1405 -0.1548
  924MOL0     C24661   9.831   3.620   1.695 -0.4606 -0.0035  0.4606
  924MOL0     C24662   9.918   3.666   1.783  0.2439 -1.5629 -0.2591
  924MOL0     O24663  10.026   3.752   1.741 -0.1365 -0.0901  1.0889
  924MOL0     C24664  10.161   3.723   1.795 -0.6035 -0.0796 -0.2270
  924MOL0     C24665  10.249   3.859   1.802  0.3091 -0.0727  0.6772
  924MOL0     C24666  10.347   3.878   1.681 -0.1491 -0.5625  1.0758
  924MOL0     C24667  10.278   3.905   1.546  0.0966  0.1788  0.2937
  924MOL0     C24668  10.242   3.786   1.461  0.7057 -0.0620 -0.3860
  924MOL0     C24669  10.199   3.693   1.403 -0.3286  0.0057  0.2174
  924MOL0     C24670   9.889   3.640   1.918 -0.6453  0.7565 -0.6970
  924MOL0     C24671   9.772   3.569   1.955  0.8444 -0.4409  0.4633
  924MOL0     C24672   9.756   3.535   2.104  0.4185  1.5749 -0.6006
  924MOL0     H24673   9.379   3.242   1.622 -2.2214  1.0261  0.3480
  924MOL0     H24674   9.215   3.086   1.643  0.3732 -0.3522 -0.3514
  924MOL0     H24675   9.161   2.868   2.050  1.0783 -2.0553 -2.8785
  924MOL0     H24676   9.070   3.014   2.040  3.2311 -0.5434  0.8836
  924MOL0     H24677   8.916   2.809   2.066  1.8739 -2.3739 -0.6093
  924MOL0     H24678   8.973   2.742   1.915 -3.2867 -1.4990  0.8806
  924MOL0     H24679   8.902   2.945   1.785  0.8921 -0.6732 -0.5878
  924MOL0     H24680   8.863   3.039   1.923 -0.7735  0.1929 -0.3803
  924MOL0     H24681   8.731   2.772   1.845 -1.2860 -0.9652  2.2789
  924MOL0     H24682   8.695   2.844   1.987 -2.7433  0.2145 -1.2822
  924MOL0     H24683   8.518   2.920   1.815 -0.3430  2.1584 -1.5691
  924MOL0     H24684   8.590   3.047   1.915 -0.7407  2.0458 -2.2477
  924MOL0     H24685   8.738   3.096   1.725 -0.5888  1.8737 -3.1740
  924MOL0     H24686   8.661   2.961   1.637  0.1245  0.0534  0.1412
  924MOL0     H24687   8.512   3.193   1.750 -0.0088 -1.7160  1.7529
  924MOL0     H24688   8.449   3.070   1.637 -2.3393  2.0114 -1.0513
  924MOL0     H24689   8.560   3.314   1.553 -0.0920  1.0427 -0.0356
  924MOL0     H24690   8.702   3.223   1.543 -1.1367 -0.1606  3.4427
  924MOL0     H24691   8.704   3.015   1.385 -0.1225  1.9641  1.7325
  924MOL0     H24692   8.677   2.922   1.125 -0.6977 -0.2499 -2.6233
  924MOL0     H24693   8.512   2.856   1.136  0.9682 -0.8028 -0.0438
  924MOL0     H24694   8.556   2.944   0.904 -1.4447 -0.1553 -0.5157
  924MOL0     H24695   8.438   3.048   0.992  0.3758 -0.6566  1.8993
  924MOL0     H24696   8.658   3.183   1.054  1.6251  0.1408  0.2366
  924MOL0     H24697   8.579   3.200   0.900  1.6110 -0.6731 -2.3419
  924MOL0     H24698   8.729   3.089   0.778 -1.9542  2.1694  1.2271
  924MOL0     H24699   8.777   2.978   0.907 -0.5252 -0.0939  1.2972
  924MOL0     H24700   8.914   3.443   0.885 -1.4970 -0.0691 -1.3387
  924MOL0     H24701   9.055   3.549   0.710 -0.8463  0.5707  0.8601
  924MOL0     H24702   9.375   3.555   0.344 -0.9061  0.5858 -0.2163
  924MOL0     H24703   9.463   3.606   0.131 -4.2561  2.6055 -1.2916
  924MOL0     H24704   9.619   3.265  -0.090  1.3826  0.1014 -1.6184
  924MOL0     H24705   9.477   3.263  -0.192  0.1036 -0.0687 -0.2474
  924MOL0     H24706   9.696   3.469  -0.211 -2.4674  2.1312 -0.4177
  924MOL0     H24707   9.697   3.314  -0.306 -0.6510  0.2246 -1.6016
  924MOL0     H24708   9.481   3.547  -0.303  0.9305 -1.0667  2.6397
  924MOL0     H24709   9.620   3.560  -0.405  0.2361  0.6291  0.1573
  924MOL0     H24710   9.398   3.441  -0.527  0.4955 -2.8676 -2.5084
  924MOL0     H24711   9.423   3.313  -0.407 -1.3523 -1.5818 -3.8735
  924MOL0     H24712   9.655   3.311  -0.517 -1.6563  2.3489  1.6169
  924MOL0     H24713   9.577   3.390  -0.653  2.9462 -1.0056 -1.2682
  924MOL0     H24714   9.394   3.230  -0.666  0.0370  1.3467 -1.0827
  924MOL0     H24715   9.543   3.179  -0.727 -0.1712 -2.2365  0.9554
  924MOL0     H24716   9.449   3.075  -0.466 -2.4995 -5.2917 -1.4564
  924MOL0     H24717   9.624   3.064  -0.507  1.3298 -0.5567 -2.7043
  924MOL0     H24718   9.566   2.904  -0.669  2.9195 -0.1194  1.6549
  924MOL0     H24719   9.459   2.860  -0.542  2.0489  0.2767  0.6730
  924MOL0     H24720   9.296   3.226  -0.024  0.2255 -0.0976 -1.2391
  924MOL0     H24721   9.166   3.223   0.160 -1.3129  1.0301  1.6577
  924MOL0     H24722   9.080   3.176   0.514  1.3731 -1.2270  2.1049
  924MOL0     H24723   8.951   3.068   0.678 -1.1177 -0.3434 -0.6698
  924MOL0     H24724   9.301   3.056   2.073 -0.2939 -4.0721 -0.9910
  924MOL0     H24725   9.481   3.218   2.041  0.2154  0.9293  0.1551
  924MOL0     H24726   9.661   3.515   1.637 -1.0059  0.9670 -0.1803
  924MOL0     H24727   9.842   3.658   1.594  1.0014 -1.4914  0.0187
  924MOL0     H24728  10.196   3.648   1.724 -1.6832 -0.9188  0.1098
  924MOL0     H24729  10.161   3.676   1.893 -5.5054  0.3719  0.2267
  924MOL0     H24730  10.307   3.855   1.895  0.7215 -3.0794  0.3893
  924MOL0     H24731  10.179   3.942   1.795  1.0116  0.7739  2.8895
  924MOL0     H24732  10.408   3.787   1.680 -0.6648 -0.9141  0.4851
  924MOL0     H24733  10.407   3.968   1.696 -0.2999  0.2131 -2.2863
  924MOL0     H24734  10.189   3.964   1.569  1.1553  1.4742  1.2786
  924MOL0     H24735  10.337   3.973   1.483 -2.1461  1.3846 -0.6049
  924MOL0     H24736  10.158   3.621   1.335  0.5823  0.9944 -1.4272
  924MOL0     H24737   9.951   3.676   1.999 -2.6793 -1.5743  2.1217
  924MOL0     H24738   9.691   3.608   2.153  0.8118  1.6913 -0.2474
  924MOL0     H24739   9.707   3.438   2.113 -2.1235  2.6127 -2.0454
  924MOL0     H24740   9.846   3.526   2.166  0.4695 -1.1434 -0.9547
  925MOL0     O24741   1.377  10.617   6.111  0.1311 -1.3248 -0.3603
  925MOL0     C24742   1.471  10.599   6.191  1.4940 -0.4451  0.2780
  925MOL0     O24743   1.545  10.694   6.243 -0.8521  0.1832 -0.4165
  925MOL0     C24744   1.545  10.830   6.205 -0.1870  0.1243  0.1050
  925MOL0     C24745   1.583  10.923   6.303 -0.1095  0.2870  1.3308
  925MOL0     C24746   1.586  11.063   6.275 -0.0636  0.4513  1.1942
  925MOL0     C24747   1.538  11.112   6.153  0.0908 -1.3089  1.2345
  925MOL0     O24748   1.537  11.245   6.108 -0.7864 -0.3216 -0.2013
  925MOL0     C24749   1.547  11.351   6.205  0.5105 -0.0610  0.1883
  925MOL0     C24750   1.562  11.498   6.144 -0.5609 -0.3349 -0.4006
  925MOL0     C24751   1.425  11.534   6.083 -0.3270 -0.5072  0.1384
  925MOL0     C24752   1.419  11.675   6.035 -0.7040 -0.0861  0.6244
  925MOL0     C24753   1.294  11.694   5.954  0.0733 -0.6798  0.1967
  925MOL0     C24754   1.328  11.764   5.819  0.3574 -0.8267 -0.9753
  925MOL0     C24755   1.198  11.818   5.747 -1.1025 -0.7429 -0.0398
  925MOL0     C24756   1.192  11.975   5.773  0.1654 -0.1875  0.4845
  925MOL0     N24757   1.072  12.030   5.712  0.2356  0.4288  0.3844
  925MOL0     C24758   1.040  12.010   5.582  0.3082  0.3071  0.4195
  925MOL0     C24759   0.922  12.074   5.561 -0.5056  0.6311 -0.3549
  925MOL0     C24760   0.837  12.043   5.437 -0.6301 -0.0860  0.0837
  925MOL0     C24761   0.751  11.922   5.465  0.1763  0.8773  0.0133
  925MOL0     C24762   0.665  11.869   5.347 -1.0764  0.3952 -0.4413
  925MOL0     C24763   0.663  11.714   5.350  0.5536  0.4690 -0.2523
  925MOL0     O24764   0.585  11.663   5.455  0.0213  0.2619 -0.1798
  925MOL0     C24765   0.454  11.623   5.424  1.0562 -0.6251 -1.0307
  925MOL0     C24766   0.398  11.546   5.529 -0.7019 -0.3509  0.1980
  925MOL0     C24767   0.264  11.507   5.524  0.1279 -1.4293  0.2489
  925MOL0     C24768   0.184  11.553   5.412  0.9180 -1.4399  0.1240
  925MOL0     C24769   0.039  11.522   5.403  0.5889 -0.4679 -0.3996
  925MOL0     O24770  -0.015  11.406   5.456 -0.3822 -0.3250  0.2241
  925MOL0     C24771  -0.118  11.363   5.378  0.5271  0.0336  0.1816
  925MOL0     C24772  -0.248  11.371   5.424 -0.6240 -0.5309 -0.3349
  925MOL0     C24773  -0.364  11.325   5.351  0.2677 -0.6477 -0.7967
  925MOL0     C24774  -0.347  11.266   5.225 -0.6905  0.3779  0.1346
  925MOL0     O24775  -0.447  11.225   5.142 -0.7640 -0.1006 -0.8270
  925MOL0     C24776  -0.439  11.262   5.003 -0.5703 -0.2326 -0.6679
  925MOL0     C24777  -0.574  11.286   4.937 -0.2469 -0.6658  0.5786
  925MOL0     C24778  -0.619  11.150   4.880  0.3728  0.4209 -0.6014
  925MOL0     C24779  -0.764  11.161   4.829  0.0804 -0.8444 -0.0645
  925MOL0     C24780  -0.778  11.070   4.699  0.3455 -0.2301  0.5190
  925MOL0     C24781  -0.898  11.123   4.619 -0.7068 -0.9140 -0.0923
  925MOL0     C24782  -0.914  11.058   4.479 -0.6303 -0.3056 -1.0277
  925MOL0     C24783  -1.048  11.090   4.421 -0.4895  0.3680  0.2061
  925MOL0    Cl24784  -1.186  11.020   4.517  0.5620  0.3766 -0.0506
  925MOL0     C24785  -0.211  11.267   5.174 -0.5562 -0.2100  0.0549
  925MOL0     C24786  -0.097  11.298   5.259 -0.7078  0.3648  0.2263
  925MOL0     O24787  -0.035  11.609   5.355 -1.1198  0.0095 -0.4563
  925MOL0     C24788   0.250  11.624   5.307  0.3200  0.1330 -0.0238
  925MOL0     C24789   0.382  11.667   5.317  1.1300 -0.1416 -0.8156
  925MOL0     N24790   0.889  12.138   5.673 -0.2848  0.1833  0.3386
  925MOL0     N24791   0.976  12.109   5.768  0.0410  0.8628  0.5011
  925MOL0     C24792   1.504  11.018   6.059  0.3000 -0.0211 -0.0223
  925MOL0     C24793   1.507  10.878   6.078  0.9004 -0.4809  0.6942
  925MOL0     C24794   1.487  10.461   6.247  0.6894  0.5304  0.9561
  925MOL0     C24795   1.467  10.361   6.154  0.3453  0.0371  0.2106
  925MOL0     C24796   1.494  10.227   6.181 -0.0928 -0.2850  0.2650
  925MOL0     C24797   1.559  10.189   6.300  0.6251  0.3251 -0.6500
  925MOL0     O24798   1.612  10.064   6.333  0.1868  0.6578  0.4919
  925MOL0     C24799   1.606   9.960   6.223 -0.0560  0.2537 -0.2379
  925MOL0     C24800   1.481   9.876   6.227  0.2532  0.3775  0.4597
  925MOL0     C24801   1.435   9.798   6.354 -0.1683 -1.1350  0.3690
  925MOL0     C24802   1.320   9.705   6.333  0.1247  0.6832  0.3143
  925MOL0     C24803   1.302   9.619   6.446  0.7946 -0.1283 -0.0882
  925MOL0     C24804   1.291   9.544   6.536 -0.4450  0.3141 -0.0413
  925MOL0     C24805   1.581  10.293   6.395 -0.7394  0.2856  0.4102
  925MOL0     C24806   1.548  10.420   6.367  0.9684 -0.3043  0.5793
  925MOL0     C24807   1.563  10.528   6.466 -0.1957  0.0903  0.0129
  925MOL0     H24808   1.626  10.878   6.392  2.5492  0.3685  0.1939
  925MOL0     H24809   1.640  11.110   6.357  4.6393  0.6523 -1.6528
  925MOL0     H24810   1.462  11.350   6.272 -0.9218  4.4805 -1.2172
  925MOL0     H24811   1.638  11.353   6.266  0.4068  0.5995  0.3288
  925MOL0     H24812   1.657  11.515   6.092 -0.6005  0.0890 -0.3428
  925MOL0     H24813   1.589  11.568   6.224  0.3435 -0.6586 -0.4172
  925MOL0     H24814   1.339  11.526   6.149 -0.5295 -0.0644 -0.0635
  925MOL0     H24815   1.418  11.471   5.994  4.0675 -0.4218 -0.4746
  925MOL0     H24816   1.432  11.743   6.120  2.5341 -1.3521  1.2755
  925MOL0     H24817   1.503  11.690   5.967 -1.6416  0.4554 -0.4557
  925MOL0     H24818   1.246  11.597   5.940  1.8914 -2.7576  5.7749
  925MOL0     H24819   1.229  11.756   6.016 -0.0242 -1.2567  0.6872
  925MOL0     H24820   1.399  11.847   5.831 -2.0123  1.4729 -1.8740
  925MOL0     H24821   1.381  11.690   5.758 -0.0307 -2.0651  0.1379
  925MOL0     H24822   1.114  11.769   5.798 -0.2550 -1.0667  1.0948
  925MOL0     H24823   1.201  11.798   5.640 -0.6484  0.5105 -0.2773
  925MOL0     H24824   1.193  11.996   5.880 -0.3851 -0.8711  0.6299
  925MOL0     H24825   1.284  12.012   5.726  0.0119  1.3909  1.3794
  925MOL0     H24826   1.088  11.961   5.498  1.7940  1.3101  0.6461
  925MOL0     H24827   0.781  12.135   5.420 -0.0072  0.2533 -0.2034
  925MOL0     H24828   0.906  12.033   5.352 -1.3691  1.0649 -0.6876
  925MOL0     H24829   0.804  11.837   5.507 -3.6923  0.4065  4.8365
  925MOL0     H24830   0.672  11.942   5.538 -1.8356  1.3962 -2.1796
  925MOL0     H24831   0.720  11.902   5.258  0.2505 -0.0801  0.1727
  925MOL0     H24832   0.567  11.917   5.350 -0.0019  2.7816 -1.5427
  925MOL0     H24833   0.765  11.674   5.357  0.4403  0.3949  1.2804
  925MOL0     H24834   0.625  11.683   5.252  2.4224  0.6770 -1.0859
  925MOL0     H24835   0.461  11.532   5.617  0.8261  2.3023 -0.3661
  925MOL0     H24836   0.206  11.459   5.602 -2.2926  0.7435 -0.1139
  925MOL0     H24837  -0.267  11.414   5.522 -0.4564 -2.9190  0.8277
  925MOL0     H24838  -0.464  11.357   5.377  0.9854  0.3807  0.9112
  925MOL0     H24839  -0.403  11.365   5.010 -1.0082 -0.1605  0.9492
  925MOL0     H24840  -0.371  11.200   4.945  2.4030  3.0202 -1.0188
  925MOL0     H24841  -0.653  11.324   5.002  0.9428 -0.8889  2.2230
  925MOL0     H24842  -0.551  11.345   4.848  0.1426 -3.6036 -1.4078
  925MOL0     H24843  -0.545  11.133   4.801  1.4802  2.1985 -0.0217
  925MOL0     H24844  -0.617  11.072   4.956  3.3716 -0.4293 -1.4227
  925MOL0     H24845  -0.780  11.265   4.798  0.0082 -1.7055 -3.3253
  925MOL0     H24846  -0.824  11.133   4.916  1.1947  0.7613  1.2711
  925MOL0     H24847  -0.799  10.967   4.729  1.3791 -0.3567  0.8574
  925MOL0     H24848  -0.689  11.075   4.635  0.4364  0.7295  0.7011
  925MOL0     H24849  -0.988  11.104   4.677  0.0667  0.4461  1.6504
  925MOL0     H24850  -0.898  11.232   4.607 -0.8686 -1.0152 -1.0723
  925MOL0     H24851  -0.901  10.950   4.484  4.7530  0.0156 -1.7944
  925MOL0     H24852  -0.831  11.090   4.415  1.3742 -0.2408  1.4314
  925MOL0     H24853  -1.067  11.197   4.429 -1.9904  0.1580 -0.2305
  925MOL0     H24854  -1.046  11.060   4.315 -0.6010  0.0550  0.2898
  925MOL0     H24855  -0.175  11.242   5.075  0.0776  3.6001 -0.7996
  925MOL0     H24856   0.004  11.292   5.218 -2.3538 -0.2692 -4.2262
  925MOL0     H24857   0.192  11.669   5.227 -0.4327 -3.0065 -1.3576
  925MOL0     H24858   0.420  11.727   5.235  0.6482  0.6849 -0.4417
  925MOL0     H24859   1.461  11.057   5.967 -2.5760  2.6573  2.2011
  925MOL0     H24860   1.486  10.820   5.988  0.2452  1.8194 -0.7347
  925MOL0     H24861   1.410  10.376   6.063 -1.5242  0.0861  1.3481
  925MOL0     H24862   1.454  10.155   6.110  3.4141 -0.0573 -2.1561
  925MOL0     H24863   1.692   9.893   6.225  1.8180  2.4576 -1.4397
  925MOL0     H24864   1.624  10.013   6.129  1.8582  1.4876  0.7610
  925MOL0     H24865   1.495   9.798   6.151 -1.5632  0.4299  0.0362
  925MOL0     H24866   1.404   9.949   6.201  1.3807  1.8707  1.1454
  925MOL0     H24867   1.405   9.870   6.431  0.6812  1.7764 -1.7988
  925MOL0     H24868   1.528   9.760   6.397  1.4491  1.9614 -0.0614
  925MOL0     H24869   1.228   9.750   6.293  0.1645 -0.5345 -1.2157
  925MOL0     H24870   1.349   9.635   6.255  2.2381 -2.6223  3.7605
  925MOL0     H24871   1.262   9.491   6.625 -0.4328 -4.6565 -2.6440
  925MOL0     H24872   1.619  10.268   6.493  0.4450  1.8338  0.3832
  925MOL0     H24873   1.577  10.496   6.569  0.9457 -1.4359 -0.5699
  925MOL0     H24874   1.644  10.594   6.434  0.3074  0.2026  1.4384
  925MOL0     H24875   1.477  10.595   6.460 -0.8522 -0.7745 -0.5361
  926MOL0     O24876   0.306   3.515  11.190 -0.3590 -0.4000 -0.1222
  926MOL0     C24877   0.314   3.399  11.175  0.3848 -0.1450  0.7051
  926MOL0     O24878   0.205   3.317  11.156  1.1199  0.1786 -0.1351
  926MOL0     C24879   0.071   3.340  11.138 -0.2499  0.2644 -0.5355
  926MOL0     C24880   0.004   3.467  11.138 -0.9252  0.2213  0.3802
  926MOL0     C24881  -0.133   3.479  11.104 -0.9881  0.7870  0.2440
  926MOL0     C24882  -0.199   3.362  11.056  0.0983  0.1903 -0.9332
  926MOL0     O24883  -0.326   3.361  10.998  0.0504 -0.3876  0.0190
  926MOL0     C24884  -0.371   3.488  10.949  0.8961  0.2016 -0.3607
  926MOL0     C24885  -0.474   3.457  10.832  0.1489 -0.1616  0.1236
  926MOL0     C24886  -0.598   3.367  10.875 -0.3247  0.3750  1.2256
  926MOL0     C24887  -0.733   3.424  10.806 -0.4511  0.4947 -0.2720
  926MOL0     C24888  -0.858   3.351  10.844 -0.4105  0.7443  0.3785
  926MOL0     C24889  -0.984   3.419  10.786  0.3305  0.9284  0.7531
  926MOL0     C24890  -1.095   3.313  10.763  0.2834 -0.5981  0.5908
  926MOL0     C24891  -1.241   3.366  10.755  0.5135  1.2156 -0.6239
  926MOL0     N24892  -1.264   3.448  10.641  0.2242  0.3463  0.3878
  926MOL0     C24893  -1.310   3.574  10.650 -0.6709  0.4286 -0.0127
  926MOL0     C24894  -1.360   3.598  10.530  0.1398 -0.0620 -0.7639
  926MOL0     C24895  -1.445   3.713  10.482  0.9908 -0.6573  0.5108
  926MOL0     C24896  -1.413   3.845  10.546 -0.2877 -0.8974  0.5117
  926MOL0     C24897  -1.263   3.882  10.538 -0.2274 -1.3645  0.1187
  926MOL0     C24898  -1.248   4.022  10.616  0.3060 -0.4888  0.1889
  926MOL0     O24899  -1.272   4.008  10.757 -0.3997  0.3670  0.7263
  926MOL0     C24900  -1.344   4.100  10.829 -0.0131  0.2125 -0.5937
  926MOL0     C24901  -1.391   4.052  10.952  0.4711 -0.8550 -0.4720
  926MOL0     C24902  -1.486   4.131  11.018  0.1296 -0.4059 -0.0730
  926MOL0     C24903  -1.518   4.261  10.969 -0.7084 -0.3979 -0.3428
  926MOL0     C24904  -1.624   4.347  11.036 -0.8828 -1.1787  0.5694
  926MOL0     O24905  -1.641   4.467  10.969  0.3375  0.5241  1.0488
  926MOL0     C24906  -1.729   4.575  10.996  0.5014 -0.2949  0.1865
  926MOL0     C24907  -1.753   4.615  11.132 -0.4272 -0.4074  0.4507
  926MOL0     C24908  -1.812   4.726  11.167 -0.0434  0.1470 -0.4213
  926MOL0     C24909  -1.858   4.813  11.073 -0.3986  0.7354  0.1592
  926MOL0     O24910  -1.896   4.936  11.105  0.5857  0.8212  0.3237
  926MOL0     C24911  -1.990   4.947  11.213 -0.1769 -0.6085  0.2209
  926MOL0     C24912  -1.945   5.072  11.295  0.2381 -0.4911  0.2795
  926MOL0     C24913  -1.981   5.073  11.435  0.4755 -0.5944 -0.5636
  926MOL0     C24914  -1.961   5.222  11.491 -0.7805  0.6475  0.5716
  926MOL0     C24915  -1.831   5.260  11.550 -0.2167 -0.0972 -0.4999
  926MOL0     C24916  -1.743   5.179  11.644 -1.0132 -0.3152 -1.1903
  926MOL0     C24917  -1.630   5.274  11.707  0.4837 -0.5840 -0.2641
  926MOL0     C24918  -1.580   5.230  11.842  0.8087  0.2825 -0.8296
  926MOL0    Cl24919  -1.478   5.329  11.935  0.0160  0.4247  0.1365
  926MOL0     C24920  -1.836   4.784  10.938 -0.1101 -1.1560  0.1745
  926MOL0     C24921  -1.779   4.660  10.899  0.2363  0.2260 -1.0564
  926MOL0     O24922  -1.685   4.318  11.135 -0.1813 -0.1717 -0.2274
  926MOL0     C24923  -1.459   4.308  10.852  0.0423 -0.0826 -0.3683
  926MOL0     C24924  -1.376   4.227  10.785  0.0651  0.3322 -0.4804
  926MOL0     N24925  -1.349   3.486  10.450 -0.1761  0.0740  0.3832
  926MOL0     N24926  -1.292   3.390  10.519 -0.0045 -0.9212  0.0336
  926MOL0     C24927  -0.130   3.241  11.063 -0.7323 -0.0423 -0.2191
  926MOL0     C24928   0.001   3.229  11.099 -0.0481  0.3602 -1.2226
  926MOL0     C24929   0.450   3.334  11.178  0.4285 -0.7338  0.3084
  926MOL0     C24930   0.451   3.203  11.209 -0.7346 -0.0848  0.0394
  926MOL0     C24931   0.567   3.120  11.201  0.1559 -0.2078 -0.9919
  926MOL0     C24932   0.685   3.194  11.176 -0.5572  0.9977 -0.0898
  926MOL0     O24933   0.796   3.115  11.196 -0.2954 -0.6421 -0.6087
  926MOL0     C24934   0.857   3.101  11.323 -0.6894 -0.2505  0.6049
  926MOL0     C24935   0.918   3.230  11.373  0.6567  1.0120  0.0100
  926MOL0     C24936   1.033   3.276  11.287  0.0052  0.0613  0.1377
  926MOL0     C24937   1.104   3.399  11.353 -0.1663 -0.6880  1.1927
  926MOL0     C24938   1.045   3.527  11.304  0.2520 -0.1113  0.3488
  926MOL0     C24939   0.980   3.617  11.257  0.7972  1.1649 -0.3296
  926MOL0     C24940   0.683   3.335  11.154 -0.0217 -0.2206 -1.1734
  926MOL0     C24941   0.564   3.405  11.141 -0.3008  0.1880 -0.5576
  926MOL0     C24942   0.582   3.549  11.094  0.1324 -0.2757 -0.5335
  926MOL0     H24943   0.051   3.563  11.157 -1.4206  0.9533 -1.7856
  926MOL0     H24944  -0.185   3.574  11.115 -2.3444  0.0823  0.1336
  926MOL0     H24945  -0.415   3.545  11.032 -1.1848 -1.1074 -0.4924
  926MOL0     H24946  -0.296   3.544  10.892 -0.7627 -0.7352 -3.7456
  926MOL0     H24947  -0.425   3.414  10.745 -0.1750  0.5393 -0.4185
  926MOL0     H24948  -0.523   3.547  10.795  1.6366  0.3822 -0.6244
  926MOL0     H24949  -0.603   3.356  10.983 -0.5324 -3.0665  0.9502
  926MOL0     H24950  -0.578   3.269  10.832 -0.1986  1.0417 -0.3176
  926MOL0     H24951  -0.745   3.527  10.843  1.2975  0.5680  0.1823
  926MOL0     H24952  -0.724   3.417  10.697  1.4275 -3.6139 -0.0469
  926MOL0     H24953  -0.851   3.249  10.806 -1.4286  1.3443 -1.5970
  926MOL0     H24954  -0.870   3.340  10.952  0.9529  0.4347  0.5093
  926MOL0     H24955  -1.014   3.504  10.848  1.2339  0.6417  1.6117
  926MOL0     H24956  -0.950   3.459  10.690 -0.7500  0.3564  0.1038
  926MOL0     H24957  -1.087   3.246  10.849  1.3314  0.4050  1.3076
  926MOL0     H24958  -1.072   3.255  10.674 -1.3447  1.5574 -1.3505
  926MOL0     H24959  -1.303   3.276  10.754  1.6541  0.3884 -0.1959
  926MOL0     H24960  -1.262   3.424  10.845  0.6301  0.2665  0.0344
  926MOL0     H24961  -1.309   3.640  10.737 -0.6342  3.0355 -1.8780
  926MOL0     H24962  -1.449   3.721  10.373 -1.9361 -0.3401  0.5470
  926MOL0     H24963  -1.548   3.685  10.506  0.0865  3.1602  1.6176
  926MOL0     H24964  -1.477   3.928  10.512  3.8153  2.3328 -0.1334
  926MOL0     H24965  -1.444   3.850  10.651 -1.9495  1.0061  0.0140
  926MOL0     H24966  -1.222   3.880  10.437 -0.2299  0.9297  0.0238
  926MOL0     H24967  -1.192   3.807  10.576  1.9029 -0.0294 -1.0660
  926MOL0     H24968  -1.332   4.082  10.581  1.1047  0.3528 -0.3592
  926MOL0     H24969  -1.162   4.083  10.584  2.2378 -0.8577  4.1002
  926MOL0     H24970  -1.371   3.948  10.974  2.2353 -0.5512 -0.4957
  926MOL0     H24971  -1.543   4.104  11.107 -1.9944  1.0909 -0.8762
  926MOL0     H24972  -1.719   4.539  11.201 -0.7430 -0.6300  0.3629
  926MOL0     H24973  -1.818   4.739  11.275  2.8177  0.2959 -0.2137
  926MOL0     H24974  -2.088   4.969  11.171 -1.0281 -0.3377  2.2024
  926MOL0     H24975  -1.996   4.866  11.286 -0.4448  3.0083  4.7575
  926MOL0     H24976  -1.836   5.080  11.288  0.0996  0.5175 -1.9024
  926MOL0     H24977  -1.996   5.158  11.252  1.0848  0.0511  0.3271
  926MOL0     H24978  -2.085   5.043  11.443 -0.7129  3.1186  0.1381
  926MOL0     H24979  -1.935   4.998  11.500 -0.5229 -1.4219 -0.7876
  926MOL0     H24980  -2.027   5.217  11.577 -1.6340 -1.7993 -0.1499
  926MOL0     H24981  -1.992   5.302  11.423 -0.9641 -0.6152 -0.8778
  926MOL0     H24982  -1.866   5.343  11.611  0.6721 -1.3008  1.7693
  926MOL0     H24983  -1.763   5.297  11.473 -0.8822  0.4384 -0.8389
  926MOL0     H24984  -1.793   5.121  11.722 -0.1337  1.8995  1.1431
  926MOL0     H24985  -1.687   5.110  11.580 -2.0311 -1.5834 -0.7457
  926MOL0     H24986  -1.667   5.373  11.736 -0.9939 -1.1420 -0.2025
  926MOL0     H24987  -1.542   5.277  11.641 -0.2663 -0.0656 -1.2650
  926MOL0     H24988  -1.667   5.201  11.903 -0.7730  1.5118 -2.4111
  926MOL0     H24989  -1.521   5.141  11.817  2.0832  0.5201  1.0979
  926MOL0     H24990  -1.847   4.866  10.868  0.5861 -2.7211 -1.8581
  926MOL0     H24991  -1.769   4.640  10.793  1.3934  0.2380 -0.9607
  926MOL0     H24992  -1.489   4.409  10.824  2.2148  1.5742  2.6715
  926MOL0     H24993  -1.330   4.254  10.691  2.0704  0.3597  0.4494
  926MOL0     H24994  -0.187   3.151  11.038 -0.1127 -1.0135  1.7192
  926MOL0     H24995   0.053   3.134  11.093  0.7567  0.7744 -0.9970
  926MOL0     H24996   0.360   3.146  11.227 -2.0603  2.6972  3.2304
  926MOL0     H24997   0.565   3.014  11.223  0.7463 -0.0378 -0.0214
  926MOL0     H24998   0.918   3.010  11.317  1.1227  0.7702  2.2510
  926MOL0     H24999   0.776   3.079  11.394  0.3195 -1.7356  1.3681
  926MOL0     H25000   0.956   3.208  11.473  0.0886 -0.5675 -0.0821
  926MOL0     H25001   0.836   3.303  11.369  0.2438  0.5227 -3.5075
  926MOL0     H25002   1.004   3.301  11.184  1.4711  0.3067 -0.2331
  926MOL0     H25003   1.096   3.188  11.272 -2.3256 -1.4555 -1.4235
  926MOL0     H25004   1.090   3.385  11.461  1.8528 -4.0156  1.1489
  926MOL0     H25005   1.211   3.400  11.332 -0.3108  1.8126  0.2546
  926MOL0     H25006   0.923   3.699  11.218  0.2591  0.4488 -1.0909
  926MOL0     H25007   0.774   3.391  11.139  1.1723 -1.1793  1.7710
  926MOL0     H25008   0.672   3.571  11.037  0.6211 -3.3941 -1.1500
  926MOL0     H25009   0.507   3.554  11.014  1.4503 -2.1620 -1.9622
  926MOL0     H25010   0.562   3.611  11.182 -0.3606 -4.2409  2.4619
  927MOL0     O25011   8.989   3.139   9.517  0.0363  0.3705  0.2513
  927MOL0     C25012   9.055   3.033   9.500  0.6781  0.0758  0.4889
  927MOL0     O25013   9.166   3.000   9.574  0.8549  0.2079  0.3604
  927MOL0     C25014   9.222   3.100   9.654  0.5700  0.1207  0.6706
  927MOL0     C25015   9.292   3.047   9.764  0.1462  0.9327 -0.0292
  927MOL0     C25016   9.372   3.126   9.849 -0.2381 -0.2230  0.1107
  927MOL0     C25017   9.378   3.264   9.815 -0.9435 -0.3497  0.0287
  927MOL0     O25018   9.461   3.354   9.887  0.0990  0.1894  0.4108
  927MOL0     C25019   9.582   3.371   9.807  0.2851 -0.8023  0.2506
  927MOL0     C25020   9.658   3.503   9.845 -1.0778  0.2555  0.4735
  927MOL0     C25021   9.587   3.629   9.860  0.3528  0.9115  0.2096
  927MOL0     C25022   9.697   3.737   9.874  0.6452 -0.4956 -0.1533
  927MOL0     C25023   9.629   3.879   9.894 -0.3136  1.1890  0.4666
  927MOL0     C25024   9.703   3.966  10.002 -0.0096 -0.6003 -0.8210
  927MOL0     C25025   9.754   3.908  10.134  0.7414 -0.1961 -0.0149
  927MOL0     C25026   9.794   4.012  10.231 -0.3409 -0.7848 -0.3306
  927MOL0     N25027   9.931   4.067  10.217  0.0574 -0.1144  0.8488
  927MOL0     C25028   9.961   4.186  10.167  0.1481 -0.3269 -0.2632
  927MOL0     C25029  10.092   4.188  10.180  0.0267 -0.4126  0.6136
  927MOL0     C25030  10.170   4.321  10.148 -0.5960 -1.2944  0.2172
  927MOL0     C25031  10.142   4.367  10.005 -0.8635  0.4798 -0.0776
  927MOL0     C25032  10.237   4.482   9.969  0.3337  0.5019  0.0995
  927MOL0     C25033  10.234   4.534   9.826 -0.5367  0.1146 -0.4465
  927MOL0     O25034  10.283   4.452   9.728  0.2260  0.2735 -0.0826
  927MOL0     C25035  10.248   4.472   9.598 -0.5441 -0.0425  0.1289
  927MOL0     C25036  10.198   4.590   9.550  0.5529  0.9850 -0.3133
  927MOL0     C25037  10.152   4.610   9.416 -0.3544  0.1366  0.2318
  927MOL0     C25038  10.155   4.502   9.329  0.0906 -0.0461  0.2376
  927MOL0     C25039  10.111   4.520   9.191  0.5860 -1.2840  0.2651
  927MOL0     O25040  10.084   4.411   9.120  0.5758 -0.1106  0.5082
  927MOL0     C25041  10.031   4.410   8.997 -0.1410 -0.8078 -0.0060
  927MOL0     C25042   9.912   4.333   8.976  0.2854  0.0162  0.1499
  927MOL0     C25043   9.863   4.320   8.845 -0.3736 -0.7538  0.3716
  927MOL0     C25044   9.931   4.384   8.734 -0.2663  0.3164 -0.1264
  927MOL0     O25045   9.889   4.369   8.603  0.8246  0.0326  1.2775
  927MOL0     C25046   9.750   4.357   8.584  0.5278 -0.5722 -0.5877
  927MOL0     C25047   9.700   4.361   8.442  1.0876 -0.1088  0.1467
  927MOL0     C25048   9.724   4.490   8.365 -0.2455  0.7756  0.2569
  927MOL0     C25049   9.739   4.624   8.443  0.3037  0.6462  0.6691
  927MOL0     C25050   9.737   4.737   8.332 -0.2519  0.4452  0.0270
  927MOL0     C25051   9.881   4.784   8.324  0.1066 -0.2386 -0.3455
  927MOL0     C25052   9.908   4.932   8.273  0.6131  0.3345 -0.3480
  927MOL0     C25053   9.832   5.044   8.339 -0.1700 -0.5509 -0.0383
  927MOL0    Cl25054   9.849   5.041   8.520  0.4668  0.1685  0.3095
  927MOL0     C25055  10.049   4.454   8.757 -0.0185  0.7205 -0.0351
  927MOL0     C25056  10.105   4.466   8.889 -0.4427 -0.3972 -0.1192
  927MOL0     O25057  10.091   4.638   9.159  0.8467 -0.7743  0.0567
  927MOL0     C25058  10.214   4.385   9.378 -0.5244 -0.5977  0.0169
  927MOL0     C25059  10.263   4.373   9.510  0.4919  0.4342 -0.5786
  927MOL0     N25060  10.144   4.073  10.226 -0.8543 -0.3255  0.3164
  927MOL0     N25061  10.045   4.005  10.259 -0.0799  0.6947 -0.1452
  927MOL0     C25062   9.305   3.318   9.713 -0.5341 -0.4454  0.5329
  927MOL0     C25063   9.237   3.239   9.619  0.3887 -0.4163  0.1182
  927MOL0     C25064   9.018   2.955   9.370  0.5775  0.1784  0.4199
  927MOL0     C25065   9.107   2.858   9.313 -0.2991 -0.3328 -0.0658
  927MOL0     C25066   9.094   2.816   9.181  0.3163  0.3244  1.2675
  927MOL0     C25067   8.975   2.854   9.105  0.8636 -0.7043 -0.1836
  927MOL0     O25068   8.956   2.829   8.972  0.5305 -0.1847 -0.1809
  927MOL0     C25069   9.061   2.767   8.887  0.1803  0.8891  0.4933
  927MOL0     C25070   9.027   2.791   8.735 -0.0775  0.1408  0.3354
  927MOL0     C25071   9.148   2.750   8.645 -0.3475  0.7139  0.3005
  927MOL0     C25072   9.255   2.852   8.671  0.1124  0.2267 -0.0359
  927MOL0     C25073   9.371   2.839   8.578  0.8456 -0.1217 -0.2165
  927MOL0     C25074   9.439   2.817   8.483  0.0323 -0.6186  0.6476
  927MOL0     C25075   8.887   2.934   9.160  0.2820 -0.4784 -0.4472
  927MOL0     C25076   8.905   2.993   9.283 -0.7104  0.0871  0.8443
  927MOL0     C25077   8.788   3.083   9.332  1.0980  0.3701 -0.1991
  927MOL0     H25078   9.285   2.939   9.774 -1.4836  1.1439  1.5347
  927MOL0     H25079   9.423   3.089   9.937 -0.4397 -1.0185 -0.0991
  927MOL0     H25080   9.645   3.281   9.814  3.4603  1.2334 -0.2130
  927MOL0     H25081   9.557   3.390   9.702  2.6942  0.9281 -0.0874
  927MOL0     H25082   9.749   3.518   9.787 -1.0161  0.3192  0.5868
  927MOL0     H25083   9.688   3.468   9.945  2.6023 -1.1407 -0.9472
  927MOL0     H25084   9.533   3.628   9.955  1.8161  0.2329  1.0693
  927MOL0     H25085   9.508   3.643   9.785 -1.2507  0.7567  1.7944
  927MOL0     H25086   9.759   3.724   9.964  2.3798  2.3759 -0.7967
  927MOL0     H25087   9.754   3.744   9.781  0.0900 -0.8040 -0.5246
  927MOL0     H25088   9.627   3.938   9.802  5.1340  0.8910 -0.2070
  927MOL0     H25089   9.526   3.874   9.928  0.2837 -0.4214  2.2025
  927MOL0     H25090   9.785   4.014   9.949 -1.7391  1.4984 -1.7320
  927MOL0     H25091   9.629   4.042  10.029  0.6228 -0.6376  1.1614
  927MOL0     H25092   9.844   3.847  10.122 -0.2273 -1.9529  1.2056
  927MOL0     H25093   9.680   3.841  10.180 -0.4956  0.9478 -0.2906
  927MOL0     H25094   9.724   4.096  10.238 -1.1014 -1.4652  0.4425
  927MOL0     H25095   9.791   3.969  10.331  1.2082 -1.5740 -0.5964
  927MOL0     H25096   9.898   4.263  10.125  0.7159  1.4816  1.9855
  927MOL0     H25097  10.133   4.399  10.215  0.5410  0.8100 -1.5001
  927MOL0     H25098  10.277   4.303  10.162 -0.6304 -0.2410  2.1788
  927MOL0     H25099  10.171   4.283   9.942  1.9401  1.5973 -0.4313
  927MOL0     H25100  10.036   4.394   9.996 -0.9585 -0.2437 -1.2592
  927MOL0     H25101  10.342   4.464   9.996  1.5184  1.7315 -3.1052
  927MOL0     H25102  10.216   4.565  10.037 -0.8106 -0.2166  0.6495
  927MOL0     H25103  10.277   4.634   9.830  0.5060 -0.2806  3.9607
  927MOL0     H25104  10.125   4.539   9.814 -0.8640  1.2932  2.3400
  927MOL0     H25105  10.184   4.677   9.613 -1.3049  0.7949 -0.3963
  927MOL0     H25106  10.107   4.701   9.376 -1.3039 -0.2498  0.3797
  927MOL0     H25107   9.849   4.290   9.054 -0.3684 -0.7380 -0.7765
  927MOL0     H25108   9.761   4.288   8.830 -0.9562  0.7429  0.9764
  927MOL0     H25109   9.707   4.267   8.630 -0.3524  1.9484  4.1572
  927MOL0     H25110   9.702   4.440   8.635  1.0895  0.8819 -2.3111
  927MOL0     H25111   9.733   4.273   8.386 -1.4527 -0.6843 -0.5673
  927MOL0     H25112   9.594   4.336   8.449  1.1746 -1.3654 -2.1272
  927MOL0     H25113   9.811   4.469   8.302 -0.8967 -1.4046  0.0083
  927MOL0     H25114   9.639   4.503   8.298  0.6345 -0.0326 -1.0520
  927MOL0     H25115   9.836   4.616   8.493  0.3256  3.8523  1.3144
  927MOL0     H25116   9.659   4.635   8.517 -0.4299 -1.4373  0.2812
  927MOL0     H25117   9.670   4.820   8.359 -0.2279  1.6897 -3.3152
  927MOL0     H25118   9.702   4.695   8.237 -0.0747 -1.8026  0.9027
  927MOL0     H25119   9.936   4.788   8.418 -2.0816 -0.8572  1.0165
  927MOL0     H25120   9.939   4.703   8.279  0.9558  0.9923 -1.5700
  927MOL0     H25121   9.892   4.931   8.164 -3.7824 -0.9236  0.1020
  927MOL0     H25122  10.013   4.955   8.292  0.0833  0.9264  2.2536
  927MOL0     H25123   9.866   5.145   8.316  0.9703 -0.3921  2.1528
  927MOL0     H25124   9.729   5.021   8.310  0.8513 -4.0108 -1.4151
  927MOL0     H25125  10.088   4.490   8.662 -3.2189  2.0346 -0.9925
  927MOL0     H25126  10.196   4.515   8.921 -0.1965  0.1763 -1.5951
  927MOL0     H25127  10.232   4.306   9.306 -0.3555 -0.8904  0.3808
  927MOL0     H25128  10.321   4.284   9.534  0.3307  0.0798 -1.4598
  927MOL0     H25129   9.308   3.425   9.695 -2.0466 -0.0074  2.5745
  927MOL0     H25130   9.187   3.291   9.538 -2.4660  0.2038  2.1206
  927MOL0     H25131   9.204   2.845   9.359 -0.7207  0.8077  1.2360
  927MOL0     H25132   9.163   2.743   9.139 -1.9094 -2.9032  2.7863
  927MOL0     H25133   9.055   2.658   8.894 -2.2717  0.9473  0.3186
  927MOL0     H25134   9.162   2.800   8.912  0.9149 -0.4239 -0.6130
  927MOL0     H25135   9.007   2.899   8.727 -0.5502 -0.0606 -1.7095
  927MOL0     H25136   8.936   2.734   8.714  0.2453  0.0608 -0.9473
  927MOL0     H25137   9.105   2.736   8.545 -1.9123 -1.9511  1.2356
  927MOL0     H25138   9.189   2.651   8.664  0.4624  0.9256 -0.2979
  927MOL0     H25139   9.204   2.948   8.675 -0.2145  0.0531  3.5499
  927MOL0     H25140   9.302   2.835   8.768  1.2985 -1.1961 -0.8137
  927MOL0     H25141   9.464   2.803   8.380  1.4046 -1.4021  1.0678
  927MOL0     H25142   8.795   2.941   9.103  0.3407  0.9078 -0.4120
  927MOL0     H25143   8.812   3.189   9.319  1.5195  0.1158 -1.6971
  927MOL0     H25144   8.696   3.065   9.276  1.1820 -0.4251 -0.0947
  927MOL0     H25145   8.767   3.062   9.437 -0.1406 -2.1417 -0.8658
  928MOL0     O25146   2.226   3.026   5.903  0.0556  0.3057 -0.5005
  928MOL0     C25147   2.330   3.046   5.851 -0.1120  0.1786  0.2423
  928MOL0     O25148   2.354   3.063   5.720 -0.8163 -0.0073  0.0218
  928MOL0     C25149   2.276   3.019   5.621 -0.1758 -0.6695  0.3000
  928MOL0     C25150   2.162   2.929   5.631  0.3467  0.1867  0.3430
  928MOL0     C25151   2.086   2.890   5.509 -0.2465 -0.3399  0.1011
  928MOL0     C25152   2.111   2.949   5.391  0.1182  0.2622  0.0158
  928MOL0     O25153   2.054   2.918   5.270  0.4484 -0.0143 -0.6665
  928MOL0     C25154   1.987   2.793   5.255 -1.0199  0.9283 -0.2146
  928MOL0     C25155   1.963   2.771   5.109  1.3297 -0.4320  0.9563
  928MOL0     C25156   1.876   2.645   5.088 -0.4135  0.4775  0.2860
  928MOL0     C25157   1.734   2.689   5.038 -0.0892 -0.3142 -0.6705
  928MOL0     C25158   1.663   2.570   4.973 -0.1328  0.0994  0.1375
  928MOL0     C25159   1.539   2.623   4.899 -0.4462 -0.1225  0.1432
  928MOL0     C25160   1.438   2.517   4.883 -0.1421  0.7907  0.3183
  928MOL0     C25161   1.316   2.575   4.814 -0.4364 -0.3908  0.6600
  928MOL0     N25162   1.263   2.479   4.712  0.0658  0.9230 -0.2305
  928MOL0     C25163   1.292   2.459   4.578 -0.5408 -1.3254 -0.7698
  928MOL0     C25164   1.190   2.387   4.531  1.9893 -0.4547 -0.0170
  928MOL0     C25165   1.162   2.337   4.392 -0.2356  1.1820  0.0889
  928MOL0     C25166   1.024   2.287   4.362  0.1405  0.0449 -0.1173
  928MOL0     C25167   0.981   2.289   4.208  0.1159 -0.6337 -0.1860
  928MOL0     C25168   0.826   2.251   4.194  0.2602  0.6471  1.1640
  928MOL0     O25169   0.808   2.246   4.052  0.2979 -0.4781  0.0586
  928MOL0     C25170   0.684   2.244   3.996  0.1629  0.6481 -0.3260
  928MOL0     C25171   0.559   2.254   4.065 -0.6168  0.4284  0.5712
  928MOL0     C25172   0.439   2.256   4.002 -0.1872 -0.7602 -0.5971
  928MOL0     C25173   0.440   2.263   3.860  0.2244 -0.0732 -0.7166
  928MOL0     C25174   0.313   2.280   3.793 -0.0942  0.0880  0.0163
  928MOL0     O25175   0.216   2.348   3.876  0.4787 -0.8708  0.3277
  928MOL0     C25176   0.077   2.361   3.841 -0.0051  0.1809  0.2386
  928MOL0     C25177  -0.005   2.255   3.808  0.6733  0.2075 -0.8542
  928MOL0     C25178  -0.140   2.284   3.785  0.0748  0.2608  0.2830
  928MOL0     C25179  -0.192   2.412   3.806 -0.6312 -0.0290  0.0665
  928MOL0     O25180  -0.315   2.447   3.796 -0.6904  0.4907 -0.0364
  928MOL0     C25181  -0.414   2.451   3.908  0.4267  0.0278  0.3314
  928MOL0     C25182  -0.543   2.390   3.856 -0.8689 -0.1156  0.2286
  928MOL0     C25183  -0.618   2.485   3.753  0.4683 -0.1571 -0.5502
  928MOL0     C25184  -0.759   2.431   3.726 -0.2767 -0.4276 -0.2208
  928MOL0     C25185  -0.848   2.484   3.611  0.5938 -0.0296 -0.4525
  928MOL0     C25186  -0.917   2.613   3.637 -0.5367 -0.1275  0.7828
  928MOL0     C25187  -0.992   2.675   3.517  0.0974  0.1071 -0.7208
  928MOL0     C25188  -0.966   2.823   3.519  0.6958  0.1147  0.5381
  928MOL0    Cl25189  -1.082   2.880   3.395  0.9707  0.1426 -0.0400
  928MOL0     C25190  -0.102   2.519   3.822  0.9770  0.6093 -0.9266
  928MOL0     C25191   0.024   2.488   3.851 -0.7384 -0.2144 -0.3179
  928MOL0     O25192   0.289   2.231   3.681  0.8410 -0.1537  0.9425
  928MOL0     C25193   0.558   2.247   3.784  1.0850 -0.6618  0.4772
  928MOL0     C25194   0.682   2.243   3.859  0.4499 -0.3149  0.2807
  928MOL0     N25195   1.100   2.343   4.638 -0.1028 -0.8396 -0.0476
  928MOL0     N25196   1.158   2.400   4.738  0.4929 -0.2909  0.6268
  928MOL0     C25197   2.221   3.039   5.381  0.1817  0.3729 -1.1568
  928MOL0     C25198   2.295   3.082   5.494 -0.0835  0.4964 -0.1714
  928MOL0     C25199   2.459   3.006   5.926 -0.1311  0.8842 -0.9283
  928MOL0     C25200   2.430   2.957   6.051 -0.5604  0.9176 -0.6211
  928MOL0     C25201   2.531   2.897   6.124 -0.0266  0.4513  0.3615
  928MOL0     C25202   2.665   2.910   6.087 -0.3906 -0.7572 -0.9837
  928MOL0     O25203   2.754   2.872   6.176 -0.2721 -0.0933  0.0966
  928MOL0     C25204   2.839   2.759   6.127 -0.6921  0.5022 -0.2697
  928MOL0     C25205   2.863   2.654   6.243 -0.2265 -0.4113 -0.8422
  928MOL0     C25206   2.729   2.626   6.318  0.1872  1.4764 -0.4097
  928MOL0     C25207   2.755   2.549   6.450 -0.4781  0.3347  0.0239
  928MOL0     C25208   2.748   2.405   6.433 -0.0937  1.0168  0.1819
  928MOL0     C25209   2.762   2.285   6.421 -0.2675  0.2527  0.0976
  928MOL0     C25210   2.695   2.982   5.970 -0.1110 -0.4532  0.0236
  928MOL0     C25211   2.597   3.020   5.889 -0.0417 -0.4177 -1.0657
  928MOL0     C25212   2.653   3.074   5.762  1.3344  0.5073  0.3743
  928MOL0     H25213   2.144   2.883   5.727  0.5864 -1.8168 -0.5054
  928MOL0     H25214   2.001   2.823   5.515 -0.8478 -0.0472 -3.2952
  928MOL0     H25215   2.050   2.711   5.290 -3.5635 -1.6197 -1.3161
  928MOL0     H25216   1.892   2.791   5.308 -0.8753  3.0699  0.2259
  928MOL0     H25217   2.053   2.766   5.046 -0.1463 -4.3714 -1.2011
  928MOL0     H25218   1.915   2.861   5.070 -0.1451 -1.5485  0.0730
  928MOL0     H25219   1.866   2.592   5.183 -0.7261  1.3310  0.7405
  928MOL0     H25220   1.915   2.574   5.015 -2.8597 -1.4943  0.7633
  928MOL0     H25221   1.671   2.727   5.119  2.1480  3.4844 -0.4784
  928MOL0     H25222   1.740   2.771   4.966 -1.2159 -1.4308 -2.1070
  928MOL0     H25223   1.728   2.522   4.899 -2.6976 -2.2732 -0.7536
  928MOL0     H25224   1.639   2.497   5.051 -1.8413 -0.2770 -0.6754
  928MOL0     H25225   1.493   2.702   4.959  2.0710  0.2492  1.7526
  928MOL0     H25226   1.569   2.673   4.806 -1.5960  0.4194  0.0428
  928MOL0     H25227   1.401   2.472   4.976 -0.4761 -0.2895 -0.3150
  928MOL0     H25228   1.474   2.439   4.814 -1.2095  0.0443  0.5858
  928MOL0     H25229   1.239   2.595   4.889 -4.4172  3.2692 -3.7274
  928MOL0     H25230   1.335   2.673   4.769  1.5601 -1.4337 -0.9296
  928MOL0     H25231   1.371   2.504   4.518 -2.6542 -0.0572 -2.7573
  928MOL0     H25232   1.183   2.423   4.327  1.3636  1.0831  0.4159
  928MOL0     H25233   1.236   2.261   4.366 -2.4478 -0.6704 -1.1185
  928MOL0     H25234   1.010   2.191   4.413  1.8539  0.9668  2.2776
  928MOL0     H25235   0.971   2.373   4.404 -0.3761  0.8208 -2.2087
  928MOL0     H25236   1.042   2.226   4.143 -0.3700 -1.9742  0.6301
  928MOL0     H25237   1.007   2.391   4.178  2.3006  0.6596  5.0700
  928MOL0     H25238   0.770   2.320   4.258  0.1428 -0.0585  1.8367
  928MOL0     H25239   0.826   2.152   4.239  0.3960 -0.2653 -0.7641
  928MOL0     H25240   0.555   2.257   4.174 -2.2721  0.8601  0.5338
  928MOL0     H25241   0.347   2.269   4.058  0.4202 -1.4108  0.5923
  928MOL0     H25242   0.034   2.155   3.789  1.8946  0.3873  0.4902
  928MOL0     H25243  -0.201   2.202   3.747 -0.7600  0.0482  2.0183
  928MOL0     H25244  -0.396   2.390   3.997 -1.8219 -0.1527  0.7264
  928MOL0     H25245  -0.448   2.548   3.945 -2.8152 -1.2425  1.0779
  928MOL0     H25246  -0.523   2.296   3.804 -3.1241  0.6395 -2.1968
  928MOL0     H25247  -0.617   2.374   3.935 -1.3356  0.7706 -0.0108
  928MOL0     H25248  -0.624   2.583   3.801 -0.1717 -0.3495 -0.2226
  928MOL0     H25249  -0.563   2.498   3.659 -3.0497 -3.6996 -3.4821
  928MOL0     H25250  -0.810   2.430   3.823  0.2468 -3.4752  0.1242
  928MOL0     H25251  -0.739   2.325   3.705  3.1351 -0.0797  0.7761
  928MOL0     H25252  -0.919   2.404   3.590 -0.1157  0.5262 -0.2053
  928MOL0     H25253  -0.781   2.485   3.524  1.5785 -1.1328  0.2587
  928MOL0     H25254  -0.983   2.617   3.723 -1.3217  2.4324  0.1645
  928MOL0     H25255  -0.827   2.671   3.660  0.5279 -0.7258 -1.4972
  928MOL0     H25256  -1.100   2.657   3.524  0.0216  0.7767 -0.0551
  928MOL0     H25257  -0.961   2.635   3.420  2.8448  0.1641  0.0458
  928MOL0     H25258  -0.990   2.872   3.614  2.5318  0.2695  0.9523
  928MOL0     H25259  -0.864   2.846   3.487  1.5703 -2.1087  1.5441
  928MOL0     H25260  -0.134   2.623   3.830  0.5821  0.5117 -1.2308
  928MOL0     H25261   0.083   2.576   3.877 -0.2963 -1.0675  1.8148
  928MOL0     H25262   0.550   2.247   3.676  0.6859  2.4596  0.4091
  928MOL0     H25263   0.777   2.259   3.809 -0.6785  0.5654 -1.7301
  928MOL0     H25264   2.251   3.085   5.288  4.6417  2.5416  1.0547
  928MOL0     H25265   2.372   3.159   5.496 -0.8398  1.2820 -0.6870
  928MOL0     H25266   2.336   2.950   6.106  1.9622  3.4161  4.6613
  928MOL0     H25267   2.499   2.856   6.219 -1.2259 -0.9005 -0.5795
  928MOL0     H25268   2.932   2.808   6.096 -0.9176  1.9977  1.2854
  928MOL0     H25269   2.795   2.708   6.041  0.1721 -1.3718  0.3361
  928MOL0     H25270   2.920   2.707   6.320 -1.1438 -1.4789  0.6354
  928MOL0     H25271   2.914   2.560   6.221 -1.3480 -0.5809 -2.9918
  928MOL0     H25272   2.654   2.578   6.255  1.2723 -1.7300  0.5345
  928MOL0     H25273   2.678   2.720   6.343 -0.5377  1.9265 -3.2968
  928MOL0     H25274   2.849   2.575   6.499  0.8808 -1.7159 -1.3217
  928MOL0     H25275   2.673   2.569   6.519  0.4332  1.5901  0.7632
  928MOL0     H25276   2.801   2.187   6.401  0.7507  0.2428  1.9627
  928MOL0     H25277   2.797   3.003   5.938 -0.3093  0.4043 -0.0751
  928MOL0     H25278   2.709   3.166   5.777  1.2325  0.5436  0.5279
  928MOL0     H25279   2.715   3.000   5.710 -0.2124 -1.1833  0.8551
  928MOL0     H25280   2.571   3.104   5.696  1.6945  1.2104  0.2437
  929MOL0     O25281  10.802   9.730   3.992 -1.0211  0.6405 -0.3000
  929MOL0     C25282  10.802   9.847   3.959  0.5050  0.9573  0.3177
  929MOL0     O25283  10.838   9.945   4.044 -0.3426 -0.6906 -0.1066
  929MOL0     C25284  10.873   9.928   4.172 -0.2273  0.1683 -0.5631
  929MOL0     C25285  11.007   9.956   4.211  0.2917  0.6571 -0.2914
  929MOL0     C25286  11.037   9.955   4.345 -0.4626 -1.2550 -0.5321
  929MOL0     C25287  10.944   9.913   4.441 -0.7300 -0.5615  0.4699
  929MOL0     O25288  10.986   9.913   4.573  0.0071  0.3689 -1.2649
  929MOL0     C25289  10.906   9.858   4.670 -0.5411  0.6600  0.3815
  929MOL0     C25290  10.939   9.921   4.803 -0.3128 -0.8453  0.1076
  929MOL0     C25291  11.079   9.879   4.860 -0.0422  0.0853 -0.3638
  929MOL0     C25292  11.092   9.743   4.939 -1.1357 -0.0597  0.2863
  929MOL0     C25293  11.229   9.723   4.995  0.8937 -0.6840 -0.9531
  929MOL0     C25294  11.223   9.596   5.075 -0.9263 -0.0191 -0.0408
  929MOL0     C25295  11.350   9.555   5.140 -0.4710  0.2174 -0.5480
  929MOL0     C25296  11.394   9.645   5.254 -0.4098 -0.7432 -0.3584
  929MOL0     N25297  11.518   9.599   5.320  0.0256 -0.7241 -0.4348
  929MOL0     C25298  11.525   9.496   5.411  1.0608 -0.4330 -0.6364
  929MOL0     C25299  11.660   9.472   5.424 -0.0254 -0.3986  0.0645
  929MOL0     C25300  11.711   9.370   5.521 -0.2302 -0.4338  0.3365
  929MOL0     C25301  11.722   9.223   5.468 -1.0393  0.3459  0.0775
  929MOL0     C25302  11.590   9.157   5.455  0.8376  0.4122  1.1169
  929MOL0     C25303  11.609   9.012   5.406  0.7446  0.2301  0.4882
  929MOL0     O25304  11.480   8.946   5.391  0.6242 -0.0450  0.9699
  929MOL0     C25305  11.398   8.983   5.284  0.5192 -0.7935  0.3837
  929MOL0     C25306  11.276   8.909   5.278 -0.3692 -0.2789  0.1593
  929MOL0     C25307  11.176   8.950   5.196  0.6429 -0.0452 -0.6340
  929MOL0     C25308  11.192   9.048   5.095 -0.0231 -0.2937 -0.4615
  929MOL0     C25309  11.078   9.087   5.024  0.4354 -0.0857  0.6148
  929MOL0     O25310  10.953   9.014   5.014  0.0212 -0.0179 -0.3578
  929MOL0     C25311  10.846   9.056   4.945 -0.2878 -0.3560  0.0683
  929MOL0     C25312  10.820   9.006   4.814 -0.1235 -0.2884 -0.1090
  929MOL0     C25313  10.724   9.070   4.733  0.0123  0.6255 -0.4373
  929MOL0     C25314  10.634   9.158   4.792 -0.5607 -0.2164  0.4012
  929MOL0     O25315  10.525   9.204   4.713  0.3793  0.2732  0.1292
  929MOL0     C25316  10.405   9.207   4.784  0.1776 -0.3890 -0.7812
  929MOL0     C25317  10.288   9.205   4.678  0.0713 -0.4073 -0.1112
  929MOL0     C25318  10.163   9.239   4.763  0.4498  0.1152  0.2544
  929MOL0     C25319  10.122   9.392   4.741 -0.9679 -0.4057 -0.3407
  929MOL0     C25320   9.982   9.428   4.767 -0.0837  1.0753 -0.7664
  929MOL0     C25321   9.977   9.575   4.801 -0.1258  0.5837 -0.7067
  929MOL0     C25322   9.832   9.634   4.790 -0.0738  0.0107 -1.1201
  929MOL0     C25323   9.787   9.659   4.650  0.8380 -0.2403  0.6236
  929MOL0    Cl25324   9.880   9.785   4.562  0.2394  0.4206 -0.0453
  929MOL0     C25325  10.657   9.201   4.924  0.1231  0.5924 -0.6218
  929MOL0     C25326  10.763   9.154   4.999 -0.2994 -0.2458 -0.1237
  929MOL0     O25327  11.095   9.194   4.979 -0.6637  0.1361  0.6309
  929MOL0     C25328  11.321   9.113   5.092  0.1051 -0.0222  0.1458
  929MOL0     C25329  11.420   9.091   5.195 -0.2873 -0.4153 -0.4987
  929MOL0     N25330  11.724   9.552   5.335  0.5925 -0.2092 -0.4329
  929MOL0     N25331  11.641   9.631   5.280 -0.5005 -0.1169 -0.2103
  929MOL0     C25332  10.821   9.865   4.398 -1.0733  0.4407 -0.2629
  929MOL0     C25333  10.779   9.878   4.265 -0.0610 -0.2738 -0.4310
  929MOL0     C25334  10.755   9.881   3.824  0.7933  0.2101 -0.8630
  929MOL0     C25335  10.749  10.016   3.767  0.7951  0.2744  0.1678
  929MOL0     C25336  10.696  10.045   3.644 -0.9037  0.4911  1.3681
  929MOL0     C25337  10.652   9.943   3.563 -0.3907 -0.7665  0.1532
  929MOL0     O25338  10.585   9.971   3.436 -0.0449  0.1371 -0.3953
  929MOL0     C25339  10.446  10.007   3.460 -0.3929 -0.0006 -0.1609
  929MOL0     C25340  10.386  10.072   3.333 -0.5352  1.1736 -0.4131
  929MOL0     C25341  10.301   9.970   3.248 -1.2030  0.3644 -0.8491
  929MOL0     C25342  10.198  10.033   3.156  0.0580  0.9771 -0.3272
  929MOL0     C25343  10.183   9.957   3.034  0.5567  0.5213  0.2861
  929MOL0     C25344  10.176   9.888   2.929  0.2188  1.0632 -1.0482
  929MOL0     C25345  10.674   9.811   3.604  0.7557  0.4602 -0.5472
  929MOL0     C25346  10.708   9.780   3.738 -0.2288  0.2897 -0.9619
  929MOL0     C25347  10.719   9.630   3.761  0.0476  0.1481  0.0175
  929MOL0     H25348  11.090   9.989   4.150  1.4127 -1.5127 -0.0554
  929MOL0     H25349  11.139   9.978   4.372 -0.7474  0.0217 -0.4720
  929MOL0     H25350  10.802   9.884   4.649 -0.0130  0.3032 -3.4072
  929MOL0     H25351  10.920   9.750   4.675  0.1978  0.7616  4.8986
  929MOL0     H25352  10.863   9.897   4.878 -1.0197  1.4340  0.1735
  929MOL0     H25353  10.941  10.027   4.777 -0.9570 -1.2470 -1.7781
  929MOL0     H25354  11.120   9.963   4.916  1.5916 -0.0733 -1.2906
  929MOL0     H25355  11.146   9.884   4.775  0.5748  1.1352  0.1710
  929MOL0     H25356  11.028   9.736   5.027 -0.2256 -1.7953  0.8600
  929MOL0     H25357  11.065   9.666   4.865 -0.1710  1.9164 -2.2723
  929MOL0     H25358  11.294   9.713   4.908 -1.0732  0.0555 -2.5829
  929MOL0     H25359  11.246   9.812   5.058 -2.2495 -1.4507  1.2694
  929MOL0     H25360  11.149   9.593   5.156 -2.3912 -1.0347 -1.3627
  929MOL0     H25361  11.205   9.508   5.013 -2.4939 -1.5149  2.3398
  929MOL0     H25362  11.423   9.541   5.060 -1.0572  0.0418 -1.0621
  929MOL0     H25363  11.331   9.454   5.179  2.6721  0.2620  1.4778
  929MOL0     H25364  11.407   9.744   5.208  0.7190 -1.4939 -1.7414
  929MOL0     H25365  11.315   9.653   5.329 -0.2453 -0.2821 -0.2298
  929MOL0     H25366  11.452   9.444   5.472  2.2803 -1.1436  0.2534
  929MOL0     H25367  11.806   9.413   5.551  0.0405  0.2512 -1.4319
  929MOL0     H25368  11.643   9.382   5.606  0.5993  0.4416  0.8872
  929MOL0     H25369  11.766   9.215   5.368 -1.4794 -1.5774 -0.0053
  929MOL0     H25370  11.785   9.167   5.538  0.2290  0.4627 -0.9215
  929MOL0     H25371  11.528   9.214   5.385  1.4955  0.7680  0.8206
  929MOL0     H25372  11.534   9.138   5.548  1.4424 -1.6489  1.0987
  929MOL0     H25373  11.667   8.938   5.462 -3.0777 -4.4376 -0.9448
  929MOL0     H25374  11.651   9.033   5.307 -0.0403  0.5430  0.2169
  929MOL0     H25375  11.255   8.834   5.354  0.1921 -0.9314 -0.3152
  929MOL0     H25376  11.077   8.908   5.210  1.8595 -3.1949 -0.6639
  929MOL0     H25377  10.889   8.937   4.765  0.7667  1.2489 -1.0848
  929MOL0     H25378  10.717   9.024   4.635  2.8241 -3.2612  0.9207
  929MOL0     H25379  10.391   9.126   4.856  0.0564  0.2837 -0.0250
  929MOL0     H25380  10.396   9.300   4.843 -0.3212 -1.1897  0.4473
  929MOL0     H25381  10.301   9.271   4.593 -0.0176  0.3942  0.4892
  929MOL0     H25382  10.288   9.097   4.660  2.8334 -1.4951  4.5100
  929MOL0     H25383  10.085   9.169   4.734 -0.0231  1.0339 -0.7730
  929MOL0     H25384  10.177   9.219   4.869  1.1488 -2.3884 -0.2498
  929MOL0     H25385  10.158   9.434   4.646 -1.3307 -2.8072 -1.6336
  929MOL0     H25386  10.181   9.447   4.814 -3.6900  2.4658 -0.1161
  929MOL0     H25387   9.963   9.368   4.857 -1.2597 -2.0525 -2.9319
  929MOL0     H25388   9.914   9.408   4.684 -0.5263 -0.9540  0.0413
  929MOL0     H25389  10.017   9.588   4.902  2.0537 -0.8040 -1.3328
  929MOL0     H25390  10.032   9.645   4.738 -1.9303 -0.9742 -4.2903
  929MOL0     H25391   9.811   9.723   4.851 -1.8371  0.4308 -2.2663
  929MOL0     H25392   9.768   9.559   4.838  2.8134 -1.3268  0.8972
  929MOL0     H25393   9.785   9.574   4.581 -2.8862 -1.7635  2.3204
  929MOL0     H25394   9.690   9.709   4.653 -0.6817 -3.0343  1.3380
  929MOL0     H25395  10.606   9.287   4.967 -0.9372 -0.4173  0.2029
  929MOL0     H25396  10.795   9.202   5.090 -1.9079  0.0687  0.2945
  929MOL0     H25397  11.338   9.185   5.012 -0.0981  0.1702  0.2739
  929MOL0     H25398  11.511   9.148   5.186 -1.4139  2.6852  4.2744
  929MOL0     H25399  10.749   9.813   4.460 -1.0580  0.0625 -0.5560
  929MOL0     H25400  10.686   9.832   4.235 -1.2464  1.9494 -0.4012
  929MOL0     H25401  10.782  10.104   3.821 -0.6712 -0.8261  3.0929
  929MOL0     H25402  10.712  10.148   3.615  4.2292  0.1011  1.8373
  929MOL0     H25403  10.418  10.074   3.542  0.8678  0.3105  0.0389
  929MOL0     H25404  10.400   9.914   3.493  2.9455 -1.0145  2.2660
  929MOL0     H25405  10.464  10.120   3.272  2.2973 -0.2059  1.8664
  929MOL0     H25406  10.308  10.144   3.357 -2.6900 -0.9895 -0.5889
  929MOL0     H25407  10.246   9.895   3.306 -0.3927  0.9797  0.7634
  929MOL0     H25408  10.373   9.906   3.196  1.3520 -0.2239  2.9492
  929MOL0     H25409  10.101  10.047   3.205  0.7820  2.5896  0.7414
  929MOL0     H25410  10.234  10.130   3.122 -3.3938  1.7495 -2.2525
  929MOL0     H25411  10.184   9.847   2.831 -0.1172  0.8994 -1.0063
  929MOL0     H25412  10.645   9.734   3.533  1.4099  1.8261 -2.3732
  929MOL0     H25413  10.637   9.599   3.827  0.4519  0.5264  0.7118
  929MOL0     H25414  10.716   9.581   3.663  1.0828  1.5835 -0.7567
  929MOL0     H25415  10.821   9.608   3.794  0.0707  0.1324 -0.0683
  930MOL0     O25416   0.273  10.344   9.021 -0.1808  0.0572 -0.0004
  930MOL0     C25417   0.310  10.400   9.126 -0.0021 -0.3444 -0.3735
  930MOL0     O25418   0.215  10.425   9.228  0.0362 -0.7921 -0.3990
  930MOL0     C25419   0.080  10.389   9.199  0.3403 -0.5762  0.3558
  930MOL0     C25420   0.024  10.289   9.284  1.0486  0.2604 -0.0387
  930MOL0     C25421  -0.112  10.259   9.270  0.4449 -1.3947 -0.0198
  930MOL0     C25422  -0.188  10.322   9.170  0.9949  0.1391  0.2363
  930MOL0     O25423  -0.315  10.278   9.161 -0.7716 -0.4712 -0.6902
  930MOL0     C25424  -0.362  10.248   9.024 -0.6056  0.3095 -0.0117
  930MOL0     C25425  -0.494  10.193   9.018 -0.6540  0.1076 -0.6251
  930MOL0     C25426  -0.597  10.279   9.088 -0.6844 -0.4076  0.3509
  930MOL0     C25427  -0.732  10.208   9.078 -0.2609  0.4535  0.9618
  930MOL0     C25428  -0.825  10.214   9.194  0.1275 -0.2968 -0.2507
  930MOL0     C25429  -0.878  10.360   9.209  0.5854  1.0006 -0.7142
  930MOL0     C25430  -0.961  10.382   9.342  0.6775 -0.0899 -0.3685
  930MOL0     C25431  -1.014  10.535   9.366  0.1904 -0.5597 -0.6568
  930MOL0     N25432  -1.115  10.549   9.473 -0.7411 -0.3756  0.0184
  930MOL0     C25433  -1.249  10.546   9.463  0.5143  0.5689  0.2665
  930MOL0     C25434  -1.288  10.585   9.584 -0.2068 -0.7012  0.0175
  930MOL0     C25435  -1.429  10.578   9.623 -0.4884  0.3062 -0.5683
  930MOL0     C25436  -1.450  10.496   9.748  0.0900 -0.5977 -1.1020
  930MOL0     C25437  -1.513  10.357   9.726  0.6399  0.0984 -0.4372
  930MOL0     C25438  -1.662  10.365   9.748  0.5658 -0.4438 -0.0541
  930MOL0     O25439  -1.727  10.229   9.749 -0.2947  0.1526 -1.5754
  930MOL0     C25440  -1.754  10.159   9.642  0.3714 -0.1479 -0.3107
  930MOL0     C25441  -1.736  10.203   9.513  0.0321  0.0476 -0.0699
  930MOL0     C25442  -1.781  10.114   9.411 -0.0553 -0.6170 -0.1786
  930MOL0     C25443  -1.841   9.988   9.439 -0.2188 -0.4725  0.3159
  930MOL0     C25444  -1.871   9.908   9.316 -0.1224  0.6302  0.5070
  930MOL0     O25445  -1.802   9.941   9.202  0.0201  0.2283  0.6433
  930MOL0     C25446  -1.785   9.855   9.104  0.3688 -0.3964  0.4918
  930MOL0     C25447  -1.786   9.720   9.101 -0.7155  0.1138 -0.4261
  930MOL0     C25448  -1.743   9.648   8.987 -0.7266 -0.2740 -0.5098
  930MOL0     C25449  -1.689   9.713   8.877 -0.3563  0.2022  0.5909
  930MOL0     O25450  -1.643   9.651   8.756 -0.3867  0.0754 -0.6530
  930MOL0     C25451  -1.711   9.535   8.704  0.5302  0.5476  0.1091
  930MOL0     C25452  -1.852   9.573   8.648 -0.0398  0.1663 -0.6160
  930MOL0     C25453  -1.846   9.626   8.513 -0.1350 -0.2460  0.4697
  930MOL0     C25454  -1.729   9.716   8.475  0.4287 -0.3991  0.8556
  930MOL0     C25455  -1.735   9.786   8.335  1.2423 -0.3069 -1.0058
  930MOL0     C25456  -1.688   9.684   8.227 -0.0386  0.5100 -0.0357
  930MOL0     C25457  -1.643   9.750   8.098  0.4981  0.3088  1.2704
  930MOL0     C25458  -1.596   9.659   7.979  0.8128 -0.4020  0.0905
  930MOL0    Cl25459  -1.522   9.764   7.846 -0.2630 -0.3705 -0.1205
  930MOL0     C25460  -1.712   9.856   8.877  0.7008  0.3877 -0.7900
  930MOL0     C25461  -1.763   9.928   8.988  0.6237  0.2113 -0.6517
  930MOL0     O25462  -1.961   9.817   9.320 -0.3999 -0.0372 -0.1380
  930MOL0     C25463  -1.865   9.942   9.568  0.2938 -0.1842 -0.8119
  930MOL0     C25464  -1.825  10.037   9.666  0.3047 -0.4519 -0.4781
  930MOL0     N25465  -1.186  10.619   9.660 -0.3983 -0.2100  0.7931
  930MOL0     N25466  -1.076  10.599   9.589  0.2171 -0.9821 -0.5734
  930MOL0     C25467  -0.130  10.418   9.084  0.0564  0.7183  0.5802
  930MOL0     C25468   0.003  10.451   9.099  0.1482 -0.4269  0.3277
  930MOL0     C25469   0.454  10.415   9.163 -0.0393  0.1904 -0.2390
  930MOL0     C25470   0.482  10.451   9.300 -0.9446  0.2693  0.5476
  930MOL0     C25471   0.612  10.476   9.335 -0.5061  0.1787  0.2097
  930MOL0     C25472   0.716  10.453   9.249  0.0390 -0.0204 -1.1359
  930MOL0     O25473   0.838  10.490   9.296  0.1543 -0.0817  0.3681
  930MOL0     C25474   0.945  10.414   9.239  0.5552  0.1464 -0.2433
  930MOL0     C25475   1.079  10.456   9.300  0.5049 -0.2315  0.7896
  930MOL0     C25476   1.127  10.591   9.244 -0.1209  0.2093  0.6559
  930MOL0     C25477   1.221  10.673   9.334  0.0217 -0.7795 -0.0136
  930MOL0     C25478   1.339  10.604   9.384  0.0765  0.3873  0.1333
  930MOL0     C25479   1.442  10.554   9.418 -0.1384 -0.6040  0.5668
  930MOL0     C25480   0.687  10.421   9.118 -0.5051  0.8859 -0.7552
  930MOL0     C25481   0.558  10.393   9.074 -0.8249 -0.0719 -0.0222
  930MOL0     C25482   0.546  10.369   8.925 -0.2079  0.5348 -0.3560
  930MOL0     H25483   0.083  10.244   9.363  0.5532 -1.7443 -0.7341
  930MOL0     H25484  -0.153  10.180   9.332 -3.0018  0.6898  0.5667
  930MOL0     H25485  -0.359  10.337   8.960 -4.1036 -0.5906 -1.6924
  930MOL0     H25486  -0.290  10.180   8.977 -1.3096 -0.9724  0.7067
  930MOL0     H25487  -0.482  10.099   9.073  4.1037  0.7048 -0.1575
  930MOL0     H25488  -0.524  10.174   8.915  0.0092  0.8192 -0.9633
  930MOL0     H25489  -0.586  10.377   9.042  2.5199  0.4237  2.5478
  930MOL0     H25490  -0.573  10.299   9.193 -1.4224  2.7622  0.0256
  930MOL0     H25491  -0.783  10.258   8.995  0.0683  1.4518  1.3479
  930MOL0     H25492  -0.711  10.102   9.059 -0.1480  0.2149  2.3631
  930MOL0     H25493  -0.900  10.136   9.176 -0.4193  0.5432 -1.7681
  930MOL0     H25494  -0.757  10.179   9.273  1.0044  1.8235  0.0027
  930MOL0     H25495  -0.795  10.431   9.218  0.2219  1.1723  2.5509
  930MOL0     H25496  -0.938  10.391   9.124  0.2308  0.7848 -0.5463
  930MOL0     H25497  -0.904  10.346   9.429 -2.1805  1.7062  2.4531
  930MOL0     H25498  -1.050  10.319   9.337 -0.1149  1.0683 -1.1601
  930MOL0     H25499  -0.925  10.595   9.389  0.1398 -1.1257  1.2625
  930MOL0     H25500  -1.049  10.577   9.272 -1.2083 -0.3025 -0.0350
  930MOL0     H25501  -1.303  10.529   9.371 -0.0289  1.7861  0.3465
  930MOL0     H25502  -1.472  10.678   9.637  0.4808  0.6495  0.0134
  930MOL0     H25503  -1.493  10.544   9.541 -0.2098  2.1944 -1.6176
  930MOL0     H25504  -1.356  10.486   9.802 -0.3597 -1.0092 -0.3875
  930MOL0     H25505  -1.522  10.557   9.803 -0.3115 -0.6106 -1.6052
  930MOL0     H25506  -1.469  10.288   9.799  0.5787  3.2599  2.8719
  930MOL0     H25507  -1.495  10.308   9.630  1.6662 -1.0333  0.2984
  930MOL0     H25508  -1.715  10.418   9.669  1.0385 -1.8564 -1.3591
  930MOL0     H25509  -1.685  10.419   9.840 -0.8522 -0.4578 -0.3805
  930MOL0     H25510  -1.674  10.290   9.493  0.9395 -0.5519  0.0555
  930MOL0     H25511  -1.765  10.134   9.306 -0.9116 -0.5406 -0.2992
  930MOL0     H25512  -1.822   9.672   9.192 -2.4414 -0.2811 -1.2855
  930MOL0     H25513  -1.730   9.541   8.996 -0.2597 -0.0991  1.3417
  930MOL0     H25514  -1.650   9.494   8.623  2.1770  3.2260 -0.1139
  930MOL0     H25515  -1.707   9.446   8.768  2.2231  0.8300  0.4403
  930MOL0     H25516  -1.906   9.478   8.638  0.7078 -0.2533 -0.7675
  930MOL0     H25517  -1.901   9.641   8.718  0.5980  0.6761 -0.6512
  930MOL0     H25518  -1.840   9.545   8.441  0.3318 -1.6128  1.9810
  930MOL0     H25519  -1.941   9.677   8.493 -0.2310 -1.7260 -3.6245
  930MOL0     H25520  -1.636   9.659   8.471  0.8445  0.3502 -1.5376
  930MOL0     H25521  -1.713   9.796   8.548  2.3742 -0.4408  0.5323
  930MOL0     H25522  -1.673   9.877   8.339  1.1141 -0.1706 -1.8515
  930MOL0     H25523  -1.838   9.813   8.311  0.4013 -1.1083  1.4309
  930MOL0     H25524  -1.600   9.628   8.259  0.3095  2.1245  2.0325
  930MOL0     H25525  -1.772   9.614   8.222 -1.0784  1.5104  2.0776
  930MOL0     H25526  -1.562   9.821   8.120  0.0959  0.4950  2.2125
  930MOL0     H25527  -1.727   9.814   8.066  1.1039  1.7203  2.3762
  930MOL0     H25528  -1.520   9.589   8.015  0.0905  0.2208  3.0749
  930MOL0     H25529  -1.687   9.609   7.943  1.2856  0.5045 -2.5140
  930MOL0     H25530  -1.698   9.920   8.791 -1.4240  1.6003 -0.3090
  930MOL0     H25531  -1.768  10.035   8.971  0.5832 -0.3281 -5.7162
  930MOL0     H25532  -1.923   9.852   9.586 -2.3349  1.6203  0.4025
  930MOL0     H25533  -1.860  10.020   9.768 -0.6809  0.6972 -0.5938
  930MOL0     H25534  -0.187  10.471   9.009  1.7441 -0.7946 -1.9217
  930MOL0     H25535   0.042  10.519   9.023  0.6083 -1.2486 -0.1861
  930MOL0     H25536   0.397  10.468   9.365 -1.0665  0.0138  0.4576
  930MOL0     H25537   0.629  10.518   9.434  2.0406  1.2384 -0.6024
  930MOL0     H25538   0.964  10.420   9.131  3.7538 -2.3748  0.0166
  930MOL0     H25539   0.931  10.307   9.257  1.0173 -0.4680 -3.0393
  930MOL0     H25540   1.154  10.378   9.283 -0.0508 -0.0732 -3.5152
  930MOL0     H25541   1.066  10.459   9.409  0.3026 -0.1022  0.7620
  930MOL0     H25542   1.034  10.647   9.242 -0.1993  0.0718 -0.1527
  930MOL0     H25543   1.163  10.576   9.141 -1.6393 -2.2757  0.3981
  930MOL0     H25544   1.250  10.757   9.270 -1.7428  0.6302  0.9419
  930MOL0     H25545   1.181  10.726   9.420  0.7214 -1.1297  0.5375
  930MOL0     H25546   1.532  10.524   9.469 -0.1761 -0.4756  0.7106
  930MOL0     H25547   0.769  10.414   9.047 -0.2632 -1.4865 -0.3391
  930MOL0     H25548   0.638  10.381   8.868  0.1748 -2.3805 -0.4928
  930MOL0     H25549   0.514  10.268   8.896 -1.6086  0.2455  1.9791
  930MOL0     H25550   0.464  10.429   8.883  0.5009  0.1360 -2.4115
  931MOL0     O25551   9.836   5.404   2.134  0.0893 -0.4690  0.2458
  931MOL0     C25552   9.788   5.515   2.129 -0.6136  0.5088 -0.5279
  931MOL0     O25553   9.720   5.573   2.027  0.5698 -0.2241  0.3692
  931MOL0     C25554   9.743   5.515   1.909  0.3568 -0.3832 -0.0817
  931MOL0     C25555   9.880   5.502   1.862  0.5880 -0.4537  0.1882
  931MOL0     C25556   9.892   5.456   1.733 -0.2434  0.1343  0.0716
  931MOL0     C25557   9.785   5.444   1.641  0.2679  0.3794  1.0118
  931MOL0     O25558   9.814   5.425   1.509 -0.3215  0.3961  0.7350
  931MOL0     C25559   9.900   5.312   1.470 -0.5239  0.3857 -0.2743
  931MOL0     C25560   9.841   5.240   1.346  0.7603  0.4680 -0.0393
  931MOL0     C25561   9.898   5.097   1.323  0.1938  0.0846  0.2109
  931MOL0     C25562  10.045   5.089   1.281 -0.5652  0.4298 -0.1856
  931MOL0     C25563  10.078   4.944   1.286 -0.4963 -0.6822  0.5670
  931MOL0     C25564  10.050   4.879   1.155  0.4290 -0.3117  1.0887
  931MOL0     C25565  10.162   4.773   1.130  0.6313  0.3514  0.4186
  931MOL0     C25566  10.177   4.661   1.229 -0.8854  0.1705  0.3160
  931MOL0     N25567  10.052   4.588   1.261 -0.0638  0.5862  0.6729
  931MOL0     C25568  10.041   4.492   1.358 -0.4975  0.5390 -0.4088
  931MOL0     C25569   9.920   4.430   1.339 -0.0652  0.4608  0.3506
  931MOL0     C25570   9.850   4.320   1.413  0.3435  0.4086  0.4148
  931MOL0     C25571   9.925   4.264   1.535  0.3541 -0.9346  0.3155
  931MOL0     C25572   9.885   4.130   1.580  0.2956  0.5424 -0.3649
  931MOL0     C25573   9.728   4.115   1.600 -0.5294  0.6972 -0.1676
  931MOL0     O25574   9.696   3.989   1.654  0.4874 -0.0937 -0.4901
  931MOL0     C25575   9.569   3.971   1.691 -0.1237  1.3955 -0.0786
  931MOL0     C25576   9.458   4.034   1.650 -0.4363 -0.1109  0.0276
  931MOL0     C25577   9.336   3.989   1.707  0.2304 -0.2222 -0.7413
  931MOL0     C25578   9.323   3.884   1.796  0.0814 -0.1084 -0.3136
  931MOL0     C25579   9.188   3.842   1.845 -0.3529  0.5053 -0.1569
  931MOL0     O25580   9.201   3.747   1.939 -0.4669  0.6433  0.3837
  931MOL0     C25581   9.113   3.703   2.028  0.3196 -0.1239  0.2839
  931MOL0     C25582   9.162   3.592   2.095 -0.2970 -0.2105 -0.6988
  931MOL0     C25583   9.084   3.537   2.186 -0.0164 -0.7848 -0.6557
  931MOL0     C25584   8.962   3.585   2.229  0.1420  0.8661  1.3393
  931MOL0     O25585   8.884   3.538   2.337 -0.0663 -0.2712  0.1983
  931MOL0     C25586   8.919   3.406   2.390 -0.1531 -1.1247 -0.0530
  931MOL0     C25587   8.795   3.337   2.432  0.4553 -0.0117 -0.0219
  931MOL0     C25588   8.725   3.404   2.548  0.1218  0.0651  0.3885
  931MOL0     C25589   8.584   3.351   2.582 -0.1925  0.3767  0.5289
  931MOL0     C25590   8.490   3.479   2.599 -0.3394 -0.3420  0.3574
  931MOL0     C25591   8.433   3.536   2.460 -0.8022  0.6648 -0.2631
  931MOL0     C25592   8.373   3.430   2.372  0.1441 -0.0265 -0.6148
  931MOL0     C25593   8.308   3.478   2.244  0.0569  0.4011 -0.0278
  931MOL0    Cl25594   8.410   3.554   2.128  0.3187  0.1824 -0.1703
  931MOL0     C25595   8.914   3.699   2.164 -0.1570 -0.1868 -0.3830
  931MOL0     C25596   8.988   3.757   2.056 -0.3026 -1.2244  0.1505
  931MOL0     O25597   9.081   3.882   1.808  0.5755  0.2623  0.2917
  931MOL0     C25598   9.437   3.824   1.831 -0.5487  0.3425 -0.5765
  931MOL0     C25599   9.557   3.864   1.776 -1.3643 -0.1662  0.3217
  931MOL0     N25600   9.857   4.501   1.229  0.1277  0.3409  0.2344
  931MOL0     N25601   9.939   4.587   1.181  0.0731  0.4705  0.1004
  931MOL0     C25602   9.650   5.473   1.688 -0.0664 -0.7384 -0.0004
  931MOL0     C25603   9.635   5.496   1.822 -0.0066  0.0846 -0.4174
  931MOL0     C25604   9.783   5.602   2.250  0.6641  0.1406 -1.4008
  931MOL0     C25605   9.659   5.661   2.278 -0.6845 -0.6184  0.0124
  931MOL0     C25606   9.655   5.736   2.401 -0.7519 -0.4436 -0.9155
  931MOL0     C25607   9.759   5.740   2.502 -0.5880 -0.0641  0.1449
  931MOL0     O25608   9.737   5.815   2.619 -0.7404  0.3397  0.2130
  931MOL0     C25609   9.844   5.815   2.712  0.1866  0.4484  0.2626
  931MOL0     C25610   9.781   5.867   2.842 -0.0859 -0.7863  0.0800
  931MOL0     C25611   9.713   5.755   2.938  0.4002  0.3244  0.8788
  931MOL0     C25612   9.711   5.788   3.089 -0.6596  0.2436  0.5724
  931MOL0     C25613   9.572   5.822   3.122  0.2563  0.2564 -0.0689
  931MOL0     C25614   9.452   5.836   3.145 -0.6772 -0.7779 -0.5018
  931MOL0     C25615   9.879   5.680   2.462 -0.0023 -0.7847  0.3719
  931MOL0     C25616   9.894   5.613   2.343  0.1496 -0.2827  0.4893
  931MOL0     C25617  10.027   5.559   2.307  0.5444 -0.4312  0.9675
  931MOL0     H25618   9.969   5.518   1.921  2.6380 -2.6732 -2.0813
  931MOL0     H25619   9.992   5.448   1.691 -0.4989  0.2051 -0.5522
  931MOL0     H25620  10.003   5.344   1.451 -2.0958  5.3043 -1.8823
  931MOL0     H25621   9.890   5.243   1.554 -4.1963  1.8433  0.6662
  931MOL0     H25622   9.853   5.310   1.262 -1.6458  1.9118  0.7014
  931MOL0     H25623   9.731   5.238   1.352  0.7568 -0.1273 -0.2264
  931MOL0     H25624   9.845   5.051   1.238  1.6553 -1.4751  0.0880
  931MOL0     H25625   9.870   5.043   1.414  0.1820 -1.5649 -0.7292
  931MOL0     H25626  10.071   5.149   1.194  3.0900  0.6078  0.8820
  931MOL0     H25627  10.106   5.133   1.360  0.0444 -2.6058  1.1561
  931MOL0     H25628  10.185   4.952   1.308 -0.2065 -0.7497 -0.7325
  931MOL0     H25629  10.011   4.893   1.355  0.0077  0.1523  1.7015
  931MOL0     H25630   9.948   4.841   1.147 -0.3861  1.7093  1.3518
  931MOL0     H25631  10.044   4.946   1.068 -0.4741 -0.1688  1.2479
  931MOL0     H25632  10.255   4.830   1.130  0.3341  0.8809  1.6158
  931MOL0     H25633  10.151   4.732   1.029  2.8201 -1.3868  0.7926
  931MOL0     H25634  10.247   4.590   1.183 -1.0076 -1.2151  2.1303
  931MOL0     H25635  10.220   4.699   1.322  0.8512  0.4814 -0.5898
  931MOL0     H25636  10.116   4.462   1.430 -2.4328 -0.4164  1.3251
  931MOL0     H25637   9.753   4.360   1.445 -0.5881 -2.9407  2.2624
  931MOL0     H25638   9.824   4.241   1.342  1.3009  1.0481 -0.6882
  931MOL0     H25639  10.030   4.243   1.512  0.3046 -0.1076 -0.7338
  931MOL0     H25640   9.925   4.339   1.614 -1.1557  1.0517 -1.4455
  931MOL0     H25641   9.929   4.099   1.675 -1.0860  3.4220  1.3364
  931MOL0     H25642   9.927   4.055   1.513  2.9411  1.4725  0.1370
  931MOL0     H25643   9.692   4.122   1.497 -0.8164 -3.4893 -0.5422
  931MOL0     H25644   9.698   4.193   1.670 -0.8785 -2.7461  3.9438
  931MOL0     H25645   9.462   4.117   1.581 -0.7072 -0.6119 -0.5959
  931MOL0     H25646   9.245   4.037   1.671 -0.2246 -1.3461 -1.1280
  931MOL0     H25647   9.261   3.549   2.082  0.6335  1.0331  1.5060
  931MOL0     H25648   9.119   3.454   2.247 -3.6179 -2.4458 -0.5450
  931MOL0     H25649   8.955   3.338   2.312 -2.4582 -2.7042  0.1717
  931MOL0     H25650   8.987   3.416   2.475 -1.7077 -5.0416  1.8675
  931MOL0     H25651   8.726   3.341   2.347  0.6406  0.8256 -0.1433
  931MOL0     H25652   8.825   3.238   2.469  0.9971  0.9077  2.1692
  931MOL0     H25653   8.783   3.391   2.640 -0.8953 -1.0192  0.8903
  931MOL0     H25654   8.714   3.512   2.529  0.9824  0.0175 -0.4928
  931MOL0     H25655   8.584   3.297   2.677  0.4745 -0.8555 -0.1504
  931MOL0     H25656   8.537   3.291   2.503 -1.0733  3.0930 -1.1649
  931MOL0     H25657   8.541   3.555   2.659 -2.2860  1.1279  0.2362
  931MOL0     H25658   8.409   3.444   2.663 -1.0442 -0.0612 -0.3678
  931MOL0     H25659   8.353   3.608   2.480  0.5834  3.2967 -3.4024
  931MOL0     H25660   8.516   3.583   2.408 -1.1078  1.2214 -0.2599
  931MOL0     H25661   8.295   3.382   2.432 -0.1104  0.8402 -0.2537
  931MOL0     H25662   8.454   3.364   2.339  1.0059  0.9399 -0.4775
  931MOL0     H25663   8.253   3.400   2.189 -1.0590  0.6259  0.7331
  931MOL0     H25664   8.225   3.540   2.279 -1.1495 -1.2299  0.1319
  931MOL0     H25665   8.817   3.738   2.195  0.6219  1.1391  0.4572
  931MOL0     H25666   8.947   3.841   2.000  2.3883  0.1005 -0.0091
  931MOL0     H25667   9.457   3.760   1.916  2.1564  2.3311  0.4518
  931MOL0     H25668   9.642   3.808   1.815 -3.1410 -1.0076  3.3245
  931MOL0     H25669   9.564   5.472   1.622 -0.0526 -0.0264 -0.0358
  931MOL0     H25670   9.538   5.523   1.863  0.3321 -1.3732  1.4849
  931MOL0     H25671   9.571   5.655   2.215 -0.0579 -0.5413 -0.8881
  931MOL0     H25672   9.558   5.782   2.418 -0.6182  0.9209 -3.2918
  931MOL0     H25673   9.916   5.879   2.662 -1.4540  0.2988 -2.5018
  931MOL0     H25674   9.881   5.712   2.721 -2.1911 -0.6746 -1.4660
  931MOL0     H25675   9.702   5.938   2.814  0.3692  0.1867  1.1789
  931MOL0     H25676   9.858   5.912   2.905 -1.5436  0.6677  0.9189
  931MOL0     H25677   9.769   5.662   2.922 -1.1500 -0.4704 -0.2126
  931MOL0     H25678   9.609   5.738   2.907  0.6478 -0.2648  0.3492
  931MOL0     H25679   9.723   5.698   3.150 -1.5581  1.4892  2.6934
  931MOL0     H25680   9.788   5.863   3.108  1.4861 -1.8211  0.5368
  931MOL0     H25681   9.357   5.851   3.191 -1.1763  1.0492 -2.0074
  931MOL0     H25682   9.963   5.682   2.531  2.0609  2.9539 -1.9415
  931MOL0     H25683  10.023   5.453   2.335 -0.1993  0.4467  4.8168
  931MOL0     H25684  10.044   5.558   2.199 -1.5236  0.3073  0.5907
  931MOL0     H25685  10.103   5.617   2.361  0.6857  3.0692 -2.5292
  932MOL0     O25686   4.354   0.094  10.561 -0.0823 -0.0347  0.1882
  932MOL0     C25687   4.418  -0.012  10.565  0.1122 -0.6100 -0.8305
  932MOL0     O25688   4.534  -0.042  10.637  0.4765  0.2788  0.4003
  932MOL0     C25689   4.584   0.053  10.725  0.7750 -0.1434  0.7636
  932MOL0     C25690   4.506   0.100  10.825 -0.6440  0.3572  0.0502
  932MOL0     C25691   4.573   0.191  10.912  0.4145  0.1196 -0.4407
  932MOL0     C25692   4.704   0.233  10.911 -0.0815  0.0827 -0.2184
  932MOL0     O25693   4.746   0.309  11.021 -0.8890 -0.3810  0.0296
  932MOL0     C25694   4.886   0.307  11.053  0.6837  0.3785 -1.0512
  932MOL0     C25695   4.935   0.444  11.101 -0.1725 -0.4628  0.5782
  932MOL0     C25696   4.917   0.549  10.979 -0.0251 -0.5750 -0.0687
  932MOL0     C25697   4.969   0.696  11.001 -0.3488 -0.0207  0.0534
  932MOL0     C25698   4.931   0.798  10.885  0.4119  1.5176  0.2408
  932MOL0     C25699   4.782   0.806  10.844  0.6548  0.2136 -0.5941
  932MOL0     C25700   4.785   0.923  10.742  0.2332 -0.4512  0.6566
  932MOL0     C25701   4.645   0.958  10.682  0.2968  0.0044 -0.0493
  932MOL0     N25702   4.566   1.009  10.798 -0.0920  0.9732  0.4407
  932MOL0     C25703   4.519   1.144  10.806 -0.1941  0.1913 -0.0255
  932MOL0     C25704   4.412   1.144  10.884 -0.6324  0.2465 -0.8332
  932MOL0     C25705   4.312   1.261  10.912 -0.3908  0.8180 -0.6100
  932MOL0     C25706   4.358   1.354  11.021  0.3525  0.1799 -0.7578
  932MOL0     C25707   4.393   1.279  11.150 -0.3105  0.3295 -0.6444
  932MOL0     C25708   4.268   1.212  11.219  0.0539  1.2482 -0.1414
  932MOL0     O25709   4.167   1.312  11.243  0.2580  0.0922  0.4037
  932MOL0     C25710   4.036   1.275  11.276 -1.2830 -0.2596  0.1766
  932MOL0     C25711   3.988   1.152  11.322 -0.2331  0.6560 -1.5605
  932MOL0     C25712   3.859   1.131  11.355  0.1178  0.3957 -0.0213
  932MOL0     C25713   3.767   1.231  11.318  0.0635  0.8932 -0.4450
  932MOL0     C25714   3.620   1.215  11.332  0.7821  0.4362  0.0553
  932MOL0     O25715   3.580   1.104  11.397 -0.7511  0.3088  0.9656
  932MOL0     C25716   3.462   1.058  11.348  0.0342 -0.3023  0.4723
  932MOL0     C25717   3.344   1.094  11.409 -0.4135  0.5027 -1.2972
  932MOL0     C25718   3.215   1.070  11.363  0.4749 -0.5280  0.5373
  932MOL0     C25719   3.211   1.006  11.234  0.2537 -0.9131 -0.8066
  932MOL0     O25720   3.091   0.968  11.182 -0.3746 -0.0347 -0.3053
  932MOL0     C25721   2.981   0.937  11.270 -0.1590  0.3220  0.2324
  932MOL0     C25722   2.880   0.851  11.190 -0.3061 -0.3409  0.2860
  932MOL0     C25723   2.773   0.805  11.293  0.4876 -0.3805 -0.2427
  932MOL0     C25724   2.683   0.706  11.223  0.3041  0.3113 -0.0657
  932MOL0     C25725   2.568   0.649  11.301  0.6546  0.2703 -0.1687
  932MOL0     C25726   2.442   0.742  11.298  0.0319  0.3973  0.0522
  932MOL0     C25727   2.321   0.678  11.365 -0.1881  0.2198 -0.9528
  932MOL0     C25728   2.188   0.755  11.362 -0.7554 -0.0137  0.1196
  932MOL0    Cl25729   2.211   0.917  11.444  0.4521  0.4842 -0.5102
  932MOL0     C25730   3.329   0.962  11.169  0.6657 -0.3389 -0.0485
  932MOL0     C25731   3.450   0.981  11.226 -0.7393  1.1215 -0.0753
  932MOL0     O25732   3.542   1.298  11.284 -0.3770 -0.4580  0.3157
  932MOL0     C25733   3.811   1.353  11.276 -0.2408  0.2457 -0.2101
  932MOL0     C25734   3.948   1.374  11.253 -0.0790  0.6069 -0.9163
  932MOL0     N25735   4.395   1.022  10.933  0.1206 -0.0162 -0.7449
  932MOL0     N25736   4.485   0.941  10.883  0.7270  0.1453 -0.0894
  932MOL0     C25737   4.779   0.181  10.800  0.4551 -0.9900  0.1521
  932MOL0     C25738   4.719   0.093  10.709  0.2260 -0.3871  0.6788
  932MOL0     C25739   4.342  -0.123  10.493  0.2585 -0.2763  0.4028
  932MOL0     C25740   4.276  -0.083  10.378  0.2418  0.3184  0.6988
  932MOL0     C25741   4.228  -0.177  10.287  0.5922  0.5975 -0.9199
  932MOL0     C25742   4.245  -0.314  10.317  0.2376  0.2080  0.0121
  932MOL0     O25743   4.218  -0.420  10.235 -0.2595 -0.2953 -0.2491
  932MOL0     C25744   4.158  -0.416  10.105  0.3785 -0.1334  0.9685
  932MOL0     C25745   4.005  -0.436  10.108  0.3862  0.5340  0.0011
  932MOL0     C25746   3.966  -0.569  10.184 -0.4469  0.0961  0.7703
  932MOL0     C25747   3.807  -0.572  10.187 -0.5053 -0.6062 -1.3990
  932MOL0     C25748   3.763  -0.702  10.226  0.2324 -0.3136  0.8252
  932MOL0     C25749   3.721  -0.814  10.228  0.5630  0.0063 -0.0050
  932MOL0     C25750   4.306  -0.352  10.442  0.5519 -0.6257 -0.6514
  932MOL0     C25751   4.356  -0.258  10.534 -0.3215  0.2309 -0.8037
  932MOL0     C25752   4.421  -0.310  10.667  0.0649 -0.7179  0.3607
  932MOL0     H25753   4.405   0.059  10.823 -1.4282  2.2055 -1.3733
  932MOL0     H25754   4.515   0.246  10.985 -1.3266 -1.4628 -0.5440
  932MOL0     H25755   4.897   0.238  11.137 -0.8392 -2.3789 -2.9845
  932MOL0     H25756   4.954   0.277  10.973  0.3283 -1.6771 -0.6353
  932MOL0     H25757   5.039   0.440  11.132 -0.0875  0.8149  0.5269
  932MOL0     H25758   4.875   0.482  11.185 -1.8402  1.1578 -1.2481
  932MOL0     H25759   4.811   0.563  10.955  0.5952  2.6500 -1.4620
  932MOL0     H25760   4.971   0.513  10.891  0.2174 -2.0424  0.6542
  932MOL0     H25761   4.941   0.733  11.101 -2.8084 -0.1307 -0.5432
  932MOL0     H25762   5.078   0.690  11.008 -0.3991 -4.1343 -0.2534
  932MOL0     H25763   4.953   0.891  10.939  3.2229 -1.1207  4.2317
  932MOL0     H25764   4.984   0.792  10.789 -0.4683  0.9727 -0.2177
  932MOL0     H25765   4.751   0.716  10.790 -0.0820 -1.1040  1.8718
  932MOL0     H25766   4.717   0.836  10.927  1.2627  1.7296 -0.6286
  932MOL0     H25767   4.847   0.895  10.657 -2.8535  0.7885 -2.2641
  932MOL0     H25768   4.825   1.012  10.790  2.1138 -1.3727  0.8887
  932MOL0     H25769   4.639   1.039  10.609  2.4020  2.3276  2.1610
  932MOL0     H25770   4.601   0.863  10.651 -0.4436  0.4678 -0.4454
  932MOL0     H25771   4.556   1.230  10.752 -2.4496  0.4362 -1.3406
  932MOL0     H25772   4.305   1.324  10.823 -1.2145  1.0739 -0.3736
  932MOL0     H25773   4.211   1.226  10.935 -1.1204  1.4736 -2.6311
  932MOL0     H25774   4.445   1.411  10.988  0.1674  3.0304  3.0067
  932MOL0     H25775   4.276   1.427  11.022  1.4264  1.5133  1.9613
  932MOL0     H25776   4.436   1.346  11.225 -1.2111 -0.6609  0.8009
  932MOL0     H25777   4.465   1.199  11.129 -0.9070 -0.8603  1.5461
  932MOL0     H25778   4.308   1.166  11.310  1.0996 -1.8654 -2.0018
  932MOL0     H25779   4.234   1.122  11.167 -3.6392  1.8790  0.8935
  932MOL0     H25780   4.062   1.077  11.347 -1.5969  0.6982  3.6104
  932MOL0     H25781   3.825   1.036  11.396 -0.4489 -0.7130 -2.7954
  932MOL0     H25782   3.355   1.139  11.508 -1.0446 -2.6292  0.3298
  932MOL0     H25783   3.119   1.096  11.406  0.3753 -1.5148  0.9353
  932MOL0     H25784   3.020   0.887  11.358  0.1121 -1.7126 -0.9871
  932MOL0     H25785   2.931   1.028  11.306  2.7646  1.9249  0.5285
  932MOL0     H25786   2.838   0.928  11.124 -0.7688  0.5569  1.5962
  932MOL0     H25787   2.920   0.767  11.132  1.6807  1.8712 -1.7642
  932MOL0     H25788   2.815   0.764  11.386 -0.1854  3.3750  1.9336
  932MOL0     H25789   2.706   0.887  11.318 -2.8474 -1.9761 -3.1753
  932MOL0     H25790   2.751   0.624  11.198 -0.6349 -0.6462  0.4794
  932MOL0     H25791   2.639   0.751  11.134 -1.6577  1.3506  1.3624
  932MOL0     H25792   2.589   0.628  11.407  0.7712 -4.1910 -0.9064
  932MOL0     H25793   2.545   0.551  11.257 -1.1407  0.6386 -0.1166
  932MOL0     H25794   2.466   0.833  11.353  3.2567  0.9599 -2.0581
  932MOL0     H25795   2.425   0.753  11.191  4.0438  0.3294 -0.7270
  932MOL0     H25796   2.352   0.683  11.470  1.9902  0.0106 -1.5364
  932MOL0     H25797   2.301   0.574  11.335 -1.5523  0.0482  0.4194
  932MOL0     H25798   2.146   0.783  11.264 -1.0482  1.4666  0.6418
  932MOL0     H25799   2.107   0.702  11.412 -0.9186  2.8310  3.2427
  932MOL0     H25800   3.310   0.912  11.074  1.6255  0.2398 -0.5636
  932MOL0     H25801   3.545   0.958  11.179  1.7778  3.0381  3.5759
  932MOL0     H25802   3.741   1.435  11.266 -2.2457 -1.3897 -0.1803
  932MOL0     H25803   3.997   1.464  11.215 -0.4486  1.0192 -0.4203
  932MOL0     H25804   4.886   0.191  10.783 -0.0165  0.8465 -2.2449
  932MOL0     H25805   4.766   0.068  10.614 -2.5480  2.6429 -1.6910
  932MOL0     H25806   4.286   0.020  10.349  1.9683 -0.1072 -0.3228
  932MOL0     H25807   4.192  -0.150  10.188 -2.3176 -0.6703 -0.3324
  932MOL0     H25808   4.195  -0.502  10.048 -0.2379 -2.6262  4.0398
  932MOL0     H25809   4.188  -0.324  10.054  0.6580 -0.6413  0.2145
  932MOL0     H25810   3.972  -0.462  10.007  1.2885 -2.2054  0.3330
  932MOL0     H25811   3.957  -0.345  10.145  1.1959  0.3027  1.7091
  932MOL0     H25812   4.011  -0.580  10.283  3.1034  1.8367 -0.4979
  932MOL0     H25813   3.994  -0.650  10.117 -3.9678  0.9027 -2.0244
  932MOL0     H25814   3.776  -0.513  10.274  0.2527 -1.4463 -0.5290
  932MOL0     H25815   3.756  -0.561  10.091 -0.6869  0.8347 -1.1582
  932MOL0     H25816   3.669  -0.908  10.233 -0.8127  0.5840 -2.2525
  932MOL0     H25817   4.317  -0.458  10.465 -1.4781 -0.6961  0.2055
  932MOL0     H25818   4.411  -0.242  10.753 -2.1627  0.6672 -0.9052
  932MOL0     H25819   4.387  -0.410  10.694 -1.0311 -0.3044  0.5479
  932MOL0     H25820   4.530  -0.322  10.658 -0.0259 -1.6707  0.4399
  933MOL0     O25821  10.362   2.595   1.090  0.3083  0.5582  0.0956
  933MOL0     C25822  10.287   2.663   1.016  0.0329  0.2206  0.2623
  933MOL0     O25823  10.308   2.692   0.887 -0.3596 -0.6238  0.3216
  933MOL0     C25824  10.424   2.661   0.822 -0.1259  0.5502  0.4181
  933MOL0     C25825  10.418   2.593   0.703  0.6942  1.6478  0.7536
  933MOL0     C25826  10.532   2.585   0.624 -0.4914 -0.4935 -0.3042
  933MOL0     C25827  10.657   2.634   0.678  0.8192  0.4681  0.2929
  933MOL0     O25828  10.765   2.627   0.592  0.2465  0.2792  0.1752
  933MOL0     C25829  10.888   2.673   0.644 -0.4423 -0.5862 -0.1016
  933MOL0     C25830  10.985   2.687   0.526  0.1580 -0.4225  0.4645
  933MOL0     C25831  10.987   2.560   0.449 -1.0221  0.2417 -0.2288
  933MOL0     C25832  11.032   2.581   0.304  0.5841 -0.1761  0.0228
  933MOL0     C25833  11.043   2.451   0.231  0.2913 -0.1124 -0.0194
  933MOL0     C25834  10.992   2.474   0.077  0.3736  0.1241 -0.5631
  933MOL0     C25835  10.964   2.344   0.014 -0.0992  0.0264  0.3714
  933MOL0     C25836  11.094   2.279  -0.033  0.2951  0.7338 -0.2862
  933MOL0     N25837  11.080   2.136  -0.060  0.2476 -0.0226 -0.2505
  933MOL0     C25838  11.023   2.044   0.025 -0.3485  0.3861  0.5655
  933MOL0     C25839  11.035   1.927  -0.044 -0.2832 -0.3598 -0.3889
  933MOL0     C25840  10.984   1.794   0.008 -0.2587 -0.0105 -0.8474
  933MOL0     C25841  10.825   1.774  -0.001  0.1185  0.8064  1.0163
  933MOL0     C25842  10.764   1.635   0.025 -0.2840 -1.2330 -0.3499
  933MOL0     C25843  10.820   1.531  -0.078 -0.4628 -0.3906  0.8080
  933MOL0     O25844  10.767   1.398  -0.050 -0.2612  0.9986 -0.7289
  933MOL0     C25845  10.777   1.337   0.077  0.0893  0.1417  1.5714
  933MOL0     C25846  10.875   1.378   0.167 -0.3504  0.1622 -0.2064
  933MOL0     C25847  10.879   1.321   0.296 -0.7147  1.0224 -1.0153
  933MOL0     C25848  10.776   1.230   0.340  1.4762 -0.4212  0.9683
  933MOL0     C25849  10.780   1.158   0.470  0.0925  0.3873 -0.0613
  933MOL0     O25850  10.691   1.071   0.497  0.1527 -0.5525 -0.4070
  933MOL0     C25851  10.681   1.019   0.625  0.6276 -0.1738  0.5354
  933MOL0     C25852  10.647   1.097   0.732  0.1582 -0.4863  0.2372
  933MOL0     C25853  10.628   1.030   0.851 -0.0343 -0.7754  0.0343
  933MOL0     C25854  10.655   0.892   0.868  0.7008  0.1774  0.2393
  933MOL0     O25855  10.640   0.817   0.977 -0.5955  0.5389  0.5034
  933MOL0     C25856  10.611   0.893   1.098  0.2958  1.0075  0.3658
  933MOL0     C25857  10.644   0.789   1.210 -0.1270  0.1676  0.0693
  933MOL0     C25858  10.583   0.831   1.355 -0.1543  0.2965  1.0033
  933MOL0     C25859  10.644   0.742   1.467  0.0412 -0.1564  1.0144
  933MOL0     C25860  10.574   0.600   1.464  0.8310 -0.1208  1.2247
  933MOL0     C25861  10.651   0.495   1.541  0.9546 -0.0197  0.2407
  933MOL0     C25862  10.579   0.366   1.532 -0.9676 -0.2204 -0.2948
  933MOL0     C25863  10.667   0.251   1.568 -0.6707  0.7351  0.0519
  933MOL0    Cl25864  10.754   0.267   1.731  0.4074 -0.2751 -0.1954
  933MOL0     C25865  10.696   0.816   0.754  0.2459  0.4299 -0.1042
  933MOL0     C25866  10.706   0.879   0.637  0.1515  0.5591  0.3293
  933MOL0     O25867  10.858   1.200   0.556 -0.3499 -0.5253 -0.5164
  933MOL0     C25868  10.690   1.193   0.239  0.0393 -0.3722 -0.1295
  933MOL0     C25869  10.691   1.248   0.114  0.0819  1.3581  0.2284
  933MOL0     N25870  11.100   1.954  -0.165 -0.3056 -0.1606 -0.1106
  933MOL0     N25871  11.121   2.082  -0.170 -0.8568 -0.2734  0.1115
  933MOL0     C25872  10.655   2.695   0.802  0.8273 -0.4548  0.4581
  933MOL0     C25873  10.539   2.714   0.877 -0.0410  0.0234 -0.1250
  933MOL0     C25874  10.167   2.727   1.078 -0.2570  0.2228  0.0261
  933MOL0     C25875  10.063   2.775   0.993 -0.3166  0.2534  0.8385
  933MOL0     C25876   9.954   2.859   1.028 -0.0119 -0.7562 -0.0173
  933MOL0     C25877   9.929   2.876   1.158 -0.1762 -0.6163 -0.5908
  933MOL0     O25878   9.818   2.942   1.203  0.0968 -0.0584  0.3568
  933MOL0     C25879   9.759   2.904   1.326 -0.6826 -0.4575  0.2764
  933MOL0     C25880   9.605   2.933   1.327 -0.1800 -0.0749  0.1639
  933MOL0     C25881   9.553   2.895   1.463  0.1547  0.6500  1.5131
  933MOL0     C25882   9.517   2.738   1.474 -0.7998 -0.9702 -0.4375
  933MOL0     C25883   9.368   2.732   1.466 -0.7569 -1.1183  0.2079
  933MOL0     C25884   9.250   2.732   1.463 -0.5586  0.4613  0.4954
  933MOL0     C25885  10.028   2.831   1.250  1.0433  0.8194  0.3055
  933MOL0     C25886  10.145   2.768   1.213  0.0538 -0.7552  0.8466
  933MOL0     C25887  10.246   2.743   1.315  0.0787  0.1173 -0.9446
  933MOL0     H25888  10.323   2.569   0.656  1.2770  1.3950 -0.3416
  933MOL0     H25889  10.528   2.545   0.524 -1.8806 -0.9944 -0.0684
  933MOL0     H25890  10.877   2.776   0.677  4.2022  1.0884 -2.8103
  933MOL0     H25891  10.928   2.607   0.722  1.7719  1.6718  0.8102
  933MOL0     H25892  11.085   2.710   0.565 -0.6733  1.7589  1.4742
  933MOL0     H25893  10.945   2.769   0.466  3.1498 -0.8927 -2.4196
  933MOL0     H25894  10.892   2.506   0.448  0.7633 -3.1470 -0.6115
  933MOL0     H25895  11.050   2.486   0.500  0.1012  1.4192  0.1441
  933MOL0     H25896  10.966   2.655   0.258 -1.5685 -0.9744  1.6129
  933MOL0     H25897  11.134   2.618   0.296  0.7730 -0.9564 -1.4239
  933MOL0     H25898  11.150   2.427   0.230  0.6764  1.4548  0.9483
  933MOL0     H25899  10.992   2.369   0.282  1.5012  1.1713  3.5358
  933MOL0     H25900  10.909   2.546   0.068  0.0953 -0.3652 -2.3748
  933MOL0     H25901  11.068   2.527   0.019  0.0956  1.2991  0.1111
  933MOL0     H25902  10.893   2.347  -0.069 -0.9982 -1.1398  1.0621
  933MOL0     H25903  10.914   2.279   0.087  0.0496 -0.4712  0.0314
  933MOL0     H25904  11.137   2.327  -0.121  1.6278 -0.3937 -0.2883
  933MOL0     H25905  11.176   2.286   0.040  0.9531 -2.4169 -0.5912
  933MOL0     H25906  10.973   2.069   0.119 -0.0566 -1.3514  1.2344
  933MOL0     H25907  11.038   1.713  -0.042  0.6527  1.6551 -2.7103
  933MOL0     H25908  11.018   1.802   0.112  2.3107  1.0867 -1.6809
  933MOL0     H25909  10.782   1.837   0.077 -1.1822  0.1079  0.8911
  933MOL0     H25910  10.775   1.807  -0.093  0.4069 -2.8206 -0.6313
  933MOL0     H25911  10.656   1.638   0.013 -0.9508  2.2945  3.8209
  933MOL0     H25912  10.781   1.598   0.127 -1.7784  0.0597  0.4086
  933MOL0     H25913  10.928   1.519  -0.081 -0.0605  2.3832  1.1056
  933MOL0     H25914  10.785   1.569  -0.174  3.2849 -1.6694 -1.2128
  933MOL0     H25915  10.946   1.458   0.147  1.8371 -0.7909  2.9109
  933MOL0     H25916  10.946   1.342   0.378 -0.0888 -0.2201 -1.1830
  933MOL0     H25917  10.612   1.196   0.705 -0.5141 -1.2545 -1.9050
  933MOL0     H25918  10.589   1.087   0.935 -0.8459 -3.1057  1.3173
  933MOL0     H25919  10.684   0.973   1.117  0.7446  0.0398  3.2192
  933MOL0     H25920  10.505   0.920   1.101 -0.9945 -3.2016 -0.7116
  933MOL0     H25921  10.602   0.695   1.175  0.5907  0.0995 -0.6466
  933MOL0     H25922  10.752   0.772   1.207  0.0107  0.8939  0.5031
  933MOL0     H25923  10.615   0.935   1.370  1.0901  0.2548 -0.9790
  933MOL0     H25924  10.474   0.823   1.356 -0.3532  1.1255 -2.3754
  933MOL0     H25925  10.618   0.782   1.565 -0.4891 -0.0800  0.8491
  933MOL0     H25926  10.749   0.732   1.439 -0.5146 -2.2643 -0.6448
  933MOL0     H25927  10.547   0.582   1.359 -2.0955  2.4150  1.3973
  933MOL0     H25928  10.475   0.603   1.511 -1.1935 -0.9053 -2.5601
  933MOL0     H25929  10.753   0.483   1.505  0.3408 -1.4931 -1.0939
  933MOL0     H25930  10.640   0.521   1.647  2.3367 -0.8968  0.6155
  933MOL0     H25931  10.545   0.348   1.430 -0.7670 -3.8823  0.1667
  933MOL0     H25932  10.488   0.362   1.592 -0.2193 -0.1792  0.8724
  933MOL0     H25933  10.608   0.160   1.572  2.2033 -1.6089 -3.4299
  933MOL0     H25934  10.738   0.255   1.484  0.7921 -1.6352  1.0760
  933MOL0     H25935  10.708   0.709   0.743  0.9300  0.4719  0.1788
  933MOL0     H25936  10.744   0.833   0.546 -0.4751  0.8755 -0.0955
  933MOL0     H25937  10.610   1.126   0.271 -0.8491  1.4050  1.5931
  933MOL0     H25938  10.601   1.229   0.056 -0.6461 -0.3777  1.8085
  933MOL0     H25939  10.754   2.712   0.845  1.4964 -2.7866 -0.0050
  933MOL0     H25940  10.541   2.745   0.981 -2.7598 -4.1901  1.4319
  933MOL0     H25941  10.062   2.748   0.888 -0.3932  3.2375 -0.0130
  933MOL0     H25942   9.882   2.892   0.954  2.0414 -1.2395 -2.3691
  933MOL0     H25943   9.811   2.954   1.408  0.6407 -1.5208  0.1148
  933MOL0     H25944   9.771   2.797   1.345 -1.5136 -0.7812 -0.9220
  933MOL0     H25945   9.552   2.872   1.253 -1.4275 -1.9918  2.4699
  933MOL0     H25946   9.583   3.035   1.295  1.7774  0.1444 -0.5822
  933MOL0     H25947   9.461   2.955   1.468 -0.1149  0.4807 -0.5477
  933MOL0     H25948   9.620   2.934   1.540  3.2800  0.1229 -0.7282
  933MOL0     H25949   9.571   2.681   1.398 -0.5358 -0.1408 -0.8833
  933MOL0     H25950   9.546   2.713   1.576 -0.2932 -0.7581 -0.5284
  933MOL0     H25951   9.148   2.704   1.482  0.2053 -4.7119 -1.5049
  933MOL0     H25952  10.003   2.841   1.355 -0.0528 -0.7027  0.2229
  933MOL0     H25953  10.256   2.636   1.335 -2.1686  0.1772  0.9455
  933MOL0     H25954  10.344   2.791   1.301 -0.1108  0.9229  0.3143
  933MOL0     H25955  10.211   2.793   1.406 -3.5191  2.0024 -3.1198
  934MOL0     O25956  10.771   7.074   8.364  0.0823  0.7892  0.1459
  934MOL0     C25957  10.784   6.969   8.420  0.9972 -0.3747 -0.8042
  934MOL0     O25958  10.908   6.933   8.480  0.6495 -0.0763 -0.0223
  934MOL0     C25959  11.010   7.020   8.444  0.4353 -0.6382  0.7619
  934MOL0     C25960  11.117   7.003   8.353  0.5822 -0.1945  0.0956
  934MOL0     C25961  11.193   7.112   8.315 -0.1987  0.1666  1.0080
  934MOL0     C25962  11.177   7.238   8.363 -0.2638  0.3630  0.2559
  934MOL0     O25963  11.262   7.335   8.314 -0.1505 -1.2054 -0.2911
  934MOL0     C25964  11.227   7.372   8.184  0.3122 -0.2929  0.2174
  934MOL0     C25965  11.277   7.513   8.154 -0.0323  0.4464  0.4409
  934MOL0     C25966  11.434   7.520   8.140 -0.3288 -0.5849 -1.6721
  934MOL0     C25967  11.478   7.493   7.994  1.2646  0.0996  0.0116
  934MOL0     C25968  11.632   7.465   7.980 -0.1973 -0.6161 -0.4155
  934MOL0     C25969  11.660   7.401   7.846 -0.0440 -0.2159  0.0587
  934MOL0     C25970  11.819   7.383   7.834 -0.4856 -0.4195 -0.1515
  934MOL0     C25971  11.862   7.254   7.755 -0.2278  1.0483  0.4558
  934MOL0     N25972  11.815   7.278   7.617 -0.1165 -0.7930 -0.6160
  934MOL0     C25973  11.906   7.305   7.523 -1.0367  0.0793 -0.0206
  934MOL0     C25974  11.828   7.308   7.411  0.0586 -0.3729  0.3745
  934MOL0     C25975  11.877   7.330   7.273 -0.3336  0.1145  0.3461
  934MOL0     C25976  11.929   7.203   7.203 -0.4590  0.7571  0.4305
  934MOL0     C25977  12.045   7.131   7.277  0.0234  0.1869  0.9726
  934MOL0     C25978  12.175   7.198   7.258  0.0709  0.9636 -0.3798
  934MOL0     O25979  12.274   7.132   7.334 -0.7298  0.1709  1.0037
  934MOL0     C25980  12.310   7.206   7.440  0.7281  0.0560 -0.0965
  934MOL0     C25981  12.390   7.315   7.439  0.0476  0.2275  0.8806
  934MOL0     C25982  12.402   7.390   7.557 -0.5959 -0.6122  0.5201
  934MOL0     C25983  12.347   7.352   7.686 -0.1221 -0.6750  0.7040
  934MOL0     C25984  12.374   7.444   7.805 -0.4910  0.3370  0.1319
  934MOL0     O25985  12.329   7.407   7.928 -0.2945  0.4934 -0.7487
  934MOL0     C25986  12.390   7.474   8.033  0.1023 -0.0285  0.2935
  934MOL0     C25987  12.493   7.405   8.097 -1.0126 -0.6026 -0.7881
  934MOL0     C25988  12.561   7.478   8.198  0.8150 -0.4994  0.1083
  934MOL0     C25989  12.515   7.599   8.249 -0.4906 -0.2860 -0.6963
  934MOL0     O25990  12.563   7.660   8.369  0.3361  0.6065  0.2598
  934MOL0     C25991  12.709   7.658   8.393  0.1677 -0.3658 -0.6718
  934MOL0     C25992  12.789   7.736   8.297  0.2153  0.2449  0.4905
  934MOL0     C25993  12.944   7.725   8.321 -0.0110 -0.4950  0.5904
  934MOL0     C25994  12.992   7.765   8.460 -0.5858 -0.7281  0.2090
  934MOL0     C25995  13.135   7.794   8.456 -0.5060  0.0893 -0.6795
  934MOL0     C25996  13.223   7.677   8.437 -0.3729  0.5589 -0.3354
  934MOL0     C25997  13.363   7.705   8.382  0.6807 -0.6808  0.4521
  934MOL0     C25998  13.435   7.571   8.351  0.2731  0.5154  0.1423
  934MOL0    Cl25999  13.602   7.622   8.320  0.3751 -0.0422 -0.3854
  934MOL0     C26000  12.400   7.651   8.193 -0.5809 -0.1894  0.9168
  934MOL0     C26001  12.346   7.590   8.084  0.4486  0.3687 -0.7497
  934MOL0     O26002  12.441   7.544   7.781 -0.0502  0.4204  0.0377
  934MOL0     C26003  12.262   7.237   7.681 -1.1563  0.0942  0.2505
  934MOL0     C26004  12.241   7.178   7.550  0.1582  0.6164 -0.8998
  934MOL0     N26005  11.701   7.263   7.439 -0.1077 -1.1104 -0.3378
  934MOL0     N26006  11.695   7.244   7.569  0.1870  0.3863 -0.2657
  934MOL0     C26007  11.097   7.249   8.480 -0.1971  1.0253  0.0985
  934MOL0     C26008  11.019   7.133   8.516 -0.2535 -0.8086  0.2021
  934MOL0     C26009  10.669   6.879   8.442  0.4550  0.0537 -0.4006
  934MOL0     C26010  10.690   6.764   8.526 -0.1241  0.7059 -0.0650
  934MOL0     C26011  10.593   6.673   8.557  0.3571  0.5488  0.9864
  934MOL0     C26012  10.478   6.678   8.478  0.1297  0.2160  0.0033
  934MOL0     O26013  10.380   6.594   8.519  0.4934 -0.0109  1.1163
  934MOL0     C26014  10.269   6.562   8.434  0.2061 -0.1907  0.7085
  934MOL0     C26015  10.293   6.508   8.302  0.2486 -0.0246  0.6695
  934MOL0     C26016  10.375   6.377   8.292  0.1890  0.2536  0.3676
  934MOL0     C26017  10.405   6.345   8.149  0.2222 -0.5334 -0.7619
  934MOL0     C26018  10.286   6.273   8.088 -0.6335 -0.6153 -0.5377
  934MOL0     C26019  10.182   6.231   8.036 -0.1273  0.5057 -0.0350
  934MOL0     C26020  10.456   6.783   8.389  0.2508 -0.2936  0.1366
  934MOL0     C26021  10.535   6.893   8.388 -0.5720  0.8530  1.3073
  934MOL0     C26022  10.486   7.025   8.325  0.5538  0.6952 -0.0941
  934MOL0     H26023  11.113   6.903   8.310  1.2751 -1.6164  3.0283
  934MOL0     H26024  11.272   7.107   8.241 -1.3233 -2.9409 -0.1698
  934MOL0     H26025  11.287   7.313   8.114 -0.4552  1.8217 -2.4274
  934MOL0     H26026  11.122   7.361   8.157  0.1513 -1.1190  1.1476
  934MOL0     H26027  11.259   7.566   8.248 -1.1885 -0.9552  1.0417
  934MOL0     H26028  11.218   7.568   8.081  2.8688  2.2494 -0.7168
  934MOL0     H26029  11.495   7.456   8.204  3.6087  2.1211 -2.4217
  934MOL0     H26030  11.455   7.626   8.151 -1.5892  0.3151 -6.0311
  934MOL0     H26031  11.419   7.406   7.965  1.2273  0.1434 -0.0448
  934MOL0     H26032  11.460   7.575   7.924  1.8366 -1.4694 -2.0732
  934MOL0     H26033  11.700   7.543   8.014 -1.8319  0.9847 -0.6236
  934MOL0     H26034  11.644   7.383   8.051  1.2565 -1.9241 -2.1158
  934MOL0     H26035  11.608   7.306   7.831  0.8191 -0.4571 -1.7513
  934MOL0     H26036  11.614   7.462   7.768 -0.3291  0.5389  0.8059
  934MOL0     H26037  11.856   7.385   7.937  0.2785  0.3323 -0.4273
  934MOL0     H26038  11.857   7.474   7.786  3.0339 -1.6842 -0.0072
  934MOL0     H26039  11.971   7.256   7.762 -0.1109  2.4539 -1.1657
  934MOL0     H26040  11.821   7.159   7.791 -1.5379  1.7656  0.9468
  934MOL0     H26041  12.010   7.330   7.544 -2.3035  3.6590  3.1139
  934MOL0     H26042  11.807   7.384   7.210  1.3844  1.2784 -0.6654
  934MOL0     H26043  11.961   7.400   7.277 -2.9992  3.5921  3.5088
  934MOL0     H26044  11.850   7.127   7.202 -1.9325  1.8149  5.8198
  934MOL0     H26045  11.963   7.212   7.100 -2.0811 -0.2009 -0.2259
  934MOL0     H26046  12.056   7.029   7.240 -0.7548  1.1516 -2.2009
  934MOL0     H26047  12.023   7.123   7.384  2.2282  2.0192  1.6439
  934MOL0     H26048  12.178   7.305   7.279  1.6946  0.4334  2.7096
  934MOL0     H26049  12.215   7.195   7.156  1.1151 -0.8188  0.0368
  934MOL0     H26050  12.451   7.331   7.351  1.4778  0.4640  1.8772
  934MOL0     H26051  12.472   7.472   7.540 -0.5558 -1.0916 -2.1237
  934MOL0     H26052  12.544   7.311   8.077  1.6510  0.5277  0.2005
  934MOL0     H26053  12.642   7.434   8.253  1.3498  1.0812  0.6542
  934MOL0     H26054  12.735   7.693   8.494  2.1831 -1.0958 -0.8925
  934MOL0     H26055  12.742   7.553   8.390 -0.2069 -0.5155  0.0945
  934MOL0     H26056  12.765   7.687   8.202 -0.1611 -1.9412  1.6523
  934MOL0     H26057  12.754   7.839   8.290  3.8681  1.7336  1.7859
  934MOL0     H26058  12.965   7.618   8.316 -0.3658 -0.5103 -1.3266
  934MOL0     H26059  12.988   7.783   8.239 -0.1455  0.4761  1.1957
  934MOL0     H26060  12.957   7.696   8.538 -1.5100  0.6109  1.0260
  934MOL0     H26061  12.937   7.859   8.465 -2.3026 -1.5104 -2.1014
  934MOL0     H26062  13.165   7.840   8.550  1.6773 -3.7382  0.6966
  934MOL0     H26063  13.141   7.866   8.373 -1.0082 -0.4307 -1.1791
  934MOL0     H26064  13.234   7.644   8.541  2.2115  2.2093  0.0300
  934MOL0     H26065  13.184   7.600   8.371  1.2562 -3.4948  2.9706
  934MOL0     H26066  13.422   7.773   8.444  0.0629  0.4487 -0.1715
  934MOL0     H26067  13.344   7.764   8.292  2.7060  2.4939  1.9217
  934MOL0     H26068  13.440   7.508   8.440  1.3460 -1.8076 -1.4742
  934MOL0     H26069  13.407   7.512   8.263  1.2850 -1.7071  1.2385
  934MOL0     H26070  12.364   7.747   8.228  0.0639  1.2554 -2.0893
  934MOL0     H26071  12.255   7.620   8.032 -0.1318  1.2644  0.7440
  934MOL0     H26072  12.217   7.190   7.768 -3.1619  0.7668 -0.3640
  934MOL0     H26073  12.171   7.096   7.552 -0.7306  1.3696  0.7212
  934MOL0     H26074  11.099   7.342   8.535  0.9001  1.5022 -0.7072
  934MOL0     H26075  10.951   7.157   8.597 -0.9130  1.5508 -0.9546
  934MOL0     H26076  10.787   6.743   8.571  1.5242  1.3094 -3.0179
  934MOL0     H26077  10.618   6.600   8.634  0.6675  0.9645  1.2874
  934MOL0     H26078  10.205   6.649   8.418  1.6831  0.2807 -4.8712
  934MOL0     H26079  10.206   6.493   8.491 -5.4957  3.4779 -0.3256
  934MOL0     H26080  10.335   6.592   8.246 -7.0081  2.7776 -1.7592
  934MOL0     H26081  10.192   6.481   8.270 -0.0466 -0.4760  1.9415
  934MOL0     H26082  10.326   6.293   8.343 -1.2770  1.2743  0.6975
  934MOL0     H26083  10.467   6.392   8.349 -0.4278 -0.0989  1.4892
  934MOL0     H26084  10.443   6.431   8.094  0.6946 -1.1659 -1.4560
  934MOL0     H26085  10.490   6.276   8.143 -1.1228 -2.1363 -3.7652
  934MOL0     H26086  10.100   6.177   7.993 -1.7691  1.0152  2.2401
  934MOL0     H26087  10.357   6.805   8.349  1.0095 -0.4921 -1.9576
  934MOL0     H26088  10.537   7.069   8.239  3.0155 -2.5771 -0.4952
  934MOL0     H26089  10.379   7.018   8.303  0.3746  1.0367  0.6524
  934MOL0     H26090  10.490   7.088   8.414 -1.0872 -0.9566  1.2260
  935MOL0     O26091  10.371  11.468   1.601 -0.3253 -0.2845  0.3223
  935MOL0     C26092  10.268  11.427   1.559 -0.0888  0.0549  0.5813
  935MOL0     O26093  10.253  11.304   1.505  0.5926  0.4642 -0.4587
  935MOL0     C26094  10.370  11.237   1.489 -0.5931  0.6212  0.1169
  935MOL0     C26095  10.466  11.273   1.391 -0.5249 -0.8912 -0.3458
  935MOL0     C26096  10.586  11.205   1.375  0.6559 -0.1183  0.0285
  935MOL0     C26097  10.604  11.085   1.443 -0.6639  0.3534 -0.5254
  935MOL0     O26098  10.712  11.004   1.413 -1.2769 -0.4857  0.7583
  935MOL0     C26099  10.829  11.063   1.355  0.2410  0.4373  0.4279
  935MOL0     C26100  10.945  10.975   1.405  0.1159  0.0194 -0.5095
  935MOL0     C26101  10.940  10.820   1.350  0.1298  0.0269  1.0422
  935MOL0     C26102  11.064  10.739   1.383 -0.1653 -0.3239 -0.2462
  935MOL0     C26103  11.029  10.595   1.404 -0.6999 -0.0020 -0.7793
  935MOL0     C26104  10.950  10.542   1.280 -0.4784 -0.2080 -0.2476
  935MOL0     C26105  10.966  10.389   1.265  0.4504  0.0079  0.2429
  935MOL0     C26106  10.872  10.344   1.159 -0.0448 -0.8945  1.2709
  935MOL0     N26107  10.900  10.210   1.095  0.4014 -0.1609  0.1070
  935MOL0     C26108  10.892  10.089   1.158 -0.7311 -0.3906  0.6482
  935MOL0     C26109  10.934   9.994   1.072 -0.1544 -0.4658 -0.3946
  935MOL0     C26110  10.932   9.847   1.114 -0.7193  0.4894 -0.6077
  935MOL0     C26111  10.799   9.773   1.114 -0.6089 -0.1660  0.0616
  935MOL0     C26112  10.728   9.770   0.985  0.2389 -0.2363 -0.1209
  935MOL0     C26113  10.640   9.898   0.960  0.5373 -0.2199 -0.0301
  935MOL0     O26114  10.558   9.889   0.842  0.1422  0.2068 -0.1810
  935MOL0     C26115  10.623   9.871   0.721  0.4968 -1.2357  0.5506
  935MOL0     C26116  10.756   9.912   0.686 -0.0382  0.9919  0.4709
  935MOL0     C26117  10.812   9.859   0.565  0.2248 -0.1425  0.3511
  935MOL0     C26118  10.733   9.788   0.471  0.0432 -0.0941  0.0251
  935MOL0     C26119  10.788   9.738   0.341 -0.1586 -0.4459  0.0409
  935MOL0     O26120  10.929   9.725   0.333 -0.2819 -0.1122 -0.0034
  935MOL0     C26121  10.993   9.702   0.216 -0.1934  0.2765  0.1190
  935MOL0     C26122  10.942   9.718   0.089 -0.8529  0.3176  0.2824
  935MOL0     C26123  11.025   9.691  -0.023  0.6162 -0.3376 -0.2812
  935MOL0     C26124  11.159   9.661  -0.003 -0.4920  0.5115 -0.3363
  935MOL0     O26125  11.229   9.645  -0.120 -0.1130  0.3773  0.2817
  935MOL0     C26126  11.327   9.546  -0.122  0.2629  0.7832  0.3583
  935MOL0     C26127  11.377   9.539  -0.271 -0.1355 -0.0814 -0.4045
  935MOL0     C26128  11.259   9.481  -0.357  0.1159  0.1648  1.0880
  935MOL0     C26129  11.298   9.525  -0.501 -0.7936  0.7039  0.9906
  935MOL0     C26130  11.399   9.425  -0.559 -0.2436  0.0553 -0.3966
  935MOL0     C26131  11.492   9.499  -0.661  0.1125 -0.4695 -0.4900
  935MOL0     C26132  11.620   9.416  -0.699  0.2957  0.7487  0.4785
  935MOL0     C26133  11.688   9.472  -0.824  0.9101 -0.2213 -1.3493
  935MOL0    Cl26134  11.872   9.423  -0.829 -0.0919 -0.0913 -0.0145
  935MOL0     C26135  11.213   9.654   0.124  0.6310  0.8639  0.6190
  935MOL0     C26136  11.123   9.664   0.237 -1.7488  1.5883  0.7662
  935MOL0     O26137  10.706   9.735   0.248 -0.3487  0.4102  0.0196
  935MOL0     C26138  10.598   9.760   0.497  0.3609 -0.7674 -0.3364
  935MOL0     C26139  10.547   9.809   0.619 -0.6496 -0.0108  2.1501
  935MOL0     N26140  10.974  10.062   0.957 -0.2594  0.0161  0.3699
  935MOL0     N26141  10.956  10.192   0.970 -0.0497  0.6631 -0.4653
  935MOL0     C26142  10.507  11.034   1.526 -0.6286  0.0293 -0.9234
  935MOL0     C26143  10.392  11.105   1.547  0.7552  0.3222  0.8364
  935MOL0     C26144  10.144  11.512   1.557 -0.1825  0.0963  0.6472
  935MOL0     C26145  10.015  11.449   1.568  0.6305  0.4227 -0.6321
  935MOL0     C26146   9.905  11.527   1.569 -0.4715  0.4155  1.2082
  935MOL0     C26147   9.902  11.674   1.553 -0.4224 -0.0675 -0.7701
  935MOL0     O26148   9.803  11.770   1.559 -0.3512  1.1001 -0.8279
  935MOL0     C26149   9.670  11.737   1.568  0.4524 -0.2843  0.2203
  935MOL0     C26150   9.617  11.683   1.432  0.5860  0.6113 -0.1196
  935MOL0     C26151   9.472  11.603   1.444  0.9211 -0.0351 -1.0253
  935MOL0     C26152   9.373  11.664   1.547  0.0197 -0.6885 -0.8782
  935MOL0     C26153   9.357  11.802   1.525 -0.2226  0.3596 -0.2911
  935MOL0     C26154   9.357  11.917   1.503  0.5790 -0.0573  0.2623
  935MOL0     C26155  10.026  11.727   1.540 -0.2727 -0.6939 -0.2923
  935MOL0     C26156  10.149  11.657   1.550  0.0161  0.6706 -0.3552
  935MOL0     C26157  10.272  11.739   1.531 -0.4598  0.2391 -0.5112
  935MOL0     H26158  10.440  11.360   1.332  2.1608 -0.1978 -0.6415
  935MOL0     H26159  10.654  11.249   1.303 -0.0514 -0.8622 -1.1307
  935MOL0     H26160  10.837  11.044   1.247  0.4614  0.7755  0.3861
  935MOL0     H26161  10.861  11.165   1.376 -0.2167  1.2071 -2.2813
  935MOL0     H26162  10.942  10.975   1.514  0.0531  0.3503 -0.5113
  935MOL0     H26163  11.043  11.013   1.376  0.7508 -0.1018  1.3527
  935MOL0     H26164  10.922  10.834   1.243 -0.5456  0.8705  1.2544
  935MOL0     H26165  10.852  10.769   1.391  0.2566  0.9123  2.4836
  935MOL0     H26166  11.138  10.761   1.306 -0.1656  0.8183  0.0535
  935MOL0     H26167  11.104  10.783   1.476 -0.4571  2.8914 -1.5129
  935MOL0     H26168  11.112  10.525   1.416  2.5010  3.5910 -0.0866
  935MOL0     H26169  10.955  10.587   1.483 -1.3940  5.1991 -0.5734
  935MOL0     H26170  10.846  10.574   1.291 -0.0191  0.9245  1.1043
  935MOL0     H26171  10.999  10.587   1.193 -2.1609  0.7564 -0.7503
  935MOL0     H26172  10.935  10.337   1.357 -0.6688  1.4204  0.7035
  935MOL0     H26173  11.067  10.353   1.243  0.5073  0.0094  0.4953
  935MOL0     H26174  10.772  10.321   1.198 -0.5082 -4.2121 -1.3284
  935MOL0     H26175  10.865  10.416   1.077  0.0027 -0.2199  1.8574
  935MOL0     H26176  10.860  10.086   1.262  0.3776 -0.4877  0.9934
  935MOL0     H26177  11.001   9.789   1.052 -1.6659  0.1618 -1.3784
  935MOL0     H26178  10.985   9.841   1.210 -1.2090 -4.0293 -0.3948
  935MOL0     H26179  10.811   9.672   1.153 -0.0429 -0.0406  0.2195
  935MOL0     H26180  10.734   9.815   1.191 -0.5241  0.9844 -0.4594
  935MOL0     H26181  10.673   9.676   0.977 -2.9198  0.5246  6.2621
  935MOL0     H26182  10.802   9.769   0.904 -0.8266  0.4747 -1.1297
  935MOL0     H26183  10.702   9.988   0.963  2.5129 -1.5497  1.1637
  935MOL0     H26184  10.561   9.922   1.032 -0.0925  0.8601 -1.0296
  935MOL0     H26185  10.824   9.967   0.750  2.6024  0.3825 -1.5750
  935MOL0     H26186  10.914   9.889   0.543  0.3124  0.2748  1.2892
  935MOL0     H26187  10.842   9.757   0.068 -0.8696 -0.3958 -1.0586
  935MOL0     H26188  10.992   9.719  -0.123  2.5858  0.6240 -0.6971
  935MOL0     H26189  11.414   9.571  -0.061  0.7579 -0.1658  0.0498
  935MOL0     H26190  11.280   9.449  -0.105  2.0992 -0.5884 -1.8504
  935MOL0     H26191  11.413   9.639  -0.299 -0.6650 -0.1860 -1.4877
  935MOL0     H26192  11.465   9.477  -0.287  0.1425  1.1134 -4.6166
  935MOL0     H26193  11.264   9.373  -0.344  2.4421  0.4856  3.7840
  935MOL0     H26194  11.156   9.513  -0.341  0.1129  3.0269 -3.0699
  935MOL0     H26195  11.347   9.623  -0.502 -0.6209  0.6189  1.1047
  935MOL0     H26196  11.210   9.535  -0.565 -1.3040  1.4622  1.7864
  935MOL0     H26197  11.349   9.343  -0.612 -1.7927  0.2197  0.7435
  935MOL0     H26198  11.456   9.379  -0.478 -0.0097  1.4680  0.2662
  935MOL0     H26199  11.439   9.524  -0.754 -1.3735  1.9371  0.9078
  935MOL0     H26200  11.523   9.599  -0.629  1.3705 -0.4762 -1.6006
  935MOL0     H26201  11.593   9.312  -0.722  1.1402 -0.5351  4.5038
  935MOL0     H26202  11.695   9.428  -0.621  1.9222  0.9456 -1.0579
  935MOL0     H26203  11.632   9.436  -0.910  1.3941  1.1924 -2.2756
  935MOL0     H26204  11.677   9.578  -0.801 -1.4542 -0.8372  0.9155
  935MOL0     H26205  11.317   9.625   0.134  0.6173 -0.4289 -2.0181
  935MOL0     H26206  11.162   9.664   0.338  0.8676  2.5750 -0.1662
  935MOL0     H26207  10.524   9.712   0.433 -1.4807  0.5806  0.6796
  935MOL0     H26208  10.444   9.777   0.637 -0.5157 -0.3036  2.3989
  935MOL0     H26209  10.543  10.952   1.587 -0.8716  1.1987  0.8734
  935MOL0     H26210  10.309  11.088   1.615 -2.2080 -3.7604 -3.2254
  935MOL0     H26211  10.009  11.343   1.588 -0.0603  0.2840 -1.5502
  935MOL0     H26212   9.812  11.472   1.579 -0.2710 -1.1004 -3.0782
  935MOL0     H26213   9.624  11.835   1.586 -0.3550 -0.7453  0.7175
  935MOL0     H26214   9.648  11.670   1.651  2.1707 -0.5471  0.4950
  935MOL0     H26215   9.682  11.614   1.379 -1.3850 -1.6184  0.1876
  935MOL0     H26216   9.594  11.771   1.371 -3.3363  0.7554  1.2516
  935MOL0     H26217   9.482  11.499   1.475 -3.8727  0.1114  2.1580
  935MOL0     H26218   9.425  11.599   1.346  1.1981 -2.1412 -1.1252
  935MOL0     H26219   9.269  11.628   1.540  0.0654 -1.2400  0.9070
  935MOL0     H26220   9.389  11.635   1.651 -1.3657 -2.6537 -1.1466
  935MOL0     H26221   9.358  12.020   1.471 -1.1596 -0.0551  0.1162
  935MOL0     H26222  10.031  11.832   1.514 -3.2920 -0.0704  1.2361
  935MOL0     H26223  10.260  11.844   1.558  1.4261  1.1898 -3.0487
  935MOL0     H26224  10.363  11.704   1.582  1.1538  1.2077 -2.5899
  935MOL0     H26225  10.298  11.738   1.425 -1.3481  0.6319 -0.7387
  936MOL0     O26226   0.826   1.623   8.662 -0.0638  0.7134 -0.8293
  936MOL0     C26227   0.949   1.613   8.644  0.8554 -0.0403 -0.2444
  936MOL0     O26228   1.028   1.659   8.539 -0.1148  0.1536  0.3239
  936MOL0     C26229   0.967   1.746   8.441 -0.2547  0.2300 -0.6346
  936MOL0     C26230   0.945   1.694   8.316  0.0946  0.9497  0.7431
  936MOL0     C26231   0.902   1.777   8.217 -0.2757  0.0285  0.3992
  936MOL0     C26232   0.865   1.911   8.248 -0.5615  0.1057 -0.2660
  936MOL0     O26233   0.821   2.000   8.156  0.9450  0.0513  0.5110
  936MOL0     C26234   0.939   2.047   8.081 -1.2416 -0.8001  0.1918
  936MOL0     C26235   0.892   2.151   7.973 -1.6146  0.5448  0.3071
  936MOL0     C26236   0.825   2.094   7.852 -0.1495  1.3705  0.1484
  936MOL0     C26237   0.738   2.199   7.779 -0.2272  0.4887 -0.6162
  936MOL0     C26238   0.593   2.207   7.835  0.2855  0.5680  0.4259
  936MOL0     C26239   0.502   2.301   7.732 -0.2959  0.9736  0.1937
  936MOL0     C26240   0.549   2.450   7.739  0.1515 -0.3563  1.2982
  936MOL0     C26241   0.452   2.534   7.646  0.0166 -0.5489 -0.1958
  936MOL0     N26242   0.472   2.683   7.647 -0.7177  0.9351 -0.1331
  936MOL0     C26243   0.545   2.748   7.556 -0.0322  0.4703  0.4597
  936MOL0     C26244   0.590   2.865   7.617 -0.7537 -0.0436 -1.2946
  936MOL0     C26245   0.703   2.964   7.584  0.0113  0.9916 -0.4345
  936MOL0     C26246   0.643   3.092   7.519 -0.2404 -0.2550  1.0287
  936MOL0     C26247   0.605   3.073   7.375 -0.1299 -0.0624  0.1020
  936MOL0     C26248   0.584   3.220   7.326 -0.3938  0.3603 -0.5060
  936MOL0     O26249   0.495   3.213   7.213  0.1722 -0.2668 -0.4315
  936MOL0     C26250   0.496   3.317   7.120 -0.6870  0.6684  0.5459
  936MOL0     C26251   0.433   3.280   7.001 -0.9000 -0.2381 -0.5805
  936MOL0     C26252   0.436   3.364   6.889  0.3071  0.2672  0.3161
  936MOL0     C26253   0.518   3.481   6.893 -0.2441  1.4521 -0.5736
  936MOL0     C26254   0.535   3.558   6.771 -0.2336  0.7340 -0.1324
  936MOL0     O26255   0.621   3.669   6.796 -0.0912  0.1731  0.3208
  936MOL0     C26256   0.642   3.763   6.696  0.6767 -0.2636  1.0676
  936MOL0     C26257   0.765   3.788   6.657 -0.0751 -0.8179  0.3634
  936MOL0     C26258   0.786   3.878   6.549  0.7455  0.2605  0.2221
  936MOL0     C26259   0.689   3.953   6.484 -0.3106 -0.0841 -0.5888
  936MOL0     O26260   0.723   4.042   6.382  0.5964 -0.2175 -0.3965
  936MOL0     C26261   0.639   4.073   6.274 -0.3831  0.2763  0.2603
  936MOL0     C26262   0.563   4.211   6.300 -0.1365  0.0364  0.8076
  936MOL0     C26263   0.450   4.231   6.199 -0.0425  0.1261  0.8618
  936MOL0     C26264   0.397   4.373   6.230  0.1371 -1.0451 -0.5856
  936MOL0     C26265   0.264   4.392   6.161  0.0929  0.7131  0.0664
  936MOL0     C26266   0.217   4.537   6.149 -0.4830 -0.5893 -1.0307
  936MOL0     C26267   0.079   4.555   6.084 -0.6819  0.4627  0.8503
  936MOL0     C26268   0.001   4.693   6.102 -1.1900 -0.6452  0.5596
  936MOL0    Cl26269  -0.023   4.749   6.268 -0.0449  0.1260 -0.0589
  936MOL0     C26270   0.558   3.921   6.526 -0.2460 -0.2464 -0.1796
  936MOL0     C26271   0.531   3.821   6.629  0.0406  0.6108  0.5134
  936MOL0     O26272   0.481   3.533   6.664 -0.7958 -0.0033 -0.3128
  936MOL0     C26273   0.586   3.514   7.014 -0.0003  0.8487  0.2402
  936MOL0     C26274   0.565   3.437   7.125 -0.7985  0.1100 -0.1893
  936MOL0     N26275   0.517   2.877   7.737  1.5063 -0.4664  0.0166
  936MOL0     N26276   0.450   2.764   7.757  0.4289  0.2603 -0.0671
  936MOL0     C26277   0.880   1.954   8.380 -0.4445  0.0019 -0.4245
  936MOL0     C26278   0.945   1.880   8.472  0.5613 -0.4532 -0.5634
  936MOL0     C26279   1.014   1.549   8.757 -0.7150  0.2798  0.2095
  936MOL0     C26280   1.035   1.617   8.874  0.3735 -0.4692  0.4707
  936MOL0     C26281   1.094   1.556   8.979 -0.7326 -0.8444 -0.0775
  936MOL0     C26282   1.147   1.426   8.968 -0.5941  0.1504  0.6068
  936MOL0     O26283   1.194   1.368   9.087  0.3457  0.2832  0.0267
  936MOL0     C26284   1.242   1.452   9.200 -0.3470 -0.2051  0.6131
  936MOL0     C26285   1.352   1.368   9.269 -0.4716  0.7766 -0.6827
  936MOL0     C26286   1.387   1.443   9.401  0.2755  0.1732 -0.6394
  936MOL0     C26287   1.458   1.361   9.509 -0.3838  0.3897  0.0706
  936MOL0     C26288   1.461   1.438   9.632  0.7132  0.4724 -0.7039
  936MOL0     C26289   1.443   1.489   9.741  0.4483 -0.2220 -0.1542
  936MOL0     C26290   1.127   1.355   8.851  0.6136 -0.6250 -0.1423
  936MOL0     C26291   1.068   1.415   8.737  0.3745 -1.1726 -0.1860
  936MOL0     C26292   1.051   1.339   8.608 -0.4988 -0.4017 -0.3450
  936MOL0     H26293   0.932   1.589   8.291  1.3736  0.4649  1.9743
  936MOL0     H26294   0.881   1.740   8.117 -0.6784  1.9163 -0.2497
  936MOL0     H26295   1.002   2.095   8.156 -1.4571 -2.5108  1.5106
  936MOL0     H26296   0.995   1.967   8.032  2.5393  2.0731 -0.5794
  936MOL0     H26297   0.982   2.203   7.938 -2.7577  2.0009 -0.6013
  936MOL0     H26298   0.835   2.224   8.030  2.8883  3.4167  1.7165
  936MOL0     H26299   0.769   2.002   7.872  3.6888 -0.8580  1.7282
  936MOL0     H26300   0.907   2.065   7.786 -0.1489 -0.5362  0.9318
  936MOL0     H26301   0.795   2.292   7.768 -0.3787  0.7523  0.6611
  936MOL0     H26302   0.741   2.155   7.679  0.1887 -3.0437  0.7955
  936MOL0     H26303   0.555   2.111   7.870  1.5207  0.5091  1.6776
  936MOL0     H26304   0.615   2.260   7.928  2.3608 -2.5396  1.8898
  936MOL0     H26305   0.510   2.253   7.634  2.7413  0.7289  0.4458
  936MOL0     H26306   0.397   2.292   7.759 -0.3266  4.4466  1.8215
  936MOL0     H26307   0.651   2.462   7.703 -1.0536 -1.1526 -2.9039
  936MOL0     H26308   0.540   2.491   7.840  1.9348  2.7351  0.3274
  936MOL0     H26309   0.453   2.486   7.548  0.6949 -1.4559  0.2417
  936MOL0     H26310   0.355   2.514   7.691 -0.8940 -2.5413 -2.7816
  936MOL0     H26311   0.579   2.720   7.457 -0.6037  2.8373 -0.4840
  936MOL0     H26312   0.739   2.984   7.685 -2.0187  3.8904 -0.1639
  936MOL0     H26313   0.780   2.916   7.522 -1.0420  1.6210 -2.3191
  936MOL0     H26314   0.563   3.135   7.579  0.1736 -0.9525  2.1242
  936MOL0     H26315   0.724   3.166   7.516  0.4215 -0.9997 -1.4382
  936MOL0     H26316   0.511   3.016   7.374 -0.0622 -0.1710 -0.6301
  936MOL0     H26317   0.669   3.016   7.307 -1.7173 -2.2780  0.3611
  936MOL0     H26318   0.689   3.242   7.304 -0.6429  1.2834 -0.8329
  936MOL0     H26319   0.552   3.290   7.404  3.0246  1.1339  0.3497
  936MOL0     H26320   0.383   3.184   6.995 -0.6508 -0.4652  0.6412
  936MOL0     H26321   0.379   3.343   6.799  2.4490 -0.5395 -0.9351
  936MOL0     H26322   0.845   3.748   6.719  0.3503  1.4903  1.4382
  936MOL0     H26323   0.889   3.885   6.515  0.5330 -3.7738 -1.7675
  936MOL0     H26324   0.709   4.085   6.191 -0.7183 -2.5550 -0.5297
  936MOL0     H26325   0.559   4.002   6.251 -0.1544 -0.5545  1.9084
  936MOL0     H26326   0.527   4.215   6.403  1.5145  0.9100  1.3704
  936MOL0     H26327   0.640   4.287   6.290  0.8573 -1.0725 -0.4047
  936MOL0     H26328   0.488   4.226   6.096  3.8012  0.0564  2.1639
  936MOL0     H26329   0.371   4.155   6.208 -1.2237  0.9801 -1.2681
  936MOL0     H26330   0.465   4.442   6.179 -0.5268 -1.7787 -2.5609
  936MOL0     H26331   0.405   4.392   6.337 -1.7638 -0.2058 -0.5458
  936MOL0     H26332   0.188   4.331   6.211 -0.6625  2.4389  1.1359
  936MOL0     H26333   0.273   4.357   6.058  0.4127  0.6549  0.1135
  936MOL0     H26334   0.215   4.574   6.252  0.5066  0.4437 -1.3698
  936MOL0     H26335   0.289   4.592   6.087  0.9443 -0.3951  0.7185
  936MOL0     H26336   0.023   4.477   6.136 -2.1048  0.9096  0.0704
  936MOL0     H26337   0.083   4.516   5.982 -2.0240 -1.3174  1.4315
  936MOL0     H26338   0.049   4.779   6.053 -3.5008  1.4227  1.6968
  936MOL0     H26339  -0.097   4.691   6.054 -0.0899  0.8816 -1.9915
  936MOL0     H26340   0.483   3.975   6.469 -0.7280 -1.7071 -0.9747
  936MOL0     H26341   0.428   3.797   6.655  0.1782 -1.5984 -0.7425
  936MOL0     H26342   0.664   3.589   7.020  1.0792 -0.1870 -0.5028
  936MOL0     H26343   0.614   3.466   7.217 -1.3311  2.5490 -0.6111
  936MOL0     H26344   0.867   2.059   8.405 -1.2394 -0.6962  2.5011
  936MOL0     H26345   0.979   1.918   8.568 -1.2153 -0.7515  0.2186
  936MOL0     H26346   0.985   1.712   8.886  1.9838  0.8633 -2.4354
  936MOL0     H26347   1.071   1.600   9.075 -2.7276 -4.2065  1.1772
  936MOL0     H26348   1.159   1.459   9.271 -2.3269 -0.2310 -1.5334
  936MOL0     H26349   1.285   1.548   9.174  0.4200 -0.4567  0.9394
  936MOL0     H26350   1.438   1.367   9.200  0.7681 -3.5713  0.5685
  936MOL0     H26351   1.331   1.263   9.290  0.7376  0.6668  0.0780
  936MOL0     H26352   1.292   1.479   9.441 -1.3736 -3.8820 -0.4111
  936MOL0     H26353   1.446   1.532   9.376  2.4759 -0.4840  1.8035
  936MOL0     H26354   1.397   1.271   9.519 -0.6296  0.5984  0.4307
  936MOL0     H26355   1.558   1.333   9.473 -1.1636 -2.7664  0.0471
  936MOL0     H26356   1.422   1.543   9.831  2.6526  0.0498  0.2446
  936MOL0     H26357   1.150   1.249   8.844  0.4569 -0.6027 -1.2667
  936MOL0     H26358   1.094   1.239   8.609 -0.0603 -0.2115 -0.2237
  936MOL0     H26359   0.946   1.334   8.578 -1.1026 -2.0759  1.8655
  936MOL0     H26360   1.114   1.397   8.540  0.2441 -0.5811  0.1842
  937MOL0     O26361   8.085   4.440   4.343  0.0754  0.7126  1.4716
  937MOL0     C26362   8.136   4.551   4.329 -0.3702 -0.5535 -0.3632
  937MOL0     O26363   8.272   4.581   4.322 -0.6065 -0.3755 -0.3498
  937MOL0     C26364   8.361   4.470   4.304  0.1283 -0.4830  0.0646
  937MOL0     C26365   8.449   4.449   4.413  0.5388  0.0819 -0.4918
  937MOL0     C26366   8.549   4.352   4.406 -0.3388 -0.3580  0.5314
  937MOL0     C26367   8.551   4.264   4.298 -0.7824 -0.0819 -0.8358
  937MOL0     O26368   8.647   4.169   4.306 -0.3994 -0.1980 -0.0276
  937MOL0     C26369   8.607   4.040   4.262  0.8040 -0.3052 -0.2737
  937MOL0     C26370   8.701   3.930   4.318 -0.3489  0.9678  0.7846
  937MOL0     C26371   8.710   3.911   4.472 -0.9592 -1.1909 -0.0023
  937MOL0     C26372   8.822   3.805   4.503 -0.3773  0.2473 -0.1847
  937MOL0     C26373   8.967   3.856   4.498 -1.1120  0.0213  0.4341
  937MOL0     C26374   9.067   3.768   4.569 -0.1504  0.1112  0.4512
  937MOL0     C26375   9.209   3.826   4.575  0.3754 -0.5164  0.0590
  937MOL0     C26376   9.318   3.745   4.641 -0.3001 -0.5688 -0.5187
  937MOL0     N26377   9.442   3.819   4.616  0.2307 -0.0180  0.3955
  937MOL0     C26378   9.510   3.836   4.495 -0.7302  0.6385 -0.6244
  937MOL0     C26379   9.610   3.918   4.528  0.6889  0.4275 -0.0298
  937MOL0     C26380   9.724   3.954   4.435  0.5653  0.3564  0.2035
  937MOL0     C26381   9.732   4.094   4.386 -0.4481  0.6332  0.5350
  937MOL0     C26382   9.788   4.181   4.500  0.0756 -0.3933 -1.2103
  937MOL0     C26383   9.796   4.328   4.464 -0.1203 -0.2727 -0.0434
  937MOL0     O26384   9.909   4.372   4.384 -0.2196 -0.7519 -0.3597
  937MOL0     C26385  10.036   4.398   4.439  0.1801 -0.1030  0.1960
  937MOL0     C26386  10.072   4.378   4.573 -0.0139  0.4623 -0.0115
  937MOL0     C26387  10.198   4.425   4.623  1.0559  0.6372  0.0055
  937MOL0     C26388  10.291   4.486   4.539  0.3130 -0.0015 -0.8087
  937MOL0     C26389  10.420   4.541   4.590  0.5378  0.2929 -0.8997
  937MOL0     O26390  10.430   4.559   4.731  0.1362  0.2952 -0.6560
  937MOL0     C26391  10.562   4.591   4.787 -0.2890  0.9223  0.5722
  937MOL0     C26392  10.558   4.649   4.917  0.5254  0.3674  0.7554
  937MOL0     C26393  10.676   4.684   4.981 -0.6784  0.4572 -0.0490
  937MOL0     C26394  10.808   4.655   4.918 -0.9675 -0.2778 -1.0148
  937MOL0     O26395  10.929   4.692   4.976 -0.5200  0.7637  0.2601
  937MOL0     C26396  10.930   4.734   5.118 -0.0187  0.2008  0.8730
  937MOL0     C26397  11.057   4.710   5.207  0.4878  0.3812 -0.6018
  937MOL0     C26398  11.177   4.782   5.147  0.2056  0.4432  0.5256
  937MOL0     C26399  11.281   4.824   5.239 -0.0206 -0.6924 -0.9974
  937MOL0     C26400  11.235   4.949   5.307  0.5795  0.1581  1.0285
  937MOL0     C26401  11.350   5.016   5.392 -0.2312 -0.0526 -0.2062
  937MOL0     C26402  11.316   5.138   5.466 -0.5816  0.1798  0.0440
  937MOL0     C26403  11.224   5.119   5.597 -0.0164 -1.0949  0.6382
  937MOL0    Cl26404  11.308   5.005   5.708  0.3009  0.2362 -0.3152
  937MOL0     C26405  10.812   4.586   4.797  0.0610 -0.2070  0.2776
  937MOL0     C26406  10.692   4.564   4.728  0.2612  0.3937  0.2186
  937MOL0     O26407  10.498   4.562   4.498 -0.2612  0.8327  0.1993
  937MOL0     C26408  10.248   4.505   4.404 -1.3853  0.1102 -0.7750
  937MOL0     C26409  10.129   4.459   4.354  0.3950 -0.7049 -0.7927
  937MOL0     N26410   9.613   3.956   4.656  0.4534 -0.1335 -0.8198
  937MOL0     N26411   9.512   3.890   4.711 -0.0526  0.5600 -0.0448
  937MOL0     C26412   8.455   4.279   4.196 -0.5465 -0.3746 -0.0561
  937MOL0     C26413   8.363   4.384   4.190  0.0327 -0.8543  0.0925
  937MOL0     C26414   8.041   4.664   4.337  0.2411  0.1059 -0.5302
  937MOL0     C26415   7.927   4.647   4.426 -1.0956 -0.0784 -0.2631
  937MOL0     C26416   7.845   4.762   4.462 -0.6902  0.7731  0.5250
  937MOL0     C26417   7.871   4.881   4.399  0.0884 -0.2114 -0.8445
  937MOL0     O26418   7.795   4.984   4.437  0.6732  0.4418  1.2836
  937MOL0     C26419   7.831   5.060   4.550 -0.5826 -0.8398  0.5862
  937MOL0     C26420   7.728   5.169   4.575 -1.2980  0.3898 -0.2669
  937MOL0     C26421   7.585   5.119   4.564 -0.5619  0.1674  0.5115
  937MOL0     C26422   7.476   5.211   4.615  0.4474 -0.2818  0.2371
  937MOL0     C26423   7.480   5.348   4.572  0.8238 -0.0711 -0.1039
  937MOL0     C26424   7.449   5.463   4.570  0.3872 -0.3577 -0.3120
  937MOL0     C26425   7.971   4.898   4.307 -0.5162 -0.5672 -0.2627
  937MOL0     C26426   8.063   4.792   4.274 -0.4320  0.1245 -0.1985
  937MOL0     C26427   8.191   4.823   4.187 -0.6953 -0.1113 -0.0904
  937MOL0     H26428   8.423   4.509   4.499 -1.7087 -1.4703  0.0170
  937MOL0     H26429   8.615   4.334   4.491 -0.4768  0.6689  0.8602
  937MOL0     H26430   8.499   4.027   4.266  0.3488  2.6626 -0.5526
  937MOL0     H26431   8.615   4.034   4.153  1.4181  1.0698 -0.3266
  937MOL0     H26432   8.795   3.957   4.268 -1.4785 -0.2313 -2.1923
  937MOL0     H26433   8.666   3.837   4.273 -0.0620  0.5477  1.4117
  937MOL0     H26434   8.615   3.868   4.505 -1.2018 -1.3803 -0.9107
  937MOL0     H26435   8.720   3.999   4.536  1.8446 -1.5375  0.1640
  937MOL0     H26436   8.806   3.775   4.607  4.7306  3.0530  1.7132
  937MOL0     H26437   8.822   3.716   4.438  4.8541 -0.6265  0.6067
  937MOL0     H26438   8.995   3.881   4.395 -2.7077  2.2865  0.4490
  937MOL0     H26439   8.965   3.951   4.552  0.5655 -0.1544  0.8562
  937MOL0     H26440   9.037   3.758   4.673  0.7665 -0.8063  0.6446
  937MOL0     H26441   9.072   3.665   4.531  0.0264 -0.0477  0.8968
  937MOL0     H26442   9.202   3.924   4.624 -0.9614 -0.3437 -0.4508
  937MOL0     H26443   9.236   3.829   4.469  1.2109 -1.6082  0.2265
  937MOL0     H26444   9.312   3.721   4.748 -0.7825  3.0486  0.3781
  937MOL0     H26445   9.308   3.645   4.596 -0.2019 -0.3981 -0.9254
  937MOL0     H26446   9.488   3.798   4.397 -2.2070  2.8623 -1.2343
  937MOL0     H26447   9.818   3.932   4.487 -0.9626 -2.3767  2.1009
  937MOL0     H26448   9.710   3.892   4.346  4.4426  3.4848 -2.9572
  937MOL0     H26449   9.801   4.101   4.301  1.6384  2.6055  2.2439
  937MOL0     H26450   9.633   4.131   4.359  0.7215  3.2494 -0.5598
  937MOL0     H26451   9.883   4.136   4.532 -1.3688 -1.2062  2.3988
  937MOL0     H26452   9.719   4.174   4.584  0.3235  1.8473 -0.7723
  937MOL0     H26453   9.781   4.382   4.558  2.3348  0.7950 -0.1980
  937MOL0     H26454   9.711   4.351   4.399 -0.5998 -2.8464 -0.4300
  937MOL0     H26455  10.007   4.328   4.644  0.4902  2.8264  2.2495
  937MOL0     H26456  10.223   4.393   4.724  1.1994  1.8840  0.3770
  937MOL0     H26457  10.463   4.659   4.967 -0.8333  0.3623 -1.6546
  937MOL0     H26458  10.674   4.729   5.080  3.6816  1.5304 -0.2436
  937MOL0     H26459  10.918   4.843   5.114 -1.1094  0.0679 -1.9435
  937MOL0     H26460  10.856   4.671   5.168 -2.5896  0.6457 -2.0198
  937MOL0     H26461  11.036   4.736   5.311  0.9035  0.6701 -0.5868
  937MOL0     H26462  11.077   4.602   5.205 -1.1347  0.0130  0.4982
  937MOL0     H26463  11.224   4.707   5.081  1.7680  3.5262 -2.1461
  937MOL0     H26464  11.138   4.867   5.090 -2.2122  1.1851  3.0625
  937MOL0     H26465  11.379   4.843   5.194  3.5243 -3.5898  4.4703
  937MOL0     H26466  11.297   4.742   5.309 -0.7447 -0.5928 -0.7099
  937MOL0     H26467  11.153   4.931   5.378  2.3321  0.5535  3.2733
  937MOL0     H26468  11.194   5.022   5.237 -1.3553  0.2614  2.1653
  937MOL0     H26469  11.393   4.943   5.462  0.2482  0.8280  0.4463
  937MOL0     H26470  11.422   5.033   5.312  1.5213 -3.2238  0.4988
  937MOL0     H26471  11.271   5.204   5.391 -0.9347 -0.8024 -0.6289
  937MOL0     H26472  11.414   5.171   5.500  0.1999 -3.5728  1.9631
  937MOL0     H26473  11.205   5.218   5.641  2.1499  1.0406 -2.7784
  937MOL0     H26474  11.125   5.078   5.575 -0.3077 -1.7075  2.8206
  937MOL0     H26475  10.906   4.581   4.743  1.8542 -0.6366  3.2257
  937MOL0     H26476  10.701   4.535   4.624 -5.0545  0.3595 -0.5318
  937MOL0     H26477  10.307   4.554   4.327 -0.0575  1.5797  1.0681
  937MOL0     H26478  10.092   4.479   4.254 -1.6434  0.5177  0.1491
  937MOL0     H26479   8.471   4.208   4.115 -3.5283  0.3273 -1.4160
  937MOL0     H26480   8.295   4.383   4.105 -3.4407  0.9332  2.5842
  937MOL0     H26481   7.932   4.558   4.488  4.0051 -0.2841 -0.5771
  937MOL0     H26482   7.775   4.740   4.542 -1.2365 -1.2116 -0.4386
  937MOL0     H26483   7.921   5.118   4.524 -2.5612  2.1864  0.0099
  937MOL0     H26484   7.862   4.997   4.634  3.9220  1.2240  0.7805
  937MOL0     H26485   7.750   5.266   4.531 -0.1378  0.7457  1.0329
  937MOL0     H26486   7.740   5.201   4.679 -0.7356  0.8553 -0.4712
  937MOL0     H26487   7.586   5.030   4.628  0.2247  1.1432  1.9239
  937MOL0     H26488   7.552   5.084   4.466  1.7481  1.9341 -0.9814
  937MOL0     H26489   7.381   5.160   4.594 -0.2859 -0.8162  4.0542
  937MOL0     H26490   7.496   5.209   4.722  0.8262 -1.8936  0.1629
  937MOL0     H26491   7.422   5.566   4.560 -0.7499 -0.5697  0.4012
  937MOL0     H26492   8.010   4.991   4.269  1.5496 -1.5080 -0.5801
  937MOL0     H26493   8.191   4.917   4.131 -0.1519 -1.0118 -1.6817
  937MOL0     H26494   8.283   4.810   4.244  0.3807  1.3903 -1.4110
  937MOL0     H26495   8.202   4.751   4.105  3.3893 -0.2133  0.3847
  938MOL0     O26496   1.176   8.890   1.812  0.3489 -0.4845  0.1557
  938MOL0     C26497   1.289   8.920   1.783 -0.2148 -1.0207 -0.6213
  938MOL0     O26498   1.344   8.929   1.659  0.1201 -0.2087  0.9065
  938MOL0     C26499   1.270   8.873   1.551 -0.8110 -0.8494 -0.3028
  938MOL0     C26500   1.181   8.771   1.570  0.9330  1.1248  0.9276
  938MOL0     C26501   1.100   8.731   1.461  0.2819 -1.1485 -0.0014
  938MOL0     C26502   1.115   8.781   1.333 -0.5081 -0.0056  0.0905
  938MOL0     O26503   1.032   8.739   1.235  0.5365 -0.6304 -0.0294
  938MOL0     C26504   1.075   8.623   1.158 -0.3842 -0.1525 -0.8473
  938MOL0     C26505   1.040   8.491   1.227 -0.2736 -0.2887 -0.2052
  938MOL0     C26506   1.069   8.373   1.149 -0.2691  0.3193 -0.1573
  938MOL0     C26507   1.005   8.334   1.014 -0.0093 -0.7776 -0.8991
  938MOL0     C26508   0.856   8.356   0.999  0.0030  0.5517  0.1998
  938MOL0     C26509   0.783   8.289   1.106  0.2251  0.4689  0.2416
  938MOL0     C26510   0.633   8.265   1.071 -0.3819 -0.0894 -1.2294
  938MOL0     C26511   0.556   8.400   1.084  0.1383  0.9564 -0.6053
  938MOL0     N26512   0.411   8.368   1.070  0.3504 -0.2422  0.5457
  938MOL0     C26513   0.335   8.303   1.169 -0.6418  0.6393  1.0482
  938MOL0     C26514   0.211   8.287   1.112 -0.2212 -0.4766 -0.3514
  938MOL0     C26515   0.093   8.249   1.201  0.1303 -0.8849 -0.5465
  938MOL0     C26516  -0.020   8.169   1.120  0.0426  0.1594  0.0980
  938MOL0     C26517   0.014   8.020   1.097 -0.0501 -1.0415  0.5605
  938MOL0     C26518  -0.093   7.937   1.028  0.1603 -1.2577  0.9002
  938MOL0     O26519  -0.042   7.808   0.985 -0.2554 -0.8698 -0.6147
  938MOL0     C26520  -0.107   7.741   0.884 -0.6653 -0.1668  0.2079
  938MOL0     C26521  -0.026   7.653   0.808 -0.5700 -0.0126  0.3347
  938MOL0     C26522  -0.091   7.575   0.720 -0.6063  0.0204  0.2094
  938MOL0     C26523  -0.225   7.578   0.682  0.7952 -0.3095  0.6062
  938MOL0     C26524  -0.294   7.506   0.575  0.3336  0.7011  0.8520
  938MOL0     O26525  -0.429   7.487   0.591 -0.5940 -0.0335  0.0623
  938MOL0     C26526  -0.506   7.410   0.503  0.2236  1.1121 -0.6871
  938MOL0     C26527  -0.503   7.422   0.368  0.3300 -0.3069 -0.0802
  938MOL0     C26528  -0.566   7.334   0.282  0.1282 -0.3255  0.4922
  938MOL0     C26529  -0.636   7.226   0.320 -0.7720  1.2308 -0.4966
  938MOL0     O26530  -0.687   7.147   0.216 -0.0754 -0.7799 -0.1095
  938MOL0     C26531  -0.712   7.009   0.245  0.4846  0.0949 -0.8790
  938MOL0     C26532  -0.867   7.001   0.280  0.4227  0.2366  0.6606
  938MOL0     C26533  -0.913   6.899   0.388 -0.3604  0.8419 -0.4445
  938MOL0     C26534  -0.916   6.754   0.334  0.2113  0.1611  0.4442
  938MOL0     C26535  -0.935   6.652   0.447  0.3174 -1.1341 -0.2847
  938MOL0     C26536  -0.933   6.501   0.420  0.2176  0.1974 -0.1727
  938MOL0     C26537  -0.806   6.459   0.359  0.6263  0.2926  0.3821
  938MOL0     C26538  -0.807   6.305   0.344  0.2916  0.4805  0.2418
  938MOL0    Cl26539  -0.901   6.255   0.202 -0.2063 -0.1917  0.4505
  938MOL0     C26540  -0.645   7.211   0.468  0.2892  0.3783  0.7102
  938MOL0     C26541  -0.585   7.305   0.555  0.2190  0.4833  0.0541
  938MOL0     O26542  -0.228   7.462   0.489 -0.7130 -0.1282  0.2899
  938MOL0     C26543  -0.305   7.665   0.760 -0.1732 -0.4572 -0.1229
  938MOL0     C26544  -0.244   7.745   0.863  0.0689  0.3225  0.0532
  938MOL0     N26545   0.210   8.357   0.997 -0.1220  0.3390  0.8020
  938MOL0     N26546   0.328   8.410   0.969 -0.2384  0.2372 -0.2191
  938MOL0     C26547   1.216   8.878   1.321 -0.8945  0.3345  0.6478
  938MOL0     C26548   1.287   8.934   1.428 -0.0549  1.2462 -0.3919
  938MOL0     C26549   1.394   8.951   1.888 -0.0796  1.0277 -0.1351
  938MOL0     C26550   1.460   9.086   1.885 -0.1370 -0.0582  0.2281
  938MOL0     C26551   1.549   9.114   1.987  0.2456  0.4103  0.8572
  938MOL0     C26552   1.567   9.023   2.092  0.4847 -0.1106  0.0249
  938MOL0     O26553   1.648   9.036   2.209 -0.4438 -1.3817 -0.6982
  938MOL0     C26554   1.718   9.163   2.233  0.5316 -0.4127 -0.6559
  938MOL0     C26555   1.720   9.201   2.378 -0.2255 -0.1375 -0.0177
  938MOL0     C26556   1.577   9.240   2.433 -0.6906 -0.1897 -0.0908
  938MOL0     C26557   1.558   9.224   2.594 -0.3795 -0.5734  0.8137
  938MOL0     C26558   1.647   9.321   2.662  0.4079  0.6080  0.0711
  938MOL0     C26559   1.723   9.390   2.726 -0.5218 -0.1773  0.2166
  938MOL0     C26560   1.494   8.904   2.102 -0.4348 -0.3604 -0.1290
  938MOL0     C26561   1.403   8.872   2.005  0.3807 -0.4746 -0.4453
  938MOL0     C26562   1.332   8.734   2.011  0.1048 -0.7133  0.0692
  938MOL0     H26563   1.147   8.717   1.657 -1.7732  0.2692 -0.5349
  938MOL0     H26564   1.018   8.670   1.498 -1.0389  0.5722  0.0698
  938MOL0     H26565   1.025   8.621   1.061  0.5154 -1.1954 -1.3153
  938MOL0     H26566   1.184   8.621   1.144 -0.4888  2.1598 -2.6493
  938MOL0     H26567   0.934   8.505   1.253 -0.2200  0.4986 -0.3883
  938MOL0     H26568   1.104   8.473   1.313 -1.0112 -0.4526  0.3230
  938MOL0     H26569   1.063   8.279   1.205  3.1839 -1.0619 -1.7841
  938MOL0     H26570   1.177   8.366   1.136 -0.0117 -0.0759  1.8731
  938MOL0     H26571   1.061   8.395   0.942  2.2559  0.8584  2.0323
  938MOL0     H26572   1.017   8.229   0.986 -0.0881 -0.7864 -0.9025
  938MOL0     H26573   0.830   8.462   1.002 -0.8636  0.3136  1.4359
  938MOL0     H26574   0.835   8.302   0.905 -2.4195  0.5679  0.6612
  938MOL0     H26575   0.823   8.189   1.127 -0.0046  0.5573  1.1530
  938MOL0     H26576   0.791   8.340   1.203  4.8161  0.5069  0.0831
  938MOL0     H26577   0.580   8.194   1.135  0.3433  0.9219  0.5789
  938MOL0     H26578   0.634   8.238   0.965 -1.0507 -0.5241 -1.1297
  938MOL0     H26579   0.570   8.445   1.182  0.3519  1.7751 -0.9986
  938MOL0     H26580   0.586   8.482   1.017  1.2248  0.6883 -0.4655
  938MOL0     H26581   0.361   8.281   1.272  2.4077  1.1673  0.4827
  938MOL0     H26582   0.122   8.192   1.290 -1.1566  2.0978  1.9966
  938MOL0     H26583   0.045   8.339   1.240  1.4522 -0.8390  1.0933
  938MOL0     H26584  -0.116   8.177   1.171  0.1857 -0.2363  0.4337
  938MOL0     H26585  -0.035   8.218   1.024 -0.1757 -2.9106 -1.5562
  938MOL0     H26586   0.040   7.973   1.193  0.1858  1.7856  1.9857
  938MOL0     H26587   0.105   8.017   1.035  0.3049  1.2129  0.8859
  938MOL0     H26588  -0.135   7.995   0.945  0.8632 -0.0770  1.3401
  938MOL0     H26589  -0.169   7.913   1.102  0.5359  1.1942  2.1999
  938MOL0     H26590   0.082   7.651   0.823 -0.4113  1.4247 -0.4058
  938MOL0     H26591  -0.035   7.499   0.666 -1.5783  0.0874 -0.9380
  938MOL0     H26592  -0.452   7.509   0.330 -0.2965 -0.1447 -0.5711
  938MOL0     H26593  -0.559   7.356   0.176  1.1548 -2.5700  0.0216
  938MOL0     H26594  -0.702   6.946   0.156  1.3941 -0.6699 -0.2493
  938MOL0     H26595  -0.644   6.972   0.322  0.0993  4.5888  2.0129
  938MOL0     H26596  -0.911   7.098   0.307  0.5599  0.7986 -1.0151
  938MOL0     H26597  -0.909   6.987   0.181  1.2483 -0.7008  0.4284
  938MOL0     H26598  -0.848   6.910   0.475 -2.5437 -2.8911  1.9457
  938MOL0     H26599  -1.009   6.931   0.429 -0.1204  0.3835  0.5029
  938MOL0     H26600  -0.823   6.726   0.284  0.3049 -0.3356  0.8758
  938MOL0     H26601  -0.994   6.741   0.259  0.4031 -1.3161  0.4607
  938MOL0     H26602  -1.021   6.671   0.513 -0.5192  2.2773 -2.1002
  938MOL0     H26603  -0.849   6.674   0.512 -1.3071 -2.6484  2.5566
  938MOL0     H26604  -0.944   6.445   0.513  0.4083 -1.1291 -0.9187
  938MOL0     H26605  -1.027   6.474   0.370 -0.5983 -0.7882  1.7677
  938MOL0     H26606  -0.721   6.491   0.419  0.3649  0.0262  0.9006
  938MOL0     H26607  -0.795   6.500   0.258 -1.2304 -1.6412 -0.6856
  938MOL0     H26608  -0.702   6.281   0.323  1.1723  2.5446  1.9357
  938MOL0     H26609  -0.827   6.255   0.440  1.3592  2.5016  1.5877
  938MOL0     H26610  -0.706   7.126   0.500 -1.5890  1.3516 -0.1078
  938MOL0     H26611  -0.582   7.279   0.661 -2.1546  0.1919  0.1062
  938MOL0     H26612  -0.410   7.665   0.732  0.2943 -0.6480 -1.9700
  938MOL0     H26613  -0.309   7.820   0.908 -2.9514 -1.7397 -0.5468
  938MOL0     H26614   1.213   8.931   1.226 -2.5641 -3.1181 -1.4217
  938MOL0     H26615   1.366   9.006   1.413 -0.0177  0.8510 -2.2996
  938MOL0     H26616   1.444   9.164   1.810  1.7467  1.0140  0.8748
  938MOL0     H26617   1.593   9.213   1.978  0.4662  0.3319  1.0741
  938MOL0     H26618   1.670   9.245   2.179  1.7830  2.1401  1.8271
  938MOL0     H26619   1.823   9.154   2.204  1.0412 -1.9587  1.3822
  938MOL0     H26620   1.794   9.279   2.400  1.0455 -1.1573 -0.5773
  938MOL0     H26621   1.763   9.114   2.429  4.1521  1.5013 -0.4532
  938MOL0     H26622   1.508   9.173   2.381  1.1853 -3.4934  1.3754
  938MOL0     H26623   1.552   9.340   2.395 -0.0507  0.2732  0.6877
  938MOL0     H26624   1.454   9.251   2.617 -0.3307  0.0305  0.3610
  938MOL0     H26625   1.570   9.122   2.630 -2.7134 -0.4153  2.2450
  938MOL0     H26626   1.786   9.459   2.776 -1.9545 -0.1018  2.0168
  938MOL0     H26627   1.512   8.833   2.182  0.4036  0.6372  0.5919
  938MOL0     H26628   1.362   8.684   1.919  0.7656 -0.3921  0.1040
  938MOL0     H26629   1.365   8.675   2.097 -0.8300  0.6510  1.4352
  938MOL0     H26630   1.225   8.751   2.028  0.3654 -0.5758  1.7709
  939MOL0     O26631  11.221  11.385   9.601 -0.4035  0.7300 -0.5289
  939MOL0     C26632  11.230  11.265   9.632  1.0347 -0.3812  1.2682
  939MOL0     O26633  11.145  11.200   9.713  0.5116 -0.4477  0.5380
  939MOL0     C26634  11.057  11.292   9.769 -0.4185 -0.6787  0.5686
  939MOL0     C26635  11.096  11.383   9.870  0.4049 -0.2842 -0.8412
  939MOL0     C26636  11.009  11.470   9.937  0.7642 -0.2615 -0.0471
  939MOL0     C26637  10.877  11.483   9.893 -0.3332 -0.1642  0.6072
  939MOL0     O26638  10.795  11.568   9.947  0.0484  0.2224  1.4121
  939MOL0     C26639  10.826  11.712   9.943 -0.0279 -0.5535  0.2958
  939MOL0     C26640  10.810  11.772  10.088  0.1228  0.3509  0.4625
  939MOL0     C26641  10.864  11.911  10.092 -0.3104  0.3111  0.2151
  939MOL0     C26642  11.017  11.903  10.116 -0.8247 -0.3523 -0.5201
  939MOL0     C26643  11.079  12.033  10.152 -0.0771 -1.0374 -0.0155
  939MOL0     C26644  11.229  12.033  10.181  0.4511  0.1088  0.0738
  939MOL0     C26645  11.285  12.174  10.215  0.1695  0.6176  0.0901
  939MOL0     C26646  11.437  12.177  10.223 -0.7619 -0.2280  0.3793
  939MOL0     N26647  11.468  12.109  10.347 -0.3489  0.2935  0.2796
  939MOL0     C26648  11.426  12.149  10.467  0.2252  0.1027  0.4209
  939MOL0     C26649  11.499  12.070  10.549  0.3809 -0.7426  0.0992
  939MOL0     C26650  11.479  12.076  10.703  0.0786  0.4630  0.8796
  939MOL0     C26651  11.331  12.068  10.750 -0.6635  0.5021  0.4321
  939MOL0     C26652  11.323  12.066  10.907  0.4925 -0.3962 -0.2959
  939MOL0     C26653  11.189  12.119  10.960  0.0589 -0.2211  0.0375
  939MOL0     O26654  11.090  12.036  10.891  0.6049 -0.7113  0.1301
  939MOL0     C26655  10.959  12.035  10.921  1.2723  0.5174 -0.0330
  939MOL0     C26656  10.877  12.149  10.901 -0.9191  0.6484  0.0766
  939MOL0     C26657  10.738  12.129  10.899  0.6478 -0.7148  0.4249
  939MOL0     C26658  10.678  12.003  10.905 -0.2852  0.3180 -0.1743
  939MOL0     C26659  10.539  11.987  10.867 -0.1670  0.9520  0.5347
  939MOL0     O26660  10.471  12.106  10.885 -0.3706 -0.0788 -0.1991
  939MOL0     C26661  10.355  12.134  10.819  0.3374 -1.1876 -0.5694
  939MOL0     C26662  10.245  12.046  10.802 -0.0590  0.4404 -0.7130
  939MOL0     C26663  10.122  12.086  10.753  0.0024  0.5657 -0.3152
  939MOL0     C26664  10.102  12.218  10.704  0.2727 -0.0046 -0.6352
  939MOL0     O26665   9.988  12.268  10.642  0.2271 -0.1782 -0.3782
  939MOL0     C26666   9.903  12.176  10.576 -0.6370 -0.5116 -0.9091
  939MOL0     C26667   9.805  12.257  10.500  0.6660  0.1141  0.6513
  939MOL0     C26668   9.876  12.349  10.395  0.4998  0.1876  0.9019
  939MOL0     C26669   9.779  12.426  10.299 -1.0107  0.6750  0.9309
  939MOL0     C26670   9.690  12.524  10.391  0.7743  0.0888  0.5128
  939MOL0     C26671   9.621  12.642  10.301  0.1539 -0.0657  1.4914
  939MOL0     C26672   9.542  12.728  10.401  0.9446 -0.2735 -0.4412
  939MOL0     C26673   9.449  12.838  10.350  0.5362  0.0279 -0.7219
  939MOL0    Cl26674   9.394  12.796  10.182  0.1344  0.3954  0.4070
  939MOL0     C26675  10.211  12.304  10.721  0.1313 -0.3297 -0.3700
  939MOL0     C26676  10.335  12.267  10.773 -0.8716 -0.4598  0.4949
  939MOL0     O26677  10.502  11.879  10.825  0.6653  0.4146 -0.1830
  939MOL0     C26678  10.761  11.893  10.936 -0.2648  0.2745 -0.4695
  939MOL0     C26679  10.893  11.915  10.942  0.0889  0.3745 -0.0224
  939MOL0     N26680  11.574  11.984  10.476  1.4539  0.1923  0.0180
  939MOL0     N26681  11.552  12.013  10.350 -0.4552  0.3721 -0.9640
  939MOL0     C26682  10.833  11.400   9.788  0.5716 -0.6033  0.2885
  939MOL0     C26683  10.920  11.312   9.724 -0.2506  0.8170  0.6788
  939MOL0     C26684  11.330  11.185   9.558  0.2335 -1.3522 -0.5903
  939MOL0     C26685  11.370  11.064   9.627 -0.5190  0.1788 -0.3026
  939MOL0     C26686  11.481  10.983   9.580  1.1094 -0.0287 -0.3944
  939MOL0     C26687  11.536  11.016   9.465  0.8071  0.7449  0.4528
  939MOL0     O26688  11.647  10.958   9.408 -0.3800 -0.5580 -1.3254
  939MOL0     C26689  11.712  10.847   9.475 -0.2288  0.2542  0.1552
  939MOL0     C26690  11.646  10.715   9.441  0.4609 -0.5987 -0.3773
  939MOL0     C26691  11.568  10.647   9.555 -0.4176 -0.0424 -0.1745
  939MOL0     C26692  11.534  10.502   9.555  1.3663 -0.1872  0.0876
  939MOL0     C26693  11.650  10.419   9.582 -0.0958  0.3453 -0.3325
  939MOL0     C26694  11.743  10.349   9.613  0.6111  0.3569 -0.7977
  939MOL0     C26695  11.492  11.132   9.397  0.0349 -1.1803 -0.0577
  939MOL0     C26696  11.396  11.215   9.438 -1.1528 -0.3110  0.5547
  939MOL0     C26697  11.367  11.334   9.357  0.3965  0.0835 -0.1585
  939MOL0     H26698  11.196  11.386   9.913  1.2541  3.9767 -2.6164
  939MOL0     H26699  11.032  11.542  10.014 -0.9199  0.0297  0.2257
  939MOL0     H26700  10.921  11.734   9.892 -0.9789 -0.1160 -1.3585
  939MOL0     H26701  10.761  11.754   9.866 -1.1080 -1.1551  0.8612
  939MOL0     H26702  10.865  11.710  10.160  2.2191  1.7129  0.1289
  939MOL0     H26703  10.703  11.773  10.108 -0.6100 -0.5425 -2.8254
  939MOL0     H26704  10.832  11.959  10.185 -4.5816  0.7769 -1.2491
  939MOL0     H26705  10.833  11.970  10.005 -1.8882  0.7863  1.0598
  939MOL0     H26706  11.034  11.835  10.200  3.5821 -0.1836 -1.0627
  939MOL0     H26707  11.076  11.867  10.031 -0.2162 -0.8461  0.1067
  939MOL0     H26708  11.071  12.099  10.066 -2.0917 -0.5575  0.5035
  939MOL0     H26709  11.018  12.077  10.231 -0.9967 -1.3886 -0.5153
  939MOL0     H26710  11.249  11.952  10.252 -0.8792 -2.4084 -2.2545
  939MOL0     H26711  11.283  12.004  10.090 -0.8614  2.0572 -1.4014
  939MOL0     H26712  11.239  12.226  10.300  2.0180 -0.5291  1.8766
  939MOL0     H26713  11.252  12.247  10.141 -1.4628  0.9598  1.0966
  939MOL0     H26714  11.472  12.120  10.137 -3.2451 -1.2533 -0.0159
  939MOL0     H26715  11.471  12.281  10.218  0.5506 -0.4292  3.2104
  939MOL0     H26716  11.363  12.234  10.493 -2.8375 -1.9801  0.3183
  939MOL0     H26717  11.529  11.988  10.742 -3.4607 -1.4427  1.5894
  939MOL0     H26718  11.518  12.164  10.755 -1.8046  1.7000  0.3021
  939MOL0     H26719  11.269  12.152  10.718 -2.2180  0.1151  2.2176
  939MOL0     H26720  11.306  11.969  10.711  0.0110  1.2609 -2.0879
  939MOL0     H26721  11.398  12.131  10.952 -0.7994  0.8342  0.1533
  939MOL0     H26722  11.344  11.965  10.945 -0.8822  0.2163  2.3468
  939MOL0     H26723  11.162  12.217  10.919  0.8590 -1.3445 -3.5401
  939MOL0     H26724  11.174  12.118  11.068 -2.8665 -1.6081 -0.2766
  939MOL0     H26725  10.920  12.249  10.902  2.8618 -0.8169  0.8377
  939MOL0     H26726  10.679  12.218  10.878 -0.4822 -1.8438 -1.4015
  939MOL0     H26727  10.258  11.947  10.845 -2.6402  0.0459 -0.6776
  939MOL0     H26728  10.051  12.007  10.734  0.3049  0.6104 -1.7260
  939MOL0     H26729   9.961  12.112  10.509 -1.4188 -1.6678 -0.5079
  939MOL0     H26730   9.837  12.112  10.637 -2.1446  2.8324  1.2655
  939MOL0     H26731   9.747  12.181  10.447  2.4584 -0.5020 -0.5204
  939MOL0     H26732   9.740  12.318  10.564  1.5259  0.7830  0.9141
  939MOL0     H26733   9.945  12.412  10.451  2.8839  0.6806 -2.2971
  939MOL0     H26734   9.945  12.284  10.340  1.9147  0.5071  2.2508
  939MOL0     H26735   9.717  12.363  10.235 -0.1309  3.5437 -3.1727
  939MOL0     H26736   9.840  12.484  10.229  2.2499 -1.3780  1.8418
  939MOL0     H26737   9.757  12.575  10.461  0.2136  4.1104 -1.5842
  939MOL0     H26738   9.614  12.464  10.442 -3.4672  3.4346 -1.2367
  939MOL0     H26739   9.688  12.699  10.236  1.2715  0.4003  2.9947
  939MOL0     H26740   9.555  12.591  10.230  0.2144  0.1417  1.2889
  939MOL0     H26741   9.615  12.750  10.480 -1.3495 -0.2948  1.8385
  939MOL0     H26742   9.475  12.662  10.458 -0.2771 -0.4178 -1.9901
  939MOL0     H26743   9.368  12.858  10.420  0.8567  1.7753 -0.8071
  939MOL0     H26744   9.516  12.924  10.346  3.0769 -1.6284  2.1516
  939MOL0     H26745  10.203  12.405  10.682 -2.1334  1.1863  3.4312
  939MOL0     H26746  10.410  12.345  10.769  0.5434 -1.8003 -2.0995
  939MOL0     H26747  10.711  11.798  10.955  2.9849 -0.9587  3.1607
  939MOL0     H26748  10.952  11.827  10.962 -1.8550 -0.6045  1.8160
  939MOL0     H26749  10.725  11.404   9.775  0.4203  3.2504  1.4061
  939MOL0     H26750  10.874  11.262   9.640 -1.4505  0.7167  1.3698
  939MOL0     H26751  11.330  11.033   9.724  0.5835  0.6365  0.3154
  939MOL0     H26752  11.529  10.901   9.633  3.8931  0.8272 -1.4324
  939MOL0     H26753  11.727  10.859   9.582  0.8497 -1.2468  0.1991
  939MOL0     H26754  11.815  10.846   9.439  1.0597  1.6300  3.4457
  939MOL0     H26755  11.725  10.644   9.419 -0.4482 -2.0947  1.0110
  939MOL0     H26756  11.568  10.722   9.365 -0.8581 -1.4489  0.8543
  939MOL0     H26757  11.476  10.706   9.552  1.3185  2.9918  1.2477
  939MOL0     H26758  11.612  10.675   9.651 -3.5861  0.4975  1.2527
  939MOL0     H26759  11.467  10.504   9.641  0.7375 -0.0807 -0.4030
  939MOL0     H26760  11.500  10.471   9.456 -0.9939  2.5596 -0.0804
  939MOL0     H26761  11.810  10.290   9.672 -1.2765 -1.7879 -0.6551
  939MOL0     H26762  11.547  11.150   9.306 -0.8134  1.1986 -0.1708
  939MOL0     H26763  11.262  11.345   9.327 -0.2790  4.8549  2.7874
  939MOL0     H26764  11.390  11.419   9.422 -0.8029  0.6248 -0.3982
  939MOL0     H26765  11.430  11.343   9.267 -1.7173  0.6184 -1.6662
  940MOL0     O26766   5.732   2.986   8.525  0.8114 -0.2914  0.8196
  940MOL0     C26767   5.628   2.964   8.458 -0.7608  0.7086 -0.3340
  940MOL0     O26768   5.524   2.889   8.502  0.4169 -0.1205  0.2178
  940MOL0     C26769   5.516   2.867   8.640 -0.1863 -0.0234  0.2105
  940MOL0     C26770   5.412   2.906   8.708  0.4469  0.4207 -1.3015
  940MOL0     C26771   5.406   2.884   8.850  0.4556  0.4354 -0.1527
  940MOL0     C26772   5.521   2.824   8.911 -0.0579  0.6394 -1.2843
  940MOL0     O26773   5.504   2.794   9.048  0.3234  0.4478 -0.1694
  940MOL0     C26774   5.605   2.716   9.112 -0.0888  0.4179  0.2902
  940MOL0     C26775   5.573   2.722   9.265  0.3927  0.2736  0.2011
  940MOL0     C26776   5.689   2.679   9.364  0.5833  0.7278  0.4482
  940MOL0     C26777   5.812   2.761   9.352 -0.1755  0.4456  0.0773
  940MOL0     C26778   5.895   2.758   9.477  0.8194  0.6238  0.0664
  940MOL0     C26779   5.941   2.612   9.515  0.8708  0.6835  0.5267
  940MOL0     C26780   6.020   2.537   9.401 -1.0128  0.5396  0.1187
  940MOL0     C26781   6.036   2.389   9.423 -0.3614  0.5199 -0.3368
  940MOL0     N26782   5.922   2.304   9.394 -0.4457  0.2872 -0.6506
  940MOL0     C26783   5.931   2.173   9.351  1.0909 -0.1191 -0.4335
  940MOL0     C26784   5.814   2.116   9.391 -0.5187 -0.7658  0.0333
  940MOL0     C26785   5.783   1.961   9.374  0.8525  0.3535  0.3632
  940MOL0     C26786   5.689   1.958   9.250  0.0130  0.7357  0.3479
  940MOL0     C26787   5.630   1.813   9.222  0.3986  0.0822  0.0435
  940MOL0     C26788   5.724   1.693   9.211 -0.1798  0.4636 -0.4469
  940MOL0     O26789   5.788   1.655   9.332  0.5808 -0.5257  0.3148
  940MOL0     C26790   5.844   1.532   9.342 -0.2183  0.1565 -0.2314
  940MOL0     C26791   5.886   1.448   9.227  0.8776  0.5341 -0.5291
  940MOL0     C26792   5.959   1.337   9.247 -0.3386  0.2576 -0.2588
  940MOL0     C26793   6.007   1.305   9.375 -0.8291 -0.3510  0.5788
  940MOL0     C26794   6.096   1.186   9.388 -0.0670 -0.7163  0.2662
  940MOL0     O26795   6.180   1.197   9.493 -0.2378  0.1802 -0.4085
  940MOL0     C26796   6.275   1.096   9.504 -0.6337  0.2111 -0.8732
  940MOL0     C26797   6.235   0.967   9.517  0.5890  0.6958 -0.8898
  940MOL0     C26798   6.334   0.872   9.531 -0.8421 -0.1934  0.0602
  940MOL0     C26799   6.474   0.897   9.510 -0.2404 -0.3512  0.0342
  940MOL0     O26800   6.555   0.787   9.536 -0.4952  0.3806  0.1736
  940MOL0     C26801   6.695   0.809   9.499 -0.6519  0.6877 -0.3438
  940MOL0     C26802   6.754   0.707   9.594 -0.4653  1.7043 -0.0011
  940MOL0     C26803   6.739   0.562   9.561  0.1977 -0.1706  0.0213
  940MOL0     C26804   6.734   0.484   9.697 -0.1052  0.1947  0.7295
  940MOL0     C26805   6.724   0.329   9.682 -0.3775  0.5818 -1.0175
  940MOL0     C26806   6.752   0.252   9.814  0.0875 -0.7612  0.1945
  940MOL0     C26807   6.814   0.105   9.805 -0.3864  0.4772  0.4823
  940MOL0     C26808   6.974   0.112   9.794  0.2892 -0.7975  0.1198
  940MOL0    Cl26809   7.053   0.227   9.911  0.1839  0.0008  0.6030
  940MOL0     C26810   6.510   1.027   9.485  0.2813  0.2762  0.0509
  940MOL0     C26811   6.409   1.126   9.489  0.8377  0.2319  0.5872
  940MOL0     O26812   6.082   1.086   9.316  0.0539 -0.1280  0.6169
  940MOL0     C26813   5.975   1.381   9.488  0.3955 -0.0412  0.3343
  940MOL0     C26814   5.893   1.494   9.471 -0.6315  0.5195  0.6832
  940MOL0     N26815   5.735   2.209   9.446 -0.4391  0.5773 -0.2504
  940MOL0     N26816   5.803   2.314   9.457 -0.7648  0.2230 -0.9813
  940MOL0     C26817   5.628   2.787   8.837 -0.3870  0.7605  1.3315
  940MOL0     C26818   5.626   2.811   8.702 -0.0981  0.2974 -0.0547
  940MOL0     C26819   5.625   3.001   8.318 -0.3565  0.6273  0.2368
  940MOL0     C26820   5.516   2.975   8.231 -0.7223  0.3439  0.1658
  940MOL0     C26821   5.529   2.981   8.090 -0.0084  0.6636  0.3277
  940MOL0     C26822   5.644   3.033   8.033  0.3737 -0.8074 -0.6188
  940MOL0     O26823   5.663   3.052   7.898 -0.5115 -0.6929 -0.5611
  940MOL0     C26824   5.547   3.025   7.813 -0.2516 -0.5692  0.1264
  940MOL0     C26825   5.606   3.053   7.657  0.1320 -0.0668  0.2463
  940MOL0     C26826   5.732   2.972   7.619 -0.9783  0.9308  0.3447
  940MOL0     C26827   5.698   2.843   7.539  0.6638 -0.0576  0.6521
  940MOL0     C26828   5.685   2.866   7.396 -0.0423  0.3910  0.0287
  940MOL0     C26829   5.686   2.869   7.275 -0.3786 -0.3600  0.1345
  940MOL0     C26830   5.740   3.087   8.118 -0.0351  0.2302 -0.3480
  940MOL0     C26831   5.727   3.073   8.255 -0.0674 -0.1471  0.1899
  940MOL0     C26832   5.849   3.120   8.329 -0.1255 -0.5987  1.0056
  940MOL0     H26833   5.332   2.964   8.661 -1.7102 -0.0987  1.4382
  940MOL0     H26834   5.329   2.933   8.909 -2.4704 -2.2963 -1.3753
  940MOL0     H26835   5.624   2.617   9.071  2.0234  1.5453 -1.7153
  940MOL0     H26836   5.701   2.766   9.098 -0.6385  0.7298 -3.8059
  940MOL0     H26837   5.491   2.656   9.294  2.4367 -2.1531  0.8625
  940MOL0     H26838   5.539   2.823   9.292 -0.9313  0.1154 -0.7767
  940MOL0     H26839   5.699   2.570   9.362 -1.4541  0.5179  0.3901
  940MOL0     H26840   5.644   2.706   9.460 -0.7134  0.2142  0.0018
  940MOL0     H26841   5.869   2.734   9.262 -0.0759 -0.1164  0.3100
  940MOL0     H26842   5.773   2.863   9.336  0.0619  0.2907 -1.7979
  940MOL0     H26843   5.987   2.816   9.467 -0.1962  2.1394 -0.9788
  940MOL0     H26844   5.836   2.802   9.557 -0.7044 -0.0274 -0.6607
  940MOL0     H26845   5.998   2.633   9.606  1.0874  0.6869  0.3896
  940MOL0     H26846   5.850   2.557   9.540  0.1149  1.7235  0.1088
  940MOL0     H26847   6.124   2.573   9.405 -0.4869 -1.0312  1.7990
  940MOL0     H26848   5.991   2.561   9.298 -0.0970 -2.0813 -0.8373
  940MOL0     H26849   6.110   2.357   9.349  1.8689  0.6395  1.7103
  940MOL0     H26850   6.079   2.371   9.522  0.2859 -2.0765 -1.0150
  940MOL0     H26851   6.009   2.108   9.312  3.1506  1.3466  1.0238
  940MOL0     H26852   5.878   1.913   9.347  0.6124  1.0433 -1.9780
  940MOL0     H26853   5.738   1.909   9.459  1.0026 -0.8526 -0.2710
  940MOL0     H26854   5.606   2.029   9.258 -0.4300  0.4968 -1.4819
  940MOL0     H26855   5.756   1.985   9.168 -0.1601 -1.6721 -0.6754
  940MOL0     H26856   5.583   1.826   9.124  1.7651  0.4268 -0.5922
  940MOL0     H26857   5.562   1.800   9.307 -0.1612  0.8982 -0.2763
  940MOL0     H26858   5.809   1.701   9.143  1.9884  3.3901  2.3393
  940MOL0     H26859   5.666   1.610   9.168  0.5145  1.2141 -3.0399
  940MOL0     H26860   5.849   1.475   9.129 -0.2255  1.8446  0.1981
  940MOL0     H26861   5.972   1.279   9.156 -3.9353  2.6571 -2.5696
  940MOL0     H26862   6.132   0.940   9.538  0.9308 -1.9972 -2.2435
  940MOL0     H26863   6.304   0.771   9.557  0.9479 -1.2908 -1.8607
  940MOL0     H26864   6.714   0.773   9.398  1.8863 -1.0899  0.6774
  940MOL0     H26865   6.730   0.910   9.525  0.1855  0.2142  0.4178
  940MOL0     H26866   6.859   0.732   9.579 -0.6884  0.9644 -4.1466
  940MOL0     H26867   6.725   0.734   9.696  1.3513 -1.1074  1.3942
  940MOL0     H26868   6.645   0.537   9.510  1.6172 -3.7684 -1.1341
  940MOL0     H26869   6.819   0.523   9.497 -0.0058  0.9689 -0.9709
  940MOL0     H26870   6.645   0.518   9.750  0.8853  2.6393  0.9855
  940MOL0     H26871   6.828   0.502   9.750 -0.2872  0.0114  1.1207
  940MOL0     H26872   6.802   0.301   9.610  3.3984  1.4074  2.3886
  940MOL0     H26873   6.631   0.296   9.636  0.9364  0.3113 -3.6597
  940MOL0     H26874   6.792   0.326   9.883 -0.3179  1.9940 -2.3228
  940MOL0     H26875   6.654   0.245   9.863  1.1009  0.8058  2.5755
  940MOL0     H26876   6.773   0.060   9.715 -0.5147  0.7754  0.3921
  940MOL0     H26877   6.784   0.054   9.897  2.0056  0.5930  1.4086
  940MOL0     H26878   7.017   0.013   9.805 -0.7758 -1.1330  1.5533
  940MOL0     H26879   6.998   0.146   9.693 -0.4730  0.1903  0.2523
  940MOL0     H26880   6.613   1.056   9.468  0.4833 -0.9728 -1.0721
  940MOL0     H26881   6.442   1.229   9.480  1.2619  0.0332 -0.2188
  940MOL0     H26882   5.996   1.362   9.593  2.0865  0.9830  0.2230
  940MOL0     H26883   5.874   1.553   9.560  1.3483  1.1395  0.7532
  940MOL0     H26884   5.709   2.724   8.873  2.9830  1.6261 -3.7290
  940MOL0     H26885   5.708   2.780   8.638  0.5163 -3.0412  2.0977
  940MOL0     H26886   5.423   2.937   8.270 -2.5598  1.8212 -2.4627
  940MOL0     H26887   5.443   2.958   8.027 -0.8264  0.6985  1.4062
  940MOL0     H26888   5.471   3.102   7.829 -0.3069 -0.1941 -1.7707
  940MOL0     H26889   5.509   2.923   7.820  1.6770 -1.3349  0.1706
  940MOL0     H26890   5.622   3.161   7.648  1.6367 -0.2153  0.8669
  940MOL0     H26891   5.526   3.024   7.588  0.3300  0.1062 -0.0561
  940MOL0     H26892   5.780   2.954   7.715 -1.3161 -1.1707  0.1674
  940MOL0     H26893   5.800   3.035   7.562  0.8169 -2.5897 -1.7129
  940MOL0     H26894   5.769   2.762   7.560  0.7371  0.0003  0.6300
  940MOL0     H26895   5.600   2.814   7.576  1.8371  1.0815  5.3617
  940MOL0     H26896   5.709   2.870   7.170 -0.9175 -0.8042  0.0082
  940MOL0     H26897   5.825   3.142   8.080  1.2616 -2.4062 -1.5175
  940MOL0     H26898   5.909   3.193   8.273 -2.3656 -1.0706 -2.2912
  940MOL0     H26899   5.810   3.181   8.411 -0.2775  2.1145 -0.9489
  940MOL0     H26900   5.914   3.039   8.361  1.8374  1.3521  2.2643
  941MOL0     O26901   7.814  11.146   7.475  0.0234 -0.2698 -0.4532
  941MOL0     C26902   7.842  11.078   7.379 -0.6805 -0.3250  0.3672
  941MOL0     O26903   7.847  10.939   7.376 -0.1490  0.7219  0.1328
  941MOL0     C26904   7.832  10.875   7.500  0.5431  0.1721  0.2608
  941MOL0     C26905   7.937  10.810   7.541  0.1065 -0.6250  0.4431
  941MOL0     C26906   7.944  10.735   7.655 -0.2214 -0.0027 -0.1834
  941MOL0     C26907   7.829  10.713   7.724 -0.7582 -0.1602 -1.3373
  941MOL0     O26908   7.824  10.643   7.842  0.2122 -0.1092 -0.4236
  941MOL0     C26909   7.794  10.735   7.950 -1.2614 -0.4026 -0.0193
  941MOL0     C26910   7.851  10.687   8.082  0.1101  0.5326  0.1937
  941MOL0     C26911   7.792  10.545   8.137  0.2755 -0.2608 -0.3846
  941MOL0     C26912   7.826  10.527   8.295  0.3651  0.6352  0.1882
  941MOL0     C26913   7.767  10.390   8.339  0.2473  0.0298 -0.0180
  941MOL0     C26914   7.612  10.388   8.376 -0.4549 -0.6029  0.0390
  941MOL0     C26915   7.576  10.331   8.513  0.1861  0.0146  0.2549
  941MOL0     C26916   7.648  10.419   8.619 -0.5997  0.1827  0.6929
  941MOL0     N26917   7.589  10.395   8.748 -0.4447  0.1851 -0.3548
  941MOL0     C26918   7.607  10.270   8.811  0.3279 -0.0801 -0.5296
  941MOL0     C26919   7.542  10.288   8.932  0.0996  0.0131 -0.1683
  941MOL0     C26920   7.515  10.191   9.047 -0.7659 -0.4890  0.0717
  941MOL0     C26921   7.467  10.050   9.001 -0.5449 -0.3728 -0.0017
  941MOL0     C26922   7.487   9.973   9.130 -0.1236  1.4226 -0.3333
  941MOL0     C26923   7.442   9.828   9.089 -0.6811  0.8055  0.3078
  941MOL0     O26924   7.298   9.826   9.103  0.2654  0.3134  0.5032
  941MOL0     C26925   7.243   9.727   9.178 -0.6249  0.3237  1.0616
  941MOL0     C26926   7.304   9.602   9.216 -0.1070 -1.1725  0.4447
  941MOL0     C26927   7.239   9.521   9.296  0.3549 -0.0402 -0.0422
  941MOL0     C26928   7.117   9.553   9.356  0.0567  0.0065  0.1517
  941MOL0     C26929   7.040   9.454   9.441 -0.7989 -0.2869 -0.7910
  941MOL0     O26930   7.122   9.392   9.519  0.1598  0.9267 -1.0636
  941MOL0     C26931   7.067   9.326   9.631  0.5074  0.2072  0.6857
  941MOL0     C26932   6.991   9.403   9.720 -0.9444 -0.5207 -1.2825
  941MOL0     C26933   6.958   9.354   9.843 -0.1665  0.0263  0.5336
  941MOL0     C26934   6.962   9.219   9.875 -0.8291 -0.3667  1.2675
  941MOL0     O26935   6.917   9.183   9.996  0.2693 -0.4876 -0.5524
  941MOL0     C26936   6.896   9.045  10.029  0.7815 -0.6448  0.7854
  941MOL0     C26937   6.755   9.042  10.087  0.7222  0.6324  0.3215
  941MOL0     C26938   6.732   8.909  10.161 -0.3883  0.6888  0.1342
  941MOL0     C26939   6.585   8.916  10.207  0.1578  0.5217 -0.4570
  941MOL0     C26940   6.568   9.017  10.318 -0.8099  0.1702 -0.9491
  941MOL0     C26941   6.450   8.998  10.410 -0.2012 -0.0578 -0.3035
  941MOL0     C26942   6.322   8.982  10.324 -0.6468  0.0090 -0.4308
  941MOL0     C26943   6.194   8.997  10.409  0.2941 -0.9075  0.2313
  941MOL0    Cl26944   6.052   8.954  10.312  0.3481  0.0241  0.1337
  941MOL0     C26945   7.027   9.132   9.780  0.4004 -0.3944  0.3324
  941MOL0     C26946   7.074   9.180   9.655  0.5297 -0.8050 -0.1521
  941MOL0     O26947   6.922   9.487   9.460  0.9368  0.6814 -0.0616
  941MOL0     C26948   7.058   9.672   9.321 -0.2362  1.3951  0.1071
  941MOL0     C26949   7.121   9.757   9.228  0.6026 -0.3582 -0.5235
  941MOL0     N26950   7.496  10.418   8.940  1.0040 -0.1108 -0.2801
  941MOL0     N26951   7.530  10.480   8.834  0.6388 -0.4614 -0.3829
  941MOL0     C26952   7.710  10.770   7.679  0.1845 -1.3764 -1.0293
  941MOL0     C26953   7.709  10.852   7.571 -0.7227  0.5708  0.7350
  941MOL0     C26954   7.866  11.136   7.245  0.4473 -0.1799  0.3827
  941MOL0     C26955   7.904  11.053   7.131  0.1857 -0.4184 -0.5632
  941MOL0     C26956   7.905  11.095   7.000 -0.0019  0.4877  0.0718
  941MOL0     C26957   7.887  11.232   6.980 -0.2574  0.3512  0.0138
  941MOL0     O26958   7.890  11.278   6.852 -0.1040  0.1145 -0.2697
  941MOL0     C26959   8.022  11.312   6.806  0.0447 -0.4709 -0.0285
  941MOL0     C26960   8.083  11.426   6.883 -0.2911 -0.7720 -0.2574
  941MOL0     C26961   8.229  11.440   6.841  0.5095 -0.2150  0.2167
  941MOL0     C26962   8.265  11.491   6.700  0.0657 -0.6035 -0.2606
  941MOL0     C26963   8.227  11.635   6.684 -1.1061 -0.3123 -0.5110
  941MOL0     C26964   8.195  11.749   6.686  0.1896 -0.5952  0.8285
  941MOL0     C26965   7.848  11.322   7.080  0.2506 -0.0158  0.6401
  941MOL0     C26966   7.838  11.274   7.210  0.5066  0.8918 -0.8341
  941MOL0     C26967   7.786  11.375   7.313 -0.9094 -1.1210  0.4810
  941MOL0     H26968   8.027  10.810   7.481  0.8388  0.6267  1.4981
  941MOL0     H26969   8.031  10.678   7.686 -0.8967 -1.0907 -0.2385
  941MOL0     H26970   7.851  10.826   7.931  0.1014 -1.8161 -3.7849
  941MOL0     H26971   7.686  10.750   7.954 -1.1958 -0.0816  0.6035
  941MOL0     H26972   7.818  10.770   8.145  1.0985  1.5807 -0.6251
  941MOL0     H26973   7.959  10.680   8.071 -0.1030  1.3578 -4.4170
  941MOL0     H26974   7.818  10.465   8.067  2.8671  1.3824 -1.4464
  941MOL0     H26975   7.682  10.551   8.138  0.2778  5.1358 -0.4683
  941MOL0     H26976   7.933  10.525   8.315  0.3926  3.9069  1.0650
  941MOL0     H26977   7.794  10.617   8.350  1.1653  0.9179  0.2013
  941MOL0     H26978   7.785  10.314   8.263  0.9833  0.3922 -0.2091
  941MOL0     H26979   7.828  10.354   8.422 -0.1720  2.3062  1.3781
  941MOL0     H26980   7.573  10.490   8.374  0.7519 -0.1223 -2.0062
  941MOL0     H26981   7.558  10.326   8.304 -1.4845 -0.3476  0.5804
  941MOL0     H26982   7.618  10.229   8.509 -1.4985 -0.8872 -5.9296
  941MOL0     H26983   7.468  10.333   8.531  0.1164 -0.4517 -0.0813
  941MOL0     H26984   7.757  10.406   8.626 -0.6399  0.2070  1.5199
  941MOL0     H26985   7.632  10.522   8.588 -3.0449  0.2174  1.8565
  941MOL0     H26986   7.654  10.184   8.764  1.9866  0.5491 -0.0912
  941MOL0     H26987   7.609  10.184   9.103 -0.1678  2.7323 -0.3732
  941MOL0     H26988   7.429  10.227   9.104  0.2647 -0.2223  1.5100
  941MOL0     H26989   7.362  10.056   8.973 -1.2085  4.0630  2.5730
  941MOL0     H26990   7.521  10.018   8.911 -3.3461 -0.4673 -1.7744
  941MOL0     H26991   7.430  10.011   9.216  0.1320  2.4666 -0.6210
  941MOL0     H26992   7.591   9.977   9.164 -0.0425  0.1818 -0.3802
  941MOL0     H26993   7.491   9.753   9.153  0.9707  0.1938 -1.5766
  941MOL0     H26994   7.485   9.800   8.992  2.4801  0.2339  1.7167
  941MOL0     H26995   7.402   9.579   9.175  0.8405 -1.5321  2.7408
  941MOL0     H26996   7.288   9.428   9.322  0.6179 -0.1101 -0.7673
  941MOL0     H26997   6.973   9.509   9.712 -1.7904 -0.2630  2.3701
  941MOL0     H26998   6.929   9.428   9.917  0.9405  1.7496 -0.6852
  941MOL0     H26999   6.889   8.972   9.948 -3.0970 -0.4797  0.7949
  941MOL0     H27000   6.983   9.023  10.092  2.6015 -1.7891 -1.9380
  941MOL0     H27001   6.748   9.130  10.151  1.9012  0.4654  0.7054
  941MOL0     H27002   6.682   9.051  10.006 -0.4889  1.3467  1.4633
  941MOL0     H27003   6.753   8.828  10.090  2.4988  2.1182 -0.8146
  941MOL0     H27004   6.797   8.906  10.249  1.0169 -0.5836 -0.8844
  941MOL0     H27005   6.549   8.820  10.245 -1.9170  2.3836  2.7482
  941MOL0     H27006   6.512   8.951  10.133 -1.6120 -1.4092  0.2830
  941MOL0     H27007   6.562   9.120  10.280 -1.9080  0.0188 -1.2162
  941MOL0     H27008   6.652   9.021  10.388 -2.7356  2.8957  1.4779
  941MOL0     H27009   6.455   8.910  10.475 -0.6354 -0.3977 -0.7264
  941MOL0     H27010   6.449   9.077  10.486 -0.4416 -2.8036  2.7929
  941MOL0     H27011   6.299   8.889  10.272 -1.0238  0.2991 -0.7890
  941MOL0     H27012   6.315   9.053  10.241 -2.1990  2.8130  1.9485
  941MOL0     H27013   6.185   8.923  10.489  0.3436 -1.7658 -0.5412
  941MOL0     H27014   6.183   9.102  10.437 -0.6604 -1.9388  4.4094
  941MOL0     H27015   7.037   9.025   9.798 -1.3831 -1.7131 -4.6892
  941MOL0     H27016   7.131   9.117   9.589  3.7694  1.6830  0.0098
  941MOL0     H27017   6.956   9.704   9.341 -0.0212  1.7919  0.5930
  941MOL0     H27018   7.082   9.850   9.189  1.2048  0.0950 -0.0507
  941MOL0     H27019   7.626  10.759   7.747  0.6759 -2.5216 -0.5932
  941MOL0     H27020   7.616  10.903   7.551 -1.6571 -0.7047  1.6668
  941MOL0     H27021   7.928  10.949   7.151 -2.1665 -0.3597  4.0276
  941MOL0     H27022   7.935  11.038   6.912 -1.4860 -1.5666  0.8247
  941MOL0     H27023   8.025  11.335   6.699  0.9266 -1.8195 -0.3096
  941MOL0     H27024   8.077  11.218   6.800 -1.0570 -1.0778 -0.9943
  941MOL0     H27025   8.087  11.397   6.989 -0.2005  2.6856  0.8118
  941MOL0     H27026   8.040  11.525   6.864 -1.1026 -1.8485 -5.3132
  941MOL0     H27027   8.273  11.341   6.856  0.1387 -0.0795  2.7151
  941MOL0     H27028   8.273  11.513   6.910  1.5827 -1.1763  0.5793
  941MOL0     H27029   8.373  11.476   6.688  0.4096 -0.7426  2.4827
  941MOL0     H27030   8.217  11.438   6.617 -1.0630 -0.1185  0.0610
  941MOL0     H27031   8.138  11.841   6.685 -3.3753 -2.6114 -0.2135
  941MOL0     H27032   7.820  11.426   7.063 -0.7402  0.0549  2.4835
  941MOL0     H27033   7.858  11.403   7.390  1.0303  1.3777 -2.0198
  941MOL0     H27034   7.778  11.473   7.265  0.3138 -0.7255  1.0360
  941MOL0     H27035   7.687  11.343   7.345 -2.0258  1.7414  0.1603
  942MOL0     O27036   1.802  11.187  11.513 -0.0637  0.3094 -0.3573
  942MOL0     C27037   1.787  11.299  11.557  0.6189  0.2202 -0.6794
  942MOL0     O27038   1.696  11.390  11.509 -0.3939  0.4939 -0.1421
  942MOL0     C27039   1.653  11.372  11.377 -0.2520 -0.4088  0.4120
  942MOL0     C27040   1.534  11.313  11.356 -0.7343 -0.3726  0.0122
  942MOL0     C27041   1.487  11.297  11.221  1.0411  0.3009 -0.2692
  942MOL0     C27042   1.568  11.354  11.117 -0.0467  0.9053  0.7324
  942MOL0     O27043   1.531  11.361  10.985  0.4006 -0.9259 -0.6189
  942MOL0     C27044   1.398  11.324  10.945 -1.3769  0.1844  0.5310
  942MOL0     C27045   1.374  11.376  10.802  0.2511 -0.3093 -0.5156
  942MOL0     C27046   1.335  11.530  10.810  1.1216  0.1506 -0.2073
  942MOL0     C27047   1.330  11.597  10.667 -0.9086 -0.2469 -0.1053
  942MOL0     C27048   1.284  11.740  10.645 -0.5499  0.3367 -0.6262
  942MOL0     C27049   1.273  11.759  10.494  0.5658  0.1066 -0.6654
  942MOL0     C27050   1.252  11.908  10.458 -0.2590  0.1533 -0.1598
  942MOL0     C27051   1.158  11.936  10.337 -0.3878  0.1346 -1.1059
  942MOL0     N27052   1.219  11.917  10.200 -0.1598  0.9919  0.3509
  942MOL0     C27053   1.315  11.997  10.137  1.0973  0.2559  0.1309
  942MOL0     C27054   1.346  11.935  10.022  0.3501  0.2499 -0.3985
  942MOL0     C27055   1.444  11.969   9.915 -0.0597 -0.4167 -0.7187
  942MOL0     C27056   1.366  12.020   9.803  0.1581 -0.6416 -0.1805
  942MOL0     C27057   1.277  11.919   9.729 -0.0119  0.2679  0.0569
  942MOL0     C27058   1.232  11.978   9.595  1.2891  0.6042 -0.6218
  942MOL0     O27059   1.093  12.019   9.601 -1.2387 -0.5340  0.4887
  942MOL0     C27060   1.047  12.084   9.478  0.0158  0.2640  0.5482
  942MOL0     C27061   1.120  12.126   9.366  0.1538  0.4143  0.5243
  942MOL0     C27062   1.070  12.203   9.262  0.4210 -0.3067 -0.3343
  942MOL0     C27063   0.929  12.240   9.277  0.3914  0.3931 -0.6459
  942MOL0     C27064   0.868  12.309   9.169  0.0813 -0.4215 -0.1556
  942MOL0     O27065   0.940  12.340   9.066 -0.0016  0.0600  0.1365
  942MOL0     C27066   0.876  12.417   8.962  0.0447 -0.2553  0.3550
  942MOL0     C27067   0.808  12.358   8.853 -0.5075 -0.5115  1.0534
  942MOL0     C27068   0.764  12.436   8.740  0.8843 -0.2072 -0.3715
  942MOL0     C27069   0.778  12.576   8.745 -0.2253  0.3323 -0.0232
  942MOL0     O27070   0.746  12.657   8.637 -0.2227  0.0359 -0.2827
  942MOL0     C27071   0.605  12.683   8.645  0.8445 -0.1606  0.2925
  942MOL0     C27072   0.563  12.743   8.513  0.1571  0.3925  0.3179
  942MOL0     C27073   0.607  12.893   8.505 -0.1379  0.8079  0.0456
  942MOL0     C27074   0.526  12.965   8.399  0.4266  0.6441 -0.6869
  942MOL0     C27075   0.607  13.072   8.343  0.1592  0.7081 -0.4007
  942MOL0     C27076   0.543  13.145   8.224 -0.3149 -0.5013  0.0963
  942MOL0     C27077   0.403  13.193   8.235 -0.6817 -0.8580 -0.3967
  942MOL0     C27078   0.345  13.270   8.117  0.7268  0.0423 -0.0918
  942MOL0    Cl27079   0.183  13.362   8.157 -0.1403  0.2799  0.1955
  942MOL0     C27080   0.852  12.635   8.850  0.7265 -0.5482 -0.3038
  942MOL0     C27081   0.891  12.558   8.963 -1.0757  0.4990  0.3466
  942MOL0     O27082   0.753  12.360   9.193 -0.4203 -0.1762  0.1855
  942MOL0     C27083   0.856  12.201   9.386  0.0174  0.6002 -0.3773
  942MOL0     C27084   0.907  12.115   9.484 -0.2301 -0.8884 -1.5773
  942MOL0     N27085   1.268  11.817  10.019 -0.7429 -0.1655  0.2023
  942MOL0     N27086   1.206  11.799  10.124  0.4549 -0.1881 -0.2228
  942MOL0     C27087   1.688  11.405  11.147  0.1605  0.1055  0.0847
  942MOL0     C27088   1.736  11.417  11.269 -0.8394 -0.4657 -0.3388
  942MOL0     C27089   1.856  11.341  11.684 -0.8272 -0.8495  0.4264
  942MOL0     C27090   1.875  11.238  11.786  0.6995  0.0910 -0.4898
  942MOL0     C27091   1.943  11.274  11.899 -1.0687  1.2601 -0.9813
  942MOL0     C27092   1.999  11.403  11.923 -0.4539  0.3068  0.1035
  942MOL0     O27093   2.095  11.438  12.012 -1.9350  0.0522  0.7944
  942MOL0     C27094   2.146  11.343  12.111  1.2356  0.3107  0.1127
  942MOL0     C27095   2.222  11.425  12.212 -0.0526  0.2246 -0.0687
  942MOL0     C27096   2.340  11.356  12.273 -0.4539 -0.4241 -0.6302
  942MOL0     C27097   2.305  11.271  12.396  0.5586  0.1447 -0.6934
  942MOL0     C27098   2.170  11.206  12.398 -0.1141  0.5973 -0.1493
  942MOL0     C27099   2.053  11.171  12.398 -0.1293 -0.8516  0.3115
  942MOL0     C27100   1.976  11.500  11.826  0.1866 -0.2006 -0.1692
  942MOL0     C27101   1.898  11.469  11.710 -0.3658 -0.0399 -1.0786
  942MOL0     C27102   1.881  11.583  11.613  0.2079 -0.5027  0.0878
  942MOL0     H27103   1.467  11.269  11.430 -1.2248 -0.7306 -0.6314
  942MOL0     H27104   1.383  11.267  11.212 -0.1815  4.2822 -1.4391
  942MOL0     H27105   1.382  11.216  10.942 -1.2011  0.1689  0.1802
  942MOL0     H27106   1.330  11.377  11.013  0.3420  1.6528  1.1751
  942MOL0     H27107   1.278  11.331  10.778  0.1099 -1.2648  1.6697
  942MOL0     H27108   1.456  11.352  10.733 -0.6001  0.7784 -1.9544
  942MOL0     H27109   1.409  11.579  10.874  1.2025 -1.8935  1.3733
  942MOL0     H27110   1.234  11.538  10.853 -0.1415  3.1600 -3.3360
  942MOL0     H27111   1.430  11.578  10.627 -1.3722 -1.0016 -0.9345
  942MOL0     H27112   1.263  11.536  10.607 -0.1163 -0.8963 -0.3401
  942MOL0     H27113   1.186  11.750  10.695 -1.0794 -2.1547 -1.0548
  942MOL0     H27114   1.345  11.823  10.682 -1.4107  2.2741 -3.2456
  942MOL0     H27115   1.366  11.737  10.441  1.1485  1.2391 -0.1475
  942MOL0     H27116   1.186  11.705  10.456 -0.3552  2.2548 -1.7423
  942MOL0     H27117   1.344  11.967  10.459  0.3374 -0.7103 -1.6451
  942MOL0     H27118   1.193  11.952  10.539 -0.1360  3.2727 -1.6482
  942MOL0     H27119   1.075  11.866  10.353 -0.0200 -0.6256 -2.3946
  942MOL0     H27120   1.104  12.029  10.354  1.5232  0.7370  2.9210
  942MOL0     H27121   1.358  12.083  10.187 -0.2117  1.7181 -1.1530
  942MOL0     H27122   1.502  12.049   9.962 -0.7762 -0.3902  0.1662
  942MOL0     H27123   1.497  11.878   9.887 -2.9463 -1.7577 -2.3016
  942MOL0     H27124   1.303  12.106   9.829  1.6405 -0.3242  2.7265
  942MOL0     H27125   1.433  12.065   9.729  0.3550  0.3069  0.5503
  942MOL0     H27126   1.186  11.909   9.789  0.6330 -2.1856  0.7122
  942MOL0     H27127   1.323  11.820   9.725  1.6601  0.9166  1.6337
  942MOL0     H27128   1.244  11.901   9.519  1.5345 -0.5405  0.5281
  942MOL0     H27129   1.296  12.064   9.574  3.3549 -0.1527  1.9493
  942MOL0     H27130   1.228  12.121   9.356  0.1198 -0.1373  0.3657
  942MOL0     H27131   1.125  12.240   9.176 -0.5919  0.8091 -0.5255
  942MOL0     H27132   0.808  12.252   8.875  2.8502 -1.1219 -1.2077
  942MOL0     H27133   0.724  12.397   8.646  2.1834 -0.0806 -1.0021
  942MOL0     H27134   0.559  12.585   8.653  1.5067 -0.3811  1.6635
  942MOL0     H27135   0.585  12.729   8.742 -1.1273 -0.2176 -0.0513
  942MOL0     H27136   0.602  12.674   8.438 -2.0295 -0.8889  0.2659
  942MOL0     H27137   0.457  12.728   8.488  0.0286  0.7705  0.6316
  942MOL0     H27138   0.605  12.940   8.604  1.1435 -1.4844  1.2810
  942MOL0     H27139   0.715  12.896   8.485  0.0571  1.4481  1.1363
  942MOL0     H27140   0.435  13.003   8.446  1.6565 -0.1562  2.6590
  942MOL0     H27141   0.496  12.896   8.319 -0.9504 -0.8081  0.9949
  942MOL0     H27142   0.707  13.032   8.323 -0.4285 -0.4776 -1.1050
  942MOL0     H27143   0.623  13.149   8.419  0.5996  1.5540 -1.3357
  942MOL0     H27144   0.608  13.230   8.203 -2.7163  2.2815  2.8635
  942MOL0     H27145   0.552  13.083   8.134  0.8190 -0.5829  0.2623
  942MOL0     H27146   0.390  13.253   8.326  0.1889 -0.9357 -0.2159
  942MOL0     H27147   0.338  13.108   8.260  1.3524 -1.5004  3.7333
  942MOL0     H27148   0.422  13.344   8.092 -0.1308  0.1443 -2.8178
  942MOL0     H27149   0.337  13.202   8.031  3.9423  0.5680 -0.9598
  942MOL0     H27150   0.863  12.742   8.848 -2.2575 -0.1399 -2.1928
  942MOL0     H27151   0.939  12.610   9.045  1.7291 -2.6423  0.8956
  942MOL0     H27152   0.752  12.234   9.388  0.3722  1.9683 -1.9986
  942MOL0     H27153   0.854  12.106   9.578 -0.2145 -0.6457 -1.5432
  942MOL0     H27154   1.738  11.443  11.058  2.5157 -3.3232 -0.2481
  942MOL0     H27155   1.841  11.442  11.279 -0.5414 -1.6375 -0.4538
  942MOL0     H27156   1.837  11.136  11.780 -1.8798  1.0015 -0.5319
  942MOL0     H27157   1.967  11.196  11.970  1.4893 -0.7788 -3.8216
  942MOL0     H27158   2.219  11.282  12.057 -0.7047 -0.8064 -1.4234
  942MOL0     H27159   2.069  11.282  12.160  0.5725  0.4538 -0.7302
  942MOL0     H27160   2.147  11.442  12.290  0.9593  0.6321  0.8461
  942MOL0     H27161   2.242  11.524  12.170 -3.0860  0.7919 -0.3659
  942MOL0     H27162   2.400  11.436  12.318  2.4455 -1.5111 -2.2473
  942MOL0     H27163   2.408  11.303  12.206 -0.2885  0.0725 -0.8585
  942MOL0     H27164   2.378  11.192  12.418 -1.3773 -1.4627  0.2226
  942MOL0     H27165   2.300  11.342  12.479 -1.1689 -0.5444 -0.1738
  942MOL0     H27166   1.953  11.131  12.396 -0.4038 -0.3087  1.8283
  942MOL0     H27167   2.008  11.603  11.840 -1.1782  0.1967  0.1850
  942MOL0     H27168   1.929  11.579  11.515  0.4250  2.2082 -0.0015
  942MOL0     H27169   1.772  11.594  11.604  0.0741 -0.8192  1.1963
  942MOL0     H27170   1.914  11.682  11.646  0.2755  0.1295 -1.7759
  943MOL0     O27171   3.769   5.670  10.730 -0.0131  0.0818 -0.2869
  943MOL0     C27172   3.878   5.633  10.775 -0.3576  1.0200  0.7533
  943MOL0     O27173   3.907   5.521  10.845  0.4043  0.0379  0.0027
  943MOL0     C27174   3.831   5.407  10.840 -0.2148  0.1031  0.3305
  943MOL0     C27175   3.795   5.349  10.720  0.1338  0.1120  0.1521
  943MOL0     C27176   3.713   5.232  10.713 -0.2477 -0.2094 -0.0043
  943MOL0     C27177   3.672   5.171  10.831  0.1426  0.0927 -0.4975
  943MOL0     O27178   3.580   5.066  10.838  0.5058  0.3334  0.3968
  943MOL0     C27179   3.457   5.107  10.787 -0.1622 -0.0343 -0.3761
  943MOL0     C27180   3.365   4.982  10.784  0.3737  1.1186  0.7018
  943MOL0     C27181   3.303   4.935  10.920 -0.1111 -0.2112  0.0290
  943MOL0     C27182   3.213   4.814  10.917  0.2337  0.5059  0.4991
  943MOL0     C27183   3.297   4.693  10.875  0.0268 -0.0435 -0.2541
  943MOL0     C27184   3.215   4.564  10.875 -0.9767 -0.2633  0.0251
  943MOL0     C27185   3.152   4.548  11.017 -0.1022  0.6916  0.4149
  943MOL0     C27186   3.086   4.416  11.030  0.3150 -0.4729 -0.8574
  943MOL0     N27187   3.176   4.297  11.064  0.0205  0.3795  0.4390
  943MOL0     C27188   3.287   4.306  11.140  0.2114  0.5664 -0.3511
  943MOL0     C27189   3.349   4.184  11.140  1.3474  0.0925  0.0639
  943MOL0     C27190   3.475   4.139  11.200 -0.3013  0.3440 -0.4772
  943MOL0     C27191   3.600   4.185  11.115 -0.8705  0.0654  0.2244
  943MOL0     C27192   3.599   4.144  10.969  0.0928 -0.0209  0.5842
  943MOL0     C27193   3.553   3.993  10.931 -0.3610 -0.2911  0.0050
  943MOL0     O27194   3.583   3.971  10.787 -0.2049  0.1706 -0.1795
  943MOL0     C27195   3.714   3.963  10.754  0.1369  0.2278  0.5621
  943MOL0     C27196   3.825   3.967  10.845  1.1903 -1.2522 -0.6463
  943MOL0     C27197   3.957   3.968  10.797 -0.0498  0.3954  0.4078
  943MOL0     C27198   3.988   3.962  10.658  0.8342  1.9177 -0.2144
  943MOL0     C27199   4.125   3.930  10.616 -0.0215  0.1565  0.2520
  943MOL0     O27200   4.230   3.942  10.701  0.1143 -0.5769  0.0767
  943MOL0     C27201   4.362   3.912  10.682 -0.5709  0.4387 -0.7531
  943MOL0     C27202   4.450   4.021  10.655 -0.2133  0.8423  0.4498
  943MOL0     C27203   4.589   4.001  10.636  0.2239 -0.5354  0.2507
  943MOL0     C27204   4.630   3.869  10.628  0.4198  0.4110 -0.8557
  943MOL0     O27205   4.747   3.806  10.598  0.0602  0.1075  0.1102
  943MOL0     C27206   4.840   3.887  10.536 -0.1338 -0.5330  0.5033
  943MOL0     C27207   4.952   3.789  10.496  0.3042 -0.9829 -1.2188
  943MOL0     C27208   4.927   3.738  10.350 -0.3594 -0.6238 -0.1185
  943MOL0     C27209   5.040   3.670  10.312 -0.8957  0.7288  0.4624
  943MOL0     C27210   5.028   3.599  10.169 -1.0053  0.3702 -0.7707
  943MOL0     C27211   4.989   3.683  10.045 -0.2825 -0.1199 -0.0565
  943MOL0     C27212   4.837   3.679  10.026  0.1712 -0.1510  1.2127
  943MOL0     C27213   4.793   3.816   9.979  0.4343  0.0158 -0.1387
  943MOL0    Cl27214   4.864   3.852   9.820 -0.2209 -0.4214  0.3242
  943MOL0     C27215   4.538   3.762  10.656 -0.8930  0.1515 -0.0070
  943MOL0     C27216   4.404   3.781  10.687 -0.1722 -0.2863  0.6315
  943MOL0     O27217   4.143   3.900  10.495 -0.3642 -0.4120  0.0951
  943MOL0     C27218   3.877   3.953  10.570 -0.1590  0.6500  0.7970
  943MOL0     C27219   3.748   3.956  10.617 -0.6953 -0.4271  0.2098
  943MOL0     N27220   3.260   4.100  11.068 -0.6670 -1.1041  0.3299
  943MOL0     N27221   3.159   4.170  11.016 -0.3501 -0.5010 -0.1922
  943MOL0     C27222   3.723   5.217  10.955  0.2647  0.9202  0.4581
  943MOL0     C27223   3.789   5.342  10.959  0.5712  0.5823  0.8168
  943MOL0     C27224   3.995   5.732  10.762  0.7874 -0.0403 -0.5021
  943MOL0     C27225   4.103   5.720  10.845 -0.1277  0.2597 -0.5226
  943MOL0     C27226   4.213   5.803  10.831  0.1033  0.0534 -0.4195
  943MOL0     C27227   4.221   5.912  10.746 -0.1644  0.4238 -0.7747
  943MOL0     O27228   4.335   5.992  10.745  0.1633  0.4167 -0.0499
  943MOL0     C27229   4.374   6.070  10.633 -0.3227 -0.5584  0.4191
  943MOL0     C27230   4.426   5.985  10.516  0.0332 -0.2850 -1.2192
  943MOL0     C27231   4.572   5.933  10.529  0.3669  0.0395 -0.7835
  943MOL0     C27232   4.583   5.832  10.646 -0.1166 -0.0236 -0.2887
  943MOL0     C27233   4.714   5.770  10.639  0.6659  0.7290  0.0668
  943MOL0     C27234   4.827   5.737  10.657 -0.5458  0.3524  0.4245
  943MOL0     C27235   4.111   5.909  10.653 -0.0378  0.4470  0.0889
  943MOL0     C27236   4.007   5.818  10.654  0.3449 -0.2913  0.0008
  943MOL0     C27237   3.900   5.829  10.551 -0.3541 -0.4513 -0.6789
  943MOL0     H27238   3.823   5.400  10.629 -0.2888  2.0299  1.0398
  943MOL0     H27239   3.696   5.172  10.624 -0.7300 -2.6317  1.6272
  943MOL0     H27240   3.409   5.183  10.850 -0.5289 -1.2918  0.9205
  943MOL0     H27241   3.461   5.142  10.684 -1.8122 -2.1306 -1.2318
  943MOL0     H27242   3.421   4.909  10.724 -2.6772  0.0055 -1.0507
  943MOL0     H27243   3.278   5.007  10.723  0.8304 -3.1067 -2.1445
  943MOL0     H27244   3.234   5.010  10.959  0.7249  1.9093 -2.3088
  943MOL0     H27245   3.385   4.929  10.993 -0.5396  1.5014  0.6939
  943MOL0     H27246   3.160   4.806  11.012  1.9878  1.8640  1.6630
  943MOL0     H27247   3.133   4.806  10.842 -3.1753 -2.8364  3.9923
  943MOL0     H27248   3.318   4.702  10.768  0.1706 -0.3526 -0.2537
  943MOL0     H27249   3.379   4.675  10.946 -2.1146 -2.9310  1.7329
  943MOL0     H27250   3.140   4.569  10.796  0.0950 -0.3665 -1.0229
  943MOL0     H27251   3.270   4.471  10.854  0.0372 -0.3060  2.4199
  943MOL0     H27252   3.064   4.611  11.032 -0.9214 -0.3822  0.2155
  943MOL0     H27253   3.226   4.561  11.097  0.5599  2.4003 -0.4327
  943MOL0     H27254   3.006   4.419  11.104 -0.1787  2.0988 -1.4120
  943MOL0     H27255   3.031   4.397  10.938 -1.0002 -0.1324 -0.1579
  943MOL0     H27256   3.325   4.399  11.182  3.2448 -0.2476 -1.0863
  943MOL0     H27257   3.476   4.160  11.307  0.4069 -2.7853  0.2386
  943MOL0     H27258   3.485   4.030  11.207  0.8931  0.5450  1.7925
  943MOL0     H27259   3.595   4.293  11.133 -3.8520  0.3370 -1.5355
  943MOL0     H27260   3.691   4.141  11.155  2.8309  4.3598 -2.5160
  943MOL0     H27261   3.689   4.178  10.918 -1.2548 -0.4220 -2.2035
  943MOL0     H27262   3.521   4.204  10.922 -0.6766  0.6617  2.6240
  943MOL0     H27263   3.447   3.971  10.951 -1.0207  1.8311 -0.8173
  943MOL0     H27264   3.605   3.925  10.999 -4.7098 -3.5472  0.5261
  943MOL0     H27265   3.802   3.974  10.951 -2.9061 -0.0214 -1.4101
  943MOL0     H27266   4.030   3.967  10.878  0.2506  0.7619  0.1461
  943MOL0     H27267   4.412   4.123  10.656 -0.1090  0.9076 -1.0349
  943MOL0     H27268   4.656   4.084  10.614  0.1065 -0.2317  1.0263
  943MOL0     H27269   4.810   3.954  10.455  2.1200  1.0671  0.8704
  943MOL0     H27270   4.866   3.965  10.608 -1.4213 -0.0217  0.4364
  943MOL0     H27271   5.053   3.830  10.486  1.3311 -2.4888  1.8313
  943MOL0     H27272   4.958   3.715  10.576 -0.9309  0.3286  0.1732
  943MOL0     H27273   4.838   3.674  10.352 -0.8072 -0.0487 -1.0946
  943MOL0     H27274   4.921   3.818  10.276 -1.8603  1.2959  1.9402
  943MOL0     H27275   5.064   3.600  10.392  2.6298  2.5494  1.2093
  943MOL0     H27276   5.132   3.730  10.315 -0.4522  0.0950 -0.0437
  943MOL0     H27277   4.965   3.510  10.178  1.7332 -1.5399  0.8525
  943MOL0     H27278   5.129   3.563  10.144  0.8240  3.7774  1.0689
  943MOL0     H27279   5.026   3.785  10.055 -1.2168  0.4113 -1.7817
  943MOL0     H27280   5.026   3.637   9.953  0.8368 -0.5253  0.5704
  943MOL0     H27281   4.787   3.647  10.117 -1.4905 -0.6927  0.1520
  943MOL0     H27282   4.816   3.609   9.945  1.2309  2.7215 -1.8227
  943MOL0     H27283   4.683   3.815   9.977  0.2412 -5.0059  0.6375
  943MOL0     H27284   4.829   3.886  10.056  1.4716  0.2403 -0.8110
  943MOL0     H27285   4.562   3.658  10.680 -1.0074 -0.1345 -1.0719
  943MOL0     H27286   4.334   3.699  10.698  0.4252 -0.6029  2.4554
  943MOL0     H27287   3.893   3.931  10.465 -1.3332  0.1828  0.7051
  943MOL0     H27288   3.671   3.962  10.541 -1.1812 -0.4166  0.6974
  943MOL0     H27289   3.698   5.169  11.049 -0.1068 -2.4690 -1.2280
  943MOL0     H27290   3.815   5.393  11.051  1.2651  0.3963  0.7278
  943MOL0     H27291   4.105   5.640  10.919 -0.3753  0.3558 -0.4107
  943MOL0     H27292   4.293   5.788  10.902  0.3195  4.4384  0.5176
  943MOL0     H27293   4.454   6.142  10.654  0.7738 -0.8107 -2.4258
  943MOL0     H27294   4.301   6.140  10.591  1.7218 -0.6137 -3.6580
  943MOL0     H27295   4.428   6.049  10.428  1.3331  2.7790  0.8696
  943MOL0     H27296   4.355   5.902  10.502  0.9938 -1.7333  1.7034
  943MOL0     H27297   4.649   6.010  10.538 -0.7530  1.0957  0.1973
  943MOL0     H27298   4.600   5.876  10.441  2.1215  2.5614 -1.9683
  943MOL0     H27299   4.569   5.873  10.747  0.4030 -0.2042 -0.1336
  943MOL0     H27300   4.507   5.755  10.632 -0.2365  0.3055 -1.4636
  943MOL0     H27301   4.926   5.699  10.672  0.1192  2.2111  1.1653
  943MOL0     H27302   4.093   5.995  10.589 -3.9404  0.2035  0.5918
  943MOL0     H27303   3.879   5.728  10.514 -2.8516 -0.6735  1.1417
  943MOL0     H27304   3.814   5.871  10.603  1.4764  2.5701  0.1394
  943MOL0     H27305   3.922   5.879  10.456  0.2332 -2.4644 -1.6795
  944MOL0     O27306  10.611   6.657   2.718  0.0770  0.0855  0.3931
  944MOL0     C27307  10.641   6.594   2.825  0.0166 -1.0859 -0.5608
  944MOL0     O27308  10.651   6.653   2.956 -0.1825  0.2065  0.5493
  944MOL0     C27309  10.590   6.774   2.981  0.4880  0.5205  0.1066
  944MOL0     C27310  10.660   6.866   3.064  0.8524  0.3158 -0.7057
  944MOL0     C27311  10.596   6.987   3.104 -0.1342 -0.0028  0.0041
  944MOL0     C27312  10.471   7.026   3.053 -0.0590 -0.2317  0.7526
  944MOL0     O27313  10.416   7.148   3.078 -0.4383 -1.8296  0.1855
  944MOL0     C27314  10.459   7.226   3.201  0.2596  0.2892  0.0151
  944MOL0     C27315  10.430   7.374   3.202 -0.7913  0.7611  1.0396
  944MOL0     C27316  10.388   7.423   3.344 -0.9938 -0.4944 -0.0480
  944MOL0     C27317  10.234   7.408   3.383 -0.2361 -0.6458 -0.9872
  944MOL0     C27318  10.217   7.475   3.537  0.1118 -0.2930  1.8813
  944MOL0     C27319  10.125   7.601   3.529  0.2883  0.3821 -0.1725
  944MOL0     C27320  10.028   7.620   3.652 -0.3472 -0.6754 -0.3384
  944MOL0     C27321   9.902   7.528   3.656 -0.0442  0.1121  0.1280
  944MOL0     N27322   9.794   7.563   3.749  0.1944 -1.0630 -0.2225
  944MOL0     C27323   9.809   7.538   3.880  0.0799  0.6134  0.3066
  944MOL0     C27324   9.684   7.549   3.932  0.2316  0.5943 -0.4438
  944MOL0     C27325   9.645   7.515   4.066  0.0608  0.7791 -0.9267
  944MOL0     C27326   9.497   7.501   4.081 -0.1432  0.3630  0.2689
  944MOL0     C27327   9.463   7.451   4.227 -0.7640  0.0182  0.6228
  944MOL0     C27328   9.315   7.468   4.251 -0.2038  0.2885 -0.2176
  944MOL0     O27329   9.235   7.381   4.168 -0.1569  0.5754 -0.7937
  944MOL0     C27330   9.109   7.422   4.149  0.5851  0.8085 -0.6797
  944MOL0     C27331   9.054   7.434   4.024 -1.0156  0.4704 -0.1631
  944MOL0     C27332   8.929   7.476   3.999 -0.0123 -0.4852  0.5938
  944MOL0     C27333   8.841   7.505   4.104 -0.5069  0.2253  0.6094
  944MOL0     C27334   8.693   7.530   4.088  0.1313 -0.3314 -0.3059
  944MOL0     O27335   8.635   7.511   3.963 -0.4158 -0.4256  0.6154
  944MOL0     C27336   8.507   7.539   3.951  0.6428  0.8398  0.5787
  944MOL0     C27337   8.399   7.485   4.033  0.3775 -0.1963  0.2204
  944MOL0     C27338   8.267   7.514   4.014 -0.2689 -0.0010  0.5077
  944MOL0     C27339   8.235   7.589   3.896 -0.4690 -1.1463 -0.1113
  944MOL0     O27340   8.102   7.591   3.866 -0.0337  0.3824  0.3906
  944MOL0     C27341   8.046   7.624   3.741 -0.3483 -0.4281  0.2447
  944MOL0     C27342   7.891   7.611   3.740 -0.8806 -0.0572  0.4058
  944MOL0     C27343   7.827   7.682   3.863 -0.4597  0.6446  0.2714
  944MOL0     C27344   7.682   7.711   3.826  0.7713 -0.4496 -0.3029
  944MOL0     C27345   7.577   7.674   3.939 -0.2016  0.3478 -0.4413
  944MOL0     C27346   7.559   7.528   3.960  0.0184  0.1056 -0.3585
  944MOL0     C27347   7.464   7.491   4.077  0.0254  0.2677 -0.0843
  944MOL0     C27348   7.440   7.336   4.096 -1.0759 -0.3594  0.3348
  944MOL0    Cl27349   7.344   7.304   4.240  0.0405 -0.3720  0.1196
  944MOL0     C27350   8.342   7.653   3.820  0.5592 -0.8586 -0.9127
  944MOL0     C27351   8.467   7.624   3.855  1.1228  0.0388  0.7648
  944MOL0     O27352   8.636   7.571   4.190 -0.6458 -0.3940 -0.0647
  944MOL0     C27353   8.894   7.500   4.229 -0.6070 -0.2586  0.4284
  944MOL0     C27354   9.024   7.442   4.257  0.2568  1.0145  0.3079
  944MOL0     N27355   9.602   7.609   3.831 -0.2162 -0.4396 -0.5649
  944MOL0     N27356   9.674   7.611   3.718 -0.3919  0.3009 -0.2985
  944MOL0     C27357  10.404   6.937   2.965  0.9637 -0.8552 -0.2810
  944MOL0     C27358  10.462   6.808   2.931 -0.8019 -0.2397  0.5782
  944MOL0     C27359  10.696   6.461   2.811  1.1616  0.2367  0.3796
  944MOL0     C27360  10.611   6.361   2.758  0.6457  0.6778 -0.9638
  944MOL0     C27361  10.647   6.228   2.776 -1.0712  0.2008 -0.0760
  944MOL0     C27362  10.771   6.190   2.821  0.3266 -0.5289 -0.0122
  944MOL0     O27363  10.789   6.049   2.835  0.7341 -0.8565 -0.2954
  944MOL0     C27364  10.922   6.004   2.814 -0.1638 -0.1075 -0.2129
  944MOL0     C27365  10.955   5.884   2.903  0.1072  0.6301  0.9120
  944MOL0     C27366  10.922   5.755   2.844  0.0604 -0.1452 -0.3188
  944MOL0     C27367  10.982   5.651   2.940 -0.0542  1.4545  0.4214
  944MOL0     C27368  10.941   5.521   2.890  0.4152 -0.0034 -0.0191
  944MOL0     C27369  10.895   5.419   2.844 -1.0446 -0.0828 -0.7912
  944MOL0     C27370  10.860   6.288   2.861 -0.7673  0.7430 -0.1704
  944MOL0     C27371  10.823   6.420   2.849 -0.1691 -1.1810  0.6284
  944MOL0     C27372  10.915   6.537   2.892 -0.6947  0.1011  1.5552
  944MOL0     H27373  10.748   6.846   3.125 -0.0343  0.3904  0.6571
  944MOL0     H27374  10.656   7.044   3.173  1.1124 -1.7260  0.4082
  944MOL0     H27375  10.421   7.171   3.287 -0.9001 -1.1578 -1.3610
  944MOL0     H27376  10.568   7.218   3.201  0.5130 -2.3774 -6.4646
  944MOL0     H27377  10.342   7.400   3.142  0.4582 -1.5377 -2.0787
  944MOL0     H27378  10.518   7.428   3.166 -0.2226 -1.5006 -1.3572
  944MOL0     H27379  10.415   7.529   3.349 -1.3344 -0.2220 -2.5391
  944MOL0     H27380  10.446   7.369   3.419  0.2595 -0.0565 -0.6738
  944MOL0     H27381  10.173   7.442   3.300 -2.0055 -0.4071  0.3612
  944MOL0     H27382  10.202   7.305   3.403 -1.0072  0.2557  3.4899
  944MOL0     H27383  10.159   7.400   3.591  1.1428 -0.6652  2.5053
  944MOL0     H27384  10.311   7.498   3.587 -0.1136  0.8340  1.8202
  944MOL0     H27385  10.186   7.691   3.517 -1.8566  1.7430 -1.6901
  944MOL0     H27386  10.054   7.601   3.446 -1.3159 -0.5084  1.1597
  944MOL0     H27387   9.998   7.725   3.656  1.4240 -0.1434  2.9946
  944MOL0     H27388  10.080   7.581   3.740 -4.2107 -2.1032  1.5568
  944MOL0     H27389   9.855   7.542   3.558  0.4640 -1.3971 -0.3607
  944MOL0     H27390   9.941   7.427   3.671  1.4428  0.9208  2.1527
  944MOL0     H27391   9.899   7.504   3.930 -1.9414 -2.1392  2.3883
  944MOL0     H27392   9.695   7.432   4.116 -0.7984  0.7147 -0.1525
  944MOL0     H27393   9.664   7.600   4.131  0.9145  0.2229 -0.4328
  944MOL0     H27394   9.450   7.594   4.046 -0.3276 -0.4459 -1.7686
  944MOL0     H27395   9.462   7.421   4.016  1.2158 -0.3059  0.3366
  944MOL0     H27396   9.524   7.512   4.295  1.1528  0.9472 -1.7808
  944MOL0     H27397   9.487   7.346   4.241  0.0381 -0.0448 -0.9870
  944MOL0     H27398   9.289   7.566   4.211 -0.7915 -0.2938 -1.3202
  944MOL0     H27399   9.294   7.449   4.356  2.6023 -3.8218 -0.1836
  944MOL0     H27400   9.114   7.423   3.934 -2.9375  0.3053 -1.4801
  944MOL0     H27401   8.892   7.491   3.898 -0.8200 -0.5295  0.8764
  944MOL0     H27402   8.423   7.419   4.115 -0.0281  1.2311  1.5381
  944MOL0     H27403   8.191   7.469   4.077  1.3264 -1.1562  1.7011
  944MOL0     H27404   8.085   7.721   3.709 -1.4102  0.2856  1.0173
  944MOL0     H27405   8.077   7.555   3.662 -1.9518  0.9432 -1.7125
  944MOL0     H27406   7.849   7.650   3.647  0.1362  2.4877  0.9318
  944MOL0     H27407   7.861   7.506   3.750 -0.9990 -0.1051 -0.3710
  944MOL0     H27408   7.843   7.622   3.953 -1.2624 -3.8583 -2.2660
  944MOL0     H27409   7.876   7.779   3.876  0.0917  0.0338  3.5233
  944MOL0     H27410   7.647   7.670   3.731 -0.9743  1.3992 -0.5200
  944MOL0     H27411   7.669   7.819   3.822 -1.2638 -0.5075  2.0460
  944MOL0     H27412   7.482   7.717   3.904  1.0101  2.0451 -1.8241
  944MOL0     H27413   7.593   7.723   4.035 -2.2366  2.2421 -0.9868
  944MOL0     H27414   7.522   7.488   3.865 -1.0797 -0.8839  0.4500
  944MOL0     H27415   7.655   7.477   3.975 -0.5485 -1.2810 -1.1731
  944MOL0     H27416   7.365   7.537   4.068 -0.4758 -0.9673 -1.1201
  944MOL0     H27417   7.519   7.525   4.165  2.8437 -3.4816 -0.1762
  944MOL0     H27418   7.394   7.305   4.001 -1.3543  3.9231 -1.1635
  944MOL0     H27419   7.534   7.289   4.123 -1.7156 -0.4815  2.5145
  944MOL0     H27420   8.300   7.705   3.734 -1.7497 -2.0496 -0.5882
  944MOL0     H27421   8.554   7.660   3.802  1.9439 -4.2437 -1.2203
  944MOL0     H27422   8.826   7.513   4.312 -2.1035  1.5626 -1.0162
  944MOL0     H27423   9.047   7.420   4.361  0.8694  1.3940  0.2560
  944MOL0     H27424  10.305   6.961   2.929  0.0206  0.0374  2.6750
  944MOL0     H27425  10.409   6.748   2.858  0.3481 -4.4042  2.8657
  944MOL0     H27426  10.513   6.389   2.722  0.2791 -1.4710 -1.8307
  944MOL0     H27427  10.588   6.149   2.731 -0.6180  0.2081 -0.7098
  944MOL0     H27428  11.001   6.080   2.818 -1.6549  1.4514  0.2908
  944MOL0     H27429  10.928   5.970   2.710 -0.7450 -0.5606 -0.1007
  944MOL0     H27430  10.909   5.909   2.999  2.8606  1.1054  2.2173
  944MOL0     H27431  11.062   5.886   2.927  0.7457 -0.6720 -1.4918
  944MOL0     H27432  10.942   5.752   2.737 -4.2516  3.8622 -1.5685
  944MOL0     H27433  10.813   5.766   2.849  0.0727  0.0430 -0.4488
  944MOL0     H27434  11.091   5.645   2.945 -0.1707 -1.0875  2.9679
  944MOL0     H27435  10.939   5.671   3.039 -2.6969 -1.2962 -0.0074
  944MOL0     H27436  10.854   5.327   2.807  1.3746 -1.1646 -0.9827
  944MOL0     H27437  10.955   6.258   2.905 -0.2081  2.9668  0.2331
  944MOL0     H27438  10.904   6.615   2.816 -2.8619  0.3919  2.1079
  944MOL0     H27439  10.895   6.579   2.991  1.6740  0.6186  1.8760
  944MOL0     H27440  11.020   6.507   2.889 -0.3063  1.4373 -0.1165
  945MOL0     O27441  11.142   6.088   2.532 -0.3223  0.0072 -0.0164
  945MOL0     C27442  11.210   6.105   2.634  0.2570  0.9012  1.3021
  945MOL0     O27443  11.246   6.220   2.690 -0.1497 -0.5982  0.3632
  945MOL0     C27444  11.185   6.338   2.640 -0.4159  0.2930 -0.3690
  945MOL0     C27445  11.046   6.354   2.601 -0.7306  0.7478 -0.2892
  945MOL0     C27446  10.999   6.486   2.567  0.8293 -0.3286 -0.0417
  945MOL0     C27447  11.088   6.591   2.565 -0.7744 -0.8732 -0.0047
  945MOL0     O27448  11.045   6.713   2.529 -0.0520 -0.3973  0.0773
  945MOL0     C27449  11.076   6.760   2.399 -0.1059 -0.1229  0.5858
  945MOL0     C27450  11.038   6.663   2.287 -1.1154  0.4314  0.2947
  945MOL0     C27451  11.068   6.719   2.152 -0.7485  0.1549  1.1460
  945MOL0     C27452  11.008   6.636   2.025  0.3209 -0.3496 -0.9687
  945MOL0     C27453  11.073   6.690   1.903  0.0194  0.1781  0.3346
  945MOL0     C27454  11.052   6.611   1.777 -0.2842 -0.4395 -0.1473
  945MOL0     C27455  10.905   6.597   1.746 -0.6198  0.3307 -1.0346
  945MOL0     C27456  10.868   6.561   1.612 -0.5053 -0.5104  0.6149
  945MOL0     N27457  10.933   6.448   1.549 -0.4971  0.6766 -0.2817
  945MOL0     C27458  11.008   6.440   1.433  0.3506  0.1786  0.7085
  945MOL0     C27459  11.050   6.307   1.439 -0.0497 -0.5354 -0.6054
  945MOL0     C27460  11.170   6.251   1.368 -0.4670 -0.5084 -0.9216
  945MOL0     C27461  11.212   6.313   1.226  1.0058  0.0339 -0.4990
  945MOL0     C27462  11.359   6.296   1.194  0.3317 -0.6229 -0.0639
  945MOL0     C27463  11.389   6.290   1.045 -0.0018  0.7180 -0.0939
  945MOL0     O27464  11.347   6.173   0.975 -1.1332  0.4778  0.3708
  945MOL0     C27465  11.429   6.131   0.873 -1.0451  0.5373 -0.5993
  945MOL0     C27466  11.461   6.214   0.762 -0.5936 -0.4481  0.0247
  945MOL0     C27467  11.551   6.182   0.660  0.6237 -0.2559 -0.5567
  945MOL0     C27468  11.613   6.055   0.653 -0.0121  0.1702  0.1083
  945MOL0     C27469  11.701   6.010   0.542 -0.0753  0.6204 -0.0321
  945MOL0     O27470  11.719   6.087   0.431  0.2415 -0.2469 -0.2523
  945MOL0     C27471  11.803   6.057   0.325 -0.0065 -0.5934  0.3681
  945MOL0     C27472  11.762   6.114   0.206 -0.4106 -0.8185  1.0192
  945MOL0     C27473  11.858   6.101   0.099  0.0207 -0.5720  0.6437
  945MOL0     C27474  11.982   6.037   0.109 -1.4043  0.4867 -0.1046
  945MOL0     O27475  12.077   6.007   0.015 -0.3203 -0.0987 -0.2831
  945MOL0     C27476  12.060   6.026  -0.123 -0.2577  0.1832  0.3695
  945MOL0     C27477  12.185   5.991  -0.190 -0.0406  0.2184 -0.0403
  945MOL0     C27478  12.165   6.002  -0.339  0.3403  0.4035 -1.0345
  945MOL0     C27479  12.299   6.007  -0.404 -0.6191 -0.3606  0.5562
  945MOL0     C27480  12.291   5.990  -0.563 -0.0768 -0.8199  0.3746
  945MOL0     C27481  12.431   6.011  -0.619 -0.2593 -0.6783  0.7474
  945MOL0     C27482  12.446   5.973  -0.777  0.0951  0.1273 -0.0871
  945MOL0     C27483  12.584   5.922  -0.828  0.3865  0.9976 -0.9200
  945MOL0    Cl27484  12.710   6.051  -0.805  0.1159 -0.3020  0.3198
  945MOL0     C27485  12.013   5.977   0.234 -0.3600 -0.4598 -0.1594
  945MOL0     C27486  11.930   5.986   0.340 -0.1467 -0.3583  0.2637
  945MOL0     O27487  11.737   5.892   0.551 -0.0035 -0.0896 -0.1578
  945MOL0     C27488  11.590   5.971   0.768 -0.0971 -0.4999  0.3990
  945MOL0     C27489  11.510   6.013   0.875  0.3025  0.0562  0.4238
  945MOL0     N27490  10.991   6.237   1.544 -0.7805 -0.6652  0.1527
  945MOL0     N27491  10.931   6.324   1.611 -0.8254  0.3708  0.1167
  945MOL0     C27492  11.221   6.581   2.609  0.3901 -0.7817  0.2319
  945MOL0     C27493  11.267   6.454   2.641  0.7812 -0.4664 -0.5670
  945MOL0     C27494  11.252   5.985   2.707 -0.3284 -0.0085 -0.1687
  945MOL0     C27495  11.286   6.006   2.847 -0.5301 -0.3676  0.1587
  945MOL0     C27496  11.315   5.898   2.937 -0.2819 -0.0480  0.0272
  945MOL0     C27497  11.320   5.765   2.880 -0.5385 -0.0631  0.3581
  945MOL0     O27498  11.347   5.664   2.967  0.2098 -0.1512  0.6480
  945MOL0     C27499  11.384   5.528   2.927  0.3681 -1.1585 -0.7411
  945MOL0     C27500  11.528   5.518   2.882 -0.1785 -1.0442 -0.0795
  945MOL0     C27501  11.630   5.589   2.972 -0.3400 -0.1194  0.1396
  945MOL0     C27502  11.774   5.542   2.922  1.1044 -0.1941  0.2716
  945MOL0     C27503  11.821   5.603   2.791  1.1756 -0.4386 -0.5893
  945MOL0     C27504  11.875   5.658   2.696 -0.0839 -0.1034 -0.1015
  945MOL0     C27505  11.293   5.743   2.744  0.0608  0.6822  0.9200
  945MOL0     C27506  11.254   5.847   2.656 -0.1896  0.4729  0.3506
  945MOL0     C27507  11.193   5.799   2.526  0.4054  0.3279  0.1325
  945MOL0     H27508  10.963   6.283   2.604 -1.5166  1.6685  1.5841
  945MOL0     H27509  10.897   6.511   2.541  0.3606  0.3214  2.2229
  945MOL0     H27510  11.015   6.847   2.374  1.1126  0.4807 -0.3796
  945MOL0     H27511  11.181   6.791   2.397  0.5890 -1.9834  3.0516
  945MOL0     H27512  10.937   6.623   2.292 -0.7395 -0.3500  2.6420
  945MOL0     H27513  11.100   6.573   2.294 -1.7347 -0.0843 -0.5565
  945MOL0     H27514  11.174   6.726   2.127 -0.9899  1.0650  0.2927
  945MOL0     H27515  11.044   6.824   2.135 -3.9087 -0.7564 -0.9144
  945MOL0     H27516  11.030   6.529   2.035  1.2935  0.0333  2.5502
  945MOL0     H27517  10.899   6.638   2.014  0.3553  0.0277 -1.2624
  945MOL0     H27518  11.034   6.790   1.881 -2.0586 -0.0584  2.5340
  945MOL0     H27519  11.180   6.696   1.928  0.0322  2.0137  0.0389
  945MOL0     H27520  11.100   6.672   1.700  3.5182 -3.3506 -0.4005
  945MOL0     H27521  11.104   6.516   1.765  1.0908  0.5675 -3.3246
  945MOL0     H27522  10.849   6.690   1.759 -0.9085  0.5423 -3.2711
  945MOL0     H27523  10.860   6.522   1.811  1.7274 -1.7901 -1.7131
  945MOL0     H27524  10.763   6.532   1.617 -0.5094 -0.3243  3.6860
  945MOL0     H27525  10.882   6.637   1.535  3.3185 -1.4909  0.1191
  945MOL0     H27526  11.029   6.519   1.360 -1.4995 -0.9796 -1.1760
  945MOL0     H27527  11.237   6.270   1.452 -2.7938  1.1472  0.6697
  945MOL0     H27528  11.181   6.142   1.361  0.2213 -0.7218  2.2779
  945MOL0     H27529  11.148   6.282   1.143  0.1071 -0.2916  0.2928
  945MOL0     H27530  11.214   6.422   1.235  1.4366 -0.1637  3.2166
  945MOL0     H27531  11.410   6.210   1.238  1.1147  1.0227  2.4875
  945MOL0     H27532  11.408   6.381   1.242 -0.4613 -0.1864 -0.0235
  945MOL0     H27533  11.495   6.318   1.042 -0.2177  2.4914  3.1764
  945MOL0     H27534  11.335   6.374   1.001  0.0469  0.4083 -0.7562
  945MOL0     H27535  11.411   6.310   0.748 -0.0059 -0.2348 -0.6689
  945MOL0     H27536  11.566   6.242   0.571 -1.3184  1.7216  0.3383
  945MOL0     H27537  11.674   6.175   0.193  2.3177  3.4122  0.4053
  945MOL0     H27538  11.831   6.145   0.003 -0.7083  0.6729  1.3963
  945MOL0     H27539  11.982   5.956  -0.155 -0.7943 -0.0687  2.1206
  945MOL0     H27540  12.029   6.130  -0.138 -4.1729 -1.1831 -3.2036
  945MOL0     H27541  12.271   6.042  -0.145  0.7776 -2.4515  1.6254
  945MOL0     H27542  12.216   5.888  -0.172  0.4816  0.7533  2.5139
  945MOL0     H27543  12.107   5.924  -0.388 -1.5021  2.6791 -2.7559
  945MOL0     H27544  12.115   6.095  -0.369  0.8210  0.6650 -1.0437
  945MOL0     H27545  12.367   5.933  -0.362  1.9276  0.9852 -0.9105
  945MOL0     H27546  12.346   6.102  -0.376 -1.2550 -0.3381  1.5930
  945MOL0     H27547  12.218   6.058  -0.608  0.9572  1.5034  1.9859
  945MOL0     H27548  12.262   5.887  -0.584  0.1445 -0.2687 -3.4710
  945MOL0     H27549  12.451   6.114  -0.586  0.4285 -0.0825 -1.3698
  945MOL0     H27550  12.504   5.952  -0.563 -0.1993 -1.0835  0.2453
  945MOL0     H27551  12.428   6.068  -0.828 -0.7163  0.7130  1.2524
  945MOL0     H27552  12.370   5.903  -0.813 -1.2542  0.4825  1.9245
  945MOL0     H27553  12.617   5.830  -0.778  2.9153  1.1857 -2.0953
  945MOL0     H27554  12.573   5.896  -0.934  1.2371  1.6716 -1.1799
  945MOL0     H27555  12.110   5.927   0.238 -1.0545 -1.7940  0.6271
  945MOL0     H27556  11.962   5.939   0.432 -0.2212 -0.3031  0.3174
  945MOL0     H27557  11.645   5.878   0.779  0.1685 -0.2148  1.7498
  945MOL0     H27558  11.496   5.956   0.966 -2.2741  0.6788  0.4973
  945MOL0     H27559  11.266   6.679   2.622 -0.1306 -0.6453  1.1040
  945MOL0     H27560  11.365   6.445   2.684 -1.4276 -1.7252  4.9940
  945MOL0     H27561  11.285   6.107   2.885 -0.0225 -0.5969  0.8062
  945MOL0     H27562  11.336   5.915   3.042 -0.5421 -0.2716  0.1153
  945MOL0     H27563  11.323   5.502   2.839  1.2296  0.3916 -1.8387
  945MOL0     H27564  11.381   5.452   3.006  2.2325 -0.5978 -0.0937
  945MOL0     H27565  11.532   5.561   2.781  0.1796 -1.8818 -0.4277
  945MOL0     H27566  11.550   5.412   2.866  1.7212 -0.9737  1.6443
  945MOL0     H27567  11.616   5.568   3.078 -1.5589 -2.0359 -0.3480
  945MOL0     H27568  11.614   5.696   2.956  0.3971  0.6676  3.8678
  945MOL0     H27569  11.853   5.572   2.992  0.8684 -3.9575  2.4174
  945MOL0     H27570  11.785   5.434   2.904 -1.2674 -0.1052 -2.5546
  945MOL0     H27571  11.934   5.707   2.622 -1.8919  3.2059  0.4216
  945MOL0     H27572  11.304   5.643   2.704 -0.1553  0.6735  0.8787
  945MOL0     H27573  11.205   5.875   2.449 -1.6835 -0.4924 -1.0791
  945MOL0     H27574  11.237   5.707   2.485 -1.3281  1.0934 -3.9596
  945MOL0     H27575  11.085   5.788   2.523  0.4850 -0.4465 -0.4955
  946MOL0     O27576   1.842   9.750   6.453  0.4024 -0.1528 -0.0161
  946MOL0     C27577   1.948   9.696   6.454  0.1340  0.3186  0.0061
  946MOL0     O27578   1.974   9.565   6.435 -0.1268  0.0893  0.5770
  946MOL0     C27579   1.875   9.473   6.429  0.1551 -0.1023 -0.4153
  946MOL0     C27580   1.738   9.491   6.390 -0.5140 -0.3423 -0.5035
  946MOL0     C27581   1.648   9.387   6.387 -1.2678 -0.7523 -0.1861
  946MOL0     C27582   1.695   9.257   6.416  0.5758 -0.0513  0.5900
  946MOL0     O27583   1.608   9.156   6.418  0.0933  0.8940 -0.3626
  946MOL0     C27584   1.468   9.161   6.430 -0.0832 -0.6166  0.9447
  946MOL0     C27585   1.424   9.185   6.576  0.4912 -0.2598  0.0762
  946MOL0     C27586   1.295   9.117   6.618 -0.0059 -0.6415 -0.4780
  946MOL0     C27587   1.308   8.963   6.647  0.5117 -0.8640  0.0855
  946MOL0     C27588   1.168   8.899   6.664  0.1499 -0.1924 -0.6648
  946MOL0     C27589   1.082   8.896   6.536  0.5466 -0.3553 -0.3516
  946MOL0     C27590   1.065   8.765   6.475  0.4057  1.0681  0.1670
  946MOL0     C27591   0.979   8.669   6.560  0.6550 -0.0167  0.6335
  946MOL0     N27592   0.940   8.555   6.474  0.4991  0.7860  0.2634
  946MOL0     C27593   1.012   8.432   6.467 -0.0864 -0.0851  0.0125
  946MOL0     C27594   0.926   8.363   6.385  0.3189  0.1289  0.1133
  946MOL0     C27595   0.926   8.212   6.345 -0.5397  0.3698 -0.0242
  946MOL0     C27596   0.829   8.128   6.431  0.4894  0.6337 -0.3002
  946MOL0     C27597   0.671   8.172   6.430  0.2546  0.6257  1.4981
  946MOL0     C27598   0.613   8.146   6.283  0.6211  0.3083 -0.9144
  946MOL0     O27599   0.468   8.145   6.282 -0.3599  0.0476  0.4527
  946MOL0     C27600   0.388   8.069   6.360  0.0453  0.9132 -0.2926
  946MOL0     C27601   0.265   8.125   6.398 -0.3481 -0.0495  0.7034
  946MOL0     C27602   0.176   8.063   6.474  0.1575  0.0460 -0.2765
  946MOL0     C27603   0.201   7.933   6.509  0.1742 -0.4025 -0.2987
  946MOL0     C27604   0.097   7.857   6.585  0.6026 -0.3097  0.6881
  946MOL0     O27605  -0.013   7.817   6.509  0.3816 -0.5226  0.0202
  946MOL0     C27606  -0.140   7.828   6.570  0.0981  1.1473 -0.3910
  946MOL0     C27607  -0.170   7.775   6.697  0.3634  0.1886  1.7139
  946MOL0     C27608  -0.297   7.783   6.754 -0.3284 -0.0468  0.0080
  946MOL0     C27609  -0.402   7.827   6.679  0.9572  0.2683 -0.4814
  946MOL0     O27610  -0.526   7.845   6.739  0.3867 -1.1757 -0.0247
  946MOL0     C27611  -0.564   7.761   6.852  1.2225 -0.4594  0.1211
  946MOL0     C27612  -0.700   7.800   6.905  0.8239 -0.1011  0.3572
  946MOL0     C27613  -0.693   7.862   7.050  0.4931  1.2829  0.1246
  946MOL0     C27614  -0.679   7.762   7.160  0.2553 -0.2727 -0.7884
  946MOL0     C27615  -0.653   7.825   7.301  0.4028  0.7881  0.4803
  946MOL0     C27616  -0.545   7.933   7.302 -0.1858 -0.6579  0.2882
  946MOL0     C27617  -0.520   7.992   7.447  0.2498  0.8567  0.0325
  946MOL0     C27618  -0.401   8.087   7.452  0.0800 -0.6640  0.2004
  946MOL0    Cl27619  -0.261   7.988   7.476  0.4262  0.3007  0.3038
  946MOL0     C27620  -0.382   7.877   6.551  0.5981  0.4485 -0.9455
  946MOL0     C27621  -0.250   7.868   6.501  0.2022  0.2584  1.3050
  946MOL0     O27622   0.115   7.838   6.707 -0.2248  0.2216 -0.2393
  946MOL0     C27623   0.325   7.877   6.484 -0.0834  0.4183  0.3651
  946MOL0     C27624   0.422   7.947   6.420  0.1570  0.2170  0.0913
  946MOL0     N27625   0.824   8.441   6.341 -0.0705  0.8977  0.7414
  946MOL0     N27626   0.835   8.557   6.391 -0.6714 -0.0489 -0.5245
  946MOL0     C27627   1.834   9.234   6.441  0.1888  0.0726 -0.1751
  946MOL0     C27628   1.922   9.341   6.439 -0.4663  0.9161  0.3909
  946MOL0     C27629   2.066   9.772   6.473  0.6406  0.4724 -0.0489
  946MOL0     C27630   2.185   9.739   6.404 -0.0951  0.5152  0.1468
  946MOL0     C27631   2.300   9.820   6.410  0.0176  0.0680 -0.0060
  946MOL0     C27632   2.301   9.936   6.489 -0.1790 -0.7989  0.8870
  946MOL0     O27633   2.404  10.026   6.466 -0.1976  0.6555 -0.8362
  946MOL0     C27634   2.405  10.133   6.555  0.9539 -0.6068  0.1105
  946MOL0     C27635   2.512  10.224   6.500  0.3558  0.0751  0.1490
  946MOL0     C27636   2.657  10.161   6.491  0.6817 -0.8981 -0.2286
  946MOL0     C27637   2.757  10.238   6.417  0.8807  1.0788  0.4701
  946MOL0     C27638   2.787  10.356   6.500 -1.0119  0.2093 -0.2935
  946MOL0     C27639   2.800  10.465   6.560 -0.3732 -0.0744 -0.6909
  946MOL0     C27640   2.182   9.966   6.561 -0.8772 -0.3585 -0.8821
  946MOL0     C27641   2.074   9.883   6.557  0.5943  0.2172 -0.3671
  946MOL0     C27642   1.963   9.934   6.649 -0.7867 -0.7209 -0.1277
  946MOL0     H27643   1.692   9.589   6.396 -1.3066 -0.8046  1.7309
  946MOL0     H27644   1.542   9.406   6.373 -1.7067  0.4492  3.5457
  946MOL0     H27645   1.429   9.235   6.358  0.0884 -0.2767  1.1985
  946MOL0     H27646   1.428   9.066   6.394 -0.2994 -0.7875  1.6240
  946MOL0     H27647   1.424   9.290   6.607 -2.2904 -0.0375 -0.3903
  946MOL0     H27648   1.502   9.142   6.639 -0.6202 -0.2263  1.5328
  946MOL0     H27649   1.203   9.129   6.560  1.8336  3.6155 -2.9945
  946MOL0     H27650   1.278   9.158   6.718  0.7309 -1.4679 -0.0077
  946MOL0     H27651   1.359   8.909   6.566 -1.1210 -3.8659  0.9128
  946MOL0     H27652   1.364   8.959   6.740  0.9868 -1.3784 -0.2193
  946MOL0     H27653   1.182   8.800   6.709 -2.0387 -0.5558 -0.6433
  946MOL0     H27654   1.121   8.967   6.737  0.4117 -0.5771 -0.1284
  946MOL0     H27655   0.986   8.932   6.574  1.7362  0.6704  1.9188
  946MOL0     H27656   1.130   8.962   6.463  1.4128 -2.5468 -1.8953
  946MOL0     H27657   1.168   8.728   6.474  0.0055 -0.2794 -2.5166
  946MOL0     H27658   1.038   8.781   6.370  0.2709  0.0891  0.0445
  946MOL0     H27659   1.034   8.642   6.650  2.8346 -0.0104 -0.6007
  946MOL0     H27660   0.888   8.714   6.599 -0.7066 -0.2540 -2.0369
  946MOL0     H27661   1.104   8.393   6.509  0.9449 -0.0765 -2.1001
  946MOL0     H27662   0.896   8.195   6.241 -0.5940  1.2451 -0.1571
  946MOL0     H27663   1.030   8.181   6.356 -0.5713 -1.0289 -2.8888
  946MOL0     H27664   0.840   8.023   6.404 -0.4756 -0.1743  2.2427
  946MOL0     H27665   0.869   8.136   6.532  0.8135 -1.0931 -0.2602
  946MOL0     H27666   0.657   8.274   6.466  3.9353  2.1311 -0.7959
  946MOL0     H27667   0.605   8.114   6.496 -2.6415  0.7296 -1.0813
  946MOL0     H27668   0.656   8.060   6.231 -2.1862 -0.6746 -1.7972
  946MOL0     H27669   0.651   8.226   6.218 -0.7007 -0.4409 -2.7110
  946MOL0     H27670   0.249   8.227   6.364  0.3402 -0.3801 -0.7234
  946MOL0     H27671   0.079   8.106   6.495  1.1648  2.1771  0.3656
  946MOL0     H27672  -0.091   7.741   6.764  2.4661  2.5318  0.5671
  946MOL0     H27673  -0.304   7.777   6.862 -3.6255  0.6110 -0.0396
  946MOL0     H27674  -0.573   7.657   6.820 -2.0627 -0.7148  1.4358
  946MOL0     H27675  -0.498   7.780   6.937  0.7472  3.5805 -0.1996
  946MOL0     H27676  -0.746   7.868   6.832  0.9231  0.7856  1.1120
  946MOL0     H27677  -0.759   7.707   6.907  1.6922 -0.7864 -1.9515
  946MOL0     H27678  -0.616   7.939   7.040  0.0851  1.4354 -2.7183
  946MOL0     H27679  -0.786   7.913   7.075  1.0255  1.7638  1.1636
  946MOL0     H27680  -0.605   7.684   7.139  0.0616  0.1829 -3.5166
  946MOL0     H27681  -0.774   7.716   7.185 -0.6132  2.5866  1.7975
  946MOL0     H27682  -0.629   7.736   7.361 -2.9794 -0.3933  0.2658
  946MOL0     H27683  -0.746   7.855   7.350 -0.1433 -0.6395  0.3628
  946MOL0     H27684  -0.458   7.881   7.259  1.0711  1.2117  0.4427
  946MOL0     H27685  -0.572   8.019   7.240  5.4982  1.7338  0.4500
  946MOL0     H27686  -0.515   7.907   7.516  0.6080 -0.2634 -1.3130
  946MOL0     H27687  -0.610   8.048   7.474 -2.5906 -3.5199  0.8447
  946MOL0     H27688  -0.391   8.145   7.359 -1.8556  0.8702  0.8783
  946MOL0     H27689  -0.400   8.162   7.531 -0.1617 -0.2134 -0.2181
  946MOL0     H27690  -0.456   7.918   6.483 -0.9655  0.7851  0.8592
  946MOL0     H27691  -0.246   7.881   6.393 -1.7450 -1.9475  0.8810
  946MOL0     H27692   0.352   7.775   6.510 -0.5084 -0.0559 -0.9925
  946MOL0     H27693   0.513   7.898   6.387  0.1600 -0.2872  0.8416
  946MOL0     H27694   1.861   9.129   6.453  3.6432  0.7983 -0.6920
  946MOL0     H27695   2.030   9.327   6.442 -0.2948  1.7392 -0.9007
  946MOL0     H27696   2.188   9.654   6.338 -0.7258 -0.0398  0.8207
  946MOL0     H27697   2.385   9.796   6.346  0.7526 -0.1323  1.0267
  946MOL0     H27698   2.423  10.111   6.661  0.0215 -0.0355  0.4089
  946MOL0     H27699   2.314  10.193   6.544 -1.0398 -3.2268  1.2483
  946MOL0     H27700   2.516  10.313   6.564  1.3811  0.4248 -0.3775
  946MOL0     H27701   2.482  10.247   6.398  2.7329  0.6647 -0.4833
  946MOL0     H27702   2.642  10.071   6.431 -1.7355 -0.1979 -0.8249
  946MOL0     H27703   2.699  10.140   6.589  2.5312 -0.1233 -0.8064
  946MOL0     H27704   2.845  10.176   6.397  0.0899 -0.4447  1.5619
  946MOL0     H27705   2.723  10.253   6.314 -0.7577 -2.5003  0.3679
  946MOL0     H27706   2.833  10.557   6.602  1.3686 -1.1824  0.5368
  946MOL0     H27707   2.178  10.053   6.626  0.2558 -1.0546  0.2022
  946MOL0     H27708   1.917   9.853   6.706 -1.8057  1.2868  2.0721
  946MOL0     H27709   1.995  10.019   6.710 -0.0865  1.8622 -3.7474
  946MOL0     H27710   1.887   9.977   6.583 -2.3070 -3.3575 -0.2487
  947MOL0     O27711  10.677   1.995   6.876  0.6805  0.3453  0.3359
  947MOL0     C27712  10.712   2.071   6.969  0.0693  0.5645  0.0325
  947MOL0     O27713  10.661   2.201   6.988  0.1231  0.1101  0.6542
  947MOL0     C27714  10.575   2.266   6.906 -0.7011  1.0407  0.1606
  947MOL0     C27715  10.565   2.400   6.931 -0.5937 -1.1510  0.0104
  947MOL0     C27716  10.483   2.488   6.862  0.0729 -0.0094 -0.2568
  947MOL0     C27717  10.416   2.435   6.747  0.1999  0.1058  0.0483
  947MOL0     O27718  10.342   2.524   6.679  0.6630  0.4097  0.4665
  947MOL0     C27719  10.263   2.482   6.565 -0.0138  0.3887 -0.5257
  947MOL0     C27720  10.249   2.591   6.457 -0.4254 -0.5514 -1.1338
  947MOL0     C27721  10.152   2.555   6.352 -0.0652  0.4892 -0.3387
  947MOL0     C27722  10.004   2.573   6.406  0.4830  0.0485 -0.2742
  947MOL0     C27723   9.903   2.546   6.299  0.3075  0.1871 -0.3589
  947MOL0     C27724   9.930   2.617   6.162  1.0737  0.2337  0.7968
  947MOL0     C27725   9.916   2.767   6.170  0.2906 -0.3371 -0.2383
  947MOL0     C27726   9.947   2.834   6.035  0.2307 -0.1706  0.5064
  947MOL0     N27727  10.068   2.782   5.971 -0.2033  0.2686  0.1874
  947MOL0     C27728  10.072   2.692   5.867  0.1510  0.4761  0.7247
  947MOL0     C27729  10.202   2.703   5.818  0.3302  0.4217  0.4970
  947MOL0     C27730  10.243   2.626   5.695 -0.4907 -0.5131  0.0205
  947MOL0     C27731  10.361   2.704   5.623 -0.4468  0.3024  0.1118
  947MOL0     C27732  10.316   2.829   5.548 -0.1511  0.1206 -0.0783
  947MOL0     C27733  10.412   2.895   5.443  1.1618  0.0273 -0.0020
  947MOL0     O27734  10.351   3.022   5.419  0.5130 -0.4597  0.6437
  947MOL0     C27735  10.298   3.037   5.286  0.3162  0.5733 -0.8318
  947MOL0     C27736  10.189   3.122   5.285  0.3952 -0.3035 -1.4118
  947MOL0     C27737  10.133   3.166   5.164  0.1908  1.0456  0.1217
  947MOL0     C27738  10.183   3.114   5.042  0.0728 -0.2248 -0.0211
  947MOL0     C27739  10.129   3.157   4.916 -0.8349  0.1017 -0.6785
  947MOL0     O27740  10.114   3.061   4.823 -0.1091  0.0148  0.7909
  947MOL0     C27741  10.017   3.086   4.723 -0.1005 -1.3387 -0.5843
  947MOL0     C27742  10.022   3.203   4.634  0.1397  0.0928 -0.0851
  947MOL0     C27743   9.920   3.216   4.535  1.0044  0.5571 -0.3812
  947MOL0     C27744   9.801   3.136   4.541 -0.1478  0.5138  0.3126
  947MOL0     O27745   9.684   3.163   4.475 -0.8273 -0.6260 -0.4915
  947MOL0     C27746   9.689   3.274   4.390 -0.0414 -0.0446 -0.0116
  947MOL0     C27747   9.565   3.285   4.299 -0.5394 -0.5810  0.7756
  947MOL0     C27748   9.446   3.333   4.378 -0.4795  0.1422  0.4614
  947MOL0     C27749   9.314   3.295   4.311 -0.0857 -0.7474 -1.0709
  947MOL0     C27750   9.202   3.359   4.406  0.5923  0.0079  0.6619
  947MOL0     C27751   9.082   3.394   4.311 -0.4217 -0.5319 -0.7267
  947MOL0     C27752   9.110   3.518   4.214 -0.8351 -0.6433 -1.3082
  947MOL0     C27753   8.985   3.557   4.141  0.2331  0.1848  0.5179
  947MOL0    Cl27754   9.020   3.653   3.987 -0.2742 -0.2567  0.3814
  947MOL0     C27755   9.800   3.033   4.642 -0.1849  1.1975 -1.0395
  947MOL0     C27756   9.914   3.004   4.718  0.2557  0.1409  0.4630
  947MOL0     O27757  10.100   3.275   4.909 -0.0029  0.1323  0.0517
  947MOL0     C27758  10.282   3.020   5.044  0.0272 -0.3752 -0.2582
  947MOL0     C27759  10.346   2.988   5.165  1.3169  0.3419  0.1969
  947MOL0     N27760  10.262   2.784   5.907  0.0665 -0.4861 -0.0270
  947MOL0     N27761  10.195   2.813   6.008  1.1952 -0.6870  0.9322
  947MOL0     C27762  10.422   2.302   6.725 -0.3126  0.4195  0.1033
  947MOL0     C27763  10.496   2.211   6.801 -0.1424 -0.4401 -0.3147
  947MOL0     C27764  10.805   2.023   7.074  0.1031 -0.6345  0.2807
  947MOL0     C27765  10.872   2.120   7.161 -0.2568  0.1258 -0.0618
  947MOL0     C27766  10.965   2.073   7.253 -0.1447 -0.6449  0.4503
  947MOL0     C27767  11.005   1.946   7.263 -0.3439 -0.0022  0.7442
  947MOL0     O27768  11.101   1.890   7.350 -0.5071  0.6556  0.5423
  947MOL0     C27769  11.161   1.970   7.452 -0.0606 -0.5811 -0.6300
  947MOL0     C27770  11.301   1.927   7.447 -0.5468 -0.1662  0.1950
  947MOL0     C27771  11.385   1.996   7.558  0.6425 -0.3122 -0.6812
  947MOL0     C27772  11.373   1.916   7.682 -0.8769 -0.1759 -0.7798
  947MOL0     C27773  11.414   1.983   7.809  0.1615  0.1981  0.4352
  947MOL0     C27774  11.466   2.024   7.912  0.4682 -0.5265 -0.2181
  947MOL0     C27775  10.949   1.848   7.181 -0.6321 -0.5832  1.0544
  947MOL0     C27776  10.843   1.882   7.087  0.4774 -1.0630 -0.6216
  947MOL0     C27777  10.794   1.770   7.001  0.6401 -0.4047 -0.1865
  947MOL0     H27778  10.637   2.441   7.001  2.0917 -2.3729 -1.8522
  947MOL0     H27779  10.476   2.596   6.875 -2.0700  0.0160 -1.1206
  947MOL0     H27780  10.313   2.398   6.515  0.6825  1.6851 -2.1137
  947MOL0     H27781  10.165   2.449   6.602  0.5060 -3.0731 -1.8416
  947MOL0     H27782  10.351   2.604   6.418  0.5223 -0.5975  1.1818
  947MOL0     H27783  10.225   2.684   6.509 -1.4639  0.5211 -3.4027
  947MOL0     H27784  10.170   2.456   6.309  3.9290  1.5242 -1.4511
  947MOL0     H27785  10.166   2.630   6.273 -0.6578 -0.1656 -1.0898
  947MOL0     H27786   9.987   2.500   6.486 -0.0214 -0.4189 -0.8031
  947MOL0     H27787   9.990   2.677   6.438  0.8852  0.8782 -2.6011
  947MOL0     H27788   9.925   2.440   6.286  3.3638  0.8627 -1.5743
  947MOL0     H27789   9.800   2.545   6.336 -1.0496  1.8809 -3.6514
  947MOL0     H27790  10.028   2.587   6.124  1.3789 -0.2978  1.9379
  947MOL0     H27791   9.861   2.586   6.083  1.4061  0.1979  0.5163
  947MOL0     H27792   9.988   2.806   6.243 -1.0681  0.4622  0.7129
  947MOL0     H27793   9.809   2.779   6.190  0.5284 -2.2468  2.6637
  947MOL0     H27794   9.857   2.815   5.977 -0.9946  0.8743  1.9867
  947MOL0     H27795   9.954   2.943   6.039 -0.1992 -0.1518  0.7598
  947MOL0     H27796  10.001   2.626   5.817  2.0975  0.5777 -2.4923
  947MOL0     H27797  10.262   2.519   5.707  2.2008 -0.6213 -3.6256
  947MOL0     H27798  10.159   2.622   5.626 -1.2636 -0.6494  0.9487
  947MOL0     H27799  10.445   2.715   5.692  0.2884 -3.0450 -0.0848
  947MOL0     H27800  10.405   2.645   5.542  1.5616  0.9432  0.6853
  947MOL0     H27801  10.288   2.899   5.627  0.7449 -2.2557  2.5156
  947MOL0     H27802  10.218   2.796   5.513  0.5724 -1.2789 -0.9196
  947MOL0     H27803  10.413   2.823   5.360  3.2004  0.0886 -0.0596
  947MOL0     H27804  10.515   2.892   5.479  1.0540 -0.5289  0.2810
  947MOL0     H27805  10.147   3.155   5.379 -1.6210  1.5085 -2.8488
  947MOL0     H27806  10.058   3.243   5.157  0.3075  1.1639  0.1808
  947MOL0     H27807  10.096   3.282   4.629 -1.4740  1.5961 -2.9516
  947MOL0     H27808   9.924   3.297   4.463 -0.9563  0.5630 -0.5439
  947MOL0     H27809   9.690   3.368   4.445 -1.6957 -1.5072  2.7287
  947MOL0     H27810   9.776   3.256   4.326 -0.1694 -0.1645 -0.1552
  947MOL0     H27811   9.584   3.354   4.217  4.0281 -2.7620 -0.3513
  947MOL0     H27812   9.553   3.188   4.251 -1.4610  0.8359 -2.1054
  947MOL0     H27813   9.445   3.286   4.477  0.2629  0.7490  0.7640
  947MOL0     H27814   9.463   3.439   4.395  0.5498  0.0691 -0.0309
  947MOL0     H27815   9.299   3.187   4.302 -2.9354 -0.2848 -3.2019
  947MOL0     H27816   9.305   3.329   4.208 -1.3093  0.6998 -0.5406
  947MOL0     H27817   9.239   3.455   4.445  0.3428  0.0490  0.7988
  947MOL0     H27818   9.183   3.286   4.485  1.4264 -0.6508  0.2731
  947MOL0     H27819   9.063   3.306   4.249 -1.8702 -3.2459  3.1937
  947MOL0     H27820   9.002   3.419   4.381  0.6041 -0.2926  0.3899
  947MOL0     H27821   9.183   3.491   4.137  0.3002 -1.5558  0.0289
  947MOL0     H27822   9.138   3.605   4.275  0.1015 -2.1538  0.5117
  947MOL0     H27823   8.944   3.460   4.111  1.5219  0.1687 -1.3946
  947MOL0     H27824   8.916   3.607   4.209 -1.3454 -1.5334  0.2592
  947MOL0     H27825   9.712   2.969   4.638  0.1505  0.5128  1.1458
  947MOL0     H27826   9.907   2.914   4.779 -0.5874 -1.8958 -2.3881
  947MOL0     H27827  10.325   2.980   4.953 -0.7631  2.2496 -1.8892
  947MOL0     H27828  10.428   2.916   5.168  1.8521  0.5705 -3.5743
  947MOL0     H27829  10.373   2.259   6.639  0.8678  0.5178 -0.6334
  947MOL0     H27830  10.513   2.105   6.781  3.8128 -0.9458  4.0528
  947MOL0     H27831  10.846   2.225   7.164  2.9755  1.1654  5.4048
  947MOL0     H27832  11.011   2.139   7.325  2.4859 -0.2017 -1.4813
  947MOL0     H27833  11.113   1.956   7.549  0.3565 -0.0208 -0.3337
  947MOL0     H27834  11.150   2.077   7.431  0.3323 -0.8700 -2.5289
  947MOL0     H27835  11.345   1.947   7.349  0.1597 -1.0303  0.3259
  947MOL0     H27836  11.294   1.820   7.467 -3.9381  0.3265  2.3626
  947MOL0     H27837  11.344   2.095   7.581 -2.2138 -1.4019 -0.6067
  947MOL0     H27838  11.488   2.001   7.522  0.5518  2.3810 -0.7545
  947MOL0     H27839  11.269   1.885   7.697 -1.5024  2.2982  0.5249
  947MOL0     H27840  11.439   1.832   7.660 -0.9401 -0.4016 -0.1441
  947MOL0     H27841  11.507   2.084   7.992  1.1536  1.7630 -2.1655
  947MOL0     H27842  10.969   1.741   7.182  2.3482 -0.1448 -0.4785
  947MOL0     H27843  10.822   1.670   7.035 -2.5168 -1.2797  0.1277
  947MOL0     H27844  10.685   1.778   6.994  0.6836  0.2557 -0.1983
  947MOL0     H27845  10.839   1.765   6.901 -0.7413 -1.8803 -0.7599
  948MOL0     O27846   4.984   6.971   2.056  0.1397  0.5451  0.4551
  948MOL0     C27847   5.047   7.068   2.082  0.4473  0.5532 -0.0328
  948MOL0     O27848   5.147   7.113   2.003  0.0629  0.3797 -0.2192
  948MOL0     C27849   5.175   7.030   1.897  0.2991  0.4564 -0.8368
  948MOL0     C27850   5.154   7.069   1.770 -0.8406  0.5198 -0.2794
  948MOL0     C27851   5.196   6.985   1.665  0.2099 -0.5792  0.5841
  948MOL0     C27852   5.256   6.865   1.692 -0.2409 -0.2589  1.1817
  948MOL0     O27853   5.286   6.786   1.583  0.3632  0.5198 -0.3238
  948MOL0     C27854   5.360   6.667   1.587  0.6452 -0.3863 -0.1898
  948MOL0     C27855   5.310   6.576   1.472 -0.4109 -0.7088  0.5145
  948MOL0     C27856   5.393   6.448   1.471  0.5936  0.2748  0.1222
  948MOL0     C27857   5.374   6.375   1.337 -0.1121 -1.2120 -0.1594
  948MOL0     C27858   5.461   6.245   1.325  0.0200  0.6781 -0.0053
  948MOL0     C27859   5.498   6.226   1.178  0.2602  0.1475 -0.2576
  948MOL0     C27860   5.598   6.115   1.154 -0.0237 -0.3085 -0.0713
  948MOL0     C27861   5.655   6.113   1.013 -0.2802  0.0457 -0.6858
  948MOL0     N27862   5.754   5.998   1.003  0.4875  0.5079 -0.2703
  948MOL0     C27863   5.727   5.864   1.015  0.6055 -0.0860  0.0101
  948MOL0     C27864   5.846   5.803   1.000  0.0136  0.3394 -0.4012
  948MOL0     C27865   5.864   5.651   0.995  0.1334  0.3196 -0.2860
  948MOL0     C27866   5.755   5.590   0.907 -0.0727 -0.0815  0.4788
  948MOL0     C27867   5.755   5.641   0.760  0.3270  0.0254  0.3930
  948MOL0     C27868   5.677   5.549   0.662  0.5378 -0.3316 -0.6417
  948MOL0     O27869   5.536   5.525   0.691  0.4901  0.6892 -0.7038
  948MOL0     C27870   5.450   5.629   0.721 -0.0270 -0.1499 -1.1653
  948MOL0     C27871   5.343   5.604   0.813 -0.4876  0.3903  0.0433
  948MOL0     C27872   5.250   5.700   0.860  0.0744  0.0774  0.2259
  948MOL0     C27873   5.268   5.830   0.810 -0.4509 -0.4691  0.3447
  948MOL0     C27874   5.177   5.941   0.852  0.2126 -0.2429  0.1102
  948MOL0     O27875   5.113   5.930   0.978  0.4828  0.1493 -0.6678
  948MOL0     C27876   5.039   6.033   1.034  0.1031 -0.1625 -0.9833
  948MOL0     C27877   5.065   6.171   1.011  0.0229 -0.6361  0.0893
  948MOL0     C27878   4.990   6.275   1.075  0.1292  0.3843 -0.7671
  948MOL0     C27879   4.897   6.234   1.166  0.0885 -0.7887 -0.3134
  948MOL0     O27880   4.814   6.324   1.230  0.0816  0.1055 -0.0649
  948MOL0     C27881   4.832   6.461   1.208  0.7466  0.8411  0.3666
  948MOL0     C27882   4.730   6.542   1.284  1.5365  0.8770 -0.0981
  948MOL0     C27883   4.790   6.625   1.397  0.0545  0.0012  0.5163
  948MOL0     C27884   4.830   6.536   1.514  0.3952  0.1084  0.1576
  948MOL0     C27885   4.893   6.614   1.625 -0.4438 -0.0854  0.8706
  948MOL0     C27886   4.793   6.681   1.709  0.0426  0.0687 -0.2776
  948MOL0     C27887   4.850   6.727   1.836  0.0113  0.8598 -0.3478
  948MOL0     C27888   4.742   6.806   1.925  0.9433 -0.0132 -0.1483
  948MOL0    Cl27889   4.564   6.754   1.900 -0.3255 -0.2460  0.4433
  948MOL0     C27890   4.866   6.100   1.189 -0.3418 -0.8047 -0.1215
  948MOL0     C27891   4.936   6.001   1.122 -0.8909 -0.2724 -0.5788
  948MOL0     O27892   5.147   6.032   0.768 -0.0524  0.4783  0.5698
  948MOL0     C27893   5.364   5.854   0.706 -0.3567 -0.0111 -0.5473
  948MOL0     C27894   5.460   5.761   0.664 -1.2119 -0.7285  0.5111
  948MOL0     N27895   5.951   5.896   0.982  0.3671 -0.3418 -0.0166
  948MOL0     N27896   5.887   6.014   0.981 -0.8827 -0.0070 -0.6698
  948MOL0     C27897   5.275   6.818   1.826 -0.5856 -0.1030  0.3962
  948MOL0     C27898   5.231   6.905   1.931 -0.1626 -0.8521  0.3731
  948MOL0     C27899   5.017   7.156   2.203 -0.1707 -0.6542  0.1742
  948MOL0     C27900   5.035   7.301   2.198  0.1053  0.8679 -2.2194
  948MOL0     C27901   5.023   7.390   2.308  0.1281 -0.2868 -0.9534
  948MOL0     C27902   4.985   7.335   2.425  1.0150 -0.3336 -0.7604
  948MOL0     O27903   4.986   7.416   2.534 -1.0172  0.1106  0.2758
  948MOL0     C27904   4.902   7.523   2.536  0.5191  0.0573  0.2140
  948MOL0     C27905   4.825   7.525   2.663  0.2684 -0.3986  0.8258
  948MOL0     C27906   4.683   7.458   2.666 -0.8716 -0.3882  0.2526
  948MOL0     C27907   4.591   7.539   2.575  0.5249 -0.2994  0.8168
  948MOL0     C27908   4.439   7.506   2.577 -1.0114  0.1266 -0.8966
  948MOL0     C27909   4.324   7.481   2.584 -0.7275 -0.1215 -0.2791
  948MOL0     C27910   4.961   7.190   2.445 -0.8472 -0.2377 -0.0853
  948MOL0     C27911   4.972   7.103   2.332 -0.0984  0.0911 -0.2647
  948MOL0     C27912   4.958   6.957   2.351  0.1157  0.3045 -0.7224
  948MOL0     H27913   5.103   7.163   1.749 -1.4658  0.2806  0.1434
  948MOL0     H27914   5.170   6.996   1.560 -0.6873  0.2029  0.8770
  948MOL0     H27915   5.468   6.683   1.583  0.7523 -0.8585  0.6362
  948MOL0     H27916   5.338   6.602   1.672 -0.4298  1.4165  0.9627
  948MOL0     H27917   5.328   6.628   1.377 -0.7497  1.3662  1.5186
  948MOL0     H27918   5.205   6.550   1.484  0.1038 -2.4377  1.7251
  948MOL0     H27919   5.350   6.387   1.552 -2.3649  1.7366 -0.2216
  948MOL0     H27920   5.498   6.466   1.495 -0.1311  3.6326  1.3401
  948MOL0     H27921   5.270   6.348   1.315 -0.2448 -1.1041  0.3345
  948MOL0     H27922   5.413   6.448   1.265  3.1306 -3.2956 -0.7472
  948MOL0     H27923   5.547   6.255   1.392 -0.1901 -1.7247  0.7365
  948MOL0     H27924   5.402   6.162   1.365 -0.1908  1.5354  1.5307
  948MOL0     H27925   5.408   6.211   1.117 -0.3822  1.9171  0.1825
  948MOL0     H27926   5.541   6.321   1.144  0.8058  1.6536  4.0040
  948MOL0     H27927   5.562   6.012   1.167  0.4642 -0.5970 -0.9488
  948MOL0     H27928   5.673   6.131   1.232 -2.7029 -0.8496  2.8131
  948MOL0     H27929   5.573   6.089   0.944 -0.2116  1.4521 -1.2842
  948MOL0     H27930   5.706   6.205   0.983  0.1199 -0.3224 -1.1457
  948MOL0     H27931   5.631   5.819   1.037  0.8677 -2.1450 -2.5416
  948MOL0     H27932   5.958   5.623   0.948 -0.5688  1.1624 -2.3184
  948MOL0     H27933   5.847   5.627   1.100 -2.4572  2.7906  0.0016
  948MOL0     H27934   5.764   5.481   0.912  0.8016 -0.1235 -1.3844
  948MOL0     H27935   5.657   5.614   0.950 -0.1820 -1.5478  1.1181
  948MOL0     H27936   5.857   5.651   0.722  0.5737 -0.1887  1.0021
  948MOL0     H27937   5.707   5.739   0.763 -0.7229 -0.2245 -3.1760
  948MOL0     H27938   5.724   5.451   0.653  1.6273  0.2650 -1.8418
  948MOL0     H27939   5.685   5.602   0.566  2.8039 -0.9777 -0.8496
  948MOL0     H27940   5.339   5.496   0.826  3.2608  0.4301  3.1694
  948MOL0     H27941   5.171   5.680   0.932  1.2570 -3.2084  0.7388
  948MOL0     H27942   5.142   6.196   0.938 -0.1527 -4.2664 -1.5580
  948MOL0     H27943   5.021   6.379   1.071  2.5906 -0.1872  1.4428
  948MOL0     H27944   4.933   6.494   1.232  1.3029 -0.9422  0.5996
  948MOL0     H27945   4.806   6.465   1.102  0.0048 -0.3159  0.4786
  948MOL0     H27946   4.680   6.608   1.213 -0.8824 -2.1229 -1.4324
  948MOL0     H27947   4.648   6.483   1.328  3.2777 -3.8629 -2.5107
  948MOL0     H27948   4.874   6.691   1.369 -1.8554  2.1787 -0.4066
  948MOL0     H27949   4.714   6.694   1.436  0.8364  0.6985  0.8534
  948MOL0     H27950   4.903   6.462   1.481  1.3744 -0.7205  3.7002
  948MOL0     H27951   4.741   6.480   1.542  2.8626 -4.4003 -0.0299
  948MOL0     H27952   4.976   6.672   1.585  0.6596 -2.6733 -0.8236
  948MOL0     H27953   4.936   6.540   1.693 -0.1320 -1.3455 -0.6405
  948MOL0     H27954   4.743   6.766   1.662  1.2751  1.2467  0.4873
  948MOL0     H27955   4.728   6.599   1.742  1.2946 -0.8650 -0.0410
  948MOL0     H27956   4.927   6.803   1.816 -1.2010  2.9089  2.1390
  948MOL0     H27957   4.894   6.644   1.893  0.7569  2.6984  1.9391
  948MOL0     H27958   4.765   6.792   2.031 -0.3004 -2.0926 -0.0993
  948MOL0     H27959   4.760   6.911   1.900  0.1388  0.3159  0.5929
  948MOL0     H27960   4.790   6.066   1.259  2.5384 -3.0933  2.1518
  948MOL0     H27961   4.920   5.894   1.131  2.3478 -0.9880 -2.1520
  948MOL0     H27962   5.362   5.952   0.658 -1.2154  0.1887 -0.1272
  948MOL0     H27963   5.550   5.789   0.611  0.1625 -0.4830  2.8267
  948MOL0     H27964   5.317   6.720   1.847  4.9748  1.3753 -1.9291
  948MOL0     H27965   5.236   6.879   2.036 -1.7538 -1.8881  0.2276
  948MOL0     H27966   5.067   7.349   2.106 -0.6533  2.6655 -1.5862
  948MOL0     H27967   5.043   7.494   2.286  0.4723 -0.2355 -0.4136
  948MOL0     H27968   4.840   7.530   2.446  0.7945  2.1240  0.1346
  948MOL0     H27969   4.959   7.616   2.545 -1.5124  1.1980  4.7023
  948MOL0     H27970   4.807   7.631   2.685  0.9453 -0.5082  1.9745
  948MOL0     H27971   4.887   7.487   2.744 -0.6638 -0.8906  1.3161
  948MOL0     H27972   4.654   7.445   2.771 -2.3632  2.1587  0.2289
  948MOL0     H27973   4.690   7.356   2.625  0.3705 -0.7761  1.3457
  948MOL0     H27974   4.611   7.647   2.579 -2.7631  0.5811 -1.5407
  948MOL0     H27975   4.620   7.499   2.478  1.7291 -1.5075  1.6535
  948MOL0     H27976   4.225   7.460   2.619 -0.6128  1.3522  1.0497
  948MOL0     H27977   4.939   7.164   2.548  1.3676  1.3814  0.8677
  948MOL0     H27978   4.879   6.904   2.296  0.2959 -1.1966  0.3888
  948MOL0     H27979   5.055   6.918   2.319 -0.7156  1.8828 -6.3471
  948MOL0     H27980   4.933   6.930   2.454  3.6934 -1.1897 -0.1053
  949MOL0     O27981   7.372   5.456  11.372 -0.9074 -0.0962  0.3375
  949MOL0     C27982   7.349   5.343  11.420  0.5447  0.5009 -0.6175
  949MOL0     O27983   7.271   5.251  11.367  0.7188 -0.3159 -0.2771
  949MOL0     C27984   7.173   5.296  11.278 -0.0563  0.4156 -0.5717
  949MOL0     C27985   7.187   5.247  11.148  0.9789  0.7992  0.0101
  949MOL0     C27986   7.091   5.295  11.052  0.9853  0.3151  0.2185
  949MOL0     C27987   6.992   5.393  11.080 -0.4557  0.5459  0.3849
  949MOL0     O27988   6.918   5.429  10.971 -0.7973  0.5838  0.6362
  949MOL0     C27989   6.801   5.512  10.981  0.0891  1.5572  0.4522
  949MOL0     C27990   6.751   5.557  10.847 -0.8243  0.0412 -0.1949
  949MOL0     C27991   6.610   5.623  10.853  0.6938  0.0755  0.8200
  949MOL0     C27992   6.605   5.695  10.720  0.9506  0.7628 -0.2778
  949MOL0     C27993   6.467   5.760  10.695  0.7698 -0.0555 -1.2899
  949MOL0     C27994   6.467   5.869  10.601  0.6035 -0.8772  0.1222
  949MOL0     C27995   6.333   5.950  10.615 -0.0523 -0.2030  0.8132
  949MOL0     C27996   6.213   5.863  10.577  0.3577  0.3204 -0.4085
  949MOL0     N27997   6.195   5.836  10.437 -0.1186 -0.3270  0.6132
  949MOL0     C27998   6.258   5.733  10.371 -0.1109 -0.6916  0.1194
  949MOL0     C27999   6.239   5.769  10.240 -0.0891 -0.4901  0.4294
  949MOL0     C28000   6.316   5.718  10.128 -0.2794  0.1404 -0.5820
  949MOL0     C28001   6.234   5.688  10.009  0.0292 -0.1909 -0.4026
  949MOL0     C28002   6.136   5.572  10.013 -0.4184  0.4113  0.0034
  949MOL0     C28003   6.204   5.436  10.020 -0.5067  0.2601  1.0141
  949MOL0     O28004   6.290   5.409   9.907  0.6828 -0.4098 -0.0091
  949MOL0     C28005   6.240   5.400   9.784  0.1328 -0.1413  0.3146
  949MOL0     C28006   6.329   5.453   9.693  0.7132 -0.8272  0.3808
  949MOL0     C28007   6.287   5.467   9.557 -0.6539  0.7880 -0.4317
  949MOL0     C28008   6.161   5.422   9.517  0.5074  0.5691 -0.9114
  949MOL0     C28009   6.115   5.427   9.376  0.4381  0.0684  0.0353
  949MOL0     O28010   6.199   5.466   9.278  0.6532 -0.3547 -0.3828
  949MOL0     C28011   6.161   5.473   9.148 -0.3865 -0.8163 -0.7040
  949MOL0     C28012   6.200   5.579   9.066  0.0595 -0.0529 -0.4121
  949MOL0     C28013   6.165   5.592   8.932 -0.1046  0.2729 -0.2561
  949MOL0     C28014   6.087   5.492   8.865  0.1612  0.4589  0.1392
  949MOL0     O28015   6.040   5.503   8.736  0.6320 -0.1522 -0.5533
  949MOL0     C28016   5.948   5.406   8.689 -0.1626  0.5319 -0.1574
  949MOL0     C28017   5.888   5.447   8.559 -0.5413  0.1199 -0.2695
  949MOL0     C28018   5.852   5.333   8.465  0.5706  0.6565  0.7373
  949MOL0     C28019   5.795   5.404   8.330  0.1335  0.4530 -0.7605
  949MOL0     C28020   5.698   5.308   8.260  0.0084  0.3808  0.6519
  949MOL0     C28021   5.747   5.230   8.137  0.0253 -0.8844 -0.4640
  949MOL0     C28022   5.789   5.306   8.010  0.1847  0.3933  0.0214
  949MOL0     C28023   5.866   5.214   7.923 -0.1673  0.6792 -0.6849
  949MOL0    Cl28024   5.760   5.115   7.810  0.3272 -0.0300 -0.2701
  949MOL0     C28025   6.063   5.371   8.936 -0.3916  0.0692 -0.2386
  949MOL0     C28026   6.096   5.371   9.079  0.1827  0.0535 -0.7037
  949MOL0     O28027   5.998   5.384   9.353  0.7765  0.4188 -0.7238
  949MOL0     C28028   6.069   5.367   9.620  0.6763  0.1479 -1.5205
  949MOL0     C28029   6.114   5.353   9.751  0.3874 -0.1960  0.2805
  949MOL0     N28030   6.167   5.888  10.228 -0.5009 -0.2841  0.0854
  949MOL0     N28031   6.147   5.932  10.348 -0.9200 -0.3190  0.0529
  949MOL0     C28032   6.980   5.430  11.210  0.9309 -0.4382 -0.7354
  949MOL0     C28033   7.065   5.391  11.308 -0.7428  0.3270  0.8704
  949MOL0     C28034   7.413   5.303  11.551  0.9515  0.0939 -0.1751
  949MOL0     C28035   7.340   5.203  11.640  0.1217 -0.6757  0.2885
  949MOL0     C28036   7.399   5.164  11.757 -0.2666  0.5094  0.0859
  949MOL0     C28037   7.530   5.213  11.798 -0.2159  0.3124  0.7219
  949MOL0     O28038   7.591   5.174  11.914  0.3189 -0.0099  0.0022
  949MOL0     C28039   7.548   5.227  12.041  0.5076 -0.0228  0.5952
  949MOL0     C28040   7.624   5.357  12.080  0.3649  0.3209 -0.2408
  949MOL0     C28041   7.771   5.329  12.074 -0.8074  0.0523  0.3238
  949MOL0     C28042   7.839   5.457  12.061 -0.9279  0.4543  0.0339
  949MOL0     C28043   7.865   5.512  11.929 -0.0995  0.5681  0.5862
  949MOL0     C28044   7.893   5.577  11.825  0.4780  0.1410 -0.7789
  949MOL0     C28045   7.596   5.303  11.719 -0.0665 -0.4224 -0.3826
  949MOL0     C28046   7.537   5.351  11.595 -0.4562 -0.4476  1.2504
  949MOL0     C28047   7.616   5.452  11.523  0.0017 -0.0599 -0.5034
  949MOL0     H28048   7.260   5.173  11.119 -0.9034 -2.1193  2.1921
  949MOL0     H28049   7.115   5.277  10.948  0.0018  2.8188 -0.5186
  949MOL0     H28050   6.726   5.459  11.040  4.0474 -2.3864  2.4441
  949MOL0     H28051   6.823   5.605  11.034  0.3842  1.6387  0.1911
  949MOL0     H28052   6.743   5.469  10.783  0.7892 -0.4523  0.2502
  949MOL0     H28053   6.830   5.625  10.816  1.3852 -0.2211  4.0877
  949MOL0     H28054   6.599   5.705  10.925  2.8313  1.0900  0.0806
  949MOL0     H28055   6.526   5.557  10.875  0.6298 -0.5416 -1.1028
  949MOL0     H28056   6.684   5.770  10.724  2.8168 -1.1522  0.7666
  949MOL0     H28057   6.623   5.616  10.646 -1.0962 -0.5798  0.5554
  949MOL0     H28058   6.395   5.680  10.675  0.2163  0.4063 -1.1607
  949MOL0     H28059   6.419   5.793  10.787 -2.1851 -2.5231 -1.7605
  949MOL0     H28060   6.544   5.944  10.622 -0.5186  0.8631 -1.5613
  949MOL0     H28061   6.480   5.838  10.497  1.6072  0.8644 -0.3165
  949MOL0     H28062   6.339   6.044  10.561 -0.6857 -1.0116 -0.7287
  949MOL0     H28063   6.326   5.978  10.721  4.2425 -0.7282  1.4040
  949MOL0     H28064   6.224   5.773  10.639  1.4419  2.8802  3.5059
  949MOL0     H28065   6.121   5.917  10.600 -0.3287  0.0586 -2.3144
  949MOL0     H28066   6.334   5.663  10.404  1.8562  1.0415 -0.4695
  949MOL0     H28067   6.397   5.787  10.104  1.9811 -2.5844 -1.3689
  949MOL0     H28068   6.362   5.622  10.155  0.5573  0.0115 -2.3154
  949MOL0     H28069   6.171   5.770   9.975 -0.1976 -0.0559  0.3210
  949MOL0     H28070   6.303   5.673   9.925  2.8497  0.1092  1.7145
  949MOL0     H28071   6.071   5.571   9.925 -2.1177  0.0333  1.2035
  949MOL0     H28072   6.073   5.576  10.103 -0.9237  0.3973 -0.3447
  949MOL0     H28073   6.119   5.367  10.021  0.9544 -1.5800  1.9172
  949MOL0     H28074   6.260   5.430  10.114  3.0503 -2.9805 -1.0251
  949MOL0     H28075   6.432   5.484   9.707 -0.1604  1.4190  2.4499
  949MOL0     H28076   6.352   5.517   9.486 -0.3758  2.6366  1.0474
  949MOL0     H28077   6.262   5.651   9.119  0.6106 -1.0275  0.2882
  949MOL0     H28078   6.201   5.683   8.886  0.8536  0.0464  0.0080
  949MOL0     H28079   5.999   5.312   8.669 -0.4741 -0.0375  1.5495
  949MOL0     H28080   5.863   5.394   8.757  1.6141 -3.5754  1.6941
  949MOL0     H28081   5.802   5.511   8.581 -1.8277 -0.7861 -2.2981
  949MOL0     H28082   5.967   5.503   8.507  0.3092 -1.1926 -0.4472
  949MOL0     H28083   5.940   5.272   8.442  0.5867  0.2829  1.7289
  949MOL0     H28084   5.785   5.253   8.498  0.9212 -0.8469 -1.9062
  949MOL0     H28085   5.882   5.424   8.267  0.8843  0.3678  0.2126
  949MOL0     H28086   5.755   5.501   8.360  1.8275  0.6990  0.9477
  949MOL0     H28087   5.613   5.365   8.223  0.9108  1.2821 -0.0770
  949MOL0     H28088   5.670   5.237   8.339  1.3355 -0.5311  0.3359
  949MOL0     H28089   5.833   5.180   8.183  0.9099 -1.1618 -2.3293
  949MOL0     H28090   5.680   5.151   8.099  1.6660 -1.5364 -2.1417
  949MOL0     H28091   5.846   5.395   8.040 -0.7064  0.8121  0.4964
  949MOL0     H28092   5.707   5.350   7.952 -1.5438 -2.1556  0.3745
  949MOL0     H28093   5.952   5.270   7.885 -0.4151  2.8701  1.7304
  949MOL0     H28094   5.923   5.141   7.982  0.7345  1.6030 -0.3688
  949MOL0     H28095   6.006   5.291   8.890  0.3338 -1.2681  1.0826
  949MOL0     H28096   6.075   5.274   9.121  0.5000  0.4061  0.3084
  949MOL0     H28097   5.974   5.335   9.579  1.4709 -1.8539 -1.9061
  949MOL0     H28098   6.048   5.308   9.825  0.4883 -2.0349 -0.6920
  949MOL0     H28099   6.896   5.495  11.231  0.5537 -0.9452 -0.6588
  949MOL0     H28100   7.054   5.440  11.404  0.1888 -0.4720  1.4013
  949MOL0     H28101   7.252   5.153  11.601  2.7727 -1.2106 -6.4050
  949MOL0     H28102   7.374   5.088  11.830  1.0315  1.2237  1.3476
  949MOL0     H28103   7.549   5.143  12.111  0.8436 -2.9407 -2.6345
  949MOL0     H28104   7.441   5.237  12.022  0.0616 -3.2803  0.9411
  949MOL0     H28105   7.605   5.377  12.187 -1.2259 -3.0452  0.2412
  949MOL0     H28106   7.595   5.436  12.010 -1.3902  0.5570  0.6930
  949MOL0     H28107   7.793   5.270  11.984 -0.2479  2.1764 -0.9908
  949MOL0     H28108   7.803   5.287  12.170  1.5980 -1.4329 -1.0324
  949MOL0     H28109   7.790   5.534  12.122  0.5826  1.5808 -0.0919
  949MOL0     H28110   7.939   5.450  12.105 -0.0474 -2.4566 -2.1159
  949MOL0     H28111   7.914   5.624  11.731 -2.8838  0.4005 -1.5534
  949MOL0     H28112   7.699   5.324  11.744  0.1457 -2.5875  0.7575
  949MOL0     H28113   7.560   5.523  11.461 -2.8238 -0.4843  1.3913
  949MOL0     H28114   7.667   5.521  11.590 -3.1039 -0.0130  2.0540
  949MOL0     H28115   7.690   5.397  11.465  2.0851  1.6214  0.4313
  950MOL0     O28116   5.947   0.243   1.514  0.1005  0.0202 -0.3178
  950MOL0     C28117   5.825   0.268   1.517  0.7054 -0.2997  0.1729
  950MOL0     O28118   5.722   0.184   1.492  0.2788  0.8617  0.4375
  950MOL0     C28119   5.741   0.056   1.444  0.5136  1.0389 -0.2577
  950MOL0     C28120   5.643  -0.040   1.485 -0.3876  0.4673 -0.4877
  950MOL0     C28121   5.639  -0.167   1.445 -0.8477  0.2388  0.6370
  950MOL0     C28122   5.742  -0.223   1.363 -0.5478  0.4467  0.6003
  950MOL0     O28123   5.748  -0.356   1.338  0.3607  0.6152 -0.3979
  950MOL0     C28124   5.758  -0.403   1.206  0.2517 -0.7982  0.0612
  950MOL0     C28125   5.728  -0.551   1.206  0.8028  0.1873  1.3341
  950MOL0     C28126   5.786  -0.612   1.072  0.3186 -0.5159  0.1674
  950MOL0     C28127   5.943  -0.609   1.082  0.2599  0.1736  0.1731
  950MOL0     C28128   5.986  -0.707   0.965 -1.1852 -0.1438  0.0839
  950MOL0     C28129   6.144  -0.720   0.966  1.3646  0.3449  0.6149
  950MOL0     C28130   6.199  -0.822   0.875 -0.6494 -0.8411  0.0118
  950MOL0     C28131   6.337  -0.856   0.930 -1.3606 -0.1176  0.3684
  950MOL0     N28132   6.420  -0.936   0.829 -0.8737 -0.2010 -0.1661
  950MOL0     C28133   6.494  -1.052   0.859  0.1469 -0.1489  0.3868
  950MOL0     C28134   6.591  -1.060   0.758  0.0940  1.0305 -0.6390
  950MOL0     C28135   6.690  -1.178   0.752 -0.5832  0.2998  0.2122
  950MOL0     C28136   6.733  -1.224   0.611  0.8581 -0.0625  0.4635
  950MOL0     C28137   6.839  -1.330   0.644 -0.4586 -0.1982  0.2619
  950MOL0     C28138   6.861  -1.438   0.533  0.7045  0.0705 -1.4265
  950MOL0     O28139   6.989  -1.505   0.524  1.1694 -0.2272 -0.6690
  950MOL0     C28140   6.992  -1.636   0.501  0.2205 -0.3439 -0.6371
  950MOL0     C28141   7.082  -1.703   0.575 -0.1553 -0.6577 -1.1351
  950MOL0     C28142   7.074  -1.841   0.575 -0.8678  0.7552 -0.1699
  950MOL0     C28143   6.973  -1.908   0.490 -0.2269  0.3894 -0.2797
  950MOL0     C28144   6.953  -2.055   0.516 -0.1829 -0.1735 -0.7711
  950MOL0     O28145   6.883  -2.122   0.420  0.3636  0.2250 -0.4715
  950MOL0     C28146   6.867  -2.258   0.414  0.8702  0.9779 -0.5028
  950MOL0     C28147   6.792  -2.315   0.306  0.4044  0.3010  0.3976
  950MOL0     C28148   6.767  -2.452   0.282  0.3679  0.4057  0.6500
  950MOL0     C28149   6.817  -2.537   0.376 -0.0229  0.0263 -0.5725
  950MOL0     O28150   6.809  -2.674   0.371  0.5024  0.2763  0.1318
  950MOL0     C28151   6.673  -2.721   0.337  0.3546 -0.0134  0.4525
  950MOL0     C28152   6.668  -2.873   0.300  0.9719 -1.1773 -0.1882
  950MOL0     C28153   6.702  -2.967   0.415  0.6660 -0.4617  0.5116
  950MOL0     C28154   6.852  -2.969   0.448 -0.5516  0.1231 -0.1367
  950MOL0     C28155   6.872  -3.078   0.557 -0.5332 -0.7765 -0.5512
  950MOL0     C28156   7.019  -3.097   0.564 -0.1162  0.1871 -0.0260
  950MOL0     C28157   7.068  -3.192   0.683  0.6313 -0.2692  0.6837
  950MOL0     C28158   7.217  -3.182   0.716  0.6771 -0.0791  0.5943
  950MOL0    Cl28159   7.235  -3.299   0.851  0.0758 -0.4141 -0.3171
  950MOL0     C28160   6.900  -2.491   0.475  0.0582  0.0583 -0.1327
  950MOL0     C28161   6.925  -2.351   0.501  0.3376 -0.4494  0.3695
  950MOL0     O28162   7.006  -2.112   0.615 -0.3723 -0.0849  0.7598
  950MOL0     C28163   6.894  -1.838   0.402  0.1430 -0.7943 -0.1411
  950MOL0     C28164   6.903  -1.696   0.415  0.1963 -0.3534  0.1505
  950MOL0     N28165   6.561  -0.962   0.667 -0.4073  0.7862  0.1844
  950MOL0     N28166   6.464  -0.889   0.706  0.1301  0.9710 -0.0158
  950MOL0     C28167   5.845  -0.128   1.323  0.3272  0.8486 -0.6297
  950MOL0     C28168   5.841   0.013   1.355 -0.0583  0.3349  1.4650
  950MOL0     C28169   5.788   0.413   1.546 -0.6418 -0.5096 -0.6150
  950MOL0     C28170   5.654   0.439   1.588  0.5320 -0.2283 -0.1643
  950MOL0     C28171   5.612   0.560   1.646 -0.1688 -0.4957  0.2205
  950MOL0     C28172   5.706   0.657   1.666  0.2128  0.2864 -0.1003
  950MOL0     O28173   5.670   0.772   1.722 -0.9068 -0.3592 -0.2917
  950MOL0     C28174   5.615   0.873   1.642 -0.5784  0.2507 -0.0364
  950MOL0     C28175   5.524   0.960   1.725  0.4350  0.3149 -0.0943
  950MOL0     C28176   5.447   1.056   1.628  0.2670 -0.5510  0.4232
  950MOL0     C28177   5.351   1.142   1.714 -1.0084  0.2738 -1.0467
  950MOL0     C28178   5.284   1.226   1.612 -0.1234 -0.6049 -0.7396
  950MOL0     C28179   5.243   1.297   1.524  1.1373  1.2043 -0.9038
  950MOL0     C28180   5.835   0.633   1.628 -0.5786 -0.1268 -0.9987
  950MOL0     C28181   5.886   0.509   1.569  0.1827 -1.0927 -1.3072
  950MOL0     C28182   6.028   0.505   1.526 -1.3080  0.2583 -0.6386
  950MOL0     H28183   5.576  -0.007   1.563 -1.6535 -0.5049 -1.1193
  950MOL0     H28184   5.566  -0.240   1.480  0.2490 -0.2669  1.9972
  950MOL0     H28185   5.692  -0.349   1.137  1.8978  3.4288  1.4367
  950MOL0     H28186   5.854  -0.375   1.162 -1.4446  3.9045 -1.2991
  950MOL0     H28187   5.620  -0.564   1.216  0.6680  0.2588  0.0557
  950MOL0     H28188   5.767  -0.611   1.289 -1.1654 -3.4799 -0.1504
  950MOL0     H28189   5.765  -0.554   0.982  0.0447 -0.2330  0.4127
  950MOL0     H28190   5.752  -0.714   1.051 -0.1207  0.3541 -4.1561
  950MOL0     H28191   5.983  -0.509   1.067 -0.8167  0.4987 -0.5750
  950MOL0     H28192   5.964  -0.651   1.182 -1.9033 -1.1362  0.1389
  950MOL0     H28193   5.936  -0.802   0.988 -2.3339  0.3425 -0.3309
  950MOL0     H28194   5.956  -0.670   0.867 -2.6100 -2.4119 -0.4081
  950MOL0     H28195   6.191  -0.623   0.948  1.1845  0.0513 -1.7614
  950MOL0     H28196   6.171  -0.740   1.070  0.8280 -4.1587  0.0864
  950MOL0     H28197   6.223  -0.778   0.777 -0.4135 -0.8075  0.0823
  950MOL0     H28198   6.138  -0.911   0.862 -0.2416 -0.9778 -1.1087
  950MOL0     H28199   6.397  -0.765   0.941  3.6265 -3.0062  0.6066
  950MOL0     H28200   6.330  -0.912   1.023  0.3421  0.0023  0.6066
  950MOL0     H28201   6.508  -1.116   0.945  2.0176  0.4308  0.5698
  950MOL0     H28202   6.788  -1.154   0.795 -0.1443  0.4866 -0.8656
  950MOL0     H28203   6.667  -1.253   0.828  0.3715 -1.6586 -1.3556
  950MOL0     H28204   6.637  -1.258   0.572 -0.7802  2.0766  2.3745
  950MOL0     H28205   6.781  -1.153   0.544  0.5582 -1.8645 -1.7825
  950MOL0     H28206   6.824  -1.398   0.728 -1.2418 -2.2401 -1.4339
  950MOL0     H28207   6.933  -1.280   0.670  1.2972 -1.8449 -2.3033
  950MOL0     H28208   6.836  -1.397   0.434  0.0218  1.1304 -0.8402
  950MOL0     H28209   6.781  -1.511   0.551  1.0927  0.2604  1.4713
  950MOL0     H28210   7.147  -1.650   0.644 -0.4699 -0.2828 -1.1230
  950MOL0     H28211   7.136  -1.887   0.651 -1.2246  0.4336 -0.0687
  950MOL0     H28212   6.738  -2.240   0.248 -2.1682  0.9245  3.3300
  950MOL0     H28213   6.716  -2.478   0.189  1.3758 -1.3177  0.5481
  950MOL0     H28214   6.592  -2.698   0.407 -0.2185  1.9265 -0.7745
  950MOL0     H28215   6.646  -2.668   0.245 -0.5597 -0.3178  0.5397
  950MOL0     H28216   6.559  -2.866   0.287  1.2214  0.5118 -1.9629
  950MOL0     H28217   6.713  -2.905   0.205 -1.8300 -1.7014 -1.4668
  950MOL0     H28218   6.639  -2.936   0.499 -2.1818 -2.3638 -0.7788
  950MOL0     H28219   6.643  -3.055   0.388 -0.5662  0.9045 -1.5790
  950MOL0     H28220   6.872  -2.878   0.505 -0.4188 -1.1484  1.9951
  950MOL0     H28221   6.917  -2.978   0.361 -0.1925 -0.3130  0.1734
  950MOL0     H28222   6.825  -3.175   0.542 -1.8813 -0.2837  0.3652
  950MOL0     H28223   6.843  -3.027   0.649 -2.8223  0.6181 -1.9398
  950MOL0     H28224   7.070  -3.130   0.474 -0.0357  0.1094  0.0481
  950MOL0     H28225   7.059  -2.996   0.575  1.0706 -0.1249 -1.3594
  950MOL0     H28226   7.035  -3.292   0.653 -1.6266  0.5111  0.3711
  950MOL0     H28227   7.006  -3.171   0.771 -4.0007 -2.8686 -1.5784
  950MOL0     H28228   7.262  -3.242   0.636  0.1133  2.4929 -1.8234
  950MOL0     H28229   7.266  -3.086   0.734  0.8398  0.2311 -1.2957
  950MOL0     H28230   6.939  -2.569   0.538 -1.0124 -2.1916 -2.1130
  950MOL0     H28231   6.990  -2.328   0.585  0.2939 -1.5796  0.7263
  950MOL0     H28232   6.820  -1.877   0.333  0.4111 -0.5231 -0.5810
  950MOL0     H28233   6.846  -1.626   0.355  2.0216  2.3696  1.3553
  950MOL0     H28234   5.936  -0.144   1.266  0.1388  0.2999 -0.7870
  950MOL0     H28235   5.911   0.082   1.310 -0.7072 -0.6927 -1.3335
  950MOL0     H28236   5.588   0.353   1.580 -0.7527  0.4948  1.8200
  950MOL0     H28237   5.509   0.575   1.676  0.1856  0.2875  1.0984
  950MOL0     H28238   5.549   0.831   1.565 -3.1858  2.3668  0.8736
  950MOL0     H28239   5.690   0.932   1.588  0.2085 -0.3967  0.3260
  950MOL0     H28240   5.589   1.017   1.793 -1.9424  1.9856  0.9240
  950MOL0     H28241   5.461   0.895   1.787 -2.0863  1.1140 -1.6652
  950MOL0     H28242   5.384   1.002   1.556 -1.5551  2.9139 -0.7992
  950MOL0     H28243   5.525   1.107   1.570 -0.2739 -3.1592 -2.9472
  950MOL0     H28244   5.284   1.077   1.772 -0.5446 -0.2029 -1.0277
  950MOL0     H28245   5.418   1.208   1.770  0.7878 -1.5234 -0.9537
  950MOL0     H28246   5.206   1.351   1.439  1.0876  0.4395 -1.3762
  950MOL0     H28247   5.911   0.708   1.648 -2.5040  1.4186  0.8520
  950MOL0     H28248   6.029   0.541   1.423  0.7717  1.3464 -0.2725
  950MOL0     H28249   6.087   0.570   1.591 -0.1063 -1.5338  0.1614
  950MOL0     H28250   6.082   0.409   1.526  0.6854  1.3325 -0.8375
  951MOL0     O28251   0.237   9.861  10.864 -0.1271 -0.4218  0.0583
  951MOL0     C28252   0.318   9.914  10.789 -0.6406  0.7689  0.1143
  951MOL0     O28253   0.327   9.884  10.651  0.3687 -0.8361 -0.4280
  951MOL0     C28254   0.229   9.818  10.582 -0.4807 -1.4706  0.0600
  951MOL0     C28255   0.271   9.739  10.483 -0.6711 -0.5675  0.4753
  951MOL0     C28256   0.192   9.667  10.400  1.0423 -0.8596  0.9337
  951MOL0     C28257   0.054   9.660  10.420  0.2395  0.5179  0.0336
  951MOL0     O28258  -0.026   9.581  10.329 -0.7053  0.5602 -0.3782
  951MOL0     C28259  -0.165   9.556  10.356 -0.0125 -0.8635  0.0780
  951MOL0     C28260  -0.198   9.460  10.472  0.0842 -0.5095 -0.5968
  951MOL0     C28261  -0.120   9.327  10.462 -0.6574  0.3801  0.1293
  951MOL0     C28262  -0.147   9.251  10.584 -0.3536  0.0887 -0.5926
  951MOL0     C28263  -0.057   9.141  10.613 -0.2311 -0.8502  0.0612
  951MOL0     C28264  -0.034   9.040  10.496 -0.7262 -1.0416 -0.1707
  951MOL0     C28265   0.081   8.937  10.543 -0.5166 -0.6362 -0.8878
  951MOL0     C28266   0.049   8.802  10.613 -0.5018  0.5268  0.2928
  951MOL0     N28267  -0.024   8.834  10.734 -0.3872 -1.1526 -0.3516
  951MOL0     C28268   0.033   8.882  10.853  0.3529 -0.2835  0.0265
  951MOL0     C28269  -0.073   8.899  10.934 -0.8310  0.7762 -0.1642
  951MOL0     C28270  -0.079   8.936  11.078 -0.4503  0.1349 -0.1027
  951MOL0     C28271  -0.118   9.086  11.101 -0.7714  0.4921 -0.1641
  951MOL0     C28272  -0.207   9.089  11.239 -0.0124  0.0846 -0.2638
  951MOL0     C28273  -0.356   9.058  11.224 -1.3176  0.6688  0.1937
  951MOL0     O28274  -0.429   9.090  11.347 -1.1900 -0.1000  0.2339
  951MOL0     C28275  -0.560   9.102  11.333  0.6322  0.1851  0.7433
  951MOL0     C28276  -0.641   8.992  11.355  1.2366 -0.0492 -0.1251
  951MOL0     C28277  -0.781   8.994  11.341  0.7185 -0.1968 -1.1972
  951MOL0     C28278  -0.845   9.116  11.316  0.3148 -0.9573  0.3828
  951MOL0     C28279  -0.991   9.128  11.299  0.1907  0.2025 -0.5594
  951MOL0     O28280  -1.069   9.011  11.303  0.3900 -0.4309 -0.4288
  951MOL0     C28281  -1.200   9.028  11.294 -0.5863  0.9204 -0.2616
  951MOL0     C28282  -1.278   9.029  11.409  0.7684 -1.0440  0.2945
  951MOL0     C28283  -1.421   9.040  11.390  0.0879  0.7862  0.0839
  951MOL0     C28284  -1.477   9.042  11.264 -0.1882 -0.6028 -0.7957
  951MOL0     O28285  -1.614   9.039  11.246 -0.3479 -0.5932  0.2700
  951MOL0     C28286  -1.704   9.113  11.331 -0.4253  0.3686  0.6950
  951MOL0     C28287  -1.847   9.103  11.274 -0.0211  0.2706 -0.6810
  951MOL0     C28288  -1.853   9.179  11.134 -0.2507 -0.0003  0.5921
  951MOL0     C28289  -1.982   9.180  11.054 -0.7770 -0.3685  0.2779
  951MOL0     C28290  -1.961   9.239  10.915  0.4084 -0.2391  0.4088
  951MOL0     C28291  -2.095   9.252  10.848  1.5727 -0.0944 -0.0736
  951MOL0     C28292  -2.090   9.232  10.695 -0.9037 -0.1019 -0.2716
  951MOL0     C28293  -2.220   9.261  10.631 -1.1022 -0.1118 -0.6130
  951MOL0    Cl28294  -2.197   9.253  10.462  0.1817 -0.2177  0.6862
  951MOL0     C28295  -1.391   9.037  11.156  0.4350 -0.2078  0.4459
  951MOL0     C28296  -1.253   9.017  11.164 -0.5250  0.4894  0.2700
  951MOL0     O28297  -1.037   9.245  11.294 -0.4651  0.8519  0.1715
  951MOL0     C28298  -0.760   9.223  11.295  0.4017  0.3210  0.3157
  951MOL0     C28299  -0.622   9.217  11.291 -1.1189  0.3798 -0.0417
  951MOL0     N28300  -0.185   8.877  10.860  0.6151  0.2897  1.1287
  951MOL0     N28301  -0.159   8.827  10.744 -0.5676 -0.8597  0.2751
  951MOL0     C28302   0.009   9.747  10.519  0.1801 -0.5209  0.1489
  951MOL0     C28303   0.090   9.826  10.611 -0.7087 -1.2166  0.3976
  951MOL0     C28304   0.419  10.021  10.839  0.1201 -0.9847 -0.3663
  951MOL0     C28305   0.542  10.031  10.770 -0.0109  0.3262 -0.2964
  951MOL0     C28306   0.636  10.123  10.807  0.1760 -1.5269  0.8669
  951MOL0     C28307   0.615  10.213  10.915 -0.1090  0.3818  0.0273
  951MOL0     O28308   0.692  10.314  10.953  0.3807  0.4320 -0.4086
  951MOL0     C28309   0.810  10.346  10.875  0.6052 -0.1081 -0.4444
  951MOL0     C28310   0.877  10.463  10.932 -0.2048 -0.2255 -0.0404
  951MOL0     C28311   0.952  10.434  11.065 -0.6241 -0.5861  0.1185
  951MOL0     C28312   1.032  10.553  11.113 -0.1072  0.0159  0.2997
  951MOL0     C28313   1.137  10.525  11.215 -0.3234  0.7637  0.5917
  951MOL0     C28314   1.220  10.487  11.295  0.1980  0.3251  0.3255
  951MOL0     C28315   0.494  10.207  10.985  0.4163  0.0924  0.2530
  951MOL0     C28316   0.387  10.118  10.945 -0.8235 -0.4580  0.3945
  951MOL0     C28317   0.252  10.109  11.020 -0.0961 -0.6352  0.6017
  951MOL0     H28318   0.378   9.733  10.467  0.1138  2.3698  3.5334
  951MOL0     H28319   0.256   9.604  10.338  0.2956  1.9993 -3.1551
  951MOL0     H28320  -0.223   9.646  10.378  0.2876 -1.2698  2.9319
  951MOL0     H28321  -0.192   9.505  10.263 -1.0362 -0.0039 -0.1092
  951MOL0     H28322  -0.308   9.460  10.478  0.1172 -0.2532  0.1467
  951MOL0     H28323  -0.175   9.505  10.569  0.3071 -2.2947  0.2197
  951MOL0     H28324  -0.015   9.356  10.454 -1.2104  2.7097  0.5703
  951MOL0     H28325  -0.145   9.288  10.363  0.3060  1.7926 -0.7013
  951MOL0     H28326  -0.138   9.320  10.669 -0.9757 -0.2153 -0.2689
  951MOL0     H28327  -0.250   9.213  10.590 -0.5409  0.6735  4.4812
  951MOL0     H28328   0.041   9.183  10.638 -1.8813  3.1887  0.3742
  951MOL0     H28329  -0.093   9.091  10.703  3.7895  0.0733  2.4048
  951MOL0     H28330  -0.123   8.989  10.458 -1.0613 -1.8696  1.6156
  951MOL0     H28331   0.001   9.090  10.405  1.2545 -2.6441 -0.3565
  951MOL0     H28332   0.152   8.992  10.604 -4.0253  0.1890  2.9024
  951MOL0     H28333   0.127   8.900  10.451 -0.8515 -1.7415 -0.6325
  951MOL0     H28334  -0.005   8.742  10.540 -1.4953  2.0999 -0.3100
  951MOL0     H28335   0.141   8.748  10.637 -1.6877 -1.6839  0.1057
  951MOL0     H28336   0.134   8.909  10.883 -1.2242  4.1092  2.2429
  951MOL0     H28337  -0.148   8.867  11.126 -0.7795  0.3505 -0.2639
  951MOL0     H28338   0.012   8.920  11.136 -0.4181  1.7629  0.3551
  951MOL0     H28339  -0.026   9.139  11.126  0.9659 -1.6132 -1.7314
  951MOL0     H28340  -0.176   9.123  11.016  0.4810  0.1991 -1.1752
  951MOL0     H28341  -0.205   9.192  11.274 -1.4395  0.6374 -1.6887
  951MOL0     H28342  -0.154   9.034  11.318  0.5084 -0.0355 -0.6931
  951MOL0     H28343  -0.359   8.950  11.209 -2.0646  0.1191  3.4722
  951MOL0     H28344  -0.390   9.114  11.136  1.6470 -0.0490 -1.5607
  951MOL0     H28345  -0.595   8.902  11.394  1.1810 -0.4883 -1.0506
  951MOL0     H28346  -0.838   8.910  11.378  0.9883 -0.2880 -0.9811
  951MOL0     H28347  -1.245   9.016  11.511 -0.7704 -2.2297  0.6821
  951MOL0     H28348  -1.473   9.035  11.486  1.9799 -0.7639  1.0967
  951MOL0     H28349  -1.704   9.071  11.432  0.6242  0.3652  0.7065
  951MOL0     H28350  -1.668   9.216  11.342 -0.7502  0.6468 -0.6181
  951MOL0     H28351  -1.875   9.002  11.245 -1.1994  1.1471 -2.8972
  951MOL0     H28352  -1.914   9.149  11.347  2.5116  4.1954 -0.4905
  951MOL0     H28353  -1.808   9.278  11.151 -0.9728  0.2956  0.8396
  951MOL0     H28354  -1.780   9.127  11.073 -0.7600 -1.5445  1.2620
  951MOL0     H28355  -2.060   9.239  11.101  0.5039  1.6614 -0.0417
  951MOL0     H28356  -2.021   9.078  11.058 -0.0387 -0.6639  0.1504
  951MOL0     H28357  -1.887   9.175  10.866  1.1521  0.9500 -0.0503
  951MOL0     H28358  -1.924   9.342  10.920 -1.3390  0.3753  1.9500
  951MOL0     H28359  -2.164   9.176  10.887  1.1009  0.2453 -0.2359
  951MOL0     H28360  -2.147   9.341  10.886  1.8082  1.1720 -2.5359
  951MOL0     H28361  -2.060   9.130  10.670 -1.8101 -1.3572  3.1814
  951MOL0     H28362  -2.013   9.296  10.651 -0.0960 -1.1641 -0.4286
  951MOL0     H28363  -2.297   9.189  10.657 -0.5309 -1.5877 -2.7529
  951MOL0     H28364  -2.254   9.359  10.664 -1.6869 -0.6658  0.4661
  951MOL0     H28365  -1.445   9.020  11.064  0.2239  0.4221  0.4491
  951MOL0     H28366  -1.200   9.014  11.069  2.3669  1.3302  1.7336
  951MOL0     H28367  -0.806   9.318  11.270 -2.7510 -0.1434  3.5467
  951MOL0     H28368  -0.563   9.305  11.266 -1.6106  2.4568  5.0157
  951MOL0     H28369  -0.097   9.757  10.544  0.3917 -0.7173  1.1666
  951MOL0     H28370   0.057   9.904  10.679  0.3844 -4.0739  4.5799
  951MOL0     H28371   0.563   9.963  10.688  5.5212  2.5077 -1.1379
  951MOL0     H28372   0.730  10.139  10.755 -1.8113  2.0646 -2.1771
  951MOL0     H28373   0.781  10.370  10.772  0.9066 -2.7677 -1.2314
  951MOL0     H28374   0.875  10.259  10.856 -1.7112 -1.7045 -1.4714
  951MOL0     H28375   0.802  10.542  10.931  0.9735  0.9575 -1.6635
  951MOL0     H28376   0.949  10.488  10.853 -1.2163 -1.0102 -1.2395
  951MOL0     H28377   1.015  10.347  11.041 -0.9354 -0.4646 -1.2381
  951MOL0     H28378   0.874  10.416  11.140  0.3075  0.9394  1.5078
  951MOL0     H28379   1.082  10.617  11.040 -1.4020  0.5226 -0.1667
  951MOL0     H28380   0.958  10.623  11.153 -0.2164  2.4112 -3.6311
  951MOL0     H28381   1.278  10.443  11.374 -0.2189  1.8097  1.5065
  951MOL0     H28382   0.473  10.281  11.062  0.2313 -1.3014  1.5821
  951MOL0     H28383   0.262  10.017  11.078  1.5483  0.2494  1.8149
  951MOL0     H28384   0.244  10.197  11.086  0.2296 -1.0334  1.1787
  951MOL0     H28385   0.171  10.109  10.946  1.0153 -1.0403 -0.6431
  952MOL0     O28386   0.786   8.018  10.857  1.0018  0.5648 -0.3052
  952MOL0     C28387   0.715   7.936  10.794  0.0806 -0.0910  0.1020
  952MOL0     O28388   0.587   7.906  10.843  0.6151  0.8849  0.3557
  952MOL0     C28389   0.564   7.908  10.981 -0.5376 -0.2281 -1.0645
  952MOL0     C28390   0.659   7.865  11.075  0.2355  0.0178  0.4152
  952MOL0     C28391   0.626   7.855  11.210 -0.2661 -0.6405 -0.9199
  952MOL0     C28392   0.497   7.910  11.250  0.1851 -0.6805 -0.2259
  952MOL0     O28393   0.473   7.883  11.384  0.4851  0.5902 -0.4636
  952MOL0     C28394   0.344   7.903  11.442 -0.0153 -0.6758  0.2094
  952MOL0     C28395   0.350   7.894  11.594 -0.1945 -0.8956  0.2231
  952MOL0     C28396   0.364   7.751  11.635 -0.1106  1.0709  0.3650
  952MOL0     C28397   0.498   7.730  11.703  0.5205 -0.3703 -0.5826
  952MOL0     C28398   0.507   7.780  11.852 -0.3476  0.1391  0.0158
  952MOL0     C28399   0.643   7.765  11.918 -1.2006 -0.6528 -0.2290
  952MOL0     C28400   0.675   7.886  12.013 -0.1196 -0.6006  0.0902
  952MOL0     C28401   0.654   8.034  11.966  0.3691  0.9498 -1.2772
  952MOL0     N28402   0.736   8.123  12.036  0.3653 -1.0802  0.0833
  952MOL0     C28403   0.870   8.160  11.999 -0.2445  0.0181  0.0063
  952MOL0     C28404   0.907   8.246  12.102 -0.3260  0.1174 -0.0419
  952MOL0     C28405   1.046   8.302  12.113  0.5505 -0.4695  0.1492
  952MOL0     C28406   1.154   8.192  12.123 -0.1099 -0.1274  0.0013
  952MOL0     C28407   1.143   8.094  12.236 -0.1644  0.5036 -0.2003
  952MOL0     C28408   1.207   7.953  12.216 -0.2455  0.0968 -0.8756
  952MOL0     O28409   1.149   7.882  12.116  0.0218  0.2677 -0.5071
  952MOL0     C28410   1.186   7.752  12.110  0.2141 -0.2876 -0.3051
  952MOL0     C28411   1.077   7.662  12.108 -0.1177 -0.0765  0.3369
  952MOL0     C28412   1.100   7.526  12.098  0.0565 -0.0392 -0.1671
  952MOL0     C28413   1.236   7.473  12.093 -0.5546  0.2241 -1.3562
  952MOL0     C28414   1.256   7.323  12.068 -0.5425 -0.8087  0.6853
  952MOL0     O28415   1.382   7.282  12.059  0.6278 -0.1106  0.0524
  952MOL0     C28416   1.407   7.150  12.040  0.5244  0.5913 -0.4055
  952MOL0     C28417   1.487   7.118  11.918  1.5120 -0.7278  1.0621
  952MOL0     C28418   1.502   6.985  11.887  0.6555 -0.2728  0.3134
  952MOL0     C28419   1.440   6.888  11.969  0.5123 -0.5969 -0.4096
  952MOL0     O28420   1.452   6.756  11.948 -0.0328  0.0650 -0.2376
  952MOL0     C28421   1.524   6.709  11.835  0.3435 -0.4873 -0.5357
  952MOL0     C28422   1.547   6.559  11.832 -0.2334 -0.1354  0.9717
  952MOL0     C28423   1.414   6.498  11.777 -0.2860  0.2941  0.0342
  952MOL0     C28424   1.393   6.347  11.779  0.8094  0.2207  0.0635
  952MOL0     C28425   1.288   6.311  11.664  0.1839 -0.4338  0.5977
  952MOL0     C28426   1.143   6.361  11.706  0.3018 -0.6970  0.3048
  952MOL0     C28427   1.037   6.336  11.596  0.3303 -0.4045 -0.3132
  952MOL0     C28428   0.895   6.323  11.637 -0.7755 -0.4155 -0.8869
  952MOL0    Cl28429   0.867   6.161  11.711 -0.1678 -0.6385 -0.7000
  952MOL0     C28430   1.360   6.916  12.080 -1.4609  0.0353  0.3824
  952MOL0     C28431   1.351   7.051  12.116  0.3917  0.4048 -0.9932
  952MOL0     O28432   1.157   7.266  12.030  0.4760  0.0029  0.1601
  952MOL0     C28433   1.350   7.563  12.106  1.0518 -0.1531 -0.5917
  952MOL0     C28434   1.317   7.704  12.112  0.2351  0.3250 -0.4013
  952MOL0     N28435   0.792   8.279  12.179 -1.2198 -0.3764 -0.1412
  952MOL0     N28436   0.694   8.201  12.141 -0.4994 -0.7826 -0.5942
  952MOL0     C28437   0.404   7.966  11.155 -0.7985  0.2561 -0.4525
  952MOL0     C28438   0.434   7.947  11.019 -0.4388  0.9282 -0.0197
  952MOL0     C28439   0.749   7.882  10.664 -0.3726 -0.1606  0.2326
  952MOL0     C28440   0.661   7.786  10.606  0.9041 -0.0129  0.5186
  952MOL0     C28441   0.685   7.719  10.484  0.0030 -0.4731 -0.0145
  952MOL0     C28442   0.796   7.755  10.403  0.7889 -1.1575  0.1252
  952MOL0     O28443   0.805   7.701  10.278  0.0954  0.4803 -0.3774
  952MOL0     C28444   0.938   7.703  10.215  0.5957  0.1370  0.4398
  952MOL0     C28445   0.909   7.639  10.088 -0.8059 -0.4536  0.1385
  952MOL0     C28446   0.878   7.492  10.104  0.4790 -0.4043  1.1974
  952MOL0     C28447   0.804   7.404   9.995  0.4612 -0.2435 -0.6161
  952MOL0     C28448   0.673   7.457   9.977  0.1929  0.0398 -0.9168
  952MOL0     C28449   0.563   7.505   9.978  0.0316  0.1344 -0.0671
  952MOL0     C28450   0.897   7.826  10.475  0.6272 -0.2752  0.2413
  952MOL0     C28451   0.876   7.890  10.599  0.4904  0.0315 -0.6877
  952MOL0     C28452   0.997   7.968  10.652  0.3866 -0.0719  0.1580
  952MOL0     H28453   0.755   7.821  11.051  0.5066 -0.5204  2.2966
  952MOL0     H28454   0.678   7.801  11.287  0.5147  2.6774  1.0957
  952MOL0     H28455   0.311   8.003  11.411  0.9530 -1.2670 -3.1417
  952MOL0     H28456   0.273   7.828  11.407  2.0034 -2.7262  0.3016
  952MOL0     H28457   0.253   7.926  11.633 -0.2342 -0.7669  0.0210
  952MOL0     H28458   0.432   7.957  11.630 -1.6494  2.2873 -1.6243
  952MOL0     H28459   0.342   7.682  11.553 -2.6323 -0.0503  1.8625
  952MOL0     H28460   0.286   7.737  11.711 -0.0109 -3.3962 -0.0847
  952MOL0     H28461   0.516   7.622  11.709 -1.8770 -0.8332 -0.6448
  952MOL0     H28462   0.567   7.791  11.644 -1.1821  3.0433  0.6822
  952MOL0     H28463   0.483   7.885  11.833  2.0377  0.2571 -3.0743
  952MOL0     H28464   0.426   7.743  11.916  0.4628  0.0048  0.9953
  952MOL0     H28465   0.655   7.680  11.985 -0.4580 -0.3281  0.0658
  952MOL0     H28466   0.718   7.755  11.839 -2.7646  0.2937 -1.9333
  952MOL0     H28467   0.779   7.875  12.044 -0.7139  0.4849  2.8073
  952MOL0     H28468   0.620   7.868  12.106 -0.8826 -1.1720 -0.4580
  952MOL0     H28469   0.672   8.037  11.858  0.3568 -4.1091 -1.6291
  952MOL0     H28470   0.547   8.046  11.985  0.2295 -1.3751 -0.2887
  952MOL0     H28471   0.927   8.131  11.912 -0.8055 -1.4640  0.1021
  952MOL0     H28472   1.069   8.373  12.032 -0.8983  0.7686  0.7605
  952MOL0     H28473   1.052   8.366  12.201  2.0657  0.7448 -0.7878
  952MOL0     H28474   1.134   8.135  12.032 -1.1012  2.5121 -1.5293
  952MOL0     H28475   1.259   8.223  12.116  0.5822 -2.6561 -2.8009
  952MOL0     H28476   1.039   8.067  12.258 -0.2791  1.0967 -0.0101
  952MOL0     H28477   1.188   8.153  12.316  2.4312  0.7564 -1.7421
  952MOL0     H28478   1.205   7.902  12.313  0.7389  1.1810 -0.2545
  952MOL0     H28479   1.314   7.964  12.197 -0.6550  1.4563 -2.6998
  952MOL0     H28480   0.977   7.704  12.118  0.8363  2.6607 -0.6819
  952MOL0     H28481   1.019   7.454  12.092 -0.0777 -0.0311  1.3661
  952MOL0     H28482   1.511   7.199  11.850 -1.2370  0.4618  1.3754
  952MOL0     H28483   1.566   6.954  11.805  1.7433  0.0655  1.0190
  952MOL0     H28484   1.467   6.739  11.747 -0.2241 -1.2536 -0.4408
  952MOL0     H28485   1.626   6.747  11.846  0.1231 -0.2614  1.0636
  952MOL0     H28486   1.621   6.558  11.751 -0.0491  3.2153  0.9510
  952MOL0     H28487   1.585   6.519  11.926 -1.1084 -2.0156  0.5679
  952MOL0     H28488   1.335   6.535  11.843 -1.1194 -1.1028 -0.1400
  952MOL0     H28489   1.407   6.537  11.675  1.2785 -1.3071 -0.7415
  952MOL0     H28490   1.358   6.297  11.869  1.2469 -1.8383 -0.8395
  952MOL0     H28491   1.488   6.303  11.748  0.4618  1.8400 -3.8481
  952MOL0     H28492   1.288   6.202  11.648 -2.7249 -0.8270  2.4598
  952MOL0     H28493   1.303   6.357  11.567 -2.3774 -0.6327  0.0495
  952MOL0     H28494   1.111   6.299  11.791 -2.8665  1.2734  0.7205
  952MOL0     H28495   1.161   6.463  11.742  0.5092 -0.0170 -1.6393
  952MOL0     H28496   1.068   6.238  11.558 -1.4486 -0.9698 -0.3964
  952MOL0     H28497   1.039   6.415  11.520 -4.4230  0.0091 -0.3368
  952MOL0     H28498   0.856   6.392  11.712 -0.4020 -3.8650  2.8280
  952MOL0     H28499   0.837   6.319  11.544 -2.7271 -0.3631  0.2716
  952MOL0     H28500   1.325   6.842  12.151  2.5953 -1.7212  0.8342
  952MOL0     H28501   1.288   7.076  12.200 -1.1225 -2.6323 -1.1165
  952MOL0     H28502   1.454   7.531  12.114  1.7224  1.0847 -3.1339
  952MOL0     H28503   1.396   7.777  12.123 -1.2899  2.7049 -3.6140
  952MOL0     H28504   0.305   7.999  11.185 -0.1732 -1.8643  5.0958
  952MOL0     H28505   0.357   7.979  10.950 -0.9557  4.5801  2.0021
  952MOL0     H28506   0.568   7.765  10.658  1.1829  0.6744  1.3144
  952MOL0     H28507   0.612   7.653  10.438 -0.5012 -2.4213  3.2726
  952MOL0     H28508   1.019   7.647  10.263  2.5947  1.9507 -0.6872
  952MOL0     H28509   0.961   7.809  10.218 -1.4977  0.6163  1.2752
  952MOL0     H28510   0.995   7.652  10.022 -0.8507  2.5522  0.5714
  952MOL0     H28511   0.821   7.679  10.038 -1.1957  1.3448  2.1307
  952MOL0     H28512   0.823   7.481  10.198  0.5100  3.3606  1.8210
  952MOL0     H28513   0.973   7.442  10.127  0.1074 -0.5909  2.3605
  952MOL0     H28514   0.852   7.408   9.897 -1.3305  2.7236 -1.5044
  952MOL0     H28515   0.804   7.299  10.024 -1.6954 -0.5194 -1.4034
  952MOL0     H28516   0.468   7.551   9.960 -0.7833 -1.9943 -1.4530
  952MOL0     H28517   0.984   7.856  10.418 -1.1080  1.0320 -1.8696
  952MOL0     H28518   0.967   8.060  10.704  1.9919  0.3186  0.4541
  952MOL0     H28519   1.052   7.907  10.724  1.4990 -2.2359 -2.3937
  952MOL0     H28520   1.075   7.999  10.582  1.5532  3.6878  2.7637
  953MOL0     O28521   0.978   8.659   3.815 -0.6424  0.7816 -0.6131
  953MOL0     C28522   0.982   8.588   3.721 -0.0282  0.1780  0.4742
  953MOL0     O28523   0.885   8.590   3.624  0.0514  1.4410 -0.0592
  953MOL0     C28524   0.837   8.705   3.576  0.1017 -0.0746 -0.1791
  953MOL0     C28525   0.892   8.842   3.585  0.4443 -0.7876  0.0399
  953MOL0     C28526   0.812   8.949   3.533 -1.0108 -0.8370  0.1934
  953MOL0     C28527   0.698   8.923   3.459  0.4962  0.5935  0.2390
  953MOL0     O28528   0.644   9.030   3.404  0.2500  0.3776  1.2235
  953MOL0     C28529   0.626   9.026   3.264  0.7451 -0.4892  0.5569
  953MOL0     C28530   0.764   9.065   3.212 -0.4448  0.1671 -0.7529
  953MOL0     C28531   0.749   9.103   3.069 -0.0669 -1.3092  0.4491
  953MOL0     C28532   0.722   8.986   2.976  0.8290 -0.6769 -0.0101
  953MOL0     C28533   0.687   9.026   2.830  0.7876 -0.3535 -0.6794
  953MOL0     C28534   0.558   9.098   2.788 -0.3273  0.0734 -1.1952
  953MOL0     C28535   0.535   9.131   2.640  0.3904  0.4541  0.7063
  953MOL0     C28536   0.418   9.227   2.608  0.9055  0.8134  0.3464
  953MOL0     N28537   0.388   9.249   2.466  0.8899 -0.6879  0.2129
  953MOL0     C28538   0.401   9.152   2.370 -0.1559 -0.1148  0.1902
  953MOL0     C28539   0.429   9.229   2.255 -0.9125 -0.3823  0.1116
  953MOL0     C28540   0.470   9.178   2.121 -0.5897  0.1399  0.7948
  953MOL0     C28541   0.598   9.253   2.076  0.3612 -0.5718 -0.4099
  953MOL0     C28542   0.718   9.205   2.148 -0.1320  0.7438  0.2126
  953MOL0     C28543   0.796   9.108   2.059 -1.3000  0.1225  0.7604
  953MOL0     O28544   0.872   9.179   1.960 -0.9203 -0.0981 -0.1697
  953MOL0     C28545   0.987   9.241   2.003 -0.3353 -0.0350  1.0684
  953MOL0     C28546   0.987   9.378   2.028 -0.1983  0.3270 -0.7987
  953MOL0     C28547   1.087   9.454   2.080 -0.2129  0.2811 -0.4696
  953MOL0     C28548   1.198   9.379   2.128 -0.5880  0.7502  0.5783
  953MOL0     C28549   1.323   9.454   2.165  0.5278  0.0199  0.2342
  953MOL0     O28550   1.307   9.576   2.217 -0.1891 -0.2586 -0.8089
  953MOL0     C28551   1.417   9.660   2.241  0.0976  0.4251  0.3065
  953MOL0     C28552   1.514   9.635   2.335  0.7432 -0.4067 -0.3906
  953MOL0     C28553   1.627   9.722   2.352  0.5142 -0.1280 -0.7098
  953MOL0     C28554   1.656   9.826   2.257  0.5545 -0.1675 -0.4704
  953MOL0     O28555   1.762   9.916   2.263 -0.8486  0.2640 -0.1328
  953MOL0     C28556   1.858   9.918   2.364 -0.7671 -0.1368 -0.4010
  953MOL0     C28557   2.004   9.976   2.339  0.3531 -0.1163 -0.0491
  953MOL0     C28558   2.084   9.901   2.235 -0.5151 -0.2968  0.0984
  953MOL0     C28559   2.235   9.902   2.278  1.2781 -0.3343  0.1437
  953MOL0     C28560   2.342   9.818   2.201 -0.1771  0.0846  0.8166
  953MOL0     C28561   2.325   9.849   2.049  0.3854  0.4654  0.3577
  953MOL0     C28562   2.386   9.750   1.951  0.4124  0.1940  0.1248
  953MOL0     C28563   2.539   9.754   1.964 -0.2242 -0.5012  0.5947
  953MOL0    Cl28564   2.619   9.678   1.824 -0.3537  0.4028 -0.2198
  953MOL0     C28565   1.548   9.851   2.156 -1.0984 -0.1191 -0.5808
  953MOL0     C28566   1.439   9.774   2.157 -0.0834  1.5148  0.8391
  953MOL0     O28567   1.430   9.402   2.143  0.0067  0.0600 -0.7337
  953MOL0     C28568   1.208   9.235   2.109 -0.2656 -0.2411  0.8877
  953MOL0     C28569   1.097   9.170   2.042 -0.3702 -0.2492  0.4158
  953MOL0     N28570   0.394   9.365   2.283  0.4899  0.2961  1.0283
  953MOL0     N28571   0.385   9.377   2.406 -0.5979 -0.1642  0.2863
  953MOL0     C28572   0.655   8.793   3.439  0.5731  0.8770 -0.3186
  953MOL0     C28573   0.721   8.682   3.497 -1.0346 -0.7174 -0.2389
  953MOL0     C28574   1.088   8.486   3.715  0.6197  0.7867  0.0313
  953MOL0     C28575   1.072   8.381   3.627 -0.7396 -0.5128 -0.6719
  953MOL0     C28576   1.157   8.271   3.626 -0.4912  0.3952  0.7835
  953MOL0     C28577   1.266   8.269   3.717 -0.2124 -0.7280  0.2569
  953MOL0     O28578   1.358   8.165   3.720  0.2658 -0.0638  0.5311
  953MOL0     C28579   1.458   8.138   3.825  0.2907  0.8414  0.3192
  953MOL0     C28580   1.527   8.013   3.797  0.3520  0.0118 -1.2476
  953MOL0     C28581   1.491   7.874   3.864  0.1234  0.7817 -0.7675
  953MOL0     C28582   1.343   7.855   3.897  0.1999 -0.4671 -0.4576
  953MOL0     C28583   1.251   7.851   3.786  0.0453  0.9570  0.7339
  953MOL0     C28584   1.168   7.841   3.694  0.1436  0.1341 -0.1373
  953MOL0     C28585   1.291   8.379   3.795 -0.1638  0.5951  0.0213
  953MOL0     C28586   1.206   8.490   3.788 -0.2540 -0.0412 -0.1068
  953MOL0     C28587   1.263   8.619   3.855 -0.2224  0.7225 -0.0207
  953MOL0     H28588   0.980   8.856   3.648 -0.1492  0.8161  0.5525
  953MOL0     H28589   0.845   9.052   3.539  0.9977 -1.2843 -1.8496
  953MOL0     H28590   0.591   8.925   3.238 -1.7103  0.0425  1.4729
  953MOL0     H28591   0.545   9.093   3.232  1.4250 -0.1543 -0.5008
  953MOL0     H28592   0.836   8.985   3.234 -3.3440 -1.9945  1.7476
  953MOL0     H28593   0.801   9.155   3.263  2.6292  0.5597 -3.3410
  953MOL0     H28594   0.844   9.147   3.039 -0.9999  0.4990  0.0131
  953MOL0     H28595   0.677   9.183   3.053  0.2586 -1.4227 -1.9635
  953MOL0     H28596   0.808   8.921   2.963  0.5203 -1.0372 -0.2471
  953MOL0     H28597   0.631   8.935   3.009 -0.9465  1.3926 -1.4290
  953MOL0     H28598   0.775   9.072   2.784  0.8848 -1.1720 -1.3265
  953MOL0     H28599   0.677   8.926   2.786 -0.6905 -0.0026 -1.1961
  953MOL0     H28600   0.473   9.040   2.826  0.5741 -0.8883 -0.5877
  953MOL0     H28601   0.566   9.198   2.832  4.3236 -0.1485 -1.0136
  953MOL0     H28602   0.519   9.036   2.589  0.9158  1.1393 -0.7994
  953MOL0     H28603   0.625   9.179   2.600  1.7288  0.2391  3.2781
  953MOL0     H28604   0.321   9.194   2.645  0.9979  0.7983  0.5774
  953MOL0     H28605   0.450   9.323   2.650  0.9733  0.9013  0.0910
  953MOL0     H28606   0.392   9.045   2.382 -2.7261 -0.0805 -0.6619
  953MOL0     H28607   0.481   9.069   2.118 -0.5558  0.1448 -2.0971
  953MOL0     H28608   0.387   9.222   2.065  0.4914  1.2784  0.0473
  953MOL0     H28609   0.613   9.233   1.970 -2.0897  1.5402 -1.2532
  953MOL0     H28610   0.571   9.356   2.099 -2.0621 -1.6683  2.2059
  953MOL0     H28611   0.688   9.140   2.231 -3.4041 -3.8114 -3.9398
  953MOL0     H28612   0.792   9.280   2.177  0.3675  0.4141 -0.1919
  953MOL0     H28613   0.726   9.040   2.010  0.3995  0.8549 -2.9893
  953MOL0     H28614   0.864   9.048   2.121 -0.8523 -0.1241  0.0504
  953MOL0     H28615   0.893   9.428   2.006  0.1456  0.7087 -1.4428
  953MOL0     H28616   1.092   9.561   2.099 -0.3425  0.3793 -0.9653
  953MOL0     H28617   1.503   9.557   2.410 -0.9351 -1.0359 -1.2379
  953MOL0     H28618   1.687   9.710   2.441 -1.1084 -1.5331  0.2679
  953MOL0     H28619   1.807   9.971   2.446 -2.9013 -0.5701 -1.3880
  953MOL0     H28620   1.879   9.821   2.411 -2.6263  0.4886  1.9215
  953MOL0     H28621   1.989  10.080   2.309  0.7063 -0.4944 -1.6586
  953MOL0     H28622   2.064   9.974   2.430  3.2776  0.9186 -1.8110
  953MOL0     H28623   2.052   9.797   2.227  2.6459 -1.2301 -2.8851
  953MOL0     H28624   2.067   9.941   2.135  2.6625 -2.3803 -1.4474
  953MOL0     H28625   2.242   9.859   2.378  0.6371  0.3904  0.5084
  953MOL0     H28626   2.257  10.009   2.283 -1.1365  0.3869 -2.2554
  953MOL0     H28627   2.321   9.711   2.206 -0.4183  0.0113 -1.0487
  953MOL0     H28628   2.447   9.834   2.229  0.2481 -0.5343 -0.3556
  953MOL0     H28629   2.218   9.846   2.026  0.8606 -1.2837 -2.1385
  953MOL0     H28630   2.352   9.953   2.031 -5.3609  2.2036 -0.2575
  953MOL0     H28631   2.360   9.786   1.851  2.6563 -1.4711 -1.1551
  953MOL0     H28632   2.361   9.645   1.968  1.4858  0.0947  1.2185
  953MOL0     H28633   2.586   9.849   1.992 -0.3798 -1.2853  3.9124
  953MOL0     H28634   2.553   9.699   2.057 -1.9975 -1.4407  0.3452
  953MOL0     H28635   1.557   9.930   2.083  0.5480 -0.4758 -0.8100
  953MOL0     H28636   1.363   9.788   2.080 -0.4866  0.4487  1.0280
  953MOL0     H28637   1.297   9.175   2.122  1.1327  2.1196  2.9297
  953MOL0     H28638   1.113   9.065   2.020 -0.2177 -0.1632  0.1076
  953MOL0     H28639   0.561   8.776   3.388  0.5644 -0.0476 -0.0110
  953MOL0     H28640   0.678   8.586   3.472 -0.2136 -0.6675 -1.9984
  953MOL0     H28641   1.010   8.401   3.540  0.2208  3.8841 -0.5826
  953MOL0     H28642   1.132   8.191   3.557 -3.2400  2.3872 -0.7127
  953MOL0     H28643   1.405   8.132   3.921 -0.5618 -0.4703 -0.2074
  953MOL0     H28644   1.530   8.219   3.813 -0.4137  1.1856 -2.2610
  953MOL0     H28645   1.631   8.034   3.825  0.5256  0.0917 -1.9282
  953MOL0     H28646   1.509   7.993   3.691  0.0007 -2.6827 -0.7468
  953MOL0     H28647   1.550   7.871   3.956 -0.7531  0.0461 -0.2017
  953MOL0     H28648   1.527   7.802   3.789 -1.0295 -0.7062  0.0389
  953MOL0     H28649   1.334   7.753   3.937  0.8326 -0.8769 -1.3253
  953MOL0     H28650   1.314   7.928   3.973 -0.6731 -0.0090 -1.2113
  953MOL0     H28651   1.098   7.832   3.613  0.7642 -0.8391 -0.5800
  953MOL0     H28652   1.375   8.385   3.863  0.8415 -1.4392 -0.9417
  953MOL0     H28653   1.225   8.623   3.958  0.6740 -2.5915  0.5392
  953MOL0     H28654   1.371   8.636   3.860 -0.4340  1.7631  2.0799
  953MOL0     H28655   1.226   8.712   3.809  2.3424  3.8270  3.5529
  954MOL0     O28656   5.854   5.098   9.672  0.0263  0.2377  0.0373
  954MOL0     C28657   5.746   5.043   9.663 -0.3480  0.6701 -0.6561
  954MOL0     O28658   5.706   4.941   9.755 -0.8925  0.0294  0.4886
  954MOL0     C28659   5.803   4.881   9.843  0.5653  0.0985  0.1592
  954MOL0     C28660   5.808   4.748   9.848  0.7711 -0.3145  0.1158
  954MOL0     C28661   5.903   4.677   9.926 -0.4331  0.0215 -0.2945
  954MOL0     C28662   6.015   4.737  10.000  1.4902  0.9172  0.2138
  954MOL0     O28663   6.105   4.649  10.056  0.0683  0.1437 -0.1770
  954MOL0     C28664   6.184   4.709  10.158  0.9461 -0.5872  0.6456
  954MOL0     C28665   6.312   4.750  10.100  0.9835 -0.6480  0.7594
  954MOL0     C28666   6.384   4.845  10.194  0.0862  0.3468  0.5933
  954MOL0     C28667   6.477   4.775  10.291 -0.5869 -0.1272 -0.0541
  954MOL0     C28668   6.555   4.870  10.383 -0.6211  0.9367  0.5963
  954MOL0     C28669   6.653   4.773  10.454  0.5549  0.5327 -0.0098
  954MOL0     C28670   6.738   4.862  10.557  0.7424 -0.4525 -0.2020
  954MOL0     C28671   6.854   4.797  10.621  0.5015  0.2269  0.2136
  954MOL0     N28672   6.930   4.898  10.694  0.1393 -0.6944 -1.4062
  954MOL0     C28673   7.068   4.928  10.669 -0.3467 -0.5126 -0.5791
  954MOL0     C28674   7.093   5.039  10.754  0.4521  0.8715 -0.2735
  954MOL0     C28675   7.232   5.094  10.771  0.0310 -1.1567  0.4596
  954MOL0     C28676   7.251   5.211  10.667 -0.5554  0.6542  0.5228
  954MOL0     C28677   7.205   5.346  10.706 -0.4073  0.7412  0.0619
  954MOL0     C28678   7.060   5.372  10.669  0.8156 -0.2026  0.6906
  954MOL0     O28679   7.023   5.364  10.534 -0.0790 -0.2914 -0.0471
  954MOL0     C28680   6.888   5.344  10.506 -0.4881 -0.3019 -0.2091
  954MOL0     C28681   6.810   5.437  10.450  0.3121  0.8586 -0.2042
  954MOL0     C28682   6.677   5.409  10.419 -0.2627 -0.5937  0.4946
  954MOL0     C28683   6.616   5.297  10.440  0.2526  0.6267  0.4403
  954MOL0     C28684   6.480   5.277  10.402 -0.4629 -0.2438  0.3363
  954MOL0     O28685   6.421   5.157  10.401  0.8181 -0.3757  0.6246
  954MOL0     C28686   6.285   5.152  10.380 -1.0846  0.0146  0.1924
  954MOL0     C28687   6.219   5.178  10.260  0.6612  0.5737  0.5442
  954MOL0     C28688   6.083   5.165  10.241 -0.0360 -0.1005  0.5330
  954MOL0     C28689   6.028   5.086  10.338  1.0274 -0.2711 -0.2780
  954MOL0     O28690   5.901   5.036  10.322  0.2641 -0.6866  0.2011
  954MOL0     C28691   5.843   4.922  10.387  0.0340  0.2391  0.2080
  954MOL0     C28692   5.738   4.857  10.284  0.6212 -0.7026  0.6318
  954MOL0     C28693   5.651   4.758  10.362  0.4078  0.4832 -0.4736
  954MOL0     C28694   5.513   4.716  10.301  0.8985  0.3266 -0.2325
  954MOL0     C28695   5.423   4.837  10.279  0.5634  0.0878 -0.2358
  954MOL0     C28696   5.278   4.807  10.246 -0.5467  0.6828 -0.8168
  954MOL0     C28697   5.252   4.746  10.109 -0.1726  0.2146 -1.0997
  954MOL0     C28698   5.125   4.776  10.042 -0.0646 -0.3448  0.8515
  954MOL0    Cl28699   5.106   4.677   9.882 -0.1304  0.4156 -0.0270
  954MOL0     C28700   6.087   5.063  10.457 -0.0731 -0.2455  0.2626
  954MOL0     C28701   6.217   5.095  10.483  0.3509 -0.3989 -0.1645
  954MOL0     O28702   6.413   5.384  10.388  0.2751 -0.1172  0.3950
  954MOL0     C28703   6.691   5.208  10.523  0.0601 -0.2145  0.0883
  954MOL0     C28704   6.826   5.227  10.546 -0.3677  0.2401  1.4844
  954MOL0     N28705   6.981   5.061  10.837 -0.7980 -0.6652  0.5806
  954MOL0     N28706   6.882   4.991  10.799  0.1785 -0.8459  0.8870
  954MOL0     C28707   6.002   4.878   9.990 -0.9786 -0.0126 -0.4221
  954MOL0     C28708   5.900   4.946   9.924  1.0428  0.0098 -0.0623
  954MOL0     C28709   5.652   5.101   9.560 -0.4312 -0.4712  0.0061
  954MOL0     C28710   5.680   5.228   9.496 -0.1605  0.5622  0.1593
  954MOL0     C28711   5.601   5.267   9.383  0.9532  0.5429 -0.4959
  954MOL0     C28712   5.483   5.195   9.346  0.5110 -0.2441 -1.2012
  954MOL0     O28713   5.402   5.214   9.233  0.1917  0.5525 -0.2293
  954MOL0     C28714   5.428   5.326   9.154 -0.9281 -0.3452 -0.4408
  954MOL0     C28715   5.341   5.305   9.032 -0.5597 -0.1290  1.0631
  954MOL0     C28716   5.310   5.444   8.964 -0.5060 -0.5713 -0.6927
  954MOL0     C28717   5.227   5.436   8.828 -0.6194 -0.5894 -0.8807
  954MOL0     C28718   5.312   5.418   8.714 -0.7819 -0.1905  0.0114
  954MOL0     C28719   5.383   5.411   8.616  0.5366 -0.1778  0.7527
  954MOL0     C28720   5.457   5.079   9.412 -0.0936 -0.1441  0.2422
  954MOL0     C28721   5.533   5.026   9.521  0.8718 -0.8556  0.1772
  954MOL0     C28722   5.503   4.887   9.568 -0.3578 -1.0420  0.8210
  954MOL0     H28723   5.733   4.706   9.782 -3.5280  3.1040  2.3646
  954MOL0     H28724   5.892   4.569   9.928  2.7917 -0.4118  0.3070
  954MOL0     H28725   6.126   4.786  10.210 -1.6979 -1.7510 -0.3745
  954MOL0     H28726   6.208   4.636  10.236 -1.2469  0.3160  2.2841
  954MOL0     H28727   6.289   4.804  10.008  0.8769  1.0621  1.7474
  954MOL0     H28728   6.378   4.664  10.090 -1.7897 -2.9028  0.5898
  954MOL0     H28729   6.311   4.911  10.242 -0.6804  1.2895 -1.7119
  954MOL0     H28730   6.450   4.918  10.146  0.7612  0.5566  1.7902
  954MOL0     H28731   6.423   4.696  10.343 -0.0211 -1.2800 -1.1664
  954MOL0     H28732   6.551   4.719  10.233 -3.2776 -0.3226 -3.6448
  954MOL0     H28733   6.609   4.954  10.337 -0.8007  0.4401 -0.5550
  954MOL0     H28734   6.494   4.913  10.463 -0.5425 -0.1800  1.2822
  954MOL0     H28735   6.597   4.694  10.504  0.0063  0.1790 -1.1771
  954MOL0     H28736   6.733   4.729  10.393  0.7240 -2.0583  1.8784
  954MOL0     H28737   6.668   4.908  10.628  1.3387  0.4089 -0.1608
  954MOL0     H28738   6.773   4.946  10.497 -4.9258  1.2928 -1.7485
  954MOL0     H28739   6.823   4.724  10.696 -0.1080 -1.9659 -2.0368
  954MOL0     H28740   6.915   4.747  10.544 -2.3167 -0.9558 -1.3950
  954MOL0     H28741   7.132   4.870  10.603  3.3032  3.4388 -0.9504
  954MOL0     H28742   7.250   5.140  10.869 -1.3275  2.0938 -0.6444
  954MOL0     H28743   7.311   5.020  10.758 -0.5425 -1.8158  0.6448
  954MOL0     H28744   7.355   5.224  10.636 -0.8313 -0.7312 -1.1689
  954MOL0     H28745   7.201   5.183  10.574  1.2612 -0.5882 -0.1539
  954MOL0     H28746   7.253   5.409  10.631  0.9859  0.3059  0.5559
  954MOL0     H28747   7.226   5.376  10.808 -2.3738  1.9368  0.1732
  954MOL0     H28748   7.020   5.468  10.703 -0.9318 -0.2428 -1.0794
  954MOL0     H28749   6.993   5.301  10.718  0.1048  2.0670  3.2701
  954MOL0     H28750   6.862   5.528  10.424  0.2188  1.8277  2.6144
  954MOL0     H28751   6.624   5.490  10.369 -1.5230 -1.2554  0.7184
  954MOL0     H28752   6.280   5.215  10.179  0.3729  0.1572  0.1348
  954MOL0     H28753   6.033   5.177  10.145  3.3544  1.1398 -1.2237
  954MOL0     H28754   5.918   4.852  10.426  0.5049  1.8687  2.3989
  954MOL0     H28755   5.794   4.967  10.473 -0.4938  3.5070 -1.6329
  954MOL0     H28756   5.672   4.930  10.235  2.1523  0.1842 -0.1920
  954MOL0     H28757   5.784   4.802  10.202  0.3211 -1.8637  1.2228
  954MOL0     H28758   5.712   4.669  10.377 -1.4080 -0.3646  3.0522
  954MOL0     H28759   5.637   4.791  10.466  5.0212 -3.5474  1.8371
  954MOL0     H28760   5.450   4.660  10.370 -2.6398  5.9819  1.8193
  954MOL0     H28761   5.528   4.677  10.199 -0.2492  0.8845 -0.6237
  954MOL0     H28762   5.465   4.901  10.201  3.0300  3.0415  3.1583
  954MOL0     H28763   5.422   4.893  10.373 -0.7948  1.1079 -0.8219
  954MOL0     H28764   5.234   4.757  10.333 -0.8056 -1.7328 -2.2594
  954MOL0     H28765   5.219   4.899  10.246 -2.8748 -0.6367  2.6692
  954MOL0     H28766   5.261   4.638  10.124  2.5123  0.1835 -2.3064
  954MOL0     H28767   5.328   4.775  10.036  0.4749  1.2593 -0.0361
  954MOL0     H28768   5.033   4.778  10.101 -0.3453  1.2242  0.4267
  954MOL0     H28769   5.123   4.877   9.998  1.1256 -1.8880 -3.2113
  954MOL0     H28770   6.029   5.003  10.527 -1.7971 -3.5227 -3.5857
  954MOL0     H28771   6.269   5.078  10.576  0.8689  1.5071 -0.0561
  954MOL0     H28772   6.659   5.109  10.553  1.8050 -1.0365 -0.5793
  954MOL0     H28773   6.889   5.149  10.587  1.6434  0.9914  0.0099
  954MOL0     H28774   6.085   4.937  10.026 -2.5071  1.7158  0.4373
  954MOL0     H28775   5.900   5.054   9.921  1.3724  0.0151  0.1286
  954MOL0     H28776   5.766   5.288   9.525  0.9226  0.9957 -3.4255
  954MOL0     H28777   5.633   5.351   9.322  1.5598 -0.5443 -1.7415
  954MOL0     H28778   5.536   5.337   9.136 -0.7165 -0.7990  0.4729
  954MOL0     H28779   5.381   5.409   9.208 -1.1457 -2.5131  3.0703
  954MOL0     H28780   5.246   5.257   9.055 -0.4189 -0.8215  0.2362
  954MOL0     H28781   5.395   5.241   8.963 -0.5262  0.9874  0.0201
  954MOL0     H28782   5.389   5.515   8.938 -1.8613  0.5807 -1.8498
  954MOL0     H28783   5.250   5.501   9.036  2.5535  3.0881 -0.7634
  954MOL0     H28784   5.156   5.354   8.841 -3.6465  2.1639  1.8645
  954MOL0     H28785   5.178   5.532   8.812 -3.2840 -1.8263 -0.6260
  954MOL0     H28786   5.423   5.427   8.518 -0.4605 -0.8028  0.2269
  954MOL0     H28787   5.371   5.020   9.381  0.3783 -1.0590  0.6524
  954MOL0     H28788   5.505   4.886   9.677 -2.5750  0.6716  0.9518
  954MOL0     H28789   5.406   4.857   9.529 -0.2346 -1.6285  0.9525
  954MOL0     H28790   5.575   4.818   9.523 -0.5170 -0.3070 -0.6134
  955MOL0     O28791   4.142   9.967   1.680 -0.0006  0.0459 -0.0506
  955MOL0     C28792   4.029   9.958   1.737  0.1704  1.0267  0.1581
  955MOL0     O28793   3.965  10.060   1.806  0.0400  0.4689  0.2816
  955MOL0     C28794   4.035  10.165   1.830  0.0768  0.1747  0.0661
  955MOL0     C28795   4.080  10.203   1.962 -0.4819 -0.3901  0.4010
  955MOL0     C28796   4.129  10.331   1.997 -0.5275  0.3009 -0.6194
  955MOL0     C28797   4.154  10.421   1.882 -0.4141  0.9960 -1.1058
  955MOL0     O28798   4.197  10.553   1.894  0.0785  0.0235  0.0496
  955MOL0     C28799   4.212  10.608   2.025  0.4249  0.5239  0.7222
  955MOL0     C28800   4.246  10.756   2.018 -0.3626 -0.3191 -0.2589
  955MOL0     C28801   4.296  10.805   2.149 -0.2556 -0.3136 -0.5363
  955MOL0     C28802   4.446  10.754   2.184  0.3944 -0.9231 -0.3144
  955MOL0     C28803   4.481  10.804   2.325  0.2007 -0.2341  0.5075
  955MOL0     C28804   4.546  10.950   2.319 -0.4421 -0.5787  0.9943
  955MOL0     C28805   4.676  10.975   2.242  0.0537 -0.2945 -0.4095
  955MOL0     C28806   4.729  11.113   2.291 -0.0313  0.7019 -0.5312
  955MOL0     N28807   4.861  11.148   2.228  0.2175 -0.0732 -0.1496
  955MOL0     C28808   4.984  11.129   2.287 -0.0115 -0.6187 -0.1776
  955MOL0     C28809   5.071  11.178   2.198 -0.9630 -0.4109 -0.2055
  955MOL0     C28810   5.222  11.178   2.210  0.5993 -0.8682 -0.6695
  955MOL0     C28811   5.272  11.282   2.319  0.3105  0.7543 -0.1196
  955MOL0     C28812   5.252  11.427   2.286  0.1736 -0.6276 -0.0909
  955MOL0     C28813   5.109  11.480   2.305 -0.1680 -0.1834 -0.4391
  955MOL0     O28814   5.101  11.623   2.291 -0.0631 -0.4472  0.1434
  955MOL0     C28815   5.095  11.703   2.407 -0.2225  0.1598  0.6157
  955MOL0     C28816   5.173  11.669   2.521 -1.0468  0.6795 -0.1170
  955MOL0     C28817   5.178  11.764   2.619 -0.5368 -0.6739 -0.6975
  955MOL0     C28818   5.097  11.878   2.620 -0.9728 -0.5398  0.7148
  955MOL0     C28819   5.101  11.965   2.742 -0.4094  0.8029  0.0610
  955MOL0     O28820   5.158  11.915   2.859 -0.2899  0.4213 -0.2307
  955MOL0     C28821   5.153  11.989   2.978 -0.8727 -0.6301  0.2593
  955MOL0     C28822   5.059  12.089   3.006 -0.6079 -0.3742  0.8624
  955MOL0     C28823   5.068  12.167   3.118  0.6064 -1.0808 -0.1796
  955MOL0     C28824   5.171  12.154   3.213 -0.2821 -0.5781  0.0772
  955MOL0     O28825   5.170  12.236   3.332  0.0294  0.0507  0.1884
  955MOL0     C28826   5.280  12.210   3.423 -0.5364 -0.3566 -0.3385
  955MOL0     C28827   5.245  12.090   3.511 -0.1393 -0.0831  0.0192
  955MOL0     C28828   5.111  12.114   3.580  0.1416 -0.0614 -0.3975
  955MOL0     C28829   5.105  12.212   3.688 -1.2507  0.5641  0.0706
  955MOL0     C28830   4.980  12.199   3.779  0.2413  1.0177 -0.0683
  955MOL0     C28831   4.841  12.170   3.712 -0.9078 -0.5379  0.0536
  955MOL0     C28832   4.725  12.133   3.815  0.0718 -0.0733  0.7718
  955MOL0     C28833   4.587  12.165   3.759  0.3797  0.7975 -0.3899
  955MOL0    Cl28834   4.543  12.343   3.775 -0.1145 -0.0211 -0.4218
  955MOL0     C28835   5.273  12.066   3.176 -0.0965 -0.7527  0.2506
  955MOL0     C28836   5.270  11.986   3.059  0.0124  0.1215 -0.0329
  955MOL0     O28837   5.045  12.074   2.724 -0.0752 -0.1570 -0.3461
  955MOL0     C28838   5.026  11.911   2.509 -0.4949  0.1085  0.6178
  955MOL0     C28839   5.027  11.823   2.402  0.1409 -0.1739 -0.4395
  955MOL0     N28840   5.003  11.206   2.082  0.2244 -0.1965 -0.5667
  955MOL0     N28841   4.874  11.184   2.099  0.7097 -0.3462 -0.6614
  955MOL0     C28842   4.125  10.374   1.751 -0.9148  0.6305 -0.0075
  955MOL0     C28843   4.060  10.257   1.730 -1.3970  0.0741 -1.4571
  955MOL0     C28844   3.954   9.833   1.697  0.0280 -0.2496 -0.0300
  955MOL0     C28845   3.945   9.798   1.565  0.6247 -0.0871  0.1481
  955MOL0     C28846   3.873   9.685   1.511  0.4694 -0.2204 -0.2842
  955MOL0     C28847   3.798   9.607   1.602  0.0345  0.3725 -0.3691
  955MOL0     O28848   3.715   9.501   1.576 -0.2749  0.3317 -0.8724
  955MOL0     C28849   3.651   9.487   1.452  0.0283  0.0742 -0.8997
  955MOL0     C28850   3.503   9.528   1.460  0.4597  0.1448 -1.1044
  955MOL0     C28851   3.491   9.672   1.517  0.2879  0.2103 -0.1522
  955MOL0     C28852   3.380   9.750   1.447  0.1276 -0.7514 -0.0220
  955MOL0     C28853   3.245   9.705   1.491  0.1565 -0.5154  0.5937
  955MOL0     C28854   3.149   9.677   1.555  0.0794  0.6425  1.0277
  955MOL0     C28855   3.797   9.644   1.734  0.2707 -0.4491 -0.2280
  955MOL0     C28856   3.871   9.750   1.783 -0.1418  0.4319  0.3933
  955MOL0     C28857   3.836   9.787   1.931 -0.0914 -0.2438 -0.6465
  955MOL0     H28858   4.076  10.135   2.046  0.2355 -2.9521 -1.5320
  955MOL0     H28859   4.153  10.366   2.097  1.0483 -1.4249 -0.3155
  955MOL0     H28860   4.121  10.602   2.086 -1.6299 -1.1832 -2.2573
  955MOL0     H28861   4.290  10.567   2.089  1.3841  2.2836  0.7516
  955MOL0     H28862   4.159  10.815   1.989 -1.5745 -1.6781  0.4412
  955MOL0     H28863   4.321  10.773   1.940  1.0682 -0.4936  1.0296
  955MOL0     H28864   4.224  10.775   2.226  0.4084  2.0502  1.1051
  955MOL0     H28865   4.281  10.913   2.154 -0.2578 -0.3166 -0.4761
  955MOL0     H28866   4.448  10.645   2.186  3.4291 -0.9482  0.6875
  955MOL0     H28867   4.514  10.788   2.106  0.2448  1.8445  0.6377
  955MOL0     H28868   4.391  10.817   2.386  0.0919  1.5172  0.0409
  955MOL0     H28869   4.552  10.739   2.377 -1.2274 -0.7170  1.9339
  955MOL0     H28870   4.464  11.010   2.279  2.5038  3.6740  0.6790
  955MOL0     H28871   4.561  10.993   2.418  0.4075  0.2315  0.5240
  955MOL0     H28872   4.667  10.977   2.133  0.3656 -1.4440 -0.4608
  955MOL0     H28873   4.749  10.896   2.263 -1.9945 -2.9225 -2.5695
  955MOL0     H28874   4.649  11.184   2.266 -1.0500 -0.6463 -1.2249
  955MOL0     H28875   4.737  11.111   2.400 -0.7188 -0.9655 -0.4770
  955MOL0     H28876   5.006  11.098   2.388  0.0030 -1.3994 -0.4140
  955MOL0     H28877   5.229  11.073   2.242  0.0512 -0.4004  1.1292
  955MOL0     H28878   5.269  11.202   2.115  1.7948 -3.5631 -0.8547
  955MOL0     H28879   5.222  11.260   2.414 -3.7042  0.8298 -1.9865
  955MOL0     H28880   5.381  11.277   2.327  0.5835  5.3382  3.0377
  955MOL0     H28881   5.277  11.448   2.181  0.9635  1.7029  0.5018
  955MOL0     H28882   5.308  11.492   2.354 -2.0022  1.1160  0.1415
  955MOL0     H28883   5.080  11.445   2.405  2.8625  1.4239  1.1748
  955MOL0     H28884   5.045  11.430   2.233 -0.9935 -1.3941  1.0765
  955MOL0     H28885   5.229  11.577   2.530  0.0307  1.4147  1.1452
  955MOL0     H28886   5.227  11.743   2.714 -1.0124 -3.2469 -0.9569
  955MOL0     H28887   4.993  12.120   2.926  1.0479  1.0242 -0.0478
  955MOL0     H28888   4.990  12.235   3.149  0.6058 -1.6308  1.1048
  955MOL0     H28889   5.379  12.189   3.381  0.3457 -1.5606  2.1029
  955MOL0     H28890   5.295  12.295   3.490 -1.9368 -1.1746  1.0907
  955MOL0     H28891   5.244  11.998   3.453  1.2560  1.5077 -2.7454
  955MOL0     H28892   5.319  12.087   3.592 -0.5331  5.0989  0.9117
  955MOL0     H28893   5.028  12.134   3.512 -2.0153 -0.6533  1.9215
  955MOL0     H28894   5.091  12.026   3.641  0.2615  1.7247  2.4197
  955MOL0     H28895   5.093  12.299   3.623  4.2038  2.0693  0.5705
  955MOL0     H28896   5.197  12.222   3.745  0.4245  0.2551 -2.4209
  955MOL0     H28897   4.980  12.296   3.829 -2.1789 -0.6969  3.7273
  955MOL0     H28898   5.001  12.126   3.858 -0.8193  1.4182  0.5943
  955MOL0     H28899   4.816  12.259   3.652 -0.2855 -1.1915 -1.2264
  955MOL0     H28900   4.855  12.085   3.644 -1.4632 -0.3959 -0.2482
  955MOL0     H28901   4.736  12.194   3.906  0.3263 -1.4240  1.6748
  955MOL0     H28902   4.729  12.028   3.844  0.4667 -1.2832 -3.0673
  955MOL0     H28903   4.598  12.142   3.652  1.8324 -0.4861  0.0120
  955MOL0     H28904   4.500  12.104   3.787 -0.3345  2.5416  1.4552
  955MOL0     H28905   5.361  12.052   3.238 -0.0307 -0.4742  0.2242
  955MOL0     H28906   5.365  11.938   3.040  0.8044  1.9988 -1.1795
  955MOL0     H28907   4.973  12.004   2.491 -2.5133 -0.9672  0.6773
  955MOL0     H28908   4.973  11.852   2.312  1.8449  3.7379 -0.3947
  955MOL0     H28909   4.142  10.433   1.662  0.3717  0.5619  0.1692
  955MOL0     H28910   4.041  10.236   1.626  2.5630  2.4394 -2.8957
  955MOL0     H28911   3.996   9.849   1.484  1.0141 -0.2578  0.2804
  955MOL0     H28912   3.886   9.659   1.407 -0.1918  0.8969 -0.6561
  955MOL0     H28913   3.661   9.381   1.427  1.6295 -0.3168  1.0723
  955MOL0     H28914   3.706   9.537   1.371  1.6122 -1.2406 -0.6907
  955MOL0     H28915   3.449   9.464   1.531  0.4067 -1.8060 -2.8237
  955MOL0     H28916   3.463   9.507   1.361 -1.3667 -1.6720 -0.0553
  955MOL0     H28917   3.588   9.721   1.503  1.3185 -1.8748 -0.6963
  955MOL0     H28918   3.459   9.671   1.621 -0.5939 -0.8267 -0.4176
  955MOL0     H28919   3.388   9.855   1.477 -3.7120 -1.3248  4.1222
  955MOL0     H28920   3.396   9.722   1.343 -0.7068  1.5409 -0.8284
  955MOL0     H28921   3.095   9.641   1.640  3.8328 -0.9669  2.9971
  955MOL0     H28922   3.730   9.589   1.800 -0.8884 -0.6627 -1.5213
  955MOL0     H28923   3.929   9.763   1.983  0.7411  2.7723 -0.5475
  955MOL0     H28924   3.813   9.890   1.959  0.2675  0.4827 -2.7940
  955MOL0     H28925   3.756   9.734   1.981 -0.9407  4.0147  3.1963
  956MOL0     O28926   3.538   9.018   4.405  0.7395  1.2901 -0.2104
  956MOL0     C28927   3.555   9.087   4.304  0.3217  0.3810 -0.8375
  956MOL0     O28928   3.474   9.188   4.273  0.5399 -0.5437  1.0863
  956MOL0     C28929   3.346   9.207   4.324 -0.5708 -0.1288 -0.1316
  956MOL0     C28930   3.290   9.169   4.455 -0.5139  0.7039  0.1125
  956MOL0     C28931   3.178   9.222   4.496  0.2607 -0.0205  0.3227
  956MOL0     C28932   3.090   9.307   4.423  0.2676 -0.1881  0.1235
  956MOL0     O28933   2.968   9.360   4.466  0.1390  0.1343 -1.1685
  956MOL0     C28934   2.897   9.279   4.561 -0.0361 -0.3170 -0.4090
  956MOL0     C28935   2.745   9.280   4.514 -0.6322 -0.2378 -0.2242
  956MOL0     C28936   2.727   9.316   4.356 -0.1217 -0.5353  0.3120
  956MOL0     C28937   2.573   9.294   4.318 -0.7067 -0.0204  0.4610
  956MOL0     C28938   2.544   9.358   4.184 -0.4526 -0.1845 -0.7268
  956MOL0     C28939   2.404   9.311   4.146 -0.9241  0.2746 -1.0065
  956MOL0     C28940   2.373   9.384   4.014 -0.4650 -1.1213  0.5332
  956MOL0     C28941   2.220   9.400   3.991  0.1128 -0.4200  0.4078
  956MOL0     N28942   2.190   9.463   3.866 -0.1120  0.4911  0.4310
  956MOL0     C28943   2.234   9.590   3.830  0.0598 -0.8136 -0.0052
  956MOL0     C28944   2.179   9.611   3.707 -0.2898 -0.2702  0.2685
  956MOL0     C28945   2.179   9.740   3.635  0.2267  0.3720  0.0284
  956MOL0     C28946   2.111   9.751   3.503  0.5872  0.4832 -0.6452
  956MOL0     C28947   2.192   9.716   3.380  0.2030 -0.4547  0.8865
  956MOL0     C28948   2.180   9.566   3.348 -0.0439 -0.1893 -0.8667
  956MOL0     O28949   2.300   9.546   3.270  0.7505  0.1282 -0.2776
  956MOL0     C28950   2.292   9.447   3.174  0.1964 -0.3603  0.9246
  956MOL0     C28951   2.202   9.343   3.185 -0.3051  0.3566  0.2397
  956MOL0     C28952   2.187   9.253   3.079 -0.3313 -0.8007 -0.2704
  956MOL0     C28953   2.262   9.271   2.969 -0.2487  1.0825  1.1744
  956MOL0     C28954   2.236   9.180   2.849 -0.2456 -0.4639 -0.5528
  956MOL0     O28955   2.184   9.054   2.881  0.3076  0.5679 -0.3936
  956MOL0     C28956   2.158   8.969   2.780  0.9687  0.6148  0.1045
  956MOL0     C28957   2.233   8.856   2.755  0.6652 -0.2868  0.2767
  956MOL0     C28958   2.187   8.765   2.663 -0.5666  0.0615 -0.1260
  956MOL0     C28959   2.078   8.793   2.583 -0.1727  0.7744 -0.0740
  956MOL0     O28960   2.041   8.724   2.464 -0.6744 -0.2134 -0.7706
  956MOL0     C28961   2.028   8.588   2.480  0.3404  0.0487  0.4168
  956MOL0     C28962   1.958   8.523   2.359 -0.7101 -0.6964 -0.6582
  956MOL0     C28963   1.820   8.582   2.335 -0.2611  0.4222  0.1650
  956MOL0     C28964   1.721   8.506   2.237 -0.2452  0.5242 -0.7158
  956MOL0     C28965   1.795   8.415   2.134 -0.2502 -2.0011 -0.0144
  956MOL0     C28966   1.698   8.352   2.036 -0.1426 -0.4964  1.0013
  956MOL0     C28967   1.634   8.215   2.074 -0.9736 -0.1644  0.3912
  956MOL0     C28968   1.727   8.097   2.081 -0.7659 -0.2338 -1.0154
  956MOL0    Cl28969   1.799   8.091   1.927  0.0301  0.1746 -0.0737
  956MOL0     C28970   2.003   8.906   2.592  0.7202 -1.2899  0.7363
  956MOL0     C28971   2.052   8.997   2.684 -0.1044  0.7988  0.3264
  956MOL0     O28972   2.275   9.211   2.742 -0.1179  0.1069  1.0271
  956MOL0     C28973   2.351   9.380   2.954 -0.1043 -0.2160  0.1830
  956MOL0     C28974   2.373   9.453   3.067  0.5729 -0.3943  0.9016
  956MOL0     N28975   2.123   9.489   3.662 -0.0885  0.3504  0.1915
  956MOL0     N28976   2.135   9.405   3.760  0.0013  0.1023 -0.0949
  956MOL0     C28977   3.141   9.344   4.300  0.4701  0.2452  0.1578
  956MOL0     C28978   3.263   9.297   4.250 -0.4362  0.9718 -0.6000
  956MOL0     C28979   3.673   9.056   4.222 -0.1006 -0.7001 -0.4464
  956MOL0     C28980   3.735   9.161   4.149  0.6474  0.4573 -0.8563
  956MOL0     C28981   3.861   9.146   4.088  0.3799  0.2463 -0.0876
  956MOL0     C28982   3.924   9.027   4.105 -0.5102 -0.1387  0.9207
  956MOL0     O28983   4.056   9.020   4.053 -0.1158 -0.4251  0.3331
  956MOL0     C28984   4.137   8.905   4.062  0.4103  1.2681  0.2685
  956MOL0     C28985   4.265   8.932   3.985 -0.1564 -0.6260  0.6178
  956MOL0     C28986   4.251   8.978   3.836 -0.4218  0.3505  0.8538
  956MOL0     C28987   4.154   8.881   3.767 -0.6955 -0.1127  0.4582
  956MOL0     C28988   4.158   8.873   3.622  0.4564 -0.3226  0.5935
  956MOL0     C28989   4.190   8.855   3.502  0.4048 -0.5438 -0.3748
  956MOL0     C28990   3.858   8.924   4.162 -0.9790 -0.5056  0.0369
  956MOL0     C28991   3.732   8.926   4.223 -0.0278 -0.6809 -0.0214
  956MOL0     C28992   3.670   8.804   4.280  0.3752  0.8535  1.0379
  956MOL0     H28993   3.343   9.108   4.528 -1.3764  2.2149  2.0925
  956MOL0     H28994   3.145   9.199   4.597 -2.4448 -1.2388 -0.7438
  956MOL0     H28995   2.933   9.176   4.550  2.1082  0.4406 -0.8057
  956MOL0     H28996   2.903   9.298   4.669 -0.2294 -3.5953  0.2896
  956MOL0     H28997   2.696   9.350   4.582  1.0581  2.0739 -1.2605
  956MOL0     H28998   2.705   9.180   4.535 -1.0641 -0.3925 -1.6919
  956MOL0     H28999   2.788   9.273   4.276 -1.5895  0.7234 -1.5602
  956MOL0     H29000   2.754   9.421   4.341 -1.1031  0.0876  2.5715
  956MOL0     H29001   2.538   9.190   4.316 -1.2617  0.1756 -0.0042
  956MOL0     H29002   2.512   9.339   4.396 -1.6753 -0.6900  0.1163
  956MOL0     H29003   2.555   9.466   4.198  4.9275 -0.6739  1.4438
  956MOL0     H29004   2.629   9.329   4.122 -1.7456  0.6299 -2.9650
  956MOL0     H29005   2.397   9.203   4.134  1.8724 -0.0141 -0.7654
  956MOL0     H29006   2.331   9.338   4.223 -0.7521 -3.5614  0.7520
  956MOL0     H29007   2.430   9.334   3.935 -0.1919  0.6153 -0.4171
  956MOL0     H29008   2.407   9.488   4.014  0.6054 -1.4566  0.2525
  956MOL0     H29009   2.177   9.300   3.988  0.1438 -0.4337 -2.2912
  956MOL0     H29010   2.177   9.460   4.071 -3.0604 -1.1717 -0.6132
  956MOL0     H29011   2.275   9.671   3.889 -0.7620 -0.7329  0.4668
  956MOL0     H29012   2.159   9.830   3.693 -2.9969 -1.3873  1.9350
  956MOL0     H29013   2.285   9.755   3.612 -0.0219  2.8045  0.2782
  956MOL0     H29014   2.016   9.698   3.510  1.2741 -0.5763  1.3094
  956MOL0     H29015   2.086   9.858   3.502 -0.1453  0.3622  0.9097
  956MOL0     H29016   2.296   9.750   3.386 -0.3200  1.0242  2.5535
  956MOL0     H29017   2.148   9.772   3.297  0.7374 -2.3585 -0.7293
  956MOL0     H29018   2.088   9.538   3.296  0.1975 -0.1859 -1.3008
  956MOL0     H29019   2.194   9.517   3.444  1.1353  1.2628 -0.2541
  956MOL0     H29020   2.140   9.321   3.271 -2.0503 -0.1438 -1.0938
  956MOL0     H29021   2.116   9.171   3.086 -0.4616 -0.6166  0.5952
  956MOL0     H29022   2.328   8.827   2.799  0.4638  0.6286  1.3573
  956MOL0     H29023   2.247   8.678   2.639 -2.1013 -0.8016 -0.9854
  956MOL0     H29024   2.129   8.548   2.488 -0.3434 -1.4746  2.7200
  956MOL0     H29025   1.979   8.559   2.573  1.4802  0.1312  1.0591
  956MOL0     H29026   2.021   8.543   2.272 -1.3496 -0.1253 -0.9930
  956MOL0     H29027   1.953   8.418   2.389 -1.7604 -1.2978 -2.7316
  956MOL0     H29028   1.771   8.620   2.426  0.9536 -0.2190  1.1236
  956MOL0     H29029   1.847   8.671   2.278 -3.0952  1.7274  0.6873
  956MOL0     H29030   1.667   8.582   2.179 -2.5394 -2.5121 -2.8263
  956MOL0     H29031   1.642   8.450   2.286 -0.0706  0.5128 -0.4444
  956MOL0     H29032   1.853   8.340   2.188 -0.0864  1.4331  5.3574
  956MOL0     H29033   1.867   8.473   2.077  0.0455 -1.2641  1.0893
  956MOL0     H29034   1.610   8.413   2.016  1.1690  0.6727 -1.8021
  956MOL0     H29035   1.743   8.350   1.936  2.7328  0.5447  2.1719
  956MOL0     H29036   1.578   8.197   1.983 -0.7246  1.6227 -0.1467
  956MOL0     H29037   1.571   8.228   2.163  0.8841  1.0941  1.6161
  956MOL0     H29038   1.797   8.107   2.165  2.0414  0.1197 -3.2465
  956MOL0     H29039   1.667   8.006   2.089 -0.9600 -0.2991 -2.7808
  956MOL0     H29040   1.916   8.919   2.528  0.6179 -1.7482  0.7801
  956MOL0     H29041   2.002   9.094   2.689  1.2238  1.6950 -2.0982
  956MOL0     H29042   2.411   9.405   2.868  0.5920  2.2506  1.2726
  956MOL0     H29043   2.449   9.530   3.079  0.3362 -0.1988  1.1576
  956MOL0     H29044   3.081   9.405   4.233 -1.9267  0.9640  2.7475
  956MOL0     H29045   3.312   9.331   4.159  1.8866 -1.9085 -0.5666
  956MOL0     H29046   3.685   9.257   4.142 -0.7403 -0.3189 -1.9670
  956MOL0     H29047   3.887   9.230   4.024  2.6170 -0.6968 -0.5065
  956MOL0     H29048   4.075   8.823   4.026  0.4192  0.5619  1.7920
  956MOL0     H29049   4.160   8.870   4.163 -0.4875  1.0456  0.4040
  956MOL0     H29050   4.326   8.842   3.980  2.2395  0.9534 -1.5362
  956MOL0     H29051   4.318   9.010   4.040 -1.0476  0.4581 -0.0145
  956MOL0     H29052   4.352   8.977   3.795 -1.5987 -0.0065 -2.2609
  956MOL0     H29053   4.219   9.083   3.832 -0.6563  0.2408 -1.1174
  956MOL0     H29054   4.168   8.783   3.813 -2.6488 -0.0842  1.2182
  956MOL0     H29055   4.056   8.919   3.797 -1.2992 -2.3838  1.5760
  956MOL0     H29056   4.223   8.856   3.400  0.8889  0.9218 -0.2246
  956MOL0     H29057   3.906   8.826   4.165  0.4730  0.1932  0.5752
  956MOL0     H29058   3.735   8.721   4.253  0.8933  2.0865 -1.9827
  956MOL0     H29059   3.673   8.810   4.389 -1.4725 -4.5715  1.6978
  956MOL0     H29060   3.575   8.781   4.232  1.1558 -1.6282  0.5629
  957MOL0     O29061  11.125   3.476   1.853  0.2673 -1.0365 -0.0176
  957MOL0     C29062  11.204   3.391   1.821  0.1683  1.0431  0.4218
  957MOL0     O29063  11.212   3.320   1.699 -0.3183 -0.2028  0.2875
  957MOL0     C29064  11.116   3.319   1.605 -0.5578 -0.3326 -0.5526
  957MOL0     C29065  11.026   3.418   1.565  1.0723 -0.5505  0.5646
  957MOL0     C29066  10.924   3.388   1.475  0.2251 -0.0750  0.5933
  957MOL0     C29067  10.901   3.269   1.413 -0.6863  0.6663 -0.0710
  957MOL0     O29068  10.793   3.254   1.325  0.1934  0.7438 -0.3675
  957MOL0     C29069  10.768   3.129   1.265 -0.3505 -0.5712 -0.1334
  957MOL0     C29070  10.639   3.135   1.199 -0.3359  0.1817  0.6012
  957MOL0     C29071  10.607   3.003   1.130  0.1736 -0.5493 -0.0759
  957MOL0     C29072  10.459   2.994   1.105 -0.5213 -0.1764  0.1851
  957MOL0     C29073  10.391   3.121   1.055  0.0640 -0.3686 -0.5088
  957MOL0     C29074  10.261   3.074   0.984  0.6521  0.2893 -0.0978
  957MOL0     C29075  10.175   3.200   0.954  0.6081  0.0492 -0.5951
  957MOL0     C29076  10.101   3.245   1.080 -0.1332 -0.3342 -0.2877
  957MOL0     N29077   9.979   3.327   1.044 -0.9192  0.3522 -0.2523
  957MOL0     C29078   9.875   3.266   0.971  0.3130  0.1750  0.6309
  957MOL0     C29079   9.769   3.345   0.987 -0.1723  0.0438  0.6149
  957MOL0     C29080   9.634   3.315   0.926  0.1483  1.1743 -0.3477
  957MOL0     C29081   9.565   3.197   0.999 -0.6718 -0.5533 -0.3867
  957MOL0     C29082   9.431   3.167   0.936 -0.5861 -0.6388  1.0500
  957MOL0     C29083   9.365   3.036   0.996 -0.2423  0.3235  0.0590
  957MOL0     O29084   9.436   2.909   0.982  0.1734  1.0085  0.2859
  957MOL0     C29085   9.358   2.801   0.967 -0.8447  0.4263 -1.0831
  957MOL0     C29086   9.376   2.705   0.873 -0.1004 -0.2273 -0.4766
  957MOL0     C29087   9.284   2.605   0.860 -0.4207  0.8406  0.1042
  957MOL0     C29088   9.177   2.586   0.951 -0.1166  0.5884  0.1495
  957MOL0     C29089   9.081   2.468   0.942 -0.1099 -0.8907  0.0232
  957MOL0     O29090   8.987   2.451   1.032 -0.1394 -0.1253 -0.8519
  957MOL0     C29091   8.892   2.349   1.013  0.3534 -0.5344 -0.6256
  957MOL0     C29092   8.838   2.284   1.127  0.4876 -0.3753 -0.5146
  957MOL0     C29093   8.733   2.188   1.122 -0.6405 -0.5006  0.1445
  957MOL0     C29094   8.689   2.145   0.999 -0.2846  0.6715  0.6356
  957MOL0     O29095   8.595   2.054   1.006 -0.0091  0.6067  0.2306
  957MOL0     C29096   8.624   1.943   0.920  0.3995 -0.8436 -0.1784
  957MOL0     C29097   8.512   1.928   0.834 -0.8669 -0.6396  0.5073
  957MOL0     C29098   8.375   1.898   0.900  0.6682 -0.0432 -0.0040
  957MOL0     C29099   8.266   1.860   0.798  0.5267  0.7221  0.1959
  957MOL0     C29100   8.119   1.888   0.847 -0.4796  0.3277 -0.9288
  957MOL0     C29101   8.016   1.872   0.731 -0.1569  0.8685 -0.6293
  957MOL0     C29102   7.870   1.898   0.783 -0.3784  0.2010  0.3057
  957MOL0     C29103   7.765   1.851   0.683  0.0410  0.6753  0.0749
  957MOL0    Cl29104   7.780   1.943   0.525  0.1676  0.0500  0.0117
  957MOL0     C29105   8.740   2.217   0.886  0.3560 -0.5327 -0.7227
  957MOL0     C29106   8.839   2.314   0.896  0.6152  0.7683  0.1397
  957MOL0     O29107   9.115   2.386   0.857  0.2568  0.2440 -0.1273
  957MOL0     C29108   9.163   2.675   1.063 -0.4664 -0.4136 -0.5896
  957MOL0     C29109   9.263   2.777   1.068 -0.2062 -0.1070  0.3090
  957MOL0     N29110   9.805   3.434   1.090 -0.4588 -0.1068  0.4925
  957MOL0     N29111   9.929   3.427   1.114 -0.3843  0.4891  0.1005
  957MOL0     C29112  11.004   3.172   1.435  0.6398 -0.0526  0.8817
  957MOL0     C29113  11.111   3.204   1.520 -0.3519  0.9089  0.1024
  957MOL0     C29114  11.309   3.346   1.929  0.2982 -1.5808 -0.1003
  957MOL0     C29115  11.359   3.217   1.918 -0.5949  0.7326 -0.7627
  957MOL0     C29116  11.461   3.173   1.998  0.3504 -1.1704 -0.3706
  957MOL0     C29117  11.524   3.262   2.081  0.5686 -0.3327  0.1941
  957MOL0     O29118  11.635   3.216   2.152 -0.0678  0.7710  0.9181
  957MOL0     C29119  11.649   3.278   2.280  0.6345  0.2812  0.2600
  957MOL0     C29120  11.706   3.164   2.369  0.0613  0.1276  0.1948
  957MOL0     C29121  11.711   3.210   2.515  0.0131  0.1319  0.8458
  957MOL0     C29122  11.753   3.101   2.616  0.0059  0.2129 -0.0153
  957MOL0     C29123  11.627   3.026   2.652  0.2911 -0.2685 -0.2410
  957MOL0     C29124  11.523   2.981   2.684  0.0530  0.3833  0.7569
  957MOL0     C29125  11.469   3.389   2.095 -0.4188 -0.7263  0.0678
  957MOL0     C29126  11.372   3.442   2.010  0.7790 -0.2334 -0.0522
  957MOL0     C29127  11.342   3.586   1.998 -0.2541  0.3933 -0.5471
  957MOL0     H29128  11.027   3.514   1.616  0.9891  0.9726 -2.0939
  957MOL0     H29129  10.857   3.471   1.453  1.0265  0.0473 -1.7175
  957MOL0     H29130  10.846   3.107   1.192  0.8633  0.8835  0.6783
  957MOL0     H29131  10.760   3.046   1.336 -0.9257 -0.7672 -0.4216
  957MOL0     H29132  10.649   3.202   1.113  0.1473 -1.6433 -0.8559
  957MOL0     H29133  10.566   3.165   1.274  0.3943  0.6082  1.1511
  957MOL0     H29134  10.639   2.914   1.185 -0.8394 -0.1247  1.2449
  957MOL0     H29135  10.643   3.002   1.027  1.5664  0.8523  0.3618
  957MOL0     H29136  10.440   2.923   1.024 -2.9059 -0.9427  1.2974
  957MOL0     H29137  10.409   2.975   1.200 -0.0925  0.0685  0.4613
  957MOL0     H29138  10.372   3.168   1.151  4.0345  1.2749 -0.3093
  957MOL0     H29139  10.453   3.167   0.977 -2.3070  0.0849 -2.2192
  957MOL0     H29140  10.275   3.026   0.887 -2.8137 -1.2316  0.0090
  957MOL0     H29141  10.212   3.001   1.050  0.7933  2.8854  3.1666
  957MOL0     H29142  10.096   3.164   0.888 -1.0427 -1.8501  2.1723
  957MOL0     H29143  10.235   3.284   0.918  1.8424  0.3652  1.9767
  957MOL0     H29144  10.063   3.157   1.133  2.2788 -1.5162 -0.4117
  957MOL0     H29145  10.158   3.305   1.151  0.8732 -3.2507  1.5599
  957MOL0     H29146   9.888   3.184   0.902  3.7313  1.2528 -0.2134
  957MOL0     H29147   9.569   3.403   0.925 -1.4813  0.0969  1.8527
  957MOL0     H29148   9.656   3.282   0.823 -0.4344  1.9788 -0.7392
  957MOL0     H29149   9.631   3.112   0.979  1.8819  0.7534  1.7191
  957MOL0     H29150   9.550   3.217   1.106 -0.9908 -0.4587 -0.4493
  957MOL0     H29151   9.454   3.151   0.831 -0.3695 -0.8921  1.1352
  957MOL0     H29152   9.362   3.252   0.940 -1.8992 -1.4671 -1.6954
  957MOL0     H29153   9.281   3.024   0.927 -0.8871  2.0560  0.4791
  957MOL0     H29154   9.330   3.054   1.098 -1.4324  0.6551 -0.3953
  957MOL0     H29155   9.455   2.717   0.800  0.9623  2.1931  0.9453
  957MOL0     H29156   9.284   2.541   0.772  0.3917  0.7959  0.1297
  957MOL0     H29157   8.868   2.335   1.218  1.6187  1.1107 -1.6587
  957MOL0     H29158   8.698   2.133   1.208  4.0210 -3.1115  0.7032
  957MOL0     H29159   8.713   1.953   0.858  0.2748  0.4736 -0.1622
  957MOL0     H29160   8.628   1.851   0.980  1.0091 -1.8319 -1.6747
  957MOL0     H29161   8.509   2.021   0.777 -1.6779 -0.2560  1.1547
  957MOL0     H29162   8.540   1.845   0.767  2.5960 -1.6169  2.9373
  957MOL0     H29163   8.375   1.813   0.969 -0.7811 -0.9045 -0.9971
  957MOL0     H29164   8.336   1.984   0.955 -1.3378 -0.7909 -0.1562
  957MOL0     H29165   8.267   1.751   0.784 -0.2107  0.5386  1.4252
  957MOL0     H29166   8.289   1.921   0.710  1.2672 -0.2798 -0.3348
  957MOL0     H29167   8.114   1.994   0.875  2.8437  0.1595  0.7401
  957MOL0     H29168   8.101   1.828   0.936  0.2347  3.1933  1.2985
  957MOL0     H29169   8.041   1.946   0.655 -2.5115  0.3302 -2.0386
  957MOL0     H29170   8.024   1.767   0.700  0.1627  0.1713  1.5993
  957MOL0     H29171   7.854   2.006   0.790 -1.9002 -0.0697  1.7688
  957MOL0     H29172   7.864   1.852   0.882 -2.3941 -1.0534 -0.3459
  957MOL0     H29173   7.765   1.744   0.660 -3.4131  0.4902  0.3836
  957MOL0     H29174   7.668   1.878   0.724  0.4578  2.5659 -0.1012
  957MOL0     H29175   8.685   2.199   0.794  0.6980 -0.3652 -0.9591
  957MOL0     H29176   8.860   2.364   0.802 -2.1686  1.0950 -0.3851
  957MOL0     H29177   9.089   2.643   1.136 -2.4254  0.2842 -2.1819
  957MOL0     H29178   9.263   2.853   1.144 -2.8766  0.9812 -0.6494
  957MOL0     H29179  11.002   3.078   1.382  1.3787  0.5270 -0.2001
  957MOL0     H29180  11.177   3.120   1.540 -3.6465 -1.3470  2.6858
  957MOL0     H29181  11.314   3.146   1.849  0.2385  0.5311 -1.1013
  957MOL0     H29182  11.480   3.066   2.001  0.4420 -1.1893 -1.3329
  957MOL0     H29183  11.552   3.314   2.315  0.6017 -1.3215  2.0390
  957MOL0     H29184  11.725   3.356   2.282  1.6147 -0.6252  2.9174
  957MOL0     H29185  11.813   3.147   2.352 -0.0762 -1.2935  0.6072
  957MOL0     H29186  11.654   3.068   2.360 -1.0029  0.7006  0.0975
  957MOL0     H29187  11.612   3.254   2.534  1.3076  1.7417  4.8467
  957MOL0     H29188  11.777   3.295   2.536  0.4732  0.6072 -2.0872
  957MOL0     H29189  11.830   3.040   2.567  0.2365  0.4835  0.0041
  957MOL0     H29190  11.798   3.142   2.707 -0.5637  1.3691 -0.2422
  957MOL0     H29191  11.428   2.942   2.715  0.6482 -0.5398  1.4815
  957MOL0     H29192  11.517   3.460   2.161 -2.0605 -0.1995  0.7610
  957MOL0     H29193  11.239   3.594   2.034  0.2265 -2.1539  1.7295
  957MOL0     H29194  11.404   3.636   2.073 -2.1646 -0.9853  2.1344
  957MOL0     H29195  11.356   3.623   1.896  2.2808 -3.3256 -1.7628
  958MOL0     O29196   8.411   6.148   1.330  0.2400 -0.3384  0.3986
  958MOL0     C29197   8.478   6.216   1.255 -0.6690 -0.0066 -0.3224
  958MOL0     O29198   8.604   6.177   1.212 -0.6105 -0.0453  0.4178
  958MOL0     C29199   8.666   6.056   1.254  0.4905 -1.1579 -0.4658
  958MOL0     C29200   8.784   6.063   1.337 -0.2893  0.0038 -0.8038
  958MOL0     C29201   8.854   5.939   1.356  0.0002 -0.0587  0.5014
  958MOL0     C29202   8.794   5.818   1.312 -0.1733  0.0329  0.1242
  958MOL0     O29203   8.858   5.701   1.328 -0.1039  0.4665  0.7966
  958MOL0     C29204   8.908   5.678   1.461  1.0284  0.4110 -0.1979
  958MOL0     C29205   8.926   5.531   1.478 -0.4958  0.1124  0.5759
  958MOL0     C29206   8.786   5.467   1.505 -0.6926 -0.2323  0.3382
  958MOL0     C29207   8.803   5.309   1.531  0.1399 -0.1357  0.9545
  958MOL0     C29208   8.671   5.247   1.573 -0.0820 -0.0092  0.6317
  958MOL0     C29209   8.576   5.235   1.458  1.0393  0.5156 -0.5705
  958MOL0     C29210   8.510   5.097   1.435  0.4712  0.7178 -0.3064
  958MOL0     C29211   8.381   5.057   1.511 -0.3977 -1.5831 -0.4179
  958MOL0     N29212   8.376   5.087   1.654  0.1977 -0.1425  0.4802
  958MOL0     C29213   8.318   5.189   1.721  0.4495  0.3283 -0.7349
  958MOL0     C29214   8.347   5.175   1.854  0.6831  0.1020 -0.6736
  958MOL0     C29215   8.294   5.273   1.958  0.1639 -0.0764 -0.4207
  958MOL0     C29216   8.299   5.232   2.102  0.3165 -0.2736 -0.7323
  958MOL0     C29217   8.227   5.100   2.129  0.7818  0.4942 -0.0545
  958MOL0     C29218   8.079   5.114   2.165 -0.6712 -1.0684  1.1929
  958MOL0     O29219   8.060   5.010   2.253 -0.0650 -0.1877  0.3169
  958MOL0     C29220   7.964   5.036   2.345 -0.1716  0.3429  0.3738
  958MOL0     C29221   7.831   5.061   2.307  0.0744 -0.6017 -0.4255
  958MOL0     C29222   7.748   5.094   2.423  0.5460 -0.9669  0.3281
  958MOL0     C29223   7.790   5.120   2.555 -0.4275  0.6239  0.5868
  958MOL0     C29224   7.690   5.151   2.647  0.0235 -0.1429 -0.4505
  958MOL0     O29225   7.734   5.198   2.765 -0.7523 -0.0862 -0.5789
  958MOL0     C29226   7.641   5.225   2.863 -0.5249 -1.5618  0.1611
  958MOL0     C29227   7.520   5.294   2.834 -0.6242 -0.6336  0.2452
  958MOL0     C29228   7.442   5.354   2.933  0.2625  0.6149  0.3278
  958MOL0     C29229   7.480   5.340   3.073 -0.4519  0.5688 -0.2032
  958MOL0     O29230   7.405   5.396   3.179 -0.3069 -0.5695  0.1612
  958MOL0     C29231   7.458   5.413   3.316 -0.2782 -0.9542  0.5862
  958MOL0     C29232   7.588   5.503   3.310 -0.1160  0.8115 -0.9519
  958MOL0     C29233   7.583   5.635   3.236 -0.2063 -0.6865  0.4915
  958MOL0     C29234   7.647   5.752   3.310 -0.0662  0.7628  0.6022
  958MOL0     C29235   7.634   5.877   3.230 -0.4612 -1.0594  0.1094
  958MOL0     C29236   7.530   5.974   3.288  0.2298 -0.1539 -0.0835
  958MOL0     C29237   7.527   6.104   3.200 -0.0614 -0.3666  0.4642
  958MOL0     C29238   7.472   6.215   3.276  1.0096  0.0711  0.2040
  958MOL0    Cl29239   7.384   6.332   3.179 -0.0377  0.2662  0.5237
  958MOL0     C29240   7.583   5.248   3.103  1.0516 -0.0257  0.5603
  958MOL0     C29241   7.661   5.194   2.995 -1.3416  0.2577 -1.2694
  958MOL0     O29242   7.573   5.111   2.623  0.9417 -0.7188  0.1326
  958MOL0     C29243   7.925   5.104   2.583  0.1651 -0.0460 -0.2627
  958MOL0     C29244   8.005   5.046   2.478  0.4814 -0.6924 -1.2735
  958MOL0     N29245   8.407   5.047   1.864 -0.1186 -0.4137  0.6037
  958MOL0     N29246   8.440   5.004   1.751 -0.0705 -0.5505  0.0741
  958MOL0     C29247   8.671   5.818   1.255  0.8617 -0.2857  0.7827
  958MOL0     C29248   8.607   5.939   1.221  0.0073 -0.2669 -0.1252
  958MOL0     C29249   8.436   6.352   1.212 -0.2728 -0.1802 -0.4675
  958MOL0     C29250   8.305   6.374   1.195  0.7525 -1.4020  0.7395
  958MOL0     C29251   8.260   6.491   1.131  0.0362  0.0917 -1.0850
  958MOL0     C29252   8.352   6.585   1.082  0.3102  0.0566  0.5451
  958MOL0     O29253   8.306   6.703   1.027 -0.3918 -0.6350 -0.2319
  958MOL0     C29254   8.285   6.694   0.886 -1.0816 -0.6426  0.0866
  958MOL0     C29255   8.133   6.696   0.865  0.3648 -0.8263 -0.5068
  958MOL0     C29256   8.074   6.640   0.738 -0.0336 -0.6180  0.7931
  958MOL0     C29257   7.928   6.599   0.744 -0.4242  0.3832 -0.6899
  958MOL0     C29258   7.897   6.542   0.613  0.5593  0.3079  0.6558
  958MOL0     C29259   7.844   6.486   0.521 -0.0228  0.0055  0.2412
  958MOL0     C29260   8.478   6.569   1.103 -1.0907  0.2291 -0.3802
  958MOL0     C29261   8.532   6.457   1.184  0.5832 -0.3121 -0.2868
  958MOL0     C29262   8.675   6.462   1.228  0.3059  0.1632  0.1209
  958MOL0     H29263   8.820   6.160   1.372 -0.5984 -0.3448  0.5697
  958MOL0     H29264   8.956   5.948   1.391  0.9400  0.8241 -2.1842
  958MOL0     H29265   9.008   5.721   1.472  1.5990  0.1888 -3.4456
  958MOL0     H29266   8.837   5.727   1.527 -1.1060 -0.4612 -1.7417
  958MOL0     H29267   8.983   5.506   1.568  0.5686  1.7338  0.3867
  958MOL0     H29268   8.961   5.488   1.384  0.6057  2.8574 -0.3657
  958MOL0     H29269   8.707   5.473   1.429 -0.8916 -1.5800  0.4251
  958MOL0     H29270   8.745   5.508   1.598  1.7769  0.6214  1.1419
  958MOL0     H29271   8.831   5.276   1.430 -0.3228  0.0592  0.7621
  958MOL0     H29272   8.883   5.287   1.603  0.1757 -2.8450  0.2301
  958MOL0     H29273   8.692   5.148   1.615  1.3989  0.9705  2.3359
  958MOL0     H29274   8.616   5.291   1.657 -0.4561 -0.8004  0.8150
  958MOL0     H29275   8.498   5.311   1.467 -0.4067 -0.7821 -1.5731
  958MOL0     H29276   8.623   5.249   1.360 -0.0011 -2.7135 -1.6644
  958MOL0     H29277   8.582   5.018   1.458  0.4162  0.2385 -1.6928
  958MOL0     H29278   8.475   5.097   1.331 -1.7953  1.6841  0.3918
  958MOL0     H29279   8.302   5.113   1.460 -1.6174 -1.3551  1.6420
  958MOL0     H29280   8.363   4.951   1.493 -0.0968 -1.3422 -2.3616
  958MOL0     H29281   8.256   5.273   1.690  1.6275  1.1205 -1.0256
  958MOL0     H29282   8.339   5.372   1.951  0.3190 -0.0920  0.2784
  958MOL0     H29283   8.193   5.304   1.932  2.4611  5.9428 -4.0956
  958MOL0     H29284   8.401   5.209   2.134  0.3246  0.9677  0.2278
  958MOL0     H29285   8.279   5.313   2.173 -0.6886  1.1908 -2.6085
  958MOL0     H29286   8.290   5.039   2.196  1.6990  0.2106 -1.1412
  958MOL0     H29287   8.204   5.037   2.043  1.7429 -0.3153  0.2552
  958MOL0     H29288   8.010   5.105   2.080 -0.9625 -0.0605  1.3121
  958MOL0     H29289   8.070   5.212   2.213  1.5043  1.8980 -3.6002
  958MOL0     H29290   7.781   5.054   2.211 -1.8650  0.4648  0.4327
  958MOL0     H29291   7.643   5.102   2.398  0.9797 -4.6143 -3.8230
  958MOL0     H29292   7.497   5.315   2.730  1.2704 -1.8971 -0.4796
  958MOL0     H29293   7.351   5.410   2.915  0.8233  0.5263 -3.8127
  958MOL0     H29294   7.384   5.479   3.362  1.0266  2.4035 -1.6716
  958MOL0     H29295   7.472   5.319   3.370 -1.2830 -0.1354  2.3631
  958MOL0     H29296   7.612   5.532   3.413  0.1945 -2.8317  0.1573
  958MOL0     H29297   7.665   5.437   3.268 -0.1563  0.1324  0.0188
  958MOL0     H29298   7.645   5.627   3.146 -2.4797  0.8478 -1.3203
  958MOL0     H29299   7.483   5.657   3.198  0.3714  0.5697 -0.3675
  958MOL0     H29300   7.754   5.729   3.299 -0.4346 -0.0157 -2.2480
  958MOL0     H29301   7.624   5.748   3.416 -1.0608 -1.1741  0.3660
  958MOL0     H29302   7.616   5.875   3.122  0.4337  0.4689 -0.0989
  958MOL0     H29303   7.736   5.917   3.229 -0.2431 -1.5557 -1.8093
  958MOL0     H29304   7.432   5.928   3.300  0.9742 -1.9271 -0.4497
  958MOL0     H29305   7.564   5.993   3.391  1.9518  1.7126 -0.9268
  958MOL0     H29306   7.465   6.081   3.113  1.2320 -3.4962  0.2305
  958MOL0     H29307   7.628   6.132   3.166  0.9990 -1.6121  2.3923
  958MOL0     H29308   7.401   6.177   3.350  2.8558  0.3482  2.2202
  958MOL0     H29309   7.546   6.277   3.328  0.2721  1.5423 -0.4241
  958MOL0     H29310   7.610   5.231   3.207 -0.2917 -1.9584  0.6462
  958MOL0     H29311   7.756   5.148   3.020  0.5182  3.9146 -0.8477
  958MOL0     H29312   7.965   5.118   2.683 -2.5806 -1.1203  1.0986
  958MOL0     H29313   8.105   5.017   2.507  0.2020 -2.0723 -1.6037
  958MOL0     H29314   8.627   5.721   1.240  3.7959 -1.8748  1.6798
  958MOL0     H29315   8.509   5.932   1.175 -0.2918 -2.4862  0.7076
  958MOL0     H29316   8.225   6.307   1.224  0.3611 -0.1087  2.8583
  958MOL0     H29317   8.157   6.518   1.113 -0.9960 -0.9896  2.5157
  958MOL0     H29318   8.323   6.598   0.850 -1.1570 -1.2757  1.6032
  958MOL0     H29319   8.341   6.770   0.831 -1.6418  1.4744  2.2675
  958MOL0     H29320   8.098   6.798   0.883 -3.6155 -2.0418 -0.5292
  958MOL0     H29321   8.081   6.640   0.943 -0.7422  1.4389  0.4952
  958MOL0     H29322   8.137   6.550   0.732  1.5724  0.4120  1.5022
  958MOL0     H29323   8.090   6.689   0.641 -1.0595  0.6014  1.2183
  958MOL0     H29324   7.901   6.523   0.819  0.3167 -0.0312 -0.8351
  958MOL0     H29325   7.885   6.697   0.762  4.2221  2.8937 -1.6660
  958MOL0     H29326   7.803   6.424   0.444 -0.3189 -0.3836  0.7083
  958MOL0     H29327   8.544   6.650   1.075  1.6578 -0.6229  2.9654
  958MOL0     H29328   8.705   6.566   1.216 -1.4777  0.6208 -0.6394
  958MOL0     H29329   8.692   6.424   1.330  0.0579  0.1307  0.1510
  958MOL0     H29330   8.732   6.398   1.160  1.3597 -1.5878  2.4847
  959MOL0     O29331  11.541   9.561   1.604  0.2280 -0.3291  0.5910
  959MOL0     C29332  11.592   9.602   1.501 -0.3469  0.2662  0.2066
  959MOL0     O29333  11.621   9.527   1.392  0.2216  0.0245  0.1504
  959MOL0     C29334  11.549   9.416   1.356 -0.4673 -0.1702 -0.2922
  959MOL0     C29335  11.578   9.294   1.412 -0.5492 -0.0649  1.0074
  959MOL0     C29336  11.506   9.182   1.376  0.1553  0.3020 -0.5498
  959MOL0     C29337  11.384   9.199   1.314 -1.1108  0.3998 -0.4341
  959MOL0     O29338  11.300   9.090   1.292  0.5999  0.4038 -0.5003
  959MOL0     C29339  11.338   8.954   1.267  0.2185 -0.0650  0.4249
  959MOL0     C29340  11.219   8.857   1.295 -0.6501  0.5718 -0.0373
  959MOL0     C29341  11.164   8.885   1.437  0.1147  0.1905  0.2032
  959MOL0     C29342  11.207   8.781   1.538  0.5555 -0.0034 -0.2976
  959MOL0     C29343  11.355   8.785   1.574 -0.0822  0.0189 -0.3521
  959MOL0     C29344  11.394   8.673   1.678  0.8499 -1.3329 -0.0611
  959MOL0     C29345  11.546   8.712   1.717 -0.5843 -0.8237 -0.4118
  959MOL0     C29346  11.617   8.597   1.785  0.7084  0.2684 -0.2438
  959MOL0     N29347  11.750   8.645   1.813 -0.4000 -0.4025 -1.1565
  959MOL0     C29348  11.872   8.610   1.755 -0.5804 -0.0928 -0.5524
  959MOL0     C29349  11.963   8.669   1.838 -1.0295 -0.1476  0.0003
  959MOL0     C29350  12.105   8.663   1.818  0.8783 -0.5948  0.5055
  959MOL0     C29351  12.191   8.602   1.925 -0.9872 -0.8091  0.0562
  959MOL0     C29352  12.334   8.637   1.877  0.3886  0.0504 -1.0013
  959MOL0     C29353  12.442   8.560   1.956 -0.4174 -0.4688  0.7361
  959MOL0     O29354  12.427   8.594   2.095  0.0665  0.0492  0.9750
  959MOL0     C29355  12.510   8.541   2.183 -0.4247 -0.3467  0.5861
  959MOL0     C29356  12.471   8.559   2.319 -0.1232 -0.1963 -0.3469
  959MOL0     C29357  12.558   8.529   2.428  0.4093  0.3858  0.3953
  959MOL0     C29358  12.689   8.468   2.407 -0.1371 -0.0113  0.5045
  959MOL0     C29359  12.773   8.431   2.521  0.2724  0.5461 -0.2111
  959MOL0     O29360  12.903   8.396   2.493 -0.0946 -0.3240 -0.3499
  959MOL0     C29361  13.000   8.359   2.587  0.8286 -0.1189  0.2944
  959MOL0     C29362  12.981   8.252   2.667 -0.3628 -0.2069 -0.6465
  959MOL0     C29363  13.078   8.217   2.767  0.7570  1.3217  0.2022
  959MOL0     C29364  13.196   8.292   2.773 -0.8114 -0.7402  0.1284
  959MOL0     O29365  13.295   8.250   2.862 -0.4187  0.5527 -0.4321
  959MOL0     C29366  13.420   8.313   2.860 -0.1153  0.1148 -0.0887
  959MOL0     C29367  13.482   8.303   3.001 -0.2687  0.0492 -0.5747
  959MOL0     C29368  13.622   8.359   2.996 -0.9419 -0.6166  0.7855
  959MOL0     C29369  13.731   8.278   2.926  0.2759  0.7858 -0.5568
  959MOL0     C29370  13.751   8.142   2.992  0.0279 -0.4740  0.1468
  959MOL0     C29371  13.880   8.073   2.924 -0.4190 -0.6244 -0.0939
  959MOL0     C29372  13.925   7.954   3.004  0.0397 -0.2830 -1.5740
  959MOL0     C29373  14.043   7.883   2.931  0.7344 -1.2394 -0.5513
  959MOL0    Cl29374  14.195   7.996   2.932  0.1723 -0.7208 -0.6647
  959MOL0     C29375  13.217   8.400   2.689  0.4038  0.0900 -0.1750
  959MOL0     C29376  13.112   8.440   2.598 -0.4195  0.0488 -1.0795
  959MOL0     O29377  12.728   8.430   2.635  0.2971  0.3889  1.0620
  959MOL0     C29378  12.723   8.451   2.276  0.4177 -0.3130 -0.4529
  959MOL0     C29379  12.641   8.488   2.166 -0.3025 -0.2065  0.0514
  959MOL0     N29380  11.899   8.749   1.932 -0.4591 -0.2453  0.0487
  959MOL0     N29381  11.770   8.733   1.920  0.0120  0.3023  0.8988
  959MOL0     C29382  11.350   9.324   1.263  0.3822  0.5044 -0.7207
  959MOL0     C29383  11.432   9.439   1.285 -1.4349  1.4603  0.9398
  959MOL0     C29384  11.637   9.740   1.494 -0.8291  0.3485  0.3135
  959MOL0     C29385  11.534   9.830   1.447 -0.7717  0.1565 -0.6469
  959MOL0     C29386  11.565   9.970   1.437 -0.8846 -0.0408 -0.2053
  959MOL0     C29387  11.690  10.009   1.472  0.0276  0.1418  0.2827
  959MOL0     O29388  11.704  10.140   1.448 -0.3046 -0.5434  0.2482
  959MOL0     C29389  11.824  10.200   1.402 -0.2530 -0.0520 -0.8521
  959MOL0     C29390  11.805  10.342   1.363  0.5993 -0.1123  0.5511
  959MOL0     C29391  11.752  10.355   1.220  0.4536 -0.3813 -0.2647
  959MOL0     C29392  11.714  10.494   1.175  0.0382 -0.6838 -0.1683
  959MOL0     C29393  11.832  10.569   1.137 -0.8316 -0.5766 -0.7204
  959MOL0     C29394  11.921  10.632   1.094  0.5145  0.1740  0.6455
  959MOL0     C29395  11.800   9.923   1.511 -0.3679  0.7517 -0.5777
  959MOL0     C29396  11.776   9.787   1.526  0.3488 -0.2581  0.5738
  959MOL0     C29397  11.896   9.702   1.541  0.0254 -0.1657  0.9738
  959MOL0     H29398  11.677   9.287   1.458 -1.4615 -4.4132  2.9070
  959MOL0     H29399  11.531   9.085   1.417  0.5358  1.1765  1.4037
  959MOL0     H29400  11.370   8.942   1.164  1.0313  3.1326  0.1969
  959MOL0     H29401  11.431   8.928   1.319  0.3168 -1.5514 -0.4394
  959MOL0     H29402  11.257   8.755   1.296 -0.8042  0.5061 -0.9440
  959MOL0     H29403  11.149   8.879   1.215  2.3011 -0.3110 -3.0771
  959MOL0     H29404  11.054   8.878   1.433 -0.0831  2.3752  0.8467
  959MOL0     H29405  11.199   8.979   1.479  3.1851 -1.2739  1.1900
  959MOL0     H29406  11.156   8.798   1.633  2.5166  1.3561  0.5715
  959MOL0     H29407  11.182   8.688   1.486 -4.0330  0.8394 -0.0292
  959MOL0     H29408  11.407   8.771   1.479  0.0742  2.5367 -0.6900
  959MOL0     H29409  11.386   8.885   1.604  4.8450 -0.3767 -3.1290
  959MOL0     H29410  11.323   8.684   1.761 -0.9561  2.4300 -1.8620
  959MOL0     H29411  11.369   8.575   1.635  0.6577  0.3620 -4.3245
  959MOL0     H29412  11.554   8.801   1.779  1.9495  0.3119 -2.2105
  959MOL0     H29413  11.596   8.732   1.622  1.3419 -3.4399 -0.0411
  959MOL0     H29414  11.565   8.558   1.873  0.2196  1.2059 -0.1018
  959MOL0     H29415  11.618   8.515   1.712 -0.0691  0.4606 -0.4809
  959MOL0     H29416  11.892   8.540   1.674 -2.0315 -3.8400  2.0421
  959MOL0     H29417  12.112   8.603   1.727 -0.6971  0.1321 -0.1411
  959MOL0     H29418  12.143   8.764   1.802  1.3900 -1.1835 -2.5849
  959MOL0     H29419  12.179   8.654   2.020 -1.5717 -0.3063 -0.2886
  959MOL0     H29420  12.180   8.493   1.933 -1.1177 -0.7099  1.4044
  959MOL0     H29421  12.356   8.743   1.892  3.0519  0.2257 -4.6170
  959MOL0     H29422  12.344   8.611   1.771  1.0347 -1.3507 -0.6142
  959MOL0     H29423  12.547   8.573   1.929 -0.3758 -2.6684 -0.3938
  959MOL0     H29424  12.413   8.456   1.942 -0.3365 -0.5116  0.8922
  959MOL0     H29425  12.370   8.591   2.342 -0.5497 -2.0027  0.4931
  959MOL0     H29426  12.532   8.560   2.529  2.1876  2.2556  0.3465
  959MOL0     H29427  12.893   8.190   2.670  0.5721 -1.5817 -0.8436
  959MOL0     H29428  13.066   8.135   2.837 -1.0087  2.7971  1.7329
  959MOL0     H29429  13.490   8.273   2.786  1.5097 -0.1267  1.5269
  959MOL0     H29430  13.410   8.421   2.847  0.0999  0.7117  3.7185
  959MOL0     H29431  13.416   8.349   3.075  0.7723 -0.5388  0.7548
  959MOL0     H29432  13.487   8.197   3.030 -0.9664 -0.3388 -1.7942
  959MOL0     H29433  13.624   8.457   2.949  3.6893 -0.8550  0.0131
  959MOL0     H29434  13.646   8.380   3.100 -0.7349 -1.1328  0.8484
  959MOL0     H29435  13.827   8.330   2.930 -0.4622  2.1751 -0.1587
  959MOL0     H29436  13.713   8.272   2.818  0.4107 -1.0185 -0.5036
  959MOL0     H29437  13.665   8.076   2.976 -0.6634  0.3498  0.4075
  959MOL0     H29438  13.769   8.167   3.097  2.4007 -2.3794  0.3043
  959MOL0     H29439  13.850   8.035   2.826  0.8121 -0.7073 -0.4521
  959MOL0     H29440  13.959   8.147   2.905  1.1579 -2.4342 -0.8482
  959MOL0     H29441  13.838   7.891   3.023  0.3172 -0.5881 -1.2828
  959MOL0     H29442  13.962   7.979   3.105 -2.9491 -0.4264 -0.3495
  959MOL0     H29443  14.064   7.780   2.963 -1.7332 -2.4009 -2.3119
  959MOL0     H29444  13.995   7.872   2.833  0.0580 -2.9055 -0.0748
  959MOL0     H29445  13.303   8.466   2.694 -0.8680  1.7707  0.3586
  959MOL0     H29446  13.130   8.526   2.534 -2.7871  1.6818  0.3038
  959MOL0     H29447  12.830   8.431   2.268  0.6445  0.8050 -0.4172
  959MOL0     H29448  12.697   8.488   2.073  0.5207 -1.5668  0.5090
  959MOL0     H29449  11.261   9.340   1.204  0.7650  1.0669 -1.1521
  959MOL0     H29450  11.419   9.546   1.271  0.5730  2.2046  3.6908
  959MOL0     H29451  11.431   9.800   1.438 -1.4063  0.4885  3.4961
  959MOL0     H29452  11.489  10.043   1.413  0.3768  1.3665 -0.0982
  959MOL0     H29453  11.875  10.145   1.323  1.1858 -0.4824  0.3216
  959MOL0     H29454  11.897  10.201   1.484  0.2527 -1.1694 -1.2586
  959MOL0     H29455  11.905  10.385   1.355 -0.3005  1.6980 -3.7774
  959MOL0     H29456  11.759  10.399   1.444 -0.2300 -2.3967  1.7695
  959MOL0     H29457  11.668  10.285   1.211  0.3669 -0.0612 -2.7970
  959MOL0     H29458  11.824  10.305   1.154 -0.6316 -0.1135 -1.7185
  959MOL0     H29459  11.651  10.478   1.087 -0.9576 -2.0812  0.7463
  959MOL0     H29460  11.653  10.548   1.248 -0.0657 -1.6732  0.5003
  959MOL0     H29461  12.012  10.675   1.056  0.9040 -0.3344  0.9810
  959MOL0     H29462  11.903   9.957   1.519 -0.7196  1.3990  2.3523
  959MOL0     H29463  11.873   9.602   1.579  0.6593 -2.2309 -3.3596
  959MOL0     H29464  11.943   9.674   1.446  0.3539 -0.3741  1.1953
  959MOL0     H29465  11.967   9.749   1.609  1.1385 -0.4983  0.0896
  960MOL0     O29466   0.924   0.382   8.392  0.4011  0.2517  0.8549
  960MOL0     C29467   0.953   0.274   8.436 -1.0880 -0.5166  0.6562
  960MOL0     O29468   1.083   0.251   8.482  0.3260  0.4340 -0.4204
  960MOL0     C29469   1.092   0.148   8.574  0.2095 -0.6684 -0.3140
  960MOL0     C29470   1.173   0.041   8.550  0.2883 -0.3158  0.4157
  960MOL0     C29471   1.177  -0.065   8.640  0.1501 -0.3858  0.3886
  960MOL0     C29472   1.108  -0.063   8.764 -0.4631 -0.1912 -0.7486
  960MOL0     O29473   1.125  -0.184   8.828 -0.2455  0.2765  0.1292
  960MOL0     C29474   1.050  -0.203   8.950 -0.1853 -0.5299  0.6577
  960MOL0     C29475   1.080  -0.338   9.011  1.8437  0.3595 -0.4972
  960MOL0     C29476   1.019  -0.370   9.153 -0.9694  1.2246 -0.0921
  960MOL0     C29477   0.868  -0.403   9.145  0.0425 -0.1337 -0.4433
  960MOL0     C29478   0.788  -0.462   9.269  0.1825 -0.3856 -0.3004
  960MOL0     C29479   0.850  -0.591   9.318 -0.0768  0.3855  0.1248
  960MOL0     C29480   0.771  -0.650   9.442 -0.3640 -0.0556  0.0471
  960MOL0     C29481   0.847  -0.767   9.515 -0.2548 -1.2382 -0.4986
  960MOL0     N29482   0.765  -0.837   9.619 -0.6315  0.9784 -0.6567
  960MOL0     C29483   0.642  -0.803   9.660  0.1994  0.1685  0.4563
  960MOL0     C29484   0.611  -0.900   9.748 -0.6431  0.3398 -0.4467
  960MOL0     C29485   0.475  -0.932   9.815 -0.6585 -1.1523  0.7228
  960MOL0     C29486   0.440  -0.845   9.939 -0.0821  0.1785  0.2718
  960MOL0     C29487   0.526  -0.896  10.057 -0.2156  0.4100 -0.5378
  960MOL0     C29488   0.478  -0.837  10.189  0.2133  0.8056  0.3988
  960MOL0     O29489   0.513  -0.708  10.196  0.5175  0.1383  0.2343
  960MOL0     C29490   0.639  -0.679  10.253  0.1199  0.2842 -0.3251
  960MOL0     C29491   0.667  -0.710  10.387 -0.4513 -1.1029  0.8088
  960MOL0     C29492   0.787  -0.660  10.452  0.1082  0.3701  0.3613
  960MOL0     C29493   0.879  -0.586  10.372  0.7787 -0.1837 -1.3908
  960MOL0     C29494   1.003  -0.542  10.433 -0.4223 -0.1261 -1.0430
  960MOL0     O29495   1.093  -0.484  10.347 -0.3966  0.1950  0.6719
  960MOL0     C29496   1.206  -0.421  10.399  0.4388  0.1852  1.0653
  960MOL0     C29497   1.269  -0.451  10.516  0.2571  0.2564 -0.8858
  960MOL0     C29498   1.384  -0.382  10.561 -0.9859 -0.1379 -0.7582
  960MOL0     C29499   1.446  -0.295  10.472 -0.0338 -0.2683  0.5988
  960MOL0     O29500   1.566  -0.239  10.514  0.3004  0.4593 -0.2492
  960MOL0     C29501   1.628  -0.149  10.426 -0.6754 -0.0170 -0.8300
  960MOL0     C29502   1.742  -0.104  10.506 -1.0401  0.1804 -0.1739
  960MOL0     C29503   1.717   0.001  10.609  0.6152  0.4959 -0.1229
  960MOL0     C29504   1.847   0.044  10.671 -0.6556 -0.0060 -0.1945
  960MOL0     C29505   1.822   0.150  10.776  0.3200 -1.5309  0.2581
  960MOL0     C29506   1.961   0.210  10.826  0.2320  0.0217 -0.1503
  960MOL0     C29507   1.938   0.353  10.879 -0.2962 -0.2380 -0.8207
  960MOL0     C29508   2.056   0.399  10.961  0.2675 -0.8456 -0.2556
  960MOL0    Cl29509   2.001   0.528  11.068 -0.7016 -0.0467  0.0433
  960MOL0     C29510   1.386  -0.250  10.353  1.0907  0.9546 -0.5902
  960MOL0     C29511   1.260  -0.312  10.318 -0.0691 -0.5040 -0.5041
  960MOL0     O29512   1.012  -0.542  10.559 -0.3612  0.1084 -0.3527
  960MOL0     C29513   0.835  -0.533  10.249  0.4768  0.6691 -0.6728
  960MOL0     C29514   0.719  -0.580  10.189  0.4262  1.2100  0.2698
  960MOL0     N29515   0.730  -0.973   9.782  1.2485  1.0998 -0.5950
  960MOL0     N29516   0.820  -0.938   9.701  0.4264 -0.3423 -0.4169
  960MOL0     C29517   1.019   0.048   8.789  0.5892 -0.1248  0.4372
  960MOL0     C29518   1.013   0.152   8.695 -0.2874 -0.3021  0.3843
  960MOL0     C29519   0.844   0.166   8.416 -0.1378  0.4653  0.5046
  960MOL0     C29520   0.734   0.170   8.502  0.5927 -0.8354 -0.0319
  960MOL0     C29521   0.623   0.079   8.496  0.0780 -0.1000 -0.4649
  960MOL0     C29522   0.627  -0.015   8.392  0.7788 -0.0050 -0.6263
  960MOL0     O29523   0.507  -0.086   8.376 -0.4274  0.4323 -0.6050
  960MOL0     C29524   0.475  -0.146   8.247 -0.9587 -0.2542  0.1637
  960MOL0     C29525   0.324  -0.154   8.235 -1.1944  0.8266 -0.1712
  960MOL0     C29526   0.288  -0.250   8.108 -0.2088 -0.0920  0.4848
  960MOL0     C29527   0.299  -0.392   8.130  0.1730  0.4280  0.5122
  960MOL0     C29528   0.224  -0.448   8.243 -0.4427  0.2986  0.1978
  960MOL0     C29529   0.166  -0.486   8.339  0.1428 -0.0163  0.0813
  960MOL0     C29530   0.737  -0.015   8.304 -0.7336 -0.5085 -0.3164
  960MOL0     C29531   0.859   0.067   8.317 -0.5587  0.8055  0.9471
  960MOL0     C29532   0.982   0.057   8.226 -0.2802  0.0830  0.4833
  960MOL0     H29533   1.225   0.052   8.455  1.4421  2.3436  1.2530
  960MOL0     H29534   1.236  -0.150   8.606  1.1327  0.4926 -0.1680
  960MOL0     H29535   1.060  -0.125   9.026 -1.3978  1.0252 -0.6993
  960MOL0     H29536   0.943  -0.207   8.930  0.1178  1.5944 -1.7746
  960MOL0     H29537   1.189  -0.337   9.018  1.7684  1.5035  1.0569
  960MOL0     H29538   1.051  -0.420   8.943 -1.6489  1.2980 -0.3225
  960MOL0     H29539   1.033  -0.288   9.225  2.9902 -0.3276  1.1747
  960MOL0     H29540   1.076  -0.453   9.195 -1.2536  0.3077 -1.4576
  960MOL0     H29541   0.822  -0.308   9.114  1.8138  1.5962  1.8200
  960MOL0     H29542   0.854  -0.470   9.060  1.5369  1.6187 -2.1813
  960MOL0     H29543   0.782  -0.400   9.359  3.8393  1.1418 -0.9518
  960MOL0     H29544   0.681  -0.478   9.249 -0.1265 -2.0207  2.2665
  960MOL0     H29545   0.846  -0.668   9.241 -0.6783 -0.9457  1.4186
  960MOL0     H29546   0.957  -0.578   9.337 -0.2433 -0.6166  2.0451
  960MOL0     H29547   0.670  -0.676   9.408 -2.0712  0.7329  3.9993
  960MOL0     H29548   0.751  -0.571   9.515 -2.7412  1.3041 -1.8861
  960MOL0     H29549   0.861  -0.840   9.434 -2.3709 -0.7683 -1.3306
  960MOL0     H29550   0.948  -0.734   9.543 -0.4084 -1.4152  0.2905
  960MOL0     H29551   0.580  -0.721   9.625 -1.0368 -1.0521 -0.3216
  960MOL0     H29552   0.392  -0.918   9.746  0.5629  1.7400 -0.3117
  960MOL0     H29553   0.464  -1.035   9.848 -2.2774 -0.0943  3.9954
  960MOL0     H29554   0.468  -0.742   9.915 -1.7377  0.8687  1.1250
  960MOL0     H29555   0.334  -0.858   9.962  0.1352 -0.1088  1.1218
  960MOL0     H29556   0.627  -0.855  10.055 -0.5437  1.2202 -0.5059
  960MOL0     H29557   0.530  -1.006  10.063  2.1405  0.4168 -1.0484
  960MOL0     H29558   0.529  -0.892  10.269 -0.1041  2.6274  1.9212
  960MOL0     H29559   0.370  -0.845  10.205  0.2771 -1.6550 -0.0626
  960MOL0     H29560   0.598  -0.777  10.436 -1.4905  0.1847  1.1592
  960MOL0     H29561   0.804  -0.688  10.555  0.8700 -2.6070 -0.5013
  960MOL0     H29562   1.262  -0.536  10.584  0.8166  2.7080  2.4894
  960MOL0     H29563   1.443  -0.410  10.648  0.0255  1.5153 -0.8562
  960MOL0     H29564   1.657  -0.186  10.327 -0.4821  1.6985 -1.4496
  960MOL0     H29565   1.564  -0.062  10.408  0.4423  1.2249  0.8548
  960MOL0     H29566   1.796  -0.184  10.558 -2.9938  0.3062  2.1746
  960MOL0     H29567   1.813  -0.049  10.442 -0.7992 -0.8327 -0.8182
  960MOL0     H29568   1.682   0.094  10.562 -2.3152 -0.3594  0.1478
  960MOL0     H29569   1.651  -0.043  10.684  1.2610  0.1344  0.2363
  960MOL0     H29570   1.899   0.086  10.585 -0.1603 -3.0215 -1.4977
  960MOL0     H29571   1.915  -0.034  10.706 -1.5664 -0.4464  0.6724
  960MOL0     H29572   1.769   0.115  10.864 -1.8896 -1.3431 -0.9412
  960MOL0     H29573   1.757   0.229  10.738  1.4378  0.0202  1.4343
  960MOL0     H29574   1.994   0.147  10.909  1.7056 -0.5460 -1.1255
  960MOL0     H29575   2.047   0.203  10.759 -1.7197 -1.6947 -2.7076
  960MOL0     H29576   1.862   0.348  10.957 -0.7532  1.4103 -1.1157
  960MOL0     H29577   1.906   0.431  10.808 -2.9065 -0.3920  0.0746
  960MOL0     H29578   2.097   0.322  11.027  0.7278 -0.2770  0.1407
  960MOL0     H29579   2.138   0.432  10.897 -0.8070  2.2625 -0.2162
  960MOL0     H29580   1.424  -0.180  10.279  0.9222 -0.3932 -2.0021
  960MOL0     H29581   1.204  -0.285  10.229 -0.6618 -3.3805 -1.1135
  960MOL0     H29582   0.904  -0.460  10.206  0.5544  0.5608 -0.7314
  960MOL0     H29583   0.703  -0.533  10.092 -0.3651  1.1291  0.3555
  960MOL0     H29584   0.946   0.059   8.868 -1.0959  2.5773 -1.3521
  960MOL0     H29585   0.950   0.240   8.702 -2.3315 -1.4319 -2.1242
  960MOL0     H29586   0.732   0.257   8.568  0.5712  2.3218 -3.8273
  960MOL0     H29587   0.538   0.090   8.563 -0.2064  2.3228 -1.1281
  960MOL0     H29588   0.523  -0.245   8.248 -3.1487 -1.4115 -1.2170
  960MOL0     H29589   0.515  -0.084   8.167 -2.0698 -1.1504 -1.1282
  960MOL0     H29590   0.278  -0.055   8.228 -2.7792  0.1414  0.2717
  960MOL0     H29591   0.293  -0.202   8.329  2.1958  0.8958  1.1520
  960MOL0     H29592   0.346  -0.224   8.019  0.4544 -1.5166  0.4741
  960MOL0     H29593   0.188  -0.226   8.071 -1.0140 -1.6652  1.5380
  960MOL0     H29594   0.273  -0.447   8.038  0.0253  1.3629 -0.0118
  960MOL0     H29595   0.405  -0.408   8.153  0.0162  1.4336  2.0293
  960MOL0     H29596   0.109  -0.527   8.419 -0.1941 -2.4494 -1.3062
  960MOL0     H29597   0.733  -0.082   8.218 -0.6053  1.9168 -2.3309
  960MOL0     H29598   0.946   0.034   8.126 -1.5921 -0.9447  1.1457
  960MOL0     H29599   1.047   0.145   8.233 -1.3234  0.9603 -0.5835
  960MOL0     H29600   1.053  -0.022   8.253  1.9782  0.1743 -4.2369
  961MOL0     O29601   0.611   5.647   5.269  0.4965 -0.5294 -0.2870
  961MOL0     C29602   0.576   5.719   5.361 -0.3146  0.8970  0.7015
  961MOL0     O29603   0.463   5.714   5.432 -0.2235  0.0414  0.0424
  961MOL0     C29604   0.390   5.594   5.419  0.1025  0.4737 -0.1091
  961MOL0     C29605   0.441   5.459   5.387  0.3593 -0.8807  0.3361
  961MOL0     C29606   0.354   5.353   5.373 -1.0062  0.2579 -0.3223
  961MOL0     C29607   0.218   5.373   5.385 -0.2810  0.7532 -0.5507
  961MOL0     O29608   0.119   5.295   5.329  0.5001 -0.1976 -0.3979
  961MOL0     C29609   0.153   5.211   5.218  0.5714 -0.5623  0.1052
  961MOL0     C29610   0.085   5.277   5.099  0.0973 -0.0875 -1.2310
  961MOL0     C29611   0.073   5.172   4.983 -0.8740 -0.1388  0.8227
  961MOL0     C29612  -0.052   5.087   5.008  0.3700  0.0254  0.5067
  961MOL0     C29613  -0.080   5.015   4.881  0.8160 -0.6227  0.4381
  961MOL0     C29614   0.031   4.924   4.833  0.3643 -0.2210 -0.4223
  961MOL0     C29615  -0.014   4.801   4.750  0.0092  0.2595 -0.2216
  961MOL0     C29616  -0.081   4.836   4.616  0.5213  0.2957 -0.0285
  961MOL0     N29617  -0.174   4.734   4.563  0.7005 -0.6435  0.7649
  961MOL0     C29618  -0.307   4.725   4.590 -0.9913  0.2069  0.2459
  961MOL0     C29619  -0.351   4.621   4.521 -0.9971  0.2495 -0.2300
  961MOL0     C29620  -0.489   4.575   4.521  0.7444 -0.7132  0.1009
  961MOL0     C29621  -0.548   4.563   4.378  2.0346 -0.6967 -0.2777
  961MOL0     C29622  -0.695   4.539   4.375 -0.0542  0.8408  0.5446
  961MOL0     C29623  -0.727   4.385   4.393 -0.0712  0.7390  0.0390
  961MOL0     O29624  -0.682   4.309   4.283  0.1312 -0.0240  0.0441
  961MOL0     C29625  -0.736   4.181   4.263  0.4642  0.5445 -0.4126
  961MOL0     C29626  -0.771   4.103   4.378 -0.7602 -0.2212  0.2780
  961MOL0     C29627  -0.832   3.975   4.360  0.3142 -0.3028  0.5206
  961MOL0     C29628  -0.857   3.919   4.232  0.1212  0.0168 -0.5614
  961MOL0     C29629  -0.952   3.802   4.221  0.1985  1.3554  0.1333
  961MOL0     O29630  -0.955   3.722   4.109  0.3860  1.1139 -1.0102
  961MOL0     C29631  -1.048   3.627   4.103 -0.4698 -0.2599 -0.9730
  961MOL0     C29632  -1.011   3.488   4.099 -0.1123  0.1549 -0.0153
  961MOL0     C29633  -1.105   3.395   4.062 -0.2226 -0.9825  0.7508
  961MOL0     C29634  -1.239   3.429   4.051 -0.5244 -0.4806  0.8770
  961MOL0     O29635  -1.317   3.319   4.043  0.1979 -0.2169  0.0883
  961MOL0     C29636  -1.443   3.334   4.108 -0.6705  0.3048  0.0173
  961MOL0     C29637  -1.527   3.212   4.117  0.3690  0.6443  0.7389
  961MOL0     C29638  -1.460   3.108   4.199 -0.6455  0.0591 -0.0684
  961MOL0     C29639  -1.554   2.984   4.217 -0.2096 -0.2086 -0.2122
  961MOL0     C29640  -1.470   2.868   4.261  0.0391 -0.9589 -0.3954
  961MOL0     C29641  -1.554   2.742   4.315  0.5697  0.1273  0.4021
  961MOL0     C29642  -1.624   2.780   4.448  0.5704  0.2828 -0.7490
  961MOL0     C29643  -1.760   2.702   4.464  0.0834 -0.3623  0.0245
  961MOL0    Cl29644  -1.751   2.531   4.467  0.3916  0.2844 -0.3494
  961MOL0     C29645  -1.278   3.567   4.053  0.6251  0.6322  0.4822
  961MOL0     C29646  -1.182   3.662   4.078 -0.9105 -0.2025  0.7161
  961MOL0     O29647  -1.036   3.791   4.308 -0.1473 -0.1693  0.9135
  961MOL0     C29648  -0.816   3.997   4.120 -0.2493 -0.2104  0.8331
  961MOL0     C29649  -0.752   4.127   4.136  0.6194 -0.4613 -0.5955
  961MOL0     N29650  -0.243   4.567   4.448 -0.1129 -0.0616 -0.5620
  961MOL0     N29651  -0.137   4.631   4.483  0.0883  0.5195  0.5738
  961MOL0     C29652   0.171   5.489   5.445  1.2840  0.3321  0.0295
  961MOL0     C29653   0.260   5.589   5.467  0.5439 -0.0005 -0.2609
  961MOL0     C29654   0.660   5.843   5.391 -0.1572  1.0772 -0.1787
  961MOL0     C29655   0.754   5.881   5.296  0.2880  0.3553  0.1718
  961MOL0     C29656   0.851   5.977   5.320  0.1883 -0.4634  0.0748
  961MOL0     C29657   0.846   6.057   5.437  0.0172 -0.4291 -0.2006
  961MOL0     O29658   0.929   6.177   5.459 -0.5003  0.3798 -0.2288
  961MOL0     C29659   1.024   6.134   5.557 -1.1238 -0.3260 -0.0722
  961MOL0     C29660   1.129   6.243   5.540 -0.0151  0.1773 -0.1864
  961MOL0     C29661   1.084   6.375   5.611  1.0445  0.0596 -0.1805
  961MOL0     C29662   1.185   6.467   5.651  0.5196 -0.0467  0.0843
  961MOL0     C29663   1.134   6.580   5.719 -0.1772  0.3116 -0.8254
  961MOL0     C29664   1.101   6.680   5.775  0.0658 -0.2280  1.4886
  961MOL0     C29665   0.743   6.029   5.526  0.1143  0.9265  0.0711
  961MOL0     C29666   0.648   5.929   5.507 -0.3689  1.3171  0.1004
  961MOL0     C29667   0.545   5.926   5.612  0.3748  0.6828  0.2488
  961MOL0     H29668   0.549   5.450   5.380  0.5670  1.7679 -1.3628
  961MOL0     H29669   0.397   5.254   5.364 -2.5793 -0.4102 -0.8971
  961MOL0     H29670   0.258   5.207   5.191  0.6396  0.5193  0.1902
  961MOL0     H29671   0.114   5.112   5.244  0.1706 -0.7872 -1.2714
  961MOL0     H29672   0.147   5.362   5.068 -0.8842  0.1796 -2.5301
  961MOL0     H29673  -0.013   5.319   5.122  0.3736  0.5567 -1.2233
  961MOL0     H29674   0.164   5.112   4.974 -0.5278  0.6866 -2.3164
  961MOL0     H29675   0.075   5.224   4.887  2.8480  0.0612  0.8585
  961MOL0     H29676  -0.037   5.018   5.092  3.9752 -0.6152 -0.5063
  961MOL0     H29677  -0.121   5.169   5.030  4.0300  3.4593  0.2986
  961MOL0     H29678  -0.180   4.970   4.889  0.9882 -1.3244 -1.0441
  961MOL0     H29679  -0.092   5.082   4.795  3.5725 -0.0876  0.3798
  961MOL0     H29680   0.090   4.988   4.767  0.7083  1.9123  1.8353
  961MOL0     H29681   0.100   4.884   4.908  2.9309 -1.3584 -3.1807
  961MOL0     H29682  -0.078   4.726   4.797  1.2817 -1.9847 -1.8738
  961MOL0     H29683   0.066   4.729   4.729  1.0115  1.3779 -0.3130
  961MOL0     H29684  -0.145   4.924   4.628  2.0120  1.0671  3.0650
  961MOL0     H29685  -0.007   4.857   4.538  3.1838 -3.3230  1.2716
  961MOL0     H29686  -0.370   4.772   4.665  1.0962 -0.8889  2.8233
  961MOL0     H29687  -0.498   4.477   4.568  1.8772 -0.9786 -0.2171
  961MOL0     H29688  -0.556   4.647   4.568  1.4290 -0.2948  0.4484
  961MOL0     H29689  -0.542   4.663   4.334  2.1857  0.2607  1.7703
  961MOL0     H29690  -0.482   4.502   4.317 -1.4229 -1.9377 -3.1105
  961MOL0     H29691  -0.744   4.575   4.283  0.9522  1.4079  0.2200
  961MOL0     H29692  -0.737   4.596   4.458 -0.6612 -0.4778  1.1663
  961MOL0     H29693  -0.832   4.372   4.424 -0.3273  2.3406 -0.1015
  961MOL0     H29694  -0.669   4.356   4.481 -1.4268  1.6638  1.2838
  961MOL0     H29695  -0.760   4.136   4.481 -1.0648 -1.5658  0.7473
  961MOL0     H29696  -0.857   3.927   4.454  1.2911 -0.3725  0.7633
  961MOL0     H29697  -0.917   3.441   4.126  0.8076  0.1985 -2.8737
  961MOL0     H29698  -1.080   3.290   4.061 -0.2294 -1.0655 -2.6110
  961MOL0     H29699  -1.430   3.350   4.216  0.5460 -1.8591  0.2468
  961MOL0     H29700  -1.509   3.405   4.058  0.8114  2.9737  1.5928
  961MOL0     H29701  -1.631   3.223   4.152 -0.8091 -0.2370 -2.1716
  961MOL0     H29702  -1.535   3.169   4.017 -1.3133  0.4456  0.9226
  961MOL0     H29703  -1.365   3.085   4.150 -1.3417 -0.6138 -1.1331
  961MOL0     H29704  -1.440   3.150   4.298 -0.1750 -0.0152 -0.1318
  961MOL0     H29705  -1.599   2.955   4.121 -1.9239  1.5482 -0.0173
  961MOL0     H29706  -1.641   3.013   4.277 -0.9296  2.7437 -2.4187
  961MOL0     H29707  -1.415   2.906   4.346  0.1544  1.2329 -1.3942
  961MOL0     H29708  -1.405   2.835   4.179  1.2743 -1.7724  0.8655
  961MOL0     H29709  -1.636   2.715   4.248 -1.0909 -1.3430  2.8537
  961MOL0     H29710  -1.493   2.652   4.322  0.0970 -0.5105 -2.6017
  961MOL0     H29711  -1.646   2.887   4.448  3.8248  1.1254 -3.1536
  961MOL0     H29712  -1.555   2.755   4.530  1.9864  0.4523 -1.8452
  961MOL0     H29713  -1.818   2.729   4.553 -1.8270  1.2131 -1.6037
  961MOL0     H29714  -1.822   2.726   4.378 -0.7978 -0.1394  0.7082
  961MOL0     H29715  -1.377   3.609   4.041 -0.1228 -0.6903  1.7020
  961MOL0     H29716  -1.223   3.763   4.083 -2.2238 -0.7822  2.5613
  961MOL0     H29717  -0.839   3.966   4.019  3.8265 -2.5727  0.3890
  961MOL0     H29718  -0.737   4.186   4.047  0.5710 -1.1552 -1.0787
  961MOL0     H29719   0.066   5.496   5.474  1.1854  0.4587 -0.3591
  961MOL0     H29720   0.214   5.675   5.514  0.9709  0.2606 -0.3135
  961MOL0     H29721   0.760   5.825   5.203  0.5109 -1.4087  1.2060
  961MOL0     H29722   0.934   5.997   5.253  0.3134  1.9197  0.8490
  961MOL0     H29723   1.063   6.035   5.532  3.2184  1.4964 -1.3390
  961MOL0     H29724   0.986   6.126   5.659  1.6608  1.6926  1.2330
  961MOL0     H29725   1.162   6.258   5.437 -0.4773  0.8524 -0.2429
  961MOL0     H29726   1.227   6.223   5.585  1.1182  1.1968 -2.0814
  961MOL0     H29727   1.039   6.347   5.706 -0.9242  1.1699 -0.7136
  961MOL0     H29728   1.006   6.428   5.554 -2.4681 -3.4005  0.9426
  961MOL0     H29729   1.247   6.405   5.718  3.0029  1.7155 -0.4562
  961MOL0     H29730   1.238   6.497   5.560 -0.1829 -2.3832 -1.2029
  961MOL0     H29731   1.050   6.755   5.832 -2.1044  1.5119 -2.3574
  961MOL0     H29732   0.752   6.080   5.621 -0.4348  3.1658 -1.0063
  961MOL0     H29733   0.450   5.960   5.570 -1.0108 -3.4984 -0.3898
  961MOL0     H29734   0.533   5.820   5.634 -2.7073  0.9341  0.1917
  961MOL0     H29735   0.570   5.990   5.698 -1.9927  1.9952  0.0390
  962MOL0     O29736  11.509   4.197   5.246 -0.0142 -0.7045 -0.0039
  962MOL0     C29737  11.492   4.102   5.173 -0.5049 -0.1401 -0.6489
  962MOL0     O29738  11.365   4.064   5.115  0.3225  0.4388 -0.1876
  962MOL0     C29739  11.258   4.146   5.132  0.0593  0.5561 -0.2357
  962MOL0     C29740  11.172   4.141   5.022  0.6897 -0.4691 -0.0883
  962MOL0     C29741  11.044   4.191   5.026  0.4700 -0.7991 -0.6587
  962MOL0     C29742  10.996   4.256   5.142 -0.8149  0.6262  0.5651
  962MOL0     O29743  10.873   4.311   5.148 -0.7618 -1.5884  0.9783
  962MOL0     C29744  10.765   4.221   5.164 -0.7242 -0.0573  0.4835
  962MOL0     C29745  10.640   4.263   5.089  0.0151  0.2547 -0.0293
  962MOL0     C29746  10.524   4.151   5.106 -0.9966 -0.4206  0.7041
  962MOL0     C29747  10.402   4.200   5.014 -0.1472  0.1062  0.7775
  962MOL0     C29748  10.295   4.093   5.018  0.3118  0.9415 -0.5589
  962MOL0     C29749  10.182   4.140   4.925  0.2688  0.3787  0.7454
  962MOL0     C29750  10.073   4.029   4.902  0.0025  0.9172 -0.1764
  962MOL0     C29751   9.974   4.015   5.020 -0.0374 -0.0540 -0.1375
  962MOL0     N29752   9.911   3.877   5.014  0.6512 -0.9149 -0.0582
  962MOL0     C29753   9.829   3.837   4.916  0.3994  0.7934  0.1417
  962MOL0     C29754   9.789   3.711   4.938 -0.2676  1.5150 -0.5992
  962MOL0     C29755   9.707   3.615   4.845 -0.1196 -0.4997  0.7386
  962MOL0     C29756   9.732   3.633   4.694  1.2372  0.5169 -0.7166
  962MOL0     C29757   9.838   3.537   4.633  0.2142  0.4466  0.8976
  962MOL0     C29758   9.983   3.573   4.660  0.3434 -0.1082 -0.1651
  962MOL0     O29759  10.071   3.502   4.564  0.0341 -0.6792  0.0708
  962MOL0     C29760  10.209   3.523   4.581  0.4563 -0.7103 -0.2250
  962MOL0     C29761  10.273   3.535   4.704 -0.5626 -0.4491 -0.2845
  962MOL0     C29762  10.410   3.524   4.715 -0.6274  0.2872 -0.6263
  962MOL0     C29763  10.490   3.500   4.604 -1.0313  0.7411  0.3198
  962MOL0     C29764  10.638   3.472   4.614  0.5746 -0.9884 -1.0855
  962MOL0     O29765  10.710   3.502   4.497 -0.4461 -0.2768  0.4804
  962MOL0     C29766  10.849   3.490   4.500 -0.6000  0.3224  0.1435
  962MOL0     C29767  10.929   3.587   4.423  0.2502  0.0233  0.4692
  962MOL0     C29768  11.067   3.557   4.408 -0.9043  0.3736  0.8066
  962MOL0     C29769  11.124   3.441   4.454  0.3241 -0.6923  0.3982
  962MOL0     O29770  11.258   3.428   4.426 -0.1490 -0.3556  0.2111
  962MOL0     C29771  11.310   3.299   4.402 -1.6610 -0.7315  0.5690
  962MOL0     C29772  11.463   3.298   4.371 -0.4174  0.6217 -0.4636
  962MOL0     C29773  11.509   3.165   4.306 -0.0903 -0.5099  0.3316
  962MOL0     C29774  11.479   3.039   4.387  0.6596  0.1143  0.0196
  962MOL0     C29775  11.499   2.911   4.298  0.1718 -0.0756 -1.1776
  962MOL0     C29776  11.642   2.857   4.283 -0.6464  0.2944 -0.5714
  962MOL0     C29777  11.633   2.762   4.169  0.7950  0.0590 -0.2741
  962MOL0     C29778  11.770   2.693   4.140  0.7829  0.8190 -0.4873
  962MOL0    Cl29779  11.852   2.653   4.299 -0.8850  0.1416  0.0138
  962MOL0     C29780  11.046   3.345   4.526 -0.1401  0.6290 -0.4470
  962MOL0     C29781  10.912   3.369   4.555  0.5762  0.2862  1.4874
  962MOL0     O29782  10.685   3.439   4.722 -0.0082  0.0291 -0.3891
  962MOL0     C29783  10.424   3.505   4.481  0.6516 -0.4276  0.0701
  962MOL0     C29784  10.282   3.513   4.468 -0.3738  0.4577 -0.4074
  962MOL0     N29785   9.854   3.673   5.056  0.4775 -0.6633 -0.3441
  962MOL0     N29786   9.927   3.776   5.095 -0.2386 -0.3728  0.1954
  962MOL0     C29787  11.080   4.263   5.261  0.2147 -0.9311  0.9141
  962MOL0     C29788  11.206   4.196   5.252 -0.2818  0.5642  0.0098
  962MOL0     C29789  11.608   4.013   5.159 -0.5280  0.3849  0.2493
  962MOL0     C29790  11.573   3.883   5.116  0.5530  0.7871  0.0320
  962MOL0     C29791  11.674   3.784   5.073  0.1017 -0.2392  0.1939
  962MOL0     C29792  11.808   3.827   5.068 -0.6793 -0.4421 -0.6354
  962MOL0     O29793  11.915   3.758   5.024 -0.5099 -0.3749 -0.2572
  962MOL0     C29794  11.890   3.623   4.987  0.0971  0.9226 -0.1563
  962MOL0     C29795  12.022   3.566   4.924  0.8948 -0.1184 -0.0260
  962MOL0     C29796  12.115   3.550   5.044 -0.3684  0.8345  0.9583
  962MOL0     C29797  12.263   3.533   5.000 -0.9961  0.6650  0.3220
  962MOL0     C29798  12.287   3.414   4.917 -0.4945 -0.0438 -0.2629
  962MOL0     C29799  12.257   3.321   4.841  0.3088  0.0833 -0.3122
  962MOL0     C29800  11.842   3.957   5.106  1.1841  0.0751  0.1487
  962MOL0     C29801  11.748   4.050   5.159  0.1047 -0.3827  0.8358
  962MOL0     C29802  11.805   4.187   5.175 -1.3154 -0.6848  0.3024
  962MOL0     H29803  11.193   4.085   4.932 -2.0193 -0.6392 -0.6883
  962MOL0     H29804  10.982   4.179   4.938 -0.5705 -1.6562  0.1749
  962MOL0     H29805  10.790   4.121   5.129 -3.9471 -1.2619  1.2011
  962MOL0     H29806  10.739   4.204   5.269 -0.7390  0.0826  0.5026
  962MOL0     H29807  10.673   4.280   4.986 -0.3736  1.3390  0.0201
  962MOL0     H29808  10.608   4.352   5.144  1.0923  2.9960 -3.4655
  962MOL0     H29809  10.497   4.145   5.212  0.8431 -1.9259  1.1347
  962MOL0     H29810  10.557   4.052   5.076 -0.3663 -0.3751  1.2332
  962MOL0     H29811  10.356   4.292   5.051  4.2165  4.4692 -3.1688
  962MOL0     H29812  10.441   4.219   4.914 -1.3127  1.7563  0.6079
  962MOL0     H29813  10.337   3.996   4.992 -1.7399 -0.4653  1.1341
  962MOL0     H29814  10.259   4.078   5.120 -1.2300  1.4718 -0.9898
  962MOL0     H29815  10.137   4.232   4.962  0.4933  1.0240 -0.5385
  962MOL0     H29816  10.237   4.160   4.833  1.3131 -1.1781  0.9937
  962MOL0     H29817  10.131   3.939   4.877 -0.1381  0.5798  0.6627
  962MOL0     H29818  10.020   4.051   4.809  0.7920  5.2015  0.1845
  962MOL0     H29819  10.024   4.033   5.116 -1.6936 -3.5759  1.5669
  962MOL0     H29820   9.893   4.086   5.005 -1.0086 -1.3455 -1.2633
  962MOL0     H29821   9.800   3.903   4.835  0.4436  1.7388  0.8734
  962MOL0     H29822   9.747   3.516   4.869  0.5590 -0.5103 -0.3750
  962MOL0     H29823   9.601   3.628   4.870 -0.4820 -0.8412 -0.5759
  962MOL0     H29824   9.643   3.616   4.633 -0.5213 -1.4322  2.1491
  962MOL0     H29825   9.755   3.738   4.675 -1.1980  1.6211  1.6660
  962MOL0     H29826   9.807   3.519   4.530 -2.3312 -1.9342  1.9463
  962MOL0     H29827   9.815   3.436   4.667 -0.4205  0.5147  0.6888
  962MOL0     H29828   9.997   3.524   4.756  0.2516  0.5040  0.1638
  962MOL0     H29829  10.009   3.679   4.666  0.8035 -0.2537  0.3924
  962MOL0     H29830  10.224   3.535   4.800  2.8219  1.1305  1.6320
  962MOL0     H29831  10.457   3.545   4.811 -0.7992  1.8951 -0.8580
  962MOL0     H29832  10.894   3.681   4.384 -0.4056 -0.9105 -1.3048
  962MOL0     H29833  11.129   3.626   4.352  0.7728  0.3209  2.4790
  962MOL0     H29834  11.288   3.233   4.487  0.1890  1.5083  2.9454
  962MOL0     H29835  11.261   3.265   4.310  0.1453 -3.5336  0.5260
  962MOL0     H29836  11.479   3.378   4.299 -2.2398  0.2336 -1.3780
  962MOL0     H29837  11.533   3.333   4.447 -1.2427  1.0210  0.1300
  962MOL0     H29838  11.463   3.166   4.207 -2.5905  0.3246  1.4359
  962MOL0     H29839  11.618   3.175   4.300 -0.1453 -0.7926 -2.3138
  962MOL0     H29840  11.375   3.030   4.418  0.9710  0.5459  1.2261
  962MOL0     H29841  11.530   3.042   4.484 -0.2665  1.4200  0.4865
  962MOL0     H29842  11.454   2.933   4.200 -0.8334  0.2843 -0.6460
  962MOL0     H29843  11.450   2.829   4.350 -1.0435  2.7242  2.5131
  962MOL0     H29844  11.712   2.940   4.272  0.0805 -0.2264  0.0555
  962MOL0     H29845  11.654   2.819   4.385 -3.0718  1.9070  0.4194
  962MOL0     H29846  11.603   2.807   4.074  2.8154  0.8182 -0.5853
  962MOL0     H29847  11.562   2.685   4.203  3.3202 -1.5988  1.5685
  962MOL0     H29848  11.757   2.602   4.080 -1.3183  1.0858 -0.5315
  962MOL0     H29849  11.838   2.760   4.087 -0.7093  2.1442 -0.8066
  962MOL0     H29850  11.091   3.252   4.557  3.3605  1.4348 -2.6432
  962MOL0     H29851  10.867   3.275   4.586  2.7707 -0.9740  1.0664
  962MOL0     H29852  10.483   3.502   4.390  1.0938 -2.4377  0.3697
  962MOL0     H29853  10.233   3.496   4.373 -0.9220  0.0690 -0.0639
  962MOL0     H29854  11.020   4.302   5.342 -3.2833 -0.9918 -1.4265
  962MOL0     H29855  11.269   4.197   5.340 -0.2119  5.1121  0.1238
  962MOL0     H29856  11.469   3.855   5.130  0.5436  1.8975  2.7687
  962MOL0     H29857  11.638   3.695   5.023  0.0807 -0.3872  0.4732
  962MOL0     H29858  11.802   3.623   4.923 -0.7637 -0.1780  0.9822
  962MOL0     H29859  11.873   3.555   5.070 -0.4196 -3.6678 -3.6122
  962MOL0     H29860  12.062   3.636   4.851  2.4411  0.2495  1.1275
  962MOL0     H29861  12.005   3.471   4.872 -0.1424  0.9223 -1.6703
  962MOL0     H29862  12.087   3.458   5.096  1.3062  0.7467  1.7745
  962MOL0     H29863  12.107   3.633   5.115 -2.0302  0.7413  0.9145
  962MOL0     H29864  12.294   3.625   4.949 -2.2252  1.6245  1.2492
  962MOL0     H29865  12.327   3.506   5.084  0.7051  0.0395 -1.1120
  962MOL0     H29866  12.223   3.231   4.794 -0.7976  0.1774  0.2749
  962MOL0     H29867  11.948   3.981   5.108  0.9869  1.0324 -0.3906
  962MOL0     H29868  11.728   4.265   5.170 -0.3161  0.2467 -1.4350
  962MOL0     H29869  11.865   4.203   5.266 -1.6702  0.9537  0.2838
  962MOL0     H29870  11.877   4.202   5.094 -1.7262  1.2068  0.2412
  963MOL0     O29871   8.693   0.134   2.437  0.0265 -0.5410  0.9020
  963MOL0     C29872   8.739   0.039   2.500  0.1561 -0.1971  0.3585
  963MOL0     O29873   8.853  -0.034   2.468 -0.3301 -1.2216  0.0684
  963MOL0     C29874   8.915  -0.026   2.347 -0.0935  1.4034 -0.1435
  963MOL0     C29875   9.052  -0.006   2.333  0.4616 -1.2563  1.1321
  963MOL0     C29876   9.115  -0.009   2.206  0.0368  0.4533  0.2789
  963MOL0     C29877   9.036  -0.037   2.093 -0.6962 -0.7706 -0.0766
  963MOL0     O29878   9.108  -0.038   1.974 -0.4231 -0.8481 -1.0725
  963MOL0     C29879   9.041   0.025   1.867 -0.2137 -0.3556 -0.0027
  963MOL0     C29880   9.034  -0.081   1.756 -0.8496 -0.1837 -0.0594
  963MOL0     C29881   8.931  -0.037   1.653 -0.7042 -0.1766  1.2839
  963MOL0     C29882   8.961  -0.097   1.509  0.1619  0.0156 -0.5951
  963MOL0     C29883   8.871  -0.054   1.397 -0.1219  0.1377 -0.0750
  963MOL0     C29884   8.895  -0.137   1.262  0.2936 -0.1065 -0.7783
  963MOL0     C29885   8.848  -0.069   1.135 -0.1327 -0.5579  0.2985
  963MOL0     C29886   8.921   0.052   1.088 -0.2475  0.0234 -1.2254
  963MOL0     N29887   8.892   0.081   0.943  0.1299 -0.0585  0.2571
  963MOL0     C29888   8.989   0.070   0.842 -0.4781  0.3160 -0.0897
  963MOL0     C29889   8.915   0.086   0.729  0.5035 -0.4697 -0.4331
  963MOL0     C29890   8.972   0.085   0.586  0.4472  0.4522 -0.5761
  963MOL0     C29891   9.108   0.159   0.552 -0.2118  0.0917 -0.5341
  963MOL0     C29892   9.156   0.140   0.400  0.1959  0.6289 -0.0782
  963MOL0     C29893   9.280   0.217   0.368  0.3781  0.0573 -0.6571
  963MOL0     O29894   9.257   0.360   0.378 -0.4174  0.2945 -0.7011
  963MOL0     C29895   9.364   0.438   0.339 -0.0382 -0.8119  0.6730
  963MOL0     C29896   9.345   0.582   0.326 -0.5173  0.7140 -0.1413
  963MOL0     C29897   9.441   0.673   0.276 -0.6960  0.1382 -0.4024
  963MOL0     C29898   9.571   0.629   0.240  0.2451 -0.5965 -0.4533
  963MOL0     C29899   9.665   0.729   0.173  0.6964  1.2458  0.9359
  963MOL0     O29900   9.595   0.841   0.122 -0.3451  0.2484 -0.5300
  963MOL0     C29901   9.676   0.925   0.068  0.0024  0.3489 -0.9042
  963MOL0     C29902   9.671   0.939  -0.073 -0.3525  1.0502 -0.5406
  963MOL0     C29903   9.751   1.029  -0.136 -0.1200  0.7713 -0.9140
  963MOL0     C29904   9.828   1.118  -0.071 -0.0588  0.3529 -0.4156
  963MOL0     O29905   9.915   1.211  -0.131 -0.0771 -0.5886  0.4469
  963MOL0     C29906   9.872   1.258  -0.263 -0.1179 -0.3998  0.6034
  963MOL0     C29907   9.935   1.401  -0.284 -0.7299  1.2461 -0.1620
  963MOL0     C29908   9.882   1.456  -0.417 -0.7772  0.1214  0.3512
  963MOL0     C29909   9.960   1.577  -0.449 -0.4515 -0.3074  0.7206
  963MOL0     C29910   9.908   1.625  -0.581  0.2087  0.0190  0.2301
  963MOL0     C29911   9.994   1.751  -0.630 -0.0700  0.1566  0.5132
  963MOL0     C29912   9.942   1.822  -0.760  0.7754  0.2004  0.2369
  963MOL0     C29913   9.986   1.967  -0.782 -0.6220 -0.1077  0.5838
  963MOL0    Cl29914   9.901   2.028  -0.926 -0.3163 -0.3222 -0.5563
  963MOL0     C29915   9.826   1.113   0.067 -0.1372 -0.5757  0.3368
  963MOL0     C29916   9.761   1.015   0.133  0.3561  1.2453  0.1721
  963MOL0     O29917   9.790   0.721   0.190 -0.2326  0.1313 -0.2048
  963MOL0     C29918   9.601   0.492   0.266 -0.2232  0.2948  0.5056
  963MOL0     C29919   9.501   0.401   0.321 -0.8479  0.2953  0.2670
  963MOL0     N29920   8.777   0.104   0.760 -0.9128  0.1806 -0.5059
  963MOL0     N29921   8.768   0.089   0.890  0.4932 -0.2486  0.1759
  963MOL0     C29922   8.897  -0.061   2.111 -0.1844 -1.1047  0.6067
  963MOL0     C29923   8.839  -0.061   2.232  0.2305 -0.7821 -0.6296
  963MOL0     C29924   8.672   0.007   2.634  0.9763 -0.1182  0.1522
  963MOL0     C29925   8.753  -0.060   2.733  0.6064 -0.4463  1.0072
  963MOL0     C29926   8.727  -0.064   2.870 -0.6311  1.7284  0.9802
  963MOL0     C29927   8.604  -0.028   2.926 -0.2109 -0.5138  0.4778
  963MOL0     O29928   8.555  -0.054   3.053  0.7171  0.0316  0.6819
  963MOL0     C29929   8.626  -0.150   3.124  0.0116  0.1160 -0.3688
  963MOL0     C29930   8.564  -0.167   3.262  0.9488  0.2443  0.6686
  963MOL0     C29931   8.634  -0.282   3.338 -0.6648 -0.3527 -0.5839
  963MOL0     C29932   8.572  -0.289   3.483  0.3102  0.3338  0.0062
  963MOL0     C29933   8.627  -0.414   3.551  0.0776 -0.2446 -0.5037
  963MOL0     C29934   8.652  -0.502   3.623  0.3170 -0.6979  0.2569
  963MOL0     C29935   8.516   0.037   2.833  0.1336 -0.2156  0.3387
  963MOL0     C29936   8.548   0.059   2.690  0.2972 -0.6674  0.4770
  963MOL0     C29937   8.451   0.132   2.598  0.7692 -0.6235  0.4080
  963MOL0     H29938   9.097   0.007   2.431  1.2403 -2.3910  0.9469
  963MOL0     H29939   9.218   0.018   2.187  0.9464 -1.9547  1.3202
  963MOL0     H29940   8.941   0.061   1.896  0.2941  0.6888  0.4864
  963MOL0     H29941   9.100   0.108   1.827 -1.0478  1.0698  1.5395
  963MOL0     H29942   8.988  -0.169   1.802 -0.0822 -1.6148 -1.9141
  963MOL0     H29943   9.130  -0.114   1.716  0.1992  1.3145  1.1118
  963MOL0     H29944   8.930   0.072   1.648 -3.4838 -0.1670 -1.0879
  963MOL0     H29945   8.835  -0.066   1.697  0.0240 -0.1519  2.9585
  963MOL0     H29946   9.067  -0.095   1.484  0.1076  0.4006 -0.8018
  963MOL0     H29947   8.937  -0.203   1.517  0.4106 -0.2808 -3.0785
  963MOL0     H29948   8.765  -0.064   1.424  0.3668  0.6626  2.2151
  963MOL0     H29949   8.895   0.052   1.385  0.0230  0.3851  2.0360
  963MOL0     H29950   9.002  -0.159   1.252  0.0426 -1.3464 -0.8854
  963MOL0     H29951   8.851  -0.237   1.262 -0.9548  0.3316  2.8259
  963MOL0     H29952   8.745  -0.035   1.135  0.2437  0.6354  1.2671
  963MOL0     H29953   8.866  -0.150   1.063  1.5552 -1.1864  1.3417
  963MOL0     H29954   8.899   0.136   1.154  1.9809 -0.5375  0.3384
  963MOL0     H29955   9.029   0.043   1.101 -0.4897 -0.9971  0.2780
  963MOL0     H29956   9.094   0.075   0.870 -0.5833  1.4186  0.1684
  963MOL0     H29957   8.983  -0.023   0.572  2.9242  0.4425  0.9022
  963MOL0     H29958   8.903   0.140   0.521  1.3326  0.5394 -1.4703
  963MOL0     H29959   9.079   0.264   0.553  1.9082  0.7161 -0.6501
  963MOL0     H29960   9.182   0.141   0.631  0.8714 -0.2399 -1.5917
  963MOL0     H29961   9.072   0.156   0.332 -0.8395 -0.1852  0.9543
  963MOL0     H29962   9.182   0.034   0.394  0.9524  0.8701 -1.3750
  963MOL0     H29963   9.298   0.201   0.262 -2.7035 -1.8266 -0.9968
  963MOL0     H29964   9.368   0.189   0.426  0.4961 -2.6061 -1.9982
  963MOL0     H29965   9.245   0.609   0.358  0.8093  4.1491  1.6488
  963MOL0     H29966   9.428   0.780   0.262  1.6389  0.2158 -2.5591
  963MOL0     H29967   9.609   0.869  -0.128 -2.8016  1.4716  1.4677
  963MOL0     H29968   9.752   1.037  -0.245  0.8384 -1.0473 -1.0867
  963MOL0     H29969   9.900   1.195  -0.348 -0.2529 -0.8152  0.8635
  963MOL0     H29970   9.764   1.276  -0.263 -0.2537 -1.0628  1.7827
  963MOL0     H29971   9.915   1.447  -0.186  3.1910 -2.0504  2.5391
  963MOL0     H29972  10.044   1.396  -0.276 -0.3685 -1.9918 -4.2327
  963MOL0     H29973   9.902   1.385  -0.498  0.1625 -1.5122  1.9473
  963MOL0     H29974   9.773   1.467  -0.413 -0.5395  2.4954  2.5691
  963MOL0     H29975  10.062   1.551  -0.477 -0.8700 -0.0754 -1.1936
  963MOL0     H29976   9.959   1.651  -0.368 -3.3406 -1.3822  1.8266
  963MOL0     H29977   9.806   1.664  -0.577  0.4573  2.7837 -6.6798
  963MOL0     H29978   9.930   1.545  -0.652 -1.7920  0.0471 -0.4774
  963MOL0     H29979   9.978   1.826  -0.552 -3.6792  2.3001 -1.9589
  963MOL0     H29980  10.101   1.728  -0.629 -0.2651 -1.0621 -1.4201
  963MOL0     H29981   9.833   1.813  -0.754  0.9249 -1.9898  0.3089
  963MOL0     H29982   9.985   1.774  -0.848  3.7631  3.1045 -0.0903
  963MOL0     H29983   9.954   2.023  -0.694  1.0373  1.1093  0.4759
  963MOL0     H29984  10.093   1.974  -0.805 -0.6149 -4.0647 -1.3984
  963MOL0     H29985   9.881   1.192   0.118 -0.2914  2.3320 -3.5834
  963MOL0     H29986   9.760   1.015   0.242  0.6253  0.9596  0.1759
  963MOL0     H29987   9.704   0.463   0.251 -0.1623  1.2287 -1.1214
  963MOL0     H29988   9.511   0.294   0.314  0.2666  0.2522  2.0719
  963MOL0     H29989   8.836  -0.074   2.022 -2.1571 -1.4480  1.9424
  963MOL0     H29990   8.731  -0.064   2.238  0.0946  2.8943  2.7249
  963MOL0     H29991   8.849  -0.078   2.686 -0.5835 -0.2335 -1.6438
  963MOL0     H29992   8.790  -0.121   2.937 -1.0950 -1.1604 -0.8239
  963MOL0     H29993   8.730  -0.122   3.145  0.0208  0.5303 -0.9303
  963MOL0     H29994   8.628  -0.244   3.068  1.6973 -1.3405  1.9709
  963MOL0     H29995   8.460  -0.189   3.237 -0.5557  1.5355  4.8467
  963MOL0     H29996   8.558  -0.076   3.323  0.3560  0.4798  0.2700
  963MOL0     H29997   8.741  -0.263   3.355 -0.1674 -2.3077 -1.2312
  963MOL0     H29998   8.622  -0.381   3.291  5.1093 -1.9363  0.4716
  963MOL0     H29999   8.609  -0.212   3.550  1.2694  3.0375 -3.3520
  963MOL0     H30000   8.463  -0.292   3.475  0.2346 -0.0693  1.0574
  963MOL0     H30001   8.665  -0.573   3.702 -3.8077 -1.8167  0.1555
  963MOL0     H30002   8.410   0.059   2.840  0.3480  1.3849 -0.8750
  963MOL0     H30003   8.456   0.115   2.490  0.3111 -1.2289  0.4775
  963MOL0     H30004   8.352   0.089   2.616 -0.9346  1.5092 -2.8040
  963MOL0     H30005   8.455   0.240   2.616 -1.1533 -0.5557  0.5954
  964MOL0     O30006   8.645  10.083   8.183  0.7997  0.7368 -0.1626
  964MOL0     C30007   8.676  10.063   8.303  0.4868  0.1205 -0.2818
  964MOL0     O30008   8.801  10.033   8.351  0.9829 -0.2922 -0.5764
  964MOL0     C30009   8.894  10.050   8.256 -0.6111  0.2400 -0.6082
  964MOL0     C30010   8.920   9.965   8.155 -0.3143 -0.3693  1.0487
  964MOL0     C30011   9.022   9.978   8.065  0.1253 -0.3274 -0.0146
  964MOL0     C30012   9.118  10.075   8.092  0.3479 -0.7455  0.5692
  964MOL0     O30013   9.216  10.106   8.006  0.1499 -0.2069  0.6952
  964MOL0     C30014   9.234  10.025   7.888  0.1491 -0.5838 -0.4602
  964MOL0     C30015   9.349  10.064   7.790  0.0956 -0.6126  0.1079
  964MOL0     C30016   9.313  10.191   7.705 -0.7977  0.5440 -0.6110
  964MOL0     C30017   9.328  10.311   7.807 -0.2016  0.1828 -0.3152
  964MOL0     C30018   9.318  10.445   7.732  0.6174  0.8400  0.0844
  964MOL0     C30019   9.388  10.555   7.811  0.3858 -0.1575  0.6411
  964MOL0     C30020   9.332  10.573   7.949 -0.5060 -0.3429  0.6293
  964MOL0     C30021   9.188  10.593   7.984  0.0595  0.0099  0.0847
  964MOL0     N30022   9.139  10.711   7.915  0.1845  0.2662  0.3754
  964MOL0     C30023   9.134  10.843   7.959  0.3678 -0.4807  0.0136
  964MOL0     C30024   9.053  10.912   7.872  0.2940  0.5976  0.9391
  964MOL0     C30025   8.996  11.057   7.863 -1.6046  0.0424 -0.2246
  964MOL0     C30026   8.931  11.086   8.002 -0.1819 -1.1044  0.6808
  964MOL0     C30027   8.789  11.049   8.007  0.4887  1.1220  0.2657
  964MOL0     C30028   8.762  10.898   8.038  0.0965 -0.1248 -0.5108
  964MOL0     O30029   8.629  10.878   7.996  0.8554 -0.4293  0.6518
  964MOL0     C30030   8.523  10.865   8.081  0.1947  0.8800 -0.4790
  964MOL0     C30031   8.401  10.839   8.029 -0.4212 -0.1445  0.9880
  964MOL0     C30032   8.286  10.823   8.109  1.0206  0.0513 -0.5496
  964MOL0     C30033   8.291  10.851   8.249 -0.4454 -0.2955 -0.2209
  964MOL0     C30034   8.171  10.850   8.323  0.2830  0.5141  1.4834
  964MOL0     O30035   8.181  10.834   8.456 -0.1228 -0.1949  0.0246
  964MOL0     C30036   8.074  10.856   8.523  0.2626  0.8298  0.4511
  964MOL0     C30037   8.001  10.751   8.574  0.7022 -0.1968 -0.1819
  964MOL0     C30038   7.878  10.775   8.640 -0.2273  0.2003  0.4607
  964MOL0     C30039   7.820  10.896   8.650  0.5181  0.3399  0.4892
  964MOL0     O30040   7.705  10.920   8.713  0.0713 -0.0934 -0.1422
  964MOL0     C30041   7.639  10.810   8.792 -0.3378  0.1408 -0.2384
  964MOL0     C30042   7.525  10.864   8.880 -0.3493  0.0837 -0.4586
  964MOL0     C30043   7.552  10.980   8.976 -0.0764 -0.0924 -0.3932
  964MOL0     C30044   7.561  11.116   8.919  0.2614 -1.0558  0.9289
  964MOL0     C30045   7.645  11.209   9.008 -0.1651  1.0990 -0.4356
  964MOL0     C30046   7.567  11.245   9.133  0.5213  0.2238 -1.0582
  964MOL0     C30047   7.659  11.291   9.251 -0.0239  0.2507  0.2490
  964MOL0     C30048   7.571  11.361   9.352  0.0993  0.7325 -0.4651
  964MOL0    Cl30049   7.546  11.525   9.293  0.1703  0.1081 -0.2743
  964MOL0     C30050   7.891  11.001   8.588  0.9238  0.1714 -0.5022
  964MOL0     C30051   8.011  10.982   8.523 -0.1381 -0.5700  0.2919
  964MOL0     O30052   8.067  10.836   8.249  0.1077  0.2536  0.7880
  964MOL0     C30053   8.416  10.878   8.301 -0.0399 -0.6690 -0.0967
  964MOL0     C30054   8.534  10.881   8.217 -0.7688 -0.6657  0.2419
  964MOL0     N30055   9.034  10.822   7.762 -0.3706  0.6321  0.3504
  964MOL0     N30056   9.084  10.704   7.795  0.4164  0.7384 -0.7376
  964MOL0     C30057   9.094  10.173   8.191 -0.2959 -0.3347 -1.0755
  964MOL0     C30058   8.979  10.161   8.273 -0.3290  1.4512  0.0834
  964MOL0     C30059   8.567  10.111   8.394  0.1254 -0.0896  0.5494
  964MOL0     C30060   8.519  10.241   8.373 -0.0544  0.0224  0.5877
  964MOL0     C30061   8.446  10.310   8.476  0.5533 -0.0723 -0.5385
  964MOL0     C30062   8.407  10.240   8.586  0.1922 -0.0444 -0.5278
  964MOL0     O30063   8.334  10.316   8.674  0.1467  0.3785  0.1637
  964MOL0     C30064   8.253  10.246   8.770 -0.2552 -0.5228  0.1847
  964MOL0     C30065   8.164  10.345   8.847  0.5908 -1.0194 -0.0875
  964MOL0     C30066   8.079  10.282   8.963  0.2113 -0.2989 -0.1143
  964MOL0     C30067   7.952  10.201   8.915 -0.2703 -0.5862 -0.5861
  964MOL0     C30068   7.917  10.091   9.008  0.8032  0.3795 -0.0463
  964MOL0     C30069   7.871  10.032   9.111 -0.2228 -0.4406 -0.2001
  964MOL0     C30070   8.451  10.113   8.612  0.5018  0.0616  1.0244
  964MOL0     C30071   8.532  10.049   8.518  0.1141 -0.5552 -0.5639
  964MOL0     C30072   8.577   9.913   8.548  0.8153 -1.0410 -0.0688
  964MOL0     H30073   8.863   9.873   8.143  1.3926 -1.3358 -0.1053
  964MOL0     H30074   9.023   9.897   7.993  1.5453 -2.9160  2.7007
  964MOL0     H30075   9.247   9.919   7.911  2.2007 -1.1404 -3.4854
  964MOL0     H30076   9.145  10.036   7.825 -1.2489 -0.5724  1.4399
  964MOL0     H30077   9.364   9.987   7.715 -0.7839 -0.4855 -0.1960
  964MOL0     H30078   9.443  10.067   7.848 -0.1007 -1.8580  0.5060
  964MOL0     H30079   9.219  10.197   7.650 -0.5516 -4.7339 -2.1724
  964MOL0     H30080   9.391  10.187   7.629  1.2031  0.3069  1.3474
  964MOL0     H30081   9.254  10.326   7.886  0.5724 -1.6835  0.8223
  964MOL0     H30082   9.429  10.298   7.846 -1.5416  0.4404  3.6840
  964MOL0     H30083   9.366  10.430   7.635 -0.9299 -1.9802 -0.3530
  964MOL0     H30084   9.210  10.456   7.720  0.4654 -0.2945  0.2405
  964MOL0     H30085   9.490  10.515   7.815  0.8520  1.0596  1.4449
  964MOL0     H30086   9.385  10.649   7.756  1.2014 -1.0578 -1.0084
  964MOL0     H30087   9.390  10.654   7.995  1.8132 -1.8992  0.6646
  964MOL0     H30088   9.359  10.483   8.006  2.0792 -1.0000 -1.3997
  964MOL0     H30089   9.122  10.507   7.967  0.1413 -0.5276  2.2439
  964MOL0     H30090   9.177  10.615   8.090  1.4545  1.4053 -0.0309
  964MOL0     H30091   9.180  10.888   8.045 -3.2532  0.0345  1.8936
  964MOL0     H30092   9.075  11.131   7.847 -1.5058 -0.0036  0.0469
  964MOL0     H30093   8.938  11.074   7.772 -0.9545  0.6667 -0.5289
  964MOL0     H30094   8.996  11.031   8.071  2.4989  0.0437 -0.7798
  964MOL0     H30095   8.945  11.189   8.035  1.3952 -0.9406 -0.3890
  964MOL0     H30096   8.750  11.055   7.905 -1.7058 -2.6330  0.6764
  964MOL0     H30097   8.733  11.120   8.069 -0.6401  1.3787 -1.0126
  964MOL0     H30098   8.793  10.868   8.139  0.3137 -0.1838 -0.5941
  964MOL0     H30099   8.828  10.832   7.980  0.1633  1.2678 -2.0805
  964MOL0     H30100   8.404  10.817   7.922  0.5227  1.1802  0.7261
  964MOL0     H30101   8.188  10.805   8.066 -0.5967 -3.2000  3.7132
  964MOL0     H30102   8.041  10.650   8.577 -0.5476 -0.7305 -0.4707
  964MOL0     H30103   7.830  10.682   8.672 -0.8909 -0.2400 -1.6327
  964MOL0     H30104   7.598  10.732   8.726 -0.9684 -0.2591  0.6108
  964MOL0     H30105   7.709  10.761   8.861 -0.5659  1.6848  1.1414
  964MOL0     H30106   7.454  10.911   8.811 -0.4087 -0.6131 -0.8731
  964MOL0     H30107   7.472  10.780   8.925 -2.0780  0.8608 -0.9873
  964MOL0     H30108   7.495  10.983   9.069  2.2484  1.6020  1.0975
  964MOL0     H30109   7.650  10.949   9.014  0.8464 -0.2384 -2.7450
  964MOL0     H30110   7.460  11.157   8.922  0.5120 -0.4030  0.7804
  964MOL0     H30111   7.600  11.103   8.818 -1.5341 -1.3266  0.2392
  964MOL0     H30112   7.673  11.298   8.951  0.6264  1.0336 -0.1560
  964MOL0     H30113   7.739  11.167   9.044 -0.2188  0.2684 -1.2169
  964MOL0     H30114   7.506  11.332   9.107 -0.5280  0.3067  1.3768
  964MOL0     H30115   7.501  11.166   9.171 -1.0311  1.5375 -0.9028
  964MOL0     H30116   7.733  11.362   9.213 -0.5597  1.1705  0.8928
  964MOL0     H30117   7.713  11.207   9.295 -1.3412 -0.0491  1.3575
  964MOL0     H30118   7.476  11.310   9.372 -0.0675  0.9169 -0.7774
  964MOL0     H30119   7.632  11.353   9.442  1.1733 -2.0424 -1.3588
  964MOL0     H30120   7.865  11.106   8.601  2.3808  0.4215  0.6903
  964MOL0     H30121   8.056  11.067   8.473 -0.3650  1.3807  3.1675
  964MOL0     H30122   8.442  10.888   8.406  0.9267 -3.6842  0.0375
  964MOL0     H30123   8.636  10.904   8.245  1.4780 -5.1291 -2.9804
  964MOL0     H30124   9.153  10.261   8.213 -2.3902  0.6916  0.9060
  964MOL0     H30125   8.939  10.226   8.350 -3.5932 -0.5596  0.3066
  964MOL0     H30126   8.538  10.304   8.286 -1.4461  0.3581  0.5107
  964MOL0     H30127   8.415  10.413   8.464  0.5749 -0.0058 -0.0501
  964MOL0     H30128   8.319  10.214   8.851  0.0072 -1.1899 -0.2930
  964MOL0     H30129   8.187  10.164   8.740 -1.6707 -0.7086  3.3846
  964MOL0     H30130   8.100  10.403   8.780  1.9285 -0.2137 -0.7187
  964MOL0     H30131   8.233  10.423   8.881 -2.9273  2.7353 -0.7095
  964MOL0     H30132   8.049  10.369   9.022 -0.0660  1.2929 -2.4481
  964MOL0     H30133   8.145  10.223   9.026 -1.8706 -2.7845 -0.1007
  964MOL0     H30134   7.867  10.269   8.919 -2.2590 -2.7985  5.1350
  964MOL0     H30135   7.975  10.162   8.816  0.7200  0.0414 -0.6167
  964MOL0     H30136   7.843   9.985   9.203  4.8745 -2.7208  0.4994
  964MOL0     H30137   8.425  10.065   8.705  0.1743  0.7095  1.2724
  964MOL0     H30138   8.492   9.874   8.606 -0.9295  1.8645 -0.4929
  964MOL0     H30139   8.590   9.855   8.456 -1.6181 -3.7096  1.0922
  964MOL0     H30140   8.666   9.916   8.612 -0.4291  0.5098  1.7182
  965MOL0     O30141   0.338   8.642   3.358 -0.7295 -0.0529 -0.7128
  965MOL0     C30142   0.309   8.547   3.437  0.7099  0.4369 -0.1310
  965MOL0     O30143   0.292   8.413   3.399  0.0277 -0.0136  0.1333
  965MOL0     C30144   0.313   8.376   3.272 -0.1040  1.2708  0.3118
  965MOL0     C30145   0.436   8.310   3.235  0.5401  0.2357  0.8680
  965MOL0     C30146   0.458   8.275   3.099  0.5866 -0.0641  0.4394
  965MOL0     C30147   0.359   8.324   3.009  1.5714 -0.5330  0.2416
  965MOL0     O30148   0.387   8.286   2.878 -0.3003 -0.2149  0.0988
  965MOL0     C30149   0.280   8.245   2.792  0.6332  0.9644  1.3326
  965MOL0     C30150   0.271   8.092   2.821 -0.7271  0.5259  0.2768
  965MOL0     C30151   0.205   8.023   2.701 -0.0302  0.3263  1.8314
  965MOL0     C30152   0.207   7.870   2.731  0.0529  0.0539 -0.1829
  965MOL0     C30153   0.096   7.793   2.648 -0.0847 -0.1756  0.3956
  965MOL0     C30154   0.139   7.756   2.504 -0.1552  0.0288 -0.4358
  965MOL0     C30155   0.214   7.623   2.508  1.1344  0.0933 -0.6243
  965MOL0     C30156   0.298   7.601   2.378  0.4393 -0.1702  1.0577
  965MOL0     N30157   0.402   7.706   2.347  0.1700  0.2941 -0.2319
  965MOL0     C30158   0.520   7.711   2.409  0.5907 -0.2089  0.1869
  965MOL0     C30159   0.582   7.820   2.358 -0.3586 -0.1699 -1.1568
  965MOL0     C30160   0.730   7.846   2.387 -0.1397  0.1561  0.3176
  965MOL0     C30161   0.836   7.745   2.337 -0.2202 -0.4735  0.8738
  965MOL0     C30162   0.916   7.680   2.461 -0.0888  0.8847  0.3524
  965MOL0     C30163   0.848   7.562   2.526 -1.0002 -0.5024 -0.3831
  965MOL0     O30164   0.836   7.465   2.420  0.1522 -0.3742 -0.4186
  965MOL0     C30165   0.837   7.334   2.464  0.2567  0.0790 -0.1289
  965MOL0     C30166   0.790   7.294   2.591 -0.1132 -0.6076  0.4077
  965MOL0     C30167   0.791   7.161   2.633  0.1337 -0.3511  0.7872
  965MOL0     C30168   0.842   7.057   2.541  0.4309  0.2991 -0.3956
  965MOL0     C30169   0.850   6.918   2.591 -0.5716  0.0571  1.1281
  965MOL0     O30170   0.894   6.825   2.501 -0.3931 -0.4823 -0.4838
  965MOL0     C30171   0.854   6.693   2.517  0.3801 -1.3653  0.1741
  965MOL0     C30172   0.750   6.640   2.590  0.3963  0.1864 -0.1477
  965MOL0     C30173   0.718   6.509   2.561 -0.2859  0.4965 -0.0311
  965MOL0     C30174   0.787   6.430   2.461  0.6865  0.3656 -0.3066
  965MOL0     O30175   0.744   6.306   2.422 -0.2939 -0.7425  0.3158
  965MOL0     C30176   0.616   6.242   2.462 -1.0849 -0.9651 -0.7856
  965MOL0     C30177   0.673   6.118   2.536 -0.9719  0.6451 -0.7540
  965MOL0     C30178   0.588   6.070   2.654 -0.0901  0.1975  0.5249
  965MOL0     C30179   0.591   5.918   2.686 -0.5897  0.3599 -0.6137
  965MOL0     C30180   0.731   5.845   2.675 -0.3333  0.2961 -0.4057
  965MOL0     C30181   0.718   5.698   2.701  0.3743  0.3783 -0.0114
  965MOL0     C30182   0.678   5.655   2.844 -0.2534 -0.4698 -1.0005
  965MOL0     C30183   0.635   5.511   2.867  0.8573  0.2390 -0.5139
  965MOL0    Cl30184   0.783   5.410   2.857 -0.3829  0.4058 -0.5700
  965MOL0     C30185   0.894   6.486   2.390 -0.3407  0.6692 -0.0483
  965MOL0     C30186   0.925   6.615   2.425  0.4843  0.6058  0.9640
  965MOL0     O30187   0.840   6.899   2.716  0.2568  0.0924  0.4325
  965MOL0     C30188   0.888   7.104   2.414  0.3580  0.7182  0.7365
  965MOL0     C30189   0.878   7.239   2.376 -1.4641 -0.5675 -0.5121
  965MOL0     N30190   0.499   7.882   2.268  0.7542 -0.4633 -0.4702
  965MOL0     N30191   0.390   7.815   2.265  1.1441  0.8032 -0.1026
  965MOL0     C30192   0.245   8.403   3.046  0.2737  1.0617 -0.3561
  965MOL0     C30193   0.226   8.426   3.179  0.2123 -0.3524 -0.7397
  965MOL0     C30194   0.269   8.574   3.585  0.6274 -0.1304 -0.7453
  965MOL0     C30195   0.358   8.640   3.674  0.3463  0.0692 -0.3696
  965MOL0     C30196   0.322   8.667   3.808  0.9844 -0.7828 -0.7478
  965MOL0     C30197   0.194   8.631   3.858 -0.6740  0.4384 -0.2634
  965MOL0     O30198   0.156   8.658   3.988 -1.6046 -0.3282  0.0593
  965MOL0     C30199   0.254   8.599   4.084 -0.1702  0.8489  0.0891
  965MOL0     C30200   0.269   8.671   4.213  0.8888  0.7057 -0.0538
  965MOL0     C30201   0.128   8.676   4.275 -1.2214  0.1772  0.3310
  965MOL0     C30202   0.133   8.758   4.408  0.9324  0.5542  0.6394
  965MOL0     C30203   0.163   8.903   4.390 -0.7311  0.2916 -0.0596
  965MOL0     C30204   0.192   9.019   4.370 -0.1419 -0.4666 -0.6907
  965MOL0     C30205   0.103   8.579   3.769  0.1040  0.2777  0.4664
  965MOL0     C30206   0.136   8.546   3.640 -0.2135  0.4793 -0.3494
  965MOL0     C30207   0.033   8.481   3.561  0.3848  0.4447 -1.0776
  965MOL0     H30208   0.510   8.277   3.307  1.5923 -2.5240 -1.2930
  965MOL0     H30209   0.545   8.219   3.065  0.0861  0.1826 -1.3068
  965MOL0     H30210   0.186   8.302   2.793  0.0521  1.0281 -5.5751
  965MOL0     H30211   0.310   8.251   2.687  1.0961 -0.4982  1.3518
  965MOL0     H30212   0.209   8.076   2.910 -0.3424 -1.3905  0.2335
  965MOL0     H30213   0.372   8.058   2.842 -0.6577 -1.0824 -2.2373
  965MOL0     H30214   0.255   8.043   2.606  0.4192 -3.6835  1.0603
  965MOL0     H30215   0.099   8.051   2.708  0.2636  1.4206  2.1645
  965MOL0     H30216   0.299   7.825   2.694 -0.9596 -0.5880 -2.0397
  965MOL0     H30217   0.208   7.843   2.837 -2.2437 -0.7333 -0.2956
  965MOL0     H30218   0.076   7.701   2.704  3.0364  0.0229  2.0822
  965MOL0     H30219   0.005   7.853   2.653 -1.0909 -1.5106 -1.0610
  965MOL0     H30220   0.043   7.742   2.453 -0.9526  2.4291  0.2927
  965MOL0     H30221   0.198   7.833   2.453  3.2055 -2.8584 -1.2743
  965MOL0     H30222   0.130   7.552   2.511  0.7213  0.0832 -5.2239
  965MOL0     H30223   0.262   7.609   2.605  1.7970  0.9731 -0.8204
  965MOL0     H30224   0.343   7.501   2.378  0.2215 -0.2711  0.6302
  965MOL0     H30225   0.224   7.612   2.299 -0.5477  1.0016  2.1019
  965MOL0     H30226   0.566   7.633   2.469 -0.6061 -2.6959 -1.9510
  965MOL0     H30227   0.754   7.949   2.358 -1.1707  1.3751  3.4253
  965MOL0     H30228   0.737   7.865   2.494 -2.9310  3.9770  0.0224
  965MOL0     H30229   0.797   7.667   2.271 -1.2917  2.0094 -1.6817
  965MOL0     H30230   0.911   7.804   2.284  1.3016 -1.2017  2.1538
  965MOL0     H30231   0.937   7.756   2.536 -0.3595  3.5697 -2.1208
  965MOL0     H30232   1.014   7.643   2.429 -0.4615 -1.5615  1.7937
  965MOL0     H30233   0.751   7.575   2.574  0.6061 -0.0077  3.1010
  965MOL0     H30234   0.923   7.530   2.600  1.0770  3.0266 -0.7399
  965MOL0     H30235   0.744   7.374   2.648 -3.3267  1.4162 -4.4087
  965MOL0     H30236   0.755   7.142   2.733  0.4308 -3.6155  0.4047
  965MOL0     H30237   0.706   6.694   2.673 -1.4132 -0.5693 -0.5663
  965MOL0     H30238   0.650   6.458   2.629  0.9158 -1.4051 -0.1849
  965MOL0     H30239   0.554   6.296   2.533 -0.4731 -1.2025 -0.0556
  965MOL0     H30240   0.560   6.199   2.378  0.0474 -3.5423 -0.3319
  965MOL0     H30241   0.698   6.033   2.472 -2.7666 -1.0701  0.6846
  965MOL0     H30242   0.767   6.141   2.587 -0.8306  0.1534 -0.7843
  965MOL0     H30243   0.613   6.120   2.748 -0.6914  2.5557 -0.4856
  965MOL0     H30244   0.485   6.103   2.637 -0.2406  2.0884  4.1917
  965MOL0     H30245   0.533   5.871   2.606 -1.1794 -0.6907  0.4027
  965MOL0     H30246   0.557   5.912   2.790  1.6014  1.5334  0.2334
  965MOL0     H30247   0.810   5.882   2.741 -1.2050 -3.1863  3.0045
  965MOL0     H30248   0.780   5.869   2.581 -0.3824 -0.7512 -0.7135
  965MOL0     H30249   0.641   5.661   2.632  0.4983 -0.4397  0.2811
  965MOL0     H30250   0.809   5.648   2.668 -0.0934  0.3733 -1.3571
  965MOL0     H30251   0.604   5.722   2.888  0.3291  0.4610 -1.4051
  965MOL0     H30252   0.760   5.671   2.915 -0.5610 -0.9443 -0.5225
  965MOL0     H30253   0.601   5.508   2.971  1.0906  2.9560 -0.2896
  965MOL0     H30254   0.548   5.485   2.806 -3.3361  3.8208  3.2177
  965MOL0     H30255   0.951   6.430   2.316 -0.8623 -0.2448  0.2298
  965MOL0     H30256   1.005   6.662   2.367  0.0312  2.1758  1.5525
  965MOL0     H30257   0.925   7.035   2.339  1.4362  1.7715  0.2731
  965MOL0     H30258   0.901   7.263   2.273  1.4905  0.1537  0.2153
  965MOL0     H30259   0.191   8.455   2.967  0.5049  0.4668 -0.9167
  965MOL0     H30260   0.138   8.487   3.201  1.9247  1.3187  2.0942
  965MOL0     H30261   0.453   8.682   3.643 -0.4863  4.3925  2.0949
  965MOL0     H30262   0.392   8.724   3.868  0.3743 -1.6815  0.8795
  965MOL0     H30263   0.357   8.608   4.050 -0.5325  0.1436 -1.2747
  965MOL0     H30264   0.241   8.492   4.101  1.7167  0.3808 -1.1554
  965MOL0     H30265   0.310   8.771   4.197 -0.5559  1.8014  2.4147
  965MOL0     H30266   0.340   8.616   4.276 -0.4669  1.5088  2.3302
  965MOL0     H30267   0.089   8.577   4.299 -1.2442  0.2262  0.4935
  965MOL0     H30268   0.063   8.728   4.204  2.5574  2.3043 -1.8831
  965MOL0     H30269   0.039   8.760   4.464  0.2549  2.5499 -0.4659
  965MOL0     H30270   0.192   8.709   4.486 -0.9498 -0.2446  1.6251
  965MOL0     H30271   0.225   9.119   4.350 -1.0181 -0.1595 -0.6505
  965MOL0     H30272  -0.001   8.561   3.794  0.1092 -0.5873 -0.0676
  965MOL0     H30273  -0.066   8.519   3.588  0.7851  0.5742  0.2884
  965MOL0     H30274   0.041   8.500   3.454 -0.2196  1.8769 -0.8887
  965MOL0     H30275   0.026   8.372   3.574 -0.7439  0.3922 -1.9483
  966MOL0     O30276   2.528  10.142  10.180  0.6369 -0.9812  0.6977
  966MOL0     C30277   2.600  10.219  10.118 -0.2556 -0.1970 -0.2066
  966MOL0     O30278   2.691  10.310  10.183 -0.0440  1.3722  0.0711
  966MOL0     C30279   2.728  10.317  10.316  0.4410  0.5138  0.2465
  966MOL0     C30280   2.782  10.438  10.342  0.0606 -1.0551  0.7117
  966MOL0     C30281   2.841  10.477  10.465 -0.3898 -0.1933 -0.6539
  966MOL0     C30282   2.865  10.371  10.560 -0.7178  0.1921 -0.2124
  966MOL0     O30283   2.913  10.380  10.686  0.3140 -0.4647  0.2599
  966MOL0     C30284   2.952  10.510  10.737 -0.2127 -0.6212 -0.4918
  966MOL0     C30285   3.100  10.535  10.695 -0.0614 -0.1946  0.7952
  966MOL0     C30286   3.203  10.484  10.799  0.0694 -1.0013  0.0039
  966MOL0     C30287   3.352  10.498  10.770 -0.2707  0.5957 -0.1549
  966MOL0     C30288   3.431  10.483  10.902  0.6846  0.7519  0.2115
  966MOL0     C30289   3.562  10.560  10.898  0.1068 -0.2369  0.2711
  966MOL0     C30290   3.639  10.543  11.028 -0.7054  0.0438 -0.3415
  966MOL0     C30291   3.791  10.576  11.014  0.6270 -0.9831 -1.1396
  966MOL0     N30292   3.832  10.688  11.101  0.2732  0.4898 -1.1606
  966MOL0     C30293   3.952  10.713  11.157  0.5419 -0.1468 -0.3442
  966MOL0     C30294   3.960  10.849  11.163  0.1009  0.2150  0.4107
  966MOL0     C30295   4.078  10.935  11.202  0.1280 -0.1146  0.3922
  966MOL0     C30296   4.192  10.918  11.101  0.3159  0.6378 -0.1480
  966MOL0     C30297   4.255  11.048  11.038  0.2496  0.7284 -0.3887
  966MOL0     C30298   4.324  11.130  11.134 -0.4832 -0.0366 -0.2173
  966MOL0     O30299   4.383  11.247  11.075  0.4160  0.5385  0.2814
  966MOL0     C30300   4.431  11.339  11.165 -1.0677  0.1897  1.0938
  966MOL0     C30301   4.518  11.427  11.098 -0.2507  1.1599 -0.1496
  966MOL0     C30302   4.572  11.536  11.166  0.8725  0.0933 -0.2249
  966MOL0     C30303   4.544  11.558  11.302 -0.8730  0.5290 -0.5345
  966MOL0     C30304   4.614  11.660  11.381 -0.2972 -0.8276 -0.2793
  966MOL0     O30305   4.681  11.762  11.312 -0.2307  0.1538  0.4323
  966MOL0     C30306   4.686  11.877  11.383  0.0683  0.6236  0.4318
  966MOL0     C30307   4.585  11.962  11.351 -0.2121 -0.2630 -1.2204
  966MOL0     C30308   4.583  12.087  11.403  0.3665 -0.3578 -0.3154
  966MOL0     C30309   4.686  12.134  11.487 -0.3972 -0.3123 -0.0577
  966MOL0     O30310   4.656  12.251  11.545  0.0723 -0.4233  0.0867
  966MOL0     C30311   4.754  12.310  11.634  0.7426  0.0030 -0.1851
  966MOL0     C30312   4.721  12.255  11.778  0.3025 -0.0049 -0.4093
  966MOL0     C30313   4.623  12.348  11.853  0.1920  0.5499 -0.0019
  966MOL0     C30314   4.490  12.271  11.873  0.3762 -0.1291  0.4214
  966MOL0     C30315   4.397  12.349  11.964 -0.0010 -0.7243 -0.3615
  966MOL0     C30316   4.283  12.267  12.018  0.5687 -0.3345 -0.5826
  966MOL0     C30317   4.227  12.333  12.151  0.4109 -0.2517 -0.2050
  966MOL0     C30318   4.164  12.471  12.117 -0.0695  0.1610  0.3638
  966MOL0    Cl30319   4.092  12.538  12.262  0.2418  0.1053  0.1174
  966MOL0     C30320   4.792  12.049  11.522  0.0151  0.3987  0.6112
  966MOL0     C30321   4.791  11.918  11.466 -0.0899  0.9901 -0.8551
  966MOL0     O30322   4.591  11.667  11.504 -0.6510 -0.5623 -0.2667
  966MOL0     C30323   4.466  11.466  11.368 -0.3860  0.4725 -0.2897
  966MOL0     C30324   4.412  11.357  11.298 -0.3741  0.3728 -1.4621
  966MOL0     N30325   3.832  10.895  11.142  0.8414 -0.0247  0.2946
  966MOL0     N30326   3.750  10.804  11.112 -0.0717  0.3085  0.2233
  966MOL0     C30327   2.802  10.242  10.533 -0.0498  0.3389 -0.6430
  966MOL0     C30328   2.734  10.212  10.415  0.0539  0.6303 -0.5323
  966MOL0     C30329   2.585  10.233   9.974 -0.4563 -0.4195 -1.5946
  966MOL0     C30330   2.683  10.318   9.915  0.2597  0.6380  1.1171
  966MOL0     C30331   2.685  10.348   9.776  0.2127  0.6025  0.4361
  966MOL0     C30332   2.585  10.298   9.689 -0.0924 -0.5877  0.5047
  966MOL0     O30333   2.589  10.338   9.552 -0.0537  0.7349 -0.2174
  966MOL0     C30334   2.518  10.268   9.445 -0.0155 -0.9224 -0.0530
  966MOL0     C30335   2.551  10.126   9.410 -0.6668  0.5039  1.0555
  966MOL0     C30336   2.702  10.113   9.365 -0.4123  0.1913 -0.3147
  966MOL0     C30337   2.742   9.972   9.318 -0.1244  0.4310  0.1701
  966MOL0     C30338   2.673   9.862   9.386  0.6900 -0.2425 -0.2683
  966MOL0     C30339   2.643   9.765   9.443 -0.0915 -0.1721 -0.3766
  966MOL0     C30340   2.479  10.230   9.746 -0.6070  0.0833  0.3303
  966MOL0     C30341   2.479  10.187   9.885  0.7972  0.7529  0.0601
  966MOL0     C30342   2.393  10.074   9.932  0.6033  0.3453 -0.6908
  966MOL0     H30343   2.757  10.522  10.279  4.0506  0.7924  1.2916
  966MOL0     H30344   2.877  10.578  10.485  0.2014 -0.2990 -1.1823
  966MOL0     H30345   2.887  10.590  10.700  2.0228  1.6966  0.3498
  966MOL0     H30346   2.939  10.511  10.846  2.6507 -1.6984 -0.0545
  966MOL0     H30347   3.114  10.643  10.684 -3.3566  0.3385  0.8584
  966MOL0     H30348   3.124  10.491  10.597 -0.9047  2.0406 -0.4828
  966MOL0     H30349   3.184  10.379  10.823  1.5437 -0.8926  1.8840
  966MOL0     H30350   3.179  10.542  10.887  2.5144 -0.5564  0.4489
  966MOL0     H30351   3.392  10.422  10.702  1.2710  2.0060 -0.8959
  966MOL0     H30352   3.372  10.594  10.723 -1.4767  0.7584 -0.3557
  966MOL0     H30353   3.379  10.515  10.993  1.8836  0.4653  1.0197
  966MOL0     H30354   3.454  10.376  10.900 -1.7881  0.0275 -4.5357
  966MOL0     H30355   3.627  10.513  10.823  1.3740 -1.6420  2.1651
  966MOL0     H30356   3.555  10.667  10.874  1.6330  0.6056  3.1926
  966MOL0     H30357   3.642  10.435  11.045  0.5982 -0.1585 -1.6759
  966MOL0     H30358   3.582  10.605  11.098 -0.3613  0.5195 -0.4793
  966MOL0     H30359   3.844  10.487  11.049  1.7902 -0.3917 -1.3446
  966MOL0     H30360   3.824  10.585  10.911  3.1839 -2.6973 -0.5736
  966MOL0     H30361   4.030  10.643  11.184  0.2216 -1.6039 -2.8742
  966MOL0     H30362   4.032  11.033  11.217 -3.0556 -1.4963  0.4843
  966MOL0     H30363   4.113  10.909  11.302  1.0741 -0.1984  0.0555
  966MOL0     H30364   4.279  10.865  11.140  0.9400  2.6774  1.4449
  966MOL0     H30365   4.151  10.861  11.018  2.1684 -0.3752 -0.3975
  966MOL0     H30366   4.175  11.109  10.995  0.0733  2.1227  1.7552
  966MOL0     H30367   4.321  11.014  10.958 -0.1497 -0.4890 -0.2195
  966MOL0     H30368   4.402  11.067  11.177 -0.4036 -0.5212 -1.0409
  966MOL0     H30369   4.264  11.164  11.219 -1.5203 -3.2209  0.4943
  966MOL0     H30370   4.527  11.400  10.993 -5.5742 -0.7526 -0.4461
  966MOL0     H30371   4.634  11.604  11.109 -1.5968  2.0212 -0.7287
  966MOL0     H30372   4.519  11.930  11.272  1.1859 -4.1449 -1.0397
  966MOL0     H30373   4.505  12.154  11.367 -3.3522 -5.0947 -2.1888
  966MOL0     H30374   4.855  12.282  11.603  0.4659 -0.1524 -0.9692
  966MOL0     H30375   4.749  12.420  11.641  0.7099 -0.0615  1.2658
  966MOL0     H30376   4.682  12.153  11.775 -3.0997  0.8846  3.8451
  966MOL0     H30377   4.811  12.260  11.840  0.6755  1.1480 -1.0092
  966MOL0     H30378   4.659  12.363  11.955  1.3488 -0.4774 -0.2360
  966MOL0     H30379   4.603  12.441  11.800 -0.3212 -0.9217 -2.5655
  966MOL0     H30380   4.514  12.180  11.928  4.0839 -0.2062 -1.0576
  966MOL0     H30381   4.445  12.246  11.777 -0.2071  0.0297  0.6510
  966MOL0     H30382   4.352  12.435  11.913  0.3569  0.3743  1.1109
  966MOL0     H30383   4.450  12.397  12.047  0.2683  1.6299 -1.7894
  966MOL0     H30384   4.201  12.247  11.948 -1.0677  0.9216  0.8910
  966MOL0     H30385   4.327  12.174  12.055  1.1458  0.1315 -0.0750
  966MOL0     H30386   4.309  12.346  12.222  1.3745  4.3783 -1.8302
  966MOL0     H30387   4.137  12.282  12.187 -1.6276  4.0956  1.6734
  966MOL0     H30388   4.237  12.537  12.069 -2.9763  1.1872 -3.0987
  966MOL0     H30389   4.074  12.465  12.055  1.5177  4.9481 -2.9203
  966MOL0     H30390   4.871  12.067  11.594 -0.7906  0.6728  1.4524
  966MOL0     H30391   4.878  11.856  11.486 -0.5943 -0.0311 -1.7236
  966MOL0     H30392   4.451  11.478  11.475 -1.0957  2.8028 -0.5898
  966MOL0     H30393   4.348  11.294  11.359  3.4442 -0.5509  1.9905
  966MOL0     H30394   2.808  10.159  10.603  2.3741 -0.1453 -1.3606
  966MOL0     H30395   2.699  10.109  10.407 -2.3007  1.3262  0.1691
  966MOL0     H30396   2.769  10.346   9.975  1.0209  0.4769  0.1217
  966MOL0     H30397   2.766  10.409   9.737 -1.0419  3.4947  2.1002
  966MOL0     H30398   2.539  10.328   9.356 -0.2778 -2.5556 -1.2721
  966MOL0     H30399   2.411  10.276   9.468  0.2879  3.4440  0.7114
  966MOL0     H30400   2.491  10.092   9.325  3.3250 -1.5327 -1.2478
  966MOL0     H30401   2.534  10.055   9.492 -0.6876 -0.7943 -0.0243
  966MOL0     H30402   2.764  10.129   9.454 -1.2351 -0.3696  0.3877
  966MOL0     H30403   2.733  10.184   9.289 -0.9348  2.1218  1.1746
  966MOL0     H30404   2.716   9.970   9.212 -1.4307 -6.6352  0.2000
  966MOL0     H30405   2.849   9.948   9.324 -0.4134 -1.9094 -2.2806
  966MOL0     H30406   2.625   9.678   9.504  0.8928 -1.1797 -1.4861
  966MOL0     H30407   2.392  10.192   9.693 -0.5697 -0.0434  0.3604
  966MOL0     H30408   2.311  10.060   9.861  1.1675  0.6770 -1.4255
  966MOL0     H30409   2.449   9.980   9.922 -0.9502 -0.8560  1.2162
  966MOL0     H30410   2.347  10.087  10.030  0.0079  0.5507 -0.9912
  967MOL0     O30411   2.268   0.821   7.873 -0.9850  0.0682 -0.4155
  967MOL0     C30412   2.215   0.848   7.982  0.0195 -0.0506 -0.5371
  967MOL0     O30413   2.193   0.973   8.037 -0.5867  0.7282  0.0493
  967MOL0     C30414   2.232   1.079   7.967  0.2147 -1.0476 -0.9971
  967MOL0     C30415   2.363   1.115   7.968 -0.0226  0.0732  0.6054
  967MOL0     C30416   2.411   1.230   7.903 -0.6647 -0.4473  0.5456
  967MOL0     C30417   2.331   1.321   7.845 -0.5692  0.9080  0.7703
  967MOL0     O30418   2.366   1.432   7.773 -0.0414  0.2326  0.8738
  967MOL0     C30419   2.390   1.415   7.633  0.7889  0.2404 -0.3223
  967MOL0     C30420   2.534   1.392   7.614  0.3591 -0.1036  0.4189
  967MOL0     C30421   2.613   1.513   7.630 -0.3615 -0.1154  0.1191
  967MOL0     C30422   2.734   1.524   7.528  0.0135  0.3694 -0.6439
  967MOL0     C30423   2.692   1.562   7.383 -0.3815  0.0316  0.1793
  967MOL0     C30424   2.799   1.563   7.270 -0.0872  1.0256 -0.0370
  967MOL0     C30425   2.749   1.543   7.129 -0.1615 -0.6942  0.8035
  967MOL0     C30426   2.715   1.405   7.096 -0.3348  1.1962  1.1865
  967MOL0     N30427   2.667   1.417   6.956 -0.4292 -0.3698 -0.8073
  967MOL0     C30428   2.550   1.479   6.916 -0.1261 -1.0486  0.0652
  967MOL0     C30429   2.514   1.438   6.797 -0.0226  0.8195 -0.3313
  967MOL0     C30430   2.381   1.466   6.733  0.1008 -0.0947  1.0414
  967MOL0     C30431   2.310   1.343   6.682 -1.1769 -0.4049  0.1506
  967MOL0     C30432   2.184   1.382   6.605  0.1010  0.4457 -0.4936
  967MOL0     C30433   2.060   1.322   6.669 -0.4954 -1.1214 -0.6035
  967MOL0     O30434   1.950   1.361   6.597  0.6853  0.0238 -0.6508
  967MOL0     C30435   1.886   1.483   6.632  0.9920  0.7197  0.8864
  967MOL0     C30436   1.928   1.580   6.728 -0.1266  0.2236  0.6313
  967MOL0     C30437   1.861   1.703   6.746  0.2373  1.3796 -0.7851
  967MOL0     C30438   1.753   1.730   6.656  0.0912  0.5410  0.5611
  967MOL0     C30439   1.665   1.855   6.679 -0.0506 -0.6511  0.0710
  967MOL0     O30440   1.717   1.955   6.766 -0.5720  0.7812  0.5319
  967MOL0     C30441   1.647   2.063   6.793  0.3844  0.0720  0.3179
  967MOL0     C30442   1.587   2.143   6.691 -0.2300  0.3131 -0.2330
  967MOL0     C30443   1.505   2.251   6.728  0.4013 -0.7491 -0.1208
  967MOL0     C30444   1.502   2.296   6.861 -0.3991  0.1682  0.1791
  967MOL0     O30445   1.445   2.420   6.901  0.3292  0.1882 -0.1277
  967MOL0     C30446   1.360   2.490   6.803  0.4680  0.2568 -1.0444
  967MOL0     C30447   1.298   2.612   6.869 -0.0806  0.1063 -1.3676
  967MOL0     C30448   1.183   2.685   6.785  0.0918 -0.6113 -0.4358
  967MOL0     C30449   1.079   2.760   6.879  0.7177  0.6867  1.0025
  967MOL0     C30450   0.962   2.835   6.818  0.3721 -0.0575  0.5267
  967MOL0     C30451   1.005   2.945   6.727  0.8142 -0.1964 -0.6576
  967MOL0     C30452   1.077   3.059   6.793  0.2779 -0.1404 -0.7797
  967MOL0     C30453   0.974   3.127   6.899 -0.2791  0.4103  0.4036
  967MOL0    Cl30454   0.815   3.164   6.840 -0.1182  0.1340  0.1841
  967MOL0     C30455   1.576   2.230   6.958  0.5605 -0.2669  0.3802
  967MOL0     C30456   1.646   2.112   6.927  0.6585  0.3567  0.0313
  967MOL0     O30457   1.568   1.863   6.610  0.9789 -0.3709 -0.1064
  967MOL0     C30458   1.706   1.638   6.565 -0.3695 -0.5199 -0.5455
  967MOL0     C30459   1.781   1.516   6.548 -0.3270 -0.8401 -0.0582
  967MOL0     N30460   2.624   1.375   6.747  1.0497 -1.1798  0.2135
  967MOL0     N30461   2.716   1.371   6.836  0.0175  0.3606  0.4339
  967MOL0     C30462   2.195   1.294   7.873 -1.3895 -1.2134  0.0105
  967MOL0     C30463   2.146   1.186   7.926  0.3765 -0.0450 -0.2503
  967MOL0     C30464   2.158   0.728   8.059  0.0597 -0.3934  0.5890
  967MOL0     C30465   2.190   0.599   8.012  0.2628  0.1748  0.2998
  967MOL0     C30466   2.167   0.484   8.095  0.0275  0.2528 -0.1233
  967MOL0     C30467   2.116   0.492   8.225  0.3863 -0.5963 -0.7390
  967MOL0     O30468   2.099   0.377   8.297  0.3055 -0.6097 -0.0847
  967MOL0     C30469   2.073   0.380   8.437  0.3565 -0.0491 -0.8101
  967MOL0     C30470   2.169   0.465   8.517 -1.3871 -0.6394 -0.5949
  967MOL0     C30471   2.232   0.388   8.631 -0.4939  0.1514 -0.3719
  967MOL0     C30472   2.152   0.357   8.755  0.6857 -0.0167 -0.2389
  967MOL0     C30473   2.071   0.233   8.745  0.1796 -0.3781 -0.2867
  967MOL0     C30474   2.017   0.128   8.722  0.5741 -0.6039  0.5968
  967MOL0     C30475   2.069   0.615   8.264  0.0407  0.7077 -0.1059
  967MOL0     C30476   2.093   0.735   8.188  0.5215 -0.9799 -0.3858
  967MOL0     C30477   2.033   0.859   8.249 -0.2080  0.8295 -0.1741
  967MOL0     H30478   2.435   1.044   8.007  1.3762  0.2861 -1.4302
  967MOL0     H30479   2.512   1.268   7.906 -1.6113  2.4773 -0.7581
  967MOL0     H30480   2.328   1.330   7.602 -0.1749  0.8509 -0.1156
  967MOL0     H30481   2.369   1.508   7.580  1.1012 -0.0602 -0.9776
  967MOL0     H30482   2.547   1.362   7.509 -0.7752  3.6134 -0.9392
  967MOL0     H30483   2.570   1.311   7.679 -0.4811 -0.8517 -0.0214
  967MOL0     H30484   2.638   1.507   7.737  0.2900  1.1678  0.0610
  967MOL0     H30485   2.550   1.597   7.600  0.6066  0.1600 -1.2626
  967MOL0     H30486   2.803   1.601   7.564 -1.7602  2.6649 -1.9234
  967MOL0     H30487   2.790   1.431   7.511 -1.8408 -0.6625 -1.4960
  967MOL0     H30488   2.612   1.497   7.347 -0.1222  1.3416 -3.0835
  967MOL0     H30489   2.652   1.664   7.381  1.1665  0.6644 -1.7594
  967MOL0     H30490   2.852   1.658   7.273  1.2715  0.6221 -4.3390
  967MOL0     H30491   2.876   1.486   7.282  1.3784  1.7196 -3.6210
  967MOL0     H30492   2.828   1.579   7.063 -1.0320 -1.0140 -0.4506
  967MOL0     H30493   2.660   1.605   7.113  0.9563  0.5653 -0.7844
  967MOL0     H30494   2.805   1.342   7.101 -2.3736 -2.2677 -1.1641
  967MOL0     H30495   2.637   1.368   7.163  0.7649  0.2391  1.9927
  967MOL0     H30496   2.485   1.543   6.975 -0.2829 -1.2414  0.1036
  967MOL0     H30497   2.309   1.513   6.799  0.0077  1.1443  0.0825
  967MOL0     H30498   2.410   1.536   6.655 -1.9321  1.3091  1.4876
  967MOL0     H30499   2.388   1.305   6.615 -0.3318 -0.6983  1.2751
  967MOL0     H30500   2.297   1.267   6.759 -0.9728 -0.6211 -0.0268
  967MOL0     H30501   2.196   1.345   6.503 -2.2098  0.3316 -0.7631
  967MOL0     H30502   2.178   1.491   6.608  1.4609  0.6013 -2.2448
  967MOL0     H30503   2.049   1.344   6.775  2.0065  0.0427 -0.5247
  967MOL0     H30504   2.076   1.215   6.655  1.8513 -0.7131 -1.5278
  967MOL0     H30505   2.014   1.560   6.790 -0.3700 -1.1180  0.5712
  967MOL0     H30506   1.891   1.779   6.818  1.1717 -1.4756  2.0739
  967MOL0     H30507   1.615   2.120   6.589  0.1314  0.5384 -0.1881
  967MOL0     H30508   1.451   2.313   6.657 -2.5327 -0.2451  2.3297
  967MOL0     H30509   1.418   2.527   6.718 -0.6584  1.1917 -1.4436
  967MOL0     H30510   1.285   2.413   6.780 -0.2997  0.8361 -0.5637
  967MOL0     H30511   1.250   2.568   6.957  1.7896 -0.4016 -0.5617
  967MOL0     H30512   1.378   2.676   6.906 -0.0027 -0.0621 -1.2410
  967MOL0     H30513   1.234   2.750   6.712 -0.7694 -0.5860 -1.0258
  967MOL0     H30514   1.125   2.616   6.723  0.2203  1.3740 -2.9139
  967MOL0     H30515   1.137   2.826   6.945  1.4639 -0.3642  1.4303
  967MOL0     H30516   1.035   2.683   6.943 -1.5094 -0.6061 -1.8448
  967MOL0     H30517   0.894   2.864   6.898 -1.9551  1.1843 -1.7457
  967MOL0     H30518   0.910   2.761   6.756  1.8542 -0.8650  0.1853
  967MOL0     H30519   1.063   2.912   6.640 -0.1198 -4.0094  0.0151
  967MOL0     H30520   0.905   2.975   6.694 -0.6503 -2.9850  0.8952
  967MOL0     H30521   1.108   3.136   6.721 -0.2632  1.1251  0.3051
  967MOL0     H30522   1.167   3.024   6.844  0.6140  0.3202 -1.0393
  967MOL0     H30523   0.956   3.058   6.982  0.5863 -2.4884 -1.6443
  967MOL0     H30524   1.032   3.209   6.942  0.7371  1.2701 -2.4108
  967MOL0     H30525   1.573   2.268   7.060 -4.4035  0.6042  0.1670
  967MOL0     H30526   1.716   2.072   7.000 -1.5467  0.2126  2.2046
  967MOL0     H30527   1.620   1.649   6.500  0.1644 -1.6178 -1.4751
  967MOL0     H30528   1.729   1.461   6.471 -1.2692  1.3703 -1.0608
  967MOL0     H30529   2.122   1.362   7.829 -2.6020 -1.2301  1.9107
  967MOL0     H30530   2.041   1.180   7.953  0.3639  0.4245 -0.1800
  967MOL0     H30531   2.227   0.588   7.910 -3.4020  1.1701 -1.2896
  967MOL0     H30532   2.211   0.387   8.077 -1.5815 -0.2555 -1.5090
  967MOL0     H30533   2.054   0.287   8.490 -1.1938  2.1393  2.8225
  967MOL0     H30534   1.980   0.434   8.457  1.0574  0.2055  2.2309
  967MOL0     H30535   2.132   0.562   8.554 -1.1556 -1.7286  2.9039
  967MOL0     H30536   2.251   0.489   8.449  0.2184 -1.5260  0.9373
  967MOL0     H30537   2.315   0.453   8.661  1.2156 -2.0332 -0.1273
  967MOL0     H30538   2.272   0.290   8.606 -2.1099 -0.9828  1.2562
  967MOL0     H30539   2.219   0.337   8.839  1.3808 -0.0317 -0.7874
  967MOL0     H30540   2.099   0.448   8.782 -1.5224 -0.8521 -1.5173
  967MOL0     H30541   1.981   0.030   8.703  1.0699 -0.4072 -1.6218
  967MOL0     H30542   2.004   0.606   8.351  0.7204 -0.7339  0.2741
  967MOL0     H30543   1.966   0.901   8.174  0.0819  1.6317  0.0038
  967MOL0     H30544   1.974   0.835   8.338  1.7784  1.4073  1.3743
  967MOL0     H30545   2.111   0.933   8.269 -1.8012  1.6193  4.3416
  968MOL0     O30546   9.515   0.026   9.661  0.8812  0.7147 -0.0991
  968MOL0     C30547   9.514   0.146   9.658  0.3013 -0.0189  0.9419
  968MOL0     O30548   9.474   0.223   9.555 -0.7301  0.2173 -0.7764
  968MOL0     C30549   9.430   0.171   9.440 -0.4243  0.4828 -0.3465
  968MOL0     C30550   9.491   0.092   9.348  0.0463  1.1978  0.1645
  968MOL0     C30551   9.428   0.054   9.226 -0.0416  0.4357  0.0876
  968MOL0     C30552   9.301   0.087   9.199  0.2930 -0.2091 -0.5284
  968MOL0     O30553   9.249   0.034   9.088 -0.9497 -0.2383  0.1736
  968MOL0     C30554   9.110   0.014   9.094 -0.7624 -0.3824  0.2853
  968MOL0     C30555   9.094  -0.046   8.957  1.3216 -0.1961  0.0622
  968MOL0     C30556   8.957  -0.037   8.896  0.6355 -1.0946 -0.1945
  968MOL0     C30557   8.914  -0.156   8.815 -0.0323 -0.5047 -0.2642
  968MOL0     C30558   8.778  -0.129   8.738 -0.8201 -0.3454 -0.7475
  968MOL0     C30559   8.723  -0.234   8.636  0.2680 -0.5836 -0.5256
  968MOL0     C30560   8.671  -0.354   8.712  1.1719  1.3035  0.4906
  968MOL0     C30561   8.620  -0.457   8.616  0.4474  0.3079 -0.2221
  968MOL0     N30562   8.731  -0.525   8.552  0.8287  0.5259  0.3097
  968MOL0     C30563   8.799  -0.634   8.600  0.2530 -0.2863  0.6744
  968MOL0     C30564   8.878  -0.668   8.497 -0.0211  0.2724 -0.4241
  968MOL0     C30565   8.980  -0.764   8.530 -0.4002 -0.2240  0.4407
  968MOL0     C30566   9.093  -0.777   8.431  0.4393 -0.5566 -0.0823
  968MOL0     C30567   9.193  -0.658   8.423  0.6142  0.7909 -0.0762
  968MOL0     C30568   9.272  -0.625   8.548 -0.2733  0.9372 -0.3985
  968MOL0     O30569   9.373  -0.523   8.530  0.0295  0.6396 -0.9540
  968MOL0     C30570   9.489  -0.525   8.599  0.3220 -0.3021 -0.0311
  968MOL0     C30571   9.584  -0.429   8.576 -0.4328  0.0429  0.1830
  968MOL0     C30572   9.705  -0.427   8.655  0.3488 -0.7037 -0.9792
  968MOL0     C30573   9.729  -0.519   8.766 -0.5499  0.9681 -0.7694
  968MOL0     C30574   9.849  -0.514   8.845  0.2741 -0.2407 -0.1900
  968MOL0     O30575   9.841  -0.598   8.959  0.3814  1.3306 -0.4767
  968MOL0     C30576   9.946  -0.599   9.048  0.4905 -1.0918 -0.5343
  968MOL0     C30577   9.965  -0.723   9.105  0.1417 -0.9956  0.0057
  968MOL0     C30578  10.074  -0.759   9.189 -0.5347 -0.4478 -0.1486
  968MOL0     C30579  10.172  -0.664   9.210  0.2591  0.4544 -0.0163
  968MOL0     O30580  10.280  -0.689   9.288  0.4467  0.3603  1.1299
  968MOL0     C30581  10.411  -0.627   9.248  0.1988  0.4796 -0.2546
  968MOL0     C30582  10.462  -0.701   9.132 -0.0176 -0.5732 -1.6072
  968MOL0     C30583  10.614  -0.700   9.134 -0.3518 -0.4458 -0.0127
  968MOL0     C30584  10.664  -0.756   9.003 -0.0493 -0.0658  0.4697
  968MOL0     C30585  10.812  -0.722   8.973  0.0097  0.7742  0.1666
  968MOL0     C30586  10.898  -0.837   9.001 -0.7286  1.3293  0.6374
  968MOL0     C30587  11.048  -0.805   8.986 -0.3699 -0.6426  0.0845
  968MOL0     C30588  11.126  -0.804   9.123 -0.2832 -0.0643  0.0122
  968MOL0    Cl30589  11.101  -0.964   9.205 -0.2852 -0.1886 -0.0682
  968MOL0     C30590  10.153  -0.529   9.155 -0.1574 -0.4860  0.9076
  968MOL0     C30591  10.037  -0.495   9.083  0.1549 -0.1381  1.1696
  968MOL0     O30592   9.944  -0.444   8.808 -1.0713  0.2601  0.8136
  968MOL0     C30593   9.621  -0.601   8.804 -0.3294  1.1103  0.6944
  968MOL0     C30594   9.510  -0.601   8.720  0.4059  0.1036 -0.6456
  968MOL0     N30595   8.860  -0.583   8.394 -0.1844  0.1229 -0.1148
  968MOL0     N30596   8.776  -0.493   8.431 -0.4645  0.2832 -0.1025
  968MOL0     C30597   9.237   0.164   9.293  0.1945 -0.7103  0.5851
  968MOL0     C30598   9.302   0.203   9.408 -1.3677 -0.2801  0.1881
  968MOL0     C30599   9.565   0.221   9.773 -0.2575  0.7192 -1.0704
  968MOL0     C30600   9.504   0.347   9.797 -0.6283  0.3205  0.4848
  968MOL0     C30601   9.524   0.418   9.922 -0.3270 -1.0333  0.1101
  968MOL0     C30602   9.594   0.366  10.028 -0.4775 -0.2571 -0.2646
  968MOL0     O30603   9.608   0.429  10.151 -0.2138 -0.6692 -0.0845
  968MOL0     C30604   9.678   0.365  10.260 -0.1188 -0.3409 -0.1619
  968MOL0     C30605   9.596   0.253  10.329  0.9842 -0.4554  0.5385
  968MOL0     C30606   9.692   0.181  10.421 -0.3620  0.4135  0.3213
  968MOL0     C30607   9.751   0.273  10.521 -0.3902 -0.4584 -0.3312
  968MOL0     C30608   9.654   0.370  10.571  0.7882  0.4240  0.1097
  968MOL0     C30609   9.570   0.458  10.599 -1.6548  0.8362 -1.3754
  968MOL0     C30610   9.646   0.238  10.003  0.5171  0.8280  0.1323
  968MOL0     C30611   9.642   0.168   9.880 -0.1372  0.1457 -0.3941
  968MOL0     C30612   9.719   0.036   9.879  1.0359 -0.7334  0.3135
  968MOL0     H30613   9.596   0.072   9.368  0.0663  1.5266  0.3913
  968MOL0     H30614   9.467  -0.008   9.146  1.2210  0.8104  0.4029
  968MOL0     H30615   9.080  -0.064   9.165 -4.5839 -0.3676 -1.0798
  968MOL0     H30616   9.063   0.112   9.096 -0.9502 -0.4563  2.8294
  968MOL0     H30617   9.114  -0.153   8.970 -0.2494 -0.5560 -0.2870
  968MOL0     H30618   9.172  -0.004   8.893  1.1663  1.2847  0.8186
  968MOL0     H30619   8.937   0.052   8.835 -1.8406  0.5758  2.7960
  968MOL0     H30620   8.890  -0.025   8.981  0.9576  0.7959 -0.1772
  968MOL0     H30621   8.986  -0.182   8.736 -0.2370  1.8250 -1.2817
  968MOL0     H30622   8.917  -0.240   8.886 -2.0473  0.3993  0.9542
  968MOL0     H30623   8.693  -0.113   8.805 -0.0699  2.2933 -0.3275
  968MOL0     H30624   8.798  -0.036   8.686 -1.2879  0.2134  0.0500
  968MOL0     H30625   8.644  -0.188   8.576 -0.5191  1.1445  1.6603
  968MOL0     H30626   8.809  -0.255   8.573  0.6482  1.7385 -0.8611
  968MOL0     H30627   8.587  -0.329   8.777  1.5559  0.4592  1.3333
  968MOL0     H30628   8.751  -0.402   8.769  0.0733  0.4581  1.3808
  968MOL0     H30629   8.559  -0.529   8.673  1.5342 -0.6736 -0.2710
  968MOL0     H30630   8.549  -0.412   8.546  0.8804 -1.5618 -1.9148
  968MOL0     H30631   8.786  -0.685   8.695  0.7830  0.2450  1.0337
  968MOL0     H30632   9.017  -0.735   8.629  1.8881 -1.6710  0.0831
  968MOL0     H30633   8.947  -0.869   8.529  0.5461 -0.5325  0.2761
  968MOL0     H30634   9.155  -0.867   8.442 -0.6861 -1.3583 -0.1380
  968MOL0     H30635   9.051  -0.793   8.331 -0.8177  1.0335  0.1562
  968MOL0     H30636   9.137  -0.578   8.373  0.3926  1.2254  0.8576
  968MOL0     H30637   9.263  -0.698   8.349  1.0808  0.6838  0.4169
  968MOL0     H30638   9.305  -0.722   8.587 -1.3067  0.7685  0.0959
  968MOL0     H30639   9.204  -0.595   8.629 -0.9613 -2.2492  0.3357
  968MOL0     H30640   9.568  -0.360   8.494  2.4098  0.7080  0.1059
  968MOL0     H30641   9.780  -0.353   8.633  0.0045  0.4288  1.3983
  968MOL0     H30642   9.895  -0.801   9.079 -1.1777  0.5045 -1.1960
  968MOL0     H30643  10.088  -0.862   9.221  0.9464 -0.5458 -1.0334
  968MOL0     H30644  10.415  -0.518   9.239  0.0385  0.5204  0.1688
  968MOL0     H30645  10.477  -0.641   9.333 -0.2790  0.5960  0.1395
  968MOL0     H30646  10.427  -0.805   9.134  0.4284 -0.9347 -5.0193
  968MOL0     H30647  10.425  -0.655   9.040 -6.4883 -3.7401 -1.1490
  968MOL0     H30648  10.639  -0.597   9.163 -0.4683 -1.0800  2.6152
  968MOL0     H30649  10.653  -0.756   9.220  0.0703 -0.6060 -0.3017
  968MOL0     H30650  10.596  -0.719   8.926 -2.0835 -1.3631  1.5716
  968MOL0     H30651  10.643  -0.863   8.997  3.6900 -0.9098 -0.8715
  968MOL0     H30652  10.852  -0.643   9.036  2.8925 -0.4163 -0.0445
  968MOL0     H30653  10.834  -0.694   8.870  2.9487 -3.4325 -0.6268
  968MOL0     H30654  10.878  -0.875   9.102 -1.2447 -2.9395 -0.8790
  968MOL0     H30655  10.875  -0.934   8.955 -4.9720  1.1883  2.5929
  968MOL0     H30656  11.060  -0.715   8.926 -4.2593 -0.1076 -0.1112
  968MOL0     H30657  11.108  -0.879   8.932  1.2825 -0.6614  1.8124
  968MOL0     H30658  11.231  -0.789   9.098 -0.9934  0.7182 -2.8354
  968MOL0     H30659  11.098  -0.726   9.194  1.7516  1.1061 -0.4156
  968MOL0     H30660  10.243  -0.467   9.153  2.1066 -3.5556  1.0665
  968MOL0     H30661  10.043  -0.402   9.026  1.9016 -1.7905 -1.5927
  968MOL0     H30662   9.617  -0.671   8.886  0.2832  0.7845  0.4463
  968MOL0     H30663   9.424  -0.663   8.745 -0.2123  0.7675 -1.0572
  968MOL0     H30664   9.133   0.179   9.268  0.7768  0.0968 -1.6382
  968MOL0     H30665   9.241   0.266   9.472 -0.0568  2.9702 -1.5304
  968MOL0     H30666   9.452   0.403   9.720 -0.7475  1.2462  1.2301
  968MOL0     H30667   9.494   0.519   9.945  1.3766 -0.8318  1.7489
  968MOL0     H30668   9.704   0.441  10.334  2.8091  0.2723 -1.6731
  968MOL0     H30669   9.770   0.322  10.219 -0.9913 -2.1039 -0.3587
  968MOL0     H30670   9.568   0.179  10.253 -2.1319 -1.4711  2.4864
  968MOL0     H30671   9.502   0.294  10.366  0.8389 -0.2109 -0.0806
  968MOL0     H30672   9.771   0.136  10.360 -1.0347 -0.6842  0.2463
  968MOL0     H30673   9.638   0.102  10.474  3.3417 -1.9611  0.9600
  968MOL0     H30674   9.799   0.218  10.602  1.9468  0.7876 -0.7582
  968MOL0     H30675   9.836   0.334  10.488 -1.7772  0.8958 -1.5788
  968MOL0     H30676   9.500   0.531  10.634 -3.1473 -1.4512  0.7644
  968MOL0     H30677   9.704   0.182  10.075  3.5789 -0.7093 -3.2546
  968MOL0     H30678   9.773   0.029   9.784 -1.8552  2.0073 -1.7283
  968MOL0     H30679   9.787   0.018   9.963  1.1456  2.9616  1.2068
  968MOL0     H30680   9.648  -0.044   9.897 -0.1216  0.2289  0.1429
  969MOL0     O30681   9.421   1.693   1.179  0.4339  0.0080 -0.2452
  969MOL0     C30682   9.529   1.719   1.128 -0.5074 -0.5380 -0.3098
  969MOL0     O30683   9.546   1.777   1.000 -0.3659  0.6743  1.0999
  969MOL0     C30684   9.442   1.728   0.918  0.1002 -0.5123  0.6813
  969MOL0     C30685   9.338   1.814   0.869  0.1920  0.3517 -0.4941
  969MOL0     C30686   9.238   1.772   0.790 -0.2539 -0.3289 -1.1156
  969MOL0     C30687   9.236   1.648   0.741 -0.5109 -0.1852  0.4901
  969MOL0     O30688   9.128   1.594   0.668  0.2975  0.9754  0.1487
  969MOL0     C30689   9.077   1.684   0.576  0.5353  0.1182 -0.3679
  969MOL0     C30690   8.990   1.599   0.472  0.8231 -0.4913  0.7513
  969MOL0     C30691   9.069   1.523   0.362 -0.1075  0.3580 -0.1380
  969MOL0     C30692   9.106   1.376   0.403  0.4747  0.4967  0.6450
  969MOL0     C30693   9.161   1.291   0.284  0.5309 -0.4051  0.0936
  969MOL0     C30694   9.304   1.325   0.246 -0.0228  0.1456  0.0844
  969MOL0     C30695   9.346   1.253   0.103 -1.2646  0.7786 -0.1634
  969MOL0     C30696   9.501   1.238   0.109  0.0329  0.9230 -0.0102
  969MOL0     N30697   9.565   1.364   0.121  0.0713 -0.1323  0.0903
  969MOL0     C30698   9.576   1.451   0.012 -0.7635  1.2220  0.1986
  969MOL0     C30699   9.623   1.569   0.068  0.1044  0.2662  0.3219
  969MOL0     C30700   9.653   1.694  -0.008  0.0543 -0.3015 -0.1361
  969MOL0     C30701   9.537   1.797  -0.022  0.7439 -0.4751  0.2915
  969MOL0     C30702   9.440   1.747  -0.127  0.1660 -0.0414 -0.1950
  969MOL0     C30703   9.333   1.857  -0.166  0.5573 -1.0620  0.0851
  969MOL0     O30704   9.402   1.970  -0.232  0.3834  0.3925 -0.5867
  969MOL0     C30705   9.368   2.103  -0.214 -1.0207  0.9117 -0.7944
  969MOL0     C30706   9.456   2.193  -0.273 -0.6669  0.2873 -0.1410
  969MOL0     C30707   9.422   2.331  -0.268  0.0155  0.8503  0.7297
  969MOL0     C30708   9.301   2.376  -0.221 -0.5539 -0.4613  0.4470
  969MOL0     C30709   9.264   2.519  -0.201  0.5079  0.5087  0.2685
  969MOL0     O30710   9.356   2.597  -0.263 -0.1632  0.0676 -0.4986
  969MOL0     C30711   9.316   2.727  -0.260  0.2600 -0.0402 -0.5237
  969MOL0     C30712   9.204   2.770  -0.326  0.1381 -0.2214  0.9014
  969MOL0     C30713   9.162   2.903  -0.334 -0.1187  0.5555 -0.1443
  969MOL0     C30714   9.235   2.997  -0.264  0.3358  0.1525 -0.2022
  969MOL0     O30715   9.206   3.135  -0.253  0.2857 -0.7731 -0.4966
  969MOL0     C30716   9.105   3.202  -0.337 -0.2624  0.8998 -0.3055
  969MOL0     C30717   9.162   3.217  -0.473  0.6154 -1.4771 -0.2496
  969MOL0     C30718   9.060   3.208  -0.581 -0.1029  0.8040 -0.4549
  969MOL0     C30719   9.113   3.248  -0.721  0.2202 -0.0517  0.2338
  969MOL0     C30720   8.995   3.258  -0.825  0.2973  0.8422 -0.4917
  969MOL0     C30721   9.043   3.274  -0.963  0.4588 -0.6550 -0.4252
  969MOL0     C30722   9.146   3.386  -0.985  0.0104 -0.3294  0.2888
  969MOL0     C30723   9.176   3.373  -1.139  0.0080  0.1763 -0.3954
  969MOL0    Cl30724   9.313   3.477  -1.194  0.0005  0.4654  0.6081
  969MOL0     C30725   9.349   2.957  -0.195  0.2190 -1.5575  0.2549
  969MOL0     C30726   9.391   2.829  -0.197 -0.1405  0.6198  0.0943
  969MOL0     O30727   9.163   2.554  -0.138  0.1103 -0.4926 -0.6883
  969MOL0     C30728   9.206   2.281  -0.182  0.0710  0.8731 -0.6716
  969MOL0     C30729   9.244   2.142  -0.169 -0.1078 -0.6444 -0.2694
  969MOL0     N30730   9.651   1.536   0.202 -0.6492 -0.3502  0.5271
  969MOL0     N30731   9.604   1.423   0.239  0.6991 -0.9574  0.5293
  969MOL0     C30732   9.339   1.565   0.777  0.2931  0.4835  0.5968
  969MOL0     C30733   9.441   1.601   0.860  0.2541  0.5023  0.7015
  969MOL0     C30734   9.639   1.713   1.229  1.7234  0.1738 -0.0773
  969MOL0     C30735   9.610   1.752   1.358  0.2057 -0.3577  0.3375
  969MOL0     C30736   9.713   1.768   1.452 -1.1596 -0.3710  0.2341
  969MOL0     C30737   9.848   1.726   1.419  0.7298  0.3004 -0.1776
  969MOL0     O30738   9.942   1.714   1.522 -0.4545  0.0502  0.4107
  969MOL0     C30739  10.077   1.709   1.475  0.3939 -0.2052  0.8349
  969MOL0     C30740  10.152   1.756   1.597 -0.1302  0.1280  0.0196
  969MOL0     C30741  10.118   1.889   1.661 -0.1392  0.0192 -0.5138
  969MOL0     C30742  10.171   2.001   1.584 -0.2118 -0.3962  1.0278
  969MOL0     C30743  10.153   2.138   1.645 -0.5619  0.6000  0.3322
  969MOL0     C30744  10.150   2.254   1.692 -0.1274  0.9201  0.2364
  969MOL0     C30745   9.872   1.702   1.285  0.3678  0.7143  0.3265
  969MOL0     C30746   9.768   1.683   1.195  0.0840  0.2156  0.7144
  969MOL0     C30747   9.819   1.668   1.050  1.1403  0.6414 -0.6373
  969MOL0     H30748   9.329   1.919   0.894  1.0259 -0.0458  1.7167
  969MOL0     H30749   9.150   1.834   0.776 -0.7622  0.0780  2.7741
  969MOL0     H30750   9.007   1.754   0.623 -2.7780 -1.1248 -2.9656
  969MOL0     H30751   9.143   1.747   0.516  0.6549 -1.3097 -1.8096
  969MOL0     H30752   8.927   1.664   0.411  1.0896 -0.1532  0.8323
  969MOL0     H30753   8.923   1.528   0.522  0.8913 -0.5859  0.7079
  969MOL0     H30754   9.162   1.578   0.348 -0.5945  1.0738 -0.6422
  969MOL0     H30755   9.022   1.515   0.263  0.4602 -0.6385 -0.3401
  969MOL0     H30756   9.188   1.375   0.475  3.5030 -2.4095 -2.4174
  969MOL0     H30757   9.017   1.329   0.445 -1.3773  3.1052 -0.1374
  969MOL0     H30758   9.153   1.185   0.311  1.1355  0.5529  4.9560
  969MOL0     H30759   9.101   1.312   0.196  0.5998 -0.8449 -0.0607
  969MOL0     H30760   9.318   1.433   0.234 -0.9331  0.2043 -0.5297
  969MOL0     H30761   9.370   1.291   0.327  1.3868  0.2308 -0.9846
  969MOL0     H30762   9.309   1.313   0.019 -0.7091 -0.4006 -1.2868
  969MOL0     H30763   9.296   1.156   0.100  1.1338 -0.5167  0.0251
  969MOL0     H30764   9.518   1.195   0.207  2.0623  2.0844  0.1946
  969MOL0     H30765   9.551   1.169   0.041 -0.5996  2.4424 -2.1562
  969MOL0     H30766   9.547   1.427  -0.090  0.0407 -1.8459  0.5921
  969MOL0     H30767   9.731   1.745   0.050  2.5595  1.9748 -4.9447
  969MOL0     H30768   9.703   1.669  -0.101  0.4737 -3.3429  0.8006
  969MOL0     H30769   9.486   1.831   0.068  0.4601  2.7480 -0.9283
  969MOL0     H30770   9.599   1.879  -0.061 -0.3155 -1.3419 -3.6788
  969MOL0     H30771   9.382   1.665  -0.085  2.3628 -1.9257 -0.6934
  969MOL0     H30772   9.483   1.708  -0.220  0.2568 -0.6402  0.0939
  969MOL0     H30773   9.298   1.904  -0.074 -0.7236  0.0005 -0.8973
  969MOL0     H30774   9.255   1.807  -0.224 -0.2760 -1.3578  1.4227
  969MOL0     H30775   9.554   2.163  -0.306 -0.5873  0.0449  0.3073
  969MOL0     H30776   9.503   2.398  -0.297  1.1818 -0.7654  0.1125
  969MOL0     H30777   9.150   2.692  -0.379  1.0398 -0.5141  0.4009
  969MOL0     H30778   9.071   2.923  -0.389 -0.1402 -0.4482 -0.4900
  969MOL0     H30779   9.009   3.151  -0.328  0.5694 -0.5630  0.6962
  969MOL0     H30780   9.083   3.296  -0.285 -2.1676  1.0308 -1.2888
  969MOL0     H30781   9.208   3.315  -0.493  2.2915 -2.4231 -1.2205
  969MOL0     H30782   9.240   3.142  -0.487  1.1594 -1.0553  0.4140
  969MOL0     H30783   9.020   3.106  -0.586 -1.5253  1.0218  3.2444
  969MOL0     H30784   8.973   3.265  -0.545 -1.9317 -0.6785 -2.2907
  969MOL0     H30785   9.181   3.176  -0.767 -2.5705 -0.1485 -4.3164
  969MOL0     H30786   9.161   3.346  -0.715 -1.8561  0.9730  1.0303
  969MOL0     H30787   8.923   3.335  -0.796  0.1578  1.4139 -2.2565
  969MOL0     H30788   8.939   3.164  -0.824  0.4289  0.7643 -0.0956
  969MOL0     H30789   9.094   3.180  -0.989 -1.5348 -1.8696 -0.1568
  969MOL0     H30790   8.954   3.278  -1.026  0.3688 -0.0560 -0.2643
  969MOL0     H30791   9.236   3.363  -0.926  0.4708  0.4698 -0.0885
  969MOL0     H30792   9.118   3.490  -0.969  1.9059  1.2420 -4.6859
  969MOL0     H30793   9.217   3.273  -1.157  0.8022  0.3736  0.2624
  969MOL0     H30794   9.084   3.387  -1.196  0.3624  0.3058 -0.9374
  969MOL0     H30795   9.402   3.030  -0.135 -1.9355 -0.4048  0.8781
  969MOL0     H30796   9.482   2.799  -0.146  1.9078  3.3762 -1.6741
  969MOL0     H30797   9.105   2.300  -0.149  0.6546  1.2818  1.0009
  969MOL0     H30798   9.171   2.070  -0.133 -2.5075  1.6417 -0.3107
  969MOL0     H30799   9.335   1.470   0.724  0.6504  1.8462 -2.0031
  969MOL0     H30800   9.520   1.530   0.883  0.2310  0.2521  0.0368
  969MOL0     H30801   9.512   1.787   1.387  1.4306  1.0204  3.2202
  969MOL0     H30802   9.685   1.786   1.555 -0.0131  2.7647  0.0973
  969MOL0     H30803  10.102   1.782   1.397  3.1906 -2.0344 -0.1076
  969MOL0     H30804  10.114   1.610   1.447  0.2819 -0.5808  1.9764
  969MOL0     H30805  10.261   1.752   1.582  0.1764 -0.4746  2.0640
  969MOL0     H30806  10.143   1.675   1.669  0.4714  0.2276  0.2155
  969MOL0     H30807  10.158   1.887   1.763  2.7731  1.1878 -1.5240
  969MOL0     H30808  10.010   1.899   1.675 -0.1558 -1.7568  1.1180
  969MOL0     H30809  10.275   1.985   1.551 -0.4529  1.1204 -0.6338
  969MOL0     H30810  10.124   2.003   1.485  1.3480  1.0367  0.2636
  969MOL0     H30811  10.163   2.355   1.724 -1.1404  1.4046 -0.7914
  969MOL0     H30812   9.971   1.679   1.244  0.5337 -1.3299  1.6976
  969MOL0     H30813   9.752   1.621   0.977 -0.2714  3.0646 -1.0138
  969MOL0     H30814   9.833   1.772   1.018  0.8917 -0.3079 -4.3336
  969MOL0     H30815   9.915   1.617   1.045  1.6170  1.2561  1.3095
  970MOL0     O30816   7.331  11.397   2.808 -0.1126  1.2014  0.1703
  970MOL0     C30817   7.265  11.294   2.847 -1.0846 -0.5841  0.0355
  970MOL0     O30818   7.139  11.302   2.910 -0.1297 -0.0081 -0.8354
  970MOL0     C30819   7.064  11.415   2.904  0.4369  0.1841  0.9252
  970MOL0     C30820   7.021  11.466   2.780 -0.7018  0.9755 -0.1539
  970MOL0     C30821   6.935  11.580   2.776  0.2691  0.3600 -0.4274
  970MOL0     C30822   6.888  11.641   2.889  0.3281  0.0265  0.4685
  970MOL0     O30823   6.807  11.749   2.893  1.3688 -0.6989  0.8259
  970MOL0     C30824   6.867  11.873   2.851 -0.1733  0.6336 -0.2607
  970MOL0     C30825   6.781  11.908   2.721  0.4117  0.6628  0.4917
  970MOL0     C30826   6.762  12.053   2.700  0.3663 -0.5457 -0.7368
  970MOL0     C30827   6.678  12.118   2.807 -0.0327 -0.2602  1.0177
  970MOL0     C30828   6.659  12.268   2.797  0.3726  0.3762  0.1467
  970MOL0     C30829   6.586  12.311   2.670  1.0713 -1.0068  0.4060
  970MOL0     C30830   6.550  12.456   2.668  0.2211 -0.1969  0.4603
  970MOL0     C30831   6.411  12.482   2.726 -0.5105 -0.6603 -0.1183
  970MOL0     N30832   6.417  12.606   2.802  0.6636  0.0151 -0.2106
  970MOL0     C30833   6.495  12.630   2.911  0.4962 -0.1482  0.3953
  970MOL0     C30834   6.468  12.753   2.951  0.3073 -0.5737  1.0205
  970MOL0     C30835   6.535  12.835   3.064  0.2708  0.8896 -0.6451
  970MOL0     C30836   6.614  12.757   3.176 -0.4160  0.7894  0.5040
  970MOL0     C30837   6.534  12.667   3.270 -0.4468  0.3174 -0.4119
  970MOL0     C30838   6.602  12.619   3.400 -0.2070  0.5625 -0.1287
  970MOL0     O30839   6.696  12.507   3.371 -1.0698 -0.3073 -0.2928
  970MOL0     C30840   6.804  12.498   3.454  0.1389  0.3099 -0.2838
  970MOL0     C30841   6.915  12.580   3.441 -0.1983 -0.2315  0.2536
  970MOL0     C30842   7.023  12.566   3.528 -0.5616  0.1118  1.3334
  970MOL0     C30843   7.035  12.458   3.619  0.3058  0.9476  0.3695
  970MOL0     C30844   7.168  12.424   3.692  1.0993  0.1160  0.0584
  970MOL0     O30845   7.178  12.315   3.783  0.4784 -0.9627  0.6559
  970MOL0     C30846   7.297  12.279   3.845  1.0014 -0.7333  0.1335
  970MOL0     C30847   7.278  12.181   3.943  0.0470  0.4787  0.5516
  970MOL0     C30848   7.379  12.108   4.017  0.5544 -0.5493  1.1634
  970MOL0     C30849   7.514  12.148   3.989  0.6030 -0.6099 -0.0713
  970MOL0     O30850   7.616  12.097   4.059  0.7068 -0.5956 -0.7319
  970MOL0     C30851   7.596  11.971   4.130  0.2948  0.5361  0.8429
  970MOL0     C30852   7.719  11.932   4.210  1.1485 -0.5485  0.1116
  970MOL0     C30853   7.739  12.019   4.333  0.1231 -0.3017  0.0513
  970MOL0     C30854   7.828  12.140   4.297 -0.1978  0.1801 -0.1370
  970MOL0     C30855   7.895  12.217   4.405  1.1916  0.5593 -0.4047
  970MOL0     C30856   7.798  12.278   4.510 -0.6609  0.7393 -0.8918
  970MOL0     C30857   7.877  12.334   4.635 -0.4678  0.3014  0.0309
  970MOL0     C30858   7.952  12.225   4.720  0.0500  0.5967 -0.0755
  970MOL0    Cl30859   7.849  12.081   4.749 -0.1641  0.3973  0.4251
  970MOL0     C30860   7.531  12.251   3.893  0.5761  0.6854  0.0600
  970MOL0     C30861   7.431  12.317   3.825  0.6602  0.3074  0.2776
  970MOL0     O30862   7.262  12.489   3.642 -0.1221  0.4079  0.3064
  970MOL0     C30863   6.920  12.374   3.624  1.0054  0.2720 -0.0151
  970MOL0     C30864   6.807  12.397   3.544  0.4964 -0.0271 -1.0009
  970MOL0     N30865   6.375  12.807   2.862  0.2428  0.8526  0.2679
  970MOL0     N30866   6.347  12.716   2.777  1.2610  0.0181 -0.5454
  970MOL0     C30867   6.923  11.583   3.011 -0.0133  1.1584  0.5394
  970MOL0     C30868   7.019  11.481   3.023  0.8502 -0.2092  0.3201
  970MOL0     C30869   7.339  11.163   2.839  0.3394  0.7580 -1.7217
  970MOL0     C30870   7.265  11.047   2.875 -0.3586  0.4305  0.3251
  970MOL0     C30871   7.329  10.921   2.885  0.4617  0.3511  0.2100
  970MOL0     C30872   7.465  10.896   2.848  0.9629 -0.2779 -0.5663
  970MOL0     O30873   7.532  10.776   2.851 -0.0121  0.8258 -0.2772
  970MOL0     C30874   7.453  10.656   2.863  0.0409 -0.6570  0.0459
  970MOL0     C30875   7.550  10.538   2.828  0.3889 -1.3333  0.1458
  970MOL0     C30876   7.664  10.525   2.932 -0.2618  0.4357 -0.1727
  970MOL0     C30877   7.725  10.384   2.937  0.4709 -0.6978  1.0395
  970MOL0     C30878   7.806  10.357   2.818  0.5332 -0.2472 -0.4918
  970MOL0     C30879   7.872  10.326   2.717  0.6518  0.6133 -0.4193
  970MOL0     C30880   7.532  11.010   2.816  0.5091  0.1713 -0.1699
  970MOL0     C30881   7.478  11.139   2.817 -0.3124  0.4041 -0.0518
  970MOL0     C30882   7.583  11.239   2.771  0.3019 -0.8856  1.2751
  970MOL0     H30883   7.068  11.422   2.693 -0.6410 -1.5481  1.0640
  970MOL0     H30884   6.924  11.631   2.680  3.3755  1.0937 -0.4858
  970MOL0     H30885   6.864  11.948   2.932  1.8776 -1.8057  2.2833
  970MOL0     H30886   6.972  11.856   2.825 -0.9364 -1.6790 -2.1676
  970MOL0     H30887   6.680  11.867   2.728  0.8515 -0.3065  1.5703
  970MOL0     H30888   6.828  11.863   2.633  1.8774 -0.0721  1.5978
  970MOL0     H30889   6.710  12.072   2.606  0.9013  1.9927 -0.5927
  970MOL0     H30890   6.859  12.103   2.706  1.4355 -2.7342  2.4651
  970MOL0     H30891   6.582  12.066   2.803  0.1673 -0.5763 -0.3221
  970MOL0     H30892   6.725  12.097   2.903  1.0915  1.6843  0.9566
  970MOL0     H30893   6.617  12.303   2.892  0.8275 -1.1297  0.9297
  970MOL0     H30894   6.757  12.316   2.797  0.2853  0.5789  1.0489
  970MOL0     H30895   6.639  12.300   2.575 -1.5728  1.0761 -1.4486
  970MOL0     H30896   6.492  12.258   2.656 -0.0955  1.4717 -2.1693
  970MOL0     H30897   6.548  12.488   2.563 -0.1349 -1.8386 -0.0587
  970MOL0     H30898   6.622  12.516   2.725 -0.0863  1.3562 -0.6957
  970MOL0     H30899   6.338  12.476   2.644  0.4374  1.9870 -1.2692
  970MOL0     H30900   6.397  12.407   2.805  2.0138  0.0287  1.0792
  970MOL0     H30901   6.557  12.558   2.964  1.1004 -2.2059 -2.8732
  970MOL0     H30902   6.608  12.887   3.001 -0.9369 -0.4574 -3.3305
  970MOL0     H30903   6.467  12.910   3.105 -0.2771  0.3600 -0.5560
  970MOL0     H30904   6.675  12.687   3.118 -0.8693  2.0304 -1.6126
  970MOL0     H30905   6.686  12.821   3.228 -1.6682  2.2283  0.5397
  970MOL0     H30906   6.486  12.578   3.227 -1.1621 -0.6432  2.2259
  970MOL0     H30907   6.447  12.727   3.299 -0.2616 -0.1976  1.3228
  970MOL0     H30908   6.524  12.572   3.460 -0.3669 -1.9394 -2.1195
  970MOL0     H30909   6.659  12.696   3.454 -0.8411 -1.0768  3.1077
  970MOL0     H30910   6.923  12.665   3.374 -1.1852  0.7095  1.2846
  970MOL0     H30911   7.105  12.636   3.517 -0.2126 -0.6396 -1.8077
  970MOL0     H30912   7.175  12.148   3.957 -0.1830  0.8435 -0.2393
  970MOL0     H30913   7.354  12.037   4.095  2.1592 -1.3336  1.0178
  970MOL0     H30914   7.507  11.960   4.192 -0.1231 -0.6547  0.0656
  970MOL0     H30915   7.584  11.897   4.050  0.6012 -1.2756  2.4109
  970MOL0     H30916   7.701  11.832   4.251  2.8430 -0.9746 -0.0944
  970MOL0     H30917   7.803  11.933   4.140  0.7212  4.3823 -0.6565
  970MOL0     H30918   7.645  12.054   4.377 -2.0720 -3.1820 -1.9579
  970MOL0     H30919   7.794  11.966   4.411 -1.3127  0.1869  1.4592
  970MOL0     H30920   7.773  12.213   4.238 -1.0900 -0.3623  0.0117
  970MOL0     H30921   7.913  12.106   4.236  0.1160  3.8421 -2.0439
  970MOL0     H30922   7.950  12.301   4.362 -0.5130  1.9066 -0.0431
  970MOL0     H30923   7.963  12.148   4.455 -1.3725 -1.1187  0.9912
  970MOL0     H30924   7.740  12.364   4.473  0.4748  1.9223  0.0173
  970MOL0     H30925   7.716  12.216   4.548 -0.9992  2.0126  0.5703
  970MOL0     H30926   7.811  12.383   4.707  1.1199  0.8115  1.1984
  970MOL0     H30927   7.942  12.413   4.598 -1.1557  0.3541 -1.1311
  970MOL0     H30928   8.047  12.206   4.669  0.8031 -1.7230  1.9658
  970MOL0     H30929   7.972  12.271   4.817  3.7258 -2.4981  0.8625
  970MOL0     H30930   7.631  12.280   3.862  0.9221  0.6573  1.1154
  970MOL0     H30931   7.451  12.399   3.757  0.8415  0.4253  0.4705
  970MOL0     H30932   6.927  12.290   3.691 -1.6225  0.3461  0.4655
  970MOL0     H30933   6.723  12.328   3.549  1.3332 -1.0008  0.8228
  970MOL0     H30934   6.880  11.631   3.099  0.3807  1.2971  0.6580
  970MOL0     H30935   7.044  11.440   3.120 -0.9163 -1.8457  0.1234
  970MOL0     H30936   7.161  11.051   2.908  0.1337 -1.0367  2.1957
  970MOL0     H30937   7.269  10.845   2.933  0.3576 -0.6781 -1.4625
  970MOL0     H30938   7.363  10.660   2.800  0.4601 -3.3821 -0.8367
  970MOL0     H30939   7.423  10.650   2.968 -0.1307  2.0047  0.2170
  970MOL0     H30940   7.591  10.566   2.731 -1.0581  1.3929  0.2294
  970MOL0     H30941   7.500  10.441   2.824  2.1767 -2.6559  4.1616
  970MOL0     H30942   7.620  10.537   3.031 -1.9998  0.0166 -0.8625
  970MOL0     H30943   7.749  10.589   2.907 -0.9723  0.7104 -2.0336
  970MOL0     H30944   7.769  10.368   3.035 -0.2627 -3.0199  1.0505
  970MOL0     H30945   7.645  10.309   2.940 -0.5858 -0.1146 -3.8092
  970MOL0     H30946   7.946  10.296   2.646 -1.0293 -0.9426 -1.6060
  970MOL0     H30947   7.637  11.003   2.790  0.8861 -0.2124  1.3370
  970MOL0     H30948   7.574  11.269   2.666 -2.2778  0.5443  1.8217
  970MOL0     H30949   7.571  11.328   2.833 -2.0118  2.0481 -2.9192
  970MOL0     H30950   7.683  11.200   2.789  0.7042  0.5938  2.4531
  971MOL0     O30951   1.677  11.356   5.389 -0.7499 -0.3892  0.2873
  971MOL0     C30952   1.702  11.251   5.445 -0.0902 -0.2635  0.8610
  971MOL0     O30953   1.821  11.189   5.459 -0.3696 -0.8721  0.2447
  971MOL0     C30954   1.927  11.253   5.396  0.5123  0.4891 -0.6182
  971MOL0     C30955   1.975  11.193   5.273  0.1041 -0.2959 -0.4224
  971MOL0     C30956   2.101  11.240   5.218 -1.4811 -0.9973 -0.5424
  971MOL0     C30957   2.165  11.349   5.274  0.6145 -0.8804  0.1537
  971MOL0     O30958   2.276  11.400   5.207 -1.0143 -0.3449 -0.7302
  971MOL0     C30959   2.342  11.515   5.241 -0.3822  0.3899 -0.0011
  971MOL0     C30960   2.445  11.542   5.123  1.1685  0.3670  0.7292
  971MOL0     C30961   2.571  11.616   5.161  1.0113 -0.0130 -0.4076
  971MOL0     C30962   2.669  11.524   5.244 -0.8113  0.1872  0.5550
  971MOL0     C30963   2.803  11.596   5.271  0.3461  0.1399 -0.1284
  971MOL0     C30964   2.784  11.733   5.343 -0.4878 -0.6201  0.6803
  971MOL0     C30965   2.706  11.750   5.467  0.4185  0.6044 -0.2765
  971MOL0     C30966   2.787  11.763   5.591 -0.3026 -0.9314  0.7611
  971MOL0     N30967   2.712  11.784   5.714  0.3360  0.3074  0.1962
  971MOL0     C30968   2.602  11.707   5.753 -0.9552 -0.7543 -0.4479
  971MOL0     C30969   2.583  11.740   5.876  0.2837 -0.2096  0.0907
  971MOL0     C30970   2.468  11.711   5.968  0.0242  0.3489 -0.2960
  971MOL0     C30971   2.514  11.652   6.103 -0.1790  0.8600  0.0703
  971MOL0     C30972   2.526  11.501   6.111  0.1006  0.7139 -1.0387
  971MOL0     C30973   2.429  11.419   6.191  0.3767 -0.0822 -0.9573
  971MOL0     O30974   2.394  11.479   6.328  0.2016  0.1629 -0.1565
  971MOL0     C30975   2.258  11.480   6.362 -0.4068  0.4797 -0.4082
  971MOL0     C30976   2.159  11.394   6.317  0.8115 -0.4252  0.7370
  971MOL0     C30977   2.032  11.416   6.367  0.9891  0.8343 -0.4525
  971MOL0     C30978   2.007  11.509   6.475 -0.5741  0.1634  0.1031
  971MOL0     C30979   1.871  11.548   6.514 -0.8913  0.5196  0.4497
  971MOL0     O30980   1.853  11.664   6.584 -0.0021 -0.4688  0.2450
  971MOL0     C30981   1.725  11.687   6.622  0.5261 -0.8761  0.1367
  971MOL0     C30982   1.626  11.695   6.524 -0.4872 -0.3131  0.6893
  971MOL0     C30983   1.497  11.706   6.559  0.2574 -0.2849 -0.7065
  971MOL0     C30984   1.459  11.719   6.691  1.3401  1.1459 -0.4968
  971MOL0     O30985   1.324  11.716   6.724 -0.6086 -0.8991  0.5639
  971MOL0     C30986   1.262  11.595   6.686 -0.2009  0.2859 -0.8088
  971MOL0     C30987   1.121  11.620   6.631  0.6990  0.4458 -0.1997
  971MOL0     C30988   1.110  11.589   6.485  0.8013  0.2073 -0.2020
  971MOL0     C30989   1.006  11.668   6.411 -1.0281  0.0745 -0.0641
  971MOL0     C30990   0.976  11.615   6.264 -0.6376 -0.1174 -1.0363
  971MOL0     C30991   0.851  11.660   6.212  0.9669 -1.2439  0.6253
  971MOL0     C30992   0.735  11.614   6.310 -0.0070 -0.4550 -0.7295
  971MOL0     C30993   0.668  11.729   6.389 -0.0332 -0.2831  0.6157
  971MOL0    Cl30994   0.531  11.660   6.478 -0.0340 -0.4592 -0.1543
  971MOL0     C30995   1.550  11.714   6.793  0.1377  0.4567  0.4280
  971MOL0     C30996   1.686  11.700   6.751 -0.4392  0.0471  0.2344
  971MOL0     O30997   1.787  11.463   6.492 -0.7944 -0.3544  0.5987
  971MOL0     C30998   2.116  11.580   6.527 -0.0999 -0.3229  0.3817
  971MOL0     C30999   2.238  11.572   6.460  0.5477 -0.7299 -0.1659
  971MOL0     N31000   2.688  11.829   5.920  0.0583  0.1570 -0.4277
  971MOL0     N31001   2.764  11.849   5.822  0.7343  0.8920 -0.2740
  971MOL0     C31002   2.109  11.411   5.387  0.0470 -0.3563  0.3889
  971MOL0     C31003   1.991  11.361   5.447  0.0637 -0.0207  0.3399
  971MOL0     C31004   1.586  11.183   5.506 -0.1926 -0.1393  0.2214
  971MOL0     C31005   1.508  11.249   5.603  1.2560 -0.4887  0.8590
  971MOL0     C31006   1.408  11.184   5.674  0.2600 -1.0052  1.6087
  971MOL0     C31007   1.374  11.054   5.632  0.3015  0.2100  0.3808
  971MOL0     O31008   1.272  10.980   5.702 -0.4750 -0.4698 -0.1919
  971MOL0     C31009   1.283  10.841   5.705  0.1648 -0.6877 -0.3887
  971MOL0     C31010   1.187  10.804   5.825 -0.4777 -0.2113  0.6735
  971MOL0     C31011   1.157  10.652   5.827  0.7121  0.1211 -0.4296
  971MOL0     C31012   1.053  10.604   5.935  0.0951 -0.5552  0.0558
  971MOL0     C31013   0.920  10.669   5.908  0.2008  0.2473 -0.0654
  971MOL0     C31014   0.801  10.695   5.882  0.5633  0.5176  0.2720
  971MOL0     C31015   1.439  10.997   5.529 -0.6102 -0.4106  0.6042
  971MOL0     C31016   1.544  11.052   5.464 -0.8719  0.2315 -0.3259
  971MOL0     C31017   1.614  10.988   5.341 -0.7496 -0.0563 -0.5635
  971MOL0     H31018   1.918  11.107   5.240  1.8464 -1.3204 -0.8482
  971MOL0     H31019   2.157  11.196   5.137  1.8763 -2.8109  2.4905
  971MOL0     H31020   2.270  11.598   5.243 -0.1580  0.7371 -2.6794
  971MOL0     H31021   2.395  11.502   5.336  0.1659  0.4140 -0.3029
  971MOL0     H31022   2.393  11.589   5.040 -1.1783  1.4662  2.6996
  971MOL0     H31023   2.485  11.446   5.090 -0.0386 -1.1133  3.2483
  971MOL0     H31024   2.548  11.702   5.226 -1.2169  0.9978 -2.4130
  971MOL0     H31025   2.625  11.660   5.078  1.0803  0.1182 -0.2942
  971MOL0     H31026   2.620  11.471   5.326  2.8553 -2.0595  1.5196
  971MOL0     H31027   2.695  11.441   5.178 -0.4193  1.3723 -0.8506
  971MOL0     H31028   2.847  11.522   5.338 -4.9770 -1.1813  2.5041
  971MOL0     H31029   2.858  11.605   5.176  1.3247  0.8594  0.4886
  971MOL0     H31030   2.888  11.764   5.357 -0.0361 -1.3220 -0.8901
  971MOL0     H31031   2.737  11.801   5.271  3.1731  0.0757 -1.2887
  971MOL0     H31032   2.633  11.670   5.486  2.9881 -1.5927  0.9646
  971MOL0     H31033   2.650  11.841   5.446  1.7121  0.4648 -5.4435
  971MOL0     H31034   2.848  11.674   5.608 -2.1033 -1.9017  2.5910
  971MOL0     H31035   2.853  11.849   5.578 -1.5733 -0.3177 -2.5115
  971MOL0     H31036   2.540  11.647   5.687 -1.1772 -5.3641  3.4521
  971MOL0     H31037   2.415  11.806   5.980  2.0897  1.2895  2.2658
  971MOL0     H31038   2.404  11.637   5.919 -0.4647 -0.6395  1.7232
  971MOL0     H31039   2.614  11.696   6.115  0.4386  0.0384 -1.7388
  971MOL0     H31040   2.446  11.682   6.184 -2.0984 -0.8753 -0.8115
  971MOL0     H31041   2.617  11.477   6.167 -0.3591 -0.6144 -0.8238
  971MOL0     H31042   2.540  11.455   6.013 -0.3486 -1.5366 -0.1152
  971MOL0     H31043   2.467  11.320   6.217  0.4581  0.5419  1.5237
  971MOL0     H31044   2.342  11.407   6.124  0.6169 -0.9315 -1.1267
  971MOL0     H31045   2.172  11.316   6.243 -1.8962 -1.5173  1.2762
  971MOL0     H31046   1.950  11.360   6.323 -0.3084  2.0328  0.3157
  971MOL0     H31047   1.648  11.696   6.418 -1.8415 -0.0281  0.3987
  971MOL0     H31048   1.425  11.731   6.482  1.6650 -0.3767 -2.0934
  971MOL0     H31049   1.322  11.533   6.619  2.6235  0.8947  0.9574
  971MOL0     H31050   1.254  11.545   6.783 -1.6872  0.1626 -0.9705
  971MOL0     H31051   1.042  11.564   6.682  0.8850 -0.1248 -0.5367
  971MOL0     H31052   1.105  11.729   6.637 -0.8696  0.3371 -1.5399
  971MOL0     H31053   1.205  11.596   6.432  0.0092  2.9772 -1.4169
  971MOL0     H31054   1.085  11.483   6.488 -0.7826  0.4990 -1.6271
  971MOL0     H31055   1.048  11.769   6.412  0.4345 -0.5103  1.4303
  971MOL0     H31056   0.913  11.676   6.468  0.2451 -2.1208  2.5295
  971MOL0     H31057   0.982  11.506   6.258  0.2447  0.0040 -3.7722
  971MOL0     H31058   1.059  11.645   6.199  0.3394 -1.3205 -0.3920
  971MOL0     H31059   0.855  11.770   6.215  4.1765 -1.2724  0.1389
  971MOL0     H31060   0.837  11.628   6.109  4.1534 -1.4026  0.1616
  971MOL0     H31061   0.762  11.535   6.381 -2.1082 -0.6803 -0.1114
  971MOL0     H31062   0.655  11.562   6.255 -1.1001  2.9099 -2.5925
  971MOL0     H31063   0.735  11.781   6.458 -0.0871  2.7635 -1.4406
  971MOL0     H31064   0.641  11.794   6.305 -0.1326  0.4912  1.2361
  971MOL0     H31065   1.508  11.738   6.890 -1.3264  1.3479 -0.3906
  971MOL0     H31066   1.759  11.721   6.829 -0.2513  2.0241 -0.4212
  971MOL0     H31067   2.103  11.647   6.611  1.6619 -0.1329  0.5339
  971MOL0     H31068   2.312  11.642   6.497 -2.5864  2.7407  0.0811
  971MOL0     H31069   2.152  11.504   5.423 -0.6584  1.4911 -3.0784
  971MOL0     H31070   1.958  11.396   5.544 -1.5984 -0.6933  0.0527
  971MOL0     H31071   1.527  11.354   5.626 -1.5269  0.3294 -0.2098
  971MOL0     H31072   1.363  11.218   5.767  0.7668  1.6745  0.9538
  971MOL0     H31073   1.384  10.809   5.732  0.9652  1.7742 -0.2066
  971MOL0     H31074   1.247  10.797   5.612  0.2798 -2.3087  0.3002
  971MOL0     H31075   1.101  10.871   5.832  1.4967  2.5350  0.3850
  971MOL0     H31076   1.241  10.823   5.919  3.3087 -1.3549 -1.0403
  971MOL0     H31077   1.250  10.597   5.847  2.0309  0.8424 -3.8285
  971MOL0     H31078   1.141  10.618   5.725  2.3274 -1.4834 -0.2137
  971MOL0     H31079   1.044  10.495   5.936  2.0730 -0.7457  0.0669
  971MOL0     H31080   1.075  10.635   6.037 -4.0559 -0.2451  1.0509
  971MOL0     H31081   0.700  10.722   5.858  0.7946  3.7092  2.2626
  971MOL0     H31082   1.404  10.898   5.500  3.1254 -1.7433  0.0860
  971MOL0     H31083   1.581  11.048   5.256  3.0262  1.6360 -1.0724
  971MOL0     H31084   1.723  10.998   5.350 -0.9987  1.3299  2.1418
  971MOL0     H31085   1.588  10.883   5.328  1.5573 -1.1411  2.2651
  972MOL0     O31086   8.411   8.271   4.304  0.4958 -0.0819 -0.1177
  972MOL0     C31087   8.357   8.317   4.403 -0.8566 -0.1466  0.0821
  972MOL0     O31088   8.388   8.276   4.532  0.5305 -0.3134 -0.0768
  972MOL0     C31089   8.480   8.173   4.544  0.2852  0.4281 -0.0051
  972MOL0     C31090   8.445   8.034   4.546  0.2223  0.4540 -0.5794
  972MOL0     C31091   8.553   7.939   4.552  0.0619  0.2931 -0.7136
  972MOL0     C31092   8.681   7.975   4.586 -0.2470  0.9172  0.9334
  972MOL0     O31093   8.771   7.867   4.585 -0.3613 -0.0427  0.2491
  972MOL0     C31094   8.904   7.883   4.636 -0.7179  0.2555 -1.1090
  972MOL0     C31095   9.006   7.922   4.533  0.2985 -0.5267 -0.2783
  972MOL0     C31096   9.100   7.802   4.504  1.1561 -0.3385  0.1855
  972MOL0     C31097   9.185   7.854   4.396  0.7555 -0.2827 -0.3754
  972MOL0     C31098   9.309   7.761   4.383 -2.1414  0.5680 -0.5805
  972MOL0     C31099   9.426   7.821   4.473 -0.4630 -0.2461 -0.2332
  972MOL0     C31100   9.543   7.727   4.476  0.1465 -0.1954  0.2175
  972MOL0     C31101   9.509   7.618   4.572 -0.3021  0.1920 -0.1677
  972MOL0     N31102   9.599   7.495   4.575  0.2904 -0.4034  0.3183
  972MOL0     C31103   9.734   7.510   4.607 -0.4550 -0.4298 -0.8903
  972MOL0     C31104   9.796   7.405   4.548 -0.0451  0.5294  0.6956
  972MOL0     C31105   9.945   7.381   4.562  0.4057 -0.3295 -0.3242
  972MOL0     C31106   9.978   7.244   4.623  0.1520 -0.9675 -0.7981
  972MOL0     C31107  10.129   7.230   4.648  0.3984 -0.5771 -1.3445
  972MOL0     C31108  10.171   7.309   4.775  0.3265  0.1889 -0.1680
  972MOL0     O31109  10.295   7.251   4.808 -1.0033 -0.0869  0.3533
  972MOL0     C31110  10.321   7.227   4.944  0.3389 -0.0817  0.7020
  972MOL0     C31111  10.435   7.156   4.961 -0.2687 -0.4054 -0.2955
  972MOL0     C31112  10.480   7.109   5.090 -0.7831  0.1472  0.7344
  972MOL0     C31113  10.412   7.149   5.206  0.3348 -0.0028  0.2650
  972MOL0     C31114  10.464   7.108   5.341 -0.2573 -0.3492  1.1900
  972MOL0     O31115  10.382   7.140   5.442 -0.5071 -0.0918 -0.5427
  972MOL0     C31116  10.418   7.096   5.569 -0.1749  0.0221 -0.5513
  972MOL0     C31117  10.333   7.004   5.639 -0.7176  0.7502  0.2577
  972MOL0     C31118  10.373   6.959   5.767 -0.1930  0.5666 -0.7192
  972MOL0     C31119  10.490   7.007   5.824  0.0601 -0.3924 -0.0557
  972MOL0     O31120  10.529   6.955   5.937 -0.7891 -0.4216 -0.2437
  972MOL0     C31121  10.504   7.034   6.047  1.0391 -0.3895  0.0480
  972MOL0     C31122  10.449   6.937   6.154  0.2779 -1.0713 -0.2075
  972MOL0     C31123  10.306   6.890   6.134 -0.2270  0.7857 -0.2638
  972MOL0     C31124  10.254   6.796   6.249 -0.2801  0.6261 -0.4141
  972MOL0     C31125  10.110   6.759   6.234  0.4970 -0.0237 -1.1381
  972MOL0     C31126  10.065   6.636   6.322  0.8741  0.2959 -1.0180
  972MOL0     C31127   9.913   6.611   6.349  0.7984  0.3140 -0.5587
  972MOL0     C31128   9.877   6.466   6.326  1.1175  1.1437 -0.6141
  972MOL0    Cl31129   9.701   6.465   6.320  0.3279 -0.2126  0.1672
  972MOL0     C31130  10.581   7.081   5.740 -0.6278  0.1622 -0.3066
  972MOL0     C31131  10.543   7.133   5.614 -0.1328 -0.3204  0.3723
  972MOL0     O31132  10.562   7.033   5.344 -0.4459 -0.6820  0.0480
  972MOL0     C31133  10.288   7.211   5.190  0.6664 -0.4388  0.0949
  972MOL0     C31134  10.241   7.245   5.057  0.2173 -0.7354 -0.5391
  972MOL0     N31135   9.696   7.320   4.494 -0.0830 -0.3558 -0.6612
  972MOL0     N31136   9.580   7.380   4.515  0.4916  0.2392  0.6001
  972MOL0     C31137   8.715   8.109   4.596  0.6980  0.2450  0.2946
  972MOL0     C31138   8.612   8.203   4.566 -0.6353  1.0858  0.2356
  972MOL0     C31139   8.275   8.443   4.398 -0.3232 -0.0933 -0.3533
  972MOL0     C31140   8.289   8.542   4.506  0.3278 -0.0619 -0.3658
  972MOL0     C31141   8.230   8.665   4.503 -0.7221 -0.2698  0.2004
  972MOL0     C31142   8.142   8.691   4.399 -1.0302  0.2545 -0.6116
  972MOL0     O31143   8.077   8.809   4.411 -0.0733  0.3534 -0.9205
  972MOL0     C31144   7.938   8.816   4.398  0.0474 -0.2498  0.0139
  972MOL0     C31145   7.887   8.938   4.323  0.5278  0.6400  0.7866
  972MOL0     C31146   7.873   9.049   4.419  0.1912 -0.0093  0.8717
  972MOL0     C31147   7.846   9.182   4.349 -0.1607 -0.0616  0.6471
  972MOL0     C31148   7.693   9.196   4.340 -0.7089  0.1048 -0.7946
  972MOL0     C31149   7.573   9.192   4.326  0.4312 -0.8771  0.0741
  972MOL0     C31150   8.116   8.597   4.302 -0.0104  0.1371  0.2917
  972MOL0     C31151   8.179   8.473   4.297 -0.8802 -0.3808 -0.6980
  972MOL0     C31152   8.174   8.391   4.168  0.0201  0.1436  0.7171
  972MOL0     H31153   8.346   7.995   4.526  0.9618 -1.7822 -0.1108
  972MOL0     H31154   8.531   7.833   4.542  1.5486 -0.3026  1.4436
  972MOL0     H31155   8.912   7.956   4.716 -0.3263 -0.3036 -0.6310
  972MOL0     H31156   8.939   7.787   4.675 -0.8297  1.0043  0.9321
  972MOL0     H31157   9.056   8.010   4.577 -2.2190  0.8720  0.0002
  972MOL0     H31158   8.962   7.955   4.439  0.8187  2.3374  0.3675
  972MOL0     H31159   9.041   7.717   4.467 -2.4056  2.4497 -1.1415
  972MOL0     H31160   9.161   7.777   4.591 -0.5770  0.7071  1.7738
  972MOL0     H31161   9.124   7.849   4.305 -3.1750 -0.0637  2.0116
  972MOL0     H31162   9.223   7.957   4.406  1.5931 -0.6082 -0.1406
  972MOL0     H31163   9.274   7.660   4.410 -3.8607  1.0238 -0.9835
  972MOL0     H31164   9.347   7.750   4.281 -0.2311 -1.8015  0.2607
  972MOL0     H31165   9.464   7.911   4.423 -0.4181 -0.7203 -1.0695
  972MOL0     H31166   9.400   7.860   4.572  2.2520  0.5267  0.2554
  972MOL0     H31167   9.638   7.775   4.503 -1.3021  3.3459 -0.3922
  972MOL0     H31168   9.568   7.682   4.379 -2.5375 -0.2760 -0.5226
  972MOL0     H31169   9.507   7.661   4.673 -2.2010 -2.1005  0.8599
  972MOL0     H31170   9.412   7.578   4.541  0.0059 -0.8854  0.2202
  972MOL0     H31171   9.785   7.595   4.653 -1.7219 -0.6870  1.0918
  972MOL0     H31172   9.974   7.390   4.457 -0.8632  0.3814 -0.6291
  972MOL0     H31173   9.989   7.464   4.618  0.4547 -2.6519  3.3894
  972MOL0     H31174   9.939   7.248   4.725 -0.6748 -1.9024 -1.0683
  972MOL0     H31175   9.939   7.158   4.568 -2.1434  0.6400 -1.8843
  972MOL0     H31176  10.194   7.262   4.566  0.0398  1.8961 -0.7345
  972MOL0     H31177  10.149   7.125   4.671 -1.1383 -0.5635  0.2760
  972MOL0     H31178  10.093   7.289   4.849 -1.9310 -1.4752 -2.7918
  972MOL0     H31179  10.186   7.412   4.741  2.1156  0.0749  0.1928
  972MOL0     H31180  10.500   7.138   4.876 -0.4577 -0.9907 -0.3228
  972MOL0     H31181  10.575   7.058   5.091  0.8518  2.8262 -1.6016
  972MOL0     H31182  10.240   6.955   5.613 -0.6646  0.9645 -0.3366
  972MOL0     H31183  10.320   6.882   5.821  0.8490 -2.0624 -3.1720
  972MOL0     H31184  10.593   7.091   6.074  1.4380 -0.1377 -1.7003
  972MOL0     H31185  10.424   7.105   6.026 -1.0889 -2.6624 -0.1303
  972MOL0     H31186  10.523   6.856   6.162 -1.8542 -3.2236 -1.1795
  972MOL0     H31187  10.448   6.997   6.246  1.4324 -1.7018  0.2503
  972MOL0     H31188  10.263   6.989   6.151 -0.0749  1.3106 -2.6553
  972MOL0     H31189  10.272   6.853   6.037 -5.2253 -0.8966  1.7999
  972MOL0     H31190  10.270   6.855   6.339 -3.4701  1.5091 -0.3128
  972MOL0     H31191  10.304   6.699   6.246 -1.2407  0.1387 -1.6992
  972MOL0     H31192  10.091   6.742   6.128  3.4596 -0.1862 -1.7353
  972MOL0     H31193  10.052   6.843   6.271 -0.0046 -0.3811 -1.0965
  972MOL0     H31194  10.098   6.543   6.274  2.4250 -0.0446  0.5768
  972MOL0     H31195  10.106   6.646   6.423  1.0772  1.0848 -1.1719
  972MOL0     H31196   9.858   6.687   6.291  2.0968  2.3165  0.7251
  972MOL0     H31197   9.890   6.621   6.455 -1.5581 -1.0880 -0.8672
  972MOL0     H31198   9.914   6.427   6.230  0.4737  0.3929 -0.5719
  972MOL0     H31199   9.916   6.408   6.410  1.1904  0.8650 -0.8381
  972MOL0     H31200  10.676   7.112   5.781 -1.0415  0.3759  0.5187
  972MOL0     H31201  10.599   7.194   5.544 -1.1714  1.6482  1.1780
  972MOL0     H31202  10.229   7.259   5.267 -0.7172 -0.9355 -0.6303
  972MOL0     H31203  10.147   7.296   5.043 -1.0115 -1.8132  2.7195
  972MOL0     H31204   8.819   8.134   4.613  0.4528 -0.7269  3.8757
  972MOL0     H31205   8.625   8.309   4.581  1.6193  0.9514 -0.4847
  972MOL0     H31206   8.355   8.524   4.590  0.4671  0.5931 -0.3289
  972MOL0     H31207   8.244   8.746   4.573 -0.0469 -0.3325  0.1475
  972MOL0     H31208   7.882   8.791   4.488 -0.3620  0.4790 -0.0281
  972MOL0     H31209   7.897   8.740   4.331 -3.7358  2.1164 -0.6490
  972MOL0     H31210   7.787   8.918   4.282  0.9909  1.2793 -0.7466
  972MOL0     H31211   7.952   8.961   4.237 -0.4265  1.5295  0.2812
  972MOL0     H31212   7.968   9.065   4.470  2.6719  3.0173 -3.9421
  972MOL0     H31213   7.796   9.018   4.490  0.2813 -4.2588 -0.5836
  972MOL0     H31214   7.885   9.255   4.420 -0.2068  1.9477 -1.2803
  972MOL0     H31215   7.895   9.193   4.252 -1.7036  0.1074 -0.1431
  972MOL0     H31216   7.469   9.169   4.317  0.0681  0.4696  0.6657
  972MOL0     H31217   8.056   8.625   4.216 -1.2249 -2.2349  0.2837
  972MOL0     H31218   8.162   8.282   4.169 -0.5749  0.1551 -1.4046
  972MOL0     H31219   8.112   8.430   4.088 -0.3226 -1.1483  0.3260
  972MOL0     H31220   8.275   8.405   4.128  0.7594 -4.9770  0.0568
  973MOL0     O31221   3.203  10.560   5.921  0.4917 -0.1074 -0.8004
  973MOL0     C31222   3.153  10.479   5.848  0.2251  0.5495  0.3905
  973MOL0     O31223   3.216  10.398   5.759 -0.5090  0.5807 -0.3716
  973MOL0     C31224   3.354  10.422   5.729 -0.5033  0.2081 -0.5852
  973MOL0     C31225   3.447  10.317   5.757  0.2272 -0.8568 -0.1100
  973MOL0     C31226   3.586  10.332   5.730  0.0767  0.0086  0.4665
  973MOL0     C31227   3.643  10.456   5.682  0.9756  0.6857 -0.1730
  973MOL0     O31228   3.777  10.496   5.682 -0.2065 -0.3659  0.3898
  973MOL0     C31229   3.863  10.395   5.747  0.6213 -0.1901 -0.9803
  973MOL0     C31230   4.003  10.442   5.725 -0.0097 -0.2629  0.3382
  973MOL0     C31231   4.109  10.352   5.780  0.1944  0.0179  0.1143
  973MOL0     C31232   4.250  10.421   5.768 -0.4823  0.0991  0.1144
  973MOL0     C31233   4.359  10.323   5.783 -1.2393  0.7785  0.4776
  973MOL0     C31234   4.493  10.396   5.775 -0.6252  0.8649  0.5240
  973MOL0     C31235   4.596  10.298   5.714 -0.5373  0.0224 -0.0000
  973MOL0     C31236   4.730  10.363   5.688  0.7644 -0.5942 -1.5091
  973MOL0     N31237   4.806  10.381   5.820  1.4029 -0.3240 -0.5534
  973MOL0     C31238   4.863  10.501   5.848 -0.7680 -0.1015 -0.5898
  973MOL0     C31239   4.986  10.470   5.908  0.7281 -0.2070 -0.0232
  973MOL0     C31240   5.087  10.571   5.960 -0.0444 -0.2140 -0.2971
  973MOL0     C31241   5.029  10.666   6.064  0.1047  0.5278 -0.3393
  973MOL0     C31242   5.132  10.779   6.091 -0.8436 -0.2456 -0.0764
  973MOL0     C31243   5.056  10.896   6.155  0.6742  0.4679 -0.4301
  973MOL0     O31244   4.947  10.961   6.086  0.8743  1.3308  0.2747
  973MOL0     C31245   4.985  11.056   5.993 -0.1515 -0.5131 -0.4898
  973MOL0     C31246   5.002  11.021   5.859  0.2686  1.0258 -0.3169
  973MOL0     C31247   5.046  11.122   5.768  0.6580 -0.5125 -0.0342
  973MOL0     C31248   5.068  11.254   5.809 -0.1989 -0.0080 -0.0981
  973MOL0     C31249   5.089  11.374   5.712  0.4387 -0.0388 -0.3196
  973MOL0     O31250   5.149  11.480   5.766 -0.7661  0.5511 -0.4788
  973MOL0     C31251   5.188  11.583   5.682 -1.3329 -0.3825  0.7197
  973MOL0     C31252   5.323  11.583   5.628  0.0720 -0.3695  0.2616
  973MOL0     C31253   5.379  11.692   5.565  0.4288  0.8961  0.5067
  973MOL0     C31254   5.294  11.795   5.536 -0.0068 -0.2702 -0.1196
  973MOL0     O31255   5.346  11.906   5.463 -1.2312  1.0006  0.1242
  973MOL0     C31256   5.256  12.002   5.407  0.6151 -0.4707  0.3821
  973MOL0     C31257   5.328  12.088   5.294 -0.4563 -0.1972 -0.4520
  973MOL0     C31258   5.367  12.006   5.172  0.7745  0.7851  0.3277
  973MOL0     C31259   5.449  12.078   5.070  0.0717 -0.4992 -0.0260
  973MOL0     C31260   5.506  11.985   4.955  0.4396  0.0368  0.1099
  973MOL0     C31261   5.558  12.070   4.843 -0.4035  0.4775 -0.3752
  973MOL0     C31262   5.618  12.002   4.726 -0.3145  0.3510 -1.0885
  973MOL0     C31263   5.757  11.927   4.750  0.8795  0.1254 -0.9921
  973MOL0    Cl31264   5.798  11.860   4.585  0.4085 -0.0373  0.2179
  973MOL0     C31265   5.161  11.799   5.582  0.4664 -0.7574 -0.4461
  973MOL0     C31266   5.110  11.693   5.659 -0.2486 -0.1213 -1.0582
  973MOL0     O31267   5.077  11.350   5.592  0.3902 -0.1745 -0.5005
  973MOL0     C31268   5.059  11.287   5.938  0.4345 -0.2087 -0.1027
  973MOL0     C31269   5.021  11.191   6.028 -0.2588  0.7131  0.0788
  973MOL0     N31270   5.003  10.335   5.907 -0.9216  0.3442  0.0388
  973MOL0     N31271   4.891  10.284   5.857 -0.4710  0.6131  0.2298
  973MOL0     C31272   3.549  10.560   5.669 -0.7553  0.0382 -0.0631
  973MOL0     C31273   3.411  10.543   5.684 -0.6159  0.2696  0.3978
  973MOL0     C31274   3.006  10.447   5.855 -0.5454 -0.6443 -1.3720
  973MOL0     C31275   2.967  10.310   5.828 -0.9391  0.1266  0.4796
  973MOL0     C31276   2.836  10.272   5.860  0.1456 -0.4501  1.0488
  973MOL0     C31277   2.746  10.359   5.915  0.1147  0.3752  0.2512
  973MOL0     O31278   2.634  10.303   5.962 -0.2290  0.2544  0.1504
  973MOL0     C31279   2.549  10.261   5.859 -0.6207  0.2264 -0.3735
  973MOL0     C31280   2.417  10.341   5.864  0.4583  0.6049 -0.9875
  973MOL0     C31281   2.428  10.490   5.834  0.0334 -0.0504 -0.0739
  973MOL0     C31282   2.322  10.575   5.910 -0.2439  0.0375 -0.6255
  973MOL0     C31283   2.324  10.708   5.849 -0.4462  1.1180  0.3329
  973MOL0     C31284   2.311  10.817   5.797 -0.3906 -0.4802 -0.6486
  973MOL0     C31285   2.783  10.492   5.953  0.3419  0.8426  0.6208
  973MOL0     C31286   2.907  10.539   5.906  0.2694 -0.6919 -0.1056
  973MOL0     C31287   2.943  10.689   5.918  0.2187  0.5667  0.2218
  973MOL0     H31288   3.415  10.223   5.799 -0.1761 -0.2137  1.0794
  973MOL0     H31289   3.648  10.246   5.755  1.3933  0.8855  0.3417
  973MOL0     H31290   3.845  10.391   5.855  2.7566  2.7158 -0.3975
  973MOL0     H31291   3.841  10.296   5.705 -0.8478  0.8649 -2.8460
  973MOL0     H31292   4.014  10.536   5.780 -2.4091  0.7437 -0.7571
  973MOL0     H31293   4.026  10.460   5.619 -0.4346  1.0284  0.4483
  973MOL0     H31294   4.104  10.258   5.726  2.0688 -1.0590  1.6808
  973MOL0     H31295   4.085  10.340   5.887  1.7195 -0.2615  0.4454
  973MOL0     H31296   4.255  10.466   5.669  0.1223 -2.7225 -1.2328
  973MOL0     H31297   4.265  10.485   5.856 -1.1185  0.8708 -0.3298
  973MOL0     H31298   4.350  10.285   5.885 -3.7509  1.0627  0.4284
  973MOL0     H31299   4.337  10.240   5.715  0.8752  1.7758 -1.5749
  973MOL0     H31300   4.483  10.474   5.699 -1.5039  1.0479  0.8179
  973MOL0     H31301   4.512  10.429   5.878 -0.1463 -1.9329  1.4042
  973MOL0     H31302   4.561  10.258   5.618  1.6209  1.3698 -1.4203
  973MOL0     H31303   4.618  10.210   5.776 -1.0856 -0.7601 -0.8880
  973MOL0     H31304   4.784  10.297   5.620 -0.7069  0.8931 -4.2993
  973MOL0     H31305   4.721  10.462   5.642 -1.8473  1.4257  2.6456
  973MOL0     H31306   4.831  10.600   5.818 -4.2206 -1.4339 -1.7311
  973MOL0     H31307   5.169  10.516   6.006 -0.3423 -0.1890  0.2755
  973MOL0     H31308   5.130  10.641   5.888 -1.9764  3.4052  1.7086
  973MOL0     H31309   4.945  10.713   6.014  0.1727 -1.6528 -2.7556
  973MOL0     H31310   4.994  10.610   6.151  1.7871 -1.2224 -0.7178
  973MOL0     H31311   5.183  10.808   5.999  2.5436 -1.4520  1.2828
  973MOL0     H31312   5.220  10.745   6.146 -0.7427  2.8983  1.9698
  973MOL0     H31313   5.122  10.980   6.179  1.0359 -0.2361  1.1523
  973MOL0     H31314   5.023  10.858   6.252  0.0368  1.2166 -0.3404
  973MOL0     H31315   5.001  10.917   5.830 -1.5169  0.5193  1.3484
  973MOL0     H31316   5.079  11.093   5.669 -3.3773  0.1804 -1.7643
  973MOL0     H31317   5.380  11.492   5.643 -1.7203 -1.5479  0.2529
  973MOL0     H31318   5.484  11.697   5.537 -0.4235  2.3087 -2.8943
  973MOL0     H31319   5.163  11.957   5.370 -0.2036  2.4442 -1.4281
  973MOL0     H31320   5.217  12.056   5.494  1.3508  2.6752 -1.0745
  973MOL0     H31321   5.260  12.168   5.265 -1.8190 -0.3840  2.0110
  973MOL0     H31322   5.418  12.129   5.342 -1.5788  1.6369  0.1840
  973MOL0     H31323   5.429  11.920   5.199  3.4853  2.5311  0.0318
  973MOL0     H31324   5.272  11.973   5.129  0.8828  0.2620  0.4703
  973MOL0     H31325   5.530  12.135   5.117  0.0477 -1.2567  0.9613
  973MOL0     H31326   5.387  12.154   5.021 -1.4413 -0.2505  2.1001
  973MOL0     H31327   5.429  11.915   4.920 -1.5962  1.9551  0.5590
  973MOL0     H31328   5.583  11.920   4.997  1.4284  1.3782  0.4168
  973MOL0     H31329   5.485  12.142   4.806 -1.4509 -0.1563  0.3701
  973MOL0     H31330   5.638  12.137   4.875 -0.1921 -1.0836  2.8021
  973MOL0     H31331   5.637  12.090   4.665  0.3085  0.4700 -0.7263
  973MOL0     H31332   5.550  11.932   4.675 -1.3306 -0.2105  0.9513
  973MOL0     H31333   5.828  11.994   4.799 -1.6921  0.0869  3.3220
  973MOL0     H31334   5.741  11.843   4.818  1.2436 -0.5395 -1.7011
  973MOL0     H31335   5.096  11.880   5.552  0.0154 -0.9646 -0.0451
  973MOL0     H31336   5.016  11.684   5.713  0.8004 -4.2855  0.4473
  973MOL0     H31337   5.073  11.393   5.956  1.9989 -0.1410 -1.3943
  973MOL0     H31338   5.017  11.212   6.135  2.8537 -1.0796  0.6633
  973MOL0     H31339   3.592  10.658   5.649 -1.3479  0.7505  1.8631
  973MOL0     H31340   3.349  10.630   5.666  2.2049  2.0721 -1.4613
  973MOL0     H31341   3.043  10.238   5.799  0.1584  0.7832  1.6422
  973MOL0     H31342   2.799  10.176   5.827  0.6137 -0.0326 -0.7748
  973MOL0     H31343   2.526  10.155   5.852 -0.6734  0.3331 -2.0039
  973MOL0     H31344   2.592  10.286   5.762 -2.1920 -1.6070 -1.5866
  973MOL0     H31345   2.390  10.331   5.970  2.9893  3.3091  0.0663
  973MOL0     H31346   2.329  10.303   5.811  0.0679 -2.7389  1.7126
  973MOL0     H31347   2.426  10.496   5.725 -0.6053 -1.4597 -0.1664
  973MOL0     H31348   2.527  10.526   5.864  1.0605 -1.8307 -1.1432
  973MOL0     H31349   2.217  10.545   5.916 -0.4030  0.1795 -2.4234
  973MOL0     H31350   2.346  10.592   6.016  1.5076  2.2674 -1.3091
  973MOL0     H31351   2.312  10.914   5.751  0.1553 -0.9551 -1.6686
  973MOL0     H31352   2.719  10.554   6.014 -0.8854  1.2691 -1.0042
  973MOL0     H31353   3.014  10.703   6.000  1.4288  1.0673 -0.8729
  973MOL0     H31354   3.003  10.728   5.835 -0.0468 -2.7711 -1.7436
  973MOL0     H31355   2.851  10.747   5.929  0.3334  0.6185  0.9134
  974MOL0     O31356   8.777   9.623   0.462 -0.9025  0.2536 -0.5332
  974MOL0     C31357   8.856   9.724   0.464 -0.2308 -0.3704  0.2064
  974MOL0     O31358   8.951   9.744   0.560 -0.4627 -0.1751 -0.0287
  974MOL0     C31359   8.973   9.670   0.668 -1.2530  0.7436  0.5593
  974MOL0     C31360   9.099   9.684   0.707  1.1078 -0.2933 -0.8094
  974MOL0     C31361   9.142   9.607   0.822 -0.3047 -0.1715 -0.1645
  974MOL0     C31362   9.064   9.507   0.875  0.5564  0.7782  1.5689
  974MOL0     O31363   9.109   9.434   0.982  0.1845 -0.2567  0.1873
  974MOL0     C31364   9.167   9.499   1.097  0.8844  0.0224  0.0497
  974MOL0     C31365   9.256   9.405   1.166  0.5277  0.5641 -0.2357
  974MOL0     C31366   9.276   9.445   1.311 -0.2932  0.4674 -0.3008
  974MOL0     C31367   9.379   9.346   1.371 -1.2289  0.1401  0.1503
  974MOL0     C31368   9.312   9.210   1.417 -0.5014 -0.6809 -0.1254
  974MOL0     C31369   9.233   9.227   1.538 -0.8900  0.7873  0.3419
  974MOL0     C31370   9.236   9.101   1.628  0.2816 -0.2705  0.0329
  974MOL0     C31371   9.153   9.124   1.750 -0.5702 -0.3585 -0.2266
  974MOL0     N31372   9.185   9.011   1.834 -0.0872  0.2278 -0.3529
  974MOL0     C31373   9.142   8.882   1.824  0.2679  0.3751 -1.2136
  974MOL0     C31374   9.219   8.801   1.909  0.4274 -0.4064 -1.2045
  974MOL0     C31375   9.218   8.651   1.926  0.0300  0.2493 -0.2124
  974MOL0     C31376   9.361   8.598   1.928 -0.4139  0.0787 -0.4993
  974MOL0     C31377   9.443   8.648   1.807  0.4945 -0.4393 -0.2386
  974MOL0     C31378   9.577   8.573   1.785 -0.4519 -0.2368 -0.0550
  974MOL0     O31379   9.554   8.438   1.738  1.3838 -0.1916 -0.6843
  974MOL0     C31380   9.659   8.361   1.708  1.1570 -0.5808 -0.5810
  974MOL0     C31381   9.770   8.358   1.789 -0.1427  0.9889 -0.2597
  974MOL0     C31382   9.880   8.269   1.753  0.6669 -0.2670 -0.8475
  974MOL0     C31383   9.875   8.182   1.645  0.6812 -0.8944  0.2010
  974MOL0     C31384   9.995   8.101   1.614 -1.3252 -0.1755 -0.0129
  974MOL0     O31385  10.123   8.147   1.658  0.1616 -0.1755 -0.3212
  974MOL0     C31386  10.236   8.098   1.599 -1.4274  0.0996 -0.2809
  974MOL0     C31387  10.299   8.183   1.503 -1.1192  0.6271 -0.4458
  974MOL0     C31388  10.415   8.139   1.436  0.3996  0.0694  0.8526
  974MOL0     C31389  10.477   8.017   1.467  0.4726  0.0874  0.5572
  974MOL0     O31390  10.573   7.958   1.384  0.1610  0.1572 -0.5470
  974MOL0     C31391  10.686   8.047   1.356 -0.1454  0.2937  0.1868
  974MOL0     C31392  10.782   8.068   1.482 -0.3202 -1.2828  0.2345
  974MOL0     C31393  10.874   7.951   1.529  0.0990  0.6988 -0.8743
  974MOL0     C31394  10.976   7.922   1.419  0.3439  0.4017  0.3831
  974MOL0     C31395  11.105   7.884   1.496  0.6169  0.2203  0.1658
  974MOL0     C31396  11.207   7.853   1.386  0.5348  0.5246 -0.0785
  974MOL0     C31397  11.338   7.797   1.436 -0.0705  0.7677  0.0120
  974MOL0     C31398  11.318   7.653   1.494  0.7954  0.4078 -1.1889
  974MOL0    Cl31399  11.242   7.540   1.380 -0.6175 -0.0135 -0.3842
  974MOL0     C31400  10.409   7.934   1.562 -0.6867 -0.7524 -0.0003
  974MOL0     C31401  10.287   7.965   1.622 -0.7726 -0.0213  0.2066
  974MOL0     O31402   9.975   8.010   1.538  0.2548  0.6175  1.2040
  974MOL0     C31403   9.756   8.194   1.566  0.1932  0.2077 -0.0895
  974MOL0     C31404   9.640   8.274   1.603  0.4657 -0.8737 -0.1067
  974MOL0     N31405   9.286   8.897   1.992 -0.3630  0.1209  0.7277
  974MOL0     N31406   9.263   9.014   1.947 -0.4344  0.2682 -0.0282
  974MOL0     C31407   8.953   9.467   0.808 -0.0118 -0.1236  0.1615
  974MOL0     C31408   8.903   9.560   0.715  0.1739 -0.9078 -0.5198
  974MOL0     C31409   8.829   9.824   0.352  0.3919 -0.1320  0.1161
  974MOL0     C31410   8.730   9.791   0.254  0.1673 -0.4324 -1.8389
  974MOL0     C31411   8.704   9.878   0.157  0.5794 -0.5260 -0.9996
  974MOL0     C31412   8.779   9.986   0.131 -0.5223 -0.3635  0.4171
  974MOL0     O31413   8.737  10.048   0.011 -0.2238  0.0642 -0.7683
  974MOL0     C31414   8.822  10.142  -0.060  0.6077 -0.5212 -0.0369
  974MOL0     C31415   8.969  10.104  -0.076  0.0903 -0.5072  1.1176
  974MOL0     C31416   9.039  10.176  -0.196 -0.2895 -1.0777  0.0254
  974MOL0     C31417   9.072  10.328  -0.155  0.1511  0.1747 -0.9855
  974MOL0     C31418   9.159  10.341  -0.031 -0.1400 -1.2216 -0.0647
  974MOL0     C31419   9.218  10.356   0.071 -0.5546 -0.1740  0.6688
  974MOL0     C31420   8.871  10.019   0.216 -0.3666  0.1992 -0.5647
  974MOL0     C31421   8.893   9.954   0.335  0.4367  1.1101  0.1887
  974MOL0     C31422   8.999  10.018   0.423 -0.1612  0.1243  1.0858
  974MOL0     H31423   9.157   9.766   0.666 -0.6437 -0.3194 -3.6241
  974MOL0     H31424   9.242   9.623   0.861 -0.5556 -1.0577  0.8902
  974MOL0     H31425   9.211   9.597   1.073 -1.4669  0.4889 -3.0310
  974MOL0     H31426   9.087   9.527   1.167  1.5769  0.6296  0.6155
  974MOL0     H31427   9.348   9.389   1.110  0.0574  1.6437 -1.3598
  974MOL0     H31428   9.215   9.304   1.161  1.6745  0.1053 -0.7007
  974MOL0     H31429   9.180   9.456   1.363 -0.6817  3.4479 -1.4565
  974MOL0     H31430   9.330   9.540   1.320  1.9550 -0.5777 -1.8554
  974MOL0     H31431   9.449   9.325   1.290  2.1913 -2.0416  3.4070
  974MOL0     H31432   9.434   9.399   1.448 -2.6111 -0.7574  1.8410
  974MOL0     H31433   9.245   9.175   1.339  2.2578 -0.9797 -2.5410
  974MOL0     H31434   9.386   9.129   1.424  1.1697  0.4556 -3.0498
  974MOL0     H31435   9.275   9.312   1.592  0.0293 -0.1971  1.2258
  974MOL0     H31436   9.130   9.246   1.506 -0.6722  2.4040  0.5395
  974MOL0     H31437   9.335   9.063   1.653 -1.1810 -2.2887  3.5291
  974MOL0     H31438   9.200   9.014   1.573  0.5312 -0.0044 -0.5596
  974MOL0     H31439   9.169   9.219   1.802 -2.1277 -1.8942  3.4138
  974MOL0     H31440   9.045   9.126   1.735 -0.6888 -1.5974  0.3390
  974MOL0     H31441   9.068   8.835   1.759 -2.0274  2.3333 -0.1686
  974MOL0     H31442   9.164   8.628   2.018  2.2794  0.2362  1.1685
  974MOL0     H31443   9.167   8.601   1.843  0.9752  0.0893 -0.7188
  974MOL0     H31444   9.403   8.625   2.025 -1.7457 -1.5683  0.6018
  974MOL0     H31445   9.347   8.489   1.927 -1.1316 -0.0810  4.1278
  974MOL0     H31446   9.463   8.755   1.817  0.1221 -0.1474 -2.1542
  974MOL0     H31447   9.387   8.634   1.714  1.0070  1.3013 -0.8616
  974MOL0     H31448   9.645   8.587   1.869  2.0455  3.2898 -2.3405
  974MOL0     H31449   9.630   8.633   1.710 -3.3836 -1.1072 -3.0976
  974MOL0     H31450   9.782   8.422   1.876 -0.2987  0.0173  0.5025
  974MOL0     H31451   9.971   8.271   1.813  0.1402 -0.8308 -0.0036
  974MOL0     H31452  10.256   8.271   1.457 -0.3704  0.2960 -1.8534
  974MOL0     H31453  10.451   8.201   1.355  0.4082 -1.1661 -0.1258
  974MOL0     H31454  10.751   8.003   1.280 -1.5393  0.4889 -1.1669
  974MOL0     H31455  10.651   8.144   1.317  0.1446  0.3902  0.1683
  974MOL0     H31456  10.843   8.158   1.476  1.6571 -2.6275 -1.0787
  974MOL0     H31457  10.707   8.089   1.559 -1.4731  0.3201 -1.2732
  974MOL0     H31458  10.925   7.997   1.614  2.3154  0.1434 -1.8210
  974MOL0     H31459  10.817   7.864   1.563  0.9559 -0.0631 -1.3380
  974MOL0     H31460  10.987   8.017   1.367  0.1559  1.5760  2.3878
  974MOL0     H31461  10.953   7.844   1.346 -2.2295  1.3199  0.1051
  974MOL0     H31462  11.093   7.799   1.564 -0.3356  0.3826  0.2123
  974MOL0     H31463  11.143   7.964   1.561 -2.3074  2.2147 -0.3664
  974MOL0     H31464  11.170   7.775   1.319 -0.1042 -0.7492  1.6704
  974MOL0     H31465  11.213   7.940   1.320 -0.3680 -2.2283 -4.1842
  974MOL0     H31466  11.384   7.856   1.515  0.2476 -3.4553  3.3438
  974MOL0     H31467  11.415   7.782   1.360  1.3237  1.9846  1.1350
  974MOL0     H31468  11.418   7.621   1.524  0.7571 -0.0983 -1.5792
  974MOL0     H31469  11.259   7.652   1.586 -0.2500 -2.3472 -1.7730
  974MOL0     H31470  10.441   7.830   1.561  2.0568 -0.1380 -4.8778
  974MOL0     H31471  10.239   7.890   1.683  3.2370 -1.1562  2.2885
  974MOL0     H31472   9.752   8.138   1.474  0.3394  1.0725 -0.6340
  974MOL0     H31473   9.555   8.274   1.536  0.2941 -0.4854  0.1062
  974MOL0     H31474   8.891   9.381   0.830 -3.1927  1.1447 -2.7986
  974MOL0     H31475   8.803   9.545   0.678  0.8778 -2.1059 -2.0020
  974MOL0     H31476   8.668   9.702   0.260 -4.3182  2.4654  1.6695
  974MOL0     H31477   8.630   9.831   0.093  0.9711 -1.4376 -0.7923
  974MOL0     H31478   8.818  10.241  -0.015 -1.5991  0.0892 -1.4035
  974MOL0     H31479   8.777  10.143  -0.160 -3.4852 -1.4419  1.5925
  974MOL0     H31480   8.973   9.996  -0.093 -1.4976 -0.1969 -1.9517
  974MOL0     H31481   9.022  10.130   0.016  0.5096 -0.7545  0.9497
  974MOL0     H31482   8.966  10.160  -0.277 -1.0610 -0.8870  0.6678
  974MOL0     H31483   9.129  10.119  -0.219 -0.7653 -0.8786 -2.6740
  974MOL0     H31484   9.123  10.386  -0.233 -1.3039  4.1506  0.7709
  974MOL0     H31485   8.976  10.378  -0.145  1.7585  3.5648 -1.1256
  974MOL0     H31486   9.279  10.363   0.160  3.4808 -1.0228 -1.7616
  974MOL0     H31487   8.935  10.104   0.197  3.0266 -1.5806  1.8651
  974MOL0     H31488   9.067  10.072   0.356 -2.9590 -1.5851 -3.6420
  974MOL0     H31489   8.955  10.087   0.495 -3.5984 -1.1652  0.4033
  974MOL0     H31490   9.059   9.941   0.473  0.6090  0.3987  0.5994
  975MOL0     O31491   3.323   2.567   0.908 -0.4203 -0.5351  0.0791
  975MOL0     C31492   3.262   2.609   1.005  0.4542 -0.4479 -0.1562
  975MOL0     O31493   3.316   2.699   1.097  0.0129  0.3989 -0.0170
  975MOL0     C31494   3.429   2.773   1.068 -0.4566  0.2470  0.9597
  975MOL0     C31495   3.418   2.907   1.027 -0.6384  0.3988  0.5747
  975MOL0     C31496   3.525   2.987   0.986 -0.2549 -0.0984 -1.4594
  975MOL0     C31497   3.649   2.929   0.966 -0.1411 -0.2514 -0.1340
  975MOL0     O31498   3.756   3.013   0.940 -0.1919 -0.5277 -0.8725
  975MOL0     C31499   3.868   2.954   0.881 -0.6092  0.3252  0.3587
  975MOL0     C31500   3.984   2.896   0.969 -0.0461 -0.1334  0.9495
  975MOL0     C31501   4.031   2.988   1.085  0.7697  0.0082 -0.1362
  975MOL0     C31502   4.147   2.912   1.150 -0.3365 -0.3048  0.5290
  975MOL0     C31503   4.175   2.977   1.299  0.4690  0.9693  0.6644
  975MOL0     C31504   4.311   2.911   1.344  1.3011 -1.1148 -0.4226
  975MOL0     C31505   4.379   2.976   1.461 -0.5094  0.0595  0.8685
  975MOL0     C31506   4.291   2.962   1.587 -0.5693  0.3322 -0.6255
  975MOL0     N31507   4.187   3.063   1.600  0.6639  0.4355 -0.5872
  975MOL0     C31508   4.204   3.201   1.604 -1.2984 -0.3221  0.0872
  975MOL0     C31509   4.095   3.239   1.676  0.1023  0.0326  0.1056
  975MOL0     C31510   4.054   3.377   1.722  0.1118  0.0290  0.7358
  975MOL0     C31511   4.133   3.440   1.840 -0.6262  1.3758 -0.0631
  975MOL0     C31512   4.056   3.553   1.906 -0.0261 -0.6239 -0.4727
  975MOL0     C31513   4.141   3.603   2.027  0.4039 -0.2915  0.7694
  975MOL0     O31514   4.061   3.657   2.135 -0.2589  0.3243 -1.0451
  975MOL0     C31515   4.053   3.590   2.257  0.9332  1.3147 -0.0196
  975MOL0     C31516   4.053   3.450   2.260  0.2522  0.9917  0.0960
  975MOL0     C31517   4.023   3.379   2.368 -0.3261  0.4325 -0.4957
  975MOL0     C31518   4.022   3.441   2.497  0.0166 -0.1514  0.1803
  975MOL0     C31519   4.000   3.369   2.623 -0.0588 -0.3398 -0.4026
  975MOL0     O31520   4.000   3.436   2.743  0.6087  0.2297 -0.5893
  975MOL0     C31521   4.025   3.368   2.855 -1.3224  0.6301 -0.3728
  975MOL0     C31522   3.975   3.422   2.969 -0.0980  0.5272 -0.4106
  975MOL0     C31523   4.005   3.360   3.097  0.5666 -0.0644 -0.8026
  975MOL0     C31524   4.093   3.250   3.103  1.9379 -1.0903  0.8149
  975MOL0     O31525   4.114   3.215   3.229 -0.4708 -0.2979 -0.3223
  975MOL0     C31526   4.213   3.116   3.243 -0.0492 -0.9759  1.1923
  975MOL0     C31527   4.255   3.121   3.391  0.5572 -0.0212 -0.3533
  975MOL0     C31528   4.329   2.991   3.416 -0.2635 -0.0403 -0.1326
  975MOL0     C31529   4.436   2.957   3.310 -0.1675  0.1420 -0.3892
  975MOL0     C31530   4.497   2.829   3.356  0.2188 -0.2202 -0.3509
  975MOL0     C31531   4.626   2.807   3.282 -1.0464 -0.1645  0.8094
  975MOL0     C31532   4.684   2.672   3.320  0.1865 -0.0546 -0.0684
  975MOL0     C31533   4.837   2.687   3.330 -0.0771 -0.1275  0.1128
  975MOL0    Cl31534   4.922   2.736   3.188  0.0824  0.2148  0.3488
  975MOL0     C31535   4.157   3.208   2.981 -0.3367 -0.3025  0.4750
  975MOL0     C31536   4.121   3.264   2.866  0.3866 -0.1233  0.9562
  975MOL0     O31537   3.987   3.250   2.610 -0.3423 -0.0021  0.2272
  975MOL0     C31538   4.029   3.585   2.501 -0.3033 -0.6436 -0.0715
  975MOL0     C31539   4.028   3.656   2.383 -0.3916  0.1929  1.0003
  975MOL0     N31540   4.011   3.134   1.717  0.5087  0.1868  0.4335
  975MOL0     N31541   4.070   3.031   1.666 -0.3046 -0.1898  1.2232
  975MOL0     C31542   3.665   2.792   0.991 -0.2459 -0.4823  0.0275
  975MOL0     C31543   3.559   2.712   1.040 -0.2348 -0.2454  0.2528
  975MOL0     C31544   3.122   2.564   1.021  0.3572 -0.9131 -1.0547
  975MOL0     C31545   3.098   2.534   1.164 -0.6264 -0.2764 -0.2586
  975MOL0     C31546   2.995   2.459   1.202 -0.2670  0.3927  0.5427
  975MOL0     C31547   2.899   2.412   1.111 -0.1922 -0.2012 -0.2158
  975MOL0     O31548   2.792   2.352   1.172 -0.4878  1.0249 -0.6041
  975MOL0     C31549   2.693   2.296   1.083  0.2738 -0.8229  0.2377
  975MOL0     C31550   2.733   2.180   0.988 -0.0211 -0.3917 -0.4649
  975MOL0     C31551   2.790   2.066   1.066  0.2429  0.1969  0.3177
  975MOL0     C31552   2.811   1.941   0.972  0.0260  0.4564  0.2855
  975MOL0     C31553   2.859   1.831   1.061 -0.1519  0.3833  0.1716
  975MOL0     C31554   2.895   1.744   1.142 -0.3071  0.0886  0.3687
  975MOL0     C31555   2.909   2.462   0.978  0.3214 -0.2896  0.7709
  975MOL0     C31556   3.028   2.527   0.931 -0.0508 -0.7669 -0.4118
  975MOL0     C31557   3.031   2.565   0.791 -0.3563 -0.1664  0.7037
  975MOL0     H31558   3.316   2.945   1.023 -0.3157  1.2462  0.0443
  975MOL0     H31559   3.492   3.090   0.974 -4.1242 -1.3335 -2.8901
  975MOL0     H31560   3.821   2.886   0.809 -3.3758  2.0330  0.3794
  975MOL0     H31561   3.922   3.038   0.836  0.5821  0.0409  1.2074
  975MOL0     H31562   4.070   2.867   0.909 -0.0697  0.9287  0.3910
  975MOL0     H31563   3.948   2.810   1.028 -3.1679  2.9260  3.9869
  975MOL0     H31564   3.957   3.025   1.157  2.4982  4.2219 -0.2485
  975MOL0     H31565   4.068   3.083   1.046 -1.8101  0.5784 -1.3291
  975MOL0     H31566   4.133   2.804   1.158 -0.1327 -0.2638  1.6087
  975MOL0     H31567   4.232   2.917   1.081 -0.4900  0.3463  0.3764
  975MOL0     H31568   4.166   3.086   1.301  1.1982  1.0351  0.5974
  975MOL0     H31569   4.106   2.937   1.373  4.7500 -2.1792  3.4124
  975MOL0     H31570   4.301   2.804   1.362 -0.3415 -1.1873 -1.5238
  975MOL0     H31571   4.372   2.918   1.254  2.3312 -0.5666  0.2881
  975MOL0     H31572   4.405   3.081   1.445 -2.1341  0.3872  0.2380
  975MOL0     H31573   4.479   2.931   1.463 -0.0542  0.7708 -2.0280
  975MOL0     H31574   4.245   2.864   1.598 -0.3490  0.1391 -1.4100
  975MOL0     H31575   4.359   2.970   1.673  0.7929  2.2997 -1.7946
  975MOL0     H31576   4.275   3.267   1.555 -2.0666  0.7690  0.3796
  975MOL0     H31577   4.062   3.448   1.640  0.4710  0.2850  0.9904
  975MOL0     H31578   3.950   3.368   1.754 -0.7577 -1.6597 -2.2491
  975MOL0     H31579   4.151   3.352   1.902  1.2685 -1.4338 -4.1562
  975MOL0     H31580   4.228   3.471   1.796 -0.3877 -0.8973 -1.2399
  975MOL0     H31581   3.957   3.524   1.941 -0.0398  0.1785  0.1699
  975MOL0     H31582   4.038   3.630   1.831  0.0175 -0.4884 -0.3435
  975MOL0     H31583   4.205   3.686   1.998 -0.7824  1.7488  3.5945
  975MOL0     H31584   4.208   3.518   2.044  0.3893 -1.2033 -2.8622
  975MOL0     H31585   4.047   3.394   2.167 -0.0894  2.6493 -0.9347
  975MOL0     H31586   4.011   3.271   2.365 -1.5947  0.5215  0.3870
  975MOL0     H31587   3.926   3.518   2.959  1.0979  1.6345  2.8629
  975MOL0     H31588   3.945   3.406   3.175  0.7276  1.5332 -1.5838
  975MOL0     H31589   4.185   3.020   3.199 -4.5223 -0.0183  1.5238
  975MOL0     H31590   4.305   3.149   3.194  0.4313 -3.0773  0.5986
  975MOL0     H31591   4.310   3.212   3.415  0.8087 -1.0095  3.4735
  975MOL0     H31592   4.171   3.121   3.461  1.7184  3.4650  1.2344
  975MOL0     H31593   4.370   2.996   3.518  2.5855  0.0545 -1.1948
  975MOL0     H31594   4.263   2.904   3.419  0.1899 -0.4108 -0.7395
  975MOL0     H31595   4.520   3.026   3.313 -0.1152  0.0559  0.1636
  975MOL0     H31596   4.392   2.945   3.210 -0.8761 -0.7502  0.0181
  975MOL0     H31597   4.425   2.749   3.338 -0.1496  0.0976 -0.3022
  975MOL0     H31598   4.513   2.829   3.464  0.6960  0.5987 -0.4096
  975MOL0     H31599   4.600   2.804   3.176  0.3207  3.5810  0.2162
  975MOL0     H31600   4.703   2.884   3.277  0.2291 -1.4761 -0.9336
  975MOL0     H31601   4.663   2.594   3.246  3.7396 -0.3797 -0.9389
  975MOL0     H31602   4.645   2.642   3.418 -0.9985  1.9430  0.1174
  975MOL0     H31603   4.856   2.774   3.394 -1.0760 -0.6986  1.2214
  975MOL0     H31604   4.896   2.600   3.358  3.0290  0.4167 -3.7599
  975MOL0     H31605   4.224   3.125   3.000 -0.0060  0.2647  1.8778
  975MOL0     H31606   4.170   3.225   2.777  1.8255  3.0077  0.1960
  975MOL0     H31607   4.028   3.649   2.589 -3.8740 -0.6365  0.0287
  975MOL0     H31608   4.030   3.764   2.392 -1.7949  0.7943 -3.3992
  975MOL0     H31609   3.760   2.739   0.987  1.1831  1.9392 -1.1016
  975MOL0     H31610   3.586   2.607   1.047 -0.0825 -0.2933 -0.9810
  975MOL0     H31611   3.173   2.553   1.240 -0.0267  0.3174 -0.9781
  975MOL0     H31612   2.961   2.427   1.300  0.0347 -1.1370  0.1686
  975MOL0     H31613   2.670   2.373   1.009  1.3769 -0.5618  0.1447
  975MOL0     H31614   2.597   2.274   1.129 -1.0059  0.1980 -1.8041
  975MOL0     H31615   2.804   2.224   0.917  2.1220 -0.8084  1.3100
  975MOL0     H31616   2.644   2.151   0.932 -1.1051 -1.7743  1.8294
  975MOL0     H31617   2.720   2.028   1.142  0.5791  0.9665  1.0209
  975MOL0     H31618   2.879   2.106   1.115 -1.0586  1.9023  1.4119
  975MOL0     H31619   2.719   1.911   0.922  0.1604  0.1307  0.2259
  975MOL0     H31620   2.894   1.968   0.906 -1.1604 -1.2815 -2.0743
  975MOL0     H31621   2.941   1.673   1.207 -1.6981 -2.9956 -1.7454
  975MOL0     H31622   2.827   2.459   0.907  1.7025 -0.0577 -0.9127
  975MOL0     H31623   2.934   2.579   0.743  1.4638 -0.5437 -3.5726
  975MOL0     H31624   3.078   2.664   0.779  2.5138 -1.4261  0.6727
  975MOL0     H31625   3.086   2.488   0.736 -0.2024 -0.6108  1.4706
  976MOL0     O31626   9.541   4.475   6.082  0.6907 -0.3322 -1.0567
  976MOL0     C31627   9.430   4.416   6.078  0.0008 -0.6788  0.2813
  976MOL0     O31628   9.366   4.372   5.969 -0.8418 -0.1159  1.2978
  976MOL0     C31629   9.415   4.427   5.851 -0.8770 -0.4044 -0.0373
  976MOL0     C31630   9.445   4.337   5.750  0.1907 -0.7077  0.0983
  976MOL0     C31631   9.468   4.386   5.623 -0.4399 -0.7445 -0.7782
  976MOL0     C31632   9.503   4.514   5.596 -0.2899 -0.5409  0.5832
  976MOL0     O31633   9.525   4.554   5.473 -0.1093 -0.2483  0.1633
  976MOL0     C31634   9.643   4.513   5.412  0.0943  0.3736  0.0400
  976MOL0     C31635   9.770   4.559   5.487  0.1303  0.3382  0.1543
  976MOL0     C31636   9.892   4.484   5.440 -0.2994  0.2265  0.3508
  976MOL0     C31637  10.020   4.550   5.492  0.0600 -0.0123 -0.1174
  976MOL0     C31638  10.128   4.433   5.499  1.0926 -0.0522 -0.3601
  976MOL0     C31639  10.266   4.492   5.543  0.0674 -0.1198  1.0218
  976MOL0     C31640  10.377   4.383   5.522  1.0818 -0.2442  0.8403
  976MOL0     C31641  10.520   4.404   5.569  0.9300  0.1377  0.9586
  976MOL0     N31642  10.574   4.513   5.486  0.0573 -0.0870  0.1796
  976MOL0     C31643  10.573   4.645   5.515 -1.0050  0.3729  0.1767
  976MOL0     C31644  10.593   4.716   5.405  0.5619  0.3507 -0.3804
  976MOL0     C31645  10.587   4.863   5.394 -0.2122 -0.0667 -0.6151
  976MOL0     C31646  10.690   4.933   5.305 -0.3122 -0.2406  0.0484
  976MOL0     C31647  10.685   5.089   5.324  0.2352 -0.6783  0.5529
  976MOL0     C31648  10.804   5.157   5.247 -0.0980 -0.0564  0.7542
  976MOL0     O31649  10.823   5.291   5.298 -0.2485  0.7737 -0.2798
  976MOL0     C31650  10.929   5.370   5.291  0.1157 -0.3387  0.4614
  976MOL0     C31651  10.937   5.473   5.387  0.2276  0.6706 -0.1956
  976MOL0     C31652  11.046   5.563   5.378 -0.1085 -0.0320 -0.2617
  976MOL0     C31653  11.156   5.555   5.285 -0.1911  0.6685  0.3290
  976MOL0     C31654  11.272   5.653   5.281 -0.0991  0.2232 -0.3430
  976MOL0     O31655  11.383   5.621   5.222  0.0708  0.5647 -0.2074
  976MOL0     C31656  11.485   5.707   5.202 -0.1897 -0.8402 -1.3578
  976MOL0     C31657  11.459   5.849   5.178  0.1203  0.5522 -0.5711
  976MOL0     C31658  11.571   5.931   5.150 -0.0342  0.1462  0.1652
  976MOL0     C31659  11.698   5.877   5.135 -0.1339 -0.7336  1.1838
  976MOL0     O31660  11.793   5.970   5.093  0.2571 -0.1932  0.9492
  976MOL0     C31661  11.924   5.955   5.147  0.2604  0.4821  0.4775
  976MOL0     C31662  12.010   6.078   5.100  0.1742  0.3174  0.5520
  976MOL0     C31663  11.975   6.208   5.178 -0.3847 -0.0191  0.6006
  976MOL0     C31664  12.008   6.343   5.097 -0.0872  1.0131  0.8466
  976MOL0     C31665  11.981   6.471   5.185  0.0288 -0.5783  0.6023
  976MOL0     C31666  11.943   6.591   5.102  0.0587  0.4248  0.4406
  976MOL0     C31667  11.960   6.716   5.183 -0.0746  0.4155  0.2723
  976MOL0     C31668  11.958   6.822   5.088 -0.1958 -0.2829  0.9801
  976MOL0    Cl31669  11.805   6.826   4.995 -0.2894  0.2799 -0.0167
  976MOL0     C31670  11.716   5.746   5.166 -0.1686 -0.3972  0.1688
  976MOL0     C31671  11.611   5.659   5.185 -0.2523  0.0714  0.1882
  976MOL0     O31672  11.258   5.752   5.361  0.2131  0.9699 -0.2672
  976MOL0     C31673  11.147   5.441   5.203 -0.0836 -0.2994  0.5923
  976MOL0     C31674  11.046   5.347   5.204 -0.2780  0.1772 -0.5119
  976MOL0     N31675  10.592   4.624   5.300 -0.2344  0.2347 -0.5397
  976MOL0     N31676  10.602   4.502   5.352 -0.2690 -0.0171  0.9540
  976MOL0     C31677   9.485   4.605   5.695 -0.1625  0.1031  0.8174
  976MOL0     C31678   9.429   4.567   5.822  0.1895 -0.5263 -0.2607
  976MOL0     C31679   9.369   4.394   6.212 -1.3287  0.3995 -0.4656
  976MOL0     C31680   9.311   4.263   6.234 -0.7166 -0.4766  0.5078
  976MOL0     C31681   9.256   4.234   6.356 -1.1372  0.0904 -0.2062
  976MOL0     C31682   9.260   4.325   6.462 -0.5000  0.2085  0.3642
  976MOL0     O31683   9.198   4.297   6.580  0.0335  0.6776  0.9236
  976MOL0     C31684   9.233   4.172   6.639  0.3323  1.5287  0.4657
  976MOL0     C31685   9.242   4.176   6.790  0.1761  0.2434  0.5114
  976MOL0     C31686   9.361   4.251   6.836 -0.1189 -1.2572 -0.4756
  976MOL0     C31687   9.357   4.292   6.985  0.4052 -0.1760 -0.0058
  976MOL0     C31688   9.371   4.181   7.078 -0.4046  0.1800  1.0961
  976MOL0     C31689   9.394   4.105   7.164 -0.8116 -0.3105 -0.1154
  976MOL0     C31690   9.304   4.452   6.442 -1.0402  0.7702  0.5013
  976MOL0     C31691   9.362   4.490   6.319 -0.6143  0.6292 -0.2735
  976MOL0     C31692   9.415   4.634   6.307  0.4664  0.0250  0.0523
  976MOL0     H31693   9.435   4.229   5.763 -1.7606 -0.6740 -0.8000
  976MOL0     H31694   9.478   4.313   5.543  0.3695 -0.4258 -0.9691
  976MOL0     H31695   9.621   4.406   5.413 -3.5573  0.9990  0.8506
  976MOL0     H31696   9.636   4.537   5.305 -1.4144  0.4998  0.1438
  976MOL0     H31697   9.768   4.544   5.596 -1.4552  0.3999  0.1538
  976MOL0     H31698   9.774   4.665   5.461 -2.4114  0.6382  0.7326
  976MOL0     H31699   9.900   4.473   5.331  2.5629 -1.6188  0.6554
  976MOL0     H31700   9.887   4.379   5.469 -0.4035 -0.9201 -3.2713
  976MOL0     H31701  10.064   4.624   5.425  2.1288  0.9934  2.2334
  976MOL0     H31702   9.993   4.595   5.588  0.0770 -2.4480  1.1070
  976MOL0     H31703  10.097   4.359   5.574  0.3865 -0.6287 -1.1887
  976MOL0     H31704  10.130   4.380   5.403  2.6333  0.7396 -0.7895
  976MOL0     H31705  10.293   4.581   5.486  3.9915 -2.2888 -0.9505
  976MOL0     H31706  10.256   4.521   5.648  0.4694 -0.9323  1.2937
  976MOL0     H31707  10.372   4.361   5.415 -1.5577  1.6618  0.4726
  976MOL0     H31708  10.344   4.297   5.581  0.7027  0.0041  0.9965
  976MOL0     H31709  10.526   4.417   5.677  0.7921  0.1382  0.9668
  976MOL0     H31710  10.575   4.315   5.537  1.5823  1.6353 -2.5460
  976MOL0     H31711  10.557   4.689   5.613 -1.1961 -3.1641  1.9223
  976MOL0     H31712  10.484   4.885   5.366 -0.7936 -3.6427 -1.7290
  976MOL0     H31713  10.597   4.894   5.499  0.9327  1.3417 -1.0996
  976MOL0     H31714  10.787   4.888   5.329  0.1163  1.1437  1.0574
  976MOL0     H31715  10.658   4.906   5.204 -0.7005  1.4535 -0.3033
  976MOL0     H31716  10.686   5.107   5.431 -1.2458  1.7598  0.2249
  976MOL0     H31717  10.586   5.121   5.291  0.5549  0.2419  0.4634
  976MOL0     H31718  10.803   5.152   5.138  3.0316 -3.4852  0.6910
  976MOL0     H31719  10.889   5.108   5.296 -2.8237 -3.9729  2.0260
  976MOL0     H31720  10.851   5.496   5.449 -2.0106 -1.0175 -2.4073
  976MOL0     H31721  11.040   5.645   5.449  0.5365 -1.1417  1.1455
  976MOL0     H31722  11.365   5.903   5.171 -1.0732 -1.1764  1.2340
  976MOL0     H31723  11.545   6.036   5.136 -1.7704 -0.4614 -1.6710
  976MOL0     H31724  11.930   5.939   5.255  2.7672  0.5742  0.4155
  976MOL0     H31725  11.972   5.867   5.103  0.6937 -0.0229  1.9171
  976MOL0     H31726  12.117   6.055   5.106  0.5291  1.5165 -0.5712
  976MOL0     H31727  11.985   6.097   4.995 -0.0235  0.1862  0.5762
  976MOL0     H31728  11.867   6.219   5.188 -0.0385  5.9746  1.0364
  976MOL0     H31729  11.998   6.221   5.284 -4.0819  1.0882  1.3827
  976MOL0     H31730  11.955   6.333   5.002  0.2779 -3.2598  0.8920
  976MOL0     H31731  12.116   6.335   5.088 -0.0686  1.7238  0.3963
  976MOL0     H31732  12.065   6.490   5.253 -0.7887 -2.2981  2.2285
  976MOL0     H31733  11.908   6.445   5.263  1.9141  0.5881  2.8926
  976MOL0     H31734  12.001   6.589   5.009 -0.7181  2.2229 -0.1452
  976MOL0     H31735  11.844   6.566   5.062  0.4888  0.8632 -0.9702
  976MOL0     H31736  12.050   6.720   5.246  0.7216 -1.3703 -0.6664
  976MOL0     H31737  11.877   6.730   5.253 -0.0372  1.6983  0.0770
  976MOL0     H31738  11.976   6.917   5.139 -3.8840 -0.7712  3.6417
  976MOL0     H31739  12.050   6.808   5.031  0.2603 -0.5285  1.7602
  976MOL0     H31740  11.808   5.690   5.159 -0.9688 -1.8336  0.8185
  976MOL0     H31741  11.623   5.553   5.203 -2.4887 -0.1394  0.8181
  976MOL0     H31742  11.224   5.419   5.130 -1.5027  2.1861 -1.8691
  976MOL0     H31743  11.046   5.259   5.141 -1.0049  1.0996 -1.8436
  976MOL0     H31744   9.510   4.709   5.676  0.6289 -0.6260 -3.1182
  976MOL0     H31745   9.395   4.638   5.897  1.1875  1.1288 -1.3057
  976MOL0     H31746   9.307   4.196   6.149  0.3015 -0.6380  0.5736
  976MOL0     H31747   9.214   4.133   6.352 -2.5182  0.6563 -0.5328
  976MOL0     H31748   9.331   4.130   6.615  0.2767  0.8274  1.4074
  976MOL0     H31749   9.161   4.097   6.604  1.6256  1.0116 -1.2062
  976MOL0     H31750   9.242   4.078   6.839  2.8521  0.0239  0.2282
  976MOL0     H31751   9.159   4.228   6.838  0.2176 -0.3742  1.2912
  976MOL0     H31752   9.356   4.347   6.785 -1.4819 -0.6465  0.7411
  976MOL0     H31753   9.459   4.211   6.808  1.0666  0.2856  1.2496
  976MOL0     H31754   9.441   4.362   6.991  1.2199 -1.2360  1.5521
  976MOL0     H31755   9.271   4.358   6.997  1.0911  0.6545  0.4953
  976MOL0     H31756   9.412   4.047   7.252  1.3269  2.9071  1.7933
  976MOL0     H31757   9.293   4.529   6.517 -0.7339  2.2114 -0.8697
  976MOL0     H31758   9.356   4.711   6.357  3.6415  2.3835  0.4237
  976MOL0     H31759   9.516   4.639   6.349  0.4276  1.1959  0.0276
  976MOL0     H31760   9.418   4.654   6.200  1.4538 -0.1511  0.0321
  977MOL0     O31761   9.440   9.927   4.910  0.3481 -0.2519  0.3682
  977MOL0     C31762   9.566   9.919   4.920  0.5120 -0.4316 -0.0318
  977MOL0     O31763   9.644   9.992   4.834  0.2626  0.0510 -0.2211
  977MOL0     C31764   9.624  10.123   4.802 -0.3220  0.0269 -0.7274
  977MOL0     C31765   9.614  10.156   4.668  0.3515 -0.7674  0.4529
  977MOL0     C31766   9.626  10.289   4.634 -0.3779 -0.0524  1.5842
  977MOL0     C31767   9.646  10.392   4.726 -0.2615 -0.3153 -0.4999
  977MOL0     O31768   9.643  10.528   4.687  0.1650  0.6774 -0.3974
  977MOL0     C31769   9.728  10.619   4.763 -0.1822 -0.3947  0.8708
  977MOL0     C31770   9.756  10.746   4.679  0.0480  0.4605 -0.4979
  977MOL0     C31771   9.874  10.830   4.728  0.0914 -0.7101 -0.1810
  977MOL0     C31772   9.872  10.869   4.882 -1.0392 -0.1397 -0.5067
  977MOL0     C31773   9.987  10.966   4.925 -0.6685  0.1002 -0.4264
  977MOL0     C31774  10.126  10.903   4.925  0.2209 -0.2392 -1.2433
  977MOL0     C31775  10.247  10.998   4.951  0.8898 -0.5473 -0.4937
  977MOL0     C31776  10.231  11.082   5.078  0.2015 -1.0823  0.1864
  977MOL0     N31777  10.353  11.137   5.138  0.3156 -0.2865 -0.8789
  977MOL0     C31778  10.436  11.069   5.233  0.6065 -0.6461 -0.6266
  977MOL0     C31779  10.540  11.149   5.235  0.3690  0.2921  0.2890
  977MOL0     C31780  10.674  11.114   5.293 -0.5429  0.6110 -0.5079
  977MOL0     C31781  10.769  11.225   5.321  0.8074 -0.3410  0.2769
  977MOL0     C31782  10.733  11.340   5.425  0.6236 -0.5250 -0.8092
  977MOL0     C31783  10.659  11.286   5.543 -0.2540  0.6570 -0.4063
  977MOL0     O31784  10.731  11.204   5.637  0.2065  0.3821 -0.2026
  977MOL0     C31785  10.797  11.267   5.732 -0.1414 -0.2925 -0.9411
  977MOL0     C31786  10.936  11.303   5.719  0.3881  0.0283  0.5153
  977MOL0     C31787  11.005  11.365   5.826  0.5428 -0.9415 -0.2998
  977MOL0     C31788  10.937  11.392   5.947  0.7359  0.2467 -1.0436
  977MOL0     C31789  11.011  11.471   6.044 -0.3947  0.6339 -1.2097
  977MOL0     O31790  11.123  11.531   6.006 -0.2878  0.0034 -0.7572
  977MOL0     C31791  11.190  11.603   6.105  0.6994 -0.2571 -0.2635
  977MOL0     C31792  11.314  11.564   6.152  0.5145 -0.9465  0.5051
  977MOL0     C31793  11.383  11.631   6.255  0.5015  0.8364  0.1541
  977MOL0     C31794  11.342  11.752   6.306  0.5271  0.5219 -0.3338
  977MOL0     O31795  11.420  11.838   6.380 -0.2079  0.9532  0.5062
  977MOL0     C31796  11.560  11.821   6.411 -0.9984  0.5080 -0.0998
  977MOL0     C31797  11.643  11.894   6.301  0.7096  0.2536  0.8440
  977MOL0     C31798  11.599  11.848   6.155  0.1967  0.2313 -0.4082
  977MOL0     C31799  11.696  11.902   6.039  0.7319  0.1774  0.0366
  977MOL0     C31800  11.637  11.907   5.898  0.1362  0.0714 -0.7457
  977MOL0     C31801  11.736  11.883   5.784 -0.2224 -0.3026 -0.1239
  977MOL0     C31802  11.671  11.899   5.651  0.0343  0.1265  0.5476
  977MOL0     C31803  11.770  11.904   5.533 -0.2281  0.4928 -0.7001
  977MOL0    Cl31804  11.888  12.027   5.548 -0.5428  0.0654  0.2948
  977MOL0     C31805  11.210  11.790   6.269 -0.6079 -0.4512  1.1178
  977MOL0     C31806  11.141  11.723   6.165  0.4648  0.0760 -0.1217
  977MOL0     O31807  10.956  11.478   6.158 -0.6772  0.4225  0.1617
  977MOL0     C31808  10.802  11.353   5.971  0.1999 -0.2891 -0.0215
  977MOL0     C31809  10.736  11.290   5.855  0.9798  0.3859  0.3815
  977MOL0     N31810  10.534  11.252   5.138 -0.0133  0.6148  0.0508
  977MOL0     N31811  10.413  11.241   5.079 -0.2606  0.5805 -0.5342
  977MOL0     C31812   9.637  10.350   4.860 -0.0892  0.7675  0.1784
  977MOL0     C31813   9.641  10.220   4.901 -0.2753 -0.3526 -0.5944
  977MOL0     C31814   9.635   9.818   5.017 -0.5231 -1.4026  0.0528
  977MOL0     C31815   9.597   9.685   5.028 -0.0098  0.3918 -0.0125
  977MOL0     C31816   9.667   9.588   5.103  0.1378  0.1669  0.5632
  977MOL0     C31817   9.789   9.618   5.162  0.2776 -0.4611 -0.4774
  977MOL0     O31818   9.858   9.536   5.245 -0.5706  0.0107 -0.7764
  977MOL0     C31819   9.824   9.402   5.257 -1.1975 -0.2911  0.5203
  977MOL0     C31820   9.944   9.315   5.304 -0.1022 -0.4482 -0.2229
  977MOL0     C31821  10.056   9.307   5.203  0.3361  0.1595 -0.1402
  977MOL0     C31822  10.136   9.435   5.176 -0.4146 -0.1937  0.4713
  977MOL0     C31823  10.282   9.405   5.160 -0.3162 -0.1818 -0.5733
  977MOL0     C31824  10.405   9.374   5.159 -0.3531  0.8101 -0.8995
  977MOL0     C31825   9.838   9.753   5.153 -0.1874  0.1934  0.5466
  977MOL0     C31826   9.764   9.853   5.079 -0.4283  0.4111  1.0877
  977MOL0     C31827   9.829   9.996   5.086  0.4479  0.3221 -0.0627
  977MOL0     H31828   9.598  10.079   4.593  0.7862 -2.9383  2.4754
  977MOL0     H31829   9.614  10.297   4.527 -1.1722 -3.0076  1.3497
  977MOL0     H31830   9.665  10.645   4.848 -0.5107 -0.7125  0.7308
  977MOL0     H31831   9.817  10.565   4.797  0.6880 -1.1980 -2.3173
  977MOL0     H31832   9.666  10.806   4.660 -0.9000 -1.3351 -2.0264
  977MOL0     H31833   9.781  10.706   4.580  3.4060 -0.8582  0.7322
  977MOL0     H31834   9.882  10.927   4.679 -0.6250  0.1970  1.4175
  977MOL0     H31835   9.971  10.779   4.722  2.4065  2.3472  4.7296
  977MOL0     H31836   9.776  10.911   4.915 -0.3453  1.2677 -0.2114
  977MOL0     H31837   9.878  10.776   4.940 -1.2502 -0.1274 -0.4604
  977MOL0     H31838  10.001  11.048   4.854  1.1476  0.3326  0.1553
  977MOL0     H31839   9.949  11.018   5.014 -0.9274  0.8462 -0.9553
  977MOL0     H31840  10.124  10.847   5.019 -2.8781  0.5242 -0.7383
  977MOL0     H31841  10.137  10.831   4.843  0.0740 -1.5224 -0.1828
  977MOL0     H31842  10.271  11.063   4.867 -1.3082  1.7564  0.5289
  977MOL0     H31843  10.330  10.930   4.972  0.4554 -0.9683 -0.0920
  977MOL0     H31844  10.170  11.164   5.042  1.8586 -1.3114 -3.6139
  977MOL0     H31845  10.188  11.015   5.153  3.5147 -1.5985  1.8544
  977MOL0     H31846  10.422  10.975   5.286 -0.0293  0.0006  0.3823
  977MOL0     H31847  10.663  11.052   5.382 -1.2653  1.5274  0.0638
  977MOL0     H31848  10.728  11.049   5.223  0.3294  0.3889  0.3569
  977MOL0     H31849  10.865  11.179   5.346  1.0192  0.0303  0.1652
  977MOL0     H31850  10.788  11.272   5.224 -0.6008 -0.0160  0.1301
  977MOL0     H31851  10.677  11.419   5.373  2.5752  1.6052  0.1720
  977MOL0     H31852  10.824  11.395   5.450 -0.8219  1.5346  0.2833
  977MOL0     H31853  10.574  11.229   5.503 -0.9995  0.2373  1.6458
  977MOL0     H31854  10.610  11.362   5.604  3.1130  1.7742  1.1361
  977MOL0     H31855  10.979  11.286   5.621  1.2938  0.7047  0.7934
  977MOL0     H31856  11.108  11.392   5.804 -0.3672  0.9611 -2.7711
  977MOL0     H31857  11.367  11.482   6.104  2.7180  0.5617  0.1993
  977MOL0     H31858  11.473  11.586   6.295  0.3055 -0.9240 -1.2781
  977MOL0     H31859  11.578  11.858   6.513 -0.9845  0.9118 -0.2461
  977MOL0     H31860  11.600  11.719   6.414  3.1320  1.8651 -1.7489
  977MOL0     H31861  11.648  12.003   6.309  0.7345  0.1382  3.5609
  977MOL0     H31862  11.747  11.864   6.322  1.3591  0.8958 -1.2327
  977MOL0     H31863  11.583  11.741   6.142  2.4436 -0.1024 -0.8953
  977MOL0     H31864  11.504  11.894   6.128 -0.0351 -0.7150 -1.2700
  977MOL0     H31865  11.782  11.836   6.024  1.9786  1.6281  0.5320
  977MOL0     H31866  11.718  12.006   6.064  0.6276 -0.1691  1.6804
  977MOL0     H31867  11.583  12.002   5.889 -1.7355 -0.6498  1.6718
  977MOL0     H31868  11.553  11.837   5.906 -0.3721  0.8963  3.0689
  977MOL0     H31869  11.818  11.953   5.799  0.7100 -1.7594  2.1787
  977MOL0     H31870  11.772  11.782   5.805  2.4540  1.1475  3.1395
  977MOL0     H31871  11.604  11.985   5.651 -3.3019 -1.6256  8.3197
  977MOL0     H31872  11.606  11.812   5.636 -2.4154  1.9600 -0.0256
  977MOL0     H31873  11.823  11.809   5.528  0.3369  0.6710  1.1515
  977MOL0     H31874  11.719  11.921   5.438 -0.7007 -4.0344 -1.4806
  977MOL0     H31875  11.185  11.894   6.287 -1.4910  0.0105 -2.1191
  977MOL0     H31876  11.047  11.763   6.128  0.2563  2.0967  2.3157
  977MOL0     H31877  10.754  11.357   6.068  2.7108  1.8446  1.2888
  977MOL0     H31878  10.637  11.248   5.856  1.5953 -1.1144  0.4749
  977MOL0     H31879   9.644  10.427   4.937  5.4270 -1.4263  2.4125
  977MOL0     H31880   9.637  10.188   5.005  1.2037 -0.5900 -0.5988
  977MOL0     H31881   9.515   9.642   4.972 -0.0908 -2.1515  1.9237
  977MOL0     H31882   9.627   9.488   5.115  0.7386 -0.3564 -1.4041
  977MOL0     H31883   9.793   9.346   5.168  3.2151 -0.7970 -0.9036
  977MOL0     H31884   9.744   9.394   5.331  0.8304 -0.1675  2.8468
  977MOL0     H31885   9.914   9.220   5.348 -1.8222 -0.0678 -0.4963
  977MOL0     H31886   9.972   9.367   5.396 -2.8585 -2.4651  1.9178
  977MOL0     H31887  10.020   9.273   5.105 -1.7081  2.5752 -0.3355
  977MOL0     H31888  10.131   9.240   5.246  0.7934  1.6080  1.4101
  977MOL0     H31889  10.099   9.492   5.090 -0.8191 -0.3096  0.5653
  977MOL0     H31890  10.117   9.498   5.263 -0.4976 -1.1868  1.1805
  977MOL0     H31891  10.506   9.343   5.145 -0.5344 -1.2831  1.7428
  977MOL0     H31892   9.912   9.778   5.228 -0.4491 -3.0151  2.0091
  977MOL0     H31893   9.905  10.004   5.165  0.5645  1.9064 -0.3069
  977MOL0     H31894   9.871  10.034   4.992  0.3799  1.7405  0.4524
  977MOL0     H31895   9.743  10.060   5.106  0.3708 -0.4636  2.6223
  978MOL0     O31896   6.078   8.830   6.352  1.1312  0.2472 -0.4013
  978MOL0     C31897   6.195   8.807   6.366  0.1455 -0.3056  0.6777
  978MOL0     O31898   6.293   8.885   6.311  0.2897 -0.3055 -0.1380
  978MOL0     C31899   6.268   8.961   6.197  0.0573  0.9694 -0.3126
  978MOL0     C31900   6.318   8.914   6.083 -1.2859 -0.9054  0.0298
  978MOL0     C31901   6.305   8.989   5.964 -0.5016 -0.6694 -0.2698
  978MOL0     C31902   6.217   9.098   5.962 -1.0049  0.7029 -0.3716
  978MOL0     O31903   6.216   9.172   5.851 -0.3894  0.0916 -0.2370
  978MOL0     C31904   6.090   9.202   5.788  0.1529  0.3210  0.8314
  978MOL0     C31905   6.106   9.263   5.642  0.0003 -0.0556 -1.4152
  978MOL0     C31906   5.973   9.287   5.570 -0.3660  0.5931 -0.0805
  978MOL0     C31907   6.000   9.396   5.457  0.4828 -0.3158  0.2207
  978MOL0     C31908   6.123   9.373   5.368  0.2536 -1.0976 -0.3197
  978MOL0     C31909   6.148   9.473   5.246 -0.5868 -0.3329  0.0176
  978MOL0     C31910   6.038   9.484   5.146 -0.1234  0.0065 -0.7671
  978MOL0     C31911   6.066   9.597   5.038 -0.3469  0.5070 -0.3713
  978MOL0     N31912   6.185   9.544   4.968  0.2885  0.4639  0.2587
  978MOL0     C31913   6.195   9.425   4.897 -0.5158 -0.0972  1.2164
  978MOL0     C31914   6.338   9.415   4.885  1.1535 -0.0441 -0.1338
  978MOL0     C31915   6.412   9.294   4.836 -0.3588  0.3059 -0.3970
  978MOL0     C31916   6.439   9.312   4.691 -0.1591 -0.1186 -0.6509
  978MOL0     C31917   6.431   9.172   4.618  0.0462 -0.9925 -0.2830
  978MOL0     C31918   6.552   9.081   4.652 -0.4240  0.0377 -0.1212
  978MOL0     O31919   6.689   9.140   4.632 -0.0434  0.0951 -0.3853
  978MOL0     C31920   6.784   9.050   4.601 -0.7983  1.0317  0.8672
  978MOL0     C31921   6.883   9.092   4.519 -0.5861 -0.2736 -0.5513
  978MOL0     C31922   7.004   9.015   4.498 -0.2993 -0.8879  1.4523
  978MOL0     C31923   7.008   8.891   4.556 -0.8624  0.6049  0.5337
  978MOL0     C31924   7.136   8.824   4.550  0.4885  0.0536  0.2812
  978MOL0     O31925   7.242   8.876   4.484  0.5438  0.1388  0.0271
  978MOL0     C31926   7.360   8.806   4.491 -0.3955 -0.3786 -0.3697
  978MOL0     C31927   7.403   8.747   4.369  0.3166  0.9077 -0.9580
  978MOL0     C31928   7.514   8.659   4.376 -0.9839 -0.2773 -1.1296
  978MOL0     C31929   7.604   8.666   4.484 -1.0255  0.0031 -0.0601
  978MOL0     O31930   7.699   8.580   4.504 -0.8392  0.6003  0.5659
  978MOL0     C31931   7.695   8.454   4.435  0.4435 -1.1328  0.0846
  978MOL0     C31932   7.816   8.377   4.489 -0.7899 -0.6523  0.9769
  978MOL0     C31933   7.818   8.228   4.443  0.3222 -0.6625 -0.7415
  978MOL0     C31934   7.951   8.193   4.370 -0.1898  0.2417 -0.2780
  978MOL0     C31935   7.947   8.040   4.330  1.0011 -0.1440 -0.2843
  978MOL0     C31936   8.069   8.000   4.254  0.1990  0.3690 -0.0931
  978MOL0     C31937   8.071   7.844   4.237 -0.9485  0.4711 -0.8046
  978MOL0     C31938   8.208   7.787   4.252  0.0372  0.4261 -0.3793
  978MOL0    Cl31939   8.200   7.635   4.333 -0.3947  0.6750  0.4751
  978MOL0     C31940   7.568   8.746   4.595 -0.2332  0.3481 -0.4220
  978MOL0     C31941   7.450   8.811   4.600  0.7550  0.4045 -0.8494
  978MOL0     O31942   7.128   8.712   4.598 -0.4172 -0.4740 -0.1758
  978MOL0     C31943   6.905   8.849   4.637 -0.8397  0.2894  0.7222
  978MOL0     C31944   6.791   8.922   4.658 -0.9237 -0.5204 -0.5498
  978MOL0     N31945   6.393   9.531   4.925 -0.8561  0.2788 -0.3835
  978MOL0     N31946   6.306   9.609   4.980  0.4263  0.3631 -0.5939
  978MOL0     C31947   6.151   9.131   6.074  0.4958  0.5590 -0.0388
  978MOL0     C31948   6.180   9.065   6.198  0.2390  0.1926  0.3089
  978MOL0     C31949   6.231   8.691   6.447  0.4223  1.1073 -0.6174
  978MOL0     C31950   6.131   8.646   6.547 -0.5981 -1.0751  0.5368
  978MOL0     C31951   6.168   8.547   6.629 -0.1901 -0.0980  0.1035
  978MOL0     C31952   6.288   8.473   6.620  0.8495 -0.6325  0.1782
  978MOL0     O31953   6.290   8.357   6.682 -0.1780  0.6897 -0.1637
  978MOL0     C31954   6.379   8.251   6.642  0.3902  0.2733 -0.5588
  978MOL0     C31955   6.384   8.208   6.502 -0.1859 -0.6451 -0.3201
  978MOL0     C31956   6.443   8.068   6.488  0.6218 -0.2013  0.4693
  978MOL0     C31957   6.396   8.001   6.353 -1.0817 -0.5678  0.5349
  978MOL0     C31958   6.414   8.091   6.239 -0.4095  0.0016  0.7942
  978MOL0     C31959   6.429   8.145   6.136  0.5435  0.5855  0.9308
  978MOL0     C31960   6.381   8.522   6.532  0.5870 -0.2599  0.3204
  978MOL0     C31961   6.349   8.622   6.440  0.6037 -0.2692 -0.2286
  978MOL0     C31962   6.460   8.645   6.339 -0.0390  0.4176  0.4160
  978MOL0     H31963   6.384   8.827   6.083  0.7057  0.4845 -1.8772
  978MOL0     H31964   6.348   8.960   5.868  1.6931  1.8763 -0.1739
  978MOL0     H31965   6.028   9.113   5.780 -1.0534  1.1829  0.2404
  978MOL0     H31966   6.035   9.277   5.846 -2.8966 -0.7461 -0.4874
  978MOL0     H31967   6.150   9.180   5.587 -1.8497 -0.1658 -2.8259
  978MOL0     H31968   6.164   9.355   5.649  4.4164 -2.6436  0.3236
  978MOL0     H31969   5.897   9.343   5.625  0.7726  1.4772  0.6567
  978MOL0     H31970   5.949   9.190   5.526  2.6981  1.0792 -3.2998
  978MOL0     H31971   5.908   9.382   5.399 -0.5670 -0.0152  1.7501
  978MOL0     H31972   5.996   9.495   5.503 -0.9576 -0.4727  0.4805
  978MOL0     H31973   6.211   9.375   5.433 -0.8683  1.7689  1.2715
  978MOL0     H31974   6.119   9.269   5.332  2.9251 -1.8532  1.2915
  978MOL0     H31975   6.167   9.569   5.295 -0.0149 -0.3904 -0.0841
  978MOL0     H31976   6.232   9.430   5.190 -3.4284 -3.5196 -2.2181
  978MOL0     H31977   5.954   9.518   5.208 -1.2907 -3.0815 -0.4753
  978MOL0     H31978   6.027   9.383   5.104 -0.3280  0.1395 -1.0411
  978MOL0     H31979   5.977   9.618   4.978 -0.3242 -0.5129 -0.7914
  978MOL0     H31980   6.094   9.689   5.090  0.0897  0.0808  0.1699
  978MOL0     H31981   6.120   9.352   4.871 -0.1996  0.1755 -0.6226
  978MOL0     H31982   6.514   9.289   4.876 -0.0707  3.6486 -0.4771
  978MOL0     H31983   6.357   9.202   4.860 -0.9045 -0.0027 -2.6268
  978MOL0     H31984   6.357   9.373   4.654  0.3793  1.5492  0.8029
  978MOL0     H31985   6.535   9.354   4.660  0.2868  0.3372  1.2185
  978MOL0     H31986   6.435   9.203   4.514 -1.6743  0.1190 -0.0590
  978MOL0     H31987   6.333   9.124   4.630 -3.2726  4.9188  0.1715
  978MOL0     H31988   6.540   8.987   4.598 -1.7235 -0.1166  0.3909
  978MOL0     H31989   6.545   9.059   4.759  1.3227  3.8823  0.9319
  978MOL0     H31990   6.867   9.184   4.465 -0.5018 -0.1677 -0.3959
  978MOL0     H31991   7.087   9.039   4.433 -0.3363 -0.9117  1.3965
  978MOL0     H31992   7.346   8.765   4.278  1.1650  1.4540 -1.4006
  978MOL0     H31993   7.533   8.598   4.288  2.9472  2.2108 -2.3127
  978MOL0     H31994   7.603   8.395   4.441 -0.0907 -0.6693 -2.4719
  978MOL0     H31995   7.719   8.489   4.334 -0.2219  2.4251  1.0181
  978MOL0     H31996   7.907   8.427   4.454 -2.3927 -0.3674 -3.5079
  978MOL0     H31997   7.818   8.382   4.598  0.8654  1.3934  0.9221
  978MOL0     H31998   7.806   8.167   4.534  0.3421  1.4711  0.7756
  978MOL0     H31999   7.733   8.205   4.378 -1.7100 -1.8415  2.0683
  978MOL0     H32000   8.034   8.227   4.432  0.7241 -0.7450 -0.9283
  978MOL0     H32001   7.958   8.248   4.275  1.9991 -3.6757 -2.6515
  978MOL0     H32002   7.856   8.019   4.274  0.4018  0.3705  0.4875
  978MOL0     H32003   7.941   7.983   4.423  1.2788 -1.3370 -0.9777
  978MOL0     H32004   8.064   8.045   4.154 -0.1951 -1.7948 -1.0891
  978MOL0     H32005   8.157   8.028   4.312  1.2047 -0.5203 -1.1533
  978MOL0     H32006   8.030   7.806   4.143 -1.6037  0.5997 -0.5739
  978MOL0     H32007   8.005   7.806   4.315  0.2869  0.3112  0.1974
  978MOL0     H32008   8.243   7.768   4.151 -1.8383 -1.3673 -0.7583
  978MOL0     H32009   8.274   7.852   4.310  1.1406 -2.2351  1.5737
  978MOL0     H32010   7.639   8.753   4.676 -1.0078 -0.1738  0.3092
  978MOL0     H32011   7.423   8.867   4.689 -2.0403  0.3256 -1.5540
  978MOL0     H32012   6.913   8.754   4.690  0.9189  0.6148  1.0974
  978MOL0     H32013   6.722   8.900   4.739  2.8607  2.6051  4.0542
  978MOL0     H32014   6.084   9.217   6.073 -1.4483 -0.8869 -2.0003
  978MOL0     H32015   6.120   9.096   6.282 -1.2897  0.7000 -0.9141
  978MOL0     H32016   6.029   8.682   6.554 -0.1807  0.2803 -0.0218
  978MOL0     H32017   6.091   8.513   6.697 -0.4723  1.3695  0.5573
  978MOL0     H32018   6.348   8.157   6.687  3.7916 -1.0028 -0.5803
  978MOL0     H32019   6.482   8.257   6.677  0.2208  1.5910 -0.2272
  978MOL0     H32020   6.460   8.279   6.466 -1.2746  1.6176  1.5268
  978MOL0     H32021   6.291   8.215   6.445  0.8321  2.3757 -1.8325
  978MOL0     H32022   6.410   8.005   6.571 -0.5200  0.9308  0.9197
  978MOL0     H32023   6.552   8.068   6.487  0.7396  3.0383  1.0371
  978MOL0     H32024   6.458   7.913   6.335 -1.2208 -0.7774  1.0766
  978MOL0     H32025   6.292   7.967   6.365 -3.0416  4.9466  2.3303
  978MOL0     H32026   6.447   8.193   6.042  2.0644  3.2607  2.4775
  978MOL0     H32027   6.479   8.476   6.528  1.7758  2.0792 -4.6485
  978MOL0     H32028   6.472   8.553   6.282  1.2649 -0.8037  2.5387
  978MOL0     H32029   6.438   8.729   6.272  0.2499  0.8869  0.8956
  978MOL0     H32030   6.555   8.672   6.386  0.2122  1.5356 -0.6786
  979MOL0     O32031   6.344   5.551   4.271 -0.3019  1.6179  0.4130
  979MOL0     C32032   6.412   5.508   4.365 -1.5398  0.3671 -0.8941
  979MOL0     O32033   6.379   5.513   4.506 -0.3127 -0.0221  0.3327
  979MOL0     C32034   6.258   5.577   4.528 -1.2122 -0.0878  1.3733
  979MOL0     C32035   6.151   5.497   4.567  0.0334  0.1950  0.0173
  979MOL0     C32036   6.031   5.550   4.624  0.3721 -0.2677 -0.8993
  979MOL0     C32037   6.031   5.694   4.646  0.6572 -0.7017  0.3584
  979MOL0     O32038   5.920   5.747   4.707  0.6870 -0.3160 -0.4286
  979MOL0     C32039   5.943   5.824   4.823 -1.5004  0.2536  0.3915
  979MOL0     C32040   5.818   5.874   4.882 -0.3819 -0.0003  0.3044
  979MOL0     C32041   5.729   5.924   4.768 -0.5351 -0.1231  0.5429
  979MOL0     C32042   5.808   6.034   4.692  0.6311 -0.9086  0.3424
  979MOL0     C32043   5.722   6.119   4.610 -0.4186 -1.1688 -0.5806
  979MOL0     C32044   5.805   6.194   4.498 -0.0791 -0.6004  0.4731
  979MOL0     C32045   5.908   6.296   4.540 -0.1629  0.4220  0.1671
  979MOL0     C32046   5.857   6.411   4.620 -0.3869 -0.1489 -1.0489
  979MOL0     N32047   5.894   6.417   4.766 -0.7423 -0.2909  0.2738
  979MOL0     C32048   6.029   6.434   4.809  0.3917  0.4206  0.9702
  979MOL0     C32049   6.016   6.428   4.939 -0.4293 -0.7243  0.0151
  979MOL0     C32050   6.128   6.459   5.033 -2.0204  1.1414 -1.0591
  979MOL0     C32051   6.090   6.527   5.163 -0.6067  0.1933 -0.5225
  979MOL0     C32052   6.084   6.677   5.142  0.8371 -0.8132  1.0012
  979MOL0     C32053   5.961   6.723   5.068  0.4860  0.3125 -0.5672
  979MOL0     O32054   5.947   6.868   5.095  0.4264  0.3810 -0.1735
  979MOL0     C32055   5.821   6.918   5.069  0.3984  0.8200 -0.0515
  979MOL0     C32056   5.777   7.029   5.141  0.2917 -0.3317  0.7841
  979MOL0     C32057   5.665   7.095   5.101  0.8226 -0.2302 -0.2112
  979MOL0     C32058   5.590   7.065   4.992 -0.1615  0.5747  0.0542
  979MOL0     C32059   5.465   7.142   4.948 -0.6287  0.3424  0.1972
  979MOL0     O32060   5.401   7.081   4.840 -0.6996  0.7717 -0.4446
  979MOL0     C32061   5.314   7.162   4.767  0.2300 -0.4711 -0.4557
  979MOL0     C32062   5.197   7.104   4.710  0.3566 -0.9905 -0.9315
  979MOL0     C32063   5.102   7.170   4.632  0.6899 -0.2878  0.8345
  979MOL0     C32064   5.118   7.300   4.608  0.6841  0.1299  0.4686
  979MOL0     O32065   5.024   7.374   4.547  0.0195  0.3603  0.2458
  979MOL0     C32066   5.015   7.353   4.405  0.7995  0.1422  0.1707
  979MOL0     C32067   4.962   7.483   4.335  0.4270  0.0323  0.4560
  979MOL0     C32068   5.060   7.602   4.351 -0.2084 -0.7150  0.5655
  979MOL0     C32069   5.167   7.585   4.236 -0.0229 -0.0216 -0.4117
  979MOL0     C32070   5.121   7.643   4.101  0.9008  0.7066 -0.5723
  979MOL0     C32071   5.213   7.605   3.995 -0.1916  0.3419  0.0358
  979MOL0     C32072   5.157   7.638   3.858  0.7040 -1.2376  0.2555
  979MOL0     C32073   5.095   7.517   3.794  0.0589  0.5669 -0.3272
  979MOL0    Cl32074   4.948   7.556   3.710 -0.4106  0.1519 -0.6416
  979MOL0     C32075   5.235   7.362   4.652  0.0059 -0.5692  0.0620
  979MOL0     C32076   5.324   7.297   4.731  0.0936  0.4151 -0.8966
  979MOL0     O32077   5.414   7.233   5.015  0.1636  0.7454  0.0645
  979MOL0     C32078   5.633   6.943   4.918 -0.2105 -0.5229  0.7422
  979MOL0     C32079   5.746   6.870   4.959  0.2468 -0.2301  0.5730
  979MOL0     N32080   5.880   6.391   4.971 -0.6581  0.5283 -0.1927
  979MOL0     N32081   5.806   6.397   4.863 -0.3706  0.6587  0.1390
  979MOL0     C32082   6.133   5.772   4.586  0.2318  0.0368  0.3560
  979MOL0     C32083   6.254   5.716   4.525  0.7167  0.1169  0.4258
  979MOL0     C32084   6.549   5.433   4.350  0.1650 -0.4748  0.4698
  979MOL0     C32085   6.605   5.356   4.456  1.0868 -0.9788 -0.6918
  979MOL0     C32086   6.732   5.306   4.461  0.3315  0.7670  0.4790
  979MOL0     C32087   6.817   5.321   4.344 -0.2750 -0.2013  0.4969
  979MOL0     O32088   6.954   5.293   4.340  0.0611  0.0725 -0.2156
  979MOL0     C32089   7.050   5.352   4.438  0.6416 -0.2430 -0.2499
  979MOL0     C32090   7.120   5.477   4.369  0.0691 -0.9964  0.4458
  979MOL0     C32091   7.024   5.601   4.347 -0.0606  0.1077 -0.0493
  979MOL0     C32092   6.980   5.652   4.482 -0.2294 -0.2171  0.1424
  979MOL0     C32093   7.079   5.709   4.577  0.7267 -0.1849  0.6915
  979MOL0     C32094   7.176   5.749   4.639  0.6783 -0.6882 -0.0529
  979MOL0     C32095   6.760   5.377   4.227  0.5730 -0.7876  1.4414
  979MOL0     C32096   6.630   5.439   4.234  0.2530  0.5102 -0.4166
  979MOL0     C32097   6.589   5.504   4.105  0.6754  0.4838  0.5415
  979MOL0     H32098   6.171   5.395   4.534  1.1451  1.2511 -2.8632
  979MOL0     H32099   5.969   5.475   4.673  1.9298  0.2730  2.0759
  979MOL0     H32100   6.008   5.783   4.901 -1.2177  1.3253  0.7318
  979MOL0     H32101   6.013   5.902   4.790  0.9156 -1.2130  1.7393
  979MOL0     H32102   5.844   5.954   4.951  3.0240 -0.3672 -0.3895
  979MOL0     H32103   5.781   5.783   4.931 -3.7910  0.7075 -0.6978
  979MOL0     H32104   5.648   5.989   4.804 -0.7075 -0.5983  1.0239
  979MOL0     H32105   5.684   5.845   4.708  1.6010 -0.0767 -1.2212
  979MOL0     H32106   5.839   6.101   4.773  1.8800 -0.6672 -0.3214
  979MOL0     H32107   5.893   6.002   4.632  1.9092  1.9574  0.4873
  979MOL0     H32108   5.645   6.064   4.554 -1.5243 -0.5215  0.2558
  979MOL0     H32109   5.669   6.181   4.682  1.8127 -1.8434  1.7806
  979MOL0     H32110   5.853   6.116   4.438 -2.4227 -1.4195 -0.4698
  979MOL0     H32111   5.731   6.251   4.441 -1.4729  1.4364  3.9701
  979MOL0     H32112   5.967   6.340   4.459  1.7134 -1.2102  0.5863
  979MOL0     H32113   5.983   6.238   4.594  0.8806  1.7165  0.1538
  979MOL0     H32114   5.914   6.495   4.581 -0.5331  0.0108 -0.9212
  979MOL0     H32115   5.748   6.425   4.619 -0.3998 -0.0194  0.2349
  979MOL0     H32116   6.115   6.452   4.745  0.6315 -2.3666  0.3660
  979MOL0     H32117   6.185   6.369   5.056 -1.4256  1.8457  0.3912
  979MOL0     H32118   6.202   6.528   4.992  1.1396 -0.1452  1.9678
  979MOL0     H32119   5.990   6.484   5.180 -1.7514  2.6408 -0.7299
  979MOL0     H32120   6.157   6.494   5.243  0.7719 -0.9811 -2.0922
  979MOL0     H32121   6.171   6.726   5.097 -1.0946  0.7209 -1.3243
  979MOL0     H32122   6.070   6.721   5.241 -1.5772  0.4901  0.1822
  979MOL0     H32123   5.871   6.672   5.103 -1.2032 -0.1637 -4.9311
  979MOL0     H32124   5.972   6.697   4.962 -0.6265  2.4991 -1.2818
  979MOL0     H32125   5.848   7.074   5.209 -1.3811  0.2402  2.2178
  979MOL0     H32126   5.626   7.173   5.166 -0.1975  0.1441 -1.2438
  979MOL0     H32127   5.182   6.998   4.727 -2.0372 -0.7090 -0.8642
  979MOL0     H32128   5.013   7.132   4.584  2.0794  0.9020 -3.0530
  979MOL0     H32129   5.108   7.327   4.353  0.2682  1.6899 -1.7053
  979MOL0     H32130   4.947   7.268   4.400  1.8974 -0.8444  1.3964
  979MOL0     H32131   4.933   7.471   4.231  0.8509 -2.5687  0.5661
  979MOL0     H32132   4.871   7.510   4.389  0.5797 -1.9842  1.8274
  979MOL0     H32133   5.011   7.699   4.333  1.1034 -0.4175 -1.9437
  979MOL0     H32134   5.116   7.595   4.445 -0.6437  5.5236  1.7476
  979MOL0     H32135   5.199   7.482   4.218  2.6272  0.4042  1.2599
  979MOL0     H32136   5.256   7.645   4.258  1.4591 -0.5676 -4.2076
  979MOL0     H32137   5.104   7.751   4.099  2.3585  0.9790  0.2956
  979MOL0     H32138   5.028   7.596   4.068  0.2034  2.8529 -1.9261
  979MOL0     H32139   5.301   7.667   4.014 -0.1077 -0.0908  1.1321
  979MOL0     H32140   5.232   7.497   4.002  1.6990  0.4952 -1.9172
  979MOL0     H32141   5.230   7.669   3.783  0.4485 -1.6537 -0.1736
  979MOL0     H32142   5.083   7.717   3.867  0.7374 -1.1589 -0.1255
  979MOL0     H32143   5.162   7.456   3.733 -0.3724  0.6246 -0.8655
  979MOL0     H32144   5.069   7.452   3.878 -0.6901  0.5618 -0.5512
  979MOL0     H32145   5.259   7.464   4.621 -0.9710 -1.1279 -2.9154
  979MOL0     H32146   5.395   7.364   4.779 -0.4994  1.6795 -1.7122
  979MOL0     H32147   5.558   6.910   4.847 -2.4295  1.8019  1.8400
  979MOL0     H32148   5.782   6.787   4.899  3.3258  1.6700 -0.4350
  979MOL0     H32149   6.119   5.879   4.579  1.6952  0.2905  0.8056
  979MOL0     H32150   6.336   5.781   4.493  0.1968  0.9655  0.7714
  979MOL0     H32151   6.555   5.338   4.551  0.5615  3.4118  0.0533
  979MOL0     H32152   6.773   5.255   4.548  3.7555  1.0317 -0.8094
  979MOL0     H32153   7.133   5.281   4.443 -0.8500 -2.2613 -2.3021
  979MOL0     H32154   7.010   5.382   4.535 -1.9297  2.5604 -2.0081
  979MOL0     H32155   7.149   5.435   4.271 -0.6946 -0.6654  0.0729
  979MOL0     H32156   7.214   5.491   4.423 -0.2943  1.0169  0.6299
  979MOL0     H32157   6.936   5.563   4.293  0.2969 -0.6542 -0.1027
  979MOL0     H32158   7.075   5.683   4.295 -2.8127  1.8281 -0.2613
  979MOL0     H32159   6.917   5.740   4.468  0.6443  0.1409 -1.7675
  979MOL0     H32160   6.925   5.577   4.539 -4.3340  1.2055 -1.5642
  979MOL0     H32161   7.259   5.805   4.678  0.6134 -0.4880 -0.1997
  979MOL0     H32162   6.819   5.387   4.137 -1.6797  0.2320  0.0060
  979MOL0     H32163   6.554   5.603   4.134 -1.9587 -1.0122  3.0616
  979MOL0     H32164   6.676   5.513   4.039  0.9362 -0.6402  0.7067
  979MOL0     H32165   6.503   5.449   4.066  1.6037  0.3639 -1.4738
  980MOL0     O32166   2.092  10.376   8.254  0.6629  0.2707  0.5127
  980MOL0     C32167   2.196  10.413   8.203  0.3448 -0.3762  0.4490
  980MOL0     O32168   2.200  10.486   8.084 -0.0375 -0.2920  0.5041
  980MOL0     C32169   2.081  10.526   8.036 -0.2461 -0.1986 -0.4635
  980MOL0     C32170   2.005  10.449   7.955 -0.1515  0.6080 -0.2091
  980MOL0     C32171   1.876  10.480   7.915  0.8460 -0.1978 -0.0670
  980MOL0     C32172   1.826  10.605   7.941 -0.1379  0.1072 -1.0993
  980MOL0     O32173   1.701  10.634   7.897  0.1127  0.2177  0.3469
  980MOL0     C32174   1.670  10.773   7.908  0.5078 -0.3763  1.0106
  980MOL0     C32175   1.523  10.797   7.860 -1.0603  0.1048 -0.0912
  980MOL0     C32176   1.514  10.765   7.711 -0.2163  0.4137  0.7336
  980MOL0     C32177   1.365  10.731   7.674  0.2697 -0.2404  0.3902
  980MOL0     C32178   1.334  10.698   7.527  0.0107 -0.5435 -0.4598
  980MOL0     C32179   1.422  10.774   7.417  0.8621  0.7016  1.0145
  980MOL0     C32180   1.369  10.915   7.405  0.7246  0.2496 -0.6238
  980MOL0     C32181   1.234  10.927   7.355 -0.2452  0.4281 -0.2973
  980MOL0     N32182   1.198  11.066   7.358 -0.0183  0.2057  0.5637
  980MOL0     C32183   1.193  11.145   7.249 -1.0374 -0.5576  0.0809
  980MOL0     C32184   1.135  11.255   7.287 -0.6639 -0.3785  0.0303
  980MOL0     C32185   1.095  11.382   7.205 -0.3058 -0.9446  0.4658
  980MOL0     C32186   1.188  11.421   7.083 -0.4679  0.3313 -0.8487
  980MOL0     C32187   1.320  11.480   7.132  0.9356 -0.1859 -0.1168
  980MOL0     C32188   1.436  11.449   7.045  0.4609 -0.2185 -0.6809
  980MOL0     O32189   1.476  11.311   7.056  0.9615 -0.2095  0.1410
  980MOL0     C32190   1.539  11.261   6.944 -0.2493 -0.1268 -0.4130
  980MOL0     C32191   1.610  11.344   6.853  0.2128  0.2496 -0.1690
  980MOL0     C32192   1.682  11.287   6.748  0.0156 -0.2120 -0.1117
  980MOL0     C32193   1.692  11.150   6.733 -0.3540 -0.3042 -0.1339
  980MOL0     C32194   1.767  11.080   6.623  1.0483 -0.4872 -0.0067
  980MOL0     O32195   1.873  11.151   6.569 -0.5241  0.1412  0.0892
  980MOL0     C32196   1.951  11.084   6.481 -0.1438 -0.3021  0.2253
  980MOL0     C32197   1.934  11.086   6.348 -0.3689  0.3326 -0.1910
  980MOL0     C32198   2.033  11.028   6.265  1.2366  0.3586  0.4714
  980MOL0     C32199   2.154  10.977   6.327  0.2768 -0.3608 -0.0093
  980MOL0     O32200   2.243  10.951   6.230  0.3373 -0.0034 -0.2660
  980MOL0     C32201   2.376  10.922   6.276 -1.4026 -0.1365 -0.4454
  980MOL0     C32202   2.467  10.875   6.161  0.3533 -0.1709  0.0210
  980MOL0     C32203   2.520  10.993   6.071 -0.1147 -0.3513 -0.1600
  980MOL0     C32204   2.666  11.011   6.093 -0.0767  0.4080 -0.0350
  980MOL0     C32205   2.727  11.127   6.003 -0.4907  0.8435 -1.0656
  980MOL0     C32206   2.877  11.127   5.987  0.1560  0.0334 -0.8424
  980MOL0     C32207   2.927  11.190   5.857 -0.6270 -0.4434  0.1318
  980MOL0     C32208   2.864  11.332   5.835 -0.3306 -0.3974 -0.6528
  980MOL0    Cl32209   2.949  11.433   5.948  0.4000  0.3584 -0.3824
  980MOL0     C32210   2.166  10.974   6.469 -0.0413 -0.3407  0.4348
  980MOL0     C32211   2.067  11.036   6.541 -0.4259  0.6540 -0.5774
  980MOL0     O32212   1.747  10.957   6.610  0.3134 -0.1185 -0.5764
  980MOL0     C32213   1.627  11.068   6.833 -0.5314  0.7098  0.0477
  980MOL0     C32214   1.560  11.118   6.941 -0.4251 -0.3751  0.3018
  980MOL0     N32215   1.122  11.252   7.423 -0.3297 -1.4032  0.5185
  980MOL0     N32216   1.157  11.136   7.461 -0.0953  0.2616  0.1953
  980MOL0     C32217   1.911  10.687   8.026  0.5731  0.1276 -1.6940
  980MOL0     C32218   2.040  10.650   8.072 -1.2211  0.1397 -1.0546
  980MOL0     C32219   2.326  10.348   8.235  0.6693  0.3379  0.0760
  980MOL0     C32220   2.440  10.382   8.155  0.3565  0.0370  0.1270
  980MOL0     C32221   2.564  10.332   8.176  0.2385 -0.4691  0.5351
  980MOL0     C32222   2.580  10.233   8.271  0.1217 -0.3560  0.5830
  980MOL0     O32223   2.696  10.161   8.290  0.0097 -0.6849 -0.2770
  980MOL0     C32224   2.800  10.255   8.334  0.5959 -0.1294  0.6032
  980MOL0     C32225   2.909  10.162   8.361  0.2385  0.9812 -0.2626
  980MOL0     C32226   3.007  10.219   8.465  0.5843  0.2478 -0.3749
  980MOL0     C32227   3.141  10.151   8.469  0.2940  1.2606  0.6527
  980MOL0     C32228   3.226  10.179   8.353  0.7291 -0.7948  0.2468
  980MOL0     C32229   3.271  10.200   8.238 -0.5589  0.0539 -0.4819
  980MOL0     C32230   2.473  10.198   8.356  0.3317 -0.1360 -0.8417
  980MOL0     C32231   2.346  10.254   8.332 -0.4027  0.2270 -0.3961
  980MOL0     C32232   2.233  10.198   8.429  0.1473  0.4601  0.1464
  980MOL0     H32233   2.037  10.348   7.931 -1.9800 -0.2388  0.6927
  980MOL0     H32234   1.815  10.408   7.862 -1.0919  0.2024  1.5158
  980MOL0     H32235   1.682  10.802   8.012  0.0821 -0.7516  1.1692
  980MOL0     H32236   1.733  10.842   7.850 -2.2928 -0.7698 -2.9726
  980MOL0     H32237   1.502  10.904   7.868 -1.2304  0.2292 -1.8104
  980MOL0     H32238   1.449  10.741   7.918 -2.5013  1.0465 -0.9555
  980MOL0     H32239   1.576  10.679   7.680  2.3361  2.2827  0.3532
  980MOL0     H32240   1.572  10.844   7.663  1.9586 -0.2924  2.0307
  980MOL0     H32241   1.333  10.646   7.734  1.1785 -0.8211  0.0852
  980MOL0     H32242   1.303  10.817   7.701  0.0733  0.2913 -1.5613
  980MOL0     H32243   1.347  10.591   7.513  1.7873 -0.2470 -1.4207
  980MOL0     H32244   1.229  10.727   7.537  0.4993  0.9589  0.9697
  980MOL0     H32245   1.529  10.773   7.441  1.3044 -1.9467 -0.5738
  980MOL0     H32246   1.408  10.723   7.321  2.5971  0.2035  0.9882
  980MOL0     H32247   1.435  10.981   7.348 -1.8642  2.7940 -0.9906
  980MOL0     H32248   1.371  10.949   7.509 -0.6252  1.4332 -0.9376
  980MOL0     H32249   1.225  10.894   7.251  2.0816 -0.1460 -0.3749
  980MOL0     H32250   1.164  10.866   7.414  0.0778 -0.4211 -0.7819
  980MOL0     H32251   1.210  11.119   7.145  1.0881 -2.5431  0.8282
  980MOL0     H32252   0.995  11.361   7.166  0.3553 -2.1924 -0.6575
  980MOL0     H32253   1.077  11.466   7.274 -0.5748 -2.1514  1.9220
  980MOL0     H32254   1.212  11.326   7.035  1.8775 -1.3120  3.1094
  980MOL0     H32255   1.144  11.486   7.006 -0.3869  1.8372  0.3250
  980MOL0     H32256   1.346  11.442   7.232  0.8907  1.3855  0.5193
  980MOL0     H32257   1.312  11.588   7.150 -1.2831 -0.1123 -1.1996
  980MOL0     H32258   1.520  11.513   7.076 -0.0634  0.9117 -1.5112
  980MOL0     H32259   1.410  11.475   6.942  0.5622 -2.0306 -1.1960
  980MOL0     H32260   1.629  11.450   6.866  0.5055  0.1338  0.3808
  980MOL0     H32261   1.738  11.367   6.699  0.0461 -0.3197 -0.2525
  980MOL0     H32262   1.847  11.145   6.319 -0.2213  1.5242  1.6338
  980MOL0     H32263   2.029  11.030   6.157  1.4175  0.7239  0.4701
  980MOL0     H32264   2.411  11.015   6.322 -0.7828 -1.5880  2.2129
  980MOL0     H32265   2.384  10.837   6.344  2.2263  0.1319 -0.3179
  980MOL0     H32266   2.554  10.824   6.203 -0.7832 -3.6111 -1.4262
  980MOL0     H32267   2.411  10.805   6.100 -0.9983  0.7776  0.1286
  980MOL0     H32268   2.485  10.971   5.970 -1.0950  1.0075 -0.1521
  980MOL0     H32269   2.471  11.088   6.093  1.9896  0.6973  0.3117
  980MOL0     H32270   2.717  10.915   6.079  0.5708  0.2377  2.9391
  980MOL0     H32271   2.691  11.031   6.198 -0.8741 -3.0604  0.9356
  980MOL0     H32272   2.688  11.219   6.048 -2.8100  0.3556 -1.9336
  980MOL0     H32273   2.666  11.121   5.912 -2.2438  1.8612  0.0036
  980MOL0     H32274   2.924  11.167   6.077  0.7545 -3.0269  0.3217
  980MOL0     H32275   2.909  11.023   5.988 -2.5491 -0.8955  1.7138
  980MOL0     H32276   2.901  11.122   5.775 -1.6856  0.5788 -0.4089
  980MOL0     H32277   3.035  11.207   5.856 -0.3904 -1.8150  0.4317
  980MOL0     H32278   2.898  11.369   5.738  3.2418  0.0437  0.6089
  980MOL0     H32279   2.755  11.326   5.834 -0.2932 -1.6999  0.3620
  980MOL0     H32280   2.251  10.935   6.523  2.5141 -0.3872 -3.2366
  980MOL0     H32281   2.092  11.039   6.646 -0.3806  3.3330 -0.5987
  980MOL0     H32282   1.644  10.961   6.828 -0.6106  0.7300 -0.8853
  980MOL0     H32283   1.516  11.049   7.012 -3.0192 -1.5906 -2.2498
  980MOL0     H32284   1.880  10.785   8.060 -0.4687 -1.6493  3.3071
  980MOL0     H32285   2.106  10.717   8.125  0.2099 -2.3092  0.4477
  980MOL0     H32286   2.447  10.454   8.074  2.9480 -0.2711 -0.0208
  980MOL0     H32287   2.657  10.368   8.132 -0.0179 -1.6343 -1.0375
  980MOL0     H32288   2.775  10.314   8.422 -1.4960  0.2604 -0.1815
  980MOL0     H32289   2.832  10.325   8.256 -0.3112  1.5889  1.7095
  980MOL0     H32290   2.968  10.162   8.269  0.9070  1.2605  0.1667
  980MOL0     H32291   2.885  10.060   8.395 -1.3640  1.6607  0.7925
  980MOL0     H32292   2.959  10.219   8.564  0.8603 -0.2895 -0.2331
  980MOL0     H32293   3.022  10.325   8.444 -0.1957  1.1916  3.1328
  980MOL0     H32294   3.197  10.182   8.557  2.0265  1.4042 -0.4443
  980MOL0     H32295   3.118  10.044   8.467 -0.1157  1.3316 -1.5825
  980MOL0     H32296   3.308  10.214   8.139  0.9342  2.0656  0.2812
  980MOL0     H32297   2.487  10.117   8.427 -0.6786 -0.7785 -1.3507
  980MOL0     H32298   2.152  10.271   8.446 -1.6103 -0.4067 -3.4646
  980MOL0     H32299   2.190  10.102   8.400 -1.1636  1.6030 -2.0868
  980MOL0     H32300   2.292  10.182   8.519  2.9214 -0.0995 -1.6430
  981MOL0     O32301   8.071   5.826  11.481  0.6549 -0.2735 -0.6379
  981MOL0     C32302   8.176   5.778  11.527  0.8068  0.5703  0.5410
  981MOL0     O32303   8.254   5.691  11.456 -0.6172  0.7186 -0.4479
  981MOL0     C32304   8.219   5.636  11.330 -0.5225 -0.2559 -0.5235
  981MOL0     C32305   8.086   5.618  11.280 -0.2731  0.7740  0.3538
  981MOL0     C32306   8.078   5.586  11.142  0.0953 -0.1225  1.5926
  981MOL0     C32307   8.191   5.547  11.066  0.8229 -0.8232 -0.7462
  981MOL0     O32308   8.171   5.505  10.933 -0.0822 -0.4796  0.2080
  981MOL0     C32309   8.102   5.594  10.846 -0.1259 -0.4378  0.3786
  981MOL0     C32310   8.186   5.717  10.822 -0.3195 -0.5924 -0.2469
  981MOL0     C32311   8.163   5.782  10.685  0.5376  1.0394 -0.2952
  981MOL0     C32312   8.231   5.921  10.683  0.5962 -0.3654 -0.1674
  981MOL0     C32313   8.265   5.996  10.557  0.3471 -0.1187  0.4138
  981MOL0     C32314   8.159   5.980  10.436  0.5067 -0.3577  0.4225
  981MOL0     C32315   8.189   6.059  10.304  0.0995  0.0910  0.8372
  981MOL0     C32316   8.169   6.213  10.286  0.4356 -0.2648  0.6312
  981MOL0     N32317   8.142   6.247  10.140  1.1375  0.3341 -0.3746
  981MOL0     C32318   8.023   6.226  10.078 -0.0501  0.7747  0.3883
  981MOL0     C32319   8.049   6.225   9.946  0.8956 -0.3723  0.0261
  981MOL0     C32320   7.958   6.184   9.837 -0.1322  0.2840  0.3281
  981MOL0     C32321   7.914   6.037   9.852 -0.5887 -0.3818 -0.2631
  981MOL0     C32322   8.009   5.943   9.774  0.0105 -0.3744  0.3544
  981MOL0     C32323   8.139   5.928   9.845 -0.4396  1.0000 -1.1957
  981MOL0     O32324   8.125   5.845   9.966 -0.6531  0.3009  0.1786
  981MOL0     C32325   8.235   5.818  10.043 -0.4314 -0.4781 -0.2760
  981MOL0     C32326   8.354   5.885  10.027 -0.5493 -0.8455  0.3192
  981MOL0     C32327   8.464   5.848  10.100 -0.1406 -0.0458  0.1252
  981MOL0     C32328   8.470   5.725  10.173  0.4580 -1.0459  1.1237
  981MOL0     C32329   8.598   5.668  10.228 -0.4946 -1.4365  0.4519
  981MOL0     O32330   8.711   5.746  10.209 -0.6767  0.5675  0.2769
  981MOL0     C32331   8.830   5.684  10.232 -1.0740  0.4339 -0.2694
  981MOL0     C32332   8.893   5.698  10.355  0.1203  0.7459  0.1973
  981MOL0     C32333   8.999   5.613  10.388 -0.2289 -0.6244 -0.0988
  981MOL0     C32334   9.050   5.520  10.299 -0.2140 -0.4709 -0.0150
  981MOL0     O32335   9.163   5.449  10.319 -0.3210 -0.6865  0.0445
  981MOL0     C32336   9.218   5.438  10.448  0.6514  0.2029 -0.2907
  981MOL0     C32337   9.336   5.339  10.469 -0.0366  0.6613  0.0605
  981MOL0     C32338   9.420   5.314  10.339 -0.4968 -0.6729 -0.2043
  981MOL0     C32339   9.536   5.218  10.363  0.2433 -0.2048 -0.3563
  981MOL0     C32340   9.659   5.274  10.437  1.0071 -0.4641 -0.3219
  981MOL0     C32341   9.734   5.388  10.362 -0.5592 -0.0469 -0.5223
  981MOL0     C32342   9.859   5.434  10.432 -0.6836 -0.4917 -0.0483
  981MOL0     C32343   9.909   5.555  10.368  0.0281 -0.3118  0.7077
  981MOL0    Cl32344   9.944   5.555  10.195  0.0322  0.3100  0.0363
  981MOL0     C32345   9.004   5.516  10.167 -0.1756 -0.2074 -0.7110
  981MOL0     C32346   8.891   5.593  10.139  0.0690 -0.3673  0.4064
  981MOL0     O32347   8.588   5.571  10.308  0.2126  0.0155  0.6885
  981MOL0     C32348   8.341   5.665  10.198 -0.5617  0.2906  0.3746
  981MOL0     C32349   8.230   5.717  10.144  0.7112  0.6228  0.4105
  981MOL0     N32350   8.185   6.258   9.935  0.2108  0.9846 -0.0242
  981MOL0     N32351   8.242   6.267  10.052 -0.0369 -0.0262 -0.1201
  981MOL0     C32352   8.319   5.552  11.122 -0.0851 -0.5495  0.1178
  981MOL0     C32353   8.329   5.592  11.253  0.4613  0.2517 -0.0452
  981MOL0     C32354   8.210   5.810  11.667  0.8559  0.0970  0.8087
  981MOL0     C32355   8.109   5.864  11.746 -0.0204  0.5684 -0.7299
  981MOL0     C32356   8.130   5.900  11.882 -1.0341 -0.3123  0.1663
  981MOL0     C32357   8.250   5.888  11.942  0.0050 -0.1155  0.4116
  981MOL0     O32358   8.281   5.928  12.071 -0.1826  0.5083  0.0308
  981MOL0     C32359   8.181   5.966  12.177  0.1650  0.3912 -0.2481
  981MOL0     C32360   8.111   6.097  12.161 -0.2574 -0.0584  0.2637
  981MOL0     C32361   8.016   6.128  12.286  0.9190 -0.6620  0.3643
  981MOL0     C32362   8.085   6.198  12.407  0.1527 -0.0447  0.8553
  981MOL0     C32363   7.986   6.235  12.508 -0.4200 -0.5033 -1.0309
  981MOL0     C32364   7.906   6.278  12.590  0.1913  0.0239  0.5928
  981MOL0     C32365   8.351   5.831  11.866  0.1071  0.5868 -0.1376
  981MOL0     C32366   8.336   5.783  11.736  0.0274  0.1139  0.3666
  981MOL0     C32367   8.459   5.730  11.671 -0.6912  0.0832  0.5849
  981MOL0     H32368   7.995   5.639  11.335 -0.2002 -0.4835  0.9801
  981MOL0     H32369   7.981   5.584  11.092  1.1334 -1.4552 -0.5422
  981MOL0     H32370   8.091   5.554  10.745 -1.3484  0.8736 -0.0451
  981MOL0     H32371   8.002   5.625  10.877 -0.0359  0.7223 -0.3859
  981MOL0     H32372   8.293   5.694  10.827  0.2386  1.9396  1.5851
  981MOL0     H32373   8.177   5.791  10.901  3.7719 -4.2083  4.2443
  981MOL0     H32374   8.057   5.766  10.660  1.2204 -1.9329 -1.6974
  981MOL0     H32375   8.223   5.715  10.623  0.1938  1.5482 -1.1932
  981MOL0     H32376   8.161   5.978  10.745  2.5168 -0.4743  2.2642
  981MOL0     H32377   8.328   5.912  10.734  0.5833  1.6497  0.3018
  981MOL0     H32378   8.269   6.104  10.575  0.0363 -0.2042  1.0080
  981MOL0     H32379   8.357   5.952  10.517 -0.2066  1.1077 -2.5035
  981MOL0     H32380   8.166   5.876  10.401  1.0554 -0.3085  0.3748
  981MOL0     H32381   8.061   5.993  10.483  1.3740  0.1065  2.1889
  981MOL0     H32382   8.117   6.014  10.235 -3.2841  2.2411  2.6463
  981MOL0     H32383   8.288   6.026  10.273  0.1065  0.4585  0.4518
  981MOL0     H32384   8.088   6.248  10.351  2.5275  2.3358  2.0174
  981MOL0     H32385   8.252   6.270  10.329  1.2989 -2.2574  1.7798
  981MOL0     H32386   7.928   6.199  10.124  0.4229  1.3707  1.7690
  981MOL0     H32387   7.866   6.243   9.841  1.1611  2.5743 -1.0429
  981MOL0     H32388   7.994   6.196   9.734 -0.2182 -0.1289  0.2502
  981MOL0     H32389   7.903   6.015   9.958  1.3146 -1.1930 -0.2002
  981MOL0     H32390   7.815   6.024   9.807 -0.8516 -0.9580  0.4692
  981MOL0     H32391   8.030   5.976   9.672 -0.9247  1.2285  0.6414
  981MOL0     H32392   7.959   5.846   9.765  1.9548 -1.2854 -1.5463
  981MOL0     H32393   8.185   6.026   9.860 -0.3736  0.6064  2.0100
  981MOL0     H32394   8.211   5.876   9.781 -0.5449  1.6579 -1.8533
  981MOL0     H32395   8.359   5.972   9.962  0.2108 -2.9603 -2.6517
  981MOL0     H32396   8.555   5.907  10.088 -0.7280  1.1875  1.4102
  981MOL0     H32397   8.845   5.768  10.423 -0.6314  0.3401  0.0987
  981MOL0     H32398   9.047   5.648  10.479  0.4301  1.8209 -1.2903
  981MOL0     H32399   9.255   5.538  10.470 -0.1793 -0.0515  2.6032
  981MOL0     H32400   9.134   5.426  10.517  0.4597  1.1994 -0.3376
  981MOL0     H32401   9.401   5.369  10.551 -1.1166 -1.6808  1.8906
  981MOL0     H32402   9.295   5.239  10.490  0.7735  0.4135  0.4925
  981MOL0     H32403   9.358   5.263  10.265  0.2962  1.0563 -2.1520
  981MOL0     H32404   9.457   5.408  10.297 -0.8023 -1.4265 -2.2996
  981MOL0     H32405   9.592   5.176  10.278 -0.5598 -0.4805 -0.7573
  981MOL0     H32406   9.490   5.140  10.424  0.6364  1.3281  2.0245
  981MOL0     H32407   9.733   5.194  10.452 -1.2059 -2.5361  0.2664
  981MOL0     H32408   9.636   5.312  10.537  1.2624  0.3367 -0.5634
  981MOL0     H32409   9.753   5.363  10.257 -0.7442  0.5466 -0.6999
  981MOL0     H32410   9.661   5.470  10.364 -1.1678 -0.5710 -0.7373
  981MOL0     H32411   9.942   5.363  10.435  0.1842  0.5138  2.6083
  981MOL0     H32412   9.841   5.455  10.538 -2.0951 -0.9132 -0.1933
  981MOL0     H32413   9.825   5.620  10.396 -1.2290 -0.6457 -1.9886
  981MOL0     H32414  10.005   5.595  10.401  0.2756  0.5044 -0.9227
  981MOL0     H32415   9.048   5.441  10.102 -0.1534  0.0712 -1.0205
  981MOL0     H32416   8.848   5.595  10.039 -0.8953 -0.8622  0.7909
  981MOL0     H32417   8.333   5.579  10.265  1.7653  1.3832  2.1767
  981MOL0     H32418   8.136   5.664  10.156  2.0983 -2.6610 -1.8345
  981MOL0     H32419   8.407   5.505  11.078  1.5190  1.9449  0.4969
  981MOL0     H32420   8.421   5.573  11.307  0.1149 -3.0246 -0.4573
  981MOL0     H32421   8.011   5.885  11.703 -0.5712  1.9189  1.0316
  981MOL0     H32422   8.049   5.944  11.940 -0.9801 -1.1778  0.9139
  981MOL0     H32423   8.224   5.962  12.278 -1.9171  1.7007  0.7460
  981MOL0     H32424   8.110   5.884  12.164  0.1346  0.3187  0.3421
  981MOL0     H32425   8.045   6.088  12.075 -0.7295  1.0372  0.4838
  981MOL0     H32426   8.184   6.173  12.131 -1.3016  0.0596 -2.2015
  981MOL0     H32427   7.948   6.048  12.314  1.1022  0.3301  4.2989
  981MOL0     H32428   7.959   6.209  12.240  0.7324 -1.6609 -1.2230
  981MOL0     H32429   8.160   6.132  12.451  0.9867 -0.1640 -0.7043
  981MOL0     H32430   8.145   6.287  12.390  3.0756 -2.0027  0.3060
  981MOL0     H32431   7.841   6.309  12.669 -0.1289 -0.6716  0.6129
  981MOL0     H32432   8.444   5.810  11.919 -0.5972 -0.0448  0.8955
  981MOL0     H32433   8.470   5.777  11.573 -2.7556 -1.0629 -0.2781
  981MOL0     H32434   8.542   5.754  11.737 -0.8342  0.4664  0.6260
  981MOL0     H32435   8.452   5.625  11.640  0.0741  0.6896 -1.7722
  982MOL0     O32436   8.063   4.572   1.618 -0.2804  0.2197 -0.0357
  982MOL0     C32437   8.142   4.641   1.683  0.0180 -0.2580  0.0357
  982MOL0     O32438   8.109   4.703   1.800 -0.7184 -0.4752  0.1840
  982MOL0     C32439   7.988   4.716   1.858  0.0823 -0.4432  1.1886
  982MOL0     C32440   7.992   4.769   1.990  1.0098  0.3658  0.4703
  982MOL0     C32441   7.867   4.795   2.053 -1.0237  0.5361 -0.9268
  982MOL0     C32442   7.746   4.757   1.993 -0.9865 -0.7526  1.1193
  982MOL0     O32443   7.625   4.769   2.066 -0.4290  0.4884 -0.4105
  982MOL0     C32444   7.560   4.649   2.084 -0.5951 -0.6658  0.2418
  982MOL0     C32445   7.485   4.646   2.215 -0.2482 -0.3964 -0.9117
  982MOL0     C32446   7.363   4.747   2.206  0.6706 -0.0364  0.4495
  982MOL0     C32447   7.389   4.902   2.196 -0.0654 -0.1053  0.2147
  982MOL0     C32448   7.303   4.977   2.295  0.9048 -0.5318 -0.4532
  982MOL0     C32449   7.340   5.123   2.276  1.0034 -0.0271  0.4420
  982MOL0     C32450   7.254   5.227   2.349  0.4746  0.1329 -0.0587
  982MOL0     C32451   7.297   5.258   2.488  0.4741  0.7306 -0.1714
  982MOL0     N32452   7.207   5.360   2.548  0.4895 -0.5528  0.3511
  982MOL0     C32453   7.091   5.330   2.623 -0.4351  0.2007 -0.3195
  982MOL0     C32454   7.050   5.448   2.670  0.4458 -0.2126  0.2738
  982MOL0     C32455   6.918   5.478   2.741 -0.5066 -1.0707 -0.5141
  982MOL0     C32456   6.932   5.550   2.878  1.6553 -0.5983 -0.7633
  982MOL0     C32457   6.993   5.456   2.979 -1.0724  0.7430  0.4813
  982MOL0     C32458   6.956   5.500   3.123 -1.8946  0.7490  0.4864
  982MOL0     O32459   6.844   5.438   3.174  0.2112 -0.8155  0.5270
  982MOL0     C32460   6.826   5.480   3.304  0.3260  0.5471 -0.1141
  982MOL0     C32461   6.829   5.386   3.405  0.0149 -0.1504 -0.0591
  982MOL0     C32462   6.804   5.416   3.538 -0.3478 -0.1457 -0.5261
  982MOL0     C32463   6.786   5.555   3.577  0.4676 -0.3918  0.4521
  982MOL0     C32464   6.767   5.592   3.712 -0.9856 -0.9615 -0.2322
  982MOL0     O32465   6.779   5.717   3.737  0.2639  0.6867 -0.7089
  982MOL0     C32466   6.772   5.758   3.863  0.3157  0.3739  0.2492
  982MOL0     C32467   6.673   5.846   3.903  0.6522 -0.9363  0.1873
  982MOL0     C32468   6.669   5.906   4.027  1.1581  0.0940  0.2512
  982MOL0     C32469   6.764   5.869   4.120 -0.5966 -0.1556 -0.8325
  982MOL0     O32470   6.758   5.934   4.244 -0.4883 -0.5410 -0.0652
  982MOL0     C32471   6.796   6.069   4.228 -0.5357  0.0073 -0.2879
  982MOL0     C32472   6.753   6.127   4.359  0.3274  0.5248 -0.0325
  982MOL0     C32473   6.833   6.079   4.484  1.2133  0.6334  0.2611
  982MOL0     C32474   6.967   6.149   4.501 -0.1721  0.0644  0.4020
  982MOL0     C32475   7.026   6.123   4.649 -1.9257  0.9143  0.4869
  982MOL0     C32476   6.938   6.164   4.764 -0.5164 -0.4886 -0.8966
  982MOL0     C32477   6.923   6.317   4.781 -0.4703  0.5846  0.1268
  982MOL0     C32478   6.830   6.340   4.897  0.2887 -0.9968  1.0775
  982MOL0    Cl32479   6.655   6.283   4.868  0.4075  0.1472  0.2749
  982MOL0     C32480   6.854   5.770   4.090  0.5687 -0.3688 -0.2320
  982MOL0     C32481   6.859   5.717   3.961 -0.5719 -0.6530 -0.2781
  982MOL0     O32482   6.765   5.497   3.798 -1.1602  0.0130  0.1056
  982MOL0     C32483   6.778   5.648   3.468  0.1683  0.5481  0.0786
  982MOL0     C32484   6.797   5.610   3.337  0.4724 -0.7997 -0.0592
  982MOL0     N32485   7.134   5.545   2.622 -0.2419  0.1451  1.2933
  982MOL0     N32486   7.230   5.493   2.562 -0.7533  0.8708  0.8657
  982MOL0     C32487   7.747   4.712   1.860  0.0840 -0.0267  0.4017
  982MOL0     C32488   7.867   4.686   1.796 -0.6523 -0.0813 -0.1524
  982MOL0     C32489   8.281   4.645   1.643  0.6286  0.1955 -1.0181
  982MOL0     C32490   8.377   4.689   1.744  0.2777 -0.6184  1.1945
  982MOL0     C32491   8.514   4.694   1.716 -0.1147 -1.4269  0.2038
  982MOL0     C32492   8.561   4.690   1.583  0.1065  0.1047  0.0191
  982MOL0     O32493   8.692   4.715   1.542  0.0346  0.3132  0.5553
  982MOL0     C32494   8.780   4.793   1.628  1.0420  0.0449  0.5641
  982MOL0     C32495   8.918   4.822   1.562 -0.6275  0.3954 -0.8787
  982MOL0     C32496   8.918   4.911   1.442  0.3637  0.2523 -1.4704
  982MOL0     C32497   8.851   4.859   1.318 -1.0744  0.5516  0.3519
  982MOL0     C32498   8.880   4.944   1.202 -0.4344  0.0526 -0.1669
  982MOL0     C32499   8.907   5.002   1.097 -0.8865 -1.0026 -0.8699
  982MOL0     C32500   8.474   4.651   1.490  0.7566  0.0693  0.3144
  982MOL0     C32501   8.336   4.623   1.517  0.6367  0.4117  0.6366
  982MOL0     C32502   8.252   4.603   1.397  0.1370  0.5588 -0.1545
  982MOL0     H32503   8.083   4.780   2.048 -0.4254  3.9313  2.3240
  982MOL0     H32504   7.858   4.818   2.158  0.8539 -4.3653  0.5724
  982MOL0     H32505   7.490   4.638   2.000 -1.5346  1.1474  0.7255
  982MOL0     H32506   7.635   4.570   2.088 -1.4649 -1.9982 -4.2482
  982MOL0     H32507   7.562   4.678   2.286  1.0498  0.9795 -2.8402
  982MOL0     H32508   7.452   4.546   2.244 -1.2088 -1.2554 -4.4086
  982MOL0     H32509   7.291   4.729   2.287  0.8374  1.8934  1.0700
  982MOL0     H32510   7.300   4.720   2.121 -0.0983  0.5551  0.8146
  982MOL0     H32511   7.494   4.925   2.216  0.3776  1.0109 -2.9281
  982MOL0     H32512   7.381   4.932   2.092 -0.0625  0.6866  0.4356
  982MOL0     H32513   7.195   4.962   2.287  0.7694 -0.4882  0.9695
  982MOL0     H32514   7.332   4.948   2.396  2.8271  1.1332 -0.4478
  982MOL0     H32515   7.447   5.133   2.296  1.1297 -0.0653 -0.1834
  982MOL0     H32516   7.333   5.139   2.168  0.9991  1.7084  0.6763
  982MOL0     H32517   7.145   5.217   2.341 -0.0125  3.1136  1.1830
  982MOL0     H32518   7.275   5.314   2.286 -1.9687  0.2701 -0.7961
  982MOL0     H32519   7.294   5.168   2.549  0.8314 -1.7905 -3.6103
  982MOL0     H32520   7.404   5.283   2.495  0.0843  2.0090  4.4105
  982MOL0     H32521   7.047   5.235   2.651 -1.1919  0.1127 -1.7399
  982MOL0     H32522   6.850   5.527   2.671  1.5365 -0.6555 -2.2934
  982MOL0     H32523   6.871   5.380   2.754  1.2143 -1.8682  0.0378
  982MOL0     H32524   6.987   5.644   2.865 -0.9544  0.8493 -1.9939
  982MOL0     H32525   6.835   5.566   2.925  0.8221 -3.7187 -1.2445
  982MOL0     H32526   7.102   5.456   2.980 -0.9880  3.7127  1.4164
  982MOL0     H32527   6.962   5.352   2.964 -0.6742  0.3254  2.2705
  982MOL0     H32528   6.952   5.609   3.133 -0.1183  0.8888  0.0230
  982MOL0     H32529   7.048   5.467   3.173 -0.9128  0.4767 -1.3979
  982MOL0     H32530   6.839   5.281   3.381 -5.6925 -1.1756  0.5075
  982MOL0     H32531   6.791   5.340   3.614  2.4396 -0.3785 -0.1758
  982MOL0     H32532   6.611   5.885   3.822  3.3452  1.1216 -1.0642
  982MOL0     H32533   6.592   5.972   4.067  0.4482 -1.9834  2.6271
  982MOL0     H32534   6.902   6.093   4.222 -0.5445  2.0831  4.1995
  982MOL0     H32535   6.742   6.122   4.149  0.5857  1.2947 -0.2313
  982MOL0     H32536   6.751   6.236   4.357 -0.9111  0.7104  3.5759
  982MOL0     H32537   6.648   6.099   4.372  0.6093 -0.8440 -0.5243
  982MOL0     H32538   6.764   6.100   4.567  0.1700 -4.3802  0.9916
  982MOL0     H32539   6.840   5.971   4.467  2.4169  1.2218 -3.8581
  982MOL0     H32540   6.933   6.253   4.498  1.0242  0.5663  2.4133
  982MOL0     H32541   7.035   6.117   4.422 -2.3999 -0.6794 -1.3113
  982MOL0     H32542   7.128   6.162   4.654 -1.1628 -0.8776 -0.1185
  982MOL0     H32543   7.054   6.017   4.656  2.4455  1.9303  1.3260
  982MOL0     H32544   6.841   6.112   4.763 -0.8977  0.1000  0.8083
  982MOL0     H32545   6.993   6.147   4.857 -0.0144 -0.7127 -1.2290
  982MOL0     H32546   6.877   6.374   4.700  1.2683  0.8324 -0.7544
  982MOL0     H32547   7.018   6.370   4.797 -0.4690  0.6583 -0.1207
  982MOL0     H32548   6.862   6.291   4.989 -1.8900 -3.0815  0.8387
  982MOL0     H32549   6.826   6.449   4.906  0.3708 -1.0729  2.2916
  982MOL0     H32550   6.924   5.747   4.169  0.1377 -2.3144 -0.3702
  982MOL0     H32551   6.934   5.644   3.930  1.3950  0.1465  2.1634
  982MOL0     H32552   6.755   5.753   3.478  0.6944  0.7896 -1.1398
  982MOL0     H32553   6.768   5.686   3.264 -2.6298 -1.6239  0.1810
  982MOL0     H32554   7.656   4.688   1.807  1.0235  2.6094 -2.7770
  982MOL0     H32555   7.858   4.646   1.696  1.0125 -1.6598  0.2714
  982MOL0     H32556   8.360   4.713   1.848  2.9050  0.3532  1.4781
  982MOL0     H32557   8.584   4.730   1.791 -0.6766 -0.8504  0.4535
  982MOL0     H32558   8.795   4.727   1.714  2.0468 -3.0281 -1.7886
  982MOL0     H32559   8.734   4.887   1.661  2.1068  1.4330 -1.6303
  982MOL0     H32560   8.979   4.735   1.537  3.0855  2.4001  0.4855
  982MOL0     H32561   8.974   4.873   1.641  0.2776 -3.3073  1.0860
  982MOL0     H32562   9.021   4.926   1.411  0.4989 -0.0499 -1.1687
  982MOL0     H32563   8.862   5.002   1.469 -1.1546 -0.7784 -0.9934
  982MOL0     H32564   8.896   4.760   1.307 -2.1353  0.0247  0.5636
  982MOL0     H32565   8.743   4.847   1.334 -1.1507 -1.0917 -1.1642
  982MOL0     H32566   8.923   5.049   1.002 -1.0635 -1.2653 -1.0317
  982MOL0     H32567   8.516   4.630   1.392 -1.2270 -6.6634  0.4179
  982MOL0     H32568   8.313   4.621   1.308 -0.7446  3.3029 -0.2855
  982MOL0     H32569   8.210   4.502   1.386  0.3397  0.5203 -0.5803
  982MOL0     H32570   8.179   4.684   1.403  1.5703  1.9655 -0.9679
  983MOL0     O32571   4.293   2.815  11.361  0.6026  0.1019 -0.0900
  983MOL0     C32572   4.213   2.779  11.271  0.0719  0.0634  1.1201
  983MOL0     O32573   4.217   2.656  11.215  0.3362 -0.0172  0.3798
  983MOL0     C32574   4.318   2.573  11.249  0.6432  0.3919 -0.1108
  983MOL0     C32575   4.295   2.477  11.343  0.7433  0.4308 -0.6396
  983MOL0     C32576   4.405   2.399  11.388  0.6393  0.3763  0.6108
  983MOL0     C32577   4.531   2.423  11.339 -0.6736 -1.1126 -0.5385
  983MOL0     O32578   4.644   2.350  11.377  0.0729  0.2538  0.7308
  983MOL0     C32579   4.655   2.310  11.513  0.0612  0.2723 -0.0085
  983MOL0     C32580   4.625   2.160  11.531  1.8524  0.0907  0.1109
  983MOL0     C32581   4.609   2.124  11.679  0.1699 -0.4942  0.6826
  983MOL0     C32582   4.721   2.175  11.766 -0.8047 -0.0433 -0.1637
  983MOL0     C32583   4.692   2.163  11.917 -0.7581  0.5138 -0.4585
  983MOL0     C32584   4.796   2.221  12.016  0.4430  0.3245  0.4981
  983MOL0     C32585   4.750   2.208  12.163  0.9851  0.0424  1.5119
  983MOL0     C32586   4.868   2.218  12.259  0.3577  0.1897 -0.0812
  983MOL0     N32587   4.908   2.356  12.259  0.5578  0.4753  1.0588
  983MOL0     C32588   5.000   2.426  12.171  0.2531 -0.1427  0.0494
  983MOL0     C32589   4.974   2.558  12.199  0.7647  0.8119  0.6272
  983MOL0     C32590   5.051   2.666  12.130  0.0258 -0.3560  0.0610
  983MOL0     C32591   5.038   2.811  12.180  0.2925  0.1797 -0.1337
  983MOL0     C32592   5.052   2.819  12.337 -0.5500 -0.3839 -0.9414
  983MOL0     C32593   5.202   2.836  12.374  0.1050 -0.3480 -0.4175
  983MOL0     O32594   5.209   2.877  12.514  0.2012  1.0936  0.2312
  983MOL0     C32595   5.327   2.915  12.575 -0.8134  0.1007  0.8078
  983MOL0     C32596   5.325   3.014  12.672  0.9684  0.2164  0.9446
  983MOL0     C32597   5.442   3.056  12.727  0.2244  0.4707 -0.0785
  983MOL0     C32598   5.567   3.015  12.684  0.6385 -0.1843  0.4472
  983MOL0     C32599   5.701   3.066  12.732  0.3309 -0.3970  0.0688
  983MOL0     O32600   5.698   3.172  12.822  0.7009 -0.7530 -0.0100
  983MOL0     C32601   5.816   3.201  12.890  0.3831  0.1462 -0.1086
  983MOL0     C32602   5.927   3.249  12.825 -0.4856 -1.1665  1.2096
  983MOL0     C32603   6.046   3.261  12.889 -0.2101 -0.0723 -0.3105
  983MOL0     C32604   6.048   3.246  13.030 -1.2895  0.5217 -0.3540
  983MOL0     O32605   6.163   3.276  13.102  0.1512  0.4413  0.0152
  983MOL0     C32606   6.278   3.199  13.052 -1.2107 -0.4618 -0.0894
  983MOL0     C32607   6.278   3.047  13.090 -0.5146 -0.2021  0.7655
  983MOL0     C32608   6.378   2.956  13.020  0.3833  0.8561  0.0174
  983MOL0     C32609   6.528   2.990  13.049  0.8267 -0.4237 -0.2354
  983MOL0     C32610   6.619   2.887  12.973 -0.0758 -0.5272  0.7818
  983MOL0     C32611   6.770   2.935  12.978  1.4044  0.7180  0.6853
  983MOL0     C32612   6.831   2.905  13.112  0.5292  0.3613  0.1808
  983MOL0     C32613   6.968   2.978  13.134  0.5846 -0.7168  0.2342
  983MOL0    Cl32614   6.945   3.156  13.150  0.1297  0.1163 -0.3815
  983MOL0     C32615   5.940   3.208  13.102 -0.4779 -0.1542 -0.6130
  983MOL0     C32616   5.822   3.175  13.036 -0.0193 -0.3625  0.2961
  983MOL0     O32617   5.799   3.001  12.694  0.2018 -0.5397 -0.2206
  983MOL0     C32618   5.572   2.915  12.581  0.0312  0.1141 -0.4348
  983MOL0     C32619   5.456   2.857  12.531 -0.4743  0.4166 -0.3159
  983MOL0     N32620   4.872   2.568  12.298  0.1370 -0.6109  0.1294
  983MOL0     N32621   4.828   2.447  12.327 -0.4220  0.1486  0.1142
  983MOL0     C32622   4.547   2.524  11.245  0.4538 -0.4915 -1.0030
  983MOL0     C32623   4.441   2.599  11.204  0.7968 -0.0383 -0.4777
  983MOL0     C32624   4.124   2.885  11.204  0.6484  0.4749  0.1402
  983MOL0     C32625   4.184   3.009  11.173 -0.2726 -0.6219 -0.5955
  983MOL0     C32626   4.103   3.104  11.126 -0.6353 -0.1996 -0.6452
  983MOL0     C32627   3.966   3.087  11.106  0.5449 -0.1748  0.3788
  983MOL0     O32628   3.896   3.190  11.056  0.5361 -0.1047  0.2395
  983MOL0     C32629   3.754   3.195  11.044 -0.4458  1.0355 -0.6144
  983MOL0     C32630   3.695   3.330  11.019  0.1759 -0.0771  1.1090
  983MOL0     C32631   3.578   3.366  11.112  0.1680  0.5416 -1.0401
  983MOL0     C32632   3.518   3.508  11.082 -0.0563 -0.7352 -0.7260
  983MOL0     C32633   3.632   3.609  11.076 -0.9787  0.1033 -0.6799
  983MOL0     C32634   3.718   3.694  11.092  0.7365 -0.5971 -0.1623
  983MOL0     C32635   3.907   2.968  11.124 -0.7813 -0.1713  0.0492
  983MOL0     C32636   3.984   2.867  11.183  0.4588  0.4176 -0.2419
  983MOL0     C32637   3.912   2.745  11.245 -0.7469  0.9595  1.3177
  983MOL0     H32638   4.191   2.449  11.359 -0.0952  3.8482  0.7625
  983MOL0     H32639   4.389   2.320  11.460 -2.5096 -0.9286 -1.3232
  983MOL0     H32640   4.758   2.337  11.536 -0.4825  1.7306  0.8328
  983MOL0     H32641   4.593   2.377  11.573  0.5589 -1.2649  2.4033
  983MOL0     H32642   4.705   2.093  11.499  0.9306 -4.4693  5.7317
  983MOL0     H32643   4.539   2.123  11.474 -0.4533  3.3179  1.1848
  983MOL0     H32644   4.600   2.016  11.690 -1.0865 -0.8487 -2.5993
  983MOL0     H32645   4.516   2.170  11.715  0.7488  1.7928 -0.5637
  983MOL0     H32646   4.810   2.123  11.729  0.5663  1.6830  0.5846
  983MOL0     H32647   4.734   2.280  11.740 -1.9190  0.2838  0.5180
  983MOL0     H32648   4.602   2.223  11.934  0.9611  2.9389  0.7074
  983MOL0     H32649   4.680   2.057  11.943  4.1231 -0.4452 -1.0950
  983MOL0     H32650   4.891   2.170  11.999 -0.3198 -0.7767 -0.7022
  983MOL0     H32651   4.810   2.326  11.992  1.2217  0.4294  1.3650
  983MOL0     H32652   4.707   2.108  12.173  0.4486  0.2628  1.4749
  983MOL0     H32653   4.677   2.288  12.180  1.1344  0.4026  0.5138
  983MOL0     H32654   4.837   2.188  12.359 -3.6193  0.0217 -1.1651
  983MOL0     H32655   4.954   2.158  12.228  0.9281  2.0726 -2.4316
  983MOL0     H32656   5.084   2.394  12.110  0.4837 -1.0489  0.8304
  983MOL0     H32657   5.156   2.636  12.137  0.3064  0.8171  0.9983
  983MOL0     H32658   5.012   2.671  12.028 -0.2823  1.2832  0.2442
  983MOL0     H32659   5.106   2.882  12.133  3.0547 -0.4364  2.5739
  983MOL0     H32660   4.932   2.827  12.162  0.2248  0.7932  0.7621
  983MOL0     H32661   5.023   2.733  12.399  0.1977 -0.2441 -0.3809
  983MOL0     H32662   4.996   2.907  12.369 -0.3398  0.1811 -2.1238
  983MOL0     H32663   5.259   2.909  12.316  0.0439  1.1629  1.3243
  983MOL0     H32664   5.243   2.741  12.339  0.0143 -1.6423  2.6340
  983MOL0     H32665   5.233   3.064  12.701  0.5406 -0.7191  1.2518
  983MOL0     H32666   5.423   3.133  12.802 -0.1010  3.9452 -3.4398
  983MOL0     H32667   5.928   3.278  12.721 -1.8614  1.2646  1.8057
  983MOL0     H32668   6.130   3.307  12.838 -1.3437  1.2680 -1.0474
  983MOL0     H32669   6.303   3.204  12.945  2.2876 -4.0902  0.3224
  983MOL0     H32670   6.360   3.252  13.101 -1.1983  0.0159 -0.6138
  983MOL0     H32671   6.296   3.017  13.194  2.7552  0.2707  0.4338
  983MOL0     H32672   6.177   3.011  13.068 -0.9321  0.0664  2.1412
  983MOL0     H32673   6.366   2.852  13.054 -0.3609  0.8538 -0.2370
  983MOL0     H32674   6.346   2.958  12.916  0.1197 -0.6778  0.0459
  983MOL0     H32675   6.553   2.992  13.155 -0.3876  1.9547  0.0692
  983MOL0     H32676   6.535   3.094  13.015  0.1009 -0.1786  0.3566
  983MOL0     H32677   6.585   2.877  12.869 -1.3030 -1.7864  1.2690
  983MOL0     H32678   6.604   2.787  13.013 -2.2189 -1.2982 -1.6681
  983MOL0     H32679   6.816   2.865  12.907 -2.4626 -4.1131  2.3025
  983MOL0     H32680   6.768   3.041  12.954 -1.3942  0.3853 -0.9571
  983MOL0     H32681   6.854   2.799  13.124 -2.3576 -0.1045  2.7728
  983MOL0     H32682   6.770   2.943  13.194  0.9337 -0.8056  1.0511
  983MOL0     H32683   7.013   2.950  13.230 -0.4880  1.9164  1.5979
  983MOL0     H32684   7.035   2.957  13.050 -0.6739 -1.1226 -0.7067
  983MOL0     H32685   5.949   3.214  13.210 -2.5842 -1.1741 -0.3251
  983MOL0     H32686   5.739   3.137  13.095  0.3432  0.8137  1.6271
  983MOL0     H32687   5.665   2.872  12.542  0.2549  1.3541 -1.3420
  983MOL0     H32688   5.474   2.785  12.452  2.7787  0.1226  0.5467
  983MOL0     H32689   4.645   2.548  11.206 -0.6531  2.3040 -2.3098
  983MOL0     H32690   4.461   2.687  11.142 -0.9285  2.8117  2.6797
  983MOL0     H32691   4.288   3.018  11.202 -0.1699 -0.5887 -0.9624
  983MOL0     H32692   4.142   3.205  11.112 -3.2893  1.0756  0.3565
  983MOL0     H32693   3.707   3.164  11.138 -1.0267 -0.4354 -1.3471
  983MOL0     H32694   3.720   3.112  10.981  1.0277 -1.2772  1.4574
  983MOL0     H32695   3.655   3.338  10.917 -2.8452  5.7621  2.3248
  983MOL0     H32696   3.778   3.400  11.032 -1.3549  1.9529  0.3354
  983MOL0     H32697   3.620   3.364  11.213 -2.5137 -3.2414  0.2210
  983MOL0     H32698   3.499   3.290  11.110  1.0319 -0.3822 -2.9172
  983MOL0     H32699   3.473   3.519  10.983  5.1093 -1.5550 -3.5220
  983MOL0     H32700   3.456   3.535  11.168  0.0565  0.2373 -0.9290
  983MOL0     H32701   3.796   3.767  11.094  0.4924 -0.1763 -2.6714
  983MOL0     H32702   3.803   2.958  11.096 -1.4486  0.2276  2.2245
  983MOL0     H32703   3.900   2.660  11.178 -0.3234  0.8013  1.4378
  983MOL0     H32704   3.970   2.704  11.329 -1.6477 -2.5669  0.3596
  983MOL0     H32705   3.807   2.751  11.272 -1.6297 -2.2432 -0.8232
  984MOL0     O32706   1.819  10.176   7.080 -0.3472 -0.1708  0.2492
  984MOL0     C32707   1.844  10.087   7.161 -0.2561  0.6130  0.3170
  984MOL0     O32708   1.961  10.014   7.165  0.1135  0.2588  0.0205
  984MOL0     C32709   2.079  10.054   7.109  0.5256  0.4201  0.7613
  984MOL0     C32710   2.115  10.005   6.989 -0.8749 -0.2533 -0.3950
  984MOL0     C32711   2.236  10.056   6.928  0.3467 -0.5833 -0.0571
  984MOL0     C32712   2.317  10.148   6.990  1.0373 -1.3317  0.1873
  984MOL0     O32713   2.425  10.191   6.916 -0.1865  0.4581 -0.1280
  984MOL0     C32714   2.529  10.248   6.986  0.4146 -0.2339 -0.2783
  984MOL0     C32715   2.630  10.288   6.883 -1.4126  1.3163 -0.0137
  984MOL0     C32716   2.731  10.404   6.908  0.3440 -0.1813  0.1137
  984MOL0     C32717   2.661  10.538   6.913 -0.2311 -0.7413  0.5841
  984MOL0     C32718   2.771  10.642   6.930  0.2899  0.3518  0.0506
  984MOL0     C32719   2.718  10.780   6.903 -0.1874 -0.6140 -0.7942
  984MOL0     C32720   2.821  10.889   6.928  0.2337 -0.2582  1.0902
  984MOL0     C32721   2.936  10.883   6.820  0.4725 -0.8457  0.1785
  984MOL0     N32722   2.879  10.949   6.689 -0.9744  0.4240  0.4844
  984MOL0     C32723   2.900  11.079   6.652 -0.9249  0.4436  0.1556
  984MOL0     C32724   2.823  11.095   6.541 -0.5248  0.1274 -0.4700
  984MOL0     C32725   2.799  11.231   6.474  1.1755 -0.5790  0.2865
  984MOL0     C32726   2.648  11.270   6.463 -1.0419  0.1607 -1.2804
  984MOL0     C32727   2.593  11.290   6.601  0.9915  0.3027 -0.1572
  984MOL0     C32728   2.496  11.187   6.644 -0.1759  0.5351 -0.1560
  984MOL0     O32729   2.459  11.214   6.784  0.2099 -0.0516  0.5269
  984MOL0     C32730   2.340  11.269   6.816 -0.5723 -0.0080  0.1737
  984MOL0     C32731   2.336  11.318   6.949  0.2086 -0.2224 -0.0467
  984MOL0     C32732   2.230  11.389   6.998  1.1083  0.5380  0.2661
  984MOL0     C32733   2.114  11.409   6.912 -0.5471  0.0739  0.7040
  984MOL0     C32734   2.005  11.486   6.962  0.0548 -0.3505  0.0803
  984MOL0     O32735   2.001  11.499   7.100 -0.5887  0.0490 -0.4949
  984MOL0     C32736   1.942  11.602   7.168  1.3499 -0.1301 -0.4840
  984MOL0     C32737   1.825  11.666   7.131  0.6400 -0.7963  0.0872
  984MOL0     C32738   1.784  11.773   7.203  0.4176  0.1613  0.1641
  984MOL0     C32739   1.841  11.804   7.326  0.1571 -0.2279 -0.3601
  984MOL0     O32740   1.782  11.918   7.394  0.2844  0.2197  0.1415
  984MOL0     C32741   1.860  11.996   7.486 -1.2902  0.2462  0.1582
  984MOL0     C32742   1.916  12.120   7.403 -0.4820  0.4529 -0.4717
  984MOL0     C32743   1.800  12.191   7.344 -0.2410 -0.5908  0.2508
  984MOL0     C32744   1.845  12.308   7.258  0.0930  0.9107  0.3472
  984MOL0     C32745   1.730  12.399   7.223 -0.1656  0.2123  0.8635
  984MOL0     C32746   1.761  12.528   7.158 -0.7732  0.1028  0.2644
  984MOL0     C32747   1.633  12.577   7.091  0.9838 -1.0111  0.4224
  984MOL0     C32748   1.600  12.721   7.149  0.6027  0.2059 -0.6710
  984MOL0    Cl32749   1.742  12.828   7.151  0.1609  0.6057  0.1563
  984MOL0     C32750   1.945  11.726   7.377 -0.2069  0.3031 -0.7019
  984MOL0     C32751   1.998  11.631   7.290  0.0260 -0.2058 -0.5217
  984MOL0     O32752   1.924  11.536   6.891 -0.0440  0.1682  0.8239
  984MOL0     C32753   2.107  11.338   6.789 -0.8806 -0.2841  0.0098
  984MOL0     C32754   2.228  11.276   6.735 -0.0009 -0.0534 -0.5214
  984MOL0     N32755   2.758  10.982   6.515 -0.3999  0.2238 -0.1788
  984MOL0     N32756   2.791  10.886   6.598  0.3168 -1.3186 -0.0464
  984MOL0     C32757   2.279  10.204   7.112  1.2760 -0.4176  0.1328
  984MOL0     C32758   2.157  10.161   7.165  0.4287 -0.1156  0.5449
  984MOL0     C32759   1.728  10.044   7.251  0.0616 -0.1583  0.0390
  984MOL0     C32760   1.607  10.112   7.260  0.6211  0.6354 -0.0632
  984MOL0     C32761   1.499  10.078   7.346  0.6484  0.7012  0.3209
  984MOL0     C32762   1.517   9.975   7.436 -0.0293  0.7911  0.7236
  984MOL0     O32763   1.422   9.949   7.531  0.7010  0.4294  0.3062
  984MOL0     C32764   1.352   9.821   7.507  0.0689  0.3265  0.6900
  984MOL0     C32765   1.278   9.810   7.375 -0.4709  0.8222  0.6347
  984MOL0     C32766   1.168   9.915   7.374  0.6442 -0.1395  0.6197
  984MOL0     C32767   1.119   9.954   7.230 -0.2987  1.0237  1.1522
  984MOL0     C32768   0.999  10.033   7.226 -0.0467  0.4655 -0.0607
  984MOL0     C32769   0.896  10.098   7.241 -0.5075  0.3672 -0.3381
  984MOL0     C32770   1.639   9.907   7.441 -0.1228 -0.7525  0.4973
  984MOL0     C32771   1.741   9.934   7.348 -0.8068 -0.4107  0.5184
  984MOL0     C32772   1.865   9.843   7.367 -0.0784 -0.1097  0.4551
  984MOL0     H32773   2.047   9.936   6.940 -1.1550 -0.2553 -0.0103
  984MOL0     H32774   2.266  10.034   6.826 -1.4576  3.5201 -1.7108
  984MOL0     H32775   2.506  10.339   7.043  2.8219  0.7805 -0.7914
  984MOL0     H32776   2.581  10.177   7.052  6.0133 -1.3988 -5.0470
  984MOL0     H32777   2.592  10.310   6.783  1.1247 -0.7242 -1.5487
  984MOL0     H32778   2.693  10.200   6.869 -1.7240  0.9071  1.0622
  984MOL0     H32779   2.805  10.383   6.830 -1.8495  0.2090 -2.2005
  984MOL0     H32780   2.779  10.391   7.006 -0.9646 -1.5416  0.6167
  984MOL0     H32781   2.588  10.556   6.834  0.8199 -0.0015 -0.2589
  984MOL0     H32782   2.605  10.540   7.007  0.3526 -0.9522  0.9397
  984MOL0     H32783   2.822  10.637   7.027  3.3783  2.6385 -1.2972
  984MOL0     H32784   2.844  10.616   6.853 -2.4446 -0.0997 -2.5586
  984MOL0     H32785   2.686  10.788   6.798 -1.4131 -2.6184 -0.6101
  984MOL0     H32786   2.631  10.795   6.967 -1.3060 -1.3244 -2.0817
  984MOL0     H32787   2.858  10.874   7.030 -1.2712 -1.3272  1.5167
  984MOL0     H32788   2.768  10.984   6.940 -0.0324 -0.2591 -0.0036
  984MOL0     H32789   3.020  10.935   6.866  0.6570 -0.8878 -0.1083
  984MOL0     H32790   2.964  10.779   6.804 -2.0397 -1.5858  0.0977
  984MOL0     H32791   2.961  11.156   6.696 -0.0547  0.5607 -1.1953
  984MOL0     H32792   2.860  11.310   6.518 -0.1970  1.6272 -1.5496
  984MOL0     H32793   2.828  11.229   6.368 -2.3339  0.8811 -0.8510
  984MOL0     H32794   2.650  11.370   6.418  0.1173  0.1377 -1.3320
  984MOL0     H32795   2.592  11.199   6.402  1.0884 -1.2941 -1.6648
  984MOL0     H32796   2.549  11.390   6.590  1.4505  0.4124 -1.1759
  984MOL0     H32797   2.668  11.308   6.679  1.2274 -0.2982 -0.2425
  984MOL0     H32798   2.538  11.086   6.646  0.4830  0.7938 -0.5738
  984MOL0     H32799   2.408  11.192   6.579 -1.1003 -0.0476  1.0077
  984MOL0     H32800   2.421  11.310   7.017 -0.2822 -1.4641  0.4572
  984MOL0     H32801   2.233  11.457   7.083  0.6526  2.6242 -1.3089
  984MOL0     H32802   1.770  11.644   7.040  0.0131  1.1886 -0.0524
  984MOL0     H32803   1.695  11.827   7.173 -1.4845 -3.0595 -0.5521
  984MOL0     H32804   1.807  12.018   7.580  1.5555 -2.8262  2.7232
  984MOL0     H32805   1.948  11.944   7.524 -3.4050 -0.5848  4.5914
  984MOL0     H32806   1.975  12.189   7.464  1.2854 -2.0932  0.8534
  984MOL0     H32807   1.976  12.078   7.322  1.1700 -3.8956  2.6607
  984MOL0     H32808   1.726  12.132   7.289 -3.2455  1.8700  1.3167
  984MOL0     H32809   1.746  12.234   7.429 -1.5520  1.1955 -1.3873
  984MOL0     H32810   1.887  12.257   7.170 -2.8167 -1.4633  0.1900
  984MOL0     H32811   1.918  12.361   7.320 -1.3611  2.1701  1.0449
  984MOL0     H32812   1.679  12.435   7.314 -2.3873 -1.4405  0.3424
  984MOL0     H32813   1.661  12.341   7.161 -0.2214  1.9430 -0.7962
  984MOL0     H32814   1.802  12.598   7.232 -0.2286  0.4934 -0.3962
  984MOL0     H32815   1.842  12.500   7.090  0.3133 -0.9004  1.8867
  984MOL0     H32816   1.542  12.516   7.091  1.8514 -2.3473 -0.7957
  984MOL0     H32817   1.653  12.589   6.984  0.2330 -0.3619  0.3430
  984MOL0     H32818   1.513  12.765   7.100  0.4157  2.1538  1.2692
  984MOL0     H32819   1.572  12.710   7.255  0.5901 -1.2042 -0.7908
  984MOL0     H32820   1.978  11.745   7.478 -0.5325 -1.0369 -0.3239
  984MOL0     H32821   2.095  11.588   7.314 -0.5972 -0.3967  2.0347
  984MOL0     H32822   2.026  11.339   6.717 -0.4953 -3.7735 -0.6292
  984MOL0     H32823   2.212  11.225   6.641 -0.6239 -2.3546  0.7561
  984MOL0     H32824   2.335  10.275   7.172  0.9029 -2.2508  2.8214
  984MOL0     H32825   2.139  10.222   7.254 -0.8866  1.1909 -0.5585
  984MOL0     H32826   1.583  10.189   7.187 -1.3260 -3.5358 -4.3638
  984MOL0     H32827   1.403  10.129   7.341 -0.3573 -0.9482  1.5991
  984MOL0     H32828   1.278   9.813   7.587 -1.3142  2.2747 -0.3289
  984MOL0     H32829   1.429   9.745   7.528 -0.3136  0.8824  5.1801
  984MOL0     H32830   1.226   9.715   7.364 -0.3629  0.9144 -0.7337
  984MOL0     H32831   1.343   9.820   7.288 -1.4649  1.1520 -0.0917
  984MOL0     H32832   1.200  10.008   7.423 -0.7340  0.3844  0.5653
  984MOL0     H32833   1.076   9.881   7.422  0.5965  4.3755  4.5649
  984MOL0     H32834   1.201  10.001   7.175 -1.3135  0.6357 -0.8051
  984MOL0     H32835   1.092   9.862   7.177  0.0291  0.6520  1.6154
  984MOL0     H32836   0.808  10.153   7.269  0.2709  1.3752  0.2062
  984MOL0     H32837   1.639   9.821   7.507 -1.5703  1.1884  3.2072
  984MOL0     H32838   1.879   9.796   7.269  2.0625  2.3032 -0.5286
  984MOL0     H32839   1.945   9.914   7.393 -1.8594  3.0835 -1.9607
  984MOL0     H32840   1.874   9.767   7.445  2.5261  0.6481  1.0086
  985MOL0     O32841   7.706  11.033   9.760 -0.2215  0.4401  0.6240
  985MOL0     C32842   7.734  11.050   9.640  0.5417  0.0528  0.4944
  985MOL0     O32843   7.796  11.155   9.585 -0.0527  0.0164  0.1434
  985MOL0     C32844   7.827  11.268   9.661 -0.4258  0.9228 -0.0630
  985MOL0     C32845   7.767  11.320   9.782  0.1619  0.5192 -0.3625
  985MOL0     C32846   7.802  11.445   9.828 -1.3635 -0.1490  0.5924
  985MOL0     C32847   7.897  11.528   9.770 -0.8245  0.2709  1.1139
  985MOL0     O32848   7.923  11.642   9.834 -0.2183 -0.8887  0.2949
  985MOL0     C32849   8.063  11.697   9.838 -0.3795  0.0591 -0.0992
  985MOL0     C32850   8.137  11.652   9.970  0.6803  0.5493 -0.9131
  985MOL0     C32851   8.056  11.685  10.095 -0.6327 -0.5789 -0.5001
  985MOL0     C32852   7.978  11.562  10.140  0.3316 -0.7173 -0.4731
  985MOL0     C32853   7.883  11.595  10.255 -0.9738 -0.1048 -0.4401
  985MOL0     C32854   7.781  11.479  10.296 -0.6385  0.3394 -0.2732
  985MOL0     C32855   7.855  11.346  10.286  0.7948 -0.1317 -0.7788
  985MOL0     C32856   7.767  11.234  10.341  0.0284  0.4288  0.4547
  985MOL0     N32857   7.760  11.226  10.489 -0.0535  0.1358 -0.6213
  985MOL0     C32858   7.862  11.181  10.562 -0.8363 -0.0735 -0.0892
  985MOL0     C32859   7.811  11.144  10.680  0.7888  0.3732 -0.6863
  985MOL0     C32860   7.901  11.095  10.791  0.4590 -1.2455  0.3334
  985MOL0     C32861   7.950  10.957  10.767 -0.6636  0.0692 -1.2562
  985MOL0     C32862   7.852  10.847  10.802 -0.6275 -0.2415  0.4940
  985MOL0     C32863   7.798  10.853  10.944 -1.2747  0.7905 -0.4658
  985MOL0     O32864   7.907  10.863  11.041 -0.1357 -0.1405 -0.4164
  985MOL0     C32865   7.891  10.801  11.166  0.7760  0.3323  0.1685
  985MOL0     C32866   7.924  10.877  11.276  0.7754  0.6792 -0.2084
  985MOL0     C32867   7.922  10.825  11.403  0.7438 -1.4247  0.8871
  985MOL0     C32868   7.889  10.693  11.430  0.0385  0.6203  0.1776
  985MOL0     C32869   7.897  10.638  11.570 -0.9227 -0.1837  0.1938
  985MOL0     O32870   7.848  10.516  11.589 -0.6749 -0.4881  0.6258
  985MOL0     C32871   7.866  10.454  11.711 -0.2832 -0.4722 -0.2962
  985MOL0     C32872   7.978  10.366  11.735  0.1619 -1.1696  0.3121
  985MOL0     C32873   8.009  10.325  11.870 -0.7606 -0.1566  0.2324
  985MOL0     C32874   7.926  10.362  11.976  0.2208 -0.0936 -0.9206
  985MOL0     O32875   7.942  10.340  12.108  0.2043  0.1581 -0.0366
  985MOL0     C32876   8.038  10.230  12.149  0.3908  0.8759  0.0602
  985MOL0     C32877   8.047  10.204  12.294  0.3260  0.6892 -0.8426
  985MOL0     C32878   8.130  10.081  12.328  0.4053  0.5637  0.4097
  985MOL0     C32879   8.153  10.073  12.483  0.1550  0.5854  0.4050
  985MOL0     C32880   8.251   9.960  12.519 -0.1111 -0.3196 -0.7655
  985MOL0     C32881   8.175   9.828  12.547  0.6605 -0.6344  0.1403
  985MOL0     C32882   8.266   9.743  12.641 -1.0742 -0.6416 -0.1650
  985MOL0     C32883   8.193   9.628  12.718 -0.0060  0.2472 -0.3265
  985MOL0    Cl32884   8.106   9.542  12.590  0.3295 -0.2523 -0.5263
  985MOL0     C32885   7.810  10.448  11.950  0.3907 -0.0741 -0.4257
  985MOL0     C32886   7.784  10.497  11.822 -0.2505  0.7932  0.1908
  985MOL0     O32887   7.966  10.701  11.655 -0.0555 -0.3067 -0.2911
  985MOL0     C32888   7.841  10.619  11.321  0.6539  0.1084  0.0123
  985MOL0     C32889   7.847  10.662  11.188  0.4389  0.1462  0.4779
  985MOL0     N32890   7.668  11.145  10.666  0.3464 -0.1261  0.0386
  985MOL0     N32891   7.642  11.199  10.555 -0.0424 -0.6967  0.7291
  985MOL0     C32892   7.973  11.483   9.654  0.8946 -0.5106  0.1991
  985MOL0     C32893   7.934  11.352   9.604 -0.5532  0.3821 -0.4871
  985MOL0     C32894   7.664  10.960   9.552 -0.4218  0.9781 -0.2144
  985MOL0     C32895   7.525  10.977   9.536  0.3830 -0.0276 -0.1369
  985MOL0     C32896   7.464  10.913   9.434 -0.2410  0.5276  0.2762
  985MOL0     C32897   7.538  10.817   9.355 -0.5149 -0.4386 -1.2381
  985MOL0     O32898   7.479  10.746   9.253 -0.2487  0.0861 -0.0863
  985MOL0     C32899   7.484  10.606   9.222  0.3992 -0.0768  1.1661
  985MOL0     C32900   7.340  10.562   9.226 -0.0553  0.1469 -0.1660
  985MOL0     C32901   7.282  10.571   9.373  0.7169  0.4270 -0.5608
  985MOL0     C32902   7.131  10.519   9.382 -0.3225 -0.3992 -0.0616
  985MOL0     C32903   7.113  10.365   9.353  0.1578 -0.9175 -0.3262
  985MOL0     C32904   7.094  10.252   9.311 -0.3244  0.2822  0.4732
  985MOL0     C32905   7.670  10.785   9.383 -1.0656  0.4666 -0.0007
  985MOL0     C32906   7.739  10.866   9.471  0.3120 -0.5294 -0.6925
  985MOL0     C32907   7.886  10.869   9.464 -0.6972  0.2405  0.0230
  985MOL0     H32908   7.684  11.262   9.823  1.6431 -2.8902 -1.7766
  985MOL0     H32909   7.754  11.495   9.912 -4.8345 -1.2691 -0.5085
  985MOL0     H32910   8.118  11.692   9.744 -3.1506  3.1724 -2.1331
  985MOL0     H32911   8.055  11.806   9.844 -1.4862  0.4056 -4.6304
  985MOL0     H32912   8.234  11.701   9.968  1.0480  0.1054  2.0186
  985MOL0     H32913   8.140  11.543   9.968 -1.4562  0.4036  0.0047
  985MOL0     H32914   7.994  11.770  10.067  1.5403  1.0890 -0.5083
  985MOL0     H32915   8.126  11.710  10.175  0.6359 -2.5590 -0.8982
  985MOL0     H32916   7.907  11.533  10.061 -0.7735  1.4746 -0.3542
  985MOL0     H32917   8.043  11.481  10.174 -0.7994 -2.3170 -1.8972
  985MOL0     H32918   7.942  11.624  10.342 -3.2079 -0.8079  1.3939
  985MOL0     H32919   7.822  11.684  10.237  0.3301  1.1171  0.9051
  985MOL0     H32920   7.735  11.486  10.395 -1.9340 -1.9006 -0.6491
  985MOL0     H32921   7.697  11.484  10.226 -2.6371  0.7842  2.0353
  985MOL0     H32922   7.940  11.348  10.355  0.0719 -2.8589  0.2985
  985MOL0     H32923   7.888  11.320  10.185  4.1506  0.4236  0.0286
  985MOL0     H32924   7.669  11.240  10.292 -0.8326 -1.1100  1.8922
  985MOL0     H32925   7.810  11.144  10.296 -1.8162  0.3709 -1.3431
  985MOL0     H32926   7.970  11.172  10.552 -0.7175  0.2658  0.8043
  985MOL0     H32927   7.982  11.169  10.798 -2.2920  1.9669  0.9231
  985MOL0     H32928   7.835  11.120  10.875 -1.2322 -1.0154 -1.0044
  985MOL0     H32929   7.989  10.949  10.665  0.9785 -0.6606 -0.6043
  985MOL0     H32930   8.038  10.919  10.820 -0.1574  1.1912 -1.2502
  985MOL0     H32931   7.903  10.752  10.784  1.4245  1.0999 -1.0402
  985MOL0     H32932   7.776  10.853  10.724  0.9339  1.1047 -0.9980
  985MOL0     H32933   7.756  10.754  10.965  0.5747 -0.0724 -0.6027
  985MOL0     H32934   7.728  10.936  10.950 -1.6539  0.5292 -1.1713
  985MOL0     H32935   7.960  10.976  11.251  3.6997 -0.3001 -0.3122
  985MOL0     H32936   7.953  10.901  11.475 -0.6856  0.3095 -0.2318
  985MOL0     H32937   8.056  10.340  11.665  2.8709  0.0888  2.6712
  985MOL0     H32938   8.104  10.276  11.891 -0.6150  1.1707  3.2442
  985MOL0     H32939   7.985  10.151  12.096 -1.7189  4.3294 -3.4909
  985MOL0     H32940   8.138  10.245  12.106 -0.5724  0.3297 -2.5500
  985MOL0     H32941   8.091  10.284  12.355  2.2316 -0.0200 -1.2186
  985MOL0     H32942   7.944  10.195  12.330  1.1511  2.6646  2.4433
  985MOL0     H32943   8.064  10.000  12.295 -0.0461  0.7153  0.9233
  985MOL0     H32944   8.221  10.082  12.268  1.9496  0.2098  2.5908
  985MOL0     H32945   8.061  10.067  12.543 -1.0728  0.1284 -1.4399
  985MOL0     H32946   8.199  10.166  12.518  0.6416 -0.4025  2.5533
  985MOL0     H32947   8.295  10.005  12.609 -0.8161  0.0187 -0.5835
  985MOL0     H32948   8.335   9.956  12.449  1.6582  1.2651  1.0854
  985MOL0     H32949   8.074   9.843  12.587  0.2976 -1.0768 -0.5846
  985MOL0     H32950   8.163   9.779  12.450  1.8097  0.1658 -0.4247
  985MOL0     H32951   8.304   9.815  12.713 -3.2075 -1.6268  2.1172
  985MOL0     H32952   8.352   9.692  12.597  0.6596  0.3254  1.9293
  985MOL0     H32953   8.265   9.568  12.776 -0.4035 -1.0844 -1.1640
  985MOL0     H32954   8.121   9.672  12.787  0.1520 -3.9120  2.9054
  985MOL0     H32955   7.736  10.482  12.021 -0.1245  0.6245 -1.2723
  985MOL0     H32956   7.705  10.569  11.802 -1.1870 -0.2344  0.1008
  985MOL0     H32957   7.796  10.520  11.328 -0.6780  0.5383 -1.9265
  985MOL0     H32958   7.825  10.598  11.104 -2.6946 -2.4288  3.0049
  985MOL0     H32959   8.061  11.532   9.614  0.3237  0.8675  0.5776
  985MOL0     H32960   7.978  11.311   9.513 -0.6081 -0.9518  0.0616
  985MOL0     H32961   7.465  11.054   9.584 -1.2318 -0.0391 -2.0005
  985MOL0     H32962   7.362  10.931   9.401  0.1930 -1.1875 -2.3314
  985MOL0     H32963   7.536  10.540   9.292  1.8633 -0.5087 -0.2832
  985MOL0     H32964   7.535  10.581   9.129 -3.7479 -1.1032 -1.0731
  985MOL0     H32965   7.327  10.465   9.178  0.4831  0.3204 -0.6712
  985MOL0     H32966   7.292  10.635   9.159 -0.1140  2.1911  1.9647
  985MOL0     H32967   7.298  10.676   9.401  1.5601  0.3940 -0.9043
  985MOL0     H32968   7.352  10.516   9.437  1.5108  0.9445 -0.9573
  985MOL0     H32969   7.092  10.546   9.480  1.2687 -1.1730  0.8270
  985MOL0     H32970   7.064  10.577   9.318  0.9622  0.7870 -0.3697
  985MOL0     H32971   7.079  10.154   9.271 -2.2009  1.3069 -1.4821
  985MOL0     H32972   7.729  10.714   9.326  1.7569 -0.4590  3.7153
  985MOL0     H32973   7.935  10.920   9.548 -0.2330  0.1506 -0.1879
  985MOL0     H32974   7.927  10.768   9.450  0.3625  0.2743  2.4148
  985MOL0     H32975   7.921  10.927   9.378 -0.3693 -0.1361 -0.1033
  986MOL0     O32976   6.265  10.312   2.323 -0.1117 -0.6100  0.1484
  986MOL0     C32977   6.157  10.289   2.378  0.0412  0.1411 -0.2011
  986MOL0     O32978   6.056  10.375   2.393 -0.2049  0.8350 -0.0906
  986MOL0     C32979   6.066  10.496   2.320  0.5066 -0.0795 -0.0737
  986MOL0     C32980   6.179  10.573   2.316 -0.3409 -0.4936 -0.0001
  986MOL0     C32981   6.177  10.696   2.246 -0.7618 -0.6879 -0.3679
  986MOL0     C32982   6.074  10.722   2.163  0.3580  0.1216  0.7255
  986MOL0     O32983   6.073  10.828   2.080 -0.5291 -0.4026  0.4036
  986MOL0     C32984   6.181  10.840   1.996 -1.0899 -0.3041  0.4273
  986MOL0     C32985   6.147  10.898   1.854  0.5439 -0.2413 -0.2894
  986MOL0     C32986   6.270  10.886   1.762 -0.1160 -0.2797  0.7540
  986MOL0     C32987   6.312  10.740   1.726 -0.0849  0.7345 -0.4628
  986MOL0     C32988   6.451  10.706   1.656 -0.9308  0.2442 -0.0526
  986MOL0     C32989   6.568  10.776   1.735 -0.7370  0.7506 -0.0500
  986MOL0     C32990   6.699  10.718   1.691  0.2877 -0.0724 -0.3541
  986MOL0     C32991   6.767  10.770   1.563 -0.0354  0.2088  0.3020
  986MOL0     N32992   6.847  10.893   1.568 -0.4282  0.0523  0.8134
  986MOL0     C32993   6.870  10.974   1.459 -0.3247 -0.3427 -0.3133
  986MOL0     C32994   6.918  11.088   1.512 -0.3387 -0.9780 -0.9194
  986MOL0     C32995   6.987  11.205   1.431  0.4885 -0.7293  1.0042
  986MOL0     C32996   6.916  11.345   1.445 -0.6922  0.0135 -0.5729
  986MOL0     C32997   7.006  11.451   1.394 -0.7376 -0.8028  0.0248
  986MOL0     C32998   6.956  11.591   1.405 -0.5806  0.8264  0.1399
  986MOL0     O32999   6.830  11.598   1.342  0.3265 -0.2430  0.2757
  986MOL0     C33000   6.784  11.709   1.289  0.3028 -0.0204 -0.0153
  986MOL0     C33001   6.745  11.810   1.378  0.4573  0.2174 -0.0473
  986MOL0     C33002   6.672  11.924   1.335  0.1264  1.3707 -0.9408
  986MOL0     C33003   6.643  11.930   1.199  0.5614  0.2058  0.8545
  986MOL0     C33004   6.582  12.063   1.142 -0.7058 -0.2400 -0.3855
  986MOL0     O33005   6.565  12.087   1.005  0.8622 -0.4044  0.1121
  986MOL0     C33006   6.569  12.220   0.958 -0.2473  0.1902 -1.5750
  986MOL0     C33007   6.670  12.262   0.865  0.0236 -0.7316  0.3063
  986MOL0     C33008   6.670  12.392   0.807 -0.1093 -0.2504  0.7779
  986MOL0     C33009   6.565  12.476   0.837  1.0947 -0.0599 -0.8312
  986MOL0     O33010   6.558  12.611   0.805 -0.3929  0.7213 -0.0523
  986MOL0     C33011   6.667  12.669   0.734  0.5636 -0.0433 -0.0263
  986MOL0     C33012   6.635  12.818   0.713 -0.4926 -0.7987  0.1409
  986MOL0     C33013   6.748  12.889   0.633 -0.3050 -0.7690  0.4716
  986MOL0     C33014   6.702  13.021   0.580 -0.1151 -0.1542 -0.2900
  986MOL0     C33015   6.807  13.087   0.493  0.2747 -0.6133 -0.4732
  986MOL0     C33016   6.793  13.034   0.353  0.8367  0.7722 -0.0166
  986MOL0     C33017   6.654  13.029   0.274  0.5390  0.2323 -0.5316
  986MOL0     C33018   6.587  13.172   0.276  0.3044  0.2514  0.6300
  986MOL0    Cl33019   6.694  13.287   0.202  0.1953  0.3067 -0.1854
  986MOL0     C33020   6.467  12.430   0.924 -0.0738  0.0187 -0.2807
  986MOL0     C33021   6.471  12.310   0.993 -0.1132  1.2416  0.7145
  986MOL0     O33022   6.551  12.152   1.226  0.4861  0.1347 -0.7711
  986MOL0     C33023   6.673  11.824   1.112  0.6615  0.6579  0.2659
  986MOL0     C33024   6.743  11.713   1.156  1.0586 -0.4402 -0.6862
  986MOL0     N33025   6.912  11.085   1.649  0.0168 -0.2106 -0.3121
  986MOL0     N33026   6.872  10.968   1.683 -0.2138  0.5253  0.1908
  986MOL0     C33027   5.962  10.643   2.161 -0.3230  0.1225 -0.5167
  986MOL0     C33028   5.956  10.522   2.238  0.0174  0.2310 -0.2119
  986MOL0     C33029   6.124  10.142   2.421 -0.0757 -0.3156 -0.4038
  986MOL0     C33030   5.997  10.090   2.397  0.2831  1.2674 -0.5399
  986MOL0     C33031   5.970   9.960   2.444 -0.6032  0.3877  0.7466
  986MOL0     C33032   6.051   9.896   2.531  1.0691  0.3954  0.6695
  986MOL0     O33033   6.008   9.773   2.581  0.6037  0.3136  0.3038
  986MOL0     C33034   6.091   9.702   2.664 -0.0647 -0.7513 -0.4464
  986MOL0     C33035   6.024   9.579   2.712  0.2403  0.7302  0.3142
  986MOL0     C33036   6.132   9.512   2.799 -0.4414 -0.1401  0.5770
  986MOL0     C33037   6.067   9.420   2.910 -0.2441 -0.1689 -0.4288
  986MOL0     C33038   5.981   9.325   2.840 -0.1352 -0.0971 -0.5076
  986MOL0     C33039   5.915   9.251   2.774  0.1208  0.0992 -0.6707
  986MOL0     C33040   6.178   9.959   2.563  0.0305 -0.3866 -0.3176
  986MOL0     C33041   6.220  10.076   2.505 -0.2510 -0.8067 -0.4355
  986MOL0     C33042   6.359  10.134   2.537  0.9139 -0.1651 -0.6914
  986MOL0     H33043   6.266  10.541   2.373  1.6344 -0.0861 -2.5794
  986MOL0     H33044   6.263  10.760   2.261 -1.9400  0.3184  2.6384
  986MOL0     H33045   6.248  10.913   2.042  0.5652  0.7507 -3.3193
  986MOL0     H33046   6.224  10.741   1.983 -0.8339 -0.4616  2.1832
  986MOL0     H33047   6.122  11.003   1.871 -2.9611 -0.4414 -3.0915
  986MOL0     H33048   6.060  10.845   1.817 -1.1629  3.3491 -1.8982
  986MOL0     H33049   6.350  10.934   1.819 -1.8520  1.1914  2.0722
  986MOL0     H33050   6.253  10.930   1.664  1.3016 -1.8100 -0.2374
  986MOL0     H33051   6.317  10.683   1.819  2.3605  0.8635 -0.4453
  986MOL0     H33052   6.232  10.702   1.662  0.5101  0.2362 -0.9160
  986MOL0     H33053   6.460  10.598   1.672  1.8388  0.1940 -1.3798
  986MOL0     H33054   6.454  10.738   1.552 -2.1949  3.3068  0.7577
  986MOL0     H33055   6.576  10.885   1.721 -0.3080  0.3959 -3.2773
  986MOL0     H33056   6.544  10.750   1.839 -0.9126  0.5536 -0.1390
  986MOL0     H33057   6.679  10.613   1.669 -1.7451  0.2734 -0.3424
  986MOL0     H33058   6.767  10.721   1.777 -0.8727 -2.5603  0.7420
  986MOL0     H33059   6.836  10.689   1.538  0.0939  1.2467 -3.3223
  986MOL0     H33060   6.689  10.784   1.487  0.4226 -0.9019 -0.3937
  986MOL0     H33061   6.862  10.978   1.350  1.7287  3.6968 -0.4925
  986MOL0     H33062   7.088  11.213   1.472  0.9215  0.1994 -0.1876
  986MOL0     H33063   7.012  11.184   1.327  0.4753  0.1103  0.8222
  986MOL0     H33064   6.821  11.344   1.391 -0.8392  0.1384 -0.3168
  986MOL0     H33065   6.894  11.364   1.550  4.5807  0.5161  0.7422
  986MOL0     H33066   7.020  11.430   1.287 -0.8286  1.5361 -0.5043
  986MOL0     H33067   7.104  11.435   1.441  0.0572  3.2342  0.1205
  986MOL0     H33068   7.025  11.664   1.362 -1.5236  1.8116  0.2612
  986MOL0     H33069   6.940  11.623   1.509 -2.3801  0.2187  0.0764
  986MOL0     H33070   6.762  11.786   1.482 -0.3864  1.9096  0.5244
  986MOL0     H33071   6.660  12.007   1.404  0.8289 -0.6813  1.7756
  986MOL0     H33072   6.746  12.187   0.846  0.6402  0.4730 -2.4749
  986MOL0     H33073   6.750  12.428   0.743 -0.2599  0.4494  0.9738
  986MOL0     H33074   6.757  12.647   0.792 -0.9932 -1.9810  1.7881
  986MOL0     H33075   6.681  12.619   0.637 -1.0691 -2.1922  0.7741
  986MOL0     H33076   6.538  12.815   0.663 -0.1386 -0.8682 -0.5560
  986MOL0     H33077   6.631  12.865   0.812  0.7280 -0.6901  0.1551
  986MOL0     H33078   6.829  12.907   0.705  0.3411 -0.6906 -0.2593
  986MOL0     H33079   6.787  12.826   0.552  3.0183  0.8844  0.5773
  986MOL0     H33080   6.680  13.083   0.668 -2.4729  1.8301 -2.1360
  986MOL0     H33081   6.607  12.994   0.532  0.0868  0.1113 -0.8528
  986MOL0     H33082   6.907  13.070   0.534  0.3303 -0.9877 -0.7620
  986MOL0     H33083   6.788  13.195   0.500  1.7192 -0.4207  1.0553
  986MOL0     H33084   6.864  13.090   0.291  1.1202 -0.3506 -0.7260
  986MOL0     H33085   6.829  12.931   0.352  0.1404  0.5321 -0.7389
  986MOL0     H33086   6.595  12.951   0.324  3.0381 -2.5445 -1.6070
  986MOL0     H33087   6.677  13.001   0.171  1.0447  0.4348 -0.4751
  986MOL0     H33088   6.487  13.164   0.233 -1.8242  0.6255  4.9766
  986MOL0     H33089   6.560  13.212   0.374 -0.8093  0.1311  0.3891
  986MOL0     H33090   6.394  12.505   0.954  0.2098  1.2313 -2.4408
  986MOL0     H33091   6.398  12.282   1.067  1.6640 -1.4497  1.5992
  986MOL0     H33092   6.651  11.828   1.006  3.0498 -1.4857 -0.4254
  986MOL0     H33093   6.775  11.632   1.092 -1.5128 -2.0657 -0.0741
  986MOL0     H33094   5.879  10.680   2.102  0.5185 -1.0006 -2.4929
  986MOL0     H33095   5.878  10.447   2.235  2.4921 -2.5015 -1.0487
  986MOL0     H33096   5.923  10.150   2.345 -0.5969  1.5457  0.9861
  986MOL0     H33097   5.878   9.909   2.414 -0.2877 -0.2321  0.8117
  986MOL0     H33098   6.098   9.759   2.757 -0.6092  0.8112 -1.3339
  986MOL0     H33099   6.189   9.689   2.617  0.3508  0.7706 -0.0359
  986MOL0     H33100   6.006   9.535   2.614  0.7469  1.3343 -0.0590
  986MOL0     H33101   5.928   9.604   2.759 -0.7099 -1.8491 -0.0724
  986MOL0     H33102   6.195   9.583   2.853  0.3279 -0.5490  0.2293
  986MOL0     H33103   6.191   9.450   2.731 -2.7701  2.0706 -3.8410
  986MOL0     H33104   6.142   9.371   2.973  0.2470  1.8446  0.6125
  986MOL0     H33105   6.017   9.478   2.988  0.2237 -1.4006  0.8268
  986MOL0     H33106   5.864   9.178   2.714  2.4619 -2.1578 -0.0507
  986MOL0     H33107   6.245   9.916   2.636  5.4086  3.0855 -2.4959
  986MOL0     H33108   6.426  10.140   2.451  0.4950  0.6964 -0.9674
  986MOL0     H33109   6.338  10.236   2.571 -3.7539 -0.8673 -0.7499
  986MOL0     H33110   6.390  10.082   2.628 -0.7840  0.6991  0.4264
  987MOL0     O33111   4.322   7.695   7.131  0.2716  0.3036 -0.1068
  987MOL0     C33112   4.423   7.732   7.066 -1.0759  0.8611  0.2008
  987MOL0     O33113   4.531   7.803   7.114  0.7464 -0.3323 -0.1976
  987MOL0     C33114   4.515   7.818   7.251 -0.1583 -0.4960 -0.1454
  987MOL0     C33115   4.485   7.944   7.305  1.4263  0.2864  0.2246
  987MOL0     C33116   4.467   7.970   7.436 -0.7398  0.3113  1.1952
  987MOL0     C33117   4.476   7.858   7.526 -0.4498  0.9443  0.2370
  987MOL0     O33118   4.465   7.870   7.665 -0.3416 -0.1850 -0.1039
  987MOL0     C33119   4.407   7.761   7.735 -0.0434 -0.4499 -1.1832
  987MOL0     C33120   4.350   7.822   7.865 -0.3791 -0.4053  0.4566
  987MOL0     C33121   4.250   7.936   7.844  1.1035  0.3388 -0.6113
  987MOL0     C33122   4.153   7.957   7.959  0.2249 -0.0936 -0.7481
  987MOL0     C33123   4.070   8.084   7.955  0.1874 -0.0285 -0.5626
  987MOL0     C33124   3.971   8.093   8.073 -0.1864  0.2041  0.8528
  987MOL0     C33125   3.875   7.975   8.070  0.5399  0.0783 -0.3137
  987MOL0     C33126   3.727   8.000   8.109  0.6407 -0.8802 -0.6302
  987MOL0     N33127   3.680   8.123   8.047 -0.1462 -0.4182  0.1491
  987MOL0     C33128   3.643   8.134   7.918 -0.5890 -1.3164 -0.0318
  987MOL0     C33129   3.600   8.257   7.907  0.0504 -0.4813  1.0804
  987MOL0     C33130   3.556   8.329   7.771 -0.0704 -0.6285 -0.3094
  987MOL0     C33131   3.429   8.420   7.802  0.7676 -0.5004  0.4744
  987MOL0     C33132   3.369   8.460   7.673  0.2214  0.4686 -0.0817
  987MOL0     C33133   3.259   8.558   7.700 -0.3585  0.5238  0.8915
  987MOL0     O33134   3.142   8.496   7.748 -0.4355 -0.2365 -0.6623
  987MOL0     C33135   3.031   8.576   7.770  0.1135 -0.1351  0.9149
  987MOL0     C33136   3.035   8.692   7.841 -0.9372  0.6330  0.6381
  987MOL0     C33137   2.916   8.757   7.873 -0.6487 -0.3292 -0.4243
  987MOL0     C33138   2.789   8.714   7.834 -0.8260 -0.5955 -0.5313
  987MOL0     C33139   2.666   8.787   7.867  0.2228 -0.5931 -0.2011
  987MOL0     O33140   2.671   8.894   7.953 -1.0692 -0.4000  0.2719
  987MOL0     C33141   2.560   8.951   8.002  0.0883  1.1230  0.3628
  987MOL0     C33142   2.453   9.006   7.928 -0.5912 -0.8130 -0.2011
  987MOL0     C33143   2.342   9.056   7.996 -0.2334  0.6671 -0.4793
  987MOL0     C33144   2.330   9.041   8.137  1.0022 -0.2205  1.4070
  987MOL0     O33145   2.227   9.083   8.206 -0.1239 -1.0181 -0.0765
  987MOL0     C33146   2.112   9.154   8.153 -0.4045 -0.4444 -0.2294
  987MOL0     C33147   2.145   9.302   8.105 -0.1082  0.3522 -0.4880
  987MOL0     C33148   2.159   9.395   8.235  0.2884  0.7259 -0.4623
  987MOL0     C33149   2.163   9.533   8.180  0.0418 -0.2480  0.8831
  987MOL0     C33150   2.318   9.584   8.162  0.7046  0.6953 -0.1618
  987MOL0     C33151   2.341   9.733   8.167  0.3770  0.3732  0.0483
  987MOL0     C33152   2.481   9.776   8.134  0.3945 -0.0387 -0.6781
  987MOL0     C33153   2.488   9.930   8.149  0.4307  0.5824  0.7776
  987MOL0    Cl33154   2.373  10.011   8.033 -0.1245  0.0344  0.3464
  987MOL0     C33155   2.432   8.987   8.203 -0.2754  0.0548  1.0612
  987MOL0     C33156   2.550   8.942   8.137  0.4772 -0.4515  0.3405
  987MOL0     O33157   2.558   8.743   7.811 -0.4366 -0.2700 -0.5770
  987MOL0     C33158   2.792   8.595   7.758  0.0316  0.6160 -1.7717
  987MOL0     C33159   2.913   8.528   7.732  0.5571 -0.4871 -0.3587
  987MOL0     N33160   3.604   8.322   8.027 -0.0204  0.3870  0.7614
  987MOL0     N33161   3.657   8.242   8.115  0.6030  0.3900 -0.5660
  987MOL0     C33162   4.516   7.729   7.479  0.1822  0.1201 -0.1109
  987MOL0     C33163   4.546   7.717   7.344 -0.6019 -0.4095 -0.2457
  987MOL0     C33164   4.440   7.688   6.926  0.1604  1.0099  0.8410
  987MOL0     C33165   4.558   7.728   6.846  0.2535  0.3714 -0.2735
  987MOL0     C33166   4.601   7.680   6.723  0.5510  1.0047  0.5256
  987MOL0     C33167   4.507   7.588   6.667 -0.9909 -0.2702 -0.0377
  987MOL0     O33168   4.539   7.539   6.546  0.1283 -0.8100  0.3550
  987MOL0     C33169   4.464   7.433   6.477  0.9142 -0.1860  0.1440
  987MOL0     C33170   4.555   7.364   6.383 -0.2656 -0.0624 -0.2333
  987MOL0     C33171   4.630   7.453   6.290  0.3283 -0.2710  0.5739
  987MOL0     C33172   4.535   7.526   6.191  0.2397 -1.0066  1.0154
  987MOL0     C33173   4.605   7.596   6.089 -1.0618 -0.1795  0.7473
  987MOL0     C33174   4.674   7.640   6.005 -0.9424  0.2511  0.4155
  987MOL0     C33175   4.393   7.543   6.738 -0.1795  0.3968 -0.1945
  987MOL0     C33176   4.352   7.593   6.861 -0.2855  0.5609 -1.1112
  987MOL0     C33177   4.223   7.555   6.905  0.1775 -0.1726  0.3646
  987MOL0     H33178   4.481   8.020   7.228  1.9015 -3.0594 -3.4154
  987MOL0     H33179   4.433   8.067   7.471  0.0625  0.7077  0.9185
  987MOL0     H33180   4.320   7.717   7.685  0.9438 -2.2628 -1.4053
  987MOL0     H33181   4.484   7.684   7.747  2.0394  1.4716 -1.4581
  987MOL0     H33182   4.441   7.862   7.912  2.5363 -1.4755 -3.7355
  987MOL0     H33183   4.304   7.742   7.923 -1.1327  2.0978  3.5917
  987MOL0     H33184   4.184   7.925   7.757  1.3120  0.5809 -0.8051
  987MOL0     H33185   4.314   8.024   7.831 -0.6897  1.5782 -1.4934
  987MOL0     H33186   4.078   7.878   7.962 -0.4992  0.5506  2.4151
  987MOL0     H33187   4.208   7.975   8.052 -2.0820 -0.6238  0.8141
  987MOL0     H33188   4.142   8.167   7.959 -1.2186  1.2022  0.3213
  987MOL0     H33189   4.022   8.085   7.856  0.6942 -0.2233 -0.8100
  987MOL0     H33190   4.021   8.089   8.170  4.4853 -1.1331 -1.3526
  987MOL0     H33191   3.914   8.187   8.075 -2.5258 -1.1034  4.0156
  987MOL0     H33192   3.914   7.892   8.130 -0.1014  1.1055  1.6072
  987MOL0     H33193   3.866   7.952   7.963 -0.4257 -0.6292 -0.1012
  987MOL0     H33194   3.666   7.917   8.074 -3.1329  0.9844  1.0442
  987MOL0     H33195   3.712   8.008   8.217 -1.6533 -1.5392 -0.8666
  987MOL0     H33196   3.672   8.071   7.835  3.3753  0.4023 -0.1948
  987MOL0     H33197   3.632   8.405   7.753 -0.2159 -0.5977 -0.7971
  987MOL0     H33198   3.541   8.263   7.685 -1.4230  3.0067 -3.1380
  987MOL0     H33199   3.355   8.361   7.856 -0.5684 -1.2093 -2.0176
  987MOL0     H33200   3.470   8.511   7.849 -0.2832  0.2086  0.0603
  987MOL0     H33201   3.341   8.368   7.621  2.1559 -0.2167 -0.0018
  987MOL0     H33202   3.441   8.509   7.608  0.1194  1.3695  0.4651
  987MOL0     H33203   3.235   8.600   7.602  1.3985 -1.3704 -0.4251
  987MOL0     H33204   3.294   8.624   7.780 -2.6609 -0.6771  3.0144
  987MOL0     H33205   3.122   8.728   7.896 -1.2685 -1.0989  2.4253
  987MOL0     H33206   2.924   8.845   7.936  1.8925  0.2841 -1.4476
  987MOL0     H33207   2.471   9.022   7.822 -0.9366 -2.1608 -0.4836
  987MOL0     H33208   2.271   9.117   7.942 -1.6761 -0.8834 -0.4022
  987MOL0     H33209   2.061   9.098   8.075 -0.1140 -2.4106  0.9180
  987MOL0     H33210   2.039   9.159   8.234 -0.6196  0.5951 -0.4631
  987MOL0     H33211   2.228   9.306   8.034 -0.7755  5.0232 -1.3205
  987MOL0     H33212   2.063   9.348   8.049 -0.4167 -0.3702 -0.6411
  987MOL0     H33213   2.086   9.388   8.316  0.4719  0.0967 -0.3455
  987MOL0     H33214   2.248   9.366   8.292 -2.3877 -2.9139  2.3083
  987MOL0     H33215   2.113   9.592   8.256  0.3733 -1.6805  2.2651
  987MOL0     H33216   2.105   9.549   8.089  3.1692 -1.3330 -1.4904
  987MOL0     H33217   2.357   9.534   8.072 -0.7567 -2.0401  0.6065
  987MOL0     H33218   2.375   9.552   8.249  2.7519  4.6532  0.1742
  987MOL0     H33219   2.270   9.776   8.096 -0.9429  1.9725  2.2198
  987MOL0     H33220   2.314   9.770   8.266  0.2949  2.1026 -0.5926
  987MOL0     H33221   2.517   9.749   8.034  1.9101 -0.2101 -0.1237
  987MOL0     H33222   2.553   9.732   8.204  0.7352 -0.0430 -1.0241
  987MOL0     H33223   2.462   9.957   8.251  0.7962  1.1966  0.7088
  987MOL0     H33224   2.587   9.971   8.128  0.3271  1.2879  1.6167
  987MOL0     H33225   2.436   8.980   8.311  0.3461  0.6697  1.0899
  987MOL0     H33226   2.634   8.898   8.189  0.1353 -2.3543 -0.6355
  987MOL0     H33227   2.699   8.568   7.708 -0.7466 -2.9431  1.2071
  987MOL0     H33228   2.912   8.431   7.683 -0.4128 -0.6928  0.0384
  987MOL0     H33229   4.510   7.637   7.536 -1.2651  1.4021  1.9617
  987MOL0     H33230   4.582   7.628   7.293  0.5912  0.6884 -1.4064
  987MOL0     H33231   4.624   7.802   6.891  0.1039  0.2473  0.1560
  987MOL0     H33232   4.686   7.710   6.663 -1.0039 -0.2620 -2.4997
  987MOL0     H33233   4.376   7.471   6.423  1.3402  0.3745 -0.1670
  987MOL0     H33234   4.421   7.350   6.533 -2.1620  0.0439 -1.6313
  987MOL0     H33235   4.499   7.288   6.327  3.0381 -0.5252 -3.3001
  987MOL0     H33236   4.633   7.315   6.440  1.7272 -0.5744 -3.1829
  987MOL0     H33237   4.698   7.396   6.226  1.6272  0.4665  1.2436
  987MOL0     H33238   4.698   7.515   6.348  0.0853 -0.2744  0.8637
  987MOL0     H33239   4.477   7.459   6.127 -0.4018  0.2151  0.2812
  987MOL0     H33240   4.473   7.594   6.250  0.8256 -1.0095  1.6465
  987MOL0     H33241   4.719   7.683   5.918 -2.2018 -1.2056 -1.0278
  987MOL0     H33242   4.326   7.471   6.693  0.5202 -0.9973  0.9150
  987MOL0     H33243   4.230   7.484   6.987 -0.4051  2.3309  2.7123
  987MOL0     H33244   4.178   7.648   6.941  3.8033  1.1020  2.0111
  987MOL0     H33245   4.161   7.515   6.823  0.2371  2.6762 -1.2257
  988MOL0     O33246   6.122   9.247   1.350  0.9038 -0.4691 -0.3447
  988MOL0     C33247   6.119   9.126   1.366  0.6299  0.1136  0.7107
  988MOL0     O33248   6.192   9.062   1.450  0.2165  0.7042  0.1422
  988MOL0     C33249   6.253   9.116   1.559 -0.5738  0.0541 -0.0837
  988MOL0     C33250   6.211   9.197   1.659  0.9331  0.1146 -0.1943
  988MOL0     C33251   6.295   9.234   1.763  0.0351  0.7069  0.8266
  988MOL0     C33252   6.422   9.191   1.777 -0.1550  0.6909  0.0100
  988MOL0     O33253   6.498   9.226   1.878 -0.2139  0.1000 -0.1589
  988MOL0     C33254   6.439   9.235   2.007 -0.0837  0.2634  0.6799
  988MOL0     C33255   6.544   9.227   2.114 -0.0810  0.4572 -0.5203
  988MOL0     C33256   6.687   9.260   2.077 -0.6944  0.1966  0.2338
  988MOL0     C33257   6.703   9.404   2.045 -0.3790 -0.4729 -0.4287
  988MOL0     C33258   6.828   9.469   2.100 -0.0890  0.0026  1.2306
  988MOL0     C33259   6.947   9.449   2.000  0.8838  0.3183  0.9394
  988MOL0     C33260   6.946   9.546   1.878 -1.0506 -1.6738 -0.5279
  988MOL0     C33261   6.960   9.700   1.904 -0.1061  0.8309 -0.1738
  988MOL0     N33262   6.865   9.785   1.850 -0.3354 -0.0614 -0.6710
  988MOL0     C33263   6.726   9.757   1.867  0.5186 -0.1703 -0.4446
  988MOL0     C33264   6.677   9.854   1.797 -0.8209  0.3497 -0.3490
  988MOL0     C33265   6.530   9.893   1.781 -0.1745 -0.2282 -0.5536
  988MOL0     C33266   6.456   9.810   1.675 -0.6438  0.1765 -0.2575
  988MOL0     C33267   6.475   9.864   1.532 -0.2164 -0.0491 -0.5970
  988MOL0     C33268   6.401   9.789   1.423  0.3293 -0.0911 -0.4165
  988MOL0     O33269   6.306   9.890   1.382 -0.2300  0.1275 -0.3875
  988MOL0     C33270   6.203   9.835   1.307  0.0029 -0.4191  0.2553
  988MOL0     C33271   6.210   9.708   1.248  0.4509  1.1194 -0.8509
  988MOL0     C33272   6.092   9.658   1.187  0.8572 -1.0955  0.5484
  988MOL0     C33273   5.963   9.728   1.192  0.0931  0.3556  1.0855
  988MOL0     C33274   5.845   9.673   1.125  0.2563 -0.1848 -0.9542
  988MOL0     O33275   5.753   9.776   1.106 -0.5204  0.1759  0.1338
  988MOL0     C33276   5.636   9.742   1.055  0.7013  0.2869  0.2581
  988MOL0     C33277   5.633   9.722   0.914  0.9422 -1.0972 -0.3855
  988MOL0     C33278   5.510   9.708   0.851 -0.6231  0.2704  0.2805
  988MOL0     C33279   5.388   9.722   0.924  0.1413  0.0245 -0.1718
  988MOL0     O33280   5.266   9.702   0.853 -0.6117  0.2718  0.1435
  988MOL0     C33281   5.156   9.787   0.874  0.3445 -0.6973  0.0202
  988MOL0     C33282   5.019   9.717   0.866 -0.1018  0.0043 -0.2138
  988MOL0     C33283   5.011   9.625   0.737  0.0931 -0.2948  1.4027
  988MOL0     C33284   4.876   9.559   0.748 -0.4807 -0.5027  0.5802
  988MOL0     C33285   4.858   9.432   0.664  0.6689  0.9235  1.1118
  988MOL0     C33286   4.724   9.367   0.661  0.6334 -0.2507 -0.9159
  988MOL0     C33287   4.730   9.215   0.638  0.4309  0.2539  0.4526
  988MOL0     C33288   4.819   9.182   0.517 -0.4524 -0.6203  0.1468
  988MOL0    Cl33289   4.702   9.199   0.375  0.2467 -0.0678  0.5665
  988MOL0     C33290   5.389   9.722   1.063  0.1764  0.2705  0.3579
  988MOL0     C33291   5.516   9.736   1.133  1.1202  0.1641  0.3019
  988MOL0     O33292   5.824   9.555   1.107 -0.9095  1.0065 -0.2329
  988MOL0     C33293   5.955   9.841   1.272 -0.7775 -0.1267  0.2807
  988MOL0     C33294   6.077   9.896   1.321 -0.0820  0.2469 -0.3475
  988MOL0     N33295   6.774   9.945   1.754  0.3763 -0.1784  1.1179
  988MOL0     N33296   6.883   9.899   1.779  0.4919 -0.4415  0.2674
  988MOL0     C33297   6.463   9.102   1.680  0.0520 -1.0393  0.2998
  988MOL0     C33298   6.385   9.058   1.577  0.2611  0.0866 -1.4082
  988MOL0     C33299   6.056   9.043   1.245  0.0237  0.1034  0.8026
  988MOL0     C33300   6.091   8.900   1.220  0.6011 -0.5650  0.6222
  988MOL0     C33301   6.048   8.821   1.109  0.3134 -0.9706 -0.1543
  988MOL0     C33302   5.954   8.872   1.025  0.8172 -0.9013 -0.0425
  988MOL0     O33303   5.910   8.784   0.927 -0.5127 -0.2671  0.0889
  988MOL0     C33304   5.834   8.825   0.803 -0.1449 -0.7740  0.2955
  988MOL0     C33305   5.877   8.728   0.700 -0.5368  0.6661  1.1116
  988MOL0     C33306   5.826   8.752   0.547  0.8242 -0.5679 -0.9267
  988MOL0     C33307   5.934   8.820   0.474 -0.5337 -0.3380 -0.1006
  988MOL0     C33308   5.885   8.840   0.334  0.6273  0.2313  0.3183
  988MOL0     C33309   5.832   8.857   0.223 -0.4228  0.4475 -0.0440
  988MOL0     C33310   5.919   9.012   1.041 -0.5202 -0.0957  0.2157
  988MOL0     C33311   5.965   9.096   1.145  0.2355 -0.3015  0.5383
  988MOL0     C33312   5.929   9.248   1.138 -0.9423  0.7619 -1.1512
  988MOL0     H33313   6.108   9.232   1.662  0.0916 -2.2286  0.9463
  988MOL0     H33314   6.262   9.301   1.842  3.1487  3.0391  0.3287
  988MOL0     H33315   6.387   9.330   2.023 -2.2994 -0.7334 -0.1906
  988MOL0     H33316   6.362   9.158   2.021  1.7680 -1.7128  0.5759
  988MOL0     H33317   6.543   9.121   2.143 -0.5962  0.3307 -0.9997
  988MOL0     H33318   6.515   9.288   2.200  0.5161 -2.3157  1.7939
  988MOL0     H33319   6.721   9.197   1.995  0.7679  1.2230  0.0234
  988MOL0     H33320   6.740   9.231   2.168 -0.4942  1.6261  0.5956
  988MOL0     H33321   6.703   9.423   1.937  2.4977  0.0682 -0.4129
  988MOL0     H33322   6.621   9.458   2.093 -1.0876 -0.9291 -1.0972
  988MOL0     H33323   6.809   9.576   2.102 -1.1697 -0.1810  2.7653
  988MOL0     H33324   6.852   9.426   2.198 -2.3545 -1.5627  1.1885
  988MOL0     H33325   7.044   9.456   2.052  3.2489  0.5535 -3.0564
  988MOL0     H33326   6.935   9.345   1.969  1.2106  0.0441  1.7026
  988MOL0     H33327   6.854   9.536   1.819 -2.0490 -1.6431  0.9619
  988MOL0     H33328   7.029   9.519   1.812 -1.3276 -2.6240 -0.5005
  988MOL0     H33329   6.958   9.721   2.012  0.8095  0.3406 -0.0499
  988MOL0     H33330   7.062   9.723   1.873  0.9457 -2.0976  0.7469
  988MOL0     H33331   6.680   9.675   1.920 -1.6100  1.2784  0.0844
  988MOL0     H33332   6.477   9.883   1.876  0.6138  1.9793  0.1633
  988MOL0     H33333   6.519   9.996   1.746 -1.1923 -0.1762 -0.1167
  988MOL0     H33334   6.493   9.707   1.671  1.7428  0.9945 -0.6834
  988MOL0     H33335   6.350   9.813   1.703 -0.3261  1.7391  0.8681
  988MOL0     H33336   6.581   9.850   1.507 -0.5628 -3.4260 -0.6242
  988MOL0     H33337   6.463   9.973   1.530 -1.6270 -0.1970 -1.7962
  988MOL0     H33338   6.354   9.693   1.444  0.0733 -0.3952 -2.1938
  988MOL0     H33339   6.474   9.765   1.345  2.2781 -2.2029  1.9065
  988MOL0     H33340   6.289   9.635   1.261 -1.3818 -0.5398  2.0045
  988MOL0     H33341   6.102   9.558   1.145 -1.5501 -1.2694  0.2358
  988MOL0     H33342   5.722   9.724   0.852  0.4773  1.4922 -1.0918
  988MOL0     H33343   5.502   9.703   0.743  0.3196  0.4343  0.1992
  988MOL0     H33344   5.161   9.840   0.970 -0.5722 -0.6786  0.0702
  988MOL0     H33345   5.145   9.862   0.796 -3.9797  0.8518  1.7983
  988MOL0     H33346   5.000   9.661   0.958 -2.6564 -1.2848 -1.3993
  988MOL0     H33347   4.941   9.793   0.855 -0.8826 -1.0333 -2.5120
  988MOL0     H33348   5.021   9.695   0.653 -1.2857 -0.4318  1.1123
  988MOL0     H33349   5.088   9.547   0.738 -3.5900 -4.2734  1.3542
  988MOL0     H33350   4.800   9.620   0.699 -0.6375 -1.3859 -0.3011
  988MOL0     H33351   4.853   9.539   0.853  1.7877 -0.3748  1.1532
  988MOL0     H33352   4.931   9.362   0.706  1.5374  1.0632 -0.1241
  988MOL0     H33353   4.878   9.447   0.558  1.8409 -1.8642  0.8511
  988MOL0     H33354   4.686   9.394   0.760  1.4307 -2.0201 -0.0836
  988MOL0     H33355   4.666   9.411   0.579  0.5526 -3.5366 -2.7925
  988MOL0     H33356   4.629   9.173   0.631  1.6701 -2.7466 -2.1468
  988MOL0     H33357   4.775   9.169   0.727  0.9780 -0.3486 -0.1278
  988MOL0     H33358   4.910   9.237   0.493  0.6372 -2.2275  0.4291
  988MOL0     H33359   4.845   9.076   0.526 -0.6663 -0.8230 -1.3510
  988MOL0     H33360   5.300   9.724   1.125 -0.5190 -0.2857 -0.6034
  988MOL0     H33361   5.524   9.745   1.241  0.0067 -0.5369  0.4685
  988MOL0     H33362   5.862   9.896   1.278  0.0047  1.4600 -1.1909
  988MOL0     H33363   6.053   9.994   1.361 -0.1706  1.0982 -2.3815
  988MOL0     H33364   6.558   9.050   1.687 -0.9639 -2.7217  2.7998
  988MOL0     H33365   6.417   8.979   1.509 -0.8874 -0.9363 -0.7853
  988MOL0     H33366   6.164   8.856   1.287  3.9370  3.4927  0.1185
  988MOL0     H33367   6.090   8.722   1.092  2.0458  0.0011 -1.8519
  988MOL0     H33368   5.877   8.923   0.782 -0.8131 -0.3216  0.9807
  988MOL0     H33369   5.725   8.824   0.815  0.0694 -0.8376  2.7171
  988MOL0     H33370   5.856   8.626   0.733  2.7238 -0.4873  0.0400
  988MOL0     H33371   5.986   8.739   0.695 -0.5016 -0.0839 -0.8714
  988MOL0     H33372   5.733   8.810   0.546 -0.3835 -2.3253  1.4094
  988MOL0     H33373   5.796   8.655   0.507 -2.1994  0.9070 -2.6563
  988MOL0     H33374   5.949   8.923   0.508  1.4100  0.2339 -2.4246
  988MOL0     H33375   6.025   8.761   0.479  0.1080  0.6264 -0.1745
  988MOL0     H33376   5.780   8.880   0.132 -0.0697  0.2747 -0.2933
  988MOL0     H33377   5.846   9.051   0.972 -1.7045 -0.6361  1.1375
  988MOL0     H33378   5.829   9.263   1.097 -0.1594  1.8593 -2.7869
  988MOL0     H33379   5.925   9.281   1.242 -0.2841  0.2065 -0.9477
  988MOL0     H33380   5.997   9.301   1.070  1.3352 -2.0389 -1.2244
  989MOL0     O33381   2.501   9.316   0.407  0.9556 -0.5156  0.1845
  989MOL0     C33382   2.589   9.244   0.453  0.0471 -0.9817  0.3058
  989MOL0     O33383   2.604   9.217   0.587  0.3484 -0.0132 -0.3030
  989MOL0     C33384   2.676   9.113   0.628  0.4189  0.1471  0.9784
  989MOL0     C33385   2.812   9.097   0.609  0.3942  0.2248 -0.1134
  989MOL0     C33386   2.884   8.979   0.641  0.2659  0.6552  0.0458
  989MOL0     C33387   2.811   8.879   0.701 -1.0755  0.0167  0.6854
  989MOL0     O33388   2.882   8.766   0.732  0.4103  0.1389 -0.1618
  989MOL0     C33389   2.872   8.722   0.860 -0.1045 -0.2998 -0.6579
  989MOL0     C33390   2.964   8.796   0.973 -0.6832  0.4457  1.1287
  989MOL0     C33391   3.117   8.772   0.946 -0.3237 -0.0083 -0.2573
  989MOL0     C33392   3.209   8.875   1.011 -0.1793  0.4389  0.1097
  989MOL0     C33393   3.258   8.980   0.908  0.4846 -0.8255 -0.0853
  989MOL0     C33394   3.307   9.105   0.987  1.0662  0.0405  0.9313
  989MOL0     C33395   3.430   9.073   1.077 -0.0119  0.2115  1.3980
  989MOL0     C33396   3.461   9.202   1.147 -0.1039  0.4222  0.7753
  989MOL0     N33397   3.372   9.245   1.261 -0.2196 -0.2050 -0.8406
  989MOL0     C33398   3.386   9.204   1.385 -0.5563 -0.7192  0.5744
  989MOL0     C33399   3.282   9.268   1.452 -0.8474  0.2566  0.9150
  989MOL0     C33400   3.267   9.270   1.600 -0.2600  0.2143 -0.5296
  989MOL0     C33401   3.342   9.160   1.664 -0.8560  0.2270 -0.3135
  989MOL0     C33402   3.310   9.134   1.812 -0.0664 -0.9093 -0.0047
  989MOL0     C33403   3.387   9.009   1.861 -0.3561  0.6545 -1.5787
  989MOL0     O33404   3.379   8.893   1.776  0.0640 -0.4121  0.8334
  989MOL0     C33405   3.472   8.787   1.799  0.4986 -0.0617  0.3400
  989MOL0     C33406   3.538   8.780   1.917  0.0383 -0.5041 -0.7549
  989MOL0     C33407   3.643   8.690   1.941 -0.2905  0.4561  0.7760
  989MOL0     C33408   3.660   8.589   1.841  0.3334  0.0965  0.1430
  989MOL0     C33409   3.763   8.487   1.859  0.0021 -0.6137  0.4790
  989MOL0     O33410   3.828   8.450   1.743  0.9109  0.0420 -0.3844
  989MOL0     C33411   3.940   8.363   1.749 -0.5308  0.6431 -0.6823
  989MOL0     C33412   3.925   8.231   1.691 -0.2128 -0.4888  0.1927
  989MOL0     C33413   4.023   8.140   1.708  0.2166 -0.0112  0.7092
  989MOL0     C33414   4.141   8.167   1.774 -0.5463 -0.1009 -0.0554
  989MOL0     O33415   4.241   8.071   1.758 -0.1021  0.0676  0.0996
  989MOL0     C33416   4.371   8.102   1.789 -0.3289 -0.1357  0.0156
  989MOL0     C33417   4.453   7.975   1.811 -0.0826  0.5796 -0.3819
  989MOL0     C33418   4.420   7.852   1.730 -0.7883 -0.4966 -0.9007
  989MOL0     C33419   4.399   7.885   1.579 -0.2012  0.6272  1.3661
  989MOL0     C33420   4.396   7.765   1.485  0.4517  0.6224  0.2587
  989MOL0     C33421   4.282   7.673   1.493 -0.3288 -0.3903  0.0715
  989MOL0     C33422   4.299   7.549   1.397  0.1073  0.6519 -0.1931
  989MOL0     C33423   4.177   7.456   1.399  0.7540  0.0868  0.0345
  989MOL0    Cl33424   4.042   7.502   1.301 -0.0494  0.4658  0.3750
  989MOL0     C33425   4.160   8.294   1.818  0.9654 -0.3724  0.4579
  989MOL0     C33426   4.059   8.392   1.802 -0.6436 -0.4912 -0.1766
  989MOL0     O33427   3.781   8.445   1.975  0.4548 -0.5096  0.1347
  989MOL0     C33428   3.598   8.611   1.714 -0.6284 -0.1958  0.1401
  989MOL0     C33429   3.500   8.711   1.696  0.3035 -0.5642 -0.4412
  989MOL0     N33430   3.205   9.345   1.360 -0.2351  0.8465 -0.2036
  989MOL0     N33431   3.271   9.333   1.247  0.7395 -0.1860 -0.7863
  989MOL0     C33432   2.671   8.878   0.690 -0.3365  0.3514  0.2944
  989MOL0     C33433   2.601   8.993   0.659 -0.8365  0.3114 -0.4396
  989MOL0     C33434   2.669   9.180   0.346 -0.1289 -1.0454 -0.1856
  989MOL0     C33435   2.643   9.047   0.311 -0.2776 -0.5473 -0.6904
  989MOL0     C33436   2.712   8.996   0.199  0.1571  0.0493  0.8628
  989MOL0     C33437   2.804   9.073   0.125  0.1802 -0.2560  0.4783
  989MOL0     O33438   2.858   9.033   0.003 -0.3507 -0.5707  0.5893
  989MOL0     C33439   2.869   8.892  -0.040 -0.4350  0.2487  0.5335
  989MOL0     C33440   2.932   8.890  -0.176 -0.2440  0.6760 -0.7306
  989MOL0     C33441   2.969   8.751  -0.222  0.3824  0.1952  0.4295
  989MOL0     C33442   3.092   8.684  -0.161 -0.2363  0.0176  0.3900
  989MOL0     C33443   3.114   8.546  -0.214 -0.0841 -0.4460 -0.1066
  989MOL0     C33444   3.144   8.434  -0.251 -0.1806  1.1594  0.1103
  989MOL0     C33445   2.831   9.198   0.164  0.9145 -0.0265 -0.5524
  989MOL0     C33446   2.770   9.250   0.276  0.4023  0.9793 -0.3975
  989MOL0     C33447   2.812   9.387   0.316 -0.3713 -1.1647 -0.2871
  989MOL0     H33448   2.863   9.189   0.582  0.8786  1.5838  4.5269
  989MOL0     H33449   2.991   8.957   0.638  0.1092 -0.0389 -0.5296
  989MOL0     H33450   2.768   8.706   0.888  0.5744 -1.0972  1.6337
  989MOL0     H33451   2.913   8.620   0.857 -1.0783 -0.8881  2.3869
  989MOL0     H33452   2.937   8.752   1.069  0.6605 -3.3065 -0.0334
  989MOL0     H33453   2.960   8.905   0.976  0.7532  0.4937  2.1522
  989MOL0     H33454   3.119   8.785   0.837  3.7565  1.7530 -0.1533
  989MOL0     H33455   3.152   8.672   0.971  0.2537 -0.0755 -1.2627
  989MOL0     H33456   3.150   8.925   1.088 -0.6176  1.7848 -1.0612
  989MOL0     H33457   3.297   8.823   1.051  0.3281 -0.1629 -1.7258
  989MOL0     H33458   3.334   8.934   0.843  4.1850 -1.0592  3.9466
  989MOL0     H33459   3.174   9.011   0.846  1.1740 -0.6892 -0.9711
  989MOL0     H33460   3.332   9.181   0.913  3.0420 -2.6959 -1.4661
  989MOL0     H33461   3.220   9.143   1.041  1.1932  0.4307  0.8637
  989MOL0     H33462   3.513   9.036   1.017 -1.0548 -1.7028  1.0664
  989MOL0     H33463   3.419   9.003   1.160  1.3708 -0.7136  0.8322
  989MOL0     H33464   3.559   9.200   1.195  0.6855 -0.9355 -0.8270
  989MOL0     H33465   3.470   9.272   1.063  0.3822 -0.1240  0.3742
  989MOL0     H33466   3.466   9.147   1.430  1.5390  0.2470 -1.6650
  989MOL0     H33467   3.314   9.363   1.632 -3.7826  1.7053  0.7337
  989MOL0     H33468   3.161   9.271   1.628  0.2213  1.0102  1.4010
  989MOL0     H33469   3.321   9.069   1.607 -0.6381 -1.9046  2.7680
  989MOL0     H33470   3.448   9.186   1.660 -0.2723 -1.2891  2.6611
  989MOL0     H33471   3.203   9.120   1.827 -0.1280  0.4867  1.0486
  989MOL0     H33472   3.326   9.220   1.878 -0.1717 -1.1598  0.3520
  989MOL0     H33473   3.356   8.995   1.965  2.6814  2.2313 -0.3156
  989MOL0     H33474   3.492   9.041   1.860  0.1925 -0.8185  0.9031
  989MOL0     H33475   3.513   8.852   1.994 -1.9867  1.9718 -3.5052
  989MOL0     H33476   3.694   8.688   2.036 -0.6422  1.1429  0.9854
  989MOL0     H33477   3.829   8.204   1.650 -1.4826  1.2778  1.8617
  989MOL0     H33478   4.011   8.041   1.665 -1.2398  0.0507  0.9215
  989MOL0     H33479   4.421   8.156   1.708 -1.2249  0.4179 -0.1820
  989MOL0     H33480   4.371   8.164   1.879  0.0208 -0.3382  0.1541
  989MOL0     H33481   4.555   7.992   1.774 -0.2671 -1.3599 -1.9645
  989MOL0     H33482   4.458   7.942   1.915 -1.8891 -1.5934 -0.9173
  989MOL0     H33483   4.508   7.789   1.728  1.0412  1.9141 -2.0880
  989MOL0     H33484   4.329   7.797   1.754  0.7234 -2.0852  1.5689
  989MOL0     H33485   4.484   7.950   1.555  2.1072 -0.8868  4.6759
  989MOL0     H33486   4.303   7.934   1.559 -0.2790  0.1489  0.4996
  989MOL0     H33487   4.487   7.706   1.502 -0.0449 -0.5661 -1.0422
  989MOL0     H33488   4.395   7.814   1.388 -0.9555  1.9758  0.9323
  989MOL0     H33489   4.291   7.641   1.597 -1.5979 -0.2201  0.2459
  989MOL0     H33490   4.192   7.730   1.470 -0.0025 -0.9586 -3.0977
  989MOL0     H33491   4.390   7.488   1.401 -0.2908 -0.2622 -2.6533
  989MOL0     H33492   4.311   7.594   1.298 -1.6358  0.0201 -0.7370
  989MOL0     H33493   4.214   7.363   1.354 -0.4149  0.4018 -1.6593
  989MOL0     H33494   4.136   7.435   1.499 -0.6485  0.0152 -0.5380
  989MOL0     H33495   4.254   8.331   1.856  1.8011  0.5530 -2.2764
  989MOL0     H33496   4.067   8.494   1.838  0.1923 -0.6626  0.1450
  989MOL0     H33497   3.617   8.553   1.624 -1.2799  0.8821 -0.7192
  989MOL0     H33498   3.454   8.726   1.599  0.5812 -0.3915 -0.5468
  989MOL0     H33499   2.621   8.786   0.721 -0.3660  0.1422 -0.3457
  989MOL0     H33500   2.493   9.006   0.653 -1.1105 -1.9407 -1.3295
  989MOL0     H33501   2.562   8.996   0.363 -0.5301  0.1941 -0.3403
  989MOL0     H33502   2.689   8.895   0.167 -3.1727  0.6464  0.9263
  989MOL0     H33503   2.771   8.844  -0.033 -0.2218 -0.0223  2.2729
  989MOL0     H33504   2.931   8.840   0.035 -3.7463 -1.4829  2.3195
  989MOL0     H33505   3.017   8.958  -0.185 -0.5485  0.9686 -1.5012
  989MOL0     H33506   2.846   8.928  -0.231 -0.3340  0.6892 -0.5800
  989MOL0     H33507   2.976   8.744  -0.331 -4.2105  1.6753 -0.1711
  989MOL0     H33508   2.880   8.695  -0.191 -0.2891  0.9003 -0.1848
  989MOL0     H33509   3.174   8.744  -0.201  1.1703 -1.4155  1.0078
  989MOL0     H33510   3.086   8.694  -0.052 -0.8353 -1.5926  0.5245
  989MOL0     H33511   3.188   8.355  -0.309 -1.2655 -0.0304  0.8781
  989MOL0     H33512   2.906   9.259   0.115  1.7932 -0.3766  0.3361
  989MOL0     H33513   2.908   9.376   0.365 -0.3349 -0.6520 -0.2434
  989MOL0     H33514   2.823   9.443   0.223 -1.0457 -2.5361 -1.2410
  989MOL0     H33515   2.744   9.435   0.387  0.3341 -0.8351  0.1684
  990MOL0     O33516   0.312   9.575  11.334 -0.6430 -0.6080 -0.4079
  990MOL0     C33517   0.294   9.464  11.376 -0.6889  0.2405  0.6430
  990MOL0     O33518   0.279   9.435  11.509 -0.1555 -0.0262  0.0831
  990MOL0     C33519   0.238   9.528  11.597  0.3439  0.3411 -0.6644
  990MOL0     C33520   0.303   9.524  11.725  0.8841 -0.0787  0.7883
  990MOL0     C33521   0.250   9.610  11.819 -0.0743  0.2563 -0.1298
  990MOL0     C33522   0.144   9.701  11.793 -0.8114 -0.8954 -0.0378
  990MOL0     O33523   0.118   9.799  11.889 -0.8085 -0.3926  0.6073
  990MOL0     C33524   0.220   9.852  11.968 -1.2033  0.2510 -0.5514
  990MOL0     C33525   0.175   9.992  12.005 -0.3227 -0.7284 -0.1242
  990MOL0     C33526   0.121  10.084  11.893  0.3834 -0.5984  0.0050
  990MOL0     C33527  -0.032  10.059  11.875  0.8092 -1.3001 -0.1458
  990MOL0     C33528  -0.079  10.159  11.767 -0.0437 -0.0494 -0.4911
  990MOL0     C33529  -0.211  10.104  11.699  0.6619  0.5667 -0.3632
  990MOL0     C33530  -0.248  10.208  11.589 -1.0844  0.6802 -0.3109
  990MOL0     C33531  -0.366  10.162  11.505 -0.8579  0.1587 -0.0560
  990MOL0     N33532  -0.407  10.268  11.420  0.0922  0.4347  0.4679
  990MOL0     C33533  -0.326  10.363  11.365 -0.0461  0.5033  1.3857
  990MOL0     C33534  -0.405  10.465  11.334  0.0623  1.3721 -0.6499
  990MOL0     C33535  -0.359  10.599  11.295 -1.0597 -0.0683  0.2909
  990MOL0     C33536  -0.286  10.673  11.400 -0.2630  0.3374  0.3905
  990MOL0     C33537  -0.343  10.651  11.538  0.2321  0.1699 -0.0165
  990MOL0     C33538  -0.290  10.743  11.651 -0.2252 -0.2295 -0.4441
  990MOL0     O33539  -0.360  10.726  11.782 -1.2095 -0.5570  1.5705
  990MOL0     C33540  -0.336  10.831  11.869 -0.7021 -0.4225 -0.3938
  990MOL0     C33541  -0.309  10.800  12.001 -1.0292 -0.0277  0.4568
  990MOL0     C33542  -0.268  10.896  12.099  0.1707  0.7575 -0.0491
  990MOL0     C33543  -0.281  11.028  12.070  0.9734 -0.0504 -0.1281
  990MOL0     C33544  -0.270  11.126  12.176 -0.0813  1.3133  0.0710
  990MOL0     O33545  -0.224  11.094  12.297  0.1608 -0.3490 -0.5887
  990MOL0     C33546  -0.228  11.212  12.373 -0.5783  0.8233  0.0500
  990MOL0     C33547  -0.348  11.257  12.425  0.7286 -0.7403  0.7782
  990MOL0     C33548  -0.356  11.376  12.502  0.4642 -0.5489  0.5731
  990MOL0     C33549  -0.237  11.420  12.555  0.0045  0.1708  0.4269
  990MOL0     O33550  -0.257  11.520  12.652  0.3994  0.1123  0.6149
  990MOL0     C33551  -0.150  11.582  12.720 -0.1830 -0.4980 -0.3741
  990MOL0     C33552  -0.198  11.681  12.837  0.5339  0.1914  0.3414
  990MOL0     C33553  -0.080  11.745  12.908 -0.0443 -0.0007  0.0955
  990MOL0     C33554  -0.123  11.807  13.033  0.2760 -0.6555  0.1826
  990MOL0     C33555  -0.109  11.716  13.151 -0.2876  0.2390  0.7248
  990MOL0     C33556  -0.176  11.769  13.277 -0.2228 -0.3420 -0.2165
  990MOL0     C33557  -0.172  11.668  13.383 -0.8369 -0.0195 -1.0902
  990MOL0     C33558  -0.280  11.697  13.486 -0.3990  0.7554 -0.6557
  990MOL0    Cl33559  -0.268  11.860  13.552  0.2234 -0.4339  0.0892
  990MOL0     C33560  -0.117  11.366  12.516 -0.1518 -0.3445 -0.6940
  990MOL0     C33561  -0.108  11.266  12.420  0.0156  0.3646 -0.6315
  990MOL0     O33562  -0.301  11.235  12.140  0.5304  0.8907 -0.3955
  990MOL0     C33563  -0.313  11.066  11.936 -0.4799  0.9528  0.4841
  990MOL0     C33564  -0.326  10.972  11.839  0.6996  0.5403  0.0818
  990MOL0     N33565  -0.538  10.418  11.359 -0.4053 -0.0672  0.7566
  990MOL0     N33566  -0.540  10.298  11.406  0.0686  0.1893  0.2252
  990MOL0     C33567   0.085   9.700  11.668  0.6883  0.8147  0.1672
  990MOL0     C33568   0.130   9.615  11.573 -0.4141 -0.6469 -0.2724
  990MOL0     C33569   0.312   9.339  11.287 -0.5614 -0.0099  0.9639
  990MOL0     C33570   0.276   9.208  11.344  0.3209  0.3925 -0.8290
  990MOL0     C33571   0.276   9.091  11.262  0.5144  0.1916  0.9540
  990MOL0     C33572   0.325   9.100  11.126  0.8642  0.8349  0.4758
  990MOL0     O33573   0.350   9.008  11.029  0.3630  0.1806  0.4940
  990MOL0     C33574   0.331   8.871  11.056 -0.6304 -0.2300 -0.5287
  990MOL0     C33575   0.450   8.805  11.121  0.3325  0.0871  0.7405
  990MOL0     C33576   0.578   8.830  11.062 -0.3761 -0.7279  0.6361
  990MOL0     C33577   0.679   8.732  11.133 -0.1692  0.3251  0.4174
  990MOL0     C33578   0.689   8.603  11.068  1.1350  0.3617 -0.2848
  990MOL0     C33579   0.688   8.491  11.015  0.2189  0.1508  0.7175
  990MOL0     C33580   0.381   9.221  11.087 -0.6743 -0.3852 -0.1803
  990MOL0     C33581   0.366   9.344  11.154 -0.3230 -0.0994 -0.2239
  990MOL0     C33582   0.424   9.463  11.085 -0.5175  0.0197  1.0628
  990MOL0     H33583   0.398   9.474  11.745  1.7131  1.9060  2.1633
  990MOL0     H33584   0.306   9.607  11.911  0.0849 -1.4701 -0.2459
  990MOL0     H33585   0.244   9.797  12.060 -2.1839  0.3361 -0.2349
  990MOL0     H33586   0.312   9.853  11.909 -0.5841 -2.5898  0.2107
  990MOL0     H33587   0.268  10.040  12.036 -2.3630  2.3238  1.7635
  990MOL0     H33588   0.093   9.990  12.077  0.6034  2.3894  1.1268
  990MOL0     H33589   0.172  10.076  11.796 -2.7755  1.6375 -2.0250
  990MOL0     H33590   0.134  10.189  11.921 -3.4404  0.6575 -2.2449
  990MOL0     H33591  -0.041   9.962  11.825  2.5267 -0.5993 -1.9588
  990MOL0     H33592  -0.094  10.068  11.965 -1.6935  1.9162 -1.9998
  990MOL0     H33593  -0.103  10.256  11.812 -1.8105 -0.9383  0.5861
  990MOL0     H33594   0.004  10.169  11.696  0.8479  1.6588  0.7283
  990MOL0     H33595  -0.199  10.007  11.651 -1.5921  0.7857 -1.5081
  990MOL0     H33596  -0.291  10.097  11.773  0.4990  3.8440 -0.0546
  990MOL0     H33597  -0.165  10.213  11.518 -2.6688  1.8942 -2.1846
  990MOL0     H33598  -0.260  10.307  11.633 -0.6710  0.2609  0.7739
  990MOL0     H33599  -0.330  10.079  11.444 -3.0438 -1.2633  0.4412
  990MOL0     H33600  -0.453  10.135  11.566  0.6514  0.6570  2.4418
  990MOL0     H33601  -0.218  10.353  11.357  0.1364  1.2960  2.5575
  990MOL0     H33602  -0.290  10.589  11.210 -1.9226 -0.0622 -0.4242
  990MOL0     H33603  -0.454  10.639  11.259 -3.2214 -1.5938  3.7691
  990MOL0     H33604  -0.179  10.651  11.402  0.3964  3.2075  1.6762
  990MOL0     H33605  -0.304  10.780  11.386 -3.3066 -0.0675  0.5614
  990MOL0     H33606  -0.323  10.550  11.576 -2.1446 -0.6145 -0.6923
  990MOL0     H33607  -0.450  10.674  11.528  0.7507  2.3580 -1.2923
  990MOL0     H33608  -0.290  10.848  11.620  0.5242  0.3593  1.4331
  990MOL0     H33609  -0.185  10.723  11.674 -1.0522 -1.4672  2.8646
  990MOL0     H33610  -0.310  10.694  12.028  1.0908 -0.6393 -1.5384
  990MOL0     H33611  -0.258  10.862  12.201 -0.2563 -4.4339 -1.4675
  990MOL0     H33612  -0.434  11.206  12.381  0.3194  0.5038  0.0723
  990MOL0     H33613  -0.451  11.416  12.536 -0.8263  0.7002 -3.8525
  990MOL0     H33614  -0.085  11.508  12.767 -0.0180 -0.3015 -0.2904
  990MOL0     H33615  -0.080  11.635  12.655  3.1667 -2.5516  1.3462
  990MOL0     H33616  -0.261  11.767  12.812  0.3358 -0.8642 -3.2815
  990MOL0     H33617  -0.264  11.623  12.902 -0.8869  0.3228 -0.9263
  990MOL0     H33618  -0.013  11.661  12.924  0.2862  0.0062 -1.1795
  990MOL0     H33619  -0.027  11.820  12.848 -0.2363 -0.3514 -0.5164
  990MOL0     H33620  -0.228  11.837  13.026  1.7647  5.6489 -1.3741
  990MOL0     H33621  -0.072  11.902  13.048 -3.8757  1.7819  0.2190
  990MOL0     H33622  -0.003  11.691  13.145 -0.1679  0.8593 -4.0128
  990MOL0     H33623  -0.164  11.624  13.132 -0.9268  0.3807  1.8149
  990MOL0     H33624  -0.126  11.862  13.307 -0.3491 -0.7550  1.3429
  990MOL0     H33625  -0.281  11.789  13.251 -0.7757 -1.1229  1.2644
  990MOL0     H33626  -0.073  11.673  13.428 -0.3862 -0.3399 -2.0321
  990MOL0     H33627  -0.194  11.573  13.333  1.2371 -0.9657 -0.3281
  990MOL0     H33628  -0.383  11.677  13.457 -0.4779 -4.5040  2.1114
  990MOL0     H33629  -0.282  11.626  13.570  0.8736 -2.9331 -3.4850
  990MOL0     H33630  -0.029  11.405  12.565 -0.8813  0.1924  0.2160
  990MOL0     H33631  -0.013  11.226  12.388 -0.7558 -0.7903 -1.5570
  990MOL0     H33632  -0.341  11.166  11.904 -3.0078  0.3840  0.7437
  990MOL0     H33633  -0.347  11.003  11.737 -0.1375 -1.6014 -0.4427
  990MOL0     H33634  -0.000   9.763  11.643  0.1105 -0.2200 -0.5169
  990MOL0     H33635   0.084   9.615  11.475  0.0714  1.5676 -0.5449
  990MOL0     H33636   0.239   9.195  11.445  0.6279 -3.0812 -1.0158
  990MOL0     H33637   0.227   9.006  11.308 -3.0095  2.0832  1.1158
  990MOL0     H33638   0.316   8.820  10.960 -0.1537  0.5383 -1.0246
  990MOL0     H33639   0.247   8.848  11.122  0.0025 -0.4544  0.2088
  990MOL0     H33640   0.430   8.698  11.113  0.4642  0.1606 -5.4823
  990MOL0     H33641   0.447   8.846  11.222  1.2142 -1.2695  1.3491
  990MOL0     H33642   0.591   8.934  11.096 -0.8781  0.4113 -2.3367
  990MOL0     H33643   0.584   8.819  10.953 -4.4929 -1.0048  0.3010
  990MOL0     H33644   0.781   8.772  11.133  0.3528 -0.9754  0.2751
  990MOL0     H33645   0.650   8.726  11.239 -2.2674 -0.7076 -0.1675
  990MOL0     H33646   0.703   8.404  10.955  0.5521 -0.8250  2.1846
  990MOL0     H33647   0.437   9.227  10.994  1.5263  2.2363  1.1629
  990MOL0     H33648   0.434   9.453  10.977  3.6898  2.4658  0.9794
  990MOL0     H33649   0.374   9.557  11.111  1.5278  2.5160 -3.0219
  990MOL0     H33650   0.528   9.473  11.118  0.1575 -1.0233 -0.6111
  991MOL0     O33651   6.771   5.995   1.365  0.1122 -0.6675  0.5701
  991MOL0     C33652   6.859   5.957   1.291 -0.2117 -0.1713 -0.5305
  991MOL0     O33653   6.903   6.025   1.168  0.2982  0.1452 -0.5738
  991MOL0     C33654   6.999   5.968   1.085  0.8580  0.6513  0.1504
  991MOL0     C33655   7.117   6.031   1.082  0.2542  0.5732 -0.0133
  991MOL0     C33656   7.214   5.988   0.991  0.6987 -0.2924  0.4773
  991MOL0     C33657   7.191   5.891   0.890 -0.1507  0.4400 -1.0210
  991MOL0     O33658   7.295   5.847   0.821 -0.1955 -0.4048 -1.0179
  991MOL0     C33659   7.270   5.754   0.720 -0.5061 -0.6571  0.8600
  991MOL0     C33660   7.405   5.742   0.641  1.1568  0.6135 -0.1593
  991MOL0     C33661   7.409   5.637   0.525  0.3621 -1.0577 -0.6907
  991MOL0     C33662   7.301   5.645   0.412 -0.4440 -0.2766  0.3932
  991MOL0     C33663   7.341   5.579   0.276  0.0436  0.3803  0.0783
  991MOL0     C33664   7.213   5.557   0.194  0.1798  0.7090 -0.1514
  991MOL0     C33665   7.162   5.667   0.112  0.3174 -0.7299  0.5222
  991MOL0     C33666   7.267   5.714   0.016 -0.9812 -0.1557 -0.4073
  991MOL0     N33667   7.218   5.776  -0.108 -0.4285 -0.4724  0.3865
  991MOL0     C33668   7.175   5.713  -0.221  0.4629 -0.1773 -0.2595
  991MOL0     C33669   7.164   5.803  -0.313 -1.1486 -0.4539 -0.2876
  991MOL0     C33670   7.131   5.790  -0.453  0.3134 -0.3350  0.3491
  991MOL0     C33671   7.247   5.822  -0.540  0.3171  0.4193  1.1198
  991MOL0     C33672   7.206   5.827  -0.690 -0.2679  0.6616 -0.3394
  991MOL0     C33673   7.133   5.700  -0.740  0.4928  0.2277  0.5569
  991MOL0     O33674   7.132   5.717  -0.881 -0.6615  0.9576  0.3407
  991MOL0     C33675   7.034   5.761  -0.963  0.8671  0.1679 -0.1979
  991MOL0     C33676   7.063   5.748  -1.102  0.1223 -0.1749 -1.0314
  991MOL0     C33677   6.991   5.825  -1.201  0.3835  0.1634 -0.0600
  991MOL0     C33678   6.882   5.907  -1.159  1.1240 -0.1291  0.7668
  991MOL0     C33679   6.786   5.966  -1.262  0.2548  0.9233  1.1045
  991MOL0     O33680   6.690   6.042  -1.205  0.9914 -0.2731  0.3644
  991MOL0     C33681   6.600   6.100  -1.293 -0.4088 -0.5849 -0.1184
  991MOL0     C33682   6.647   6.190  -1.392  0.1472 -0.3862 -0.7731
  991MOL0     C33683   6.565   6.248  -1.481 -0.1380 -0.2729 -0.2987
  991MOL0     C33684   6.421   6.238  -1.483  0.1090 -0.5446  0.4734
  991MOL0     O33685   6.334   6.307  -1.569 -0.3089 -0.0799  0.8099
  991MOL0     C33686   6.384   6.424  -1.642 -0.0355 -1.0646 -1.4008
  991MOL0     C33687   6.272   6.476  -1.715  0.3322 -0.9588  0.2739
  991MOL0     C33688   6.298   6.629  -1.754  0.1598  0.5982  0.4251
  991MOL0     C33689   6.361   6.647  -1.896 -0.8979 -0.6488 -0.8561
  991MOL0     C33690   6.361   6.795  -1.948  0.0159  0.4947  0.5921
  991MOL0     C33691   6.415   6.903  -1.847 -0.4423  0.2963  0.0344
  991MOL0     C33692   6.426   7.045  -1.917 -0.0865 -0.2282 -1.0457
  991MOL0     C33693   6.308   7.128  -1.882 -0.4402 -0.6520 -1.2084
  991MOL0    Cl33694   6.309   7.277  -1.975  0.1825 -0.1685  0.0278
  991MOL0     C33695   6.373   6.147  -1.380  0.0829 -0.3670 -0.2904
  991MOL0     C33696   6.461   6.076  -1.290  0.9680 -0.3366  0.3344
  991MOL0     O33697   6.814   5.958  -1.379 -0.1051  0.3493 -0.2466
  991MOL0     C33698   6.853   5.917  -1.019  0.5096  0.8549  0.9908
  991MOL0     C33699   6.929   5.843  -0.923 -1.0190 -0.2037 -0.1664
  991MOL0     N33700   7.200   5.923  -0.262  0.2745 -0.2867 -0.3612
  991MOL0     N33701   7.238   5.906  -0.139  0.0469  0.0980 -0.3898
  991MOL0     C33702   7.063   5.837   0.889 -0.2680  0.0478  0.0346
  991MOL0     C33703   6.970   5.868   0.980  0.6161 -0.0626 -0.1571
  991MOL0     C33704   6.932   5.848   1.344  0.6542  1.4967 -0.6963
  991MOL0     C33705   7.058   5.871   1.404  1.3444  0.7449 -1.4166
  991MOL0     C33706   7.134   5.774   1.448 -0.1620 -0.4128 -0.0716
  991MOL0     C33707   7.101   5.649   1.461 -0.2989  0.0312  0.6026
  991MOL0     O33708   7.180   5.560   1.532  0.1151  0.1131  0.5820
  991MOL0     C33709   7.223   5.444   1.448  0.0661 -0.6968 -1.1313
  991MOL0     C33710   7.317   5.355   1.520  0.4701 -0.3120  0.0894
  991MOL0     C33711   7.451   5.426   1.528  0.5914 -0.3739 -0.5130
  991MOL0     C33712   7.565   5.333   1.576  0.4882 -0.0844 -0.5642
  991MOL0     C33713   7.608   5.242   1.472  0.4731  0.5201 -0.7671
  991MOL0     C33714   7.630   5.165   1.376 -0.5990  0.2729  0.0273
  991MOL0     C33715   6.967   5.615   1.406 -0.6555  0.5666  0.1515
  991MOL0     C33716   6.882   5.712   1.349 -0.4022 -1.1448 -0.1021
  991MOL0     C33717   6.746   5.677   1.307  0.0253 -0.1796  0.1238
  991MOL0     H33718   7.154   6.109   1.147  0.3006  0.8001 -0.3110
  991MOL0     H33719   7.313   6.032   0.994  1.5986 -2.0864 -0.8338
  991MOL0     H33720   7.248   5.658   0.767  2.1853 -0.5936  2.4353
  991MOL0     H33721   7.186   5.778   0.655 -1.6685 -4.0764  0.9211
  991MOL0     H33722   7.485   5.714   0.711  0.2612  0.8990  1.0212
  991MOL0     H33723   7.430   5.841   0.602 -0.9134  1.5075  0.5877
  991MOL0     H33724   7.380   5.540   0.566 -0.3593 -0.3206  0.6058
  991MOL0     H33725   7.509   5.646   0.481  0.6166 -0.0623  0.0758
  991MOL0     H33726   7.216   5.592   0.454 -1.7770  1.7338  0.3644
  991MOL0     H33727   7.277   5.750   0.393 -3.5270 -1.0340 -0.4642
  991MOL0     H33728   7.421   5.625   0.218  0.8743 -1.0971  0.0241
  991MOL0     H33729   7.376   5.479   0.301  3.1584  1.1017 -0.9056
  991MOL0     H33730   7.221   5.464   0.136 -0.8583 -0.4748  1.5144
  991MOL0     H33731   7.133   5.538   0.266  1.0639  0.6347  0.8370
  991MOL0     H33732   7.132   5.754   0.171 -2.1131 -0.5705 -0.8338
  991MOL0     H33733   7.075   5.634   0.054  1.5353 -1.8438 -0.7490
  991MOL0     H33734   7.339   5.777   0.069 -2.4373  0.5876  0.7616
  991MOL0     H33735   7.334   5.634  -0.019 -0.4163  1.5733 -3.7399
  991MOL0     H33736   7.166   5.605  -0.216  0.1604 -0.1102  1.3210
  991MOL0     H33737   7.096   5.688  -0.473 -0.4983 -0.0002 -0.0075
  991MOL0     H33738   7.040   5.842  -0.485  1.8726 -0.2494 -4.7760
  991MOL0     H33739   7.287   5.919  -0.509  4.1705 -0.6883  0.1765
  991MOL0     H33740   7.327   5.752  -0.514 -1.8111 -2.2892  0.7630
  991MOL0     H33741   7.304   5.827  -0.739  0.1452 -0.7929  0.4226
  991MOL0     H33742   7.156   5.915  -0.731  1.1960  1.6752 -0.0522
  991MOL0     H33743   7.029   5.691  -0.708 -0.2162  0.0922 -1.6428
  991MOL0     H33744   7.191   5.610  -0.719 -1.7691 -1.1492  1.2010
  991MOL0     H33745   7.134   5.679  -1.145  3.6808 -1.1879  5.3869
  991MOL0     H33746   7.019   5.804  -1.304 -3.6864  1.4857 -1.6314
  991MOL0     H33747   6.753   6.211  -1.407  0.2323  0.4983  0.8870
  991MOL0     H33748   6.603   6.316  -1.557 -1.1722 -2.9987 -3.4967
  991MOL0     H33749   6.425   6.497  -1.571 -1.6440  0.7483 -2.2423
  991MOL0     H33750   6.459   6.400  -1.717  0.2465  0.7579 -1.7315
  991MOL0     H33751   6.238   6.414  -1.799 -1.0536 -2.2855  1.7224
  991MOL0     H33752   6.187   6.480  -1.646 -0.9771  1.7673 -1.3449
  991MOL0     H33753   6.198   6.674  -1.746 -0.7947 -0.9354 -1.7639
  991MOL0     H33754   6.366   6.680  -1.686 -2.4587  0.7626  3.1281
  991MOL0     H33755   6.299   6.587  -1.963  1.7086 -1.5073 -2.6509
  991MOL0     H33756   6.462   6.608  -1.902  0.3571  2.4569 -2.1501
  991MOL0     H33757   6.259   6.816  -1.983 -0.0378 -0.7640 -0.0555
  991MOL0     H33758   6.427   6.793  -2.035  1.5629  0.6649  1.7150
  991MOL0     H33759   6.355   6.916  -1.756  3.1213 -0.3805  2.6971
  991MOL0     H33760   6.510   6.862  -1.811 -1.2946 -0.7900  1.0993
  991MOL0     H33761   6.435   7.030  -2.025 -2.8130 -2.5144 -1.0850
  991MOL0     H33762   6.518   7.096  -1.887  1.7931 -4.1741  0.6543
  991MOL0     H33763   6.212   7.079  -1.904 -1.0376  0.8127 -2.0165
  991MOL0     H33764   6.331   7.159  -1.779  0.7331  1.8718 -2.1638
  991MOL0     H33765   6.272   6.128  -1.347  0.5193  1.4486  2.3344
  991MOL0     H33766   6.418   6.002  -1.223  2.4818 -1.5941 -0.0368
  991MOL0     H33767   6.768   5.970  -0.977  1.3666 -1.2532  6.2499
  991MOL0     H33768   6.935   5.855  -0.816 -0.0581  1.3455 -0.3691
  991MOL0     H33769   7.026   5.771   0.811 -2.4749 -2.1638  2.7296
  991MOL0     H33770   6.869   5.827   0.981  1.4988 -2.3627  1.0525
  991MOL0     H33771   7.100   5.970   1.391  0.7072  1.0805 -0.9288
  991MOL0     H33772   7.232   5.800   1.486 -1.3036  1.3315  1.8687
  991MOL0     H33773   7.270   5.494   1.363 -0.0221  1.1140 -0.1473
  991MOL0     H33774   7.140   5.384   1.409  1.7382 -1.7820 -3.2488
  991MOL0     H33775   7.324   5.263   1.461  2.4384  0.2211 -0.5987
  991MOL0     H33776   7.282   5.340   1.622 -1.9589  2.9864 -0.1160
  991MOL0     H33777   7.440   5.509   1.598 -2.1127 -1.4277  0.4470
  991MOL0     H33778   7.476   5.468   1.430  1.0489  1.2581  0.2611
  991MOL0     H33779   7.652   5.394   1.600  0.3456  0.0255 -0.3221
  991MOL0     H33780   7.537   5.272   1.662 -1.2288 -0.0041 -1.0336
  991MOL0     H33781   7.642   5.106   1.287 -2.6322 -0.0221 -0.0975
  991MOL0     H33782   6.927   5.515   1.404  0.6235  0.0174 -2.7250
  991MOL0     H33783   6.755   5.576   1.266  0.0759  0.3360 -1.1870
  991MOL0     H33784   6.680   5.647   1.388 -0.2434  0.5308  0.1778
  991MOL0     H33785   6.692   5.752   1.248  0.4405 -1.3023 -1.7559
  992MOL0     O33786   8.110   3.783   7.882 -0.2755  0.3502  0.0451
  992MOL0     C33787   8.062   3.793   7.771  0.9184 -0.3615 -0.4997
  992MOL0     O33788   7.994   3.903   7.735 -0.4672  0.0793 -0.2591
  992MOL0     C33789   7.942   3.993   7.829  1.0799 -0.2028 -0.5959
  992MOL0     C33790   7.830   3.967   7.905  1.0389  0.7918 -0.9438
  992MOL0     C33791   7.777   4.058   7.992  1.0990  0.0657  0.4203
  992MOL0     C33792   7.824   4.191   7.989  0.0657 -1.2713 -0.4337
  992MOL0     O33793   7.787   4.297   8.070 -0.2830 -0.3843  0.7395
  992MOL0     C33794   7.643   4.303   8.074 -0.6478 -0.2529  0.0748
  992MOL0     C33795   7.624   4.414   8.180 -0.4957 -0.0794  0.0411
  992MOL0     C33796   7.561   4.358   8.308 -0.3368 -0.1313  0.6388
  992MOL0     C33797   7.584   4.437   8.429  0.3456  0.0052 -1.1162
  992MOL0     C33798   7.476   4.408   8.548  1.5437 -0.5726  0.3685
  992MOL0     C33799   7.469   4.252   8.569 -0.6278  0.1549 -0.2196
  992MOL0     C33800   7.409   4.219   8.707  0.3647 -0.0412 -0.1401
  992MOL0     C33801   7.258   4.230   8.721 -0.3486 -0.5338  0.1470
  992MOL0     N33802   7.218   4.228   8.866  0.3420 -0.3804  0.2519
  992MOL0     C33803   7.218   4.112   8.949  0.6002 -0.4497  0.2508
  992MOL0     C33804   7.158   4.160   9.061 -0.8236 -0.0002  0.1346
  992MOL0     C33805   7.137   4.060   9.170 -0.3082 -0.2199 -0.4961
  992MOL0     C33806   7.192   4.111   9.305 -0.4802 -0.0934 -1.1044
  992MOL0     C33807   7.339   4.154   9.314 -0.2963 -0.7089  0.4961
  992MOL0     C33808   7.360   4.211   9.453 -1.0250  0.4207  0.5388
  992MOL0     O33809   7.498   4.262   9.463 -0.3535  0.4437 -0.4012
  992MOL0     C33810   7.582   4.189   9.544 -0.6031 -0.3186 -0.0212
  992MOL0     C33811   7.675   4.260   9.618 -0.2509  0.0490 -0.0253
  992MOL0     C33812   7.755   4.201   9.714 -0.2872 -0.9846 -0.8189
  992MOL0     C33813   7.748   4.061   9.739 -1.1175  0.5135 -0.1231
  992MOL0     C33814   7.825   3.998   9.849  0.3388 -0.2816 -0.1648
  992MOL0     O33815   7.906   4.087   9.922  0.0024  0.1302  0.0226
  992MOL0     C33816   7.953   4.050  10.050 -0.0532  0.6296  0.0182
  992MOL0     C33817   8.057   4.138  10.088  0.8819  0.3826  0.2713
  992MOL0     C33818   8.121   4.128  10.206 -0.3090  0.3200  0.2396
  992MOL0     C33819   8.092   4.029  10.295  0.0374 -0.1716 -0.3704
  992MOL0     O33820   8.164   4.000  10.405 -0.0033 -0.1989 -0.2577
  992MOL0     C33821   8.267   4.089  10.447 -0.0372 -0.1890  0.0733
  992MOL0     C33822   8.317   4.026  10.575  0.0811  0.0400 -0.2788
  992MOL0     C33823   8.391   3.894  10.572  0.2806  0.5695  0.3998
  992MOL0     C33824   8.364   3.791  10.688  0.4250  0.3551 -0.6048
  992MOL0     C33825   8.209   3.760  10.688 -0.8267  0.7420 -0.2841
  992MOL0     C33826   8.161   3.692  10.553  0.1520 -0.3417 -0.4753
  992MOL0     C33827   8.002   3.680  10.551 -0.1493  0.0011  0.0738
  992MOL0     C33828   7.944   3.562  10.466  0.8320 -0.4964  0.6425
  992MOL0    Cl33829   7.760   3.556  10.491 -0.1644 -0.2379 -0.2065
  992MOL0     C33830   7.985   3.941  10.253 -1.4132 -0.3555 -0.7430
  992MOL0     C33831   7.916   3.941  10.132 -0.4183 -0.4261  0.5693
  992MOL0     O33832   7.812   3.873   9.861  0.5050 -0.3138  0.8078
  992MOL0     C33833   7.658   3.990   9.659 -0.1375  0.0729 -0.3821
  992MOL0     C33834   7.571   4.054   9.565 -0.7618 -0.0280  0.2276
  992MOL0     N33835   7.154   4.299   9.050  0.2483 -0.2188  0.3677
  992MOL0     N33836   7.178   4.340   8.934  0.4979  0.7942 -0.4355
  992MOL0     C33837   7.926   4.223   7.908 -0.2779  0.4572  1.5883
  992MOL0     C33838   7.988   4.123   7.824  0.5913  0.1633  0.2094
  992MOL0     C33839   8.080   3.699   7.659 -0.1939  0.5444  0.1553
  992MOL0     C33840   7.993   3.686   7.550 -0.1442  0.2393  0.3453
  992MOL0     C33841   7.997   3.596   7.441  0.2844 -1.0710 -0.7768
  992MOL0     C33842   8.097   3.495   7.443  0.2332 -0.3118  0.5577
  992MOL0     O33843   8.099   3.394   7.344 -0.0921  0.2655  0.3109
  992MOL0     C33844   8.204   3.307   7.333  0.4821  0.1349  0.4777
  992MOL0     C33845   8.191   3.213   7.201  0.3461  0.4907  0.5815
  992MOL0     C33846   8.229   3.283   7.072 -0.0843 -0.4475 -0.0407
  992MOL0     C33847   8.242   3.432   7.087  0.4019 -0.4851  0.0271
  992MOL0     C33848   8.260   3.488   6.950 -0.3640  0.5066  0.0355
  992MOL0     C33849   8.287   3.510   6.835  0.7083  0.6154 -0.0257
  992MOL0     C33850   8.176   3.496   7.554 -0.7117  0.8354 -1.0052
  992MOL0     C33851   8.180   3.595   7.662 -0.3898  1.1225  0.7783
  992MOL0     C33852   8.301   3.587   7.750 -1.2245  0.9512  0.7808
  992MOL0     H33853   7.798   3.864   7.891  2.4915  0.5862 -3.4158
  992MOL0     H33854   7.689   4.024   8.045  1.1267  0.6342  0.8386
  992MOL0     H33855   7.599   4.338   7.980  0.0695  3.9352  1.1000
  992MOL0     H33856   7.589   4.212   8.101  0.7329 -0.4546  2.3798
  992MOL0     H33857   7.575   4.502   8.137  0.4294  0.7339  0.6165
  992MOL0     H33858   7.722   4.451   8.213 -0.3930 -0.4078  0.1129
  992MOL0     H33859   7.585   4.254   8.329 -3.5233 -0.6194  2.3294
  992MOL0     H33860   7.453   4.363   8.294 -0.3952  0.2614  1.1840
  992MOL0     H33861   7.678   4.405   8.474 -0.0114  2.3877  1.6494
  992MOL0     H33862   7.588   4.547   8.423 -0.1863  0.0565 -0.5631
  992MOL0     H33863   7.520   4.447   8.641  1.6585 -0.3946  0.2392
  992MOL0     H33864   7.377   4.453   8.540  1.6664 -0.1429  1.1526
  992MOL0     H33865   7.419   4.197   8.489 -2.7982 -2.7319  2.8109
  992MOL0     H33866   7.571   4.213   8.577  0.0026  1.6835 -0.3701
  992MOL0     H33867   7.444   4.293   8.780  1.7841 -2.6439  1.9624
  992MOL0     H33868   7.427   4.117   8.740 -1.5254 -0.5858 -0.7019
  992MOL0     H33869   7.223   4.319   8.668 -0.6777 -0.9879 -0.3985
  992MOL0     H33870   7.214   4.149   8.663 -0.8192  2.5356 -4.2672
  992MOL0     H33871   7.261   4.018   8.916  5.8792  1.1231  1.7205
  992MOL0     H33872   7.028   4.061   9.179 -0.3972 -1.3486 -1.3264
  992MOL0     H33873   7.179   3.962   9.147  1.1594  1.0660 -4.0023
  992MOL0     H33874   7.130   4.193   9.341 -0.6323 -0.1003 -1.3484
  992MOL0     H33875   7.177   4.023   9.368 -2.4073 -0.6180 -2.2017
  992MOL0     H33876   7.350   4.235   9.241  1.8062  1.7786  3.3321
  992MOL0     H33877   7.403   4.069   9.289  1.8014  0.6156  1.1317
  992MOL0     H33878   7.329   4.138   9.529  2.5617 -1.0419  0.7965
  992MOL0     H33879   7.294   4.297   9.466  0.9060  2.1878 -0.8516
  992MOL0     H33880   7.690   4.367   9.612 -0.3141  0.1936  1.6799
  992MOL0     H33881   7.826   4.258   9.774 -0.5522 -0.8371 -0.6436
  992MOL0     H33882   8.081   4.220  10.020  3.9832  1.2673  2.2262
  992MOL0     H33883   8.187   4.205  10.245 -1.8238  0.9973  1.5955
  992MOL0     H33884   8.347   4.094  10.372  2.3350 -2.5567  2.2441
  992MOL0     H33885   8.234   4.192  10.462  2.3222  0.7684 -0.7514
  992MOL0     H33886   8.386   4.102  10.614  1.0853 -0.3999 -1.1469
  992MOL0     H33887   8.230   4.028  10.641  1.4286 -1.4605  1.6728
  992MOL0     H33888   8.384   3.830  10.484 -1.6175  1.5776 -0.2295
  992MOL0     H33889   8.497   3.921  10.576  0.2061  0.9825 -0.2000
  992MOL0     H33890   8.396   3.831  10.785 -3.1581 -0.4244  1.0692
  992MOL0     H33891   8.418   3.700  10.659 -1.3680  0.2202 -4.1307
  992MOL0     H33892   8.156   3.851  10.719 -1.0497 -0.3412  2.8678
  992MOL0     H33893   8.195   3.685  10.766  3.8784  2.8664  3.0758
  992MOL0     H33894   8.191   3.758  10.471  2.8845  0.3983  0.9849
  992MOL0     H33895   8.216   3.597  10.550  1.7390  0.5416 -0.5355
  992MOL0     H33896   7.962   3.777  10.520 -1.4414 -1.1697 -2.2381
  992MOL0     H33897   7.968   3.660  10.653 -3.5154  0.8942 -0.7555
  992MOL0     H33898   7.969   3.579  10.361  1.0913 -0.5382  0.6968
  992MOL0     H33899   7.988   3.465  10.493 -0.9806 -2.5138 -2.8724
  992MOL0     H33900   7.953   3.866  10.325 -0.4395 -1.0313 -0.9931
  992MOL0     H33901   7.834   3.874  10.107 -0.1009 -0.4062 -0.5663
  992MOL0     H33902   7.656   3.882   9.671 -0.8890  0.3475  2.6865
  992MOL0     H33903   7.508   3.993   9.501 -3.7605  0.7623  2.1965
  992MOL0     H33904   7.956   4.327   7.894 -2.6102  1.1755  1.5269
  992MOL0     H33905   8.068   4.153   7.757  1.0827  0.4771  0.9241
  992MOL0     H33906   7.909   3.755   7.543 -0.9612 -0.5947  1.5313
  992MOL0     H33907   7.920   3.612   7.367 -0.0938  0.7043 -0.0402
  992MOL0     H33908   8.205   3.247   7.425 -0.9305 -1.3613 -0.4190
  992MOL0     H33909   8.300   3.359   7.335  1.0848 -0.9237  0.1174
  992MOL0     H33910   8.097   3.156   7.195  2.1274 -2.8420  2.1138
  992MOL0     H33911   8.257   3.129   7.218 -2.9088 -1.8320  2.9612
  992MOL0     H33912   8.148   3.260   7.002 -0.3376 -0.2897  0.1968
  992MOL0     H33913   8.320   3.232   7.041  0.4912 -1.3239  2.7728
  992MOL0     H33914   8.154   3.480   7.130  0.1424  1.0730 -2.0371
  992MOL0     H33915   8.323   3.450   7.158 -1.6557 -1.5936  2.8095
  992MOL0     H33916   8.317   3.517   6.732 -0.3933  2.1877 -0.2691
  992MOL0     H33917   8.254   3.421   7.562 -0.2538  1.4703  1.3383
  992MOL0     H33918   8.333   3.690   7.768  1.7279  0.7566 -2.3793
  992MOL0     H33919   8.273   3.535   7.843 -0.2258  1.0017  1.1189
  992MOL0     H33920   8.395   3.539   7.725 -1.0948  1.2933  0.6016
  993MOL0     O33921  10.641   7.335  10.701 -0.1115 -0.5227  0.6179
  993MOL0     C33922  10.590   7.269  10.614 -0.8440  0.4867  0.9035
  993MOL0     O33923  10.502   7.314  10.514 -0.5855 -0.0199  0.7900
  993MOL0     C33924  10.472   7.444  10.518 -0.3613  0.5881 -0.3298
  993MOL0     C33925  10.350   7.491  10.563  0.3641  0.5193 -0.1475
  993MOL0     C33926  10.325   7.632  10.555 -0.9204  0.5115 -0.4544
  993MOL0     C33927  10.427   7.723  10.517 -0.3055 -0.5115  0.1824
  993MOL0     O33928  10.384   7.855  10.507  0.0668 -0.2709 -0.1638
  993MOL0     C33929  10.437   7.943  10.614 -0.0784 -0.2243 -1.2686
  993MOL0     C33930  10.400   8.084  10.575 -1.1895 -0.6810 -0.6233
  993MOL0     C33931  10.459   8.197  10.668  0.4426  0.5450 -0.6833
  993MOL0     C33932  10.606   8.210  10.698  0.0898  0.1939  0.4072
  993MOL0     C33933  10.675   8.304  10.600 -0.5219 -1.1274  1.2976
  993MOL0     C33934  10.821   8.339  10.645  0.0633 -0.5870  0.5280
  993MOL0     C33935  10.878   8.468  10.587 -0.4146 -0.4928  0.1405
  993MOL0     C33936  10.929   8.435  10.447  0.4520 -1.3559  0.4406
  993MOL0     N33937  10.981   8.551  10.376  0.1939 -0.5296  0.0198
  993MOL0     C33938  11.096   8.547  10.312  0.3006 -0.2505  0.6114
  993MOL0     C33939  11.127   8.674  10.297 -0.9640  0.2082 -0.0653
  993MOL0     C33940  11.241   8.726  10.221  0.0790  0.3168 -0.7675
  993MOL0     C33941  11.217   8.855  10.141  0.5239  0.3590 -0.2548
  993MOL0     C33942  11.320   8.869  10.025  0.5469  1.1241  0.7848
  993MOL0     C33943  11.369   9.011  10.015  0.0702 -0.4269  0.6653
  993MOL0     O33944  11.264   9.076   9.945  0.5756 -0.3537  1.0555
  993MOL0     C33945  11.273   9.214   9.934  0.1988  0.2039 -0.4092
  993MOL0     C33946  11.162   9.285   9.879 -0.6485  0.8104  1.0638
  993MOL0     C33947  11.140   9.426   9.879 -0.2740 -0.1519 -0.6672
  993MOL0     C33948  11.247   9.505   9.916  0.4167 -0.1166 -0.3276
  993MOL0     C33949  11.244   9.659   9.915  0.7895 -0.0679  0.3228
  993MOL0     O33950  11.303   9.712  10.015  0.4605 -0.0554  0.3562
  993MOL0     C33951  11.312   9.848  10.037 -0.1643  0.8736  1.4614
  993MOL0     C33952  11.387   9.877  10.144  0.3492 -1.1490 -0.0206
  993MOL0     C33953  11.399  10.008  10.195  0.8347  0.8027 -1.1406
  993MOL0     C33954  11.344  10.109  10.127  0.2997  0.2463  0.1680
  993MOL0     O33955  11.348  10.248  10.162  0.4700 -0.6466  0.1270
  993MOL0     C33956  11.394  10.282  10.297 -1.4035  0.6034 -0.5509
  993MOL0     C33957  11.369  10.429  10.346  0.4214 -0.2106  0.1290
  993MOL0     C33958  11.211  10.456  10.360 -1.3970  0.1039  0.1847
  993MOL0     C33959  11.179  10.598  10.351 -0.1514 -0.0503  0.0382
  993MOL0     C33960  11.028  10.633  10.342 -0.3871 -0.1596  0.9266
  993MOL0     C33961  10.969  10.652  10.479 -0.1400 -0.2580 -0.4632
  993MOL0     C33962  10.817  10.705  10.459  0.9997  0.6234  0.2406
  993MOL0     C33963  10.791  10.836  10.529  0.5523  0.0135  0.4298
  993MOL0    Cl33964  10.790  10.845  10.716  0.1816  0.1723 -0.2484
  993MOL0     C33965  11.296  10.087   9.999 -1.0969  0.3052  0.1238
  993MOL0     C33966  11.270   9.955   9.957 -0.7877 -0.4059  0.5779
  993MOL0     O33967  11.167   9.705   9.826 -0.2351 -0.5495  0.8850
  993MOL0     C33968  11.370   9.434   9.957 -0.0294 -0.9479 -0.8892
  993MOL0     C33969  11.379   9.294   9.977 -0.4893 -0.1797  0.1399
  993MOL0     N33970  11.024   8.755  10.344 -0.3721 -0.5475  0.6387
  993MOL0     N33971  10.942   8.681  10.400 -0.2382 -0.1146  0.1665
  993MOL0     C33972  10.548   7.673  10.471  0.6016 -0.2891 -0.2242
  993MOL0     C33973  10.568   7.535  10.466  0.5155  0.4898  1.2551
  993MOL0     C33974  10.650   7.134  10.605 -0.2128 -0.7951  0.4073
  993MOL0     C33975  10.636   7.044  10.708  1.0629 -0.5798 -0.7374
  993MOL0     C33976  10.676   6.909  10.696  0.0429 -0.1905 -0.2884
  993MOL0     C33977  10.772   6.872  10.593  0.1819 -0.5131  0.1428
  993MOL0     O33978  10.838   6.754  10.611 -0.0570 -0.1319  0.0517
  993MOL0     C33979  10.820   6.661  10.501  0.6456  0.3175 -0.4769
  993MOL0     C33980  10.704   6.575  10.540 -0.8700  0.1806  0.0274
  993MOL0     C33981  10.731   6.482  10.660 -0.9264 -0.5449 -0.1295
  993MOL0     C33982  10.599   6.448  10.708 -0.1806  0.1095  0.5428
  993MOL0     C33983  10.614   6.345  10.811  0.2332  0.1587 -0.1674
  993MOL0     C33984  10.621   6.260  10.891 -0.0422 -0.4874 -1.5097
  993MOL0     C33985  10.776   6.965  10.483  0.7381  0.2572  0.0128
  993MOL0     C33986  10.717   7.092  10.489  0.4907 -1.0789  0.9692
  993MOL0     C33987  10.737   7.184  10.374  0.6928  0.3597  0.7732
  993MOL0     H33988  10.270   7.419  10.579  0.2099  0.6631 -0.2705
  993MOL0     H33989  10.225   7.664  10.584 -1.0243  0.9519 -1.2870
  993MOL0     H33990  10.396   7.920  10.712  0.6167  4.7348  0.4465
  993MOL0     H33991  10.545   7.929  10.613 -0.1654 -0.9718 -2.2034
  993MOL0     H33992  10.292   8.102  10.573 -0.8110  1.8435 -1.5051
  993MOL0     H33993  10.434   8.104  10.473 -2.8731  1.7257 -0.7920
  993MOL0     H33994  10.405   8.193  10.763  0.9399 -2.8111 -0.4316
  993MOL0     H33995  10.420   8.294  10.634  3.0368  1.2555 -1.9331
  993MOL0     H33996  10.614   8.261  10.794  0.0713  2.0308 -0.5150
  993MOL0     H33997  10.659   8.114  10.698 -0.3979 -0.0808  0.0644
  993MOL0     H33998  10.686   8.256  10.503 -0.2530 -0.2275  0.8707
  993MOL0     H33999  10.620   8.397  10.581  1.6447  0.1895  1.0640
  993MOL0     H34000  10.822   8.354  10.753 -1.3974  1.9436  0.2644
  993MOL0     H34001  10.875   8.247  10.618  1.6693  0.5812 -0.4063
  993MOL0     H34002  10.964   8.489  10.652 -1.4157 -0.5437  1.5501
  993MOL0     H34003  10.803   8.545  10.606  0.9905  0.1791  4.1138
  993MOL0     H34004  11.011   8.364  10.456  1.3172 -0.5054 -0.4708
  993MOL0     H34005  10.848   8.397  10.383  1.2486  2.3984 -3.3150
  993MOL0     H34006  11.148   8.461  10.271 -0.4240 -0.4460  0.0737
  993MOL0     H34007  11.324   8.742  10.290  0.9754 -1.1503 -1.4383
  993MOL0     H34008  11.270   8.648  10.149 -0.9491 -1.0289  0.2087
  993MOL0     H34009  11.112   8.855  10.109 -0.8268  0.4908  3.5997
  993MOL0     H34010  11.223   8.937  10.214 -3.1528 -0.6601  1.4240
  993MOL0     H34011  11.262   8.844   9.936 -0.0451 -3.8941  2.2566
  993MOL0     H34012  11.404   8.800  10.034 -0.7022 -1.3758 -3.6927
  993MOL0     H34013  11.456   9.016   9.950 -0.3969  4.3479  0.0848
  993MOL0     H34014  11.379   9.064  10.110 -3.9589  0.4928  0.7857
  993MOL0     H34015  11.090   9.219   9.831  1.4827  0.0127 -1.2333
  993MOL0     H34016  11.040   9.456   9.848  0.2958  1.9411 -0.6425
  993MOL0     H34017  11.444   9.809  10.205  1.2464 -1.4173 -1.1200
  993MOL0     H34018  11.454  10.027  10.286  1.0802 -0.6045 -0.9702
  993MOL0     H34019  11.345  10.221  10.373 -1.2614  0.9834 -0.1515
  993MOL0     H34020  11.497  10.249  10.310 -1.4846  0.5868  0.0582
  993MOL0     H34021  11.411  10.437  10.447 -1.8219  1.8322  1.0187
  993MOL0     H34022  11.417  10.488  10.268 -0.3370 -2.3194 -2.0594
  993MOL0     H34023  11.163  10.401  10.279 -0.2020 -0.0493 -0.4315
  993MOL0     H34024  11.183  10.421  10.460  2.7862 -2.8899  0.5829
  993MOL0     H34025  11.233  10.636  10.264  3.0190 -2.5377  0.7138
  993MOL0     H34026  11.226  10.660  10.428 -0.9071  0.6228 -0.0292
  993MOL0     H34027  10.979  10.550  10.291  4.0708 -1.6856 -1.4855
  993MOL0     H34028  11.005  10.716  10.274  0.4016 -1.5462 -1.1565
  993MOL0     H34029  10.968  10.555  10.529  0.3192  0.8562  1.8157
  993MOL0     H34030  11.028  10.724  10.536 -0.7103  0.5180 -0.8367
  993MOL0     H34031  10.738  10.632  10.483 -1.1985  2.6136 -0.5399
  993MOL0     H34032  10.793  10.742  10.359  0.7713  2.5670  0.9684
  993MOL0     H34033  10.868  10.907  10.497  2.0508 -0.3819  2.8633
  993MOL0     H34034  10.694  10.873  10.495 -1.1425 -3.0351  1.5909
  993MOL0     H34035  11.269  10.175   9.941  1.0555  1.1015  0.2428
  993MOL0     H34036  11.232   9.945   9.856 -0.3625 -0.7161  0.4435
  993MOL0     H34037  11.438   9.503  10.006 -2.4486  1.9346 -1.3024
  993MOL0     H34038  11.463   9.245  10.024 -2.1879 -2.2753  1.1875
  993MOL0     H34039  10.631   7.734  10.438 -0.0356 -0.6615 -2.7707
  993MOL0     H34040  10.660   7.493  10.427 -0.1990 -1.7814  1.8489
  993MOL0     H34041  10.587   7.076  10.800  0.5565 -2.7467 -0.1929
  993MOL0     H34042  10.658   6.849  10.784 -1.0434 -0.1886 -0.4902
  993MOL0     H34043  10.908   6.598  10.488  1.8011  2.0350 -1.3626
  993MOL0     H34044  10.799   6.688  10.397 -0.9980 -1.6049 -0.7145
  993MOL0     H34045  10.669   6.502  10.466 -3.5988 -1.3094  2.5603
  993MOL0     H34046  10.616   6.637  10.559 -2.1205 -1.0667 -1.4520
  993MOL0     H34047  10.800   6.522  10.735 -1.7753 -2.5166  1.7877
  993MOL0     H34048  10.781   6.393  10.620 -1.1315 -0.0120 -1.6552
  993MOL0     H34049  10.551   6.536  10.753  0.1425  1.9965 -2.4718
  993MOL0     H34050  10.540   6.413  10.623  0.3027 -3.7038  1.6166
  993MOL0     H34051  10.604   6.188  10.968 -1.2194  1.7179  0.4200
  993MOL0     H34052  10.832   6.943  10.392  3.4903 -0.9328  1.8626
  993MOL0     H34053  10.758   7.287  10.405 -3.5479  0.6662  3.3281
  993MOL0     H34054  10.824   7.163  10.311  0.4669  0.2747  0.4871
  993MOL0     H34055  10.642   7.187  10.320  0.1383  0.2152  1.7151
  994MOL0     O34056   2.510   6.203  10.832 -0.1224  1.2067 -0.6406
  994MOL0     C34057   2.544   6.147  10.937 -0.9826 -0.9594  0.5742
  994MOL0     O34058   2.646   6.190  11.019 -0.1798 -0.4903 -0.4554
  994MOL0     C34059   2.709   6.312  10.995 -0.6937 -0.6301 -0.5104
  994MOL0     C34060   2.651   6.430  10.956 -0.0692 -0.1453 -0.9187
  994MOL0     C34061   2.720   6.554  10.937  0.6170  0.3722 -0.6526
  994MOL0     C34062   2.862   6.554  10.960  0.4494  0.5447  0.8454
  994MOL0     O34063   2.941   6.661  10.970 -0.1115  0.4696  0.3766
  994MOL0     C34064   2.880   6.786  10.946 -0.4087  0.2718 -0.6268
  994MOL0     C34065   2.979   6.899  10.975 -0.6691 -0.6115  0.1861
  994MOL0     C34066   2.987   6.927  11.127 -0.0372 -0.1665 -0.1879
  994MOL0     C34067   3.106   7.009  11.173  0.2815 -0.2098  0.1201
  994MOL0     C34068   3.077   7.163  11.147  0.5924  0.2062  0.3699
  994MOL0     C34069   2.997   7.230  11.261  0.3755 -0.8950  0.3876
  994MOL0     C34070   3.082   7.244  11.387  0.0782 -0.4352  0.1428
  994MOL0     C34071   3.208   7.330  11.378 -0.7472 -0.6452 -0.4208
  994MOL0     N34072   3.189   7.447  11.302  0.2465  0.2980  0.3035
  994MOL0     C34073   3.221   7.463  11.163 -0.0323  0.2620 -0.2982
  994MOL0     C34074   3.197   7.591  11.138 -0.2153 -0.1125  0.0034
  994MOL0     C34075   3.241   7.676  11.020  1.1307  0.7248 -0.3762
  994MOL0     C34076   3.117   7.672  10.925 -0.2746 -0.4111  0.6263
  994MOL0     C34077   3.089   7.532  10.861 -0.6132 -0.9048  0.2315
  994MOL0     C34078   2.986   7.537  10.751 -0.4625  0.1515 -0.2545
  994MOL0     O34079   2.866   7.522  10.828 -0.2559  0.6503  1.1081
  994MOL0     C34080   2.759   7.477  10.762 -0.2733 -0.2686 -0.2123
  994MOL0     C34081   2.689   7.366  10.809  1.0976 -0.0942 -0.1147
  994MOL0     C34082   2.571   7.325  10.743 -0.2549 -0.0839 -0.8181
  994MOL0     C34083   2.525   7.380  10.616  0.3116  0.5128 -1.1775
  994MOL0     C34084   2.395   7.330  10.553 -0.1620  0.1007  0.5079
  994MOL0     O34085   2.384   7.347  10.419  0.4764  0.9717  0.1725
  994MOL0     C34086   2.268   7.321  10.341 -0.1016  0.6492 -0.2536
  994MOL0     C34087   2.156   7.233  10.362 -0.0393  0.6673 -0.7511
  994MOL0     C34088   2.071   7.195  10.264  0.0807  0.5261 -0.1826
  994MOL0     C34089   2.084   7.248  10.136 -0.7964  0.6520  0.7240
  994MOL0     O34090   1.991   7.217  10.033  0.2837  0.9541  0.2010
  994MOL0     C34091   2.049   7.209   9.897 -0.1505 -0.6224 -1.1252
  994MOL0     C34092   2.051   7.061   9.873 -0.6984  0.4480 -0.2246
  994MOL0     C34093   2.176   6.984   9.927 -0.5375 -0.7016 -0.4692
  994MOL0     C34094   2.172   6.830   9.913  0.8506  0.2265  0.6519
  994MOL0     C34095   2.192   6.780   9.773 -0.4195  0.8375  0.1322
  994MOL0     C34096   2.336   6.779   9.742  0.6960 -0.2155 -0.1224
  994MOL0     C34097   2.419   6.646   9.742  0.1607  0.5825  0.0757
  994MOL0     C34098   2.574   6.678   9.714  0.7855  0.2949  0.1629
  994MOL0    Cl34099   2.594   6.773   9.563 -0.1859  0.4687  0.0209
  994MOL0     C34100   2.182   7.343  10.119 -0.2175  0.3899  0.0819
  994MOL0     C34101   2.275   7.380  10.218  0.8339 -0.1655  0.6134
  994MOL0     O34102   2.310   7.279  10.616  0.0472  0.0840 -0.1853
  994MOL0     C34103   2.602   7.489  10.569 -0.4247 -0.3782 -0.9888
  994MOL0     C34104   2.722   7.527  10.637 -0.2195 -0.3985  1.1141
  994MOL0     N34105   3.150   7.649  11.254  0.2591 -0.5102 -0.3175
  994MOL0     N34106   3.145   7.559  11.352 -0.6747  0.0326  0.4903
  994MOL0     C34107   2.914   6.431  11.005 -0.5867  0.1639  0.4713
  994MOL0     C34108   2.842   6.313  11.028  0.7468  0.2468  0.7314
  994MOL0     C34109   2.519   6.005  10.960 -0.5438 -0.2258 -0.0780
  994MOL0     C34110   2.528   5.956  11.090 -0.2550 -1.0770 -0.9508
  994MOL0     C34111   2.526   5.822  11.125 -0.3128 -0.7368  0.5480
  994MOL0     C34112   2.501   5.726  11.032 -0.0089 -0.5820 -0.4615
  994MOL0     O34113   2.497   5.594  11.063 -0.1387  0.0009  0.3120
  994MOL0     C34114   2.610   5.516  11.035  0.1468 -0.0515 -0.7626
  994MOL0     C34115   2.681   5.482  11.170 -0.9695 -1.0120  0.3021
  994MOL0     C34116   2.740   5.339  11.153 -0.2145  0.1415 -1.0954
  994MOL0     C34117   2.835   5.313  11.271 -0.6685 -0.6508  0.0613
  994MOL0     C34118   2.775   5.328  11.403  1.2535  0.3000 -1.0276
  994MOL0     C34119   2.729   5.322  11.517 -0.6249  1.0476  0.2483
  994MOL0     C34120   2.476   5.771  10.904 -0.9670 -0.4894 -1.0279
  994MOL0     C34121   2.490   5.904  10.865  0.8223  0.1470  0.0037
  994MOL0     C34122   2.429   5.933  10.731 -0.0438 -0.0258  0.1770
  994MOL0     H34123   2.543   6.427  10.961 -0.0368 -0.9463  3.9307
  994MOL0     H34124   2.671   6.650  10.931  1.8718  1.2330  1.5279
  994MOL0     H34125   2.842   6.791  10.843 -1.0011 -0.0395 -0.4308
  994MOL0     H34126   2.791   6.799  11.008 -1.2606 -1.8976 -1.3178
  994MOL0     H34127   2.942   6.986  10.919 -4.7614 -1.2429  1.5829
  994MOL0     H34128   3.081   6.876  10.944  0.6688  0.5366  3.3329
  994MOL0     H34129   2.994   6.839  11.191  0.5410  0.2316  0.3046
  994MOL0     H34130   2.892   6.977  11.152 -1.0829 -3.0419  2.2471
  994MOL0     H34131   3.121   7.002  11.281  4.0109  1.3127 -0.1285
  994MOL0     H34132   3.193   6.970  11.119  0.4632  1.4360 -0.8510
  994MOL0     H34133   3.176   7.210  11.141  0.1453  1.1559  0.1446
  994MOL0     H34134   3.045   7.177  11.043  2.7457 -0.1351 -0.3840
  994MOL0     H34135   2.962   7.327  11.226  2.3158  0.0608  0.9676
  994MOL0     H34136   2.902   7.178  11.279 -1.9541  2.0863 -2.0893
  994MOL0     H34137   3.109   7.145  11.426  4.9191  1.2572  1.8347
  994MOL0     H34138   3.024   7.286  11.470 -0.3262 -0.5298 -0.0908
  994MOL0     H34139   3.227   7.358  11.482 -3.7256 -1.7943  0.5312
  994MOL0     H34140   3.287   7.265  11.339 -1.8485 -2.9214  0.9666
  994MOL0     H34141   3.260   7.387  11.096 -0.4590 -0.8688  0.6886
  994MOL0     H34142   3.277   7.778  11.038 -2.8284  1.7574  3.7661
  994MOL0     H34143   3.326   7.634  10.966  3.0491  4.4852 -0.6349
  994MOL0     H34144   3.035   7.712  10.984 -0.8069  1.1662 -1.1172
  994MOL0     H34145   3.128   7.749  10.849 -0.4135 -0.7547  0.2538
  994MOL0     H34146   3.069   7.461  10.942  1.4414  1.2871  2.8592
  994MOL0     H34147   3.186   7.495  10.828 -0.9572 -1.9679  0.3736
  994MOL0     H34148   3.011   7.446  10.696 -3.1778  0.4956 -2.2281
  994MOL0     H34149   2.980   7.616  10.676 -0.1595  0.5098  0.0885
  994MOL0     H34150   2.703   7.337  10.913  0.2158  2.4559  0.8031
  994MOL0     H34151   2.532   7.228  10.772  1.2537 -0.7507 -0.9604
  994MOL0     H34152   2.146   7.195  10.463  0.8394  2.9193  0.2457
  994MOL0     H34153   1.986   7.128  10.273 -0.8029  1.5682 -0.5335
  994MOL0     H34154   1.992   7.278   9.835  0.2035  1.5807  0.8576
  994MOL0     H34155   2.157   7.229   9.889 -0.0525 -1.1900 -1.2897
  994MOL0     H34156   1.962   7.016   9.918  0.5403 -2.2565 -0.3279
  994MOL0     H34157   2.061   7.045   9.765  0.9679 -1.3103  0.1505
  994MOL0     H34158   2.261   7.024   9.872  0.1258  0.3492  1.2523
  994MOL0     H34159   2.190   7.017  10.030  2.2660  1.6758 -1.4755
  994MOL0     H34160   2.084   6.783   9.958  0.3711 -0.2855 -0.7550
  994MOL0     H34161   2.254   6.793   9.976  2.7518  0.0311 -1.7794
  994MOL0     H34162   2.142   6.840   9.697 -1.1310 -1.3864 -1.2551
  994MOL0     H34163   2.146   6.681   9.771  2.0592 -0.3755 -0.8659
  994MOL0     H34164   2.349   6.829   9.646  2.3289  3.1703  1.6858
  994MOL0     H34165   2.376   6.842   9.822 -0.5666  0.4184  0.0366
  994MOL0     H34166   2.388   6.574   9.665  0.0452 -2.1191  2.4681
  994MOL0     H34167   2.412   6.603   9.842  0.5171  3.1200  1.2504
  994MOL0     H34168   2.617   6.728   9.802 -0.6861  0.9355  0.5594
  994MOL0     H34169   2.627   6.584   9.698 -0.6951 -0.2887 -1.5514
  994MOL0     H34170   2.198   7.395  10.025  0.2797  0.4040  0.1725
  994MOL0     H34171   2.340   7.462  10.190 -3.8379  2.5672 -3.8904
  994MOL0     H34172   2.573   7.537  10.476 -3.8996 -1.3241 -0.5258
  994MOL0     H34173   2.778   7.617  10.613  0.5913 -1.2860 -0.4239
  994MOL0     H34174   3.008   6.423  11.058 -2.0144  3.3588  3.9480
  994MOL0     H34175   2.892   6.223  11.062  1.1876  0.7298  1.3898
  994MOL0     H34176   2.551   6.020  11.175 -0.6563  0.0863 -1.6817
  994MOL0     H34177   2.548   5.790  11.226  0.2216 -0.1832  0.6154
  994MOL0     H34178   2.676   5.564  10.962  2.5028  1.0847  1.9217
  994MOL0     H34179   2.571   5.424  10.989 -0.0211  0.1917 -1.1047
  994MOL0     H34180   2.612   5.470  11.254 -1.1501  0.4097  0.3872
  994MOL0     H34181   2.760   5.552  11.198 -0.6681 -1.2315  0.0157
  994MOL0     H34182   2.782   5.327  11.052 -0.0906 -0.8349 -0.9354
  994MOL0     H34183   2.667   5.259  11.149  0.1938 -0.1792 -3.1580
  994MOL0     H34184   2.880   5.213  11.269 -1.0446 -0.8229 -1.3635
  994MOL0     H34185   2.912   5.390  11.281 -0.2932 -1.2261  1.8665
  994MOL0     H34186   2.689   5.319  11.617 -2.1847  4.3583 -0.1365
  994MOL0     H34187   2.453   5.689  10.837 -1.8331 -1.4682  0.4124
  994MOL0     H34188   2.443   5.848  10.663  0.2287  1.5733 -1.8813
  994MOL0     H34189   2.322   5.953  10.746 -0.0658  0.6754 -0.8303
  994MOL0     H34190   2.478   6.019  10.685 -0.1339 -0.0335  0.0646
  995MOL0     O34191   1.147   7.305   8.474 -0.5543  0.0772  0.1017
  995MOL0     C34192   1.258   7.309   8.529  0.0128 -0.5639  0.9001
  995MOL0     O34193   1.371   7.256   8.469 -0.0176  0.6127 -0.2259
  995MOL0     C34194   1.362   7.202   8.340 -1.3941 -0.0746 -0.8988
  995MOL0     C34195   1.347   7.283   8.221 -0.0210  0.8418 -0.0772
  995MOL0     C34196   1.360   7.230   8.088  0.2220 -0.2202 -0.2357
  995MOL0     C34197   1.366   7.091   8.075 -0.4114 -1.2177 -0.1868
  995MOL0     O34198   1.374   7.039   7.950 -0.1237 -0.9225  0.0684
  995MOL0     C34199   1.257   7.070   7.877 -1.7620  0.0373 -0.5478
  995MOL0     C34200   1.134   6.980   7.916 -0.2514 -0.3407  0.7642
  995MOL0     C34201   1.150   6.844   7.880  0.2296 -0.4136 -0.0072
  995MOL0     C34202   1.021   6.769   7.923 -0.3672  0.1399  0.0673
  995MOL0     C34203   1.032   6.630   7.863  0.5041  1.1308 -0.3902
  995MOL0     C34204   0.890   6.558   7.868  1.4974  0.2771 -0.0405
  995MOL0     C34205   0.889   6.434   7.784 -0.4700 -0.2426  0.5135
  995MOL0     C34206   0.841   6.461   7.640 -1.3367  0.5482  0.0024
  995MOL0     N34207   0.830   6.332   7.568 -0.1468  0.3499 -0.3706
  995MOL0     C34208   0.901   6.299   7.457  0.2366 -0.0948 -1.0208
  995MOL0     C34209   0.869   6.169   7.432 -0.6343 -0.7100 -0.5003
  995MOL0     C34210   0.915   6.095   7.306  0.2301  0.4412 -0.0231
  995MOL0     C34211   1.001   5.976   7.337  0.1026 -0.3892 -0.8593
  995MOL0     C34212   1.032   5.910   7.211 -0.6637  0.3616  0.0221
  995MOL0     C34213   1.083   5.766   7.240 -0.8189  0.0881  0.2539
  995MOL0     O34214   1.141   5.709   7.118 -0.0371 -0.3123 -0.5460
  995MOL0     C34215   1.249   5.763   7.046  0.6453 -0.4374 -0.5546
  995MOL0     C34216   1.370   5.789   7.115  0.0716  0.1096 -0.2597
  995MOL0     C34217   1.470   5.851   7.052 -0.9774  0.4237  0.0223
  995MOL0     C34218   1.465   5.894   6.919  0.0178  1.2357 -0.2381
  995MOL0     C34219   1.581   5.948   6.849  0.7008  0.3010 -0.2198
  995MOL0     O34220   1.676   6.014   6.926 -0.7464  0.0706 -0.2557
  995MOL0     C34221   1.795   6.013   6.864 -1.2132 -0.2890  0.2275
  995MOL0     C34222   1.852   6.121   6.785  0.0742  0.0560  0.3706
  995MOL0     C34223   1.986   6.116   6.745  0.7171 -0.2307 -0.1602
  995MOL0     C34224   2.069   6.013   6.783  0.2108 -0.9617 -0.9144
  995MOL0     O34225   2.198   6.012   6.736  0.0247 -0.1417 -0.1645
  995MOL0     C34226   2.296   6.042   6.838  0.0969 -0.5748  0.1325
  995MOL0     C34227   2.433   6.064   6.768 -0.5214 -0.6963 -0.8612
  995MOL0     C34228   2.556   6.045   6.860  0.8415  0.3489 -0.8705
  995MOL0     C34229   2.565   6.153   6.965  0.0059 -0.6470 -0.0081
  995MOL0     C34230   2.680   6.149   7.068  0.6791 -1.1297  0.1076
  995MOL0     C34231   2.690   6.014   7.139  0.0979  0.5214 -0.3483
  995MOL0     C34232   2.786   6.008   7.266 -0.1327  0.5314 -0.1198
  995MOL0     C34233   2.768   5.884   7.346 -1.0493  0.2783 -0.5975
  995MOL0    Cl34234   2.927   5.809   7.407  0.1328 -0.1807  0.2331
  995MOL0     C34235   2.011   5.911   6.862 -0.8036 -0.1102  0.4956
  995MOL0     C34236   1.880   5.907   6.897 -0.5219 -1.5795 -0.0244
  995MOL0     O34237   1.595   5.906   6.729  0.2784 -0.2823 -0.5925
  995MOL0     C34238   1.349   5.862   6.842 -0.2443 -0.4543  0.3878
  995MOL0     C34239   1.234   5.807   6.909 -0.4943  0.0072  0.1545
  995MOL0     N34240   0.779   6.134   7.521  0.1313 -0.3993 -0.7564
  995MOL0     N34241   0.747   6.228   7.600 -0.0596 -0.7401 -0.6513
  995MOL0     C34242   1.380   7.007   8.192  0.8428 -0.2666  0.1205
  995MOL0     C34243   1.393   7.075   8.320  0.2246  0.3895  0.2642
  995MOL0     C34244   1.269   7.389   8.647  0.3585  0.4750  0.1017
  995MOL0     C34245   1.165   7.483   8.682  0.3578 -0.5114 -1.1573
  995MOL0     C34246   1.171   7.553   8.808 -0.0139  0.5817 -0.2973
  995MOL0     C34247   1.280   7.525   8.897  0.6381 -0.7845  0.7232
  995MOL0     O34248   1.283   7.593   9.018 -0.1273 -0.1752  0.6407
  995MOL0     C34249   1.371   7.562   9.129  0.2740 -0.0709  0.8082
  995MOL0     C34250   1.495   7.644   9.141 -0.4271 -0.8103 -0.7700
  995MOL0     C34251   1.459   7.796   9.141  0.2285  0.1222  0.3572
  995MOL0     C34252   1.562   7.879   9.222  0.2365 -0.1982  0.4617
  995MOL0     C34253   1.591   8.018   9.177 -0.4970  0.6483  0.8506
  995MOL0     C34254   1.631   8.117   9.126 -0.0726  0.2094  0.0404
  995MOL0     C34255   1.386   7.436   8.858 -0.5553  0.1648 -0.6115
  995MOL0     C34256   1.375   7.365   8.741 -0.1379 -0.5661 -0.1530
  995MOL0     C34257   1.480   7.259   8.736 -0.4333 -0.1861 -2.0796
  995MOL0     H34258   1.358   7.391   8.210  0.5679  0.7348 -0.5458
  995MOL0     H34259   1.369   7.291   7.999 -0.2980  0.9532  0.4872
  995MOL0     H34260   1.216   7.171   7.889 -4.2797 -0.8641 -0.9767
  995MOL0     H34261   1.271   7.062   7.768  0.8535  4.5555 -0.7894
  995MOL0     H34262   1.063   7.022   7.845  0.8131  1.2160  0.5582
  995MOL0     H34263   1.097   6.990   8.019  1.2516 -2.2970  1.5490
  995MOL0     H34264   1.244   6.812   7.926  2.1294  4.6438  0.2294
  995MOL0     H34265   1.165   6.838   7.772  2.1146  4.5596 -0.2816
  995MOL0     H34266   1.023   6.753   8.032  2.3897 -1.0918 -0.0753
  995MOL0     H34267   0.930   6.824   7.899  2.3945  5.6483  0.5043
  995MOL0     H34268   1.059   6.634   7.757 -2.1846 -1.6840 -1.3215
  995MOL0     H34269   1.102   6.572   7.925 -0.3215  1.4416  0.8764
  995MOL0     H34270   0.879   6.529   7.973 -1.3661  0.0934 -0.3257
  995MOL0     H34271   0.812   6.631   7.845  0.4929 -0.3147  1.3216
  995MOL0     H34272   0.833   6.348   7.823  1.7754 -0.4396  3.6994
  995MOL0     H34273   0.993   6.407   7.765  0.0155  2.5288 -1.4401
  995MOL0     H34274   0.737   6.491   7.655 -1.5198 -0.8092  1.7102
  995MOL0     H34275   0.901   6.534   7.584 -0.2698  0.6455  1.2392
  995MOL0     H34276   0.951   6.365   7.386 -1.7229  1.2501 -1.2300
  995MOL0     H34277   0.823   6.067   7.256 -1.2272  2.1560  1.5369
  995MOL0     H34278   0.968   6.162   7.237 -2.1567  0.6661 -1.7339
  995MOL0     H34279   1.097   6.015   7.369  0.8765 -0.7720 -2.5743
  995MOL0     H34280   0.947   5.912   7.408  0.4382 -0.1490 -0.3840
  995MOL0     H34281   1.095   5.964   7.140 -2.1472  0.7554 -1.0300
  995MOL0     H34282   0.940   5.888   7.157 -1.1137  0.0199  0.9029
  995MOL0     H34283   1.010   5.703   7.291 -1.9236  1.6275  0.6808
  995MOL0     H34284   1.166   5.773   7.311 -1.6927  0.8507  1.2426
  995MOL0     H34285   1.363   5.757   7.219  0.2429 -0.5389 -0.4452
  995MOL0     H34286   1.561   5.881   7.104  1.2471  1.5444 -4.0945
  995MOL0     H34287   1.809   6.210   6.739  3.8586  0.8148 -2.1344
  995MOL0     H34288   2.017   6.197   6.680 -1.0456 -0.7800 -1.7755
  995MOL0     H34289   2.269   6.130   6.897 -0.9162  0.7068 -2.0876
  995MOL0     H34290   2.311   5.955   6.902 -0.5703 -0.1027  0.9512
  995MOL0     H34291   2.453   5.993   6.687 -1.3074 -1.8560 -0.0706
  995MOL0     H34292   2.434   6.166   6.729 -0.5795 -0.2108  0.3894
  995MOL0     H34293   2.556   5.944   6.901 -2.7691 -1.8456 -5.4131
  995MOL0     H34294   2.636   6.038   6.786 -1.3574 -4.9810 -3.2418
  995MOL0     H34295   2.472   6.160   7.022 -0.1651 -1.6342 -0.1416
  995MOL0     H34296   2.564   6.249   6.914 -1.3729 -1.9263 -2.5712
  995MOL0     H34297   2.682   6.225   7.146  0.9939 -0.1314 -0.8510
  995MOL0     H34298   2.760   6.152   6.994  0.5897 -2.2492 -0.0552
  995MOL0     H34299   2.590   5.991   7.176  1.6725 -2.5431  2.5906
  995MOL0     H34300   2.729   5.938   7.071 -2.3860 -1.7981  0.6277
  995MOL0     H34301   2.773   6.095   7.331 -1.7280 -0.7447  1.3881
  995MOL0     H34302   2.888   6.000   7.228  0.7675 -1.2327  2.3954
  995MOL0     H34303   2.703   5.915   7.428  1.7387  0.0436  1.8576
  995MOL0     H34304   2.711   5.808   7.292 -0.6232  0.9901 -2.0962
  995MOL0     H34305   2.071   5.821   6.858  0.8687  0.9518  0.5986
  995MOL0     H34306   1.840   5.832   6.964 -1.3613 -1.6406 -0.5732
  995MOL0     H34307   1.342   5.888   6.737  0.7082 -2.2706 -0.1595
  995MOL0     H34308   1.147   5.778   6.852 -0.3832  0.6878 -0.3875
  995MOL0     H34309   1.397   6.901   8.203  1.8548  0.0474  1.8977
  995MOL0     H34310   1.413   7.017   8.409  0.5642  0.3479  0.1589
  995MOL0     H34311   1.086   7.487   8.608 -0.9241 -1.5717  0.0887
  995MOL0     H34312   1.099   7.630   8.836  0.9565  0.9012  1.4889
  995MOL0     H34313   1.388   7.454   9.135  0.3546 -0.1021  0.0409
  995MOL0     H34314   1.307   7.589   9.214 -0.7660  1.3356 -0.3784
  995MOL0     H34315   1.555   7.607   9.058 -0.0919 -0.0384 -0.8762
  995MOL0     H34316   1.555   7.618   9.229 -0.7425 -1.0799 -0.6321
  995MOL0     H34317   1.358   7.805   9.181  0.9243 -0.7207  2.4604
  995MOL0     H34318   1.454   7.835   9.039  1.8266 -2.1802 -0.6819
  995MOL0     H34319   1.544   7.865   9.329 -1.2230  3.2070  0.7756
  995MOL0     H34320   1.650   7.816   9.204 -0.2245 -0.6613 -0.2431
  995MOL0     H34321   1.688   8.200   9.088 -1.9206  1.0911 -0.8952
  995MOL0     H34322   1.467   7.414   8.928 -1.2279 -3.9746 -0.8910
  995MOL0     H34323   1.526   7.240   8.833 -1.6182  2.9543 -0.7631
  995MOL0     H34324   1.456   7.163   8.689  1.3255 -1.6646 -0.1435
  995MOL0     H34325   1.557   7.292   8.666  0.3440 -1.7017 -1.9752
  996MOL0     O34326  11.043   8.945   2.455  0.3192  0.2644 -0.1650
  996MOL0     C34327  11.117   8.848   2.448 -0.3014 -0.1178 -0.3898
  996MOL0     O34328  11.153   8.787   2.334 -0.2047 -0.4029  0.2373
  996MOL0     C34329  11.158   8.864   2.221  0.2321 -0.1435 -0.3067
  996MOL0     C34330  11.195   8.998   2.213 -0.5912  0.3218  0.1486
  996MOL0     C34331  11.203   9.063   2.093  0.9626  0.2594 -0.3125
  996MOL0     C34332  11.173   8.995   1.966  0.6381  1.1027 -0.5437
  996MOL0     O34333  11.163   9.046   1.838  0.0822 -0.1478 -0.6274
  996MOL0     C34334  11.141   9.179   1.818 -0.3763  0.4317 -0.1000
  996MOL0     C34335  11.270   9.252   1.803  0.4057 -0.5362  0.8364
  996MOL0     C34336  11.370   9.198   1.695  0.3452  0.5489 -0.3574
  996MOL0     C34337  11.470   9.103   1.757 -0.0891  0.1286  0.1775
  996MOL0     C34338  11.568   9.188   1.833  0.3281  0.1156  0.4379
  996MOL0     C34339  11.675   9.101   1.906  0.5168  0.4620  0.5186
  996MOL0     C34340  11.618   9.047   2.036 -0.2537  0.9456  0.3129
  996MOL0     C34341  11.607   9.143   2.156  0.4504 -0.1989  0.0342
  996MOL0     N34342  11.586   9.096   2.293 -0.8843  0.3694 -0.0142
  996MOL0     C34343  11.560   8.966   2.331 -0.0159 -0.1597 -0.5846
  996MOL0     C34344  11.574   8.954   2.469 -0.6030 -0.3693  0.8527
  996MOL0     C34345  11.588   8.823   2.543 -0.4783  0.4105  0.4287
  996MOL0     C34346  11.692   8.831   2.650 -0.0992 -0.2473 -0.5089
  996MOL0     C34347  11.666   8.716   2.765 -0.1858  0.3010  0.0826
  996MOL0     C34348  11.784   8.716   2.858  0.1856 -0.4443 -0.1726
  996MOL0     O34349  11.889   8.672   2.773  0.1206 -0.0148 -0.1630
  996MOL0     C34350  12.007   8.653   2.835 -0.1759  0.3013  0.5206
  996MOL0     C34351  12.115   8.624   2.744  0.7258  0.0544 -0.2304
  996MOL0     C34352  12.243   8.600   2.778 -0.1285  0.0867  0.1904
  996MOL0     C34353  12.275   8.575   2.914 -0.5200  0.0327 -0.2618
  996MOL0     C34354  12.421   8.536   2.947  0.0920 -0.2979  0.0173
  996MOL0     O34355  12.443   8.470   3.063  0.5233 -0.1258 -0.2259
  996MOL0     C34356  12.556   8.395   3.073 -0.4172  0.0512 -0.3012
  996MOL0     C34357  12.648   8.350   2.974 -0.6409 -0.3361  0.4646
  996MOL0     C34358  12.754   8.259   3.008 -0.0473 -0.7620  0.2732
  996MOL0     C34359  12.786   8.222   3.142 -0.0525  0.8013  0.4676
  996MOL0     O34360  12.884   8.132   3.165  0.3255  0.5707 -0.9404
  996MOL0     C34361  12.913   8.095   3.302 -0.5638  0.5727  0.9531
  996MOL0     C34362  13.011   7.980   3.291 -0.5278 -0.0225  0.1536
  996MOL0     C34363  13.074   7.927   3.419  0.9326 -0.6161 -0.1254
  996MOL0     C34364  13.160   7.810   3.406  0.6906 -0.0026 -0.4350
  996MOL0     C34365  13.306   7.848   3.373  0.2906 -0.4114 -1.0855
  996MOL0     C34366  13.402   7.725   3.369  0.4120 -0.0474 -0.1768
  996MOL0     C34367  13.547   7.751   3.408  0.2740  0.3462  0.2784
  996MOL0     C34368  13.619   7.804   3.297  0.1526 -0.0219  0.4239
  996MOL0    Cl34369  13.780   7.834   3.347  0.3192 -0.4091 -0.3582
  996MOL0     C34370  12.697   8.274   3.240 -0.0750 -0.5086  0.2963
  996MOL0     C34371  12.581   8.353   3.206  0.4188  0.3803 -0.3425
  996MOL0     O34372  12.517   8.581   2.884 -0.6123 -0.5329  0.5579
  996MOL0     C34373  12.177   8.627   3.006 -0.2146 -0.1312  0.1612
  996MOL0     C34374  12.047   8.667   2.969  0.0658 -0.1405 -0.0637
  996MOL0     N34375  11.591   9.086   2.508  0.2438 -0.2086 -0.5235
  996MOL0     N34376  11.599   9.166   2.411  0.2926  0.0535  0.7484
  996MOL0     C34377  11.138   8.855   1.989 -0.1592 -0.5256  0.0650
  996MOL0     C34378  11.146   8.797   2.109 -0.0865  0.5271 -0.6449
  996MOL0     C34379  11.167   8.785   2.572  0.2189  0.6525  0.8536
  996MOL0     C34380  11.242   8.662   2.554 -0.4315  0.4572 -0.6550
  996MOL0     C34381  11.283   8.589   2.667 -0.3497  0.6372  0.7976
  996MOL0     C34382  11.266   8.639   2.798 -0.2875  0.6428  0.6708
  996MOL0     O34383  11.325   8.568   2.900  0.5302  0.9794 -0.3026
  996MOL0     C34384  11.271   8.555   3.036  0.1612  0.0955 -0.0710
  996MOL0     C34385  11.346   8.444   3.105 -0.0558  0.3099 -0.2230
  996MOL0     C34386  11.309   8.431   3.254  0.6585  0.4122  0.4761
  996MOL0     C34387  11.382   8.298   3.302  0.4323 -0.0806 -0.9394
  996MOL0     C34388  11.309   8.178   3.296 -0.1987  0.6353  0.9691
  996MOL0     C34389  11.247   8.075   3.289 -0.2929  0.1597  0.4696
  996MOL0     C34390  11.207   8.766   2.815  0.8260  0.1637  0.2986
  996MOL0     C34391  11.144   8.837   2.708  0.8009  0.4315 -0.3785
  996MOL0     C34392  11.076   8.962   2.746 -0.2080  0.3565 -0.0644
  996MOL0     H34393  11.243   9.042   2.300  0.6501  0.4820 -0.5838
  996MOL0     H34394  11.235   9.166   2.091 -0.3149  0.7370  1.1877
  996MOL0     H34395  11.079   9.188   1.729  1.2895  0.6572 -1.2836
  996MOL0     H34396  11.074   9.227   1.890 -1.6944 -1.1522 -0.2041
  996MOL0     H34397  11.313   9.278   1.899  0.7914 -0.8276  0.7479
  996MOL0     H34398  11.231   9.343   1.757 -1.1992 -1.4441  0.2734
  996MOL0     H34399  11.416   9.288   1.652  0.8506  0.8789  0.8242
  996MOL0     H34400  11.311   9.147   1.618  0.2646  0.1414 -0.0279
  996MOL0     H34401  11.428   9.027   1.823  1.6377 -0.6813  0.4085
  996MOL0     H34402  11.530   9.060   1.676  2.6008  3.3478  0.2098
  996MOL0     H34403  11.600   9.253   1.751 -1.1745  0.5227  0.1431
  996MOL0     H34404  11.517   9.254   1.904  2.1861  2.8506 -0.5975
  996MOL0     H34405  11.704   9.033   1.825  0.1573  5.3999 -4.3185
  996MOL0     H34406  11.756   9.169   1.933  0.2176  0.4584  1.4942
  996MOL0     H34407  11.688   8.972   2.072  1.4237  3.0230  1.6082
  996MOL0     H34408  11.523   8.995   2.020  1.9859 -2.5526 -3.8829
  996MOL0     H34409  11.704   9.193   2.170  0.5198 -0.6367  1.2189
  996MOL0     H34410  11.535   9.223   2.134 -1.4535 -1.3901  1.5944
  996MOL0     H34411  11.545   8.890   2.255  3.4712 -0.4028 -1.2019
  996MOL0     H34412  11.495   8.781   2.582 -0.6129 -0.6802 -0.9828
  996MOL0     H34413  11.636   8.750   2.477 -1.6325  1.0414 -1.1674
  996MOL0     H34414  11.789   8.829   2.599 -0.2087 -0.8833 -0.7039
  996MOL0     H34415  11.675   8.928   2.698  3.4785 -0.0469  0.6975
  996MOL0     H34416  11.665   8.616   2.721  2.0484 -0.6415  1.9499
  996MOL0     H34417  11.578   8.731   2.828  0.5385 -1.2019  1.5190
  996MOL0     H34418  11.769   8.651   2.945 -0.5434  0.4625  0.4030
  996MOL0     H34419  11.791   8.820   2.892  0.0049 -1.2802  2.6917
  996MOL0     H34420  12.088   8.629   2.639  1.2024 -0.7076 -0.3949
  996MOL0     H34421  12.316   8.579   2.700  0.2708 -0.5648  0.7294
  996MOL0     H34422  12.626   8.374   2.870 -0.3591  3.6519  1.1764
  996MOL0     H34423  12.814   8.217   2.928  0.2940  0.9321 -0.3950
  996MOL0     H34424  12.946   8.177   3.367 -2.5132  2.7225 -0.6025
  996MOL0     H34425  12.823   8.044   3.338 -0.6130  1.9058  2.8828
  996MOL0     H34426  12.964   7.905   3.227 -0.9722 -1.2846  1.9026
  996MOL0     H34427  13.095   8.017   3.231 -0.4258 -2.0658 -1.0522
  996MOL0     H34428  13.130   8.009   3.466  0.7486 -1.0800  0.9337
  996MOL0     H34429  13.000   7.894   3.493 -0.1354  0.8635 -0.4772
  996MOL0     H34430  13.118   7.739   3.335 -1.2429  0.7130 -0.0644
  996MOL0     H34431  13.159   7.768   3.507 -0.8529 -0.4045 -0.6034
  996MOL0     H34432  13.344   7.930   3.435 -2.7140 -0.1790  0.6639
  996MOL0     H34433  13.307   7.887   3.271  2.1012 -0.0430 -0.9458
  996MOL0     H34434  13.363   7.648   3.436 -2.4009  2.2497  1.0091
  996MOL0     H34435  13.404   7.681   3.268  1.2628  1.0583 -0.6587
  996MOL0     H34436  13.597   7.660   3.440  1.3256  0.8714  0.1522
  996MOL0     H34437  13.549   7.822   3.491  2.8024  0.1629  0.4407
  996MOL0     H34438  13.635   7.727   3.222 -0.2441 -2.8746  3.0845
  996MOL0     H34439  13.572   7.890   3.247  1.6519  0.2462 -0.5844
  996MOL0     H34440  12.710   8.259   3.346  0.4630 -1.0208  0.1654
  996MOL0     H34441  12.510   8.391   3.278  0.2148  2.6804 -1.6363
  996MOL0     H34442  12.205   8.630   3.111  1.3044  0.9211 -0.2378
  996MOL0     H34443  11.974   8.695   3.045 -0.1564  0.9499 -0.6508
  996MOL0     H34444  11.117   8.804   1.896 -0.2072 -0.3516 -0.0212
  996MOL0     H34445  11.133   8.690   2.115  1.0562  0.2327 -2.6429
  996MOL0     H34446  11.267   8.608   2.464  0.6367 -0.9144  0.4105
  996MOL0     H34447  11.326   8.492   2.645  0.6968  1.3604 -0.4758
  996MOL0     H34448  11.164   8.529   3.033  0.3665 -2.9852  5.8082
  996MOL0     H34449  11.263   8.650   3.090  0.4690 -0.7559  1.5113
  996MOL0     H34450  11.453   8.465   3.114 -0.2063  0.2013  2.8092
  996MOL0     H34451  11.311   8.353   3.054  1.3714 -1.6088  2.0017
  996MOL0     H34452  11.201   8.418   3.258  0.4725  0.5537 -2.3165
  996MOL0     H34453  11.337   8.511   3.324 -0.9429 -1.1132  3.0002
  996MOL0     H34454  11.481   8.295   3.255  0.5702  0.7510 -0.7206
  996MOL0     H34455  11.394   8.311   3.410 -2.3450 -0.8098 -0.4519
  996MOL0     H34456  11.187   7.987   3.295  0.4622 -0.3256  1.0194
  996MOL0     H34457  11.197   8.803   2.916  2.0973  0.1114  0.4586
  996MOL0     H34458  11.107   8.996   2.846 -0.8064 -1.4857  0.8013
  996MOL0     H34459  11.075   9.035   2.665 -1.1042  0.2185 -0.1905
  996MOL0     H34460  10.971   8.931   2.757 -0.0699 -0.2027 -0.2581
  997MOL0     O34461   7.874   5.033  11.393  0.2653  0.6072  0.1118
  997MOL0     C34462   7.841   5.072  11.509  0.0376 -0.9985  0.0207
  997MOL0     O34463   7.711   5.053  11.562 -0.5730  0.3701  0.8362
  997MOL0     C34464   7.611   5.012  11.484  0.0471  0.0953 -0.2345
  997MOL0     C34465   7.582   5.061  11.357 -0.2739  0.4009  0.7386
  997MOL0     C34466   7.475   5.033  11.276 -0.5087 -0.4428 -0.6327
  997MOL0     C34467   7.386   4.933  11.332 -0.6230 -1.1900 -0.2223
  997MOL0     O34468   7.277   4.871  11.267  0.5056 -0.4216  0.3887
  997MOL0     C34469   7.262   4.874  11.125 -0.2950  0.3991 -0.6660
  997MOL0     C34470   7.171   4.758  11.086  0.2229 -0.5073 -0.7278
  997MOL0     C34471   7.163   4.723  10.939 -0.5900 -0.7663  0.7466
  997MOL0     C34472   7.302   4.723  10.869  0.1372 -0.3600 -0.9298
  997MOL0     C34473   7.282   4.628  10.752 -0.5365 -0.5276  0.4570
  997MOL0     C34474   7.409   4.581  10.673 -1.0229 -0.3548  0.9753
  997MOL0     C34475   7.396   4.471  10.571  0.3128 -0.4256  1.1187
  997MOL0     C34476   7.369   4.534  10.427 -1.5436 -0.5614  0.4384
  997MOL0     N34477   7.233   4.538  10.377  0.9199 -0.5816 -1.0713
  997MOL0     C34478   7.131   4.454  10.414  0.9304  0.5412 -0.2011
  997MOL0     C34479   7.017   4.512  10.347 -0.1639 -0.4476 -0.0953
  997MOL0     C34480   6.871   4.455  10.348 -0.3069  0.7447 -0.6708
  997MOL0     C34481   6.811   4.466  10.204  1.0899 -0.2355 -0.6321
  997MOL0     C34482   6.693   4.375  10.194 -1.3101  0.3421 -0.4259
  997MOL0     C34483   6.664   4.351  10.051  0.6166  0.0204  0.1803
  997MOL0     O34484   6.605   4.463   9.992  1.5046 -0.5201 -0.1323
  997MOL0     C34485   6.547   4.439   9.865  0.5627 -1.0628 -0.6338
  997MOL0     C34486   6.478   4.543   9.815 -0.2661 -0.5287 -0.6586
  997MOL0     C34487   6.420   4.537   9.686  0.8888 -0.5071  0.1994
  997MOL0     C34488   6.432   4.426   9.601 -0.0164  0.4567 -0.4639
  997MOL0     C34489   6.362   4.403   9.471 -0.9184 -0.2800 -0.0355
  997MOL0     O34490   6.308   4.514   9.417 -0.4735  0.5951 -0.3556
  997MOL0     C34491   6.253   4.500   9.291 -1.0026 -0.3572 -0.8418
  997MOL0     C34492   6.281   4.603   9.204  0.1552 -0.0611 -0.6874
  997MOL0     C34493   6.221   4.613   9.077  1.4017 -0.1984 -0.1118
  997MOL0     C34494   6.130   4.515   9.041  0.2784  0.6066  0.1172
  997MOL0     O34495   6.060   4.508   8.913  0.0960  0.1011  0.3905
  997MOL0     C34496   6.022   4.630   8.851 -0.1949 -0.5597  0.8626
  997MOL0     C34497   5.905   4.609   8.754  0.3038 -0.1018  0.5652
  997MOL0     C34498   5.942   4.553   8.619  0.0213 -0.2882 -0.0039
  997MOL0     C34499   5.830   4.460   8.569 -0.4514  0.1578 -0.3811
  997MOL0     C34500   5.824   4.328   8.645 -0.1194 -0.0466  0.6715
  997MOL0     C34501   5.705   4.239   8.577  0.2313 -0.7535 -0.3780
  997MOL0     C34502   5.760   4.187   8.444  0.2030  0.6842 -0.3658
  997MOL0     C34503   5.667   4.073   8.378  0.7859 -0.6092 -0.1374
  997MOL0    Cl34504   5.520   4.147   8.320  0.0009 -0.0102  0.0940
  997MOL0     C34505   6.093   4.413   9.122  1.4061  0.0176 -0.1741
  997MOL0     C34506   6.164   4.398   9.246  0.0930  0.0364 -0.1728
  997MOL0     O34507   6.381   4.294   9.406 -0.0907  0.1978 -0.1903
  997MOL0     C34508   6.506   4.321   9.641 -0.6087  0.2890 -0.2722
  997MOL0     C34509   6.563   4.325   9.777 -0.1636  1.0123 -0.2434
  997MOL0     N34510   7.056   4.618  10.279  0.6263 -0.0229 -0.0610
  997MOL0     N34511   7.175   4.639  10.312  0.0172  0.2808  0.6710
  997MOL0     C34512   7.413   4.875  11.459  1.0122  0.1617 -0.4779
  997MOL0     C34513   7.519   4.913  11.535 -0.5644 -0.7481  0.1084
  997MOL0     C34514   7.940   5.139  11.606  0.0553 -0.2138  0.1510
  997MOL0     C34515   7.922   5.119  11.749  0.8038  0.4767  1.0278
  997MOL0     C34516   8.023   5.164  11.834  0.3434  0.1735 -0.2815
  997MOL0     C34517   8.143   5.218  11.784  0.4924  0.2267  0.0681
  997MOL0     O34518   8.254   5.243  11.864 -0.0233  0.4322  0.6004
  997MOL0     C34519   8.337   5.362  11.831 -0.5300 -0.2652 -0.0369
  997MOL0     C34520   8.378   5.417  11.967 -0.5570 -0.1446  0.2624
  997MOL0     C34521   8.255   5.454  12.052  0.6588  0.7709 -0.1144
  997MOL0     C34522   8.305   5.554  12.162  0.8902 -0.6824  0.3288
  997MOL0     C34523   8.182   5.614  12.233 -0.2758  0.0767  0.0940
  997MOL0     C34524   8.094   5.662  12.299  0.5279  0.0359 -0.2692
  997MOL0     C34525   8.153   5.250  11.646  0.4246  0.0857 -0.4085
  997MOL0     C34526   8.056   5.207  11.556 -0.1595 -1.7270  0.1166
  997MOL0     C34527   8.070   5.243  11.408 -0.4610 -0.1543 -0.4259
  997MOL0     H34528   7.649   5.137  11.318 -0.5984  0.7218  0.8095
  997MOL0     H34529   7.447   5.095  11.191  1.5888 -0.6294 -1.5054
  997MOL0     H34530   7.230   4.964  11.072 -0.3244  0.4219 -0.6103
  997MOL0     H34531   7.357   4.854  11.074 -0.5173  0.3017 -1.0436
  997MOL0     H34532   7.072   4.781  11.128  0.5538  1.4051 -0.9196
  997MOL0     H34533   7.209   4.669  11.137 -1.8186  0.2972  2.5075
  997MOL0     H34534   7.101   4.802  10.896 -2.1774 -1.2665  2.0382
  997MOL0     H34535   7.105   4.632  10.920 -3.5534  1.1181  0.0481
  997MOL0     H34536   7.333   4.825  10.841  0.8929 -1.1977 -3.3858
  997MOL0     H34537   7.385   4.674  10.921  0.0345 -3.0605 -3.1258
  997MOL0     H34538   7.244   4.531  10.785  4.1228 -1.8840  2.7908
  997MOL0     H34539   7.203   4.682  10.699 -0.2833 -0.1979  0.4127
  997MOL0     H34540   7.454   4.671  10.631 -0.4896 -1.2584 -0.4664
  997MOL0     H34541   7.481   4.546  10.747  1.2023 -0.3314 -1.0264
  997MOL0     H34542   7.299   4.425  10.595 -0.8602  0.5410 -1.3548
  997MOL0     H34543   7.482   4.404  10.575  1.2207  0.6437  0.0720
  997MOL0     H34544   7.417   4.632  10.427  2.4759 -2.3072 -0.8299
  997MOL0     H34545   7.436   4.479  10.359 -1.8944  0.7052 -0.9652
  997MOL0     H34546   7.132   4.373  10.485 -0.4135 -0.4526 -1.2731
  997MOL0     H34547   6.882   4.348  10.370  1.1434  1.0196  0.0363
  997MOL0     H34548   6.800   4.498  10.420 -1.6253 -0.8092 -0.9930
  997MOL0     H34549   6.773   4.567  10.186  0.3041 -0.7607 -2.0926
  997MOL0     H34550   6.875   4.450  10.117 -2.1593  1.2089 -3.5664
  997MOL0     H34551   6.603   4.428  10.225 -2.5982 -0.8882 -1.8897
  997MOL0     H34552   6.710   4.277  10.242  0.9768  0.6718 -0.4327
  997MOL0     H34553   6.594   4.268  10.035 -2.6475  2.4375  0.9473
  997MOL0     H34554   6.750   4.321   9.991  0.0814 -2.2569  0.4587
  997MOL0     H34555   6.459   4.632   9.874 -3.0476 -2.2400  1.2360
  997MOL0     H34556   6.369   4.628   9.655 -0.0749 -0.8899  0.6403
  997MOL0     H34557   6.361   4.675   9.213  1.0430 -1.0647 -0.3539
  997MOL0     H34558   6.234   4.696   9.008 -2.1365  0.0579 -0.6457
  997MOL0     H34559   5.996   4.696   8.934  2.6805  1.0049  0.6645
  997MOL0     H34560   6.109   4.676   8.803 -0.0986  0.5571  2.0511
  997MOL0     H34561   5.833   4.542   8.802 -0.9978  0.2552 -0.7914
  997MOL0     H34562   5.853   4.703   8.732 -1.3321 -1.2909 -1.0149
  997MOL0     H34563   5.949   4.645   8.559  1.5039  0.7869  1.7168
  997MOL0     H34564   6.040   4.505   8.622  1.2918  1.7737 -2.9202
  997MOL0     H34565   5.859   4.428   8.468  2.2780  3.8768 -0.9697
  997MOL0     H34566   5.728   4.499   8.556 -0.5754  0.2060  0.6614
  997MOL0     H34567   5.794   4.347   8.749  2.3076  3.4279  0.9170
  997MOL0     H34568   5.912   4.264   8.643 -0.1847 -0.1604  1.2588
  997MOL0     H34569   5.677   4.151   8.636 -0.7140 -1.4343 -1.8002
  997MOL0     H34570   5.609   4.287   8.558  0.9599 -0.0981 -2.6628
  997MOL0     H34571   5.860   4.144   8.447  1.7891  3.9442 -1.3247
  997MOL0     H34572   5.776   4.268   8.372 -2.0573  0.0654 -1.6440
  997MOL0     H34573   5.721   4.052   8.285  0.8994 -0.5735 -0.0787
  997MOL0     H34574   5.649   3.990   8.446 -3.2818  2.4508  3.0198
  997MOL0     H34575   6.022   4.334   9.099  0.6166  0.5787  0.2788
  997MOL0     H34576   6.126   4.318   9.308  1.9712 -1.6782 -1.1250
  997MOL0     H34577   6.525   4.230   9.585  0.9432  0.0488  0.5861
  997MOL0     H34578   6.617   4.232   9.794  2.2980  2.4001 -0.0533
  997MOL0     H34579   7.348   4.793  11.487 -0.4494  1.5368  0.3370
  997MOL0     H34580   7.522   4.862  11.631 -2.3985  1.1064  1.2189
  997MOL0     H34581   7.829   5.085  11.793 -0.7740  1.8507 -1.0380
  997MOL0     H34582   8.024   5.171  11.942  0.9571  0.6990 -0.3104
  997MOL0     H34583   8.279   5.438  11.777 -0.3459  2.9939  3.8850
  997MOL0     H34584   8.419   5.330  11.767  0.7653 -1.7094  2.1967
  997MOL0     H34585   8.451   5.498  11.958  2.3525 -2.4787  1.1575
  997MOL0     H34586   8.425   5.340  12.029 -1.4358 -0.8692  0.0508
  997MOL0     H34587   8.225   5.360  12.101  2.4705 -0.9237 -2.0247
  997MOL0     H34588   8.174   5.484  11.985  1.8440 -3.3867 -3.9180
  997MOL0     H34589   8.363   5.508  12.241  0.6747 -0.3005  0.7132
  997MOL0     H34590   8.361   5.635  12.114 -1.5947  1.8638  1.3923
  997MOL0     H34591   8.020   5.701  12.367 -1.9504 -0.6647 -2.4290
  997MOL0     H34592   8.248   5.287  11.607  0.8160 -0.3416  0.1278
  997MOL0     H34593   7.985   5.269  11.345  2.4754 -0.4734 -4.9018
  997MOL0     H34594   8.132   5.333  11.415  0.6594 -0.9874  0.8120
  997MOL0     H34595   8.133   5.169  11.358  0.0192  0.2333 -0.4014
  998MOL0     O34596   6.247   7.668   7.707  0.5034  0.3177  0.3216
  998MOL0     C34597   6.366   7.661   7.725  0.5298  0.2522 -0.8627
  998MOL0     O34598   6.428   7.673   7.849  0.1136 -0.3403  0.2210
  998MOL0     C34599   6.334   7.669   7.950 -0.2729 -0.6175  0.8703
  998MOL0     C34600   6.340   7.571   8.046 -0.4881  0.2611  0.0666
  998MOL0     C34601   6.242   7.539   8.143 -0.2953  0.5605  0.8606
  998MOL0     C34602   6.139   7.635   8.155  0.4097  0.1091 -0.9292
  998MOL0     O34603   6.057   7.620   8.264  0.2335 -0.7869 -0.2836
  998MOL0     C34604   5.956   7.715   8.291 -0.4706 -0.7265  0.3116
  998MOL0     C34605   5.900   7.699   8.432  0.3170 -0.3269  0.7385
  998MOL0     C34606   5.842   7.556   8.450  0.6501 -0.1639 -0.0140
  998MOL0     C34607   5.727   7.549   8.550 -0.5321  1.0017  0.9919
  998MOL0     C34608   5.660   7.413   8.573 -0.0271 -1.5335  0.3448
  998MOL0     C34609   5.650   7.330   8.450  0.1533 -1.0298 -0.0831
  998MOL0     C34610   5.560   7.214   8.480  0.1413 -0.1248  0.9782
  998MOL0     C34611   5.513   7.140   8.351 -0.4350  0.5561  0.2918
  998MOL0     N34612   5.596   7.017   8.330  0.4153 -0.3746 -1.0256
  998MOL0     C34613   5.709   7.018   8.257  0.0631  0.8425  0.8385
  998MOL0     C34614   5.724   6.899   8.189  0.3038  0.7675  0.0000
  998MOL0     C34615   5.819   6.856   8.080  0.4863 -0.0202  0.4586
  998MOL0     C34616   5.877   6.958   7.982 -0.6700  0.0556 -0.6741
  998MOL0     C34617   5.770   7.027   7.898 -0.5725 -0.2809 -0.0385
  998MOL0     C34618   5.781   6.996   7.752  0.2859 -0.4437  0.0621
  998MOL0     O34619   5.918   7.021   7.701 -0.1092 -0.3403 -0.0386
  998MOL0     C34620   5.940   6.980   7.574 -0.3163  0.1777 -0.5632
  998MOL0     C34621   5.861   6.894   7.493  0.6855  0.4774 -0.2352
  998MOL0     C34622   5.895   6.878   7.355  0.7500 -0.3150  0.7166
  998MOL0     C34623   6.018   6.921   7.305  0.5943  0.1067  0.1181
  998MOL0     C34624   6.050   6.887   7.161  0.4007  0.1734  0.3915
  998MOL0     O34625   5.986   6.775   7.117  0.5678 -0.3557 -0.8200
  998MOL0     C34626   5.987   6.731   6.997  0.3652  0.8423 -0.5217
  998MOL0     C34627   6.013   6.589   6.984 -0.9879  0.4338  1.3133
  998MOL0     C34628   6.023   6.531   6.856  0.5738 -0.1791  0.1390
  998MOL0     C34629   6.007   6.602   6.737 -0.4158  0.2712  0.1194
  998MOL0     O34630   6.005   6.522   6.630  1.2471 -0.8978  0.0889
  998MOL0     C34631   6.007   6.597   6.507  0.2827 -0.3489  0.4205
  998MOL0     C34632   5.873   6.664   6.472 -0.2614  0.4740  0.1905
  998MOL0     C34633   5.785   6.586   6.372 -0.5767  0.3467  0.1243
  998MOL0     C34634   5.726   6.464   6.435  0.0289  0.3018 -0.8295
  998MOL0     C34635   5.618   6.501   6.532  0.0009 -1.3939 -0.5654
  998MOL0     C34636   5.545   6.373   6.586 -0.8860  0.1953  0.4104
  998MOL0     C34637   5.470   6.379   6.719  0.7638  1.3075 -0.1554
  998MOL0     C34638   5.395   6.244   6.736 -0.7740  0.3264 -1.0317
  998MOL0    Cl34639   5.334   6.209   6.903 -0.0942  0.0370 -0.1787
  998MOL0     C34640   5.980   6.738   6.747 -0.4693 -0.0445  0.0530
  998MOL0     C34641   5.981   6.802   6.873  0.2284  0.5115  0.0762
  998MOL0     O34642   6.118   6.955   7.090 -0.1754 -0.3383 -0.4614
  998MOL0     C34643   6.105   7.002   7.385  0.4461 -0.4760  0.3725
  998MOL0     C34644   6.060   7.027   7.520  0.0797  0.2836  1.0980
  998MOL0     N34645   5.620   6.822   8.248 -0.1032  0.4000  0.4828
  998MOL0     N34646   5.543   6.891   8.332  0.4694 -0.2273 -0.6117
  998MOL0     C34647   6.133   7.742   8.065 -0.6493 -0.0784  0.2759
  998MOL0     C34648   6.231   7.765   7.964  0.8232  0.0775  0.2793
  998MOL0     C34649   6.456   7.636   7.616 -0.4454 -0.5170 -0.4975
  998MOL0     C34650   6.422   7.699   7.494  0.5366  0.3380 -0.4507
  998MOL0     C34651   6.510   7.688   7.386  0.9018  0.4946  1.1457
  998MOL0     C34652   6.621   7.602   7.386 -0.3149 -0.0966  0.3414
  998MOL0     O34653   6.688   7.577   7.272  0.1031  0.8827 -0.1914
  998MOL0     C34654   6.818   7.521   7.272 -0.5549 -0.3350 -0.3181
  998MOL0     C34655   6.882   7.501   7.139 -0.0572 -0.1156 -0.1676
  998MOL0     C34656   6.889   7.641   7.071  0.4734  0.2085  0.2850
  998MOL0     C34657   6.936   7.630   6.917  0.2679 -0.3298 -0.1832
  998MOL0     C34658   7.070   7.576   6.904 -0.4250  0.2017  0.2556
  998MOL0     C34659   7.175   7.543   6.863  0.0942  0.5016 -0.4599
  998MOL0     C34660   6.651   7.537   7.504 -0.0686  0.3334  0.1430
  998MOL0     C34661   6.568   7.557   7.620 -1.4266 -0.1837 -0.8254
  998MOL0     C34662   6.611   7.479   7.747 -0.1688  0.5363  0.8145
  998MOL0     H34663   6.415   7.495   8.028 -1.1760 -0.7823  1.4457
  998MOL0     H34664   6.244   7.448   8.202 -2.6032 -2.4100 -3.1677
  998MOL0     H34665   6.005   7.812   8.278 -0.3069 -1.0123 -1.5315
  998MOL0     H34666   5.877   7.703   8.217 -1.1409  1.9926  0.4777
  998MOL0     H34667   5.820   7.773   8.440 -0.3454 -1.0127  0.5337
  998MOL0     H34668   5.978   7.725   8.504 -1.9963  2.1883  2.5336
  998MOL0     H34669   5.924   7.487   8.471 -0.2487 -2.0137 -2.1054
  998MOL0     H34670   5.798   7.519   8.357 -2.7674 -1.3906  1.8979
  998MOL0     H34671   5.773   7.578   8.645 -0.5282 -0.1422  1.3602
  998MOL0     H34672   5.655   7.628   8.527 -2.2326 -0.5698  0.6045
  998MOL0     H34673   5.711   7.354   8.650  1.3893 -2.2999 -1.1103
  998MOL0     H34674   5.564   7.435   8.619  0.3694  1.5984 -0.0746
  998MOL0     H34675   5.606   7.406   8.385 -2.7834  0.2084  3.0235
  998MOL0     H34676   5.744   7.293   8.411 -0.5235 -2.2059 -0.6483
  998MOL0     H34677   5.468   7.239   8.534  0.4296  0.7330  1.0836
  998MOL0     H34678   5.612   7.144   8.547 -1.9710  0.6138  3.5705
  998MOL0     H34679   5.409   7.118   8.376  0.5781 -1.6650  3.2164
  998MOL0     H34680   5.513   7.215   8.272 -1.6827  2.0901  1.6754
  998MOL0     H34681   5.779   7.098   8.237  3.9136 -2.9040 -2.7118
  998MOL0     H34682   5.909   6.812   8.124  0.2554 -0.0211  0.9456
  998MOL0     H34683   5.763   6.782   8.022  0.8378  2.3615 -3.1847
  998MOL0     H34684   5.920   7.037   8.043 -0.8917 -0.1881 -0.2000
  998MOL0     H34685   5.954   6.912   7.918 -2.6742 -3.0707 -1.0731
  998MOL0     H34686   5.767   7.135   7.911 -4.1580  0.1815 -3.1446
  998MOL0     H34687   5.665   7.002   7.917 -1.1610  2.1943  0.3410
  998MOL0     H34688   5.703   7.041   7.690 -0.4240 -1.2962  0.3236
  998MOL0     H34689   5.753   6.891   7.750  1.5046 -0.7787 -0.9802
  998MOL0     H34690   5.766   6.850   7.524  1.1973 -1.7288 -1.5365
  998MOL0     H34691   5.844   6.799   7.300  1.7659 -1.4602  1.3660
  998MOL0     H34692   6.026   6.535   7.077 -3.1061  1.2164  2.1355
  998MOL0     H34693   6.051   6.427   6.842  1.6144  0.0965  0.0786
  998MOL0     H34694   6.089   6.669   6.511  1.8588 -1.9969 -0.4736
  998MOL0     H34695   6.043   6.537   6.423 -0.6869  0.9879 -1.0148
  998MOL0     H34696   5.810   6.697   6.554  0.7601  1.1928  0.7103
  998MOL0     H34697   5.893   6.764   6.431 -1.3585  0.1814 -1.1411
  998MOL0     H34698   5.701   6.650   6.344  0.8618  1.6516 -1.4230
  998MOL0     H34699   5.833   6.564   6.277 -0.0874  0.5129  0.3327
  998MOL0     H34700   5.809   6.415   6.486  0.1894  2.1387  0.7521
  998MOL0     H34701   5.679   6.388   6.372 -2.1941 -2.5986  3.8191
  998MOL0     H34702   5.542   6.573   6.501 -0.1407 -0.7597  1.1212
  998MOL0     H34703   5.672   6.540   6.619 -0.6562 -1.5167 -0.0948
  998MOL0     H34704   5.471   6.338   6.514  2.9563 -5.9789 -1.3451
  998MOL0     H34705   5.610   6.285   6.588 -0.5417  0.4483  2.5246
  998MOL0     H34706   5.391   6.454   6.711  2.7274  3.5124  0.2993
  998MOL0     H34707   5.534   6.413   6.800  0.8266  1.4494 -0.2634
  998MOL0     H34708   5.312   6.237   6.666 -0.9638 -5.6972 -0.7187
  998MOL0     H34709   5.469   6.171   6.704  0.7805  1.6831 -0.6903
  998MOL0     H34710   5.936   6.797   6.667  0.5913 -1.0459 -1.3155
  998MOL0     H34711   5.967   6.910   6.877  1.9464  0.7383  0.8983
  998MOL0     H34712   6.203   7.036   7.352  1.9671 -2.0980  2.8527
  998MOL0     H34713   6.121   7.072   7.598 -0.7623  1.1266  1.2902
  998MOL0     H34714   6.055   7.817   8.065 -1.5677 -0.9864 -0.6229
  998MOL0     H34715   6.235   7.858   7.909  2.9053 -0.3797 -0.4175
  998MOL0     H34716   6.325   7.746   7.481 -0.8394 -1.9878  0.7622
  998MOL0     H34717   6.472   7.746   7.302 -4.5301 -1.6476  1.7820
  998MOL0     H34718   6.818   7.422   7.318  2.1364  0.1490  0.9436
  998MOL0     H34719   6.886   7.586   7.328  0.8939 -1.4935 -0.6853
  998MOL0     H34720   6.817   7.432   7.084  0.7481 -2.1760  1.3174
  998MOL0     H34721   6.981   7.460   7.158  0.1736  1.5050  2.5124
  998MOL0     H34722   6.957   7.693   7.140 -0.4840 -1.1924  2.3964
  998MOL0     H34723   6.800   7.704   7.076 -1.5444 -2.4374  0.4026
  998MOL0     H34724   6.870   7.567   6.856  0.4253 -0.1560 -0.5322
  998MOL0     H34725   6.940   7.735   6.887 -2.3538  0.1449  0.7903
  998MOL0     H34726   7.265   7.524   6.807  0.3035 -1.5982  0.4965
  998MOL0     H34727   6.730   7.462   7.501  0.0628  0.3436  1.9052
  998MOL0     H34728   6.522   7.437   7.794  0.2113 -2.3084 -0.8348
  998MOL0     H34729   6.676   7.392   7.733  1.5337  2.0489 -1.3428
  998MOL0     H34730   6.669   7.539   7.818  3.1687 -1.1309 -0.2823
  999MOL0     O34731   2.715   7.984   7.759 -0.8714 -0.5414 -0.6733
  999MOL0     C34732   2.811   8.053   7.720  0.1701 -0.1044 -0.1403
  999MOL0     O34733   2.797   8.173   7.648 -0.5841  0.1808 -0.3716
  999MOL0     C34734   2.672   8.220   7.657 -0.2103  0.1399 -0.0858
  999MOL0     C34735   2.577   8.185   7.556 -0.2327  1.4362 -0.7888
  999MOL0     C34736   2.444   8.214   7.568  0.0355 -0.4880  0.1737
  999MOL0     C34737   2.399   8.284   7.680 -0.2912  0.1890 -0.4559
  999MOL0     O34738   2.265   8.298   7.688  0.1034  0.5104  0.2317
  999MOL0     C34739   2.202   8.319   7.816 -0.5882 -0.0148 -1.0112
  999MOL0     C34740   2.053   8.333   7.807 -0.4399  0.4655 -1.3686
  999MOL0     C34741   1.999   8.187   7.765  0.9590 -0.6027  0.6035
  999MOL0     C34742   1.870   8.217   7.674 -0.0482 -0.8982  0.7768
  999MOL0     C34743   1.893   8.288   7.538 -0.0703  1.2734 -0.2541
  999MOL0     C34744   2.007   8.239   7.448 -0.0499 -0.0448  0.3766
  999MOL0     C34745   2.013   8.311   7.311  0.4179  0.4340 -0.3667
  999MOL0     C34746   2.033   8.458   7.308 -0.3785 -0.4293  1.3187
  999MOL0     N34747   2.067   8.508   7.171  0.4203  0.1833 -0.1592
  999MOL0     C34748   1.964   8.569   7.108 -0.1739 -0.4525 -1.2225
  999MOL0     C34749   2.034   8.637   7.008  0.2649  0.3136 -1.3833
  999MOL0     C34750   1.978   8.751   6.933 -0.8544 -0.3362 -0.1406
  999MOL0     C34751   1.988   8.747   6.780  1.4505  1.0717  0.3945
  999MOL0     C34752   1.899   8.636   6.713  0.3944 -0.7088 -0.5015
  999MOL0     C34753   1.977   8.505   6.698  0.1967 -0.4693  0.2432
  999MOL0     O34754   1.884   8.390   6.690 -0.5961  0.0693 -0.2325
  999MOL0     C34755   1.813   8.368   6.567 -0.3159 -0.3332 -0.1528
  999MOL0     C34756   1.841   8.443   6.458  0.4102  0.4401  0.3909
  999MOL0     C34757   1.779   8.414   6.332 -0.2497  0.4296 -0.1872
  999MOL0     C34758   1.692   8.303   6.329 -0.1798  1.0300 -0.0151
  999MOL0     C34759   1.627   8.264   6.199  0.3969  0.9736 -0.4481
  999MOL0     O34760   1.613   8.355   6.103 -0.4350  0.9349  0.5945
  999MOL0     C34761   1.543   8.318   5.994 -0.0299  0.1904 -0.0953
  999MOL0     C34762   1.583   8.334   5.860 -0.4621  0.0705  0.6700
  999MOL0     C34763   1.499   8.290   5.753 -0.4170  0.1974 -0.5520
  999MOL0     C34764   1.374   8.238   5.780 -0.0503  0.8857  0.4216
  999MOL0     O34765   1.301   8.188   5.675  0.7738 -0.2843  0.8230
  999MOL0     C34766   1.293   8.245   5.552  0.2885 -0.4819  1.8201
  999MOL0     C34767   1.378   8.147   5.456 -1.5246 -0.4506  0.0779
  999MOL0     C34768   1.378   8.187   5.307  1.1962  0.2380 -0.5515
  999MOL0     C34769   1.417   8.059   5.214  0.6022 -0.6794  0.0794
  999MOL0     C34770   1.385   8.067   5.069  0.2241  0.6798  0.7687
  999MOL0     C34771   1.391   7.932   5.005 -0.7399 -0.4586  0.2292
  999MOL0     C34772   1.529   7.871   5.019 -0.3351 -0.4462  0.3779
  999MOL0     C34773   1.594   7.796   4.893  0.9915  0.0637 -0.1119
  999MOL0    Cl34774   1.653   7.914   4.769 -0.2172 -0.8096 -0.2923
  999MOL0     C34775   1.327   8.234   5.905  0.6114  0.3163 -0.6288
  999MOL0     C34776   1.403   8.283   6.009 -0.5403  0.0055 -0.2392
  999MOL0     O34777   1.597   8.146   6.190  0.0167  0.9569  0.1720
  999MOL0     C34778   1.660   8.229   6.443 -0.4589 -0.7783 -1.1309
  999MOL0     C34779   1.725   8.261   6.566  0.0773  0.1241 -0.7217
  999MOL0     N34780   2.172   8.605   7.021  0.2482  0.7658 -0.4393
  999MOL0     N34781   2.186   8.507   7.103 -0.8663 -0.2335 -0.0906
  999MOL0     C34782   2.489   8.332   7.776 -0.5164  1.0164 -0.1494
  999MOL0     C34783   2.629   8.292   7.767  0.3217  0.4783 -0.2967
  999MOL0     C34784   2.940   8.017   7.768  0.5703 -0.2538 -0.0874
  999MOL0     C34785   3.007   8.137   7.806  0.0509 -0.2364 -0.1367
  999MOL0     C34786   3.115   8.127   7.896 -0.6582  0.2787 -0.3489
  999MOL0     C34787   3.168   8.004   7.936  0.9044 -0.8503  0.5529
  999MOL0     O34788   3.265   8.003   8.031  0.5006 -0.5377  0.7782
  999MOL0     C34789   3.226   8.047   8.167 -0.4334  0.0263 -0.5439
  999MOL0     C34790   3.324   7.974   8.259  0.8671  0.5048 -0.3178
  999MOL0     C34791   3.255   7.834   8.290  0.6277  1.3266 -0.8964
  999MOL0     C34792   3.331   7.744   8.377 -0.4674  1.1073  0.6788
  999MOL0     C34793   3.438   7.669   8.317 -0.5809  0.0283 -0.7477
  999MOL0     C34794   3.534   7.597   8.289 -0.1502  0.2843  0.9948
  999MOL0     C34795   3.098   7.891   7.899 -0.0678  1.0891 -0.5376
  999MOL0     C34796   2.989   7.891   7.808 -0.6405  0.1779 -0.3272
  999MOL0     C34797   2.916   7.773   7.749 -0.5320 -0.0227 -0.6468
  999MOL0     H34798   2.605   8.122   7.472 -0.9932  0.1360 -0.1003
  999MOL0     H34799   2.387   8.160   7.493 -1.4961 -2.3110  2.5186
  999MOL0     H34800   2.236   8.246   7.890 -0.7483 -0.3806 -1.2958
  999MOL0     H34801   2.234   8.415   7.858  3.5367 -1.0449 -1.3508
  999MOL0     H34802   2.020   8.410   7.738 -1.0757 -1.6368 -3.5589
  999MOL0     H34803   2.009   8.354   7.905  2.5812  0.3541  0.1553
  999MOL0     H34804   1.958   8.136   7.853  0.1007  4.7607  3.7473
  999MOL0     H34805   2.068   8.126   7.706  1.1049 -1.7285  1.8876
  999MOL0     H34806   1.809   8.127   7.666  0.5590 -1.4218  1.8650
  999MOL0     H34807   1.808   8.283   7.734  0.9011 -1.4446  2.4136
  999MOL0     H34808   1.791   8.286   7.500 -0.5556 -1.0944  1.0032
  999MOL0     H34809   1.918   8.395   7.542  2.8832  0.6475  1.8274
  999MOL0     H34810   2.102   8.259   7.498 -0.8716 -3.6545  3.8534
  999MOL0     H34811   1.978   8.134   7.445 -1.7527  0.3821  0.9090
  999MOL0     H34812   1.923   8.275   7.260  1.5305 -2.5751 -0.3907
  999MOL0     H34813   2.096   8.255   7.266  1.5062 -0.7285  2.8406
  999MOL0     H34814   1.936   8.500   7.335 -0.7103  0.6137 -1.2379
  999MOL0     H34815   2.115   8.481   7.378 -0.2608 -3.0428  2.1465
  999MOL0     H34816   1.860   8.585   7.136  0.1033 -0.4643 -0.1507
  999MOL0     H34817   1.874   8.761   6.965 -0.6959  0.6653  0.1048
  999MOL0     H34818   2.028   8.843   6.967 -1.4519 -0.2388  0.5157
  999MOL0     H34819   1.947   8.844   6.750  0.2231  0.7148  0.8714
  999MOL0     H34820   2.087   8.746   6.732  0.0579 -1.2601 -2.7952
  999MOL0     H34821   1.861   8.674   6.618  0.0555  0.1765 -0.0160
  999MOL0     H34822   1.814   8.627   6.782  0.8459  0.8180  0.2843
  999MOL0     H34823   2.053   8.486   6.774 -0.9002 -1.7241  1.0692
  999MOL0     H34824   2.034   8.522   6.606 -4.4573  2.4131 -2.4788
  999MOL0     H34825   1.912   8.525   6.465  2.9832 -1.7448  1.5928
  999MOL0     H34826   1.794   8.475   6.244  0.1684 -1.9834 -1.8996
  999MOL0     H34827   1.681   8.377   5.844 -0.9997  1.1006  0.0417
  999MOL0     H34828   1.548   8.310   5.658 -0.0506  0.2739 -0.3505
  999MOL0     H34829   1.193   8.245   5.508  0.3249 -3.1440  1.5786
  999MOL0     H34830   1.343   8.342   5.554  0.1032 -0.3347  0.3232
  999MOL0     H34831   1.479   8.148   5.498 -0.4623  0.0608 -2.3460
  999MOL0     H34832   1.338   8.046   5.473 -0.6875 -0.6363  1.0950
  999MOL0     H34833   1.280   8.220   5.270  0.2191  0.2072  1.8310
  999MOL0     H34834   1.456   8.261   5.290 -0.9810  2.9108  0.2147
  999MOL0     H34835   1.375   7.964   5.248 -3.1451  0.8823  0.2495
  999MOL0     H34836   1.525   8.050   5.230  0.4749  0.9214  2.3904
  999MOL0     H34837   1.447   8.149   5.032 -0.0978  0.3821 -0.4663
  999MOL0     H34838   1.283   8.108   5.071 -0.7788 -1.5386 -0.6809
  999MOL0     H34839   1.319   7.858   5.042 -0.8744 -2.1927 -3.1170
  999MOL0     H34840   1.357   7.944   4.902  2.2947 -0.5950 -0.8887
  999MOL0     H34841   1.530   7.806   5.107  2.3469  1.5740  2.0193
  999MOL0     H34842   1.602   7.948   5.047  1.0521 -1.7997  0.6057
  999MOL0     H34843   1.685   7.745   4.924  0.9692  0.5951  0.8859
  999MOL0     H34844   1.524   7.726   4.847 -0.7617  1.2521  0.6328
  999MOL0     H34845   1.224   8.204   5.924  0.6315  1.1397  0.9795
  999MOL0     H34846   1.359   8.277   6.109 -0.7091  0.9765 -0.2524
  999MOL0     H34847   1.585   8.153   6.429 -0.1959 -1.0039 -1.3187
  999MOL0     H34848   1.690   8.216   6.658 -2.0884  4.5656  0.9095
  999MOL0     H34849   2.457   8.394   7.860  3.0239  0.3067  1.9474
  999MOL0     H34850   2.715   8.315   7.829 -0.7857  0.5225  1.2875
  999MOL0     H34851   2.987   8.242   7.783  3.3241  0.5339 -0.0044
  999MOL0     H34852   3.168   8.220   7.916  1.1877 -0.3558 -1.9983
  999MOL0     H34853   3.122   8.022   8.190 -0.2688 -0.7086 -0.6029
  999MOL0     H34854   3.236   8.156   8.175 -1.6085  0.1455 -0.4177
  999MOL0     H34855   3.330   8.041   8.345 -1.8416  0.0928  0.2970
  999MOL0     H34856   3.415   7.978   8.199 -0.4598  4.1998 -2.4128
  999MOL0     H34857   3.239   7.785   8.194  0.6795  2.8881 -1.7308
  999MOL0     H34858   3.160   7.852   8.341  0.7910 -0.3793  0.0886
  999MOL0     H34859   3.379   7.804   8.455  1.3203 -0.6795  1.0607
  999MOL0     H34860   3.270   7.670   8.429  0.6516 -0.1402  0.2772
  999MOL0     H34861   3.622   7.541   8.264 -0.1992  1.6901 -3.1315
  999MOL0     H34862   3.130   7.793   7.933 -0.9332  1.4524  1.5208
  999MOL0     H34863   2.921   7.789   7.641 -1.2199  1.7750 -0.4520
  999MOL0     H34864   2.951   7.676   7.786 -1.0718  0.3712  1.0261
  999MOL0     H34865   2.808   7.776   7.771 -0.6546  0.3058 -1.2927
 1000MOL0     O34866   9.787   4.156   5.335 -0.3044 -0.2473 -0.5469
 1000MOL0     C34867   9.760   4.044   5.375 -0.6546 -0.4510  0.6867
 1000MOL0     O34868   9.850   3.958   5.436 -0.2314  0.8225  0.1801
 1000MOL0     C34869   9.985   3.975   5.444 -0.7808  0.1612 -0.6070
 1000MOL0     C34870  10.060   3.862   5.474  0.1001 -0.1351 -0.3138
 1000MOL0     C34871  10.202   3.863   5.473 -0.3028  0.3668  0.0562
 1000MOL0     C34872  10.273   3.986   5.447  0.3562  0.2799 -0.5473
 1000MOL0     O34873  10.410   3.997   5.455 -0.4605 -0.4863  0.2023
 1000MOL0     C34874  10.492   3.882   5.447 -0.3996  0.9767 -0.3531
 1000MOL0     C34875  10.635   3.912   5.413 -0.2832  0.7682 -0.6816
 1000MOL0     C34876  10.707   3.775   5.400 -0.2592 -0.6594 -0.0596
 1000MOL0     C34877  10.827   3.775   5.319 -0.9169  0.3740 -0.1629
 1000MOL0     C34878  10.814   3.811   5.172  0.2175  0.3216 -0.6519
 1000MOL0     C34879  10.947   3.815   5.097 -0.8140 -0.1968  0.1541
 1000MOL0     C34880  10.926   3.886   4.962  0.6811  0.7018  0.2927
 1000MOL0     C34881  10.859   3.803   4.856 -1.1084 -0.2771  0.8318
 1000MOL0     N34882  10.758   3.878   4.780 -0.1179  0.2524 -0.1066
 1000MOL0     C34883  10.624   3.837   4.770 -0.3118  0.0078 -0.1756
 1000MOL0     C34884  10.566   3.947   4.718 -0.6823  0.1899  0.2264
 1000MOL0     C34885  10.421   3.967   4.700 -0.9693  0.3933 -0.4135
 1000MOL0     C34886  10.382   3.913   4.563  0.3398  0.8926  0.7901
 1000MOL0     C34887  10.227   3.908   4.535  0.3799 -0.1320  0.6502
 1000MOL0     C34888  10.200   3.860   4.398 -0.3686 -0.0554 -0.0966
 1000MOL0     O34889  10.053   3.856   4.374  0.4424 -0.1731  0.6750
 1000MOL0     C34890  10.020   3.881   4.243 -0.4628 -0.0895 -1.3754
 1000MOL0     C34891  10.059   4.002   4.192  0.3947  0.0183  0.4598
 1000MOL0     C34892  10.016   4.039   4.062 -0.8159 -0.3631  0.2995
 1000MOL0     C34893   9.934   3.958   3.989  0.8331  0.8548 -0.1519
 1000MOL0     C34894   9.899   3.988   3.844  0.0293 -0.3853  0.5654
 1000MOL0     O34895   9.865   3.897   3.748  0.0579 -0.4507 -0.1810
 1000MOL0     C34896   9.821   3.941   3.625  0.0438 -0.2504  0.4753
 1000MOL0     C34897   9.692   3.922   3.573  0.5624 -0.0611  0.1139
 1000MOL0     C34898   9.655   3.954   3.441  0.6147  1.1362 -0.6241
 1000MOL0     C34899   9.755   4.006   3.359  0.2001  0.0086  0.2450
 1000MOL0     O34900   9.736   4.039   3.225 -0.2777  0.3656 -0.2593
 1000MOL0     C34901   9.594   4.049   3.191  0.9206 -0.0833 -0.3148
 1000MOL0     C34902   9.588   4.106   3.051  0.0285  0.8479 -0.0271
 1000MOL0     C34903   9.659   4.036   2.940  0.7848 -0.1656 -0.0575
 1000MOL0     C34904   9.574   3.914   2.906  0.5554 -0.0698 -0.5757
 1000MOL0     C34905   9.603   3.855   2.774  0.2711  0.2985 -0.2462
 1000MOL0     C34906   9.721   3.751   2.761  0.3817 -0.1040 -0.3382
 1000MOL0     C34907   9.710   3.693   2.620 -0.1711 -1.3127 -0.1972
 1000MOL0     C34908   9.809   3.770   2.515 -0.0206  0.7771 -0.3141
 1000MOL0    Cl34909   9.796   3.952   2.489 -0.0825 -0.2630 -0.1847
 1000MOL0     C34910   9.884   4.034   3.406  0.4095 -0.1500 -0.0102
 1000MOL0     C34911   9.914   3.996   3.537 -0.0798  0.2378  0.1198
 1000MOL0     O34912   9.894   4.110   3.822 -0.6239  0.2542  0.2527
 1000MOL0     C34913   9.894   3.832   4.038 -0.2899 -0.5723 -0.7687
 1000MOL0     C34914   9.948   3.790   4.161  0.5745  0.2418  0.2032
 1000MOL0     N34915  10.664   4.051   4.713 -0.4089  0.0078  0.0558
 1000MOL0     N34916  10.779   4.008   4.739 -0.5543 -0.0126  0.0975
 1000MOL0     C34917  10.202   4.098   5.412  0.7106  0.1832 -0.3863
 1000MOL0     C34918  10.062   4.087   5.404  0.7626  0.2806 -0.1757
 1000MOL0     C34919   9.627   3.988   5.361 -0.2609 -1.3173  0.2636
 1000MOL0     C34920   9.577   3.951   5.234 -0.3002  0.2361 -0.7392
 1000MOL0     C34921   9.450   3.900   5.218  0.3156 -0.5133  0.2608
 1000MOL0     C34922   9.368   3.874   5.331 -0.7169 -0.3949 -0.6816
 1000MOL0     O34923   9.236   3.825   5.325  0.5245 -0.6039  0.2997
 1000MOL0     C34924   9.173   3.831   5.197 -0.7256 -0.0471 -0.4631
 1000MOL0     C34925   9.118   3.967   5.164  0.4012 -0.8370 -0.0254
 1000MOL0     C34926   9.000   3.983   5.079 -0.0119 -0.6080  0.9606
 1000MOL0     C34927   9.024   3.936   4.930 -0.3597 -0.6566 -1.1870
 1000MOL0     C34928   8.902   3.950   4.856 -0.1162 -0.5809  0.9587
 1000MOL0     C34929   8.778   3.963   4.835 -0.0011  0.8139  1.2800
 1000MOL0     C34930   9.427   3.894   5.459 -0.1495  0.1098  0.8752
 1000MOL0     C34931   9.546   3.964   5.471  0.3095  0.3892 -0.9078
 1000MOL0     C34932   9.581   3.992   5.616  0.5359  0.0085 -0.4616
 1000MOL0     H34933  10.001   3.771   5.487 -0.5512  0.1756 -0.9916
 1000MOL0     H34934  10.249   3.773   5.512 -2.4986 -3.6187 -5.2627
 1000MOL0     H34935  10.493   3.830   5.544  0.3320 -1.3093 -1.5142
 1000MOL0     H34936  10.458   3.817   5.366  2.5662 -0.8575 -0.2553
 1000MOL0     H34937  10.685   3.961   5.497 -0.6506 -0.3071  0.1892
 1000MOL0     H34938  10.650   3.974   5.324 -0.4163  3.4771  1.0500
 1000MOL0     H34939  10.644   3.694   5.361 -0.9241  0.5467 -1.5697
 1000MOL0     H34940  10.725   3.747   5.504 -2.5249 -0.5165  0.4353
 1000MOL0     H34941  10.901   3.848   5.353 -1.9655  1.9354 -1.0621
 1000MOL0     H34942  10.876   3.678   5.327 -2.7881 -0.5290  1.1517
 1000MOL0     H34943  10.747   3.738   5.125 -0.0505  0.1612 -0.0420
 1000MOL0     H34944  10.761   3.906   5.166 -2.5084 -0.8512  2.0459
 1000MOL0     H34945  11.032   3.870   5.137  0.9661 -1.2475 -1.9776
 1000MOL0     H34946  10.984   3.713   5.083 -0.6233  0.0185 -1.0225
 1000MOL0     H34947  11.021   3.928   4.929  0.1267  3.3285  1.7272
 1000MOL0     H34948  10.866   3.977   4.976 -0.4056 -0.1461  1.4654
 1000MOL0     H34949  10.933   3.775   4.780 -2.1410  1.2991 -0.8097
 1000MOL0     H34950  10.837   3.700   4.889 -0.7716 -0.4191  0.6131
 1000MOL0     H34951  10.576   3.745   4.802 -1.3240  0.2800 -0.8560
 1000MOL0     H34952  10.377   3.913   4.785 -0.4435  3.2453  1.8204
 1000MOL0     H34953  10.390   4.072   4.702  2.5248  1.6523  3.8977
 1000MOL0     H34954  10.440   3.966   4.487  0.3322 -2.3910 -1.7052
 1000MOL0     H34955  10.413   3.809   4.552 -1.3302 -0.0738  3.8778
 1000MOL0     H34956  10.176   4.004   4.540 -5.1350 -2.5146 -1.6709
 1000MOL0     H34957  10.180   3.849   4.613 -1.8307  0.2347 -0.3270
 1000MOL0     H34958  10.250   3.764   4.382  0.3535  0.1720  0.6797
 1000MOL0     H34959  10.251   3.934   4.335 -0.4249  0.4017  0.3854
 1000MOL0     H34960  10.113   4.066   4.261  4.5314 -0.0601 -2.3114
 1000MOL0     H34961  10.054   4.127   4.012  3.0682 -2.5139 -0.8987
 1000MOL0     H34962   9.617   3.895   3.647 -0.4536  0.5176 -0.6672
 1000MOL0     H34963   9.557   3.929   3.402  1.1660  0.9861 -1.9632
 1000MOL0     H34964   9.547   3.950   3.186 -3.5824  1.6725  1.3647
 1000MOL0     H34965   9.532   4.114   3.253 -0.9222  0.8362 -2.9537
 1000MOL0     H34966   9.484   4.118   3.020  0.5969  1.2977 -1.9071
 1000MOL0     H34967   9.625   4.209   3.054 -0.7865  1.1286  2.5131
 1000MOL0     H34968   9.658   4.099   2.851  0.0417  0.5844  0.4662
 1000MOL0     H34969   9.763   4.009   2.962  0.6183 -1.6024 -0.9122
 1000MOL0     H34970   9.468   3.939   2.914  0.7408  0.5603  0.0138
 1000MOL0     H34971   9.586   3.833   2.978 -0.3210 -0.9754 -1.4085
 1000MOL0     H34972   9.602   3.937   2.702  1.3318  0.6145  0.0893
 1000MOL0     H34973   9.520   3.790   2.743 -2.9251  4.5839 -1.8242
 1000MOL0     H34974   9.818   3.799   2.778  2.6049 -3.4185 -2.5165
 1000MOL0     H34975   9.706   3.671   2.834  2.7684 -0.2535  0.0747
 1000MOL0     H34976   9.608   3.688   2.581 -0.6850 -0.5333  1.0105
 1000MOL0     H34977   9.744   3.589   2.625  0.4905 -1.0330  3.8206
 1000MOL0     H34978   9.911   3.758   2.554 -0.4174 -0.2334  0.4459
 1000MOL0     H34979   9.786   3.724   2.419  0.8003 -2.0367  0.7524
 1000MOL0     H34980   9.953   4.070   3.330  2.1460 -0.2665  1.4348
 1000MOL0     H34981  10.013   4.011   3.580 -0.1095  1.4955 -0.1944
 1000MOL0     H34982   9.837   3.763   3.976  1.9660 -1.5698 -1.8399
 1000MOL0     H34983   9.928   3.696   4.211 -0.0114 -0.4639 -1.2953
 1000MOL0     H34984  10.258   4.184   5.377  4.3768 -1.1827  1.6355
 1000MOL0     H34985  10.014   4.174   5.362  2.8208  0.6323 -1.9523
 1000MOL0     H34986   9.632   3.973   5.143  0.7237  0.4129 -0.0986
 1000MOL0     H34987   9.422   3.887   5.114 -2.6044 -0.0081  0.8980
 1000MOL0     H34988   9.096   3.753   5.207 -0.8805  0.0616 -0.7973
 1000MOL0     H34989   9.231   3.793   5.112  1.0864  0.2574  0.5916
 1000MOL0     H34990   9.183   4.035   5.108 -0.0944 -0.7045 -0.4450
 1000MOL0     H34991   9.099   4.023   5.256 -3.3942 -3.0789  0.7646
 1000MOL0     H34992   8.964   4.086   5.071 -0.0703 -0.7982 -3.7369
 1000MOL0     H34993   8.918   3.934   5.132 -2.6140  0.5863 -1.6543
 1000MOL0     H34994   9.103   3.995   4.883 -1.5503 -0.6361 -3.2986
 1000MOL0     H34995   9.059   3.832   4.923  1.5648 -0.0575 -1.0517
 1000MOL0     H34996   8.678   3.964   4.797  0.5300  0.5690 -0.1520
 1000MOL0     H34997   9.367   3.885   5.549  0.8871  0.2731  1.5967
 1000MOL0     H34998   9.489   3.998   5.674  0.6734 -1.3755 -0.0634
 1000MOL0     H34999   9.651   3.916   5.651 -0.5322 -0.6855  0.2093
 1000MOL0     H35000   9.629   4.089   5.631 -1.1149  0.6732  0.7521
 1001MOL0     O35001   6.381   6.115   2.679  0.2204 -0.6695  0.0738
 1001MOL0     C35002   6.428   6.203   2.607  1.0762  0.7278 -0.0558
 1001MOL0     O35003   6.361   6.316   2.562 -0.4078  0.0293 -0.0787
 1001MOL0     C35004   6.235   6.340   2.602 -0.9477 -0.2176  0.0532
 1001MOL0     C35005   6.194   6.334   2.733  0.2554  0.4374 -0.6049
 1001MOL0     C35006   6.063   6.362   2.759  0.2412 -0.5429 -0.3687
 1001MOL0     C35007   5.969   6.393   2.658  0.2913 -0.2472  0.1736
 1001MOL0     O35008   5.831   6.410   2.676 -0.5054  0.2226  0.1960
 1001MOL0     C35009   5.769   6.367   2.799 -0.2399 -0.5250  0.0373
 1001MOL0     C35010   5.617   6.369   2.767  0.8312 -0.8313  0.3496
 1001MOL0     C35011   5.531   6.311   2.889  0.0103 -0.1662  0.1355
 1001MOL0     C35012   5.382   6.320   2.867 -0.3382  0.3167  0.2814
 1001MOL0     C35013   5.321   6.225   2.770 -0.1680 -0.5678 -0.8075
 1001MOL0     C35014   5.347   6.076   2.823  0.0736 -0.4372  0.3303
 1001MOL0     C35015   5.301   5.968   2.733 -0.0721 -0.0599 -0.5917
 1001MOL0     C35016   5.403   5.940   2.621  0.2965  0.1552  0.8924
 1001MOL0     N35017   5.539   5.921   2.647  0.2675  0.2355 -0.1136
 1001MOL0     C35018   5.652   5.987   2.600  0.8392  0.7673 -0.0102
 1001MOL0     C35019   5.756   5.935   2.674 -0.1328 -1.0838 -0.4343
 1001MOL0     C35020   5.894   5.987   2.646 -0.2268  0.2332 -0.4366
 1001MOL0     C35021   5.972   5.887   2.559  0.1380  0.1032  0.4686
 1001MOL0     C35022   6.127   5.916   2.543  0.7423  0.6813 -0.5434
 1001MOL0     C35023   6.182   5.848   2.410  0.5167 -0.7785 -1.0634
 1001MOL0     O35024   6.133   5.710   2.408 -0.1726 -0.5727 -0.3844
 1001MOL0     C35025   6.127   5.641   2.283  1.1054  0.4930 -0.5365
 1001MOL0     C35026   6.131   5.695   2.158 -0.4239 -0.4662  1.6053
 1001MOL0     C35027   6.094   5.621   2.046 -0.7609  0.4724 -0.5437
 1001MOL0     C35028   6.082   5.476   2.056  0.0482 -0.3241 -0.4440
 1001MOL0     C35029   6.075   5.402   1.933 -0.7877 -0.7225 -0.2251
 1001MOL0     O35030   6.093   5.270   1.940 -0.0728  0.4732 -0.2415
 1001MOL0     C35031   6.089   5.191   1.829 -0.9433  0.3486  0.4961
 1001MOL0     C35032   5.966   5.133   1.793  0.0135  0.0461 -0.0221
 1001MOL0     C35033   5.953   5.086   1.666 -0.6586  0.7498 -0.1242
 1001MOL0     C35034   6.064   5.058   1.589  0.3299 -0.4375  0.0474
 1001MOL0     O35035   6.062   4.994   1.464  1.0103 -0.5886 -0.1751
 1001MOL0     C35036   6.108   4.858   1.472  0.5140  0.0753 -0.5168
 1001MOL0     C35037   6.176   4.817   1.346  0.8427  0.6940 -0.0258
 1001MOL0     C35038   6.314   4.881   1.321 -0.2871 -0.3357 -0.4108
 1001MOL0     C35039   6.381   4.811   1.201  0.2859 -0.6281  0.4204
 1001MOL0     C35040   6.533   4.820   1.209 -0.5052  0.0451  0.1693
 1001MOL0     C35041   6.584   4.770   1.074 -0.3219  0.7570 -0.3545
 1001MOL0     C35042   6.738   4.752   1.068  0.4054  0.7811  0.3912
 1001MOL0     C35043   6.794   4.701   0.926  0.0031  0.5428 -0.0003
 1001MOL0    Cl35044   6.751   4.530   0.870  0.0529  0.0518 -0.4154
 1001MOL0     C35045   6.189   5.107   1.625  0.8504 -0.0354  0.2376
 1001MOL0     C35046   6.200   5.184   1.745  0.1044  0.8282  0.1499
 1001MOL0     O35047   6.055   5.468   1.830 -0.0530 -1.5659 -0.1513
 1001MOL0     C35048   6.086   5.417   2.187  0.2313 -0.3110  0.1981
 1001MOL0     C35049   6.109   5.498   2.301 -0.8630 -0.7587 -0.1754
 1001MOL0     N35050   5.707   5.847   2.761  1.2727  0.4644 -0.5716
 1001MOL0     N35051   5.577   5.834   2.739  0.5228  0.5296  0.2106
 1001MOL0     C35052   6.010   6.403   2.528 -0.4407 -0.0335 -0.1006
 1001MOL0     C35053   6.146   6.367   2.498 -0.7486  0.3272  0.1323
 1001MOL0     C35054   6.567   6.191   2.558 -0.8046  1.5757  0.0645
 1001MOL0     C35055   6.605   6.067   2.505  0.0656 -0.5880 -0.9994
 1001MOL0     C35056   6.736   6.047   2.470 -0.0376 -1.1296 -0.8686
 1001MOL0     C35057   6.818   6.154   2.460 -0.1662  0.2635 -0.1275
 1001MOL0     O35058   6.953   6.139   2.425  0.0621 -0.3478  0.5035
 1001MOL0     C35059   7.026   6.020   2.441 -0.0602  0.3514 -0.2455
 1001MOL0     C35060   7.052   5.965   2.586 -1.0408 -0.5524 -0.3395
 1001MOL0     C35061   7.081   6.075   2.698 -0.5450 -0.0864 -1.0858
 1001MOL0     C35062   7.220   6.150   2.702 -0.7191  0.1000  0.2669
 1001MOL0     C35063   7.245   6.230   2.584  0.6896 -0.6304  0.8620
 1001MOL0     C35064   7.257   6.300   2.490  0.2131  0.6383 -1.4972
 1001MOL0     C35065   6.773   6.277   2.510 -0.6876 -0.0001  0.2247
 1001MOL0     C35066   6.652   6.298   2.553 -0.0420 -0.8351 -0.6059
 1001MOL0     C35067   6.634   6.419   2.633 -0.0102 -0.1800  0.5650
 1001MOL0     H35068   6.254   6.306   2.818 -4.3463 -0.2170  2.8272
 1001MOL0     H35069   6.024   6.347   2.859 -5.1396 -3.7043 -2.5046
 1001MOL0     H35070   5.809   6.269   2.826 -1.6784 -1.1512 -0.0079
 1001MOL0     H35071   5.794   6.435   2.881 -2.9195  0.6537 -0.0144
 1001MOL0     H35072   5.611   6.302   2.681 -0.3771  1.7065 -1.6941
 1001MOL0     H35073   5.587   6.471   2.738  3.1735 -0.5787 -1.4348
 1001MOL0     H35074   5.562   6.375   2.972  0.0486 -0.7685  0.6014
 1001MOL0     H35075   5.568   6.212   2.918 -1.8658 -0.9288  0.0820
 1001MOL0     H35076   5.329   6.305   2.962 -0.3715  0.7192  0.3280
 1001MOL0     H35077   5.356   6.414   2.818 -0.0518 -1.0652 -2.7489
 1001MOL0     H35078   5.216   6.247   2.750  0.2214  2.1051 -0.2609
 1001MOL0     H35079   5.383   6.234   2.680  2.9233 -1.1355  1.0928
 1001MOL0     H35080   5.450   6.063   2.857 -0.0780  1.4854  1.6918
 1001MOL0     H35081   5.291   6.078   2.917 -1.0546 -3.0826 -0.2192
 1001MOL0     H35082   5.207   5.988   2.681  0.5431  1.1829 -1.2670
 1001MOL0     H35083   5.288   5.881   2.799  1.9197  0.1420  0.1465
 1001MOL0     H35084   5.373   5.855   2.558  0.8491  0.3289  0.3886
 1001MOL0     H35085   5.400   6.026   2.554  0.2144 -1.3292 -1.1248
 1001MOL0     H35086   5.641   6.057   2.517 -3.0092 -0.7656 -1.0114
 1001MOL0     H35087   5.883   6.090   2.612 -3.1523  0.5516  1.1344
 1001MOL0     H35088   5.950   5.988   2.740 -3.0452 -0.0082  1.3776
 1001MOL0     H35089   5.968   5.789   2.607  0.5267  1.0524  2.5369
 1001MOL0     H35090   5.920   5.885   2.463  0.0930  1.0777  0.4617
 1001MOL0     H35091   6.174   5.876   2.634 -0.9111  2.6722  1.2994
 1001MOL0     H35092   6.138   6.025   2.539  1.2980  0.6627  0.2713
 1001MOL0     H35093   6.290   5.853   2.395  0.6147  1.2269  0.0398
 1001MOL0     H35094   6.134   5.911   2.334  4.4656  3.3726 -0.5369
 1001MOL0     H35095   6.159   5.800   2.158  0.2206 -0.5941 -0.4054
 1001MOL0     H35096   6.087   5.671   1.950  5.4166  1.2258 -1.0132
 1001MOL0     H35097   5.876   5.143   1.853  0.1552 -1.1547  0.4116
 1001MOL0     H35098   5.860   5.050   1.623 -0.6494  0.0225  0.4324
 1001MOL0     H35099   6.181   4.846   1.553  0.9202  2.4876 -0.4408
 1001MOL0     H35100   6.026   4.793   1.503  0.2109  1.2843  1.3497
 1001MOL0     H35101   6.191   4.709   1.341 -3.8293 -0.3374  2.3032
 1001MOL0     H35102   6.105   4.833   1.265 -1.4708 -3.1801  0.9814
 1001MOL0     H35103   6.284   4.984   1.300 -1.9741 -0.8703 -0.8070
 1001MOL0     H35104   6.376   4.885   1.411 -0.4794  3.8829 -0.2356
 1001MOL0     H35105   6.340   4.848   1.106 -1.0353  0.9404  1.5405
 1001MOL0     H35106   6.360   4.704   1.207 -1.3011 -0.2631  2.9035
 1001MOL0     H35107   6.567   4.768   1.299 -2.5745 -4.5991 -1.4396
 1001MOL0     H35108   6.561   4.926   1.211  0.8657 -0.2771 -0.5490
 1001MOL0     H35109   6.540   4.673   1.048 -0.4874  0.9617 -0.8468
 1001MOL0     H35110   6.562   4.841   0.994  2.4756  1.6026 -0.4833
 1001MOL0     H35111   6.765   4.681   1.147 -1.4774  0.3931  0.7212
 1001MOL0     H35112   6.788   4.845   1.095  2.3873 -0.0761 -0.1034
 1001MOL0     H35113   6.770   4.768   0.843 -3.0042  0.1300  0.4150
 1001MOL0     H35114   6.903   4.704   0.919 -0.0963  3.5715 -2.7690
 1001MOL0     H35115   6.284   5.107   1.571  1.4873 -2.5260  1.2370
 1001MOL0     H35116   6.295   5.230   1.768  1.6469 -0.8004 -2.4886
 1001MOL0     H35117   6.081   5.312   2.211  0.1459  0.1983  2.6591
 1001MOL0     H35118   6.112   5.449   2.398 -0.9905 -1.1380 -0.3610
 1001MOL0     H35119   5.942   6.419   2.445 -1.2786  1.5396  0.8503
 1001MOL0     H35120   6.184   6.374   2.396  2.6422 -0.2765  1.2193
 1001MOL0     H35121   6.539   5.982   2.493  1.1212 -1.9592  1.9634
 1001MOL0     H35122   6.776   5.949   2.447  1.9030 -0.4102 -0.8158
 1001MOL0     H35123   7.121   6.039   2.391 -1.4633  2.7314 -2.1929
 1001MOL0     H35124   6.983   5.939   2.381 -1.0188  0.2453  0.5613
 1001MOL0     H35125   7.138   5.901   2.567 -1.1711 -0.1659 -2.5187
 1001MOL0     H35126   6.984   5.882   2.608  0.8069 -4.0749 -5.7687
 1001MOL0     H35127   7.069   6.021   2.792 -1.7088  1.8610 -0.0603
 1001MOL0     H35128   6.999   6.148   2.697  1.0760  2.3544  4.2953
 1001MOL0     H35129   7.234   6.211   2.792  2.8536 -1.7449  1.1282
 1001MOL0     H35130   7.304   6.082   2.688 -0.9736 -0.1827  0.1032
 1001MOL0     H35131   7.265   6.368   2.407 -0.5860  1.8694 -0.5851
 1001MOL0     H35132   6.852   6.353   2.515  0.5332 -1.1312 -1.1309
 1001MOL0     H35133   6.648   6.500   2.561  0.7539 -2.3942 -1.9600
 1001MOL0     H35134   6.549   6.430   2.701 -1.3076  1.2419 -1.1951
 1001MOL0     H35135   6.719   6.419   2.702  2.2646  0.7524 -2.0763
 1002MOL0     O35136   7.396   6.965   5.450 -0.0889  0.6191  0.0126
 1002MOL0     C35137   7.430   6.846   5.483  0.3192 -0.4779 -0.1479
 1002MOL0     O35138   7.362   6.769   5.576  0.8571  0.6829 -0.5417
 1002MOL0     C35139   7.267   6.815   5.668  0.1763 -0.6505  0.4990
 1002MOL0     C35140   7.174   6.720   5.717  0.6565  0.5904  0.0028
 1002MOL0     C35141   7.068   6.760   5.807 -0.1496 -0.4085  0.0865
 1002MOL0     C35142   7.070   6.890   5.853 -0.5321  0.0469  0.7998
 1002MOL0     O35143   6.982   6.952   5.943 -0.1426 -0.0788  0.1124
 1002MOL0     C35144   6.912   6.860   6.034 -0.0263  0.1947 -0.1025
 1002MOL0     C35145   6.831   6.946   6.134 -0.4514  0.3078  0.7480
 1002MOL0     C35146   6.741   6.857   6.219 -0.5917 -0.5181  0.0826
 1002MOL0     C35147   6.663   6.955   6.307  0.7962 -0.3402 -0.4081
 1002MOL0     C35148   6.536   6.995   6.237 -0.3628 -0.4354 -0.3461
 1002MOL0     C35149   6.437   7.071   6.339 -0.3321  0.4239  0.2480
 1002MOL0     C35150   6.319   7.113   6.266 -0.3983  0.9609  1.5431
 1002MOL0     C35151   6.188   7.028   6.307 -0.0335  0.3085 -0.4216
 1002MOL0     N35152   6.132   7.047   6.439  0.9249  0.1321 -0.7798
 1002MOL0     C35153   6.072   7.160   6.495 -0.2263  0.4728 -0.5446
 1002MOL0     C35154   6.060   7.149   6.625  0.5514  0.1932 -0.7847
 1002MOL0     C35155   6.024   7.266   6.719 -0.0035 -0.4293  0.9457
 1002MOL0     C35156   5.890   7.231   6.785  0.2825 -0.1632  0.3252
 1002MOL0     C35157   5.909   7.186   6.930  0.0992 -0.0388  0.3649
 1002MOL0     C35158   5.782   7.148   6.993 -0.3139 -0.4503 -0.5925
 1002MOL0     O35159   5.808   7.117   7.135  0.1543  1.1165 -0.2229
 1002MOL0     C35160   5.707   7.140   7.220  0.3430  0.5884 -0.9367
 1002MOL0     C35161   5.737   7.168   7.352 -0.3052  0.2685  0.9084
 1002MOL0     C35162   5.635   7.205   7.442  0.1755  0.8042 -0.8848
 1002MOL0     C35163   5.502   7.184   7.420 -1.3709  0.5602  1.0495
 1002MOL0     C35164   5.414   7.191   7.537 -0.1928  0.2148  1.1055
 1002MOL0     O35165   5.472   7.246   7.650 -0.2078  1.3587 -0.3917
 1002MOL0     C35166   5.392   7.274   7.762 -0.0977 -0.7964  0.1821
 1002MOL0     C35167   5.466   7.348   7.861 -0.7332  0.1033  0.2898
 1002MOL0     C35168   5.418   7.356   7.989 -0.3336  0.0730  0.5858
 1002MOL0     C35169   5.300   7.291   8.033  0.0362 -0.0110  0.2646
 1002MOL0     O35170   5.273   7.289   8.169  0.0500 -0.7451  0.3057
 1002MOL0     C35171   5.138   7.319   8.197  0.1984 -0.4453 -0.4774
 1002MOL0     C35172   5.131   7.346   8.344  0.0808 -0.7272  1.1970
 1002MOL0     C35173   5.005   7.394   8.410  0.0180 -0.1466  0.0296
 1002MOL0     C35174   4.967   7.543   8.359  0.4789  0.7181  0.2592
 1002MOL0     C35175   4.854   7.594   8.447 -0.0821 -0.3732 -0.1449
 1002MOL0     C35176   4.808   7.735   8.402 -0.8170 -0.1174 -0.7102
 1002MOL0     C35177   4.668   7.758   8.450  0.1501 -0.3501 -0.0724
 1002MOL0     C35178   4.635   7.907   8.453 -0.2179  0.6324  0.5019
 1002MOL0    Cl35179   4.618   7.970   8.287  0.1982 -0.3152  0.1781
 1002MOL0     C35180   5.221   7.225   7.931 -0.3164 -0.2446  0.1063
 1002MOL0     C35181   5.276   7.210   7.799 -0.1409 -0.7628 -0.5342
 1002MOL0     O35182   5.298   7.163   7.513 -0.5555  0.0284  0.5749
 1002MOL0     C35183   5.463   7.158   7.284 -0.0425  1.0313 -0.3761
 1002MOL0     C35184   5.568   7.133   7.192 -0.3779  0.6883 -0.5322
 1002MOL0     N35185   6.109   7.027   6.657 -0.4197 -0.0397 -0.4861
 1002MOL0     N35186   6.140   6.965   6.545 -0.3993 -0.9557 -0.0635
 1002MOL0     C35187   7.163   6.978   5.811 -0.4562 -0.2574  1.2630
 1002MOL0     C35188   7.255   6.946   5.714 -0.3594 -0.1739 -0.6052
 1002MOL0     C35189   7.545   6.786   5.410  0.5727  0.5107 -0.7350
 1002MOL0     C35190   7.657   6.864   5.393 -0.5517  0.9158 -0.3256
 1002MOL0     C35191   7.785   6.814   5.348  0.4018 -0.0360  1.1881
 1002MOL0     C35192   7.797   6.678   5.321 -0.2498  1.5829 -0.6330
 1002MOL0     O35193   7.919   6.612   5.303  0.3175  0.6836  0.0185
 1002MOL0     C35194   8.037   6.690   5.263  0.0618  0.9721  0.5194
 1002MOL0     C35195   8.156   6.608   5.245  0.8145  0.8001  0.1461
 1002MOL0     C35196   8.146   6.490   5.141  0.0921 -0.4587 -1.3946
 1002MOL0     C35197   8.290   6.457   5.094 -0.0834  0.4110  0.2577
 1002MOL0     C35198   8.369   6.399   5.195  0.8200  0.6426  0.1231
 1002MOL0     C35199   8.431   6.367   5.296 -0.6668  0.3551 -0.4297
 1002MOL0     C35200   7.677   6.592   5.328 -0.7792  0.2800  0.4327
 1002MOL0     C35201   7.557   6.647   5.378  0.9449  0.0863 -0.1383
 1002MOL0     C35202   7.448   6.542   5.399 -0.5476  0.8460  0.1907
 1002MOL0     H35203   7.168   6.617   5.684 -1.2818  0.0425  1.8149
 1002MOL0     H35204   6.999   6.691   5.854  0.1770  1.1009  3.0003
 1002MOL0     H35205   6.846   6.789   5.984  3.5343 -4.0364  0.5611
 1002MOL0     H35206   6.977   6.800   6.099 -0.4632 -0.3048 -0.1145
 1002MOL0     H35207   6.780   7.017   6.067 -0.3848  0.2274  0.6122
 1002MOL0     H35208   6.903   7.006   6.190  0.2795 -0.6256  0.8274
 1002MOL0     H35209   6.810   6.799   6.282  1.1115  1.4753  0.1605
 1002MOL0     H35210   6.669   6.796   6.163 -2.6039  1.2484  0.6448
 1002MOL0     H35211   6.636   6.905   6.401 -0.9576 -0.8147 -1.1100
 1002MOL0     H35212   6.716   7.049   6.325  4.6821 -2.7538  2.2935
 1002MOL0     H35213   6.550   7.065   6.154 -0.3206 -0.3343 -0.2536
 1002MOL0     H35214   6.489   6.902   6.203 -0.6681 -0.8231  1.0708
 1002MOL0     H35215   6.405   7.015   6.427 -0.2643 -1.3188 -0.7898
 1002MOL0     H35216   6.486   7.163   6.373  5.0211 -1.4526 -1.3845
 1002MOL0     H35217   6.333   7.102   6.158 -3.5545  1.0021  1.0293
 1002MOL0     H35218   6.295   7.220   6.265 -1.2779  0.8101 -1.1982
 1002MOL0     H35219   6.114   7.064   6.235  0.1740  0.7175 -0.4378
 1002MOL0     H35220   6.209   6.921   6.304  0.6918  0.3246  2.0531
 1002MOL0     H35221   6.040   7.258   6.459 -0.4971  0.3205 -0.7248
 1002MOL0     H35222   6.095   7.284   6.801 -0.4625 -0.1543  1.2891
 1002MOL0     H35223   6.003   7.358   6.664  3.9793 -0.6915 -1.4170
 1002MOL0     H35224   5.827   7.320   6.783 -1.8629 -1.6123 -0.9930
 1002MOL0     H35225   5.828   7.160   6.728 -0.9481  0.3916  0.9334
 1002MOL0     H35226   5.950   7.268   6.989 -1.0086  0.2690  0.7404
 1002MOL0     H35227   5.975   7.099   6.929  0.9156  0.4713 -2.8456
 1002MOL0     H35228   5.745   7.062   6.937 -2.7697 -0.4173  0.8413
 1002MOL0     H35229   5.706   7.225   6.980 -1.1430 -1.3376 -1.1159
 1002MOL0     H35230   5.841   7.173   7.384 -0.4209 -0.4110  1.4026
 1002MOL0     H35231   5.668   7.244   7.538  1.6755 -0.9483 -0.6228
 1002MOL0     H35232   5.561   7.391   7.832 -0.4818 -0.6383 -0.0137
 1002MOL0     H35233   5.480   7.401   8.065 -0.7816  0.8326  0.5109
 1002MOL0     H35234   5.111   7.414   8.151 -2.6426 -1.0253 -0.1407
 1002MOL0     H35235   5.070   7.238   8.170  0.4840 -3.0980  5.2662
 1002MOL0     H35236   5.153   7.245   8.382 -0.1272 -0.2586  2.6326
 1002MOL0     H35237   5.216   7.412   8.362 -3.1134  4.4925 -0.5903
 1002MOL0     H35238   4.930   7.320   8.379  2.1419 -1.0777 -3.4017
 1002MOL0     H35239   5.020   7.393   8.518  1.4517  0.4970 -0.1406
 1002MOL0     H35240   4.936   7.536   8.255 -2.7931 -1.3335  1.2513
 1002MOL0     H35241   5.050   7.615   8.350  0.1945  0.8423 -1.6828
 1002MOL0     H35242   4.876   7.583   8.554 -3.1262 -1.3605  0.4639
 1002MOL0     H35243   4.771   7.525   8.428  0.9788 -2.0964  1.1279
 1002MOL0     H35244   4.872   7.811   8.450 -3.1892  0.8341  1.1346
 1002MOL0     H35245   4.833   7.750   8.297  2.2193  0.3292 -0.0294
 1002MOL0     H35246   4.677   7.735   8.557  2.9841  1.3288  0.1285
 1002MOL0     H35247   4.596   7.698   8.393 -2.5201  2.2295  0.3708
 1002MOL0     H35248   4.535   7.922   8.495 -1.5638  3.2780 -3.0965
 1002MOL0     H35249   4.698   7.962   8.524  1.8427 -2.3210  1.1032
 1002MOL0     H35250   5.130   7.169   7.952 -0.1482 -0.1657  1.0850
 1002MOL0     H35251   5.224   7.142   7.733 -0.3797 -2.6160  1.4483
 1002MOL0     H35252   5.357   7.146   7.262  0.0349 -2.4162  0.4607
 1002MOL0     H35253   5.544   7.115   7.088 -1.4557 -3.3603  0.2482
 1002MOL0     H35254   7.147   7.083   5.833 -2.0251 -0.3402  0.6463
 1002MOL0     H35255   7.310   7.024   5.663 -0.5230  0.8465  0.7514
 1002MOL0     H35256   7.638   6.964   5.429 -3.5037  0.6535 -0.8824
 1002MOL0     H35257   7.866   6.885   5.332 -1.6866  1.8495 -2.0579
 1002MOL0     H35258   8.058   6.768   5.337  0.8792  0.0331  1.3103
 1002MOL0     H35259   8.019   6.733   5.164  0.1600 -1.8292 -0.8177
 1002MOL0     H35260   8.186   6.560   5.339 -2.0327 -0.8816  0.2909
 1002MOL0     H35261   8.245   6.667   5.220  3.6733 -2.3964  1.9719
 1002MOL0     H35262   8.086   6.545   5.068 -2.0648 -0.0335  0.6190
 1002MOL0     H35263   8.083   6.405   5.168 -2.8777  1.3829 -2.0640
 1002MOL0     H35264   8.278   6.387   5.011 -1.6591  2.6593 -1.5365
 1002MOL0     H35265   8.338   6.547   5.056  1.0229  1.1521  3.1404
 1002MOL0     H35266   8.492   6.336   5.378  0.3113  1.2076 -0.8085
 1002MOL0     H35267   7.692   6.486   5.314 -1.0359  0.1140  1.3557
 1002MOL0     H35268   7.459   6.452   5.338  3.1075 -0.0463  1.8821
 1002MOL0     H35269   7.459   6.503   5.501  0.2855 -5.3400 -1.8346
 1002MOL0     H35270   7.359   6.598   5.371  0.7967  1.5951 -3.1075
 1003MOL0     O35271   5.351   9.293   1.365 -0.1120 -0.4108  0.5554
 1003MOL0     C35272   5.344   9.401   1.306 -0.2390 -1.4375 -0.2818
 1003MOL0     O35273   5.308   9.426   1.176 -0.4483 -0.0675  0.2971
 1003MOL0     C35274   5.224   9.337   1.112 -0.3409 -0.3753 -0.7291
 1003MOL0     C35275   5.175   9.218   1.153 -0.1009 -0.6830 -0.5796
 1003MOL0     C35276   5.129   9.131   1.061  0.6484 -0.5915  0.0599
 1003MOL0     C35277   5.126   9.163   0.923  0.1654  0.6400 -0.7964
 1003MOL0     O35278   5.072   9.067   0.835 -0.8730 -0.2570 -0.3360
 1003MOL0     C35279   5.169   8.961   0.809 -0.6445  0.1598  0.3487
 1003MOL0     C35280   5.092   8.859   0.726 -0.0945 -0.0269 -0.7195
 1003MOL0     C35281   5.179   8.729   0.710  0.0173  1.0481 -0.3843
 1003MOL0     C35282   5.299   8.753   0.611  0.5453 -0.7938  0.3573
 1003MOL0     C35283   5.377   8.622   0.586 -0.4751  0.1427  0.4182
 1003MOL0     C35284   5.459   8.583   0.714 -0.0115 -0.5184  0.3524
 1003MOL0     C35285   5.515   8.438   0.696 -0.2143  0.3594 -1.0059
 1003MOL0     C35286   5.602   8.423   0.569  0.1053  1.4684  0.8270
 1003MOL0     N35287   5.717   8.346   0.608 -0.8723 -0.0449  0.3651
 1003MOL0     C35288   5.705   8.217   0.615 -0.4906 -0.3224  0.5689
 1003MOL0     C35289   5.833   8.179   0.596  1.4619  0.8721 -1.2110
 1003MOL0     C35290   5.885   8.038   0.602 -0.0204 -1.0951 -0.0833
 1003MOL0     C35291   5.900   8.003   0.744 -0.0806 -0.1913  0.4295
 1003MOL0     C35292   5.995   7.878   0.747  0.6165 -0.5172 -0.5203
 1003MOL0     C35293   6.027   7.837   0.901  0.2695 -0.0800  0.4230
 1003MOL0     O35294   6.137   7.748   0.893 -0.7353  0.4701  0.0284
 1003MOL0     C35295   6.184   7.680   1.009 -0.3831  0.8279  0.2071
 1003MOL0     C35296   6.184   7.741   1.131 -0.1498 -0.5935 -0.1864
 1003MOL0     C35297   6.220   7.675   1.241 -0.2667  0.2522  0.0083
 1003MOL0     C35298   6.257   7.541   1.233  0.2527 -0.4627 -0.1747
 1003MOL0     C35299   6.256   7.454   1.350 -0.1825  1.3850 -0.3899
 1003MOL0     O35300   6.315   7.331   1.329  0.7473  0.5534  0.0640
 1003MOL0     C35301   6.310   7.240   1.431 -0.8608  0.3028  0.2168
 1003MOL0     C35302   6.420   7.219   1.512  0.9539  0.0995 -0.3459
 1003MOL0     C35303   6.415   7.136   1.620  0.0662  0.1050  0.3893
 1003MOL0     C35304   6.310   7.047   1.637  0.2099 -1.0021  0.4618
 1003MOL0     O35305   6.290   6.962   1.744  0.4285  0.3618  0.4596
 1003MOL0     C35306   6.391   6.952   1.845 -0.3209  0.0755  0.9078
 1003MOL0     C35307   6.384   6.825   1.932 -0.5052  0.0449 -0.0379
 1003MOL0     C35308   6.268   6.820   2.032 -0.1708 -0.1694 -0.1147
 1003MOL0     C35309   6.271   6.933   2.132 -0.5568  0.4662  0.2056
 1003MOL0     C35310   6.139   6.970   2.199  0.1888  0.4453  0.2440
 1003MOL0     C35311   6.029   7.018   2.097  0.2104 -0.4985  0.5554
 1003MOL0     C35312   6.071   7.150   2.012 -0.3189  0.5455 -0.4286
 1003MOL0     C35313   5.953   7.203   1.930  1.2568 -0.8395  0.5408
 1003MOL0    Cl35314   5.841   7.253   2.050  0.4253  0.0603 -0.0783
 1003MOL0     C35315   6.198   7.069   1.550 -0.3099  0.5115  0.1702
 1003MOL0     C35316   6.199   7.168   1.452 -0.4786  0.0859 -1.4210
 1003MOL0     O35317   6.211   7.494   1.459 -0.3180 -0.2193  0.3244
 1003MOL0     C35318   6.261   7.474   1.108 -0.4992  0.1989  0.1404
 1003MOL0     C35319   6.247   7.551   0.996 -0.7312  0.1543 -0.3508
 1003MOL0     N35320   5.926   8.284   0.597  0.4247  0.1458  0.2318
 1003MOL0     N35321   5.847   8.382   0.609  0.5770  0.2874  0.3333
 1003MOL0     C35322   5.160   9.288   0.889  0.3900 -0.1075 -1.1451
 1003MOL0     C35323   5.218   9.374   0.987  0.2716 -0.0275  0.1292
 1003MOL0     C35324   5.381   9.519   1.393  0.0322 -0.0099 -0.3317
 1003MOL0     C35325   5.290   9.626   1.405 -1.8095  0.1262  0.2958
 1003MOL0     C35326   5.331   9.749   1.450 -0.7595 -0.8199 -0.7671
 1003MOL0     C35327   5.454   9.781   1.506  0.3542 -0.3240 -0.7430
 1003MOL0     O35328   5.498   9.893   1.568  0.6866  0.3815 -0.2727
 1003MOL0     C35329   5.434  10.015   1.518  0.0707  1.1207  0.0252
 1003MOL0     C35330   5.514  10.054   1.393  0.2925  0.1431  0.3710
 1003MOL0     C35331   5.659  10.086   1.426 -0.5854 -0.1788 -0.3004
 1003MOL0     C35332   5.691  10.199   1.521  0.3437 -0.1862 -0.2384
 1003MOL0     C35333   5.839  10.221   1.550 -0.2577  0.2217 -0.7011
 1003MOL0     C35334   5.955  10.217   1.595 -0.0070 -0.6099  0.0933
 1003MOL0     C35335   5.539   9.665   1.520  0.2160  0.8655  0.0246
 1003MOL0     C35336   5.514   9.539   1.458  0.2658  0.1482 -0.2492
 1003MOL0     C35337   5.624   9.432   1.457  0.0033 -0.6614 -0.8874
 1003MOL0     H35338   5.177   9.193   1.258 -0.1147 -1.3655 -0.7368
 1003MOL0     H35339   5.107   9.029   1.093 -0.9922  0.4881  2.7044
 1003MOL0     H35340   5.255   8.998   0.754  1.9557 -2.9501  1.9337
 1003MOL0     H35341   5.196   8.907   0.901  0.1064  2.3566  1.4892
 1003MOL0     H35342   5.043   8.886   0.632 -0.4050 -1.7891 -1.1041
 1003MOL0     H35343   5.005   8.827   0.784 -0.2335 -0.5863 -1.2269
 1003MOL0     H35344   5.140   8.639   0.663  0.4571  1.2786 -1.2146
 1003MOL0     H35345   5.222   8.708   0.808  0.0144  0.4234 -0.5128
 1003MOL0     H35346   5.247   8.778   0.518  2.7422  2.9066 -0.0866
 1003MOL0     H35347   5.364   8.829   0.655 -1.6774 -0.5036  3.5145
 1003MOL0     H35348   5.313   8.540   0.551  1.5015 -0.2028 -2.8337
 1003MOL0     H35349   5.445   8.637   0.501 -2.9586  4.7502 -1.0782
 1003MOL0     H35350   5.539   8.657   0.723  1.0859 -1.6498  0.2121
 1003MOL0     H35351   5.410   8.571   0.811 -1.6487  1.0565 -0.2319
 1003MOL0     H35352   5.441   8.360   0.717  3.5085 -2.6572  2.7286
 1003MOL0     H35353   5.582   8.432   0.782 -3.0237 -1.7416  1.2671
 1003MOL0     H35354   5.549   8.370   0.490  1.5493  1.0009  0.1520
 1003MOL0     H35355   5.636   8.519   0.532  0.8072  0.3447 -1.6141
 1003MOL0     H35356   5.620   8.150   0.606  0.2408 -1.3641  1.2042
 1003MOL0     H35357   5.815   7.972   0.549 -3.6247  2.8529 -0.8209
 1003MOL0     H35358   5.986   8.036   0.560 -0.3941  2.2397 -1.4067
 1003MOL0     H35359   5.953   8.082   0.798 -3.4375  2.9783 -0.4773
 1003MOL0     H35360   5.803   7.984   0.790 -0.1578  1.5025  1.0630
 1003MOL0     H35361   6.086   7.910   0.696  2.1838 -1.7154  1.3769
 1003MOL0     H35362   5.940   7.790   0.712 -2.7465 -0.5523  4.0110
 1003MOL0     H35363   5.948   7.782   0.951  1.3894 -2.1537  0.0158
 1003MOL0     H35364   6.053   7.929   0.955  1.5419 -1.3206  2.0041
 1003MOL0     H35365   6.140   7.840   1.137  1.2604  0.2843 -2.8904
 1003MOL0     H35366   6.204   7.717   1.340  0.8739 -0.4516  0.5065
 1003MOL0     H35367   6.521   7.256   1.495  1.4190 -0.4695  1.0149
 1003MOL0     H35368   6.504   7.138   1.682  0.0900 -0.0548  0.3614
 1003MOL0     H35369   6.491   6.940   1.803 -1.0944 -2.2706 -0.4763
 1003MOL0     H35370   6.383   7.039   1.911 -2.3409  0.8888 -0.3052
 1003MOL0     H35371   6.388   6.738   1.866  0.8941  1.6808 -2.2514
 1003MOL0     H35372   6.470   6.820   1.999  0.4752  2.6832 -0.9924
 1003MOL0     H35373   6.172   6.824   1.980 -0.7800 -0.3636  0.9664
 1003MOL0     H35374   6.267   6.726   2.089 -0.5547  0.3009  0.6818
 1003MOL0     H35375   6.322   7.025   2.102  2.2557 -1.3273 -0.9170
 1003MOL0     H35376   6.340   6.893   2.206  1.4374  1.3406 -1.1119
 1003MOL0     H35377   6.155   7.045   2.277  0.5521  0.9707 -0.3313
 1003MOL0     H35378   6.107   6.886   2.261  1.3842 -1.0738 -1.1141
 1003MOL0     H35379   5.991   6.943   2.027  1.0971 -2.1689  1.7820
 1003MOL0     H35380   5.938   7.032   2.155  0.0097 -0.0511  0.1418
 1003MOL0     H35381   6.142   7.110   1.939  1.3134 -1.4060  2.0660
 1003MOL0     H35382   6.117   7.226   2.076  2.5475  1.7835 -3.6666
 1003MOL0     H35383   5.985   7.288   1.868 -0.5605 -1.2324 -1.0372
 1003MOL0     H35384   5.914   7.132   1.856  0.9534  0.3030 -0.4337
 1003MOL0     H35385   6.109   7.007   1.560 -0.6904  0.5113 -2.5447
 1003MOL0     H35386   6.110   7.181   1.391 -1.9519 -0.1487  0.5703
 1003MOL0     H35387   6.267   7.366   1.098 -1.9231  0.2083 -1.3115
 1003MOL0     H35388   6.253   7.509   0.896 -2.0264 -2.8592  0.7332
 1003MOL0     H35389   5.176   9.310   0.784 -2.4365  3.9563 -0.9354
 1003MOL0     H35390   5.272   9.458   0.946 -0.3080 -0.7403 -2.2452
 1003MOL0     H35391   5.192   9.606   1.362 -4.0895 -0.0820  4.9008
 1003MOL0     H35392   5.254   9.824   1.438  1.9456  2.7280  1.5758
 1003MOL0     H35393   5.427  10.091   1.596 -1.5190  0.2735  0.7685
 1003MOL0     H35394   5.328  10.007   1.491 -0.3858  0.6489  1.8368
 1003MOL0     H35395   5.469  10.149   1.361 -2.8546 -1.4132 -0.2179
 1003MOL0     H35396   5.520   9.981   1.313  2.2227  0.1246  0.4984
 1003MOL0     H35397   5.702  10.110   1.328  3.1797 -0.5258  1.0954
 1003MOL0     H35398   5.716   9.994   1.444  1.4975  0.9133 -0.9433
 1003MOL0     H35399   5.645  10.292   1.487  0.3699 -0.3875 -0.8341
 1003MOL0     H35400   5.650  10.175   1.620 -3.0537  1.4305 -1.1030
 1003MOL0     H35401   6.054  10.210   1.635  0.4040  0.2170 -0.7256
 1003MOL0     H35402   5.627   9.669   1.583  0.2756  1.8392 -0.1025
 1003MOL0     H35403   5.680   9.428   1.551 -0.8859  0.6704 -0.2730
 1003MOL0     H35404   5.591   9.330   1.435  0.7050 -1.0148 -0.3428
 1003MOL0     H35405   5.691   9.453   1.373 -0.3894 -0.1925 -1.0854
 1004MOL0     O35406   5.811   1.429  10.386 -0.2693 -1.4746  0.4453
 1004MOL0     C35407   5.730   1.505  10.335 -0.1679  0.0315  0.2226
 1004MOL0     O35408   5.759   1.600  10.241  0.4399  0.0571  0.2137
 1004MOL0     C35409   5.859   1.690  10.271 -0.0240  0.3051  0.2865
 1004MOL0     C35410   5.903   1.771  10.165 -0.4575 -0.3270  0.1812
 1004MOL0     C35411   6.003   1.866  10.195  0.6116 -0.0226 -0.3106
 1004MOL0     C35412   6.058   1.894  10.320  0.3976  0.4396  0.8348
 1004MOL0     O35413   6.155   1.985  10.337  0.4730  0.3085  0.1808
 1004MOL0     C35414   6.280   1.938  10.392 -0.3289 -0.7655  0.3284
 1004MOL0     C35415   6.397   1.961  10.306 -0.8614 -0.3384  0.9806
 1004MOL0     C35416   6.439   2.105  10.310 -0.3253 -0.2508  0.1914
 1004MOL0     C35417   6.536   2.136  10.198 -0.4904 -0.1780 -1.1793
 1004MOL0     C35418   6.586   2.274  10.201 -0.5192 -0.0365  0.0361
 1004MOL0     C35419   6.493   2.372  10.122 -0.2298 -0.0810  0.3988
 1004MOL0     C35420   6.548   2.510  10.123 -0.4133  0.5721  1.6275
 1004MOL0     C35421   6.485   2.594  10.006  0.4775  0.2270 -0.5234
 1004MOL0     N35422   6.551   2.723   9.993 -0.2221  0.2327  0.0576
 1004MOL0     C35423   6.688   2.742   9.965  0.5263  0.4160 -0.1792
 1004MOL0     C35424   6.706   2.869   9.982 -0.3861 -0.5664 -0.1365
 1004MOL0     C35425   6.834   2.940   9.947 -0.7885  0.0111 -0.0132
 1004MOL0     C35426   6.813   3.040   9.833  0.6658  0.0981 -0.0589
 1004MOL0     C35427   6.936   3.120   9.815  0.0555 -0.4103 -0.4758
 1004MOL0     C35428   6.946   3.227   9.928 -0.0547 -0.5137 -0.5782
 1004MOL0     O35429   7.032   3.323   9.881  0.0558 -0.4063  0.0616
 1004MOL0     C35430   7.025   3.442   9.954  0.4336 -0.5222 -0.1244
 1004MOL0     C35431   7.040   3.563   9.891 -0.6157 -0.4136 -0.6093
 1004MOL0     C35432   7.055   3.682   9.959 -0.8362  0.8455  0.6135
 1004MOL0     C35433   7.043   3.678  10.099 -0.2778  0.1497  0.9011
 1004MOL0     C35434   7.053   3.803  10.171  0.5625 -0.5206  0.1976
 1004MOL0     O35435   6.979   3.809  10.292 -0.2951  1.0499 -0.1763
 1004MOL0     C35436   6.986   3.915  10.375 -0.8232  0.2110 -0.8154
 1004MOL0     C35437   7.097   3.994  10.395 -1.0994 -0.9138 -0.2238
 1004MOL0     C35438   7.092   4.093  10.494 -0.3207  0.0352 -1.0290
 1004MOL0     C35439   6.983   4.120  10.567  0.7060 -0.2375 -1.2312
 1004MOL0     O35440   6.988   4.216  10.665 -0.1841  1.3677  0.3776
 1004MOL0     C35441   6.873   4.271  10.722  0.7062  0.4970  0.4944
 1004MOL0     C35442   6.918   4.389  10.827  0.2509  0.2075 -0.7224
 1004MOL0     C35443   6.827   4.377  10.940 -0.3399 -0.8327 -0.1621
 1004MOL0     C35444   6.830   4.497  11.031 -0.5179  0.2547  0.4281
 1004MOL0     C35445   6.733   4.473  11.150  1.0201  0.4785 -0.3788
 1004MOL0     C35446   6.730   4.594  11.242 -0.1756 -0.2898 -0.1129
 1004MOL0     C35447   6.655   4.714  11.179 -0.3684 -0.0533 -0.2932
 1004MOL0     C35448   6.543   4.774  11.274 -0.1004  0.0663  0.1283
 1004MOL0    Cl35449   6.439   4.659  11.355 -0.0599 -0.3904 -0.1697
 1004MOL0     C35450   6.877   4.036  10.543  0.1720 -1.1692 -0.0367
 1004MOL0     C35451   6.876   3.939  10.448  0.3014 -0.6383 -0.4810
 1004MOL0     O35452   7.130   3.889  10.117 -0.2062 -0.2322 -0.4726
 1004MOL0     C35453   6.994   3.571  10.160  0.4420  0.3636 -0.1208
 1004MOL0     C35454   7.002   3.451  10.090 -1.0412  0.3421  0.0063
 1004MOL0     N35455   6.595   2.929  10.032  0.2143 -0.4742  0.1192
 1004MOL0     N35456   6.509   2.839  10.046 -0.0079 -0.8719  1.1602
 1004MOL0     C35457   6.016   1.807  10.423 -0.0066  0.5160  0.8278
 1004MOL0     C35458   5.917   1.716  10.401  0.0172  1.1344  0.4452
 1004MOL0     C35459   5.598   1.519  10.404 -0.2769  0.5732  0.1041
 1004MOL0     C35460   5.592   1.486  10.544  0.1546  0.4314  0.0520
 1004MOL0     C35461   5.474   1.490  10.609 -0.7772  0.1890  0.4153
 1004MOL0     C35462   5.360   1.537  10.547 -0.2595 -0.5754 -1.0406
 1004MOL0     O35463   5.246   1.530  10.618 -0.6235 -0.3535 -0.3116
 1004MOL0     C35464   5.188   1.656  10.649  0.4835 -0.0480  0.8010
 1004MOL0     C35465   5.123   1.660  10.789 -0.3939  0.1231 -0.5720
 1004MOL0     C35466   5.101   1.811  10.823 -0.7697 -0.3919 -0.0437
 1004MOL0     C35467   4.972   1.869  10.759 -0.7657  0.1504  0.3220
 1004MOL0     C35468   4.977   2.019  10.769  0.2503 -0.8298  0.5722
 1004MOL0     C35469   4.980   2.138  10.791 -0.4091 -0.9688 -0.1010
 1004MOL0     C35470   5.367   1.585  10.418  0.3497 -0.5119 -0.3051
 1004MOL0     C35471   5.482   1.566  10.341  0.0998 -0.1878  0.3733
 1004MOL0     C35472   5.471   1.605  10.196 -0.4327  1.1785  0.7319
 1004MOL0     H35473   5.869   1.774  10.062 -0.5808  0.7949  0.2422
 1004MOL0     H35474   6.047   1.923  10.114  1.9219  1.1654  1.1815
 1004MOL0     H35475   6.312   2.003  10.474 -1.5340 -1.1272  1.1079
 1004MOL0     H35476   6.275   1.834  10.425  0.9414 -0.7838  0.4846
 1004MOL0     H35477   6.387   1.921  10.205  4.7199  1.3995 -0.6441
 1004MOL0     H35478   6.475   1.912  10.366 -2.4619  0.2692  3.7365
 1004MOL0     H35479   6.489   2.124  10.406  3.2626  3.2442 -2.0530
 1004MOL0     H35480   6.344   2.158  10.304  0.3627  1.0483  0.4625
 1004MOL0     H35481   6.627   2.077  10.211  0.1911  1.0986  0.0320
 1004MOL0     H35482   6.486   2.118  10.102 -0.4353  2.7529 -1.8513
 1004MOL0     H35483   6.598   2.306  10.305  0.4903 -1.3536  0.3562
 1004MOL0     H35484   6.692   2.286  10.179  0.1071  1.3226  3.2351
 1004MOL0     H35485   6.489   2.337  10.018  3.7900  2.9493 -1.0383
 1004MOL0     H35486   6.390   2.374  10.159 -0.7136 -0.0151 -0.8880
 1004MOL0     H35487   6.653   2.504  10.092 -0.7337  1.5863  0.2733
 1004MOL0     H35488   6.557   2.562  10.218  0.6530  3.4390  0.0718
 1004MOL0     H35489   6.492   2.547   9.907  2.4645  1.2381 -0.9198
 1004MOL0     H35490   6.382   2.619  10.032  0.0871 -1.5272 -0.2628
 1004MOL0     H35491   6.758   2.667   9.930 -1.6106 -1.4123 -0.7720
 1004MOL0     H35492   6.877   2.984  10.038 -1.8259  0.2649  0.3715
 1004MOL0     H35493   6.909   2.870   9.910 -0.1603  2.1359 -3.2208
 1004MOL0     H35494   6.798   2.987   9.738 -1.2611 -0.0464  0.2850
 1004MOL0     H35495   6.721   3.095   9.857  0.1173 -1.7779  2.6254
 1004MOL0     H35496   6.926   3.171   9.718  0.1594 -0.1555 -0.3523
 1004MOL0     H35497   7.030   3.065   9.826  0.4737  0.3445 -0.2042
 1004MOL0     H35498   6.979   3.162  10.009  0.6713 -0.8967 -1.1713
 1004MOL0     H35499   6.847   3.272   9.944  0.8089  1.3606 -0.2297
 1004MOL0     H35500   7.044   3.552   9.783  0.8784 -1.7666 -0.4630
 1004MOL0     H35501   7.077   3.774   9.906 -3.1809  1.5052  0.6880
 1004MOL0     H35502   7.194   3.969  10.353 -1.7534 -1.0619 -1.7078
 1004MOL0     H35503   7.185   4.141  10.522  0.4460 -2.2257  0.6350
 1004MOL0     H35504   6.815   4.317  10.641 -1.0202  1.0820  1.9821
 1004MOL0     H35505   6.811   4.197  10.773 -1.7112  0.5203 -2.1369
 1004MOL0     H35506   7.008   4.347  10.873 -0.1760  0.2619  0.1748
 1004MOL0     H35507   6.931   4.488  10.782  0.5317  0.8151  0.6738
 1004MOL0     H35508   6.721   4.373  10.915 -2.5991  4.9286  5.4960
 1004MOL0     H35509   6.865   4.296  11.003  1.8792 -0.1181 -0.4918
 1004MOL0     H35510   6.792   4.573  10.962  0.4751 -0.8948 -1.4756
 1004MOL0     H35511   6.932   4.527  11.054 -1.6278  2.1004  3.6005
 1004MOL0     H35512   6.779   4.395  11.211  1.0115  0.0084 -0.9654
 1004MOL0     H35513   6.635   4.440  11.114  0.9819  0.5006 -0.2951
 1004MOL0     H35514   6.678   4.566  11.334  1.0209  2.5699  1.5244
 1004MOL0     H35515   6.831   4.618  11.276 -1.5561  2.6176  2.3411
 1004MOL0     H35516   6.608   4.689  11.083  1.1729  3.4577 -2.1523
 1004MOL0     H35517   6.717   4.797  11.145 -2.0364  1.8021  0.9405
 1004MOL0     H35518   6.584   4.844  11.347  2.5075 -2.4449  1.2775
 1004MOL0     H35519   6.476   4.829  11.207  2.2519 -0.4815 -2.9332
 1004MOL0     H35520   6.786   4.057  10.598  2.1275  1.1542  2.6045
 1004MOL0     H35521   6.786   3.879  10.436 -0.7126  0.8905 -0.9437
 1004MOL0     H35522   6.953   3.569  10.261 -0.3696  3.3742 -0.3101
 1004MOL0     H35523   6.973   3.360  10.141 -4.5589  1.2570 -0.0375
 1004MOL0     H35524   6.065   1.814  10.520  0.2683  2.7863  0.5762
 1004MOL0     H35525   5.892   1.662  10.491 -0.6235  0.1791 -0.2911
 1004MOL0     H35526   5.677   1.443  10.596 -1.1227 -1.3937  0.7474
 1004MOL0     H35527   5.480   1.462  10.714 -1.3136 -1.1647  0.1092
 1004MOL0     H35528   5.113   1.675  10.571 -0.3852  0.5282  1.7433
 1004MOL0     H35529   5.265   1.733  10.637  1.2059 -0.6946  1.2009
 1004MOL0     H35530   5.207   1.621  10.846 -1.0201 -0.0163  0.2777
 1004MOL0     H35531   5.037   1.599  10.821  0.5844 -0.1554  1.6852
 1004MOL0     H35532   5.190   1.866  10.791 -1.0388 -0.7837 -1.5593
 1004MOL0     H35533   5.083   1.831  10.929  2.6317 -1.6234  0.9010
 1004MOL0     H35534   4.972   1.846  10.652 -0.8449 -1.6486  0.6774
 1004MOL0     H35535   4.882   1.833  10.808 -0.7877 -1.7733 -1.0244
 1004MOL0     H35536   4.987   2.242  10.819  2.6686 -0.2515 -2.8980
 1004MOL0     H35537   5.285   1.609  10.352  1.4698 -3.1979 -2.9270
 1004MOL0     H35538   5.480   1.713  10.185 -0.4853  1.1019 -0.1375
 1004MOL0     H35539   5.544   1.554  10.131 -1.0249  2.2199 -0.8207
 1004MOL0     H35540   5.375   1.576  10.153  0.0763  3.3726 -2.2413
 1005MOL0     O35541   9.325   7.340   9.752  0.3863  0.6253  0.4806
 1005MOL0     C35542   9.355   7.421   9.839 -0.6821  0.5022  0.0590
 1005MOL0     O35543   9.450   7.507   9.817 -1.3005  0.3536 -0.3924
 1005MOL0     C35544   9.540   7.485   9.712  1.4523 -0.1262 -0.4413
 1005MOL0     C35545   9.547   7.588   9.617 -0.4996  0.0199  0.1423
 1005MOL0     C35546   9.650   7.580   9.518  0.5352 -0.2145 -0.3814
 1005MOL0     C35547   9.740   7.466   9.502 -0.7999 -0.0111 -0.1152
 1005MOL0     O35548   9.841   7.473   9.416 -0.6608 -0.1063 -1.4084
 1005MOL0     C35549   9.960   7.391   9.423  0.5103  0.1882  0.0609
 1005MOL0     C35550  10.077   7.459   9.353  0.0666  0.4855 -0.4525
 1005MOL0     C35551  10.095   7.607   9.394  0.3892  0.7387 -0.1480
 1005MOL0     C35552  10.212   7.653   9.321 -0.6855 -0.4652  0.7322
 1005MOL0     C35553  10.226   7.803   9.339  0.2944 -0.4434  0.5837
 1005MOL0     C35554  10.336   7.856   9.264 -0.3266 -0.9254  0.2610
 1005MOL0     C35555  10.371   8.010   9.284 -0.5501  0.0291  0.1001
 1005MOL0     C35556  10.499   8.051   9.207 -0.2662  0.1544 -0.1786
 1005MOL0     N35557  10.615   7.979   9.263 -0.6240 -0.3741  0.4996
 1005MOL0     C35558  10.726   7.964   9.180 -0.1897  0.2019 -0.7066
 1005MOL0     C35559  10.832   7.936   9.268  1.1108  0.0452 -0.5079
 1005MOL0     C35560  10.976   7.884   9.248  0.0300 -0.0230 -0.2545
 1005MOL0     C35561  11.052   7.990   9.168  0.0237 -0.5463 -0.0149
 1005MOL0     C35562  11.072   8.108   9.262 -0.8033 -0.1479  0.3219
 1005MOL0     C35563  10.997   8.223   9.200  0.9963 -0.1793  0.1869
 1005MOL0     O35564  10.994   8.348   9.275  1.2271 -0.1304  0.3985
 1005MOL0     C35565  10.911   8.357   9.384 -0.2918  0.0557 -0.2703
 1005MOL0     C35566  10.942   8.444   9.487 -0.7293 -0.3533 -0.1391
 1005MOL0     C35567  10.866   8.450   9.605 -0.5512  0.0699 -0.1592
 1005MOL0     C35568  10.746   8.383   9.602 -1.0871  0.6584  0.3139
 1005MOL0     C35569  10.660   8.394   9.723 -0.7887 -0.5487  0.0242
 1005MOL0     O35570  10.705   8.493   9.812  0.1740 -0.2036 -0.3892
 1005MOL0     C35571  10.615   8.513   9.914 -0.2019 -0.1192 -1.1392
 1005MOL0     C35572  10.530   8.633   9.922  0.7353 -0.1821  0.9478
 1005MOL0     C35573  10.455   8.660  10.040 -0.3099 -0.9050 -0.2669
 1005MOL0     C35574  10.458   8.566  10.149 -0.3825  0.2941 -0.3418
 1005MOL0     O35575  10.380   8.570  10.261  0.1776 -0.6209  0.4331
 1005MOL0     C35576  10.277   8.461  10.264  0.8321  0.9673  0.7124
 1005MOL0     C35577  10.159   8.496  10.362 -0.2517 -0.1294  0.5530
 1005MOL0     C35578  10.108   8.362  10.412  0.7450 -0.3598 -0.5250
 1005MOL0     C35579  10.044   8.370  10.547 -0.0072 -0.2811 -0.0196
 1005MOL0     C35580   9.908   8.437  10.565 -0.6242 -0.0496  0.2453
 1005MOL0     C35581   9.802   8.336  10.511 -0.1463 -0.5016  0.8273
 1005MOL0     C35582   9.670   8.411  10.522  0.1087 -0.3918 -0.0515
 1005MOL0     C35583   9.583   8.357  10.642  0.3476  0.0116  0.0574
 1005MOL0    Cl35584   9.644   8.417  10.798  0.2356 -0.3347 -0.2903
 1005MOL0     C35585  10.544   8.457  10.134 -0.8261 -1.3668 -0.3919
 1005MOL0     C35586  10.617   8.432  10.024  0.0358 -0.3203  0.1647
 1005MOL0     O35587  10.549   8.340   9.726  0.1667  0.9304 -0.1536
 1005MOL0     C35588  10.702   8.301   9.506 -0.7137  0.2348 -0.7214
 1005MOL0     C35589  10.790   8.290   9.400 -0.6654 -1.0493  0.3901
 1005MOL0     N35590  10.781   7.940   9.398 -0.3525  0.0803  0.3043
 1005MOL0     N35591  10.663   7.968   9.391  0.7473 -0.3334 -0.9998
 1005MOL0     C35592   9.725   7.365   9.594 -0.0264  0.8933 -0.1908
 1005MOL0     C35593   9.633   7.381   9.700 -1.1731 -0.0856 -0.2750
 1005MOL0     C35594   9.273   7.429   9.965  0.8236  0.3015 -0.1850
 1005MOL0     C35595   9.142   7.372   9.957 -0.2576  0.7501  0.5425
 1005MOL0     C35596   9.049   7.400  10.058 -0.0815 -0.7497  0.1458
 1005MOL0     C35597   9.089   7.464  10.173 -0.0785  0.1760 -0.7923
 1005MOL0     O35598   8.995   7.483  10.272  0.3897  0.0990  0.9414
 1005MOL0     C35599   9.025   7.525  10.404  0.2114  0.0726 -0.5046
 1005MOL0     C35600   8.966   7.662  10.414 -0.1420  0.5386 -1.0592
 1005MOL0     C35601   8.960   7.692  10.570  0.0174  0.0325 -0.2957
 1005MOL0     C35602   9.094   7.740  10.630  0.3582 -0.5530  0.7351
 1005MOL0     C35603   9.123   7.688  10.759 -0.4858  0.0537  0.4139
 1005MOL0     C35604   9.134   7.648  10.870 -0.5121  0.1583 -1.0780
 1005MOL0     C35605   9.221   7.502  10.189  1.6453 -0.2634 -0.0261
 1005MOL0     C35606   9.316   7.486  10.084  0.2320 -0.3594  0.0958
 1005MOL0     C35607   9.455   7.535  10.112  0.0736 -0.4135  0.5330
 1005MOL0     H35608   9.479   7.672   9.614  0.7472  1.0365 -1.7657
 1005MOL0     H35609   9.663   7.675   9.466 -0.6173  0.9353  1.3227
 1005MOL0     H35610   9.997   7.385   9.526  0.6757  0.4272  0.0185
 1005MOL0     H35611   9.932   7.288   9.400 -3.6995  0.1626  3.7995
 1005MOL0     H35612  10.049   7.451   9.248  1.5407 -0.0485 -0.8313
 1005MOL0     H35613  10.169   7.401   9.367 -0.3799 -0.2463 -0.4547
 1005MOL0     H35614  10.109   7.623   9.501  2.4526  2.4901 -0.6151
 1005MOL0     H35615  10.009   7.654   9.345  0.7465  0.9172 -0.6186
 1005MOL0     H35616  10.309   7.605   9.338  0.0322  0.8907  0.6310
 1005MOL0     H35617  10.190   7.643   9.214  1.5386  2.9497 -0.1918
 1005MOL0     H35618  10.138   7.859   9.307  1.0050 -0.8036 -2.2891
 1005MOL0     H35619  10.246   7.834   9.443 -0.2614  1.3929  0.1795
 1005MOL0     H35620  10.428   7.800   9.287 -0.1058 -0.7932 -0.2814
 1005MOL0     H35621  10.320   7.860   9.156 -1.4849 -0.4411  0.4353
 1005MOL0     H35622  10.390   8.029   9.390 -1.7215  1.1722  0.1242
 1005MOL0     H35623  10.280   8.066   9.259 -1.1518 -0.0840  1.8981
 1005MOL0     H35624  10.492   8.030   9.100  0.2136 -1.7510  0.1330
 1005MOL0     H35625  10.517   8.159   9.218 -0.4970  0.0995  0.8217
 1005MOL0     H35626  10.723   7.960   9.071  0.2141 -1.7405 -0.6977
 1005MOL0     H35627  11.026   7.872   9.344 -1.3551 -3.7595  0.1549
 1005MOL0     H35628  10.978   7.786   9.199  0.6421 -2.7488  4.6343
 1005MOL0     H35629  11.155   7.956   9.151  1.8733  3.6772  1.3671
 1005MOL0     H35630  11.004   8.026   9.076  2.2689  1.1707 -0.5997
 1005MOL0     H35631  11.181   8.124   9.259 -0.5020 -1.4131 -4.6167
 1005MOL0     H35632  11.036   8.090   9.363 -1.9596 -1.8461 -0.3558
 1005MOL0     H35633  10.897   8.187   9.177  1.1304 -1.1028  1.0225
 1005MOL0     H35634  11.035   8.245   9.099  0.1060  0.2938 -0.0554
 1005MOL0     H35635  11.039   8.492   9.487 -1.2457  0.8408  2.0166
 1005MOL0     H35636  10.908   8.495   9.694  1.6962 -0.9166 -0.6546
 1005MOL0     H35637  10.549   8.699   9.838 -0.0544 -0.5470  0.4782
 1005MOL0     H35638  10.401   8.754  10.042 -0.0143 -0.6559  3.4599
 1005MOL0     H35639  10.235   8.450  10.163 -0.8017 -0.4356  1.4982
 1005MOL0     H35640  10.316   8.361  10.287  2.5549  0.5965 -3.0062
 1005MOL0     H35641  10.200   8.557  10.444 -0.2198  4.7383 -2.6754
 1005MOL0     H35642  10.090   8.562  10.308  3.6003  3.9923  0.0448
 1005MOL0     H35643  10.043   8.341  10.326 -1.0460  3.3076 -0.2459
 1005MOL0     H35644  10.180   8.280  10.424  2.4623  1.1445 -0.2373
 1005MOL0     H35645  10.110   8.433  10.607  1.5573 -0.9969 -0.9316
 1005MOL0     H35646  10.038   8.269  10.587 -0.5077  0.5705  2.2129
 1005MOL0     H35647   9.912   8.529  10.506 -1.6022 -0.6720 -0.8420
 1005MOL0     H35648   9.885   8.467  10.667 -2.8751 -0.5427 -0.0650
 1005MOL0     H35649   9.820   8.302  10.409  1.0512  4.9842 -1.1784
 1005MOL0     H35650   9.799   8.253  10.582  0.4004 -0.2828  1.1085
 1005MOL0     H35651   9.613   8.393  10.430  0.7605 -1.5972 -0.2357
 1005MOL0     H35652   9.682   8.520  10.528  0.6993 -0.3992 -0.9324
 1005MOL0     H35653   9.482   8.389  10.613 -0.3590 -0.6095  1.7025
 1005MOL0     H35654   9.577   8.247  10.640 -2.7012  0.0989 -1.3510
 1005MOL0     H35655  10.545   8.378  10.209  2.0016 -1.0701  0.0049
 1005MOL0     H35656  10.681   8.345  10.013  0.4272  0.2686 -4.2717
 1005MOL0     H35657  10.608   8.249   9.518 -0.7218  0.7403  2.2249
 1005MOL0     H35658  10.759   8.222   9.321 -0.1858  2.0183 -2.6778
 1005MOL0     H35659   9.789   7.279   9.579 -0.4395  1.0340 -3.8694
 1005MOL0     H35660   9.628   7.298   9.770  0.4108 -1.3001 -1.5230
 1005MOL0     H35661   9.103   7.334   9.863 -0.1092  1.9874 -0.0358
 1005MOL0     H35662   8.943   7.387  10.041 -0.3814  3.0193 -2.1350
 1005MOL0     H35663   9.130   7.530  10.432  0.2099 -0.6404 -0.3495
 1005MOL0     H35664   8.976   7.456  10.474 -0.9942  1.4564  0.0812
 1005MOL0     H35665   8.863   7.664  10.378 -0.5097  0.4928 -0.0448
 1005MOL0     H35666   9.026   7.733  10.356  2.9083 -0.5939  0.4910
 1005MOL0     H35667   8.920   7.607  10.626  0.3024 -0.8739 -1.4207
 1005MOL0     H35668   8.895   7.779  10.579 -0.8898 -0.6714  0.1277
 1005MOL0     H35669   9.177   7.712  10.565  1.2161 -0.5470  1.7927
 1005MOL0     H35670   9.091   7.849  10.628  2.9070 -0.4192 -0.7899
 1005MOL0     H35671   9.128   7.613  10.971 -2.5287 -0.3672 -1.3387
 1005MOL0     H35672   9.253   7.565  10.271 -1.5228  0.2353  0.9809
 1005MOL0     H35673   9.523   7.464  10.064 -0.5927 -3.8510  4.1637
 1005MOL0     H35674   9.470   7.636  10.072  1.6555 -1.3862 -1.4796
 1005MOL0     H35675   9.470   7.550  10.220 -0.7017  1.0341  0.4665
 1006MOL0     O35676   7.126   7.583   3.284 -1.0511  0.2695  0.0755
 1006MOL0     C35677   7.060   7.654   3.352 -0.7609 -0.1115 -0.3459
 1006MOL0     O35678   6.958   7.742   3.320 -0.9884 -0.3641 -0.4938
 1006MOL0     C35679   6.921   7.782   3.198 -0.0596  0.1055 -0.1357
 1006MOL0     C35680   6.784   7.810   3.163 -0.0647 -0.3864  0.2682
 1006MOL0     C35681   6.742   7.845   3.035 -0.2414 -0.1431  0.6001
 1006MOL0     C35682   6.838   7.869   2.931 -0.2346  0.6678  0.1231
 1006MOL0     O35683   6.799   7.917   2.806 -0.7028  0.1279  0.4909
 1006MOL0     C35684   6.902   7.982   2.732 -0.4542 -0.3726  0.8213
 1006MOL0     C35685   6.855   8.067   2.617  0.4359 -0.7170  0.0434
 1006MOL0     C35686   6.817   7.974   2.490 -0.3976  0.5727 -0.1538
 1006MOL0     C35687   6.918   7.983   2.380 -1.3518  0.6320 -0.0351
 1006MOL0     C35688   6.866   7.908   2.249  0.8436 -0.2109  0.0553
 1006MOL0     C35689   6.981   7.886   2.140 -0.3438  0.3562  0.7009
 1006MOL0     C35690   6.924   7.874   1.999 -0.0146 -0.6196  0.1542
 1006MOL0     C35691   6.888   7.733   1.950 -0.9656  0.9833 -0.1859
 1006MOL0     N35692   6.837   7.726   1.809  0.4635 -0.3728 -0.1658
 1006MOL0     C35693   6.707   7.707   1.768  0.4528  0.1709 -0.7958
 1006MOL0     C35694   6.720   7.659   1.645  0.0607  0.0400 -0.1455
 1006MOL0     C35695   6.607   7.616   1.554 -0.1742 -0.9003 -0.0428
 1006MOL0     C35696   6.578   7.706   1.443 -0.1066  0.4590  0.0148
 1006MOL0     C35697   6.541   7.854   1.478 -0.2542  0.1258  0.7982
 1006MOL0     C35698   6.412   7.859   1.554  0.2242  0.4168  0.2019
 1006MOL0     O35699   6.412   7.893   1.685 -0.0807  0.0179 -0.5399
 1006MOL0     C35700   6.328   7.997   1.726  0.0423 -0.7761  1.2619
 1006MOL0     C35701   6.221   7.984   1.821 -0.4585 -0.1589 -0.5299
 1006MOL0     C35702   6.150   8.097   1.852 -0.1443 -1.0038 -0.4791
 1006MOL0     C35703   6.172   8.225   1.794 -0.4620 -0.5806 -0.4617
 1006MOL0     C35704   6.078   8.337   1.834 -0.2754  0.2047 -0.1873
 1006MOL0     O35705   6.002   8.330   1.953  0.1853 -0.4695  1.3945
 1006MOL0     C35706   5.901   8.426   1.967 -0.4033 -0.4823  0.4905
 1006MOL0     C35707   5.766   8.384   1.958 -0.3367 -0.1067  0.8764
 1006MOL0     C35708   5.660   8.479   1.994  0.1040  1.0597  0.3051
 1006MOL0     C35709   5.697   8.605   2.034 -0.5979 -1.6683 -0.7537
 1006MOL0     O35710   5.588   8.686   2.075 -0.0678 -0.7649  0.1461
 1006MOL0     C35711   5.611   8.778   2.182  0.4071  0.4017 -0.2135
 1006MOL0     C35712   5.471   8.831   2.223  0.1243 -0.5647  0.3611
 1006MOL0     C35713   5.473   8.879   2.369  0.0331  0.4773 -0.5548
 1006MOL0     C35714   5.489   9.032   2.372 -0.1992 -0.2365  0.8528
 1006MOL0     C35715   5.626   9.084   2.334  0.4303  0.0426  0.4366
 1006MOL0     C35716   5.645   9.229   2.385  0.3975 -0.1909  0.6545
 1006MOL0     C35717   5.783   9.273   2.344 -0.5665 -0.1437 -0.6350
 1006MOL0     C35718   5.811   9.422   2.385  1.1638 -0.2405  0.7228
 1006MOL0    Cl35719   5.717   9.550   2.306  0.0696  0.5582  0.1411
 1006MOL0     C35720   5.839   8.650   2.045  0.3345 -0.2320  0.5938
 1006MOL0     C35721   5.933   8.556   2.011  0.2893  0.4601 -0.4887
 1006MOL0     O35722   6.076   8.435   1.750  0.4610  0.5418  0.9047
 1006MOL0     C35723   6.269   8.236   1.695 -0.0014 -0.1803 -0.2803
 1006MOL0     C35724   6.358   8.123   1.680  0.8315  1.6176  0.8355
 1006MOL0     N35725   6.850   7.657   1.602 -0.4969  0.4510 -0.3566
 1006MOL0     N35726   6.918   7.695   1.704  0.1967  0.2619  0.6096
 1006MOL0     C35727   6.976   7.828   2.958 -1.0222 -0.1285  0.5696
 1006MOL0     C35728   7.016   7.793   3.095 -0.0227 -0.2283  0.0907
 1006MOL0     C35729   7.076   7.634   3.503  0.7619  0.3535  0.0630
 1006MOL0     C35730   7.203   7.649   3.548  0.0611  0.3794 -0.1099
 1006MOL0     C35731   7.233   7.629   3.683 -0.4228 -0.7272  0.4358
 1006MOL0     C35732   7.125   7.614   3.770 -0.7412 -0.9373 -0.0492
 1006MOL0     O35733   7.160   7.628   3.908 -0.1659  0.0004  0.6259
 1006MOL0     C35734   7.061   7.626   4.004 -0.1563  0.0617 -0.7665
 1006MOL0     C35735   7.115   7.692   4.132  1.2600 -0.6495 -0.3502
 1006MOL0     C35736   7.053   7.834   4.157 -0.4113  0.3955  0.0326
 1006MOL0     C35737   7.118   7.933   4.067 -0.2350 -0.5791 -0.4037
 1006MOL0     C35738   7.048   8.064   4.073  0.0305  0.1980  0.7208
 1006MOL0     C35739   6.973   8.152   4.105 -0.7202  0.0055  0.5555
 1006MOL0     C35740   6.992   7.600   3.725  0.0948  0.2531 -0.3130
 1006MOL0     C35741   6.967   7.604   3.594 -0.0442 -0.5337  0.9432
 1006MOL0     C35742   6.828   7.583   3.545  0.1329 -0.1201 -0.1742
 1006MOL0     H35743   6.712   7.788   3.242  1.0692 -2.0657  0.9015
 1006MOL0     H35744   6.637   7.874   3.031  0.0457  1.0604  1.2818
 1006MOL0     H35745   6.954   8.045   2.804  1.5475  1.0330 -1.6811
 1006MOL0     H35746   6.976   7.913   2.689  0.8504  1.2351  0.4079
 1006MOL0     H35747   6.941   8.128   2.589 -0.2463 -1.0558 -3.2637
 1006MOL0     H35748   6.770   8.133   2.636  0.7862 -0.3576  0.3724
 1006MOL0     H35749   6.722   8.007   2.448 -0.7381 -2.9905 -2.6706
 1006MOL0     H35750   6.798   7.872   2.524 -0.4173  0.6838  0.1646
 1006MOL0     H35751   6.932   8.087   2.350  3.6358 -0.0488 -0.9499
 1006MOL0     H35752   7.018   7.943   2.404 -0.9321  2.7036  2.0125
 1006MOL0     H35753   6.821   7.811   2.272 -2.4694  1.3526  0.7571
 1006MOL0     H35754   6.792   7.977   2.207  0.3748  2.0106  3.9999
 1006MOL0     H35755   7.034   7.981   2.138  0.0056  0.1601 -0.8893
 1006MOL0     H35756   7.048   7.806   2.171 -1.8609 -0.5331  1.8321
 1006MOL0     H35757   7.009   7.895   1.933  1.4019 -0.3113  1.9975
 1006MOL0     H35758   6.838   7.940   1.990  0.1284 -0.5969 -1.3763
 1006MOL0     H35759   6.982   7.679   1.964 -0.9527  1.5383  2.2676
 1006MOL0     H35760   6.806   7.691   2.010  1.2829  0.0982  2.5009
 1006MOL0     H35761   6.619   7.694   1.830  0.4853 -2.5495 -1.1821
 1006MOL0     H35762   6.619   7.514   1.516 -0.7948 -1.0254  0.0805
 1006MOL0     H35763   6.517   7.612   1.616  0.1011 -0.3247  0.4007
 1006MOL0     H35764   6.670   7.701   1.384  0.6667 -1.9281  1.3201
 1006MOL0     H35765   6.502   7.661   1.377  1.1470  1.4953 -2.2411
 1006MOL0     H35766   6.535   7.904   1.381 -3.0469 -1.5932 -0.0382
 1006MOL0     H35767   6.616   7.902   1.542  1.6806 -1.8174  0.1279
 1006MOL0     H35768   6.349   7.770   1.550  1.4677 -0.6600  2.5392
 1006MOL0     H35769   6.352   7.933   1.499  0.5099  0.1787 -0.4418
 1006MOL0     H35770   6.208   7.884   1.861  1.5050 -0.7192 -1.1763
 1006MOL0     H35771   6.082   8.090   1.936 -1.5500 -1.8002 -1.6518
 1006MOL0     H35772   5.745   8.284   1.922 -2.7684  1.3108 -2.1595
 1006MOL0     H35773   5.555   8.458   1.980 -0.4461  1.5547  3.0868
 1006MOL0     H35774   5.658   8.725   2.265 -2.4875 -0.8704  0.7574
 1006MOL0     H35775   5.681   8.859   2.160  0.8563 -0.3292 -1.5835
 1006MOL0     H35776   5.433   8.903   2.150 -2.6130 -0.8296  1.3765
 1006MOL0     H35777   5.394   8.754   2.210  1.8193 -2.6150  1.8329
 1006MOL0     H35778   5.376   8.839   2.400 -0.0169 -1.3446 -2.7629
 1006MOL0     H35779   5.547   8.823   2.426  0.6442  0.1028 -1.6713
 1006MOL0     H35780   5.459   9.068   2.471 -3.1657  1.1667 -0.4534
 1006MOL0     H35781   5.425   9.081   2.299  0.3481  0.8523  1.0864
 1006MOL0     H35782   5.628   9.073   2.226 -1.2499 -1.7644  0.5400
 1006MOL0     H35783   5.698   9.007   2.363 -0.5619 -1.7093 -1.5325
 1006MOL0     H35784   5.572   9.293   2.334  1.1157  0.0804 -0.0602
 1006MOL0     H35785   5.621   9.233   2.492 -0.6672  1.1870  0.4026
 1006MOL0     H35786   5.788   9.272   2.234 -2.7984 -0.8717 -0.7835
 1006MOL0     H35787   5.855   9.209   2.395 -1.5384 -1.9165 -1.3883
 1006MOL0     H35788   5.789   9.448   2.489 -3.2537  0.9279 -0.2897
 1006MOL0     H35789   5.918   9.428   2.364  1.6801 -1.5719  2.5906
 1006MOL0     H35790   5.862   8.751   2.078  0.7526  0.7427 -2.4006
 1006MOL0     H35791   6.040   8.573   2.016  0.3964 -0.4923  1.6073
 1006MOL0     H35792   6.279   8.336   1.655 -0.8524  0.0417  0.0369
 1006MOL0     H35793   6.435   8.130   1.603 -0.3718  1.2022 -0.4599
 1006MOL0     H35794   7.054   7.842   2.884 -0.2880 -1.6427  1.0165
 1006MOL0     H35795   7.120   7.778   3.124 -0.1617  0.4800  0.9980
 1006MOL0     H35796   7.280   7.666   3.473  0.4105 -1.9414 -0.3777
 1006MOL0     H35797   7.336   7.627   3.717  0.4153  3.7644 -1.1123
 1006MOL0     H35798   7.037   7.525   4.038 -0.3072  0.9198  1.8756
 1006MOL0     H35799   6.963   7.668   3.978 -0.8765 -1.9529 -1.5478
 1006MOL0     H35800   7.223   7.705   4.142  1.2063 -1.7346  3.2283
 1006MOL0     H35801   7.076   7.637   4.219 -0.1550  1.4565  0.4160
 1006MOL0     H35802   7.063   7.861   4.263 -3.0660  0.0289  0.4560
 1006MOL0     H35803   6.945   7.835   4.142 -0.1274  0.8174 -2.2464
 1006MOL0     H35804   7.222   7.944   4.099 -0.9441 -0.1710  1.9740
 1006MOL0     H35805   7.110   7.897   3.964 -3.4344 -0.2989 -0.3557
 1006MOL0     H35806   6.890   8.214   4.134  0.5623  2.2287 -0.2626
 1006MOL0     H35807   6.908   7.579   3.791  2.4991 -2.4303  2.1809
 1006MOL0     H35808   6.844   7.503   3.472  2.2399 -1.3053  1.4813
 1006MOL0     H35809   6.756   7.530   3.609 -0.1799  2.0588  1.3767
 1006MOL0     H35810   6.782   7.673   3.504 -0.1403 -0.1475  0.0655
 1007MOL0     O35811   6.343  10.204  10.628  0.4234 -1.2131 -0.0320
 1007MOL0     C35812   6.458  10.170  10.642  0.8334 -0.5615  0.4402
 1007MOL0     O35813   6.496  10.055  10.703 -0.7760 -0.3407 -0.1534
 1007MOL0     C35814   6.399   9.981  10.761 -0.1148  0.1591 -0.6659
 1007MOL0     C35815   6.366   9.848  10.724 -0.3796  0.2995 -0.1419
 1007MOL0     C35816   6.259   9.778  10.788  0.6297  0.1848 -0.4117
 1007MOL0     C35817   6.193   9.839  10.901  0.9079  0.3523  0.4698
 1007MOL0     O35818   6.089   9.774  10.975  0.1367 -0.3185 -0.0126
 1007MOL0     C35819   6.053   9.637  10.951  0.3378 -0.4186  0.7812
 1007MOL0     C35820   5.949   9.589  11.050  0.1404  0.6825 -0.3227
 1007MOL0     C35821   5.917   9.436  11.024 -0.1000 -0.2480 -0.0579
 1007MOL0     C35822   5.838   9.370  11.134 -0.0691 -0.6331 -0.1394
 1007MOL0     C35823   5.686   9.374  11.090  0.4000  0.5644  0.3359
 1007MOL0     C35824   5.649   9.250  11.014 -0.2824 -0.2664 -0.3641
 1007MOL0     C35825   5.513   9.244  10.964  1.1680 -0.4879  0.2855
 1007MOL0     C35826   5.480   9.103  10.907 -1.3981 -0.3771  0.2363
 1007MOL0     N35827   5.517   9.089  10.770 -0.5700 -0.4690 -0.4000
 1007MOL0     C35828   5.614   9.005  10.714 -1.0539 -0.1525 -0.1847
 1007MOL0     C35829   5.596   9.025  10.579 -0.5343 -0.4065 -1.0806
 1007MOL0     C35830   5.667   8.945  10.482 -0.5929 -0.1821 -0.0700
 1007MOL0     C35831   5.591   8.812  10.464  0.2377 -0.5424  0.4482
 1007MOL0     C35832   5.663   8.733  10.355 -0.3648  0.4569  0.5240
 1007MOL0     C35833   5.796   8.669  10.380  0.6362  0.5780  0.3116
 1007MOL0     O35834   5.835   8.551  10.290 -0.1279 -1.1200  1.2894
 1007MOL0     C35835   5.774   8.438  10.301  0.2374 -0.1649 -0.5584
 1007MOL0     C35836   5.828   8.345  10.213  0.2752  0.1752 -0.1527
 1007MOL0     C35837   5.776   8.219  10.210 -0.3948  1.0032 -0.4612
 1007MOL0     C35838   5.664   8.171  10.293 -0.4706 -0.7674  0.7948
 1007MOL0     C35839   5.617   8.028  10.285  0.3365  0.3956 -0.6853
 1007MOL0     O35840   5.503   8.003  10.367 -0.6772 -0.2464  0.5509
 1007MOL0     C35841   5.477   7.875  10.418 -1.0065 -0.1448  0.7896
 1007MOL0     C35842   5.450   7.758  10.343 -0.7365 -1.0117 -0.5219
 1007MOL0     C35843   5.404   7.648  10.405  1.1085 -0.4232  0.2748
 1007MOL0     C35844   5.398   7.642  10.548 -0.1884  0.9066 -0.2282
 1007MOL0     O35845   5.379   7.521  10.606 -0.1244  0.2537 -0.1073
 1007MOL0     C35846   5.341   7.522  10.747  0.4345 -0.4918 -0.2025
 1007MOL0     C35847   5.295   7.380  10.790 -0.2085 -0.6672  0.1434
 1007MOL0     C35848   5.158   7.342  10.736 -0.3487  0.1277 -1.1807
 1007MOL0     C35849   5.100   7.231  10.820  1.1542  0.1490  0.2316
 1007MOL0     C35850   4.972   7.165  10.757  0.1215  0.4858  0.6187
 1007MOL0     C35851   4.902   7.065  10.856 -0.3373 -0.4436 -0.4378
 1007MOL0     C35852   4.985   6.929  10.854 -0.3047 -0.1521  0.3055
 1007MOL0     C35853   4.929   6.809  10.922  0.4779  0.3524  0.9961
 1007MOL0    Cl35854   4.994   6.663  10.830  0.1371 -0.3920 -0.1202
 1007MOL0     C35855   5.422   7.753  10.614 -0.0000  0.4186 -0.8612
 1007MOL0     C35856   5.455   7.874  10.557  0.1812  0.5831 -0.2800
 1007MOL0     O35857   5.691   7.945  10.241 -0.5003  0.2183 -0.7347
 1007MOL0     C35858   5.612   8.269  10.380  0.1600  0.5539  1.1733
 1007MOL0     C35859   5.663   8.396  10.385 -0.3907 -0.2223 -0.6673
 1007MOL0     N35860   5.497   9.114  10.554  0.0984  0.6545 -0.1189
 1007MOL0     N35861   5.452   9.153  10.675 -0.4648 -0.5164 -1.3260
 1007MOL0     C35862   6.216   9.973  10.927  0.1861  1.0433  0.4158
 1007MOL0     C35863   6.331  10.033  10.873  0.5216 -0.4112  0.2197
 1007MOL0     C35864   6.572  10.249  10.575  0.4279 -0.4152 -0.4886
 1007MOL0     C35865   6.700  10.209  10.612 -0.3849 -0.7268  0.6320
 1007MOL0     C35866   6.811  10.275  10.552 -0.7559 -0.0414  0.3883
 1007MOL0     C35867   6.796  10.365  10.445 -0.2052 -0.8956 -0.0118
 1007MOL0     O35868   6.905  10.404  10.370  0.1786 -0.9620 -0.0917
 1007MOL0     C35869   6.890  10.415  10.224  0.1954  0.2490  0.6546
 1007MOL0     C35870   6.875  10.279  10.155  0.8894  0.2515  0.4545
 1007MOL0     C35871   6.996  10.182  10.200  0.1359 -0.1971  0.3094
 1007MOL0     C35872   6.999  10.047  10.123  0.4913 -1.1831  0.0412
 1007MOL0     C35873   6.988  10.063   9.975  0.0143 -1.0195 -1.3002
 1007MOL0     C35874   6.991  10.068   9.853 -0.0410 -0.2179  0.3255
 1007MOL0     C35875   6.666  10.420  10.428 -0.3651  1.0618 -0.5287
 1007MOL0     C35876   6.555  10.371  10.491 -0.1799  0.2771 -0.8413
 1007MOL0     C35877   6.423  10.433  10.454  0.6579 -0.2857 -0.3062
 1007MOL0     H35878   6.421   9.792  10.649 -2.4487 -2.6800  0.3818
 1007MOL0     H35879   6.247   9.675  10.757 -2.8274 -0.4336  2.2920
 1007MOL0     H35880   6.018   9.625  10.848 -2.3482  2.8949  1.0893
 1007MOL0     H35881   6.148   9.587  10.968 -0.3094 -1.2883  1.9441
 1007MOL0     H35882   5.858   9.647  11.032  1.2999  1.7661 -3.3142
 1007MOL0     H35883   5.993   9.611  11.148 -1.7314  1.0214  0.4925
 1007MOL0     H35884   6.010   9.381  11.011  1.1224  1.1620  2.0423
 1007MOL0     H35885   5.867   9.429  10.927 -0.8786  2.2194  0.1188
 1007MOL0     H35886   5.881   9.272  11.157  0.7162 -0.4686 -0.8396
 1007MOL0     H35887   5.851   9.435  11.221  1.5043  0.3444 -1.0442
 1007MOL0     H35888   5.618   9.377  11.175 -0.2122 -0.8761 -0.0739
 1007MOL0     H35889   5.670   9.464  11.029 -3.6380 -0.3502 -0.2279
 1007MOL0     H35890   5.721   9.225  10.936 -0.1077 -3.2196  0.6180
 1007MOL0     H35891   5.668   9.170  11.087  0.2835 -0.0306 -0.2493
 1007MOL0     H35892   5.490   9.317  10.885 -0.4343 -1.9537 -0.6752
 1007MOL0     H35893   5.445   9.266  11.046 -0.7642  0.6425 -1.5114
 1007MOL0     H35894   5.527   9.026  10.968 -1.1274  0.7684  1.5404
 1007MOL0     H35895   5.371   9.091  10.908 -1.0972 -4.2322 -1.0431
 1007MOL0     H35896   5.692   8.941  10.756 -2.3794 -1.9978 -0.3966
 1007MOL0     H35897   5.678   8.996  10.386 -0.2285  0.5834  0.3728
 1007MOL0     H35898   5.763   8.919  10.528 -1.4091  0.1173  1.9315
 1007MOL0     H35899   5.586   8.756  10.558 -1.5558 -0.7004  0.2935
 1007MOL0     H35900   5.487   8.822  10.431  0.2755 -3.6044 -1.0101
 1007MOL0     H35901   5.679   8.799  10.269  3.2533  0.1887  0.8382
 1007MOL0     H35902   5.597   8.660  10.306  1.9604 -0.5256 -1.3470
 1007MOL0     H35903   5.786   8.639  10.485 -2.7030  0.1334 -0.0319
 1007MOL0     H35904   5.870   8.746  10.357  0.8894 -0.8009 -4.5879
 1007MOL0     H35905   5.914   8.366  10.150 -0.4673 -0.5966 -1.4533
 1007MOL0     H35906   5.822   8.147  10.143 -0.3772  2.0708 -1.6252
 1007MOL0     H35907   5.469   7.767  10.236 -1.9208  4.4495 -0.5765
 1007MOL0     H35908   5.380   7.560  10.347  3.3119  0.0244 -1.4737
 1007MOL0     H35909   5.423   7.558  10.809  0.9914 -2.5982  0.3443
 1007MOL0     H35910   5.255   7.588  10.764  1.7006  0.6984  2.0352
 1007MOL0     H35911   5.369   7.310  10.751  0.6881 -0.0519  0.7281
 1007MOL0     H35912   5.301   7.376  10.899  1.6973 -2.5656  0.0151
 1007MOL0     H35913   5.099   7.431  10.714  0.2984  0.2228 -2.6061
 1007MOL0     H35914   5.182   7.293  10.642  0.6424  0.8545 -1.3158
 1007MOL0     H35915   5.096   7.270  10.922  4.2018  0.8816  0.1696
 1007MOL0     H35916   5.173   7.150  10.822  2.2608  1.0711 -0.9629
 1007MOL0     H35917   4.988   7.109  10.665 -1.3495  0.7211  0.1887
 1007MOL0     H35918   4.903   7.246  10.730 -0.2895  0.3316  1.1829
 1007MOL0     H35919   4.891   7.115  10.953 -2.8897  2.0544 -1.8543
 1007MOL0     H35920   4.797   7.052  10.829 -0.7917 -0.2576  1.1160
 1007MOL0     H35921   5.080   6.956  10.902 -0.7429  2.2998 -0.0961
 1007MOL0     H35922   5.008   6.901  10.751 -1.8644 -1.2027  0.2114
 1007MOL0     H35923   4.949   6.817  11.029 -4.2466 -0.2310  2.1729
 1007MOL0     H35924   4.820   6.807  10.914  0.4434  1.3441  1.1403
 1007MOL0     H35925   5.432   7.750  10.722  0.7925  1.6353 -0.8791
 1007MOL0     H35926   5.467   7.963  10.616  4.0955 -0.6135  1.0478
 1007MOL0     H35927   5.536   8.239  10.451 -0.4341 -2.4305 -0.5214
 1007MOL0     H35928   5.617   8.460  10.460 -0.5749  0.4387 -1.3331
 1007MOL0     H35929   6.181  10.032  11.011 -1.2731 -0.3338  0.8298
 1007MOL0     H35930   6.356  10.127  10.920  3.6076 -0.3359 -1.3100
 1007MOL0     H35931   6.715  10.137  10.692  0.7867  1.6424  2.6709
 1007MOL0     H35932   6.907  10.242  10.588  0.5902  4.4501  1.6322
 1007MOL0     H35933   6.992  10.439  10.195  0.9576 -1.4354  1.8046
 1007MOL0     H35934   6.819  10.493  10.193 -0.2595  0.2554  1.6732
 1007MOL0     H35935   6.864  10.297  10.047 -3.3109 -2.7956  0.1238
 1007MOL0     H35936   6.779  10.233  10.178 -0.1281  1.6152 -0.8241
 1007MOL0     H35937   7.006  10.172  10.309  0.0205  3.5335  0.8182
 1007MOL0     H35938   7.085  10.240  10.174 -0.0674  0.4667  1.0373
 1007MOL0     H35939   7.092   9.994  10.145  0.7480 -1.4334 -1.5209
 1007MOL0     H35940   6.916   9.979  10.142 -1.6342  1.1726 -0.2092
 1007MOL0     H35941   6.986  10.066   9.746  1.3308 -1.8954  0.2302
 1007MOL0     H35942   6.648  10.494  10.350 -1.2393  1.4345  0.0134
 1007MOL0     H35943   6.444  10.521  10.392 -1.1451 -0.9687 -1.9831
 1007MOL0     H35944   6.377  10.363  10.384  1.7845 -2.4377  0.9817
 1007MOL0     H35945   6.354  10.467  10.532  2.4175  0.3840  1.0303
 1008MOL0     O35946  10.709   2.254   9.298 -0.6598 -0.5218 -0.1795
 1008MOL0     C35947  10.641   2.285   9.203  0.7667  0.1114  0.1363
 1008MOL0     O35948  10.694   2.345   9.094  0.4396 -0.1168  0.2985
 1008MOL0     C35949  10.824   2.298   9.064  0.4457  0.4533  0.2745
 1008MOL0     C35950  10.936   2.336   9.147 -0.6422  1.1469 -0.3172
 1008MOL0     C35951  11.058   2.281   9.109 -0.4485 -0.7963  0.3157
 1008MOL0     C35952  11.072   2.209   9.000  0.0369  0.6471  0.0145
 1008MOL0     O35953  11.195   2.149   8.984  0.4627  0.1926 -0.1129
 1008MOL0     C35954  11.205   2.008   9.015 -0.6321  0.7142  0.0237
 1008MOL0     C35955  11.355   1.991   9.051  0.3072 -0.6580  1.2232
 1008MOL0     C35956  11.429   1.865   9.006  0.0783 -0.8411  0.0990
 1008MOL0     C35957  11.382   1.746   9.089  1.0468  0.6427 -0.2604
 1008MOL0     C35958  11.457   1.611   9.054  0.7239  0.4547  0.3772
 1008MOL0     C35959  11.479   1.563   8.901  0.6091 -0.6854  0.1333
 1008MOL0     C35960  11.359   1.543   8.806 -0.1537 -0.8202  0.3180
 1008MOL0     C35961  11.408   1.510   8.665 -0.0178  0.0509 -1.3031
 1008MOL0     N35962  11.299   1.512   8.572 -0.6623 -0.0699 -0.1454
 1008MOL0     C35963  11.238   1.397   8.533  0.6341 -0.3736  0.6323
 1008MOL0     C35964  11.159   1.448   8.424 -0.3320  0.6634 -1.1135
 1008MOL0     C35965  11.060   1.352   8.354  1.1570 -0.1325 -0.3928
 1008MOL0     C35966  10.963   1.404   8.249 -0.5767 -0.8077 -0.2233
 1008MOL0     C35967  10.885   1.293   8.185  0.0233  0.0008 -0.4726
 1008MOL0     C35968  10.756   1.337   8.116  0.6290 -0.3036 -0.1102
 1008MOL0     O35969  10.781   1.439   8.011  0.2304 -0.2035  0.2744
 1008MOL0     C35970  10.665   1.478   7.952  0.2785 -0.0251 -0.6609
 1008MOL0     C35971  10.541   1.413   7.947 -0.4928 -0.2425  0.0141
 1008MOL0     C35972  10.457   1.461   7.842 -1.3651  1.0711  0.9990
 1008MOL0     C35973  10.495   1.570   7.766 -0.1458  0.1495 -0.5414
 1008MOL0     C35974  10.409   1.617   7.654  0.0359 -0.6918  0.2210
 1008MOL0     O35975  10.275   1.583   7.665  0.2891  0.4729  0.3817
 1008MOL0     C35976  10.188   1.616   7.564  0.4925  0.4259  0.0692
 1008MOL0     C35977  10.087   1.708   7.589 -0.3068 -0.1245 -0.2411
 1008MOL0     C35978  10.007   1.765   7.488  0.5089  0.3712 -0.2089
 1008MOL0     C35979  10.035   1.723   7.351 -0.1002  0.7417 -0.0244
 1008MOL0     O35980   9.986   1.789   7.242 -0.8803 -0.5846  0.1219
 1008MOL0     C35981   9.852   1.789   7.204 -0.3175 -0.3006 -0.2728
 1008MOL0     C35982   9.828   1.887   7.088 -0.3892 -0.6395  0.1094
 1008MOL0     C35983   9.931   1.866   6.970 -0.0185 -0.5131  0.7175
 1008MOL0     C35984   9.927   1.975   6.866  0.1766  0.6435 -0.7891
 1008MOL0     C35985  10.030   1.944   6.755  0.2701  0.3873 -0.9820
 1008MOL0     C35986  10.104   2.070   6.702  0.2600 -0.0158  0.6001
 1008MOL0     C35987  10.019   2.148   6.604  0.2824 -0.3276 -0.4479
 1008MOL0     C35988   9.938   2.071   6.504  0.2446 -1.8246  0.4538
 1008MOL0    Cl35989   9.842   2.199   6.415 -0.9266 -0.0748  0.6336
 1008MOL0     C35990  10.123   1.631   7.329 -0.9791  0.4627  0.2739
 1008MOL0     C35991  10.209   1.581   7.428  0.3604 -0.1882  1.1132
 1008MOL0     O35992  10.450   1.702   7.575  0.4336 -0.1102  0.6554
 1008MOL0     C35993  10.613   1.644   7.793 -0.5967  0.6832 -0.4491
 1008MOL0     C35994  10.703   1.586   7.873  0.1523 -1.2396 -1.1649
 1008MOL0     N35995  11.169   1.589   8.424  0.0814  0.1111  0.1451
 1008MOL0     N35996  11.260   1.621   8.509 -0.3551  0.0275  0.1010
 1008MOL0     C35997  10.970   2.198   8.914  0.4687  0.4444  0.2890
 1008MOL0     C35998  10.841   2.244   8.941  0.2885 -0.2167 -0.6393
 1008MOL0     C35999  10.492   2.258   9.213  0.4537  1.0322 -0.8689
 1008MOL0     C36000  10.443   2.198   9.331  0.3037 -0.2607 -0.1974
 1008MOL0     C36001  10.312   2.173   9.351 -0.0643 -0.8137  0.3594
 1008MOL0     C36002  10.213   2.205   9.256 -0.3382 -0.9074  0.8563
 1008MOL0     O36003  10.084   2.175   9.278 -0.3213  0.1760  0.2358
 1008MOL0     C36004  10.019   2.203   9.404  0.0815  0.2874  0.5590
 1008MOL0     C36005   9.886   2.133   9.394 -0.3092 -0.2040  0.1702
 1008MOL0     C36006   9.816   2.170   9.259  0.0038  0.3088  0.3030
 1008MOL0     C36007   9.668   2.124   9.272 -0.0109 -0.3749  0.4752
 1008MOL0     C36008   9.584   2.231   9.328  0.0427  0.1926  0.0138
 1008MOL0     C36009   9.524   2.319   9.390  0.3424  0.7795  0.3643
 1008MOL0     C36010  10.254   2.281   9.136 -0.1343  0.3341 -1.2930
 1008MOL0     C36011  10.394   2.301   9.114 -1.4471 -0.1024 -0.1008
 1008MOL0     C36012  10.445   2.354   8.980 -0.4584  0.3215 -0.8955
 1008MOL0     H36013  10.918   2.409   9.226  0.9506  2.0855 -0.7911
 1008MOL0     H36014  11.149   2.296   9.167 -2.1190 -0.6004  3.0812
 1008MOL0     H36015  11.146   1.990   9.105 -1.1293  3.1279  0.2586
 1008MOL0     H36016  11.165   1.941   8.938 -1.5421  3.7748 -2.4100
 1008MOL0     H36017  11.373   2.011   9.157 -0.3189  0.0972  1.2002
 1008MOL0     H36018  11.399   2.064   8.983 -0.7119  0.0218  1.2719
 1008MOL0     H36019  11.538   1.877   9.003  0.5281 -4.2476 -1.4002
 1008MOL0     H36020  11.397   1.844   8.904 -0.2984  2.6156 -0.6162
 1008MOL0     H36021  11.398   1.761   9.197  0.4954  0.7774 -0.1924
 1008MOL0     H36022  11.274   1.739   9.071  1.3039  3.5946 -4.1902
 1008MOL0     H36023  11.556   1.593   9.096  1.0892  0.5440 -0.4352
 1008MOL0     H36024  11.398   1.535   9.107  3.2109  0.2258  3.0885
 1008MOL0     H36025  11.547   1.636   8.855 -0.8301 -1.0218 -2.7316
 1008MOL0     H36026  11.527   1.465   8.902 -1.4951 -1.7926 -1.4500
 1008MOL0     H36027  11.294   1.630   8.800  0.5901 -0.2313  0.6951
 1008MOL0     H36028  11.296   1.460   8.841  0.1201 -0.9710  0.4572
 1008MOL0     H36029  11.482   1.588   8.642  0.6634 -0.8476 -2.2590
 1008MOL0     H36030  11.455   1.412   8.672 -1.3383 -0.4518  1.7951
 1008MOL0     H36031  11.249   1.297   8.576  0.5755 -0.3152  0.7845
 1008MOL0     H36032  11.115   1.266   8.315  0.4980 -0.4924 -0.5546
 1008MOL0     H36033  11.002   1.309   8.437  0.2811  1.5116 -0.1094
 1008MOL0     H36034  10.888   1.466   8.299 -1.1180 -1.1612 -0.5824
 1008MOL0     H36035  11.008   1.473   8.177  1.6431 -2.5765 -0.6386
 1008MOL0     H36036  10.858   1.227   8.268 -0.4964  0.1577 -0.5154
 1008MOL0     H36037  10.944   1.237   8.111 -2.1582 -2.3601 -0.5589
 1008MOL0     H36038  10.693   1.372   8.198  1.3496  1.5486 -0.2811
 1008MOL0     H36039  10.711   1.250   8.068  0.3592  0.3590 -1.0863
 1008MOL0     H36040  10.527   1.315   7.989  2.4894 -0.0563  1.6948
 1008MOL0     H36041  10.357   1.420   7.844 -1.3021  0.8627  0.1047
 1008MOL0     H36042  10.065   1.748   7.687 -0.1685 -0.6561  0.0134
 1008MOL0     H36043   9.939   1.849   7.490 -0.2539 -0.1563 -1.9436
 1008MOL0     H36044   9.816   1.691   7.170  2.0286 -1.3623  0.0961
 1008MOL0     H36045   9.786   1.820   7.285 -0.3672  0.9133 -0.7582
 1008MOL0     H36046   9.723   1.884   7.056 -0.6818  1.1028  0.7486
 1008MOL0     H36047   9.838   1.988   7.130  1.4084  0.1677 -2.0671
 1008MOL0     H36048  10.034   1.843   6.999  0.4378 -0.6475 -0.9184
 1008MOL0     H36049   9.894   1.777   6.919 -3.0190  1.0130  0.0361
 1008MOL0     H36050   9.926   2.073   6.915 -1.3116 -0.1672  0.9499
 1008MOL0     H36051   9.832   1.974   6.812  0.4244 -0.3446 -1.2360
 1008MOL0     H36052   9.980   1.884   6.679 -1.2372  0.7356 -0.2999
 1008MOL0     H36053  10.109   1.880   6.794  1.8844  1.7609 -1.8547
 1008MOL0     H36054  10.133   2.139   6.782 -2.7814 -0.7688  2.5071
 1008MOL0     H36055  10.194   2.040   6.646 -0.5115  1.4245 -1.5712
 1008MOL0     H36056  10.090   2.205   6.544  2.6137 -2.4465  0.1457
 1008MOL0     H36057   9.947   2.212   6.656 -0.6997 -0.5802 -1.4492
 1008MOL0     H36058  10.004   2.025   6.430 -1.2502  0.6981 -2.6829
 1008MOL0     H36059   9.869   2.002   6.553 -1.6827  1.4046  2.6755
 1008MOL0     H36060  10.146   1.606   7.226 -0.4698 -0.2507  0.5569
 1008MOL0     H36061  10.289   1.517   7.395  0.3814  0.4214 -0.0572
 1008MOL0     H36062  10.630   1.739   7.745 -1.3335  2.4661  2.5246
 1008MOL0     H36063  10.791   1.646   7.893 -1.9216  1.3753  0.8927
 1008MOL0     H36064  10.978   2.139   8.823 -3.5657  0.8443 -0.4801
 1008MOL0     H36065  10.763   2.231   8.867 -1.1074 -1.3002  0.9573
 1008MOL0     H36066  10.515   2.171   9.408  0.5835  0.6488 -0.1280
 1008MOL0     H36067  10.275   2.116   9.436 -2.0236 -1.7419 -1.0396
 1008MOL0     H36068   9.997   2.309   9.410 -4.4065 -0.5176  1.5968
 1008MOL0     H36069  10.071   2.170   9.495 -2.8544 -0.0825  2.2105
 1008MOL0     H36070   9.817   2.155   9.476 -1.8789  1.6542 -1.5622
 1008MOL0     H36071   9.917   2.028   9.396 -0.1274 -0.2121 -1.6620
 1008MOL0     H36072   9.871   2.123   9.177  3.6557 -1.1884  3.2502
 1008MOL0     H36073   9.814   2.279   9.250 -0.4168  0.5882  2.8879
 1008MOL0     H36074   9.625   2.112   9.172  1.8900  0.0979 -0.4434
 1008MOL0     H36075   9.654   2.022   9.309 -1.2383 -1.4169 -2.5069
 1008MOL0     H36076   9.454   2.387   9.436  0.1555  1.2724 -0.6166
 1008MOL0     H36077  10.175   2.330   9.080 -2.2858 -2.1748 -0.6445
 1008MOL0     H36078  10.362   2.383   8.915 -2.5919  0.7364  1.8432
 1008MOL0     H36079  10.505   2.444   8.996 -0.6475  0.0859  1.4147
 1008MOL0     H36080  10.494   2.275   8.921 -2.1488 -2.1096  0.7946
 1009MOL0     O36081   3.168  10.767   6.677 -0.6149  0.3290  0.1386
 1009MOL0     C36082   3.131  10.750   6.560 -0.0699  0.1750 -0.3213
 1009MOL0     O36083   3.120  10.854   6.471  0.1763 -0.3182  0.0519
 1009MOL0     C36084   3.174  10.982   6.488  0.5356 -0.2895  0.2903
 1009MOL0     C36085   3.245  11.033   6.604 -0.2128 -0.5919 -0.3134
 1009MOL0     C36086   3.284  11.165   6.623  0.3832 -0.0943  0.8644
 1009MOL0     C36087   3.232  11.263   6.529  0.0209 -0.1591  0.9688
 1009MOL0     O36088   3.252  11.397   6.533  1.0319  0.5046  0.4681
 1009MOL0     C36089   3.352  11.452   6.623 -0.0677  0.8919  0.6164
 1009MOL0     C36090   3.323  11.602   6.639  0.9568 -0.0174 -1.4924
 1009MOL0     C36091   3.327  11.700   6.518  0.0394 -0.0343  0.9211
 1009MOL0     C36092   3.450  11.680   6.443 -0.3949 -0.5973  0.0962
 1009MOL0     C36093   3.465  11.794   6.340 -0.5600 -0.7733  1.1723
 1009MOL0     C36094   3.513  11.932   6.394  0.6282 -0.7681 -0.4266
 1009MOL0     C36095   3.518  12.040   6.287 -0.1556  1.1295 -0.2524
 1009MOL0     C36096   3.556  12.157   6.364 -0.1640 -0.1222  0.0740
 1009MOL0     N36097   3.500  12.282   6.311  1.2057 -0.1403  0.1540
 1009MOL0     C36098   3.363  12.305   6.287  0.6769  0.0333 -1.2379
 1009MOL0     C36099   3.353  12.421   6.224  0.3804  0.8663  0.0017
 1009MOL0     C36100   3.226  12.512   6.200  0.1948  1.2134  0.2794
 1009MOL0     C36101   3.171  12.531   6.060  0.2150  0.2175  0.1386
 1009MOL0     C36102   3.106  12.411   5.989 -0.2190  1.5959 -0.0390
 1009MOL0     C36103   3.040  12.471   5.859  0.0473  0.4986 -0.2841
 1009MOL0     O36104   2.961  12.377   5.796  0.3772 -0.4645  0.3294
 1009MOL0     C36105   3.018  12.289   5.705 -0.3867  1.1520 -1.1790
 1009MOL0     C36106   2.928  12.188   5.654  0.1602 -0.3107  0.0218
 1009MOL0     C36107   2.965  12.092   5.563  0.0472  0.2837  0.8383
 1009MOL0     C36108   3.098  12.092   5.515 -0.2463  0.1327  0.6610
 1009MOL0     C36109   3.152  12.002   5.414 -0.2871 -0.4953 -0.1449
 1009MOL0     O36110   3.277  12.027   5.355 -0.1157  0.3116  0.5265
 1009MOL0     C36111   3.337  11.908   5.301 -0.0925 -0.3966  0.9703
 1009MOL0     C36112   3.282  11.840   5.185 -0.3633 -0.3540  0.2335
 1009MOL0     C36113   3.333  11.716   5.146  0.4571 -0.0232  1.3532
 1009MOL0     C36114   3.439  11.656   5.216 -0.1109 -0.4225  0.7881
 1009MOL0     O36115   3.476  11.533   5.167  0.0297  0.3502 -0.2566
 1009MOL0     C36116   3.613  11.495   5.180 -0.4509 -1.1693 -0.2950
 1009MOL0     C36117   3.631  11.348   5.130  0.1944 -0.4132 -0.2186
 1009MOL0     C36118   3.778  11.321   5.127 -0.1582 -0.8492  0.5612
 1009MOL0     C36119   3.805  11.167   5.154 -0.4056 -0.7448  0.8303
 1009MOL0     C36120   3.963  11.136   5.160  0.0151 -0.4275  0.0478
 1009MOL0     C36121   4.037  11.174   5.028  0.3242  0.2511  0.8801
 1009MOL0     C36122   4.192  11.158   5.055  0.2409 -0.4662  0.0448
 1009MOL0     C36123   4.235  11.017   5.108  1.0801 -0.8135  0.5090
 1009MOL0    Cl36124   4.176  10.886   5.010  0.2128  0.2607 -0.4866
 1009MOL0     C36125   3.494  11.733   5.321 -0.5333  0.6044  0.6366
 1009MOL0     C36126   3.440  11.856   5.362 -0.5132  0.6124  0.8307
 1009MOL0     O36127   3.083  11.900   5.403  0.1474  0.4303 -0.0623
 1009MOL0     C36128   3.195  12.176   5.574  0.0168  0.3151 -0.2673
 1009MOL0     C36129   3.156  12.274   5.673  0.5024 -0.5992  1.3332
 1009MOL0     N36130   3.487  12.463   6.214 -0.4281 -0.5861  0.5576
 1009MOL0     N36131   3.569  12.382   6.264  0.0775 -0.8718 -0.2992
 1009MOL0     C36132   3.153  11.211   6.416 -0.5048  0.4767 -0.7216
 1009MOL0     C36133   3.129  11.079   6.399  0.6937  0.0034  0.0429
 1009MOL0     C36134   3.128  10.616   6.495 -0.2197  0.3216  1.0642
 1009MOL0     C36135   3.110  10.618   6.360  0.7565 -0.2262 -0.0326
 1009MOL0     C36136   3.091  10.501   6.285  0.6791  0.3787 -0.0977
 1009MOL0     C36137   3.113  10.378   6.339 -1.0691  0.4105 -0.9969
 1009MOL0     O36138   3.103  10.255   6.278  0.0979 -0.6301 -0.7052
 1009MOL0     C36139   3.050  10.247   6.149  0.8767 -0.1708 -0.3380
 1009MOL0     C36140   3.064  10.100   6.100 -0.5770  0.3262  0.0845
 1009MOL0     C36141   2.996   9.990   6.185  1.3273 -0.2168  0.6581
 1009MOL0     C36142   3.011   9.849   6.127 -0.3299 -0.7536 -0.2241
 1009MOL0     C36143   2.926   9.825   6.009  0.5716 -0.5543 -0.2428
 1009MOL0     C36144   2.857   9.802   5.910 -1.2954  0.0863 -0.2229
 1009MOL0     C36145   3.129  10.372   6.480  0.6929 -0.3585  1.0584
 1009MOL0     C36146   3.139  10.488   6.550 -0.3051  0.9625 -0.1002
 1009MOL0     C36147   3.157  10.479   6.699 -0.1576 -0.2405 -0.7949
 1009MOL0     H36148   3.278  10.968   6.684  1.4291  1.4262  0.7346
 1009MOL0     H36149   3.323  11.201   6.718 -2.5512  0.7912  1.8243
 1009MOL0     H36150   3.370  11.395   6.714  3.5373  0.7967  0.0022
 1009MOL0     H36151   3.443  11.443   6.562 -0.0994 -2.5189  0.8891
 1009MOL0     H36152   3.376  11.650   6.723 -1.9403 -1.2607  1.2746
 1009MOL0     H36153   3.221  11.607   6.678  0.8466 -2.3643 -1.3301
 1009MOL0     H36154   3.329  11.800   6.564  1.1626  0.8560 -0.9750
 1009MOL0     H36155   3.234  11.685   6.462  0.5421 -3.2521  0.7891
 1009MOL0     H36156   3.545  11.679   6.497  0.1439 -2.4566 -0.8160
 1009MOL0     H36157   3.444  11.588   6.385 -0.4333  0.0069 -0.8921
 1009MOL0     H36158   3.532  11.759   6.261 -1.7528  2.3812 -1.4251
 1009MOL0     H36159   3.364  11.809   6.301  0.0776  0.9398  0.0964
 1009MOL0     H36160   3.434  11.952   6.467 -1.5092 -4.9979 -1.2341
 1009MOL0     H36161   3.606  11.928   6.452  0.7323  0.0913 -0.5256
 1009MOL0     H36162   3.419  12.040   6.240  0.3929 -1.4834 -1.6121
 1009MOL0     H36163   3.594  12.027   6.209 -0.0665  3.2316 -0.5612
 1009MOL0     H36164   3.511  12.163   6.464 -1.1568  3.9195 -0.4174
 1009MOL0     H36165   3.664  12.168   6.378 -0.3825 -0.5903  2.5352
 1009MOL0     H36166   3.282  12.240   6.319 -0.2160  1.1111 -1.2287
 1009MOL0     H36167   3.142  12.473   6.258  0.3640 -1.4657 -1.1570
 1009MOL0     H36168   3.258  12.605   6.249  1.1728 -0.4444  3.0122
 1009MOL0     H36169   3.095  12.609   6.067  2.7825  2.9858 -0.6044
 1009MOL0     H36170   3.250  12.578   6.000  0.2216  0.8917  0.6565
 1009MOL0     H36171   3.024  12.368   6.047  0.9110  0.4421  0.7385
 1009MOL0     H36172   3.184  12.338   5.964 -2.3726 -0.4788 -1.0528
 1009MOL0     H36173   3.114  12.522   5.796  0.2067  0.4647 -0.1233
 1009MOL0     H36174   2.971  12.549   5.894 -2.5659 -2.0977  0.7920
 1009MOL0     H36175   2.826  12.192   5.690  0.6560 -1.0316  1.6117
 1009MOL0     H36176   2.892  12.028   5.516  2.0370 -1.1476 -0.4378
 1009MOL0     H36177   3.208  11.905   5.140  0.2452  0.3537  0.2270
 1009MOL0     H36178   3.300  11.680   5.049  0.1006 -1.8920  2.1343
 1009MOL0     H36179   3.685  11.566   5.137  1.8604 -4.2305 -1.9351
 1009MOL0     H36180   3.631  11.485   5.287 -2.7729  1.7724  0.4813
 1009MOL0     H36181   3.573  11.285   5.199  1.1299 -0.9838  0.0670
 1009MOL0     H36182   3.583  11.336   5.033 -1.8596  0.7296  0.5865
 1009MOL0     H36183   3.808  11.340   5.024  1.0544 -2.5704  0.5465
 1009MOL0     H36184   3.832  11.361   5.213  1.8654 -1.5573 -0.3264
 1009MOL0     H36185   3.774  11.097   5.075  0.1983 -2.8253  2.3517
 1009MOL0     H36186   3.753  11.136   5.245 -4.3552 -1.4733 -1.4245
 1009MOL0     H36187   3.985  11.031   5.179 -0.5719 -1.4073 -3.7269
 1009MOL0     H36188   4.015  11.186   5.241  1.5892 -1.1471 -0.4771
 1009MOL0     H36189   3.996  11.117   4.944 -0.2361  1.2021  0.4922
 1009MOL0     H36190   4.020  11.279   5.001 -3.3509 -0.0457  1.5446
 1009MOL0     H36191   4.220  11.229   5.134  0.8213  0.3265 -0.8561
 1009MOL0     H36192   4.249  11.185   4.966 -1.8403 -2.5366 -2.0223
 1009MOL0     H36193   4.344  11.024   5.118  0.8429  1.1708  2.7222
 1009MOL0     H36194   4.198  11.008   5.210  0.0477 -4.0087 -0.0295
 1009MOL0     H36195   3.575  11.679   5.368 -1.9546 -2.4131 -0.1216
 1009MOL0     H36196   3.493  11.911   5.439 -0.2391  1.0558  0.3379
 1009MOL0     H36197   3.301  12.181   5.554  0.0312 -0.3032 -0.3739
 1009MOL0     H36198   3.239  12.332   5.713 -1.0876  1.7484  1.4027
 1009MOL0     H36199   3.119  11.287   6.346 -1.4362  2.9714  2.2267
 1009MOL0     H36200   3.088  11.044   6.304  3.3726  2.3085 -2.1116
 1009MOL0     H36201   3.108  10.711   6.303 -2.2028  0.3493  0.8431
 1009MOL0     H36202   3.071  10.505   6.178 -0.7510  1.8399  0.1875
 1009MOL0     H36203   3.111  10.308   6.081  0.2167 -0.7501 -1.4799
 1009MOL0     H36204   2.945  10.277   6.138  0.4723 -1.3444  0.2455
 1009MOL0     H36205   3.171  10.082   6.094 -0.7423 -1.9822  2.3055
 1009MOL0     H36206   3.031  10.095   5.996  0.4800  0.4803 -0.2660
 1009MOL0     H36207   2.891  10.017   6.192  1.1818  0.2197 -2.1263
 1009MOL0     H36208   3.035   9.976   6.286  2.4387 -0.5243  0.2087
 1009MOL0     H36209   3.114   9.843   6.091 -0.8743 -1.2227 -1.7863
 1009MOL0     H36210   3.001   9.770   6.203  0.3664 -2.3733 -1.7406
 1009MOL0     H36211   2.811   9.781   5.816 -2.9785 -1.1230  0.8127
 1009MOL0     H36212   3.148  10.280   6.534 -1.0382 -2.7124 -2.0176
 1009MOL0     H36213   3.209  10.558   6.754  2.5149 -3.1294  1.1726
 1009MOL0     H36214   3.054  10.469   6.735 -0.3324 -1.3486 -1.5426
 1009MOL0     H36215   3.203  10.385   6.731 -1.7035 -0.5267  0.6953
 1010MOL0     O36216   4.226   2.355   9.364  0.3247 -0.2284  0.1219
 1010MOL0     C36217   4.137   2.376   9.440  0.0461  0.3541  0.0043
 1010MOL0     O36218   4.049   2.473   9.428  0.1023 -0.5177  0.7540
 1010MOL0     C36219   4.074   2.586   9.355 -0.1539 -0.4576 -0.8085
 1010MOL0     C36220   3.989   2.611   9.250 -0.2125 -0.2482 -0.3656
 1010MOL0     C36221   3.993   2.731   9.171  0.9460 -0.8487  0.2307
 1010MOL0     C36222   4.090   2.832   9.212 -0.6730 -1.1840  0.4257
 1010MOL0     O36223   4.112   2.955   9.156 -0.7367  0.5580  1.1300
 1010MOL0     C36224   4.104   2.960   9.011 -0.4044 -0.6437  0.0892
 1010MOL0     C36225   4.125   3.110   8.965 -0.6359 -0.1068 -0.2793
 1010MOL0     C36226   4.152   3.106   8.817 -0.5215 -0.0508 -0.2176
 1010MOL0     C36227   4.300   3.070   8.778  0.5435  0.1011 -0.0558
 1010MOL0     C36228   4.319   3.096   8.625 -0.7951 -0.1875  0.1813
 1010MOL0     C36229   4.217   3.002   8.541  0.2115 -0.1467 -0.5924
 1010MOL0     C36230   4.232   3.005   8.391  0.4181  0.0176 -0.2407
 1010MOL0     C36231   4.113   2.924   8.321 -0.5922 -0.2481 -0.3007
 1010MOL0     N36232   4.142   2.790   8.368 -0.3903  0.2511  0.6556
 1010MOL0     C36233   4.249   2.711   8.319  0.3525  0.2114  0.3989
 1010MOL0     C36234   4.203   2.579   8.331  1.5351 -1.0004 -0.5265
 1010MOL0     C36235   4.272   2.453   8.277  0.7668 -1.0190 -1.0551
 1010MOL0     C36236   4.343   2.370   8.383 -0.1334  0.7051  0.3828
 1010MOL0     C36237   4.252   2.310   8.497 -0.2987  0.5635 -0.5983
 1010MOL0     C36238   4.132   2.247   8.434 -0.1433  0.4554  0.2783
 1010MOL0     O36239   4.157   2.159   8.327  0.3798  0.2344 -0.7465
 1010MOL0     C36240   4.042   2.101   8.286 -0.1067  0.9766  0.1810
 1010MOL0     C36241   3.932   2.174   8.233 -0.5970 -0.3156  0.5479
 1010MOL0     C36242   3.833   2.104   8.165 -0.0349  0.5174  0.1371
 1010MOL0     C36243   3.833   1.963   8.156 -0.4846 -1.1456 -0.6017
 1010MOL0     C36244   3.718   1.886   8.095 -0.3044  0.5150  0.0799
 1010MOL0     O36245   3.609   1.955   8.061  0.5309  0.5360  0.4341
 1010MOL0     C36246   3.492   1.886   8.069  0.8428  0.0797 -0.5436
 1010MOL0     C36247   3.391   1.976   8.108  0.6693 -0.1616  0.6886
 1010MOL0     C36248   3.255   1.934   8.119 -0.4054  0.0542 -0.7089
 1010MOL0     C36249   3.224   1.803   8.082 -0.4634 -0.2481  0.9652
 1010MOL0     O36250   3.094   1.755   8.103  0.2386  0.3592 -0.7249
 1010MOL0     C36251   3.056   1.641   8.014 -0.6674  0.2803 -0.2335
 1010MOL0     C36252   2.912   1.609   7.993  0.3855  1.0111  0.2311
 1010MOL0     C36253   2.888   1.459   7.959  0.9050  0.1469 -0.4352
 1010MOL0     C36254   2.840   1.366   8.077 -1.0160  0.6037  0.4948
 1010MOL0     C36255   2.928   1.367   8.204  0.4795 -0.9409  0.8273
 1010MOL0     C36256   3.053   1.298   8.169 -0.3667 -0.0695 -0.0298
 1010MOL0     C36257   3.152   1.278   8.284  0.0118  1.3906  0.3413
 1010MOL0     C36258   3.166   1.403   8.372 -0.5487 -1.0704 -0.3597
 1010MOL0    Cl36259   3.261   1.364   8.517 -0.1460  0.0262  0.1102
 1010MOL0     C36260   3.326   1.714   8.046  0.3721  0.2430 -0.5975
 1010MOL0     C36261   3.453   1.753   8.030  0.3882 -1.1834 -1.2357
 1010MOL0     O36262   3.741   1.767   8.068 -0.4833 -0.9081 -0.2561
 1010MOL0     C36263   3.948   1.902   8.203 -0.0230 -0.4047 -0.4575
 1010MOL0     C36264   4.056   1.968   8.261  0.2798  1.1607 -0.0079
 1010MOL0     N36265   4.075   2.574   8.388 -0.3604 -0.2787 -0.3784
 1010MOL0     N36266   4.045   2.702   8.411 -0.3414 -0.5857  0.5155
 1010MOL0     C36267   4.182   2.794   9.316  0.4138 -0.7230  0.0600
 1010MOL0     C36268   4.162   2.683   9.394  0.1580  0.5997  0.6165
 1010MOL0     C36269   4.120   2.293   9.564  0.6428  0.5831  0.1749
 1010MOL0     C36270   4.069   2.360   9.682 -0.5646  0.9368  1.1890
 1010MOL0     C36271   4.063   2.290   9.806  0.6806 -0.6666 -0.1695
 1010MOL0     C36272   4.092   2.152   9.819  1.0296  0.1289 -0.2937
 1010MOL0     O36273   4.080   2.084   9.944  0.1948  0.1677  0.6868
 1010MOL0     C36274   4.020   1.956   9.964 -0.1271  0.7237  0.4669
 1010MOL0     C36275   3.864   1.952   9.973 -0.3333  0.2086  0.8969
 1010MOL0     C36276   3.812   1.913   9.836  0.5804  0.0640 -0.4870
 1010MOL0     C36277   3.664   1.875   9.847 -0.5834  0.6005 -0.2708
 1010MOL0     C36278   3.593   1.854   9.725  0.6012  0.8430 -0.1686
 1010MOL0     C36279   3.523   1.840   9.633  0.2790 -0.3585  0.5927
 1010MOL0     C36280   4.130   2.085   9.694  0.6891 -0.7558 -0.6410
 1010MOL0     C36281   4.154   2.160   9.576  0.0409 -0.3421 -0.1376
 1010MOL0     C36282   4.219   2.085   9.467 -0.6386  1.6863 -1.2612
 1010MOL0     H36283   3.913   2.535   9.230  0.3629 -1.0269  0.3356
 1010MOL0     H36284   3.923   2.749   9.090  0.9317 -0.0058  0.4270
 1010MOL0     H36285   4.183   2.896   8.971 -0.3770 -0.5976  0.0699
 1010MOL0     H36286   4.018   2.916   8.959 -3.0978  1.3602  2.5207
 1010MOL0     H36287   4.208   3.157   9.019  0.5997 -2.6612  0.1971
 1010MOL0     H36288   4.032   3.163   8.990 -0.4097 -0.0460  0.4729
 1010MOL0     H36289   4.129   3.202   8.771  0.4270 -1.1414 -3.1810
 1010MOL0     H36290   4.087   3.037   8.763  0.1857 -0.2821 -0.7866
 1010MOL0     H36291   4.365   3.133   8.840  1.4293 -0.9233  0.0704
 1010MOL0     H36292   4.314   2.964   8.798 -2.8613 -0.6264 -0.8681
 1010MOL0     H36293   4.293   3.200   8.605 -1.0262 -0.3354 -0.3071
 1010MOL0     H36294   4.426   3.086   8.604  0.1399 -2.8439  4.8450
 1010MOL0     H36295   4.236   2.898   8.569 -3.2758 -1.1939 -1.5966
 1010MOL0     H36296   4.113   3.023   8.570  0.0309 -0.5367 -0.9445
 1010MOL0     H36297   4.331   2.963   8.369 -0.4478 -2.1510 -0.3239
 1010MOL0     H36298   4.236   3.106   8.350  0.1114 -0.7154 -2.2365
 1010MOL0     H36299   4.014   2.958   8.353 -1.2406 -0.4974 -1.9673
 1010MOL0     H36300   4.111   2.921   8.212 -0.1779 -0.3136 -0.3096
 1010MOL0     H36301   4.348   2.728   8.277 -0.3510 -0.8005 -1.8298
 1010MOL0     H36302   4.194   2.403   8.219 -1.2569  1.2783 -0.4757
 1010MOL0     H36303   4.349   2.477   8.202  2.4470 -1.1571  0.5521
 1010MOL0     H36304   4.401   2.290   8.335 -2.0087 -1.1928  1.1363
 1010MOL0     H36305   4.417   2.440   8.423  0.1666  0.9842 -0.6329
 1010MOL0     H36306   4.224   2.385   8.572  1.7231  2.0863 -1.2669
 1010MOL0     H36307   4.316   2.240   8.550 -1.4443 -1.8341 -2.2034
 1010MOL0     H36308   4.053   2.318   8.409 -1.4290 -1.1630 -0.4575
 1010MOL0     H36309   4.093   2.186   8.517  0.6862 -0.2063  0.2019
 1010MOL0     H36310   3.922   2.282   8.238  0.5861 -0.1500 -0.3982
 1010MOL0     H36311   3.733   2.144   8.150 -1.2150 -2.5615 -0.9338
 1010MOL0     H36312   3.411   2.081   8.131  1.5416  0.1132 -1.1695
 1010MOL0     H36313   3.174   1.997   8.153 -1.1223 -1.2046  0.0169
 1010MOL0     H36314   3.106   1.645   7.917 -3.0682 -1.1061 -1.6481
 1010MOL0     H36315   3.096   1.555   8.069  5.4405  2.5102 -0.4757
 1010MOL0     H36316   2.845   1.617   8.079  1.0168 -0.2209  0.8618
 1010MOL0     H36317   2.879   1.667   7.906 -1.5772 -1.9842 -1.2410
 1010MOL0     H36318   2.806   1.453   7.887  0.0442  0.1287  0.5210
 1010MOL0     H36319   2.973   1.413   7.908  1.1967 -0.6336  0.7077
 1010MOL0     H36320   2.818   1.267   8.036  0.6551  0.0012  0.9827
 1010MOL0     H36321   2.743   1.405   8.108 -1.4592  0.0014 -0.1180
 1010MOL0     H36322   2.885   1.323   8.294 -1.5070 -0.0405  0.3615
 1010MOL0     H36323   2.944   1.469   8.241  1.9716 -0.3016 -1.3930
 1010MOL0     H36324   3.029   1.200   8.127 -2.2298  0.8614 -1.2486
 1010MOL0     H36325   3.107   1.355   8.093 -0.3312  0.6666  0.5310
 1010MOL0     H36326   3.254   1.257   8.248 -0.2018  1.5760 -0.3890
 1010MOL0     H36327   3.116   1.190   8.339 -0.6131  1.2332 -0.3058
 1010MOL0     H36328   3.218   1.468   8.300 -2.3599 -0.3296 -1.0584
 1010MOL0     H36329   3.077   1.454   8.409 -0.1872 -0.9525  0.3611
 1010MOL0     H36330   3.297   1.610   8.033 -0.1955 -0.2555  3.2484
 1010MOL0     H36331   3.523   1.679   7.995 -0.4208 -1.5340 -2.1622
 1010MOL0     H36332   3.963   1.795   8.204  0.7926 -0.3446  2.0389
 1010MOL0     H36333   4.152   1.927   8.290 -0.6743 -0.3543  1.1457
 1010MOL0     H36334   4.253   2.871   9.342 -1.5705 -0.2885  5.4992
 1010MOL0     H36335   4.231   2.661   9.476  2.1587 -0.9062 -1.3452
 1010MOL0     H36336   4.045   2.466   9.686 -2.5737  0.4877  1.7278
 1010MOL0     H36337   4.023   2.331   9.898  3.2065  1.6219  0.0469
 1010MOL0     H36338   4.044   1.921  10.065 -2.6769 -3.1744 -0.0704
 1010MOL0     H36339   4.059   1.875   9.903 -2.0226 -0.7426  1.1082
 1010MOL0     H36340   3.839   2.055  10.000  1.9777  0.8686  0.7529
 1010MOL0     H36341   3.836   1.883  10.053 -1.7231 -0.0429  0.2088
 1010MOL0     H36342   3.870   1.829   9.794 -3.5358 -3.6274  0.5077
 1010MOL0     H36343   3.818   2.002   9.772 -1.1545  0.2736 -0.4136
 1010MOL0     H36344   3.648   1.781   9.900 -1.4836  0.9553  0.1250
 1010MOL0     H36345   3.604   1.953   9.895 -1.4518  1.0323 -1.9885
 1010MOL0     H36346   3.481   1.835   9.534 -1.6439  2.5399  1.1569
 1010MOL0     H36347   4.177   1.988   9.705  3.4415  0.5888  0.4718
 1010MOL0     H36348   4.157   2.083   9.376 -1.8159  1.0766 -0.4642
 1010MOL0     H36349   4.316   2.133   9.454  0.1390  0.3370 -0.6084
 1010MOL0     H36350   4.245   1.981   9.484 -2.6724  1.4559  0.8572
 1011MOL0     O36351   2.322   9.985   3.066  0.3771  0.8492  0.8771
 1011MOL0     C36352   2.289  10.020   2.951  0.0697  1.4811  0.5580
 1011MOL0     O36353   2.321  10.137   2.888 -0.2223 -0.6555  0.2937
 1011MOL0     C36354   2.401  10.223   2.950 -0.1818 -0.7219 -0.1778
 1011MOL0     C36355   2.536  10.198   2.986 -0.5760 -0.2774 -0.4358
 1011MOL0     C36356   2.604  10.301   3.060  0.3206  0.9926 -0.0196
 1011MOL0     C36357   2.542  10.423   3.088 -0.3338  0.5603 -0.2527
 1011MOL0     O36358   2.612  10.520   3.155 -0.2382 -0.8651  0.0243
 1011MOL0     C36359   2.541  10.615   3.243 -0.4045  0.4702 -0.3085
 1011MOL0     C36360   2.625  10.631   3.375 -0.5066 -0.2356  0.0207
 1011MOL0     C36361   2.592  10.771   3.425  0.1010 -0.0345  0.6082
 1011MOL0     C36362   2.680  10.864   3.353 -0.4392 -0.3623 -0.2186
 1011MOL0     C36363   2.641  11.018   3.380 -0.3778  0.1112 -0.0729
 1011MOL0     C36364   2.744  11.124   3.330  0.0137  0.7763 -0.7240
 1011MOL0     C36365   2.754  11.140   3.176 -0.1947  0.4968 -0.0541
 1011MOL0     C36366   2.802  11.281   3.131  0.1949 -0.5012 -0.2834
 1011MOL0     N36367   2.682  11.375   3.123 -0.2147 -0.3855  0.5460
 1011MOL0     C36368   2.646  11.480   3.200 -0.6258  0.5226 -0.7852
 1011MOL0     C36369   2.546  11.543   3.140  0.0962  0.0584 -0.1885
 1011MOL0     C36370   2.485  11.675   3.186  0.0217  0.6925  0.0936
 1011MOL0     C36371   2.350  11.658   3.269 -0.4955  0.5444  0.7279
 1011MOL0     C36372   2.287  11.799   3.285 -0.0456  0.1711  0.1699
 1011MOL0     C36373   2.156  11.777   3.364 -0.2900  0.6071  1.1914
 1011MOL0     O36374   2.181  11.757   3.505  0.3823  0.1816  0.7271
 1011MOL0     C36375   2.072  11.739   3.591 -0.0681  0.0620  0.6139
 1011MOL0     C36376   2.101  11.748   3.735 -0.8663 -1.0080  0.3745
 1011MOL0     C36377   1.995  11.727   3.828 -0.1492  0.2432 -0.2821
 1011MOL0     C36378   1.864  11.688   3.792 -0.4070 -0.3780  0.9391
 1011MOL0     C36379   1.769  11.656   3.900  0.1099 -0.2932  0.6518
 1011MOL0     O36380   1.817  11.618   4.027  0.1929 -0.0762  0.2774
 1011MOL0     C36381   1.721  11.613   4.124 -0.0015  0.5331 -0.8431
 1011MOL0     C36382   1.658  11.730   4.172  0.5681 -0.5325  0.4472
 1011MOL0     C36383   1.569  11.716   4.273  0.3527 -0.4443  0.7277
 1011MOL0     C36384   1.524  11.590   4.324 -0.5824 -0.0980 -0.2325
 1011MOL0     O36385   1.436  11.591   4.425  0.6334  0.1185 -0.3416
 1011MOL0     C36386   1.379  11.458   4.464 -0.0810 -0.8496  0.8185
 1011MOL0     C36387   1.275  11.477   4.569 -0.1286  0.1650 -0.6923
 1011MOL0     C36388   1.327  11.577   4.685  0.3186  0.8691  0.0285
 1011MOL0     C36389   1.260  11.715   4.671 -0.1739 -0.0712  0.8806
 1011MOL0     C36390   1.304  11.818   4.771  0.6434 -0.0176 -0.1863
 1011MOL0     C36391   1.445  11.873   4.774  0.1153  0.2709 -0.1272
 1011MOL0     C36392   1.472  11.962   4.892  0.2597 -0.3155  0.0251
 1011MOL0     C36393   1.452  12.105   4.849 -0.0289 -0.8012  0.4438
 1011MOL0    Cl36394   1.275  12.155   4.846  0.0149  0.2730  0.1953
 1011MOL0     C36395   1.577  11.474   4.264  0.0451 -0.2623 -0.0926
 1011MOL0     C36396   1.672  11.484   4.164  0.6120 -0.7755  0.5844
 1011MOL0     O36397   1.655  11.685   3.865 -0.8729  0.1468  0.7659
 1011MOL0     C36398   1.838  11.695   3.651  0.8023 -0.0587 -0.2372
 1011MOL0     C36399   1.938  11.712   3.557  0.2039 -0.1669  0.3725
 1011MOL0     N36400   2.520  11.483   3.017 -0.2323  0.3827 -1.0137
 1011MOL0     N36401   2.604  11.385   3.009  0.2077  1.0181  0.3610
 1011MOL0     C36402   2.411  10.437   3.049  0.2622 -0.4756 -0.9182
 1011MOL0     C36403   2.336  10.339   2.989 -0.7326  0.6006 -0.3608
 1011MOL0     C36404   2.205   9.919   2.886  0.3081  0.2268 -0.3445
 1011MOL0     C36405   2.216   9.782   2.919  0.5863 -0.6095 -0.6695
 1011MOL0     C36406   2.157   9.680   2.843  0.1433  0.3575  0.1317
 1011MOL0     C36407   2.084   9.714   2.730  0.1019  1.0058  0.2242
 1011MOL0     O36408   2.021   9.620   2.647 -0.2652  0.5525 -0.8330
 1011MOL0     C36409   2.088   9.500   2.610  0.6830 -1.0421 -0.0443
 1011MOL0     C36410   2.030   9.438   2.489 -0.3042 -0.8422  0.4776
 1011MOL0     C36411   2.058   9.513   2.367  0.4746 -0.0323 -0.8410
 1011MOL0     C36412   2.003   9.440   2.244  0.0620 -1.1110 -0.9207
 1011MOL0     C36413   2.116   9.425   2.146  0.5362  0.7832  0.7691
 1011MOL0     C36414   2.190   9.412   2.052  0.2106 -1.2121 -0.0661
 1011MOL0     C36415   2.072   9.844   2.698 -0.3936 -0.6447  0.1501
 1011MOL0     C36416   2.121   9.947   2.776  0.1748 -0.1777  0.4040
 1011MOL0     C36417   2.086  10.082   2.738  0.1874 -0.1344  1.0606
 1011MOL0     H36418   2.588  10.107   2.957  1.2046  0.1793  1.1534
 1011MOL0     H36419   2.705  10.282   3.092 -0.6460 -0.8349  2.2375
 1011MOL0     H36420   2.546  10.710   3.190  3.0921  1.0807  0.8729
 1011MOL0     H36421   2.440  10.578   3.266 -0.3938 -0.6935 -1.9726
 1011MOL0     H36422   2.733  10.622   3.356 -0.9883 -1.1586 -2.8814
 1011MOL0     H36423   2.615  10.558   3.455  0.4825 -1.0609 -0.5885
 1011MOL0     H36424   2.627  10.772   3.528 -2.0872  1.1542  1.4164
 1011MOL0     H36425   2.487  10.800   3.436 -0.1770 -1.0689  0.7624
 1011MOL0     H36426   2.784  10.864   3.388 -0.7333  2.5566  0.9275
 1011MOL0     H36427   2.672  10.848   3.245 -0.7247 -1.9645  0.0179
 1011MOL0     H36428   2.538  11.039   3.350  0.2494  0.9555 -1.7382
 1011MOL0     H36429   2.633  11.033   3.488 -0.3229  0.8122 -0.1655
 1011MOL0     H36430   2.706  11.224   3.356 -2.2273  0.6553 -3.1565
 1011MOL0     H36431   2.845  11.106   3.368  0.0901 -1.9031 -1.9533
 1011MOL0     H36432   2.659  11.114   3.128  0.3985 -1.5598 -0.1917
 1011MOL0     H36433   2.833  11.067   3.156 -0.4509 -0.0285  0.7762
 1011MOL0     H36434   2.873  11.315   3.207  0.4450  0.3371 -0.8789
 1011MOL0     H36435   2.853  11.285   3.034 -2.5813 -1.0282 -1.8697
 1011MOL0     H36436   2.693  11.517   3.290 -2.6165  0.2183  0.4535
 1011MOL0     H36437   2.542  11.753   3.237 -0.7417  0.3510  1.5366
 1011MOL0     H36438   2.447  11.727   3.098 -0.8541  0.7895  0.5141
 1011MOL0     H36439   2.282  11.589   3.218 -2.6618  1.4440  2.2320
 1011MOL0     H36440   2.367  11.616   3.369 -0.3965  2.0009  1.3462
 1011MOL0     H36441   2.267  11.850   3.190  3.3412  1.9655  0.2897
 1011MOL0     H36442   2.355  11.864   3.341  0.2080  1.5922 -1.7030
 1011MOL0     H36443   2.105  11.687   3.326  3.4406 -0.9972 -0.5573
 1011MOL0     H36444   2.088  11.862   3.360  0.9348  1.6120  1.2553
 1011MOL0     H36445   2.197  11.775   3.779 -1.2905 -0.1469  0.7951
 1011MOL0     H36446   2.027  11.735   3.931 -2.4293  0.4541  0.4510
 1011MOL0     H36447   1.697  11.823   4.132  0.1026 -1.0379 -1.2618
 1011MOL0     H36448   1.536  11.803   4.329  2.7450 -1.3901  3.9136
 1011MOL0     H36449   1.329  11.403   4.383 -0.5228  0.5676  0.0995
 1011MOL0     H36450   1.456  11.387   4.495 -0.4589 -1.9428 -0.6389
 1011MOL0     H36451   1.181  11.507   4.521  0.3895  1.5556 -0.8645
 1011MOL0     H36452   1.258  11.377   4.611 -0.7127 -0.6206 -2.6809
 1011MOL0     H36453   1.296  11.537   4.782 -3.0882  2.3967 -0.2803
 1011MOL0     H36454   1.435  11.590   4.679  0.3684  3.1887  3.5103
 1011MOL0     H36455   1.151  11.706   4.670 -0.1417 -0.7112  1.9196
 1011MOL0     H36456   1.294  11.749   4.573  3.4278 -1.9076  1.2888
 1011MOL0     H36457   1.264  11.776   4.864  1.5107  2.2271  1.2653
 1011MOL0     H36458   1.229  11.897   4.771 -2.0312 -2.3198  1.7488
 1011MOL0     H36459   1.515  11.789   4.776  2.6309  2.1350 -2.7874
 1011MOL0     H36460   1.476  11.923   4.682  4.0593 -1.4790  0.0586
 1011MOL0     H36461   1.579  11.958   4.914  0.2953  3.3130  1.1384
 1011MOL0     H36462   1.415  11.938   4.983  0.7534 -0.4930  0.2882
 1011MOL0     H36463   1.498  12.175   4.919 -0.9619  0.6699 -0.3605
 1011MOL0     H36464   1.492  12.125   4.749 -4.5024 -1.2134 -1.6708
 1011MOL0     H36465   1.543  11.374   4.287  1.8181 -0.8630  0.1289
 1011MOL0     H36466   1.713  11.399   4.112  0.8352 -0.1917 -0.2155
 1011MOL0     H36467   1.741  11.664   3.614 -0.2288 -1.0472  2.9632
 1011MOL0     H36468   1.908  11.698   3.453  2.0560 -1.0665 -0.0865
 1011MOL0     H36469   2.357  10.531   3.059 -1.3514 -1.3680 -0.8869
 1011MOL0     H36470   2.229  10.334   2.972 -1.0127 -1.1888  1.5361
 1011MOL0     H36471   2.278   9.759   3.005 -0.8137  0.0668  0.5637
 1011MOL0     H36472   2.173   9.576   2.869  0.3058  1.0454  3.1171
 1011MOL0     H36473   2.079   9.426   2.690  1.0149 -0.1955  0.7919
 1011MOL0     H36474   2.194   9.522   2.590 -0.1551  2.8496 -1.0158
 1011MOL0     H36475   1.922   9.423   2.490 -0.5438  0.6885  0.0477
 1011MOL0     H36476   2.083   9.343   2.475  1.0002 -0.3509  1.8198
 1011MOL0     H36477   2.168   9.519   2.367  0.5830 -0.0543  2.6714
 1011MOL0     H36478   2.009   9.611   2.371  1.6380  0.5376  2.9177
 1011MOL0     H36479   1.969   9.339   2.269  0.3846 -1.1281 -0.5454
 1011MOL0     H36480   1.923   9.485   2.185  1.0689 -0.8410 -2.1413
 1011MOL0     H36481   2.252   9.415   1.965 -1.6162  1.5228 -1.4141
 1011MOL0     H36482   2.022   9.884   2.610 -0.6031 -0.0935  0.5121
 1011MOL0     H36483   2.171  10.112   2.676  0.3085  0.1025  1.3373
 1011MOL0     H36484   1.995  10.075   2.678 -0.0123  2.8382  0.8402
 1011MOL0     H36485   2.076  10.149   2.825 -0.0597  0.7730  0.3517
 1012MOL0     O36486   2.667   7.743  11.463  0.3755  0.2864 -0.2482
 1012MOL0     C36487   2.621   7.652  11.537  0.1928 -0.8052 -0.0957
 1012MOL0     O36488   2.586   7.674  11.661 -0.5108 -0.3803  0.1755
 1012MOL0     C36489   2.611   7.797  11.718 -0.7542  0.2055  0.0179
 1012MOL0     C36490   2.733   7.804  11.786 -0.0933  0.7765 -0.4644
 1012MOL0     C36491   2.769   7.916  11.859  0.6636 -0.0193 -0.2679
 1012MOL0     C36492   2.677   8.030  11.867 -0.3983  0.0295  0.1514
 1012MOL0     O36493   2.717   8.142  11.933 -0.2801 -0.5576 -0.1985
 1012MOL0     C36494   2.609   8.192  12.016 -0.9552 -0.6278 -0.4890
 1012MOL0     C36495   2.665   8.300  12.111  0.7828 -0.3663  0.4383
 1012MOL0     C36496   2.709   8.425  12.044 -0.7140 -0.4306 -0.0756
 1012MOL0     C36497   2.868   8.434  12.063 -0.2095  0.2383  0.7409
 1012MOL0     C36498   2.922   8.565  11.997  1.6007 -0.4930  0.2278
 1012MOL0     C36499   3.077   8.582  12.013 -1.0038  0.2672  0.1093
 1012MOL0     C36500   3.141   8.683  11.915  0.1247  0.6246  0.2131
 1012MOL0     C36501   3.145   8.830  11.980  0.8210 -0.6334 -0.8360
 1012MOL0     N36502   3.193   8.922  11.876 -0.0596 -0.0318 -0.0778
 1012MOL0     C36503   3.131   8.996  11.779  1.0756 -0.1189 -1.5344
 1012MOL0     C36504   3.232   9.040  11.700  0.9629 -0.2264  1.1124
 1012MOL0     C36505   3.214   9.109  11.566 -0.5237  0.8937  0.4034
 1012MOL0     C36506   3.352   9.174  11.518  0.7171  0.6901  0.0209
 1012MOL0     C36507   3.322   9.261  11.404 -1.1310  0.0923 -0.7023
 1012MOL0     C36508   3.440   9.346  11.366 -0.6537 -0.1617 -0.7636
 1012MOL0     O36509   3.420   9.433  11.255  0.1388 -0.7915 -0.6648
 1012MOL0     C36510   3.339   9.396  11.151 -0.0682  0.6199  0.2395
 1012MOL0     C36511   3.221   9.459  11.127 -0.1435  0.2179  0.5086
 1012MOL0     C36512   3.134   9.427  11.024 -1.4163  0.3874  0.1967
 1012MOL0     C36513   3.174   9.335  10.923 -0.4919 -0.3843 -1.2761
 1012MOL0     C36514   3.091   9.304  10.812  0.2279  0.5435  0.8685
 1012MOL0     O36515   3.148   9.236  10.714 -1.6250 -0.0584  0.0850
 1012MOL0     C36516   3.093   9.179  10.607  0.8485  0.1375 -0.8084
 1012MOL0     C36517   2.952   9.152  10.593  0.0101 -0.3008 -0.0933
 1012MOL0     C36518   2.913   9.089  10.477  0.4439 -0.1163  0.0848
 1012MOL0     C36519   3.004   9.070  10.370  0.6148  0.6724  0.5454
 1012MOL0     O36520   2.971   8.997  10.263  0.1585 -0.6797 -0.4097
 1012MOL0     C36521   2.834   9.018  10.217  0.1098 -0.0986 -0.0241
 1012MOL0     C36522   2.826   9.048  10.076 -1.2577  0.1921  0.6823
 1012MOL0     C36523   2.914   8.941  10.001  0.9092  0.5219  0.3172
 1012MOL0     C36524   2.839   8.809   9.977  0.4238  0.1408  0.1498
 1012MOL0     C36525   2.954   8.707   9.947  0.2953  0.0791 -0.1517
 1012MOL0     C36526   2.889   8.572   9.943 -0.4553  0.9718  0.5173
 1012MOL0     C36527   2.979   8.471   9.880 -0.4557  0.8898 -0.5085
 1012MOL0     C36528   2.911   8.335   9.862 -0.1721  0.2467 -0.2798
 1012MOL0    Cl36529   2.779   8.344   9.743 -0.0505 -0.4092 -0.2610
 1012MOL0     C36530   3.138   9.088  10.386 -0.3395 -0.0388  0.0038
 1012MOL0     C36531   3.189   9.140  10.505  1.4574  0.5012 -0.8987
 1012MOL0     O36532   2.978   9.352  10.811 -0.2074 -0.2999 -0.0245
 1012MOL0     C36533   3.290   9.256  10.953 -0.9607  0.4740  0.4268
 1012MOL0     C36534   3.376   9.294  11.058  0.7869  0.1094  0.0451
 1012MOL0     N36535   3.344   8.980  11.736  0.4732  0.1930 -0.3690
 1012MOL0     N36536   3.327   8.924  11.851  0.3802 -0.0791 -0.0875
 1012MOL0     C36537   2.550   8.019  11.796  0.0685  0.1511  0.1506
 1012MOL0     C36538   2.527   7.902  11.725 -0.3819  0.5712 -0.7178
 1012MOL0     C36539   2.608   7.507  11.493  0.0636 -0.7298 -0.3729
 1012MOL0     C36540   2.526   7.425  11.567 -0.0263 -0.1334  0.5522
 1012MOL0     C36541   2.485   7.294  11.526 -0.0592 -0.1709  0.2962
 1012MOL0     C36542   2.534   7.248  11.403  0.0531 -0.5338 -0.2799
 1012MOL0     O36543   2.487   7.145  11.325  0.2969  0.8954 -0.3111
 1012MOL0     C36544   2.403   7.058  11.396  0.4136 -0.8561  0.3005
 1012MOL0     C36545   2.493   6.970  11.476 -1.1537  0.3152 -0.2216
 1012MOL0     C36546   2.425   6.880  11.577 -0.0966  0.2377 -0.2308
 1012MOL0     C36547   2.333   6.935  11.682  0.1099 -0.0468 -0.2517
 1012MOL0     C36548   2.219   6.850  11.696  0.3704  0.8423  0.9488
 1012MOL0     C36549   2.120   6.784  11.736 -0.2210 -0.1027  1.5760
 1012MOL0     C36550   2.620   7.332  11.335 -0.1681 -0.2398 -0.8262
 1012MOL0     C36551   2.658   7.461  11.370  0.3553  0.0980 -0.3596
 1012MOL0     C36552   2.773   7.524  11.306 -0.1248 -0.3271  0.9932
 1012MOL0     H36553   2.789   7.711  11.783 -0.2299  0.4249  3.1645
 1012MOL0     H36554   2.871   7.919  11.896 -0.0763  1.9958  1.8262
 1012MOL0     H36555   2.526   8.245  11.968 -1.5248  0.0848  1.2038
 1012MOL0     H36556   2.581   8.115  12.088  4.1277 -0.3974  2.1651
 1012MOL0     H36557   2.749   8.262  12.169 -2.3713  0.6276  6.4984
 1012MOL0     H36558   2.587   8.329  12.183  3.8852  3.0495  2.7507
 1012MOL0     H36559   2.665   8.514  12.090 -0.1761  0.0925 -0.5571
 1012MOL0     H36560   2.680   8.414  11.939  0.5156  0.8703 -0.5757
 1012MOL0     H36561   2.894   8.432  12.170  0.1830 -0.2948  0.6403
 1012MOL0     H36562   2.914   8.356  12.001 -0.0297  1.2691 -0.4434
 1012MOL0     H36563   2.898   8.556  11.891  1.9382 -0.2271  0.1258
 1012MOL0     H36564   2.869   8.652  12.035  2.3169 -0.3546  0.9406
 1012MOL0     H36565   3.102   8.620  12.112  2.2542 -1.1770 -0.0176
 1012MOL0     H36566   3.125   8.485  12.001  0.9776  1.1545  0.5032
 1012MOL0     H36567   3.080   8.669  11.825  0.9324 -3.4933  0.0992
 1012MOL0     H36568   3.240   8.649  11.882  0.0087  0.2017  0.2924
 1012MOL0     H36569   3.045   8.862  12.013  1.3238  0.3418 -0.2116
 1012MOL0     H36570   3.215   8.825  12.064  0.6727  3.3127 -0.2663
 1012MOL0     H36571   3.025   9.018  11.784  0.9569 -0.5329 -2.1290
 1012MOL0     H36572   3.194   9.032  11.491 -1.4044  1.1063  0.4078
 1012MOL0     H36573   3.134   9.183  11.564  2.0624  3.9838  1.9966
 1012MOL0     H36574   3.381   9.240  11.600 -1.1912  2.4240 -0.6261
 1012MOL0     H36575   3.431   9.100  11.506 -0.7264 -1.4237  2.5732
 1012MOL0     H36576   3.244   9.328  11.443  0.2167 -0.2098  2.9333
 1012MOL0     H36577   3.283   9.206  11.319  1.0232 -1.1307 -0.9415
 1012MOL0     H36578   3.511   9.274  11.323  1.1781  0.0453  1.6553
 1012MOL0     H36579   3.484   9.403  11.449  1.2073 -2.4630 -0.0489
 1012MOL0     H36580   3.199   9.535  11.201  3.5180  0.8943  1.0870
 1012MOL0     H36581   3.047   9.491  11.007 -0.1810  1.5233 -2.5517
 1012MOL0     H36582   2.882   9.173  10.672 -2.0230 -0.0938 -1.8650
 1012MOL0     H36583   2.811   9.052  10.478 -1.0317  3.3899  2.2278
 1012MOL0     H36584   2.784   8.923  10.239  0.6952 -0.0508  1.6852
 1012MOL0     H36585   2.780   9.098  10.268  0.1378  0.7035 -1.2320
 1012MOL0     H36586   2.724   9.056  10.036 -1.7047  0.4797  1.8590
 1012MOL0     H36587   2.882   9.140  10.056  0.9997 -0.6976  2.4548
 1012MOL0     H36588   2.941   8.973   9.900 -2.0125 -2.8323 -1.7777
 1012MOL0     H36589   3.016   8.924  10.034  0.2671 -2.4978  0.9889
 1012MOL0     H36590   2.772   8.822   9.891 -3.0437  3.0934  2.9569
 1012MOL0     H36591   2.778   8.785  10.064  1.5460 -1.6427  0.4848
 1012MOL0     H36592   3.031   8.718  10.024 -1.5844 -3.0217  2.4115
 1012MOL0     H36593   3.011   8.733   9.858  1.2278 -2.0312 -0.2501
 1012MOL0     H36594   2.863   8.531  10.041 -0.5667  0.8881  0.4540
 1012MOL0     H36595   2.797   8.578   9.884 -1.1010  1.2979  1.5383
 1012MOL0     H36596   3.060   8.446   9.950 -3.3984 -0.1345  2.8304
 1012MOL0     H36597   3.015   8.494   9.779 -2.1948 -0.6517 -1.5255
 1012MOL0     H36598   2.989   8.266   9.827  1.0627  1.0217  0.8507
 1012MOL0     H36599   2.879   8.284   9.954 -2.8214 -0.8053 -1.6913
 1012MOL0     H36600   3.213   9.061  10.312 -2.1595 -2.3130 -1.1303
 1012MOL0     H36601   3.287   9.186  10.499  1.7154  0.2165  0.6789
 1012MOL0     H36602   3.307   9.163  10.900 -3.1832  0.0166  0.3787
 1012MOL0     H36603   3.465   9.235  11.080  1.3559  1.6870  2.3576
 1012MOL0     H36604   2.470   8.091  11.778 -1.4836 -1.7512 -0.9071
 1012MOL0     H36605   2.435   7.878  11.672 -0.3952 -1.0100 -0.0299
 1012MOL0     H36606   2.491   7.450  11.666  0.7389  1.6724  0.4137
 1012MOL0     H36607   2.417   7.225  11.573 -1.2204 -1.6200 -3.1862
 1012MOL0     H36608   2.363   7.005  11.309 -2.3999  2.4514 -0.6507
 1012MOL0     H36609   2.319   7.108  11.445  0.8168  0.6741 -0.5006
 1012MOL0     H36610   2.555   7.035  11.539 -1.0780 -0.3305  0.3818
 1012MOL0     H36611   2.551   6.908  11.407 -0.5131  0.3548  0.2762
 1012MOL0     H36612   2.497   6.822  11.636  0.4933 -0.0185 -1.1875
 1012MOL0     H36613   2.365   6.807  11.522  3.1763 -1.2199 -2.1355
 1012MOL0     H36614   2.385   6.935  11.778  0.2593  1.8944 -0.2979
 1012MOL0     H36615   2.309   7.039  11.662  1.6231  0.8323  2.0892
 1012MOL0     H36616   2.036   6.724  11.766 -2.9824  2.1796 -1.0009
 1012MOL0     H36617   2.658   7.290  11.242 -1.1716 -2.1895 -0.4203
 1012MOL0     H36618   2.736   7.618  11.266 -0.7496  0.0831  2.4965
 1012MOL0     H36619   2.857   7.554  11.369  1.8167  1.7921 -2.2882
 1012MOL0     H36620   2.810   7.460  11.224 -1.5437 -0.3664  0.3593
 1013MOL0     O36621  10.429   9.687   1.542 -1.0558 -0.2854 -0.0189
 1013MOL0     C36622  10.343   9.619   1.584  0.3344 -0.3890 -0.1685
 1013MOL0     O36623  10.348   9.552   1.701  0.4674  0.4071 -0.1051
 1013MOL0     C36624  10.469   9.523   1.763  0.7348  0.1989  0.0259
 1013MOL0     C36625  10.577   9.469   1.693  0.4246  0.6097 -0.5041
 1013MOL0     C36626  10.691   9.429   1.769 -0.1654  0.6624 -0.3748
 1013MOL0     C36627  10.706   9.462   1.899 -0.1110 -0.7661 -0.3869
 1013MOL0     O36628  10.836   9.452   1.948 -0.6876 -0.1559 -0.3562
 1013MOL0     C36629  10.854   9.460   2.085 -0.1841 -0.1576  0.3499
 1013MOL0     C36630  11.001   9.420   2.134 -0.4480  0.3147 -0.1937
 1013MOL0     C36631  11.103   9.506   2.057 -0.0469  0.2303  0.0480
 1013MOL0     C36632  11.232   9.488   2.121 -0.3898 -0.4035  0.9192
 1013MOL0     C36633  11.341   9.562   2.054  0.1726  0.7932  0.4569
 1013MOL0     C36634  11.480   9.517   2.105  1.1746 -0.5562  0.3424
 1013MOL0     C36635  11.603   9.538   2.007  0.8034  0.2862  0.5531
 1013MOL0     C36636  11.737   9.516   2.073 -0.9778 -0.6720  0.0132
 1013MOL0     N36637  11.845   9.560   1.993  1.1311 -0.4294  0.8477
 1013MOL0     C36638  11.952   9.620   2.050  0.3170  0.5105  0.4507
 1013MOL0     C36639  12.042   9.628   1.955 -0.1330 -0.2268  0.6731
 1013MOL0     C36640  12.171   9.713   1.943  0.2603  0.0578 -0.1816
 1013MOL0     C36641  12.266   9.689   2.065  0.7482 -0.1402  0.2919
 1013MOL0     C36642  12.397   9.770   2.054  0.0768 -0.1927  0.9430
 1013MOL0     C36643  12.468   9.774   2.198  0.6201  0.2024 -0.3940
 1013MOL0     O36644  12.474   9.641   2.269 -0.8930  0.6566 -0.2460
 1013MOL0     C36645  12.539   9.633   2.394 -1.0981  0.0656 -0.2706
 1013MOL0     C36646  12.568   9.510   2.446  0.2406  0.0325 -0.6146
 1013MOL0     C36647  12.651   9.482   2.562 -0.4048  0.3764  0.2588
 1013MOL0     C36648  12.703   9.584   2.638 -0.4681 -1.0473  0.1484
 1013MOL0     C36649  12.780   9.571   2.765  0.5462 -0.2278 -0.1582
 1013MOL0     O36650  12.774   9.451   2.818 -0.7598  0.6608  0.0113
 1013MOL0     C36651  12.862   9.417   2.922  0.6449 -0.6339 -0.0480
 1013MOL0     C36652  12.870   9.482   3.052  0.0133 -0.5741  0.8092
 1013MOL0     C36653  12.950   9.417   3.147 -0.3306 -0.3862  0.0634
 1013MOL0     C36654  13.022   9.307   3.118  0.5821  1.4264  0.9700
 1013MOL0     O36655  13.076   9.237   3.214 -0.4804  0.9008 -0.3628
 1013MOL0     C36656  13.167   9.312   3.294  0.1994 -0.2717  0.5403
 1013MOL0     C36657  13.245   9.219   3.392 -0.7077 -0.1147 -0.1113
 1013MOL0     C36658  13.400   9.240   3.384 -0.4986 -0.0601 -1.0570
 1013MOL0     C36659  13.467   9.171   3.496 -0.9366  0.1497 -0.0690
 1013MOL0     C36660  13.624   9.173   3.496 -0.3557 -0.3439 -0.7039
 1013MOL0     C36661  13.682   9.095   3.614 -0.7063 -0.0074 -0.1596
 1013MOL0     C36662  13.834   9.107   3.619 -0.1227  0.3022 -0.4321
 1013MOL0     C36663  13.889   9.049   3.750  0.0769 -0.0406 -0.0622
 1013MOL0    Cl36664  13.941   8.880   3.742  0.3803 -0.2858 -0.2608
 1013MOL0     C36665  13.003   9.233   3.000  0.8699 -0.3979 -0.7934
 1013MOL0     C36666  12.919   9.296   2.903  1.0270  0.6327  0.5860
 1013MOL0     O36667  12.836   9.671   2.816  0.5069  0.5980 -0.0463
 1013MOL0     C36668  12.685   9.718   2.585 -0.6104 -0.2855  0.0899
 1013MOL0     C36669  12.615   9.736   2.465 -0.2898 -0.2055 -0.5315
 1013MOL0     N36670  11.995   9.563   1.837  0.1474 -0.3288  0.0497
 1013MOL0     N36671  11.872   9.528   1.863  0.1785 -0.5296 -0.2211
 1013MOL0     C36672  10.597   9.528   1.964 -0.2668  0.1668  0.7179
 1013MOL0     C36673  10.476   9.535   1.902  0.6473 -0.6221 -0.9062
 1013MOL0     C36674  10.223   9.601   1.498 -1.4451 -0.6824 -0.3959
 1013MOL0     C36675  10.100   9.597   1.554  0.1461  0.2319 -0.0054
 1013MOL0     C36676   9.985   9.567   1.481 -0.6287 -0.2759 -0.2716
 1013MOL0     C36677   9.990   9.562   1.345 -0.7838  0.0294  0.1984
 1013MOL0     O36678   9.874   9.547   1.272  0.9026  0.1164 -0.4312
 1013MOL0     C36679   9.864   9.588   1.135  0.8731  0.7173 -0.4337
 1013MOL0     C36680   9.778   9.707   1.134 -0.8765  0.1957  0.0083
 1013MOL0     C36681   9.627   9.668   1.154  0.1756 -0.0102 -1.0074
 1013MOL0     C36682   9.514   9.758   1.113  0.8164  0.2858 -0.5386
 1013MOL0     C36683   9.497   9.757   0.962  1.0739 -0.6694  0.5482
 1013MOL0     C36684   9.488   9.778   0.840 -0.1040 -0.0689 -0.0098
 1013MOL0     C36685  10.120   9.568   1.276  0.4541 -0.2957  0.2517
 1013MOL0     C36686  10.236   9.576   1.358 -0.2467 -0.0537 -0.2701
 1013MOL0     C36687  10.371   9.551   1.291  0.3944  0.2314  0.1868
 1013MOL0     H36688  10.571   9.462   1.585  0.3544  2.7413 -0.6806
 1013MOL0     H36689  10.766   9.374   1.712  1.9965  0.5394  2.3709
 1013MOL0     H36690  10.835   9.556   2.135 -2.2432 -0.3318  0.0037
 1013MOL0     H36691  10.776   9.398   2.131 -2.4042  0.4714 -2.3007
 1013MOL0     H36692  11.035   9.318   2.113  0.4021  0.9280 -1.9893
 1013MOL0     H36693  10.984   9.444   2.239  0.9738 -1.3610  0.4664
 1013MOL0     H36694  11.090   9.614   2.058  0.7232  0.3316  1.7153
 1013MOL0     H36695  11.113   9.483   1.950 -2.6520  0.1625 -0.2462
 1013MOL0     H36696  11.234   9.533   2.221 -1.1969  1.1281  0.2809
 1013MOL0     H36697  11.248   9.380   2.125  4.4180  0.0170 -0.3723
 1013MOL0     H36698  11.346   9.532   1.949  2.8355  0.6890  0.5494
 1013MOL0     H36699  11.332   9.670   2.069 -1.4453  0.7350  0.1307
 1013MOL0     H36700  11.498   9.566   2.201 -1.0565  0.5007  0.2956
 1013MOL0     H36701  11.476   9.410   2.127 -1.8110 -0.5348  0.3309
 1013MOL0     H36702  11.606   9.630   1.948  1.7229 -1.1176 -1.7463
 1013MOL0     H36703  11.600   9.453   1.938  0.8228  2.3763 -2.1909
 1013MOL0     H36704  11.742   9.572   2.168  1.3139  1.8565 -1.4566
 1013MOL0     H36705  11.742   9.409   2.096 -0.5445 -0.8514 -0.8787
 1013MOL0     H36706  11.967   9.655   2.152  0.2337 -2.5588  1.6178
 1013MOL0     H36707  12.231   9.691   1.855 -1.0715  4.0147 -2.3210
 1013MOL0     H36708  12.131   9.814   1.941 -0.1302 -0.0829  0.2955
 1013MOL0     H36709  12.215   9.731   2.152 -1.5879  4.4202 -2.8456
 1013MOL0     H36710  12.285   9.583   2.084  1.3604 -0.0125  0.4150
 1013MOL0     H36711  12.378   9.873   2.021  0.8821  0.3642  2.1351
 1013MOL0     H36712  12.461   9.717   1.983  2.0748  3.4814 -0.2651
 1013MOL0     H36713  12.409   9.842   2.261 -1.3928  0.9381 -2.9221
 1013MOL0     H36714  12.571   9.811   2.186 -0.3251  3.2351 -0.0698
 1013MOL0     H36715  12.526   9.425   2.394 -0.9228 -0.2246  0.6677
 1013MOL0     H36716  12.675   9.386   2.608  2.2898  1.9663  2.4896
 1013MOL0     H36717  12.817   9.573   3.076  1.8835 -0.0493  3.4485
 1013MOL0     H36718  12.955   9.466   3.244 -1.7121  2.9514 -1.4259
 1013MOL0     H36719  13.242   9.364   3.234 -1.3532 -1.7376 -2.9387
 1013MOL0     H36720  13.109   9.388   3.348  0.2652  0.4116 -0.3282
 1013MOL0     H36721  13.208   9.229   3.495 -0.8906  1.9582 -0.3332
 1013MOL0     H36722  13.229   9.117   3.356 -2.5140 -0.2661  0.9977
 1013MOL0     H36723  13.447   9.188   3.301  0.6023 -5.1565  2.3041
 1013MOL0     H36724  13.427   9.345   3.395 -0.1567 -0.4153  3.6501
 1013MOL0     H36725  13.439   9.066   3.503  1.1838 -0.3574  3.1931
 1013MOL0     H36726  13.433   9.206   3.594 -0.0717 -3.4890  1.6897
 1013MOL0     H36727  13.651   9.279   3.504  2.9247 -1.0402 -1.1638
 1013MOL0     H36728  13.661   9.125   3.405  2.2090 -1.6298  0.8921
 1013MOL0     H36729  13.644   9.139   3.707 -0.0403 -0.1974  0.2058
 1013MOL0     H36730  13.648   8.991   3.609 -0.0472 -0.1858 -3.8357
 1013MOL0     H36731  13.861   9.211   3.596  2.7246  0.1402  1.5936
 1013MOL0     H36732  13.874   9.053   3.533  0.6155 -1.4972  0.9743
 1013MOL0     H36733  13.976   9.108   3.779  0.3728 -0.3626 -0.2926
 1013MOL0     H36734  13.825   9.065   3.838  3.6917  0.1414  2.7561
 1013MOL0     H36735  13.042   9.132   2.990  2.5427  0.2211 -0.7296
 1013MOL0     H36736  12.902   9.241   2.811 -0.2297  0.3226  0.9920
 1013MOL0     H36737  12.712   9.804   2.644  0.8382 -0.5652 -0.1339
 1013MOL0     H36738  12.605   9.836   2.422 -0.7528  0.3300  0.7462
 1013MOL0     H36739  10.613   9.573   2.062 -2.9140 -0.2366  1.4140
 1013MOL0     H36740  10.388   9.574   1.952 -0.5937 -1.1633 -2.5381
 1013MOL0     H36741  10.087   9.623   1.659  0.5677  2.0156 -0.3610
 1013MOL0     H36742   9.887   9.549   1.525  1.0424 -0.6034  3.7308
 1013MOL0     H36743   9.823   9.512   1.068  0.2845 -1.6880  2.4966
 1013MOL0     H36744   9.954   9.620   1.081  2.6098  2.1672  3.0316
 1013MOL0     H36745   9.797   9.764   1.042 -0.1916 -0.3605 -0.2045
 1013MOL0     H36746   9.822   9.772   1.210  1.3213  1.1161 -1.9454
 1013MOL0     H36747   9.606   9.646   1.259  0.1337 -1.2155 -1.2477
 1013MOL0     H36748   9.601   9.568   1.118 -1.2379 -0.5892  1.3918
 1013MOL0     H36749   9.424   9.716   1.158  0.6346  1.2840  0.0471
 1013MOL0     H36750   9.534   9.859   1.150 -2.2972  0.5486  0.6810
 1013MOL0     H36751   9.482   9.784   0.733 -1.8113 -3.4164 -0.2565
 1013MOL0     H36752  10.107   9.539   1.172  0.1065 -0.8526  0.4436
 1013MOL0     H36753  10.425   9.638   1.251  0.7094 -1.2542 -2.8729
 1013MOL0     H36754  10.449   9.518   1.361  4.3136  1.3196 -3.2427
 1013MOL0     H36755  10.361   9.478   1.211  0.3164  1.3953 -0.8960
 1014MOL0     O36756  11.498   2.097   7.173  0.2839 -0.4740 -0.0389
 1014MOL0     C36757  11.547   2.145   7.073  1.0621 -0.0354  0.5617
 1014MOL0     O36758  11.636   2.075   6.997  0.2115 -0.2465 -0.2522
 1014MOL0     C36759  11.709   1.982   7.066 -0.7177 -0.5747  0.4429
 1014MOL0     C36760  11.664   1.847   7.079 -0.8831 -0.2173  0.4278
 1014MOL0     C36761  11.741   1.754   7.153 -0.3662  0.0613  0.5857
 1014MOL0     C36762  11.850   1.800   7.215 -0.5741  0.3002  0.2532
 1014MOL0     O36763  11.933   1.721   7.294  0.3949  0.3371 -0.0438
 1014MOL0     C36764  11.858   1.642   7.383  0.5234  0.7568 -0.3584
 1014MOL0     C36765  11.951   1.543   7.453 -1.1228  0.1496  1.3132
 1014MOL0     C36766  11.998   1.436   7.359 -0.1882  0.9693 -0.2034
 1014MOL0     C36767  12.069   1.313   7.420  0.3883 -0.7988 -0.9484
 1014MOL0     C36768  12.112   1.204   7.321 -0.3806 -0.0604  0.2983
 1014MOL0     C36769  12.172   1.070   7.375 -0.0959 -0.1149 -0.1773
 1014MOL0     C36770  12.317   1.084   7.422 -1.1844  0.0646  0.0255
 1014MOL0     C36771  12.345   0.971   7.526 -0.1385 -0.4007 -0.4238
 1014MOL0     N36772  12.276   1.007   7.653  1.2572 -0.5338  0.8075
 1014MOL0     C36773  12.321   1.111   7.722 -0.4285 -0.0591  0.1585
 1014MOL0     C36774  12.227   1.131   7.816  0.0625  0.1316  0.8884
 1014MOL0     C36775  12.223   1.224   7.935 -0.4183  0.2534  1.4538
 1014MOL0     C36776  12.287   1.148   8.046  0.5490  1.6084 -0.9516
 1014MOL0     C36777  12.321   1.239   8.166  0.2372 -0.7524 -0.2192
 1014MOL0     C36778  12.418   1.172   8.260  0.2969 -0.6904  0.7599
 1014MOL0     O36779  12.369   1.052   8.316  0.4820  0.0040  0.2328
 1014MOL0     C36780  12.446   0.973   8.391 -0.6561 -0.6349 -0.1070
 1014MOL0     C36781  12.574   1.016   8.432 -0.6501 -1.0951 -0.0600
 1014MOL0     C36782  12.653   0.940   8.514 -0.0732 -0.3871 -0.0183
 1014MOL0     C36783  12.614   0.813   8.544 -0.2643 -0.0024 -0.4355
 1014MOL0     C36784  12.687   0.731   8.646  0.4437 -1.6997  0.6193
 1014MOL0     O36785  12.626   0.626   8.685 -0.2350  0.0100  0.3280
 1014MOL0     C36786  12.685   0.537   8.768 -0.3678 -0.9143  0.0549
 1014MOL0     C36787  12.671   0.555   8.905 -0.3396 -0.0395 -0.6257
 1014MOL0     C36788  12.723   0.455   8.993  0.0645 -0.3814 -0.4467
 1014MOL0     C36789  12.784   0.345   8.943 -0.5366  0.1390  0.0942
 1014MOL0     O36790  12.810   0.255   9.038  0.1798  0.4963 -0.4401
 1014MOL0     C36791  12.872   0.137   8.998 -0.2827  1.0704 -1.1997
 1014MOL0     C36792  12.855   0.034   9.114 -0.4125  0.5492 -0.2509
 1014MOL0     C36793  12.931  -0.100   9.095 -1.3072  0.1343  0.6677
 1014MOL0     C36794  12.936  -0.161   9.235  0.9659 -0.0927 -0.3710
 1014MOL0     C36795  12.968  -0.312   9.244 -0.3793 -0.2621  0.1221
 1014MOL0     C36796  13.098  -0.352   9.165  0.3128  0.2315 -0.6120
 1014MOL0     C36797  13.138  -0.500   9.194 -1.3548  0.2694  0.2424
 1014MOL0     C36798  13.280  -0.512   9.127  0.0448 -0.7151 -1.6530
 1014MOL0    Cl36799  13.376  -0.656   9.172  0.3340  0.2017 -0.1177
 1014MOL0     C36800  12.817   0.340   8.806  0.9664 -0.1737 -0.4169
 1014MOL0     C36801  12.767   0.437   8.721 -0.9772  0.3302 -0.5507
 1014MOL0     O36802  12.796   0.771   8.690  1.0307 -0.0358 -0.1003
 1014MOL0     C36803  12.494   0.768   8.498 -0.4749 -0.5928 -0.5409
 1014MOL0     C36804  12.411   0.844   8.421  0.4155 -0.2360  0.7875
 1014MOL0     N36805  12.132   1.036   7.801 -0.7993  0.8933 -0.1226
 1014MOL0     N36806  12.156   0.963   7.698  0.2215 -0.1382 -0.7596
 1014MOL0     C36807  11.894   1.937   7.200 -0.2453  0.0331  0.6700
 1014MOL0     C36808  11.818   2.028   7.132  0.2750 -0.7942 -0.0076
 1014MOL0     C36809  11.514   2.287   7.036 -0.4568  0.4678  0.1727
 1014MOL0     C36810  11.586   2.358   6.934  0.1609 -0.2225 -0.0113
 1014MOL0     C36811  11.559   2.495   6.902 -0.0327 -0.0367  0.0976
 1014MOL0     C36812  11.459   2.561   6.982 -0.8960 -0.3484 -0.2308
 1014MOL0     O36813  11.425   2.693   6.955 -0.5943  0.6321 -0.2706
 1014MOL0     C36814  11.528   2.792   6.913  0.6439  0.6041 -1.3613
 1014MOL0     C36815  11.487   2.851   6.779  0.0805 -0.1404 -0.0458
 1014MOL0     C36816  11.534   2.776   6.648  0.4711 -0.3197 -0.8510
 1014MOL0     C36817  11.517   2.864   6.521 -0.6115  0.8669 -0.0494
 1014MOL0     C36818  11.605   2.980   6.517  0.3009 -0.6349  0.6487
 1014MOL0     C36819  11.669   3.089   6.526  0.6430  0.0692 -0.1460
 1014MOL0     C36820  11.381   2.492   7.064  0.1776  1.4273 -0.5698
 1014MOL0     C36821  11.400   2.357   7.090  0.0286 -1.1144  0.3107
 1014MOL0     C36822  11.288   2.297   7.168 -0.2905  0.5474 -0.6059
 1014MOL0     H36823  11.591   1.819   7.004 -2.1457 -0.3647  1.6746
 1014MOL0     H36824  11.717   1.648   7.151 -1.9732  0.3701 -2.4237
 1014MOL0     H36825  11.825   1.703   7.467 -0.3587 -3.1158  2.4170
 1014MOL0     H36826  11.777   1.580   7.343  0.4877 -0.6864  1.7735
 1014MOL0     H36827  11.895   1.500   7.536  0.6254  1.7954  3.4361
 1014MOL0     H36828  12.038   1.596   7.493  2.1176 -1.4326 -2.8477
 1014MOL0     H36829  12.064   1.475   7.280 -1.6962 -2.6537 -3.6164
 1014MOL0     H36830  11.915   1.391   7.303  1.0386 -0.1636 -1.1948
 1014MOL0     H36831  12.153   1.354   7.477 -2.8788  2.2080  2.2275
 1014MOL0     H36832  12.016   1.250   7.491  1.6095 -1.0809 -0.2523
 1014MOL0     H36833  12.018   1.200   7.264 -0.3648  0.5921  0.2125
 1014MOL0     H36834  12.185   1.252   7.256  2.5240 -3.4814  0.7570
 1014MOL0     H36835  12.112   1.031   7.458 -1.1720 -0.7236 -1.2107
 1014MOL0     H36836  12.162   0.996   7.294 -1.8881 -1.9162  1.5718
 1014MOL0     H36837  12.344   1.184   7.458  0.7294 -0.2443 -0.4690
 1014MOL0     H36838  12.378   1.082   7.331 -0.8775 -0.2778  0.2366
 1014MOL0     H36839  12.321   0.866   7.505 -1.9220 -0.2463  0.6446
 1014MOL0     H36840  12.452   0.968   7.551  0.1872  0.2849 -1.6387
 1014MOL0     H36841  12.410   1.171   7.712 -0.3405 -0.5661 -3.6773
 1014MOL0     H36842  12.286   1.309   7.907  1.2267 -0.1135  3.7594
 1014MOL0     H36843  12.122   1.253   7.962 -1.4037 -0.9839 -0.6470
 1014MOL0     H36844  12.209   1.077   8.076 -0.1239  2.7944  0.2191
 1014MOL0     H36845  12.379   1.099   8.015 -0.7144  1.4456 -5.2378
 1014MOL0     H36846  12.232   1.273   8.219 -1.0728  0.3262 -2.9089
 1014MOL0     H36847  12.369   1.330   8.129 -0.4315 -0.1990  0.2443
 1014MOL0     H36848  12.441   1.244   8.339 -2.8278  0.7643  0.4868
 1014MOL0     H36849  12.510   1.150   8.206  2.3462  3.0117  2.3967
 1014MOL0     H36850  12.603   1.120   8.419 -3.0991 -0.2791  0.4781
 1014MOL0     H36851  12.749   0.980   8.546 -0.2965  0.4508 -0.3823
 1014MOL0     H36852  12.617   0.646   8.931  0.5191  0.4796 -0.6050
 1014MOL0     H36853  12.686   0.462   9.095 -3.3382 -0.1319 -1.5801
 1014MOL0     H36854  12.819   0.109   8.907 -4.4379  0.9601  1.0313
 1014MOL0     H36855  12.979   0.151   8.980 -0.0882 -0.7141 -1.6361
 1014MOL0     H36856  12.904   0.073   9.203  0.8166 -3.3839  0.9781
 1014MOL0     H36857  12.748   0.020   9.132 -0.3020 -2.2190 -1.2179
 1014MOL0     H36858  12.878  -0.166   9.025 -2.1009  1.2959  0.1498
 1014MOL0     H36859  13.035  -0.083   9.065 -1.8711  0.8959 -0.9873
 1014MOL0     H36860  12.841  -0.138   9.283  0.2822 -0.9496 -1.2628
 1014MOL0     H36861  13.007  -0.094   9.284 -0.7102  1.6499 -0.2392
 1014MOL0     H36862  12.885  -0.366   9.199 -2.1076  2.6953 -0.4998
 1014MOL0     H36863  12.975  -0.337   9.351 -1.3666  0.2932  0.3330
 1014MOL0     H36864  13.075  -0.352   9.058 -1.1118  1.1767 -0.3235
 1014MOL0     H36865  13.179  -0.281   9.186 -1.2228  1.8640  0.0302
 1014MOL0     H36866  13.068  -0.561   9.136 -0.1359  1.0836 -2.2292
 1014MOL0     H36867  13.138  -0.538   9.297 -0.6199  0.5626  0.3562
 1014MOL0     H36868  13.273  -0.524   9.019  2.5246 -0.6712 -1.8921
 1014MOL0     H36869  13.342  -0.426   9.156  0.2495 -1.0495 -1.0759
 1014MOL0     H36870  12.872   0.254   8.770 -1.4365 -2.2161  0.4384
 1014MOL0     H36871  12.793   0.435   8.615  2.1421  1.7856  0.0681
 1014MOL0     H36872  12.446   0.679   8.537  0.0622 -0.5286  0.3199
 1014MOL0     H36873  12.313   0.807   8.390  1.0906 -2.4387  1.1049
 1014MOL0     H36874  11.989   1.973   7.240 -0.3988  1.4245 -0.1449
 1014MOL0     H36875  11.839   2.135   7.135 -3.7101  0.1285  2.2278
 1014MOL0     H36876  11.646   2.302   6.864 -0.9341  1.4960 -2.4361
 1014MOL0     H36877  11.606   2.551   6.822 -0.1426  5.2648  3.2692
 1014MOL0     H36878  11.628   2.747   6.924 -1.2888 -3.6023  1.6069
 1014MOL0     H36879  11.525   2.872   6.987 -0.0120 -0.8582  0.2721
 1014MOL0     H36880  11.522   2.955   6.778  0.2518 -0.1983 -1.0842
 1014MOL0     H36881  11.378   2.854   6.785  0.1140 -0.1531  0.6301
 1014MOL0     H36882  11.477   2.684   6.631  1.1670 -0.9613  0.1417
 1014MOL0     H36883  11.640   2.751   6.660  1.0386  0.2636 -3.8155
 1014MOL0     H36884  11.524   2.807   6.428 -0.0967  0.7163  0.0814
 1014MOL0     H36885  11.414   2.902   6.525 -0.6545  0.6791  0.8377
 1014MOL0     H36886  11.725   3.178   6.547  3.0422 -1.6236  1.1102
 1014MOL0     H36887  11.302   2.546   7.114  1.4343  3.0178 -0.2313
 1014MOL0     H36888  11.313   2.304   7.275 -2.3467  0.3481 -0.0797
 1014MOL0     H36889  11.192   2.349   7.162 -1.3526 -1.3276 -0.6308
 1014MOL0     H36890  11.288   2.190   7.146  0.4432 -0.0669  1.9464
 1015MOL0     O36891   7.777  10.114  11.264  0.1280 -0.6179 -0.0804
 1015MOL0     C36892   7.746  10.137  11.378  0.0156  0.0210 -0.9968
 1015MOL0     O36893   7.685  10.257  11.414  0.7985  0.9966  0.0618
 1015MOL0     C36894   7.603  10.326  11.320  1.4224 -0.9217 -0.6859
 1015MOL0     C36895   7.630  10.352  11.189  0.9554  0.3530 -0.1891
 1015MOL0     C36896   7.548  10.434  11.114 -0.7226 -0.0393 -1.6973
 1015MOL0     C36897   7.428  10.490  11.171  0.4485  0.3303 -0.9887
 1015MOL0     O36898   7.357  10.583  11.099  0.4721  0.4133  0.7877
 1015MOL0     C36899   7.337  10.705  11.166  0.0863  0.7786 -0.8587
 1015MOL0     C36900   7.315  10.795  11.049  0.6986  0.2158  0.1250
 1015MOL0     C36901   7.357  10.939  11.079 -0.1718 -0.9503  1.0340
 1015MOL0     C36902   7.321  11.037  10.966  0.2157 -0.4286  0.4659
 1015MOL0     C36903   7.408  11.161  10.966 -0.4502 -0.7152 -0.3294
 1015MOL0     C36904   7.361  11.273  10.874  0.0168 -0.1765 -0.7887
 1015MOL0     C36905   7.463  11.391  10.855  0.6497 -0.2341 -0.0496
 1015MOL0     C36906   7.432  11.451  10.714  0.5133 -0.5223 -0.3645
 1015MOL0     N36907   7.504  11.576  10.703  0.7909 -0.6602 -0.2194
 1015MOL0     C36908   7.630  11.583  10.644  0.6610  0.9709 -0.5379
 1015MOL0     C36909   7.647  11.712  10.623  0.2540 -0.5009  0.7956
 1015MOL0     C36910   7.777  11.776  10.567 -0.2678  0.4164 -0.4400
 1015MOL0     C36911   7.754  11.920  10.517 -0.6632  0.5781  0.2977
 1015MOL0     C36912   7.870  11.986  10.458 -0.5908 -0.1133  0.3704
 1015MOL0     C36913   7.845  12.121  10.381  0.0365 -0.3340 -0.4586
 1015MOL0     O36914   7.770  12.078  10.264 -0.0272  0.4921 -0.8590
 1015MOL0     C36915   7.812  12.072  10.135  0.2780  0.4527 -0.1130
 1015MOL0     C36916   7.751  11.983  10.043 -0.9437  0.5463 -0.0318
 1015MOL0     C36917   7.805  11.976   9.909 -1.1314  0.7849 -0.2482
 1015MOL0     C36918   7.886  12.074   9.853 -0.3995  0.8131  0.4173
 1015MOL0     C36919   7.928  12.079   9.705  0.6193 -1.0877 -0.5048
 1015MOL0     O36920   7.912  11.977   9.625  0.1683 -0.2487  0.7200
 1015MOL0     C36921   7.940  11.966   9.491 -0.0784  0.2503 -0.0440
 1015MOL0     C36922   7.945  11.830   9.446 -0.2988 -0.3094  0.2229
 1015MOL0     C36923   7.947  11.793   9.313 -0.7567  0.3033  0.2526
 1015MOL0     C36924   7.947  11.884   9.215  0.7589 -0.5535  0.7009
 1015MOL0     O36925   7.966  11.861   9.086  0.0515  0.4606  0.0507
 1015MOL0     C36926   7.926  11.739   9.026  0.3283  0.8563 -0.0310
 1015MOL0     C36927   7.778  11.740   9.001 -0.7799  0.6959 -0.7688
 1015MOL0     C36928   7.742  11.668   8.871  0.4962  0.0850 -0.7671
 1015MOL0     C36929   7.593  11.645   8.860  0.6421 -0.0304  0.9426
 1015MOL0     C36930   7.553  11.598   8.723 -0.3678 -0.7841  0.8056
 1015MOL0     C36931   7.546  11.713   8.616 -0.5771 -0.1364  0.2500
 1015MOL0     C36932   7.422  11.694   8.522 -0.2095 -0.2216  0.3214
 1015MOL0     C36933   7.409  11.792   8.404 -0.1149  0.1832 -1.3620
 1015MOL0    Cl36934   7.522  11.749   8.275 -0.3742 -0.0706  0.0030
 1015MOL0     C36935   7.937  12.015   9.241  0.0448  0.3473  1.0550
 1015MOL0     C36936   7.928  12.059   9.375  0.0602 -0.3525  0.0748
 1015MOL0     O36937   7.987  12.185   9.673  0.3032  0.2901 -0.3292
 1015MOL0     C36938   7.943  12.165   9.953  0.0184  0.1831 -0.0656
 1015MOL0     C36939   7.897  12.166  10.087 -0.0319 -0.3465 -0.6280
 1015MOL0     N36940   7.534  11.787  10.672 -0.4125  0.4714 -0.1501
 1015MOL0     N36941   7.445  11.698  10.703  0.3962  0.2241  0.1460
 1015MOL0     C36942   7.398  10.466  11.306 -0.3383  0.6957 -0.0959
 1015MOL0     C36943   7.483  10.381  11.378 -0.0893  0.0256  0.0724
 1015MOL0     C36944   7.777  10.036  11.486  0.0861  0.6961  0.4802
 1015MOL0     C36945   7.770  10.080  11.620 -0.9867 -0.1470  0.2009
 1015MOL0     C36946   7.811   9.999  11.734 -0.2197  0.3776  1.2723
 1015MOL0     C36947   7.873   9.877  11.700  1.0079  0.1662 -0.5840
 1015MOL0     O36948   7.932   9.803  11.791  0.0971  0.7651 -0.1212
 1015MOL0     C36949   7.931   9.829  11.936 -0.4761  0.1570  0.2273
 1015MOL0     C36950   7.977   9.701  12.004  0.4791 -0.5518  1.9778
 1015MOL0     C36951   7.941   9.702  12.151  0.1433 -0.3065 -0.0173
 1015MOL0     C36952   8.019   9.592  12.222  0.5916  0.5034 -0.4123
 1015MOL0     C36953   8.003   9.462  12.166  0.1943 -0.9491 -0.4712
 1015MOL0     C36954   7.971   9.375  12.088  0.3290 -0.1968  0.4787
 1015MOL0     C36955   7.872   9.831  11.570  0.2356 -0.4676  0.0939
 1015MOL0     C36956   7.832   9.904  11.459  0.6482  0.1778 -0.9888
 1015MOL0     C36957   7.822   9.829  11.323 -0.1315 -0.0502 -0.8594
 1015MOL0     H36958   7.725  10.313  11.155  0.5383  0.6098 -1.7484
 1015MOL0     H36959   7.588  10.477  11.022  2.9156 -0.0797 -0.3143
 1015MOL0     H36960   7.246  10.712  11.228  0.3362 -1.4108 -0.1562
 1015MOL0     H36961   7.422  10.734  11.229  0.1610 -2.7228  0.9296
 1015MOL0     H36962   7.216  10.781  11.004  1.0370 -1.2711 -0.2069
 1015MOL0     H36963   7.386  10.764  10.972 -0.1678 -0.0858 -0.5767
 1015MOL0     H36964   7.464  10.960  11.088 -0.6814  2.5063  0.4062
 1015MOL0     H36965   7.301  10.969  11.169 -0.8620  1.2300 -0.0652
 1015MOL0     H36966   7.335  10.985  10.871 -3.0287 -1.2858  0.3317
 1015MOL0     H36967   7.213  11.057  10.970  0.6624  2.2502  3.0715
 1015MOL0     H36968   7.414  11.203  11.067  3.5966 -1.2970 -0.1777
 1015MOL0     H36969   7.510  11.128  10.945 -0.2864 -1.7654  1.8517
 1015MOL0     H36970   7.338  11.227  10.778  0.8930 -0.3572 -0.9260
 1015MOL0     H36971   7.274  11.314  10.926  0.1090 -1.8657  0.7833
 1015MOL0     H36972   7.567  11.358  10.860  0.6477 -0.2633 -0.1979
 1015MOL0     H36973   7.456  11.455  10.943  0.2423  0.3427 -0.4944
 1015MOL0     H36974   7.464  11.387  10.631  1.0010 -0.9906  0.1673
 1015MOL0     H36975   7.327  11.474  10.697  1.0742  1.1640 -1.8248
 1015MOL0     H36976   7.696  11.497  10.634 -0.6231  0.0280 -1.3446
 1015MOL0     H36977   7.852  11.774  10.647  1.2122  4.3974 -1.4660
 1015MOL0     H36978   7.816  11.713  10.486  1.1379 -1.7431  1.7918
 1015MOL0     H36979   7.680  11.919  10.436 -1.1576 -2.0752  0.6966
 1015MOL0     H36980   7.728  11.990  10.596  0.1226  2.5246 -1.0661
 1015MOL0     H36981   7.904  11.915  10.382 -0.0437 -0.5702  1.0263
 1015MOL0     H36982   7.939  11.996  10.543  1.1228 -0.1500 -0.9634
 1015MOL0     H36983   7.944  12.163  10.365 -0.8543  3.7992  2.9319
 1015MOL0     H36984   7.785  12.187  10.444  0.3578  0.7448 -1.2676
 1015MOL0     H36985   7.679  11.907  10.071  0.1425 -0.7815 -0.7025
 1015MOL0     H36986   7.768  11.897   9.845 -0.8535  2.3575 -2.4739
 1015MOL0     H36987   7.939  11.752   9.521 -0.5876 -0.1528  0.3642
 1015MOL0     H36988   7.941  11.686   9.296  0.7079  0.2806 -0.2263
 1015MOL0     H36989   7.980  11.723   8.932 -0.2472 -0.0289 -0.2215
 1015MOL0     H36990   7.948  11.646   9.079 -3.2698 -0.1131  0.0047
 1015MOL0     H36991   7.727  11.700   9.088  0.4062 -1.7558 -1.1221
 1015MOL0     H36992   7.747  11.845   9.005  0.0520  0.9109  1.6405
 1015MOL0     H36993   7.799  11.711   8.788  0.1124 -0.9577 -1.5959
 1015MOL0     H36994   7.786  11.568   8.867  2.3754  0.9017 -3.4485
 1015MOL0     H36995   7.543  11.740   8.882 -0.5133 -0.0137 -1.4415
 1015MOL0     H36996   7.559  11.574   8.936 -1.7766  1.0796  1.0063
 1015MOL0     H36997   7.450  11.561   8.734 -0.8573  0.9610  2.6876
 1015MOL0     H36998   7.614  11.512   8.693 -1.1621 -1.0134 -0.2299
 1015MOL0     H36999   7.518  11.808   8.662 -1.8550  0.7513 -2.1611
 1015MOL0     H37000   7.638  11.728   8.559  0.8479  0.9405  2.7069
 1015MOL0     H37001   7.325  11.701   8.571 -0.9031  0.7997 -1.1453
 1015MOL0     H37002   7.442  11.599   8.471  0.7863  0.1903 -0.0806
 1015MOL0     H37003   7.313  11.783   8.353 -2.2179  2.0431  1.8647
 1015MOL0     H37004   7.429  11.896   8.431  1.2257  0.2016 -2.3084
 1015MOL0     H37005   7.932  12.088   9.161  3.6662  0.2429  0.6005
 1015MOL0     H37006   7.901  12.163   9.390 -3.2414 -0.6428 -2.5015
 1015MOL0     H37007   8.007  12.247   9.922  1.2521 -0.3901  0.9113
 1015MOL0     H37008   7.949  12.239  10.148  0.2535  1.7573 -3.1951
 1015MOL0     H37009   7.301  10.498  11.342 -0.2189 -0.4841  1.3299
 1015MOL0     H37010   7.466  10.338  11.477 -0.3088  1.3758  0.6399
 1015MOL0     H37011   7.755  10.184  11.645  2.1225  0.5683 -0.5000
 1015MOL0     H37012   7.820  10.024  11.839  4.5800 -1.2067  1.4899
 1015MOL0     H37013   7.830   9.853  11.971 -0.6768 -0.0349 -0.2045
 1015MOL0     H37014   7.996   9.906  11.978 -2.8484  0.4925  3.6595
 1015MOL0     H37015   8.085   9.696  11.991  0.2803 -0.5662  0.0185
 1015MOL0     H37016   7.923   9.618  11.957 -0.0563 -0.0477  1.6881
 1015MOL0     H37017   7.833   9.693  12.163  0.1263  0.1698  0.2007
 1015MOL0     H37018   7.975   9.794  12.199  1.9877 -0.4174 -0.9853
 1015MOL0     H37019   8.127   9.608  12.225  1.7191 -5.0455  2.2014
 1015MOL0     H37020   7.996   9.584  12.328  0.2247 -2.4478 -0.6324
 1015MOL0     H37021   7.952   9.290  12.026  1.5736 -0.6740  0.7146
 1015MOL0     H37022   7.901   9.729  11.549  0.1269 -0.5847  0.5172
 1015MOL0     H37023   7.823   9.721  11.337 -6.0450 -0.0365  3.2853
 1015MOL0     H37024   7.729   9.861  11.277 -0.4823 -0.1209 -0.2111
 1015MOL0     H37025   7.902   9.858  11.254 -1.1232 -0.8800 -2.3871
 1016MOL0     O37026   1.400   6.458   9.412  0.9747  0.0152 -0.5069
 1016MOL0     C37027   1.459   6.418   9.515  0.3735  0.1086  0.3537
 1016MOL0     O37028   1.472   6.487   9.633  0.4732  0.1911  0.0311
 1016MOL0     C37029   1.397   6.604   9.677 -0.3666  0.2197 -0.4622
 1016MOL0     C37030   1.283   6.668   9.626  0.5584  0.5730 -0.1808
 1016MOL0     C37031   1.215   6.764   9.693  0.7519  0.0627 -0.2221
 1016MOL0     C37032   1.247   6.802   9.817  0.6946  0.5718 -0.4047
 1016MOL0     O37033   1.185   6.898   9.888  0.0170  0.5481 -0.2173
 1016MOL0     C37034   1.098   6.842   9.991  0.0938 -0.8342 -1.4053
 1016MOL0     C37035   0.969   6.925   9.974  0.1574 -0.7351 -0.7056
 1016MOL0     C37036   0.861   6.868  10.059  0.1586 -0.6178 -0.7686
 1016MOL0     C37037   0.718   6.894  10.011 -1.0905 -0.1387  0.1587
 1016MOL0     C37038   0.609   6.893  10.120 -0.0641 -1.2567  0.5318
 1016MOL0     C37039   0.597   7.037  10.166 -0.2700  0.5672  0.7225
 1016MOL0     C37040   0.522   7.053  10.303  0.7852 -0.2698  0.4802
 1016MOL0     C37041   0.476   7.194  10.338  0.6279 -0.5574 -1.1220
 1016MOL0     N37042   0.371   7.241  10.253  0.2086 -0.0344 -0.0203
 1016MOL0     C37043   0.243   7.191  10.234  0.1112  0.8093  0.3349
 1016MOL0     C37044   0.180   7.293  10.176  0.6016 -0.6507 -0.9694
 1016MOL0     C37045   0.038   7.285  10.135 -0.3370 -0.5734  0.3366
 1016MOL0     C37046  -0.036   7.329  10.260  0.8806 -0.6094  0.4731
 1016MOL0     C37047  -0.174   7.256  10.274  0.3435 -0.3425 -0.1447
 1016MOL0     C37048  -0.277   7.291  10.165 -0.2113 -1.3777  0.0034
 1016MOL0     O37049  -0.301   7.426  10.124 -0.1796 -0.1985 -0.5147
 1016MOL0     C37050  -0.339   7.499  10.233  0.7640  0.1090 -0.1775
 1016MOL0     C37051  -0.268   7.616  10.274 -0.8953  0.5334 -0.0296
 1016MOL0     C37052  -0.321   7.693  10.377  0.1007  1.0041 -1.3969
 1016MOL0     C37053  -0.439   7.668  10.450  1.3152  0.2078 -0.4487
 1016MOL0     C37054  -0.489   7.742  10.566  0.7233 -0.6586  0.4121
 1016MOL0     O37055  -0.619   7.757  10.574 -1.0489  0.2095  0.3927
 1016MOL0     C37056  -0.668   7.807  10.691  0.7383  0.7840 -0.0405
 1016MOL0     C37057  -0.638   7.920  10.768  0.1764 -0.5438  0.2787
 1016MOL0     C37058  -0.715   7.949  10.884 -0.2068  0.5067 -0.3533
 1016MOL0     C37059  -0.804   7.860  10.943 -0.0808  0.6200  0.2207
 1016MOL0     O37060  -0.855   7.879  11.067 -0.2656  0.4542 -0.4391
 1016MOL0     C37061  -1.000   7.879  11.053  0.2200  0.1477 -0.6593
 1016MOL0     C37062  -1.057   7.881  11.192  0.2359  0.1626  0.3707
 1016MOL0     C37063  -1.048   7.750  11.275 -0.4134 -0.4441 -1.0417
 1016MOL0     C37064  -1.129   7.757  11.405  0.9907 -0.6742 -0.5755
 1016MOL0     C37065  -1.113   7.628  11.485 -0.1185 -0.2989  0.5596
 1016MOL0     C37066  -1.209   7.638  11.604 -1.1396 -0.5325 -0.3741
 1016MOL0     C37067  -1.363   7.591  11.592  0.0730  0.1973 -0.0312
 1016MOL0     C37068  -1.410   7.497  11.486 -0.0576 -0.8809 -0.6727
 1016MOL0    Cl37069  -1.344   7.341  11.488  0.2053  0.0853  0.0993
 1016MOL0     C37070  -0.837   7.750  10.856  1.2295  0.0380 -0.3799
 1016MOL0     C37071  -0.768   7.729  10.733 -0.1448 -0.3273  0.2693
 1016MOL0     O37072  -0.409   7.791  10.643  0.2546  0.0871 -0.2754
 1016MOL0     C37073  -0.513   7.565  10.397  0.1169  0.3147 -0.0049
 1016MOL0     C37074  -0.468   7.483  10.294  0.2882 -0.3155  0.5593
 1016MOL0     N37075   0.260   7.403  10.168 -0.2177 -0.3061  0.0665
 1016MOL0     N37076   0.377   7.372  10.203  0.2479 -0.9175 -0.2638
 1016MOL0     C37077   1.360   6.749   9.882  0.2402 -0.4831  0.1263
 1016MOL0     C37078   1.436   6.660   9.803 -0.2735 -0.1253 -1.2143
 1016MOL0     C37079   1.508   6.277   9.513 -0.9613 -0.2135 -0.2733
 1016MOL0     C37080   1.589   6.240   9.626  0.2714  0.1678 -0.0882
 1016MOL0     C37081   1.651   6.115   9.626 -0.7247 -0.2573 -0.1218
 1016MOL0     C37082   1.638   6.025   9.515  0.4039  0.0718 -0.3023
 1016MOL0     O37083   1.713   5.914   9.503 -0.2773 -0.6604  1.4235
 1016MOL0     C37084   1.784   5.849   9.612 -0.0359 -0.3721 -0.3522
 1016MOL0     C37085   1.923   5.915   9.627  0.1534 -1.1317  0.3403
 1016MOL0     C37086   2.011   5.944   9.506 -0.6148  0.9723 -0.2835
 1016MOL0     C37087   2.048   5.811   9.444  0.1446 -0.5738 -0.2577
 1016MOL0     C37088   2.102   5.710   9.536  0.6120  0.1126  0.4775
 1016MOL0     C37089   2.149   5.627   9.608  0.2502 -0.1762 -0.8024
 1016MOL0     C37090   1.545   6.061   9.421  0.1048  0.3799 -0.2733
 1016MOL0     C37091   1.475   6.179   9.417 -1.4700  0.2635 -0.4197
 1016MOL0     C37092   1.371   6.198   9.314  0.0084 -0.3068 -0.5899
 1016MOL0     H37093   1.235   6.632   9.535 -2.2857 -2.0865  2.1647
 1016MOL0     H37094   1.128   6.821   9.662  2.1540  2.6132  0.3343
 1016MOL0     H37095   1.086   6.733   9.983 -0.1171 -1.1934  2.0485
 1016MOL0     H37096   1.132   6.860  10.094  2.8591  2.6755 -2.7067
 1016MOL0     H37097   0.931   6.923   9.872 -1.5986 -0.7154 -0.0862
 1016MOL0     H37098   0.991   7.027  10.009 -1.5227 -1.2709  2.2574
 1016MOL0     H37099   0.878   6.909  10.159 -2.8445 -0.8254 -0.0683
 1016MOL0     H37100   0.862   6.758  10.059  0.6615 -0.6427 -2.5357
 1016MOL0     H37101   0.719   6.990   9.958 -0.6284 -1.2544 -1.9763
 1016MOL0     H37102   0.705   6.806   9.947  0.4202  0.4893 -1.1113
 1016MOL0     H37103   0.513   6.862  10.077 -1.3465  3.0380 -0.2670
 1016MOL0     H37104   0.643   6.837  10.207  2.4386  1.2277  1.2941
 1016MOL0     H37105   0.699   7.073  10.184  1.8640 -2.5273 -3.6033
 1016MOL0     H37106   0.553   7.103  10.090 -0.1929 -1.1678 -0.8881
 1016MOL0     H37107   0.598   7.031  10.377  1.0849  2.4646  1.0994
 1016MOL0     H37108   0.444   6.980  10.325  0.8077  0.4578  3.3660
 1016MOL0     H37109   0.439   7.207  10.440  0.4471  1.4403 -1.3993
 1016MOL0     H37110   0.559   7.264  10.324 -0.2537  0.1379 -3.3493
 1016MOL0     H37111   0.224   7.084  10.246  3.2985  0.1256  0.2775
 1016MOL0     H37112   0.013   7.353  10.053  0.6340 -2.2005 -1.3868
 1016MOL0     H37113   0.010   7.184  10.105  0.3189 -0.5916 -0.2231
 1016MOL0     H37114   0.025   7.302  10.347  0.5141  1.1177  1.3134
 1016MOL0     H37115  -0.044   7.438  10.265  0.9921 -0.6598  2.2074
 1016MOL0     H37116  -0.218   7.289  10.369 -0.6405 -0.6483 -0.4787
 1016MOL0     H37117  -0.155   7.148  10.278  2.9944 -0.0308 -1.8808
 1016MOL0     H37118  -0.372   7.245  10.193 -0.8400  0.9289  1.9717
 1016MOL0     H37119  -0.232   7.255  10.072  3.9234  2.2264  0.2830
 1016MOL0     H37120  -0.186   7.633  10.204 -4.1836 -1.5683 -4.9997
 1016MOL0     H37121  -0.278   7.789  10.402  0.1402  0.1988  2.1450
 1016MOL0     H37122  -0.558   7.987  10.739  0.2320 -2.2371 -4.3900
 1016MOL0     H37123  -0.697   8.035  10.948 -0.4360  0.0786  0.2988
 1016MOL0     H37124  -1.026   7.974  11.004 -0.9092  1.7509  2.7540
 1016MOL0     H37125  -1.047   7.789  11.013 -3.3242  0.4766  2.2255
 1016MOL0     H37126  -1.004   7.955  11.252 -2.2968  0.1265  2.8574
 1016MOL0     H37127  -1.161   7.913  11.185  0.7933  1.6980 -2.3191
 1016MOL0     H37128  -1.082   7.669  11.211  0.5040 -1.5499 -0.1767
 1016MOL0     H37129  -0.945   7.730  11.305 -1.2603 -1.8228  1.2467
 1016MOL0     H37130  -1.233   7.790  11.399  1.8388  2.6739  0.8533
 1016MOL0     H37131  -1.083   7.840  11.459 -1.3720  1.3557 -1.5052
 1016MOL0     H37132  -1.006   7.614  11.505  0.2101  1.9583  0.5870
 1016MOL0     H37133  -1.143   7.551  11.414  0.4688 -0.2247  0.2237
 1016MOL0     H37134  -1.161   7.575  11.679 -1.0501 -1.1494 -0.9402
 1016MOL0     H37135  -1.205   7.739  11.644 -0.2017 -0.6252 -0.2133
 1016MOL0     H37136  -1.419   7.684  11.576 -2.2135 -1.1523 -0.3465
 1016MOL0     H37137  -1.405   7.548  11.684 -5.0791  2.3493 -1.0592
 1016MOL0     H37138  -1.518   7.477  11.492 -0.2431  0.3777  2.1767
 1016MOL0     H37139  -1.387   7.544  11.390  0.0016  0.6501  0.0622
 1016MOL0     H37140  -0.909   7.675  10.887 -0.5680  1.3404 -1.2066
 1016MOL0     H37141  -0.776   7.632  10.685 -0.5548 -0.3988  0.4736
 1016MOL0     H37142  -0.603   7.521  10.439  0.6205 -4.3454 -3.1377
 1016MOL0     H37143  -0.518   7.394  10.258 -1.7422 -0.0756  2.5594
 1016MOL0     H37144   1.393   6.777   9.981 -1.2439 -2.5138  1.2744
 1016MOL0     H37145   1.519   6.617   9.857 -1.0389  1.0420  0.9919
 1016MOL0     H37146   1.598   6.292   9.721 -3.3084 -1.1706  1.1515
 1016MOL0     H37147   1.711   6.086   9.711 -1.3636  0.5604  0.6262
 1016MOL0     H37148   1.811   5.752   9.571 -1.9929 -0.2753 -2.0119
 1016MOL0     H37149   1.722   5.844   9.702  0.1535  0.4145 -0.1646
 1016MOL0     H37150   1.965   5.856   9.708 -1.6348 -0.0704  2.1513
 1016MOL0     H37151   1.901   6.012   9.673  0.2333  0.4533 -2.6931
 1016MOL0     H37152   2.100   5.994   9.545  0.0209 -1.1759  1.2253
 1016MOL0     H37153   1.958   6.001   9.429  0.1654  2.3066  0.1391
 1016MOL0     H37154   1.959   5.771   9.396  0.3926 -2.1317  0.5360
 1016MOL0     H37155   2.115   5.831   9.360 -1.6169  0.6614 -1.4629
 1016MOL0     H37156   2.191   5.579   9.694  0.5490  1.9628  0.3203
 1016MOL0     H37157   1.526   5.987   9.343 -1.6188  0.5195 -0.0133
 1016MOL0     H37158   1.413   6.243   9.224 -0.3205 -3.0130 -2.2048
 1016MOL0     H37159   1.317   6.107   9.288  0.4235 -0.7686  0.1375
 1016MOL0     H37160   1.294   6.263   9.358  0.1413 -0.0284 -0.7707
 1017MOL0     O37161   2.057   3.576   2.781  0.0863 -0.0307  0.2899
 1017MOL0     C37162   1.934   3.590   2.768 -0.0160  0.0722 -0.4016
 1017MOL0     O37163   1.874   3.679   2.693 -0.1243  0.0404  0.1675
 1017MOL0     C37164   1.945   3.773   2.634  0.2576 -0.0146 -0.1675
 1017MOL0     C37165   2.038   3.750   2.537 -0.3821 -1.1721 -0.3092
 1017MOL0     C37166   2.104   3.861   2.479 -0.5108  0.5185 -0.3961
 1017MOL0     C37167   2.067   3.995   2.513 -0.2771 -0.3632  0.4374
 1017MOL0     O37168   2.137   4.102   2.462  0.3697  0.0073 -0.6476
 1017MOL0     C37169   2.239   4.090   2.363  1.1242  0.6439 -0.5072
 1017MOL0     C37170   2.191   4.088   2.223 -0.4318  0.0466  1.2024
 1017MOL0     C37171   2.178   4.225   2.160 -0.1299 -0.3030  0.4658
 1017MOL0     C37172   2.125   4.217   2.015 -1.0756  0.0510  0.0863
 1017MOL0     C37173   2.164   4.326   1.916 -0.2624 -0.9168  0.0947
 1017MOL0     C37174   2.111   4.456   1.969 -0.3891 -0.5482  0.3379
 1017MOL0     C37175   2.142   4.579   1.880 -0.0120 -0.6001  0.5891
 1017MOL0     C37176   2.073   4.578   1.734 -0.5942 -0.1805 -0.0752
 1017MOL0     N37177   2.073   4.712   1.675 -0.1437  0.0481  0.0247
 1017MOL0     C37178   1.993   4.827   1.686 -0.1732  0.5652  0.1461
 1017MOL0     C37179   2.032   4.920   1.598 -0.2899 -0.0197  0.4770
 1017MOL0     C37180   1.957   5.059   1.567 -0.5549  0.8191  0.0172
 1017MOL0     C37181   1.840   5.098   1.653  0.6541 -0.5166  0.2630
 1017MOL0     C37182   1.727   4.997   1.627 -0.1566  0.4187 -0.9536
 1017MOL0     C37183   1.646   5.047   1.506  0.0122  0.2599 -0.4735
 1017MOL0     O37184   1.585   4.924   1.456 -0.0595 -0.7626 -0.0980
 1017MOL0     C37185   1.494   4.924   1.355  0.4321  0.1079 -0.0990
 1017MOL0     C37186   1.446   4.801   1.310 -0.3053  0.1377  0.2227
 1017MOL0     C37187   1.347   4.782   1.215  0.6541  0.1047  0.1002
 1017MOL0     C37188   1.291   4.897   1.150  0.0957  0.7356  1.2003
 1017MOL0     C37189   1.200   4.891   1.036 -1.6209 -0.2641  0.5829
 1017MOL0     O37190   1.166   5.012   0.985 -0.7427  0.0805 -0.3517
 1017MOL0     C37191   1.117   5.025   0.855  0.4038 -0.6132  0.5023
 1017MOL0     C37192   1.049   5.151   0.839  0.2608 -0.0472  0.3819
 1017MOL0     C37193   1.007   5.185   0.705 -0.4546  0.6389  0.4909
 1017MOL0     C37194   1.035   5.098   0.597  0.5483 -0.5024  0.2111
 1017MOL0     O37195   0.980   5.122   0.472  0.5475  0.6692  0.3733
 1017MOL0     C37196   0.874   5.215   0.454  0.7714 -0.0928  0.6153
 1017MOL0     C37197   0.815   5.216   0.302  1.1098 -0.7307 -0.3467
 1017MOL0     C37198   0.915   5.283   0.207 -0.7086  0.1734 -0.2924
 1017MOL0     C37199   0.900   5.435   0.216  0.9554 -0.0116 -0.0646
 1017MOL0     C37200   1.016   5.492   0.140  0.6929 -0.2207  0.5516
 1017MOL0     C37201   1.025   5.637   0.173  0.0066  1.1457 -0.7913
 1017MOL0     C37202   0.913   5.721   0.103  1.1361 -0.0273  0.0002
 1017MOL0     C37203   0.925   5.867   0.090  0.5804 -0.6560  0.2570
 1017MOL0    Cl37204   1.057   5.914  -0.029  0.4417 -0.1142 -0.3491
 1017MOL0     C37205   1.111   4.982   0.610  0.0635  0.3361  0.7669
 1017MOL0     C37206   1.147   4.950   0.742 -0.4797  0.1418 -0.7305
 1017MOL0     O37207   1.173   4.779   0.987 -0.4509  0.1763  0.2561
 1017MOL0     C37208   1.339   5.022   1.188  0.4745 -0.2829  0.0136
 1017MOL0     C37209   1.442   5.036   1.296  0.5666 -0.7401  0.1718
 1017MOL0     N37210   2.142   4.863   1.529  0.4360 -0.2146 -0.5582
 1017MOL0     N37211   2.163   4.743   1.577  0.7107  0.1326 -0.0036
 1017MOL0     C37212   1.977   4.022   2.612 -0.2014  1.0899 -0.0447
 1017MOL0     C37213   1.909   3.913   2.672 -0.2312  0.8411 -0.0587
 1017MOL0     C37214   1.851   3.486   2.820  0.1008  0.1377  0.5924
 1017MOL0     C37215   1.801   3.495   2.947 -0.2098  0.8133 -1.1702
 1017MOL0     C37216   1.713   3.395   2.989 -0.3321  1.4342 -0.8700
 1017MOL0     C37217   1.691   3.285   2.904  0.8293 -0.5372 -0.2733
 1017MOL0     O37218   1.610   3.189   2.957  0.1468 -0.4457  0.1790
 1017MOL0     C37219   1.599   3.049   2.917  0.6538 -0.5582  0.2491
 1017MOL0     C37220   1.493   3.040   2.811  0.7015  0.3630 -0.1007
 1017MOL0     C37221   1.361   3.075   2.884 -1.4974 -0.7406  0.4865
 1017MOL0     C37222   1.239   3.063   2.794  1.3167 -0.6223 -0.7000
 1017MOL0     C37223   1.205   2.917   2.784  0.0163  0.7350 -0.3948
 1017MOL0     C37224   1.182   2.797   2.786  0.6892 -0.0669  0.2819
 1017MOL0     C37225   1.747   3.279   2.777  0.9667  0.7803 -0.5565
 1017MOL0     C37226   1.828   3.380   2.732 -0.4806  0.3832  1.2119
 1017MOL0     C37227   1.878   3.368   2.598  0.1157 -0.7174  0.1722
 1017MOL0     H37228   2.072   3.650   2.509  1.9698 -0.8928  1.2224
 1017MOL0     H37229   2.183   3.839   2.408 -0.2939  1.3965 -0.4497
 1017MOL0     H37230   2.321   4.162   2.376  0.5636  1.0028  1.2187
 1017MOL0     H37231   2.296   4.000   2.387 -1.0164 -0.3596  1.1813
 1017MOL0     H37232   2.091   4.046   2.215 -0.3918 -0.1124  1.5390
 1017MOL0     H37233   2.261   4.038   2.155  1.4166  0.6968  2.5288
 1017MOL0     H37234   2.279   4.268   2.161 -0.5030  0.5938  0.6771
 1017MOL0     H37235   2.123   4.290   2.229  2.0944 -0.9825  3.0512
 1017MOL0     H37236   2.147   4.119   1.973  0.9504 -0.6040  2.4739
 1017MOL0     H37237   2.015   4.216   2.017 -1.1280  0.8324 -0.9979
 1017MOL0     H37238   2.272   4.332   1.900 -0.6182  0.7707 -2.0548
 1017MOL0     H37239   2.103   4.306   1.828 -0.6417 -3.0426  0.7589
 1017MOL0     H37240   2.002   4.449   1.971 -0.3175 -2.9722  2.9828
 1017MOL0     H37241   2.148   4.479   2.070  1.3185  2.5158 -0.8774
 1017MOL0     H37242   2.251   4.579   1.865 -0.2324  0.2834 -1.2621
 1017MOL0     H37243   2.111   4.666   1.938 -1.2409 -1.9547  2.0548
 1017MOL0     H37244   2.131   4.504   1.678 -1.1418 -0.3864 -0.3764
 1017MOL0     H37245   1.971   4.542   1.748 -0.2960 -1.3353 -0.7793
 1017MOL0     H37246   1.915   4.861   1.753 -1.4326 -0.0629 -0.9726
 1017MOL0     H37247   2.032   5.138   1.573  0.5905 -0.2437  0.1464
 1017MOL0     H37248   1.940   5.037   1.461 -2.3123 -1.3935  0.6763
 1017MOL0     H37249   1.860   5.099   1.760 -0.1133 -1.4337  0.4278
 1017MOL0     H37250   1.800   5.197   1.629 -1.6171 -1.9703 -2.6680
 1017MOL0     H37251   1.661   4.977   1.711 -2.8779  1.2007 -2.7579
 1017MOL0     H37252   1.762   4.901   1.589  0.2937  0.0927  0.2543
 1017MOL0     H37253   1.720   5.092   1.439 -1.2591 -0.3936 -2.4000
 1017MOL0     H37254   1.573   5.126   1.526  0.3417  1.2549 -2.8338
 1017MOL0     H37255   1.496   4.716   1.356  2.1471  2.0559  1.4112
 1017MOL0     H37256   1.321   4.679   1.192  1.7365  0.4313 -3.0226
 1017MOL0     H37257   1.037   5.215   0.926 -0.6839 -0.2211  0.3981
 1017MOL0     H37258   0.955   5.277   0.680 -0.9618  0.3974  0.6468
 1017MOL0     H37259   0.793   5.194   0.525 -0.4421  1.8384 -0.1226
 1017MOL0     H37260   0.906   5.317   0.474 -1.0296  0.7084 -0.3737
 1017MOL0     H37261   0.801   5.113   0.266 -1.1934 -0.6369  0.0806
 1017MOL0     H37262   0.717   5.260   0.279  0.3039 -2.9773 -1.5324
 1017MOL0     H37263   1.018   5.261   0.237 -0.5097 -1.0907 -1.8018
 1017MOL0     H37264   0.885   5.251   0.107  0.2108  1.9380 -1.1998
 1017MOL0     H37265   0.896   5.475   0.318 -1.3458  3.7552 -1.4300
 1017MOL0     H37266   0.805   5.452   0.164  0.8620  0.4336  0.2447
 1017MOL0     H37267   1.005   5.482   0.032 -0.2098 -4.3640  0.8260
 1017MOL0     H37268   1.114   5.449   0.166  1.3824  0.9631 -0.0006
 1017MOL0     H37269   1.034   5.652   0.281  1.5901  0.1238 -0.7476
 1017MOL0     H37270   1.116   5.682   0.133  0.3876  1.6741  0.5854
 1017MOL0     H37271   0.815   5.710   0.149  1.3871  1.0455  0.8403
 1017MOL0     H37272   0.912   5.691  -0.002 -1.5096 -2.3374  0.5692
 1017MOL0     H37273   0.835   5.912   0.047 -0.4922 -0.3758  2.6149
 1017MOL0     H37274   0.927   5.910   0.191 -2.5519 -0.2869  0.2660
 1017MOL0     H37275   1.139   4.929   0.520 -2.4971 -1.9584  1.1753
 1017MOL0     H37276   1.205   4.859   0.749  2.4489  1.9782  1.0713
 1017MOL0     H37277   1.315   5.121   1.153  1.4064  0.4657  1.3941
 1017MOL0     H37278   1.480   5.134   1.322 -0.3015 -0.3184 -0.1280
 1017MOL0     H37279   1.952   4.127   2.621 -1.7664  1.0965 -3.2217
 1017MOL0     H37280   1.832   3.927   2.748  1.4287 -0.1543  1.9116
 1017MOL0     H37281   1.832   3.571   3.019  0.6395 -0.8850  0.3412
 1017MOL0     H37282   1.681   3.395   3.093 -2.1670  0.3017 -1.3885
 1017MOL0     H37283   1.562   2.991   3.001 -4.7335  0.0093 -1.3222
 1017MOL0     H37284   1.691   2.996   2.890 -0.8194 -2.0469 -2.2507
 1017MOL0     H37285   1.506   2.933   2.796 -0.4348 -0.0503  1.5231
 1017MOL0     H37286   1.523   3.102   2.726  1.5636  0.7450  0.4574
 1017MOL0     H37287   1.361   3.179   2.920  0.1339  0.2066 -2.0275
 1017MOL0     H37288   1.350   3.015   2.975 -1.1054  1.5203  2.1319
 1017MOL0     H37289   1.162   3.123   2.843 -0.2066  0.6530 -4.3339
 1017MOL0     H37290   1.251   3.115   2.699  3.8804 -1.9763 -1.2387
 1017MOL0     H37291   1.182   2.690   2.792 -1.4499 -0.1209  0.1265
 1017MOL0     H37292   1.709   3.207   2.705  3.6726  0.1058 -1.3899
 1017MOL0     H37293   1.986   3.361   2.608  0.1644 -0.7086 -0.3332
 1017MOL0     H37294   1.830   3.286   2.542 -1.1667 -1.2970  2.0352
 1017MOL0     H37295   1.858   3.461   2.545  1.3722 -1.8962 -2.5807
 1018MOL0     O37296   2.632   2.635   4.413  0.0857 -0.4161 -0.9853
 1018MOL0     C37297   2.708   2.575   4.343 -0.9707  0.8044  0.3663
 1018MOL0     O37298   2.834   2.612   4.308  0.0318 -0.5658 -0.3615
 1018MOL0     C37299   2.889   2.725   4.364  0.5432 -0.9975 -0.2287
 1018MOL0     C37300   3.024   2.714   4.393  0.1372 -0.1073 -0.3020
 1018MOL0     C37301   3.081   2.828   4.450 -0.4773 -0.1768 -0.5078
 1018MOL0     C37302   3.018   2.952   4.474 -0.9440  0.6723 -0.4767
 1018MOL0     O37303   3.090   3.057   4.521 -0.3565 -0.2408  1.2387
 1018MOL0     C37304   3.155   3.139   4.416  0.0550 -0.3617 -0.6592
 1018MOL0     C37305   3.299   3.095   4.380 -1.0940 -0.4392 -0.3726
 1018MOL0     C37306   3.384   3.199   4.303 -0.4628  0.0132  0.2451
 1018MOL0     C37307   3.526   3.190   4.361 -0.5405  0.8964 -0.6739
 1018MOL0     C37308   3.633   3.239   4.255 -0.1584 -0.5971  0.1804
 1018MOL0     C37309   3.653   3.136   4.145 -0.3440  0.0371 -0.3069
 1018MOL0     C37310   3.736   3.180   4.028 -0.1250 -0.3072 -1.0665
 1018MOL0     C37311   3.885   3.172   4.046 -0.2395  0.3841  0.3979
 1018MOL0     N37312   3.953   3.219   3.932  0.6444 -0.5932  0.8939
 1018MOL0     C37313   3.897   3.259   3.804  1.6045 -0.0821  0.0853
 1018MOL0     C37314   4.005   3.294   3.726  0.4743 -0.4978 -1.0550
 1018MOL0     C37315   3.982   3.321   3.579  0.3844  0.4595  0.2292
 1018MOL0     C37316   4.079   3.413   3.517 -0.4913  0.8107 -0.2742
 1018MOL0     C37317   4.103   3.547   3.598  0.0702  0.0679 -0.4641
 1018MOL0     C37318   4.179   3.640   3.508 -0.3427  0.2970 -0.5232
 1018MOL0     O37319   4.327   3.619   3.501  0.3531 -0.0963  0.6556
 1018MOL0     C37320   4.371   3.527   3.405 -0.4117  0.3239 -0.0314
 1018MOL0     C37321   4.492   3.458   3.432 -0.0362  0.1905 -1.0579
 1018MOL0     C37322   4.544   3.365   3.345  0.3891  0.7367  0.7453
 1018MOL0     C37323   4.495   3.335   3.226  0.1967  0.1620  0.1931
 1018MOL0     C37324   4.570   3.245   3.133 -0.2843 -0.2304  0.1855
 1018MOL0     O37325   4.704   3.230   3.158 -0.0926 -0.3455  0.6072
 1018MOL0     C37326   4.786   3.148   3.073 -0.1246  0.1911  0.5397
 1018MOL0     C37327   4.746   3.032   3.003 -0.2649  0.1821 -0.7408
 1018MOL0     C37328   4.843   2.961   2.932 -0.2422  0.1431 -0.1318
 1018MOL0     C37329   4.975   3.002   2.920 -0.6498 -0.0790  0.2236
 1018MOL0     O37330   5.069   2.910   2.879  0.1979 -0.2406  1.0516
 1018MOL0     C37331   5.194   2.962   2.838 -0.1818 -0.1115  0.2970
 1018MOL0     C37332   5.302   2.949   2.950 -1.5695  0.0793 -0.6505
 1018MOL0     C37333   5.326   2.805   2.976 -1.2804 -0.5070 -0.0825
 1018MOL0     C37334   5.475   2.765   2.947  0.1300 -0.8267  0.6600
 1018MOL0     C37335   5.571   2.772   3.069  0.7391 -0.1307 -0.2801
 1018MOL0     C37336   5.584   2.627   3.126  0.5979 -0.7328 -0.3261
 1018MOL0     C37337   5.681   2.615   3.251 -0.3564  0.3077  0.0182
 1018MOL0     C37338   5.813   2.693   3.227  0.8293 -0.8070 -0.5341
 1018MOL0    Cl37339   5.917   2.706   3.380  0.4854  0.3324 -0.0554
 1018MOL0     C37340   5.011   3.129   2.974  1.3229 -0.5613 -1.0090
 1018MOL0     C37341   4.920   3.202   3.053  0.0077 -0.0237  0.4556
 1018MOL0     O37342   4.505   3.190   3.041  1.4803  0.8054 -0.1894
 1018MOL0     C37343   4.377   3.407   3.189  0.0118  0.5071  0.4023
 1018MOL0     C37344   4.317   3.497   3.280 -0.7002  0.0832 -1.3595
 1018MOL0     N37345   4.122   3.257   3.798  0.4263 -0.2989  0.0004
 1018MOL0     N37346   4.090   3.221   3.922  0.3920  0.9476 -0.0394
 1018MOL0     C37347   2.889   2.962   4.429 -0.4286 -0.1324 -1.2113
 1018MOL0     C37348   2.826   2.852   4.377  0.6548  0.7854  0.5441
 1018MOL0     C37349   2.684   2.445   4.271  0.1711 -0.5006 -0.6095
 1018MOL0     C37350   2.789   2.352   4.276 -0.3583  0.6555  0.0748
 1018MOL0     C37351   2.768   2.224   4.226  0.4423  0.2524  0.0634
 1018MOL0     C37352   2.652   2.189   4.161  0.8631 -0.8275  0.1409
 1018MOL0     O37353   2.625   2.066   4.108  0.0288 -0.2636  0.1380
 1018MOL0     C37354   2.685   1.944   4.158  0.5588 -0.0170 -0.6726
 1018MOL0     C37355   2.583   1.870   4.238 -0.0899 -0.0644 -0.1268
 1018MOL0     C37356   2.628   1.722   4.251  0.0216  0.5120 -0.5424
 1018MOL0     C37357   2.532   1.655   4.342 -0.3866  0.1292  1.2642
 1018MOL0     C37358   2.583   1.525   4.375  0.3671  0.3017  0.3293
 1018MOL0     C37359   2.631   1.417   4.398  0.8703 -1.0664  0.7921
 1018MOL0     C37360   2.554   2.290   4.151 -0.3629  0.2474 -0.0462
 1018MOL0     C37361   2.569   2.413   4.206  0.5198  0.5266 -0.1198
 1018MOL0     C37362   2.466   2.521   4.199  0.2625  0.4599 -0.3073
 1018MOL0     H37363   3.076   2.619   4.381 -2.1051 -1.7463  1.8825
 1018MOL0     H37364   3.185   2.826   4.482  0.5756  0.1696 -3.5519
 1018MOL0     H37365   3.099   3.141   4.323 -0.1075 -2.7931 -0.6711
 1018MOL0     H37366   3.170   3.239   4.457  3.7671 -0.1234 -2.2327
 1018MOL0     H37367   3.290   3.005   4.319  4.7311 -1.3638 -0.4825
 1018MOL0     H37368   3.338   3.066   4.478 -1.2540 -1.2007 -0.5299
 1018MOL0     H37369   3.355   3.305   4.311  0.8369  0.2153  3.6328
 1018MOL0     H37370   3.374   3.176   4.196 -2.9283  0.9926  0.1828
 1018MOL0     H37371   3.541   3.245   4.454 -0.4424 -1.5218  0.8276
 1018MOL0     H37372   3.545   3.084   4.379 -1.7753  0.5336 -1.3226
 1018MOL0     H37373   3.583   3.327   4.216  1.1250 -0.1250 -0.4661
 1018MOL0     H37374   3.732   3.262   4.297  1.6094  0.8486 -4.2047
 1018MOL0     H37375   3.710   3.049   4.179  1.5491  0.2403 -2.7391
 1018MOL0     H37376   3.555   3.100   4.112 -1.2174  0.4522  1.6845
 1018MOL0     H37377   3.695   3.280   4.013 -1.5728 -0.9559 -1.6578
 1018MOL0     H37378   3.697   3.121   3.945  0.1516 -0.1130 -1.3331
 1018MOL0     H37379   3.911   3.240   4.128 -0.3687  1.6711 -0.5879
 1018MOL0     H37380   3.913   3.069   4.068  1.6774  0.7734 -0.0380
 1018MOL0     H37381   3.793   3.245   3.776  1.8039 -0.0189 -0.7079
 1018MOL0     H37382   3.984   3.241   3.505 -0.6206  2.0988 -1.6832
 1018MOL0     H37383   3.886   3.373   3.574  0.9573  1.5880  0.7562
 1018MOL0     H37384   4.172   3.356   3.506 -0.7594  0.6111 -1.5747
 1018MOL0     H37385   4.033   3.433   3.420  1.6028 -2.3556 -2.1150
 1018MOL0     H37386   4.155   3.528   3.692  0.3380  1.1475 -0.3833
 1018MOL0     H37387   4.013   3.605   3.619  0.2076  0.1389 -0.0780
 1018MOL0     H37388   4.162   3.741   3.544 -1.3733 -0.3922  1.0123
 1018MOL0     H37389   4.142   3.638   3.405 -0.0805  0.3028 -0.6183
 1018MOL0     H37390   4.534   3.480   3.530 -1.0895 -1.0791 -0.2707
 1018MOL0     H37391   4.638   3.325   3.381 -0.3285 -0.0824  1.7638
 1018MOL0     H37392   4.648   2.985   3.010 -1.1323  2.1195  1.6385
 1018MOL0     H37393   4.810   2.871   2.882 -1.1871  0.2217  0.3271
 1018MOL0     H37394   5.249   2.909   2.759  0.3498  0.9500 -0.0616
 1018MOL0     H37395   5.184   3.061   2.792  3.2603 -0.8675 -2.5400
 1018MOL0     H37396   5.391   3.011   2.935 -2.3877  1.9968  1.7576
 1018MOL0     H37397   5.269   2.995   3.044  0.2733 -2.1023  1.1824
 1018MOL0     H37398   5.292   2.780   3.077 -1.4582  1.6544  0.4445
 1018MOL0     H37399   5.255   2.737   2.928 -0.0415 -4.2021  2.8894
 1018MOL0     H37400   5.519   2.843   2.885  3.2216 -1.7463  1.5340
 1018MOL0     H37401   5.482   2.672   2.889 -0.7966  0.9481 -2.5332
 1018MOL0     H37402   5.548   2.848   3.146  2.3620 -2.0058  2.2085
 1018MOL0     H37403   5.663   2.804   3.019  1.2167 -0.4429  0.3841
 1018MOL0     H37404   5.488   2.598   3.169  1.8120 -0.6692  2.6910
 1018MOL0     H37405   5.618   2.554   3.051 -0.2578 -1.0349 -0.4260
 1018MOL0     H37406   5.716   2.512   3.247  0.9360  0.7022  0.6364
 1018MOL0     H37407   5.637   2.647   3.347  1.3874 -0.8877  1.2740
 1018MOL0     H37408   5.863   2.654   3.138  1.3440 -1.6666  0.1272
 1018MOL0     H37409   5.811   2.800   3.202  3.1150 -0.2904  1.2227
 1018MOL0     H37410   5.110   3.174   2.969  0.8528  0.7371  0.6456
 1018MOL0     H37411   4.947   3.290   3.111 -0.1580  0.9330 -0.8599
 1018MOL0     H37412   4.351   3.407   3.083  0.5421  1.2108  0.2615
 1018MOL0     H37413   4.227   3.541   3.236 -0.7956  0.9819 -0.2996
 1018MOL0     H37414   2.827   3.047   4.455 -0.2786 -0.2467 -0.4471
 1018MOL0     H37415   2.736   2.853   4.317  1.7833 -2.8299 -1.5817
 1018MOL0     H37416   2.882   2.359   4.331 -0.1081 -1.0499 -0.0828
 1018MOL0     H37417   2.857   2.162   4.227 -0.3681 -0.9596 -0.4353
 1018MOL0     H37418   2.772   1.955   4.224  2.1467 -0.8149 -2.5301
 1018MOL0     H37419   2.710   1.880   4.073  1.3304 -1.9846  0.9683
 1018MOL0     H37420   2.484   1.879   4.192 -0.3102 -0.5337  0.2480
 1018MOL0     H37421   2.583   1.914   4.338  1.5382 -0.1049 -0.0863
 1018MOL0     H37422   2.732   1.723   4.286 -0.6248  1.5089  1.4630
 1018MOL0     H37423   2.608   1.679   4.152  1.1127 -0.4123 -0.3897
 1018MOL0     H37424   2.526   1.716   4.432  0.3787 -0.0506  1.4464
 1018MOL0     H37425   2.433   1.645   4.296 -0.8399  1.2506  1.9520
 1018MOL0     H37426   2.665   1.320   4.427 -0.9880 -2.4479 -1.3043
 1018MOL0     H37427   2.474   2.256   4.087 -2.0023  0.9997  1.5254
 1018MOL0     H37428   2.499   2.625   4.203 -0.2382  0.5704  1.9169
 1018MOL0     H37429   2.392   2.496   4.123 -0.5706 -2.3675  1.2798
 1018MOL0     H37430   2.410   2.521   4.293  0.7865  0.5421  0.0086
 1019MOL0     O37431   3.525   2.782   2.095 -0.1692  0.4162  0.0483
 1019MOL0     C37432   3.600   2.772   2.195  0.3330  1.1408  0.3685
 1019MOL0     O37433   3.572   2.688   2.308  0.3358  0.4266  0.4401
 1019MOL0     C37434   3.451   2.639   2.321  0.7912  0.7092  0.3706
 1019MOL0     C37435   3.434   2.517   2.388  0.3010  1.2809  0.0034
 1019MOL0     C37436   3.308   2.458   2.404 -0.1845  0.8043 -0.2180
 1019MOL0     C37437   3.193   2.525   2.369  0.1561  0.1066  0.4671
 1019MOL0     O37438   3.067   2.479   2.381  0.6957 -0.4783  1.0927
 1019MOL0     C37439   3.038   2.347   2.341  0.4468  0.6074  0.7428
 1019MOL0     C37440   3.025   2.340   2.193  0.0710 -0.3929 -0.2303
 1019MOL0     C37441   2.960   2.206   2.143  1.0780 -0.8755  0.4945
 1019MOL0     C37442   2.823   2.239   2.085  0.5652 -1.0332 -0.8069
 1019MOL0     C37443   2.773   2.121   2.008  0.4501 -0.3273 -0.1922
 1019MOL0     C37444   2.623   2.130   1.977  0.8980  0.2233 -0.2329
 1019MOL0     C37445   2.562   2.009   1.902  1.4122  0.1395 -0.4101
 1019MOL0     C37446   2.646   1.957   1.792 -0.4971  0.6360 -0.8087
 1019MOL0     N37447   2.590   1.853   1.717 -0.0316  0.8138 -0.0261
 1019MOL0     C37448   2.533   1.871   1.593  0.1813 -0.6689  0.0198
 1019MOL0     C37449   2.533   1.765   1.534 -0.4965 -0.0857  0.3330
 1019MOL0     C37450   2.510   1.743   1.386  1.1302 -0.0855  0.4484
 1019MOL0     C37451   2.379   1.823   1.324 -0.1698  0.2979 -0.3369
 1019MOL0     C37452   2.250   1.766   1.396  0.4584 -0.6771  1.0013
 1019MOL0     C37453   2.196   1.844   1.515 -0.5883  0.1662 -0.7387
 1019MOL0     O37454   2.077   1.790   1.574  0.3798  0.3778 -0.6617
 1019MOL0     C37455   2.060   1.655   1.592  0.4222 -0.2668  0.2344
 1019MOL0     C37456   1.930   1.605   1.575 -0.5398  0.1530  1.5857
 1019MOL0     C37457   1.902   1.468   1.579 -0.2078 -0.2813  0.0305
 1019MOL0     C37458   1.999   1.375   1.606  0.2297 -0.2554  0.3860
 1019MOL0     C37459   1.967   1.231   1.614 -0.7819  0.1075  0.6131
 1019MOL0     O37460   2.055   1.160   1.692 -0.6720  0.0828  0.3914
 1019MOL0     C37461   2.041   1.025   1.712  0.1724  0.1499  0.1223
 1019MOL0     C37462   1.951   0.942   1.650  0.3663  1.3112  0.1885
 1019MOL0     C37463   1.944   0.801   1.674  0.4057 -0.1439 -0.4389
 1019MOL0     C37464   2.020   0.751   1.780 -0.5830  0.2625 -0.3187
 1019MOL0     O37465   2.034   0.623   1.815  0.9116 -1.1708  0.1836
 1019MOL0     C37466   1.924   0.547   1.831  0.5823  0.2770 -0.0261
 1019MOL0     C37467   1.818   0.594   1.939  0.2987  0.4786  0.4811
 1019MOL0     C37468   1.709   0.481   1.969 -0.1346  0.2474  0.2114
 1019MOL0     C37469   1.579   0.521   2.045  0.1499 -0.0961 -0.1050
 1019MOL0     C37470   1.497   0.402   2.068  0.6338  0.3916 -0.5583
 1019MOL0     C37471   1.366   0.437   2.133  0.3957  0.6338 -0.2074
 1019MOL0     C37472   1.374   0.442   2.283 -0.0810 -0.8556  0.3076
 1019MOL0     C37473   1.256   0.513   2.325 -0.8994 -0.7383 -0.3377
 1019MOL0    Cl37474   1.276   0.561   2.497 -0.0019  0.3642  0.0563
 1019MOL0     C37475   2.111   0.834   1.851  0.3288  0.4523  0.1756
 1019MOL0     C37476   2.122   0.967   1.812 -0.5486  0.1959  0.1514
 1019MOL0     O37477   1.859   1.196   1.559  0.0098  0.3135 -0.6993
 1019MOL0     C37478   2.125   1.428   1.624 -0.0514 -0.7690 -0.1668
 1019MOL0     C37479   2.158   1.563   1.619  0.2145 -0.9563  0.7348
 1019MOL0     N37480   2.588   1.672   1.619 -0.6358  0.4273 -0.2893
 1019MOL0     N37481   2.624   1.726   1.729 -0.1426 -0.4636 -0.4978
 1019MOL0     C37482   3.203   2.652   2.313 -0.1335 -0.6297 -0.1644
 1019MOL0     C37483   3.335   2.707   2.284  0.4777 -0.3222  0.7252
 1019MOL0     C37484   3.725   2.855   2.199  0.3682  0.2357 -0.0688
 1019MOL0     C37485   3.779   2.890   2.322  0.2328 -0.1186  0.2940
 1019MOL0     C37486   3.906   2.956   2.324 -0.5665  0.0832  0.0399
 1019MOL0     C37487   3.984   2.992   2.213  0.3028  0.1238  0.5039
 1019MOL0     O37488   4.094   3.068   2.232  0.4682  0.4333 -0.4940
 1019MOL0     C37489   4.187   3.070   2.126 -0.2791  0.5365 -0.4491
 1019MOL0     C37490   4.316   3.145   2.172  0.4236 -0.4834  0.3737
 1019MOL0     C37491   4.429   3.110   2.075  0.7514  0.1003  0.4298
 1019MOL0     C37492   4.401   3.167   1.941 -0.5257  0.1468 -0.5782
 1019MOL0     C37493   4.490   3.108   1.835  0.7299  0.7353 -0.3626
 1019MOL0     C37494   4.558   3.073   1.743 -0.2004  0.0939  0.8814
 1019MOL0     C37495   3.924   2.957   2.092 -0.0949  0.2287  0.6509
 1019MOL0     C37496   3.800   2.885   2.081 -0.1683  0.2619  0.1911
 1019MOL0     C37497   3.760   2.847   1.946 -0.0325  0.7570  0.4030
 1019MOL0     H37498   3.515   2.470   2.442  1.0727  3.9769  1.3595
 1019MOL0     H37499   3.317   2.362   2.453  1.7224  1.2924  0.4490
 1019MOL0     H37500   3.100   2.271   2.391 -0.2784  0.0975  0.8911
 1019MOL0     H37501   2.942   2.333   2.391  0.2619  0.4191  0.3392
 1019MOL0     H37502   3.124   2.356   2.148  2.0502 -0.2853  3.7006
 1019MOL0     H37503   2.972   2.430   2.161  4.2487  2.1431 -0.9225
 1019MOL0     H37504   2.947   2.133   2.224 -0.7768  1.0784  2.0717
 1019MOL0     H37505   3.021   2.152   2.070 -0.6625 -3.0167  0.5144
 1019MOL0     H37506   2.759   2.263   2.171 -0.6126  0.1995 -1.9874
 1019MOL0     H37507   2.818   2.333   2.030 -1.7561  0.9527  2.4128
 1019MOL0     H37508   2.824   2.095   1.915 -0.4856 -0.7780 -0.5915
 1019MOL0     H37509   2.779   2.031   2.070  1.5614 -0.9829 -1.2040
 1019MOL0     H37510   2.567   2.142   2.070  0.2120  0.3231 -0.6547
 1019MOL0     H37511   2.616   2.225   1.923  1.3631 -1.3328 -3.1914
 1019MOL0     H37512   2.467   2.046   1.862  1.0014 -1.7755 -1.3040
 1019MOL0     H37513   2.537   1.929   1.973  1.6741  0.0755 -0.3880
 1019MOL0     H37514   2.702   2.026   1.728 -1.2699  1.9966 -0.0762
 1019MOL0     H37515   2.733   1.907   1.836  0.1808  2.2919 -0.1611
 1019MOL0     H37516   2.516   1.970   1.551  0.3200 -1.1125 -1.1131
 1019MOL0     H37517   2.603   1.770   1.334 -0.3006  0.3027 -2.0665
 1019MOL0     H37518   2.490   1.638   1.363  2.2569  0.4927 -4.0520
 1019MOL0     H37519   2.385   1.931   1.333  0.7094  0.1209  2.1139
 1019MOL0     H37520   2.375   1.796   1.218  0.2843 -0.0548 -0.2699
 1019MOL0     H37521   2.276   1.663   1.422  1.7052 -0.0122  2.6077
 1019MOL0     H37522   2.166   1.765   1.327  0.9084 -1.3730  0.4403
 1019MOL0     H37523   2.173   1.948   1.493  0.5439  0.2268 -1.7547
 1019MOL0     H37524   2.267   1.845   1.599 -1.8954 -2.1431  0.5022
 1019MOL0     H37525   1.847   1.669   1.551 -2.0284 -2.1349  0.3093
 1019MOL0     H37526   1.814   1.414   1.546  0.4507 -2.5107  1.7448
 1019MOL0     H37527   1.883   0.981   1.576  0.7188 -0.6639 -1.2382
 1019MOL0     H37528   1.893   0.731   1.607  0.9063  0.1280 -1.1166
 1019MOL0     H37529   1.871   0.526   1.738 -2.0975  1.2989  1.1627
 1019MOL0     H37530   1.967   0.451   1.862 -2.6652 -1.3378 -0.0723
 1019MOL0     H37531   1.867   0.619   2.034 -1.2421  0.9111  1.1971
 1019MOL0     H37532   1.769   0.681   1.896 -2.5301  1.0259  4.3058
 1019MOL0     H37533   1.681   0.460   1.865 -1.3670  2.2926  0.0667
 1019MOL0     H37534   1.757   0.395   2.017  0.8968 -0.2194 -1.5479
 1019MOL0     H37535   1.534   0.604   1.990  2.0333  2.6421  2.1689
 1019MOL0     H37536   1.607   0.574   2.137  2.7443  1.4008 -1.6121
 1019MOL0     H37537   1.546   0.325   2.129  1.3504  1.5892  0.4126
 1019MOL0     H37538   1.485   0.357   1.969  0.5303  1.7184 -1.1687
 1019MOL0     H37539   1.341   0.531   2.083  2.3637  2.1920  1.5699
 1019MOL0     H37540   1.284   0.371   2.103 -1.3625  1.6144  2.0858
 1019MOL0     H37541   1.456   0.512   2.300 -0.8924  1.4320 -3.8312
 1019MOL0     H37542   1.386   0.344   2.330 -3.5181 -2.0287 -0.9573
 1019MOL0     H37543   1.250   0.602   2.260 -0.0694 -2.0516 -2.3174
 1019MOL0     H37544   1.166   0.453   2.312  0.3678 -3.0547  0.9782
 1019MOL0     H37545   2.176   0.796   1.928  1.2765 -0.9124 -1.2373
 1019MOL0     H37546   2.188   1.043   1.853 -1.8927  2.1774 -1.1977
 1019MOL0     H37547   2.197   1.353   1.654  2.5852  1.7098  0.1896
 1019MOL0     H37548   2.264   1.584   1.634  0.1333  0.0881 -0.0593
 1019MOL0     H37549   3.111   2.690   2.270 -0.9386 -2.5481 -0.2186
 1019MOL0     H37550   3.343   2.806   2.241  0.2508 -1.2136 -1.5267
 1019MOL0     H37551   3.723   2.873   2.414 -0.6829 -1.2735 -0.4525
 1019MOL0     H37552   3.938   2.996   2.420  0.9119 -1.6554  0.3445
 1019MOL0     H37553   4.148   3.127   2.041 -0.8496 -1.3540 -1.5159
 1019MOL0     H37554   4.211   2.973   2.083  4.4820  0.7636  1.1237
 1019MOL0     H37555   4.344   3.111   2.272 -1.1506 -3.8745 -0.2038
 1019MOL0     H37556   4.307   3.254   2.168  0.1130 -0.5344 -2.7559
 1019MOL0     H37557   4.428   3.001   2.082 -2.8315  0.0518  0.8661
 1019MOL0     H37558   4.524   3.151   2.111  1.2122 -1.8621  1.6293
 1019MOL0     H37559   4.301   3.163   1.898 -1.8532  1.9145  2.0888
 1019MOL0     H37560   4.423   3.274   1.942  6.0344 -0.7188 -2.2617
 1019MOL0     H37561   4.616   3.036   1.661 -0.3142 -1.3656  1.4287
 1019MOL0     H37562   3.974   2.997   2.004 -1.7560 -0.8503 -0.8671
 1019MOL0     H37563   3.677   2.912   1.915  2.7963  4.3528 -0.3093
 1019MOL0     H37564   3.841   2.849   1.872 -0.0867  3.8935  0.2946
 1019MOL0     H37565   3.730   2.741   1.946 -4.9588  1.9018 -0.3314
 1020MOL0     O37566   2.817   0.743   9.510 -0.1556  0.2240  0.0343
 1020MOL0     C37567   2.890   0.654   9.479 -0.2263  0.7480 -0.3333
 1020MOL0     O37568   3.032   0.662   9.466 -0.1477 -0.0665 -0.7871
 1020MOL0     C37569   3.081   0.783   9.453  0.0298 -1.1384  0.6933
 1020MOL0     C37570   3.092   0.868   9.568  0.3475 -0.0237  0.1199
 1020MOL0     C37571   3.151   0.991   9.566 -0.1466 -0.7275  0.1296
 1020MOL0     C37572   3.195   1.037   9.440  0.1478 -1.5172  0.5531
 1020MOL0     O37573   3.253   1.168   9.435 -0.4438  1.1266 -0.3808
 1020MOL0     C37574   3.342   1.211   9.544  0.0690  0.7691 -0.5773
 1020MOL0     C37575   3.412   1.341   9.507  0.0729 -0.3560  0.4412
 1020MOL0     C37576   3.484   1.344   9.371 -0.2273  0.3064  0.2295
 1020MOL0     C37577   3.560   1.470   9.333 -0.3864  0.6404 -0.8329
 1020MOL0     C37578   3.626   1.543   9.448  0.2883 -0.0140 -0.4761
 1020MOL0     C37579   3.744   1.616   9.403  1.1677 -0.9280  0.0591
 1020MOL0     C37580   3.835   1.672   9.523  0.2362  0.4592 -0.3358
 1020MOL0     C37581   3.953   1.757   9.482 -0.9887  0.0019  0.1000
 1020MOL0     N37582   3.913   1.877   9.400 -0.0337 -0.1878 -0.1051
 1020MOL0     C37583   3.836   1.986   9.440 -0.6659  0.1586 -0.0578
 1020MOL0     C37584   3.854   2.084   9.343  0.5972  0.1256 -0.2202
 1020MOL0     C37585   3.797   2.223   9.333 -0.3906  0.5516  0.0867
 1020MOL0     C37586   3.643   2.219   9.351 -0.1223 -0.8869  0.6823
 1020MOL0     C37587   3.564   2.126   9.256  0.2180  0.6596  1.5459
 1020MOL0     C37588   3.591   2.136   9.109  0.2445 -0.0677  0.4534
 1020MOL0     O37589   3.490   2.063   9.029 -0.1634  0.7892  0.7118
 1020MOL0     C37590   3.515   1.932   8.999 -0.0364 -1.1912 -0.1728
 1020MOL0     C37591   3.408   1.865   8.924  0.6959 -0.1228 -0.5318
 1020MOL0     C37592   3.421   1.729   8.906  1.0330  0.3442  0.3151
 1020MOL0     C37593   3.523   1.654   8.955 -0.2425 -0.3638 -0.0240
 1020MOL0     C37594   3.540   1.511   8.938 -0.7531  0.1033 -0.0585
 1020MOL0     O37595   3.422   1.446   8.904 -0.6433 -0.2420 -0.0079
 1020MOL0     C37596   3.416   1.308   8.917 -0.2150  0.3027 -0.1261
 1020MOL0     C37597   3.296   1.261   8.972 -0.5392 -0.1258 -0.2524
 1020MOL0     C37598   3.269   1.125   8.996  0.5469 -0.1996 -0.0097
 1020MOL0     C37599   3.360   1.034   8.956  0.1034 -0.6824  0.0902
 1020MOL0     O37600   3.326   0.902   8.983  0.8663  0.3407 -0.2972
 1020MOL0     C37601   3.413   0.792   8.942 -0.3522  0.6402  0.5847
 1020MOL0     C37602   3.338   0.666   8.930  0.6053  0.2696 -0.2850
 1020MOL0     C37603   3.430   0.542   8.925  0.2892  0.1224  0.6395
 1020MOL0     C37604   3.346   0.418   8.899 -0.1936 -0.2738 -0.5487
 1020MOL0     C37605   3.381   0.291   8.990  0.2881  0.0298 -0.7238
 1020MOL0     C37606   3.287   0.180   8.969 -0.3277  0.0872 -0.6447
 1020MOL0     C37607   3.311   0.049   9.049 -0.8625 -0.3663  0.6083
 1020MOL0     C37608   3.246   0.031   9.190  0.8328  0.0253 -0.5209
 1020MOL0    Cl37609   3.061   0.038   9.194 -0.2997 -0.6441  0.1292
 1020MOL0     C37610   3.486   1.079   8.903  0.8536 -0.6347  0.2761
 1020MOL0     C37611   3.510   1.212   8.881 -0.0488 -0.1820 -0.6270
 1020MOL0     O37612   3.649   1.452   8.971  0.6772 -0.7360  0.3719
 1020MOL0     C37613   3.628   1.722   9.024  0.7764  0.2306  0.3656
 1020MOL0     C37614   3.620   1.858   9.035 -0.3349  0.1915  0.1505
 1020MOL0     N37615   3.915   2.028   9.234  0.2018 -0.4086 -1.7260
 1020MOL0     N37616   3.953   1.907   9.272 -0.5582 -0.4167  0.4297
 1020MOL0     C37617   3.173   0.961   9.319  0.7007 -0.1006  0.0900
 1020MOL0     C37618   3.113   0.834   9.325  0.6888 -0.5412 -0.8336
 1020MOL0     C37619   2.835   0.513   9.457 -0.1479 -0.0797  0.1033
 1020MOL0     C37620   2.710   0.479   9.523 -0.6363  0.7674  0.2214
 1020MOL0     C37621   2.634   0.369   9.506 -0.2683  0.1933  0.4112
 1020MOL0     C37622   2.679   0.277   9.415  0.0370  0.0861  0.6315
 1020MOL0     O37623   2.602   0.164   9.380  0.2042 -0.0621 -0.4676
 1020MOL0     C37624   2.676   0.042   9.348  0.8160  0.6447  1.2960
 1020MOL0     C37625   2.660   0.017   9.204  0.4265  0.8176  0.1477
 1020MOL0     C37626   2.720  -0.118   9.163  0.6087  0.3421  0.1088
 1020MOL0     C37627   2.713  -0.170   9.012  0.4777  0.2441 -0.3186
 1020MOL0     C37628   2.800  -0.284   8.975  0.2070  0.3785  0.6467
 1020MOL0     C37629   2.856  -0.387   8.937  0.1535 -1.2271  0.9472
 1020MOL0     C37630   2.793   0.306   9.338  0.3001  0.2013 -0.4340
 1020MOL0     C37631   2.878   0.418   9.358  0.0615 -0.5989  0.7742
 1020MOL0     C37632   3.001   0.422   9.276 -0.8463  0.3133  0.1927
 1020MOL0     H37633   3.063   0.830   9.666  0.4453  0.8749  0.5146
 1020MOL0     H37634   3.164   1.049   9.656  4.2623 -3.2005  1.3488
 1020MOL0     H37635   3.280   1.226   9.633 -1.0460 -1.5011 -0.9007
 1020MOL0     H37636   3.408   1.126   9.563 -2.3052 -0.5328  2.9139
 1020MOL0     H37637   3.493   1.357   9.579  0.9745  2.6248 -1.0819
 1020MOL0     H37638   3.335   1.416   9.525  0.5607  0.3242 -0.2062
 1020MOL0     H37639   3.406   1.335   9.295  2.2230  0.1244 -2.4386
 1020MOL0     H37640   3.551   1.257   9.377 -0.2837  0.2562  0.1164
 1020MOL0     H37641   3.633   1.461   9.252 -3.1427  2.7844 -3.8296
 1020MOL0     H37642   3.492   1.551   9.304  0.7921  1.4322 -1.4594
 1020MOL0     H37643   3.554   1.615   9.488  2.7581  3.0750 -1.1978
 1020MOL0     H37644   3.658   1.474   9.526  2.1853  0.7056 -0.5684
 1020MOL0     H37645   3.801   1.553   9.334  3.1281  0.8339 -0.0084
 1020MOL0     H37646   3.715   1.695   9.333  1.6744  1.8440  2.7751
 1020MOL0     H37647   3.885   1.586   9.569  0.6511 -1.6833 -4.3227
 1020MOL0     H37648   3.770   1.729   9.590  0.1204  2.0954 -1.7702
 1020MOL0     H37649   4.007   1.785   9.572 -1.6142  1.6437  0.0007
 1020MOL0     H37650   4.024   1.703   9.419  0.7698  1.9278  0.3408
 1020MOL0     H37651   3.780   2.009   9.529  2.1256  0.8993  1.6357
 1020MOL0     H37652   3.851   2.292   9.399  2.4253 -1.0463 -0.3806
 1020MOL0     H37653   3.818   2.257   9.232  2.4446  1.9526  1.0489
 1020MOL0     H37654   3.606   2.193   9.450 -1.6850  4.4379  1.8008
 1020MOL0     H37655   3.612   2.322   9.329  0.8812 -0.0735  2.8578
 1020MOL0     H37656   3.456   2.148   9.257 -0.6907 -1.9485 -3.7918
 1020MOL0     H37657   3.569   2.022   9.287 -0.0757 -0.3535 -1.4873
 1020MOL0     H37658   3.690   2.098   9.086  1.1020  2.3129 -0.0544
 1020MOL0     H37659   3.586   2.241   9.079  0.9363  0.0321  0.6801
 1020MOL0     H37660   3.328   1.921   8.878  0.1342 -1.3784 -1.1411
 1020MOL0     H37661   3.343   1.672   8.856  2.5395 -1.6960  0.1437
 1020MOL0     H37662   3.227   1.338   9.006  2.0533  3.4362 -2.4067
 1020MOL0     H37663   3.179   1.101   9.052  1.3962  1.1714  2.0902
 1020MOL0     H37664   3.451   0.807   8.841 -3.3423 -1.3513 -0.9521
 1020MOL0     H37665   3.499   0.793   9.010 -0.8473  1.6301  1.2230
 1020MOL0     H37666   3.258   0.662   9.004  0.9869  4.9091  0.7059
 1020MOL0     H37667   3.279   0.660   8.838  0.5357 -2.3319 -0.1438
 1020MOL0     H37668   3.491   0.551   8.835 -0.4790 -0.5094  0.0375
 1020MOL0     H37669   3.501   0.540   9.008 -0.5661  0.2352  1.3865
 1020MOL0     H37670   3.374   0.389   8.797  1.8789 -2.2906  0.4988
 1020MOL0     H37671   3.241   0.436   8.921  0.3684 -0.3385  2.7552
 1020MOL0     H37672   3.381   0.325   9.094  2.2239  1.4098 -1.1109
 1020MOL0     H37673   3.484   0.257   8.976  0.5497  0.2618  0.4826
 1020MOL0     H37674   3.191   0.224   8.995 -0.1057  1.4446 -1.9363
 1020MOL0     H37675   3.283   0.151   8.863 -0.5489 -1.2899 -0.2763
 1020MOL0     H37676   3.419   0.034   9.054 -0.9607 -1.2004  0.3779
 1020MOL0     H37677   3.267  -0.030   8.987  1.6633 -0.2766 -1.4522
 1020MOL0     H37678   3.273  -0.065   9.236 -0.6207 -0.0204  0.2884
 1020MOL0     H37679   3.281   0.104   9.263 -0.5323 -0.1651  0.3714
 1020MOL0     H37680   3.561   1.011   8.864  0.2284 -0.9266 -0.4575
 1020MOL0     H37681   3.602   1.241   8.831  0.1382 -4.0633 -2.9875
 1020MOL0     H37682   3.712   1.668   9.067  1.7978  1.1415 -0.4070
 1020MOL0     H37683   3.702   1.892   9.098 -3.1831  1.9770  3.2240
 1020MOL0     H37684   3.203   1.009   9.227 -1.5459  0.0333 -0.6277
 1020MOL0     H37685   3.098   0.770   9.239 -5.3009 -0.0602 -0.5922
 1020MOL0     H37686   2.673   0.540   9.605  3.0584 -0.1831  2.8299
 1020MOL0     H37687   2.539   0.348   9.554 -1.9794  1.4863 -2.1892
 1020MOL0     H37688   2.622  -0.034   9.406  1.0826 -2.1163 -1.7699
 1020MOL0     H37689   2.781   0.043   9.376  0.6761  1.5113  1.8274
 1020MOL0     H37690   2.700   0.092   9.135  2.6358 -0.3865  0.0363
 1020MOL0     H37691   2.551   0.020   9.199  0.4921  1.2738 -1.7125
 1020MOL0     H37692   2.679  -0.200   9.223  0.8639 -0.9073 -1.3496
 1020MOL0     H37693   2.827  -0.110   9.183  0.4853 -0.5538  1.2609
 1020MOL0     H37694   2.610  -0.198   8.987 -1.1808 -1.0413  6.1174
 1020MOL0     H37695   2.747  -0.082   8.958  1.9421  3.2541  4.8650
 1020MOL0     H37696   2.872  -0.478   8.883 -0.0206 -1.9965  2.1460
 1020MOL0     H37697   2.813   0.240   9.254 -0.1512 -2.3094  1.3249
 1020MOL0     H37698   2.988   0.461   9.174  0.1322 -0.3577 -0.2062
 1020MOL0     H37699   3.071   0.492   9.322 -0.1634 -0.0955 -0.2093
 1020MOL0     H37700   3.041   0.321   9.276  0.2448  0.7196 -0.6155
 1021MOL0     O37701  11.327   4.227   1.307 -0.4422 -0.0195 -0.1954
 1021MOL0     C37702  11.292   4.112   1.344 -0.2430  0.0428 -0.2122
 1021MOL0     O37703  11.373   4.025   1.420 -0.1413 -0.2097 -0.1979
 1021MOL0     C37704  11.492   4.076   1.463 -0.1594  0.2720  0.0614
 1021MOL0     C37705  11.501   4.082   1.608 -0.5161 -0.2388  0.2869
 1021MOL0     C37706  11.614   4.152   1.659 -0.2941 -0.0506 -0.4082
 1021MOL0     C37707  11.722   4.196   1.576 -0.7360  0.0720 -0.4092
 1021MOL0     O37708  11.831   4.262   1.626 -0.6552 -0.1255  0.3969
 1021MOL0     C37709  11.805   4.391   1.679  0.3597 -0.5312  0.0153
 1021MOL0     C37710  11.893   4.476   1.584  0.3927 -0.2439  0.9526
 1021MOL0     C37711  11.915   4.614   1.636 -0.3438 -0.5734  0.1650
 1021MOL0     C37712  12.065   4.651   1.608  0.4486 -0.4893 -0.5401
 1021MOL0     C37713  12.093   4.801   1.637  0.4383 -0.8294  0.3101
 1021MOL0     C37714  12.231   4.862   1.603 -0.2465  0.6076  0.2397
 1021MOL0     C37715  12.225   5.006   1.648  0.3326  0.3129 -0.5693
 1021MOL0     C37716  12.327   5.105   1.576 -0.6807  0.2733  0.8460
 1021MOL0     N37717  12.474   5.086   1.575  0.0431  0.4265  0.5351
 1021MOL0     C37718  12.534   4.961   1.576 -0.3889  0.1124 -0.8634
 1021MOL0     C37719  12.661   4.979   1.608 -0.8445 -0.4527  0.8821
 1021MOL0     C37720  12.773   4.879   1.613 -0.0964  0.1189 -0.4416
 1021MOL0     C37721  12.788   4.792   1.731  0.4506 -0.2261 -0.1162
 1021MOL0     C37722  12.670   4.698   1.753 -0.2358 -0.0713 -0.9968
 1021MOL0     C37723  12.700   4.631   1.885 -0.4063 -0.3762  0.2236
 1021MOL0     O37724  12.781   4.515   1.877 -0.0850 -0.1906 -0.6127
 1021MOL0     C37725  12.819   4.470   2.004  0.0737 -0.5349  0.1555
 1021MOL0     C37726  12.865   4.540   2.113  0.6974  0.2969  0.1908
 1021MOL0     C37727  12.922   4.485   2.226  0.1594 -0.0231  0.6404
 1021MOL0     C37728  12.925   4.346   2.236  0.2944 -0.1423  0.0410
 1021MOL0     C37729  12.964   4.271   2.355 -1.1212  0.0565 -0.1704
 1021MOL0     O37730  13.008   4.143   2.335 -1.1199  0.3193 -0.2820
 1021MOL0     C37731  13.016   4.065   2.447 -0.1197  0.0279  0.0649
 1021MOL0     C37732  13.110   3.966   2.434 -0.7192  0.0010  0.0779
 1021MOL0     C37733  13.123   3.864   2.529 -0.3201 -0.3346  0.3381
 1021MOL0     C37734  13.030   3.852   2.639  0.1918 -0.4691  0.4790
 1021MOL0     O37735  13.021   3.754   2.725  0.0177  0.5385  0.0065
 1021MOL0     C37736  13.054   3.623   2.673 -0.5306 -0.1813 -1.0532
 1021MOL0     C37737  12.964   3.519   2.749 -0.3978 -0.5545 -0.3914
 1021MOL0     C37738  12.824   3.513   2.695 -0.5555 -0.2822  0.0289
 1021MOL0     C37739  12.717   3.533   2.797 -0.4115 -0.4677 -0.3470
 1021MOL0     C37740  12.718   3.682   2.837 -0.1123  0.2837 -0.1294
 1021MOL0     C37741  12.596   3.722   2.923 -0.0300  0.6493 -0.0873
 1021MOL0     C37742  12.572   3.880   2.926 -0.2026  0.4516 -0.2234
 1021MOL0     C37743  12.660   3.952   3.026 -0.0347  0.2244  0.4906
 1021MOL0    Cl37744  12.555   3.965   3.180  0.3173 -0.2678  0.1421
 1021MOL0     C37745  12.924   3.954   2.640 -0.3329  0.5967  0.7567
 1021MOL0     C37746  12.919   4.054   2.544 -0.4453 -1.0256  0.6237
 1021MOL0     O37747  12.948   4.328   2.466 -0.6320 -0.7977  0.1873
 1021MOL0     C37748  12.868   4.275   2.126 -0.4527 -1.6716 -0.1214
 1021MOL0     C37749  12.827   4.340   2.005 -0.3082 -0.1642 -0.6924
 1021MOL0     N37750  12.681   5.112   1.637 -0.6118 -0.3462 -0.4864
 1021MOL0     N37751  12.569   5.175   1.615  0.0192 -0.5410 -0.1881
 1021MOL0     C37752  11.709   4.169   1.439 -1.0120  0.1254 -0.6195
 1021MOL0     C37753  11.596   4.124   1.374 -1.1557  0.7159 -0.3203
 1021MOL0     C37754  11.142   4.067   1.325 -0.8517  0.3069 -0.4007
 1021MOL0     C37755  11.103   3.959   1.401  0.1682  0.1190 -0.7534
 1021MOL0     C37756  10.968   3.920   1.399  0.0158  0.6665  0.3262
 1021MOL0     C37757  10.863   3.999   1.336 -0.8208  0.3730 -0.4883
 1021MOL0     O37758  10.729   3.978   1.324  0.3050  0.6444 -0.3346
 1021MOL0     C37759  10.663   3.879   1.404  0.0593  0.9255 -0.2673
 1021MOL0     C37760  10.661   3.735   1.340 -0.3661  0.3827 -0.7615
 1021MOL0     C37761  10.557   3.649   1.413  0.5206 -0.2262 -0.0562
 1021MOL0     C37762  10.513   3.511   1.362 -0.1661  0.2832 -0.2191
 1021MOL0     C37763  10.433   3.509   1.233  0.4018 -1.6149  0.4258
 1021MOL0     C37764  10.358   3.504   1.133 -1.9491  0.5300 -1.7070
 1021MOL0     C37765  10.913   4.112   1.268 -0.2556 -1.1393 -0.0516
 1021MOL0     C37766  11.049   4.152   1.264 -1.1593  1.2288  0.4773
 1021MOL0     C37767  11.074   4.285   1.203 -0.2277  0.0766  0.9570
 1021MOL0     H37768  11.431   4.028   1.670  1.9511 -1.8554  1.8217
 1021MOL0     H37769  11.615   4.160   1.767 -2.4158  2.6618 -0.4726
 1021MOL0     H37770  11.697   4.409   1.669  0.7642  0.8277 -2.7709
 1021MOL0     H37771  11.840   4.380   1.782  2.4031 -2.2099 -0.7925
 1021MOL0     H37772  11.832   4.486   1.494  1.3448  1.9030  0.4909
 1021MOL0     H37773  11.984   4.419   1.563  0.7182  0.0726  1.4615
 1021MOL0     H37774  11.908   4.612   1.745 -0.0309  1.8299  0.2675
 1021MOL0     H37775  11.847   4.695   1.606  2.0415  1.4883  0.0417
 1021MOL0     H37776  12.129   4.600   1.680 -0.7498  2.6221  3.0984
 1021MOL0     H37777  12.078   4.636   1.501  0.7149  5.4731 -1.7145
 1021MOL0     H37778  12.020   4.857   1.578  2.4533  0.2461 -1.3040
 1021MOL0     H37779  12.078   4.829   1.741 -0.3897 -1.0865  0.2716
 1021MOL0     H37780  12.304   4.801   1.658  0.2765  2.1884  1.3463
 1021MOL0     H37781  12.252   4.859   1.496 -0.2199  2.3773  0.1761
 1021MOL0     H37782  12.240   5.020   1.756  1.1944  0.1008 -0.6506
 1021MOL0     H37783  12.127   5.049   1.628  1.4250  2.2675 -2.0755
 1021MOL0     H37784  12.298   5.126   1.472 -1.8923 -0.5405  0.9996
 1021MOL0     H37785  12.317   5.195   1.637  2.3607  1.5346 -0.3270
 1021MOL0     H37786  12.481   4.869   1.554 -1.6242  0.0227  2.0570
 1021MOL0     H37787  12.760   4.821   1.521 -0.4581 -0.1504 -0.2246
 1021MOL0     H37788  12.864   4.939   1.609 -1.6291  2.5754 -1.1369
 1021MOL0     H37789  12.873   4.726   1.715 -0.2724 -1.2734  0.1994
 1021MOL0     H37790  12.810   4.860   1.814 -1.2868  2.7887 -1.9178
 1021MOL0     H37791  12.657   4.632   1.667 -0.2295 -1.1144 -0.2019
 1021MOL0     H37792  12.572   4.745   1.760 -0.8881 -1.0963 -2.7458
 1021MOL0     H37793  12.607   4.589   1.924 -0.1250 -1.6163 -0.3838
 1021MOL0     H37794  12.738   4.706   1.955 -0.9175  2.0385 -1.9427
 1021MOL0     H37795  12.864   4.649   2.109  2.5258  0.3758  0.8930
 1021MOL0     H37796  12.975   4.552   2.293  1.8468  1.6332 -2.1444
 1021MOL0     H37797  13.190   3.993   2.367 -0.1658  0.3305  0.8501
 1021MOL0     H37798  13.197   3.786   2.515 -1.3432 -1.2028 -0.4277
 1021MOL0     H37799  13.051   3.610   2.565  2.4713 -0.5104 -1.1922
 1021MOL0     H37800  13.154   3.589   2.704 -1.0522 -0.5182  0.3606
 1021MOL0     H37801  13.009   3.421   2.729 -1.3333 -0.7135 -1.8265
 1021MOL0     H37802  12.963   3.533   2.858 -2.9344  1.1857 -0.5414
 1021MOL0     H37803  12.819   3.576   2.606  0.2759  3.0655  2.1457
 1021MOL0     H37804  12.810   3.409   2.664 -2.4165  0.0756 -0.4718
 1021MOL0     H37805  12.733   3.478   2.891  3.6121  1.7316  0.5190
 1021MOL0     H37806  12.619   3.507   2.758 -0.0373 -0.3341 -1.4170
 1021MOL0     H37807  12.722   3.746   2.748  0.5289  0.4228 -0.0067
 1021MOL0     H37808  12.808   3.712   2.890 -1.2950  0.7869  1.6716
 1021MOL0     H37809  12.509   3.668   2.884  1.6230 -1.5580 -0.9115
 1021MOL0     H37810  12.617   3.696   3.027  3.9538 -0.4388 -0.9768
 1021MOL0     H37811  12.473   3.905   2.965  0.9237  1.5311  2.1694
 1021MOL0     H37812  12.590   3.906   2.821  0.8186 -0.2280 -0.2342
 1021MOL0     H37813  12.755   3.904   3.054 -0.6270 -2.0705 -1.1728
 1021MOL0     H37814  12.695   4.046   2.982 -1.6607 -0.3448 -2.2630
 1021MOL0     H37815  12.845   3.935   2.712 -1.0029 -2.0196 -0.5237
 1021MOL0     H37816  12.831   4.117   2.536 -0.8385 -1.7895 -3.8168
 1021MOL0     H37817  12.884   4.168   2.126  1.7484 -1.4059 -0.2933
 1021MOL0     H37818  12.796   4.276   1.922  1.3631 -1.2207 -0.5638
 1021MOL0     H37819  11.773   4.203   1.359  1.1725  1.5782  1.5827
 1021MOL0     H37820  11.602   4.123   1.265 -2.2611  0.6743 -0.3840
 1021MOL0     H37821  11.175   3.907   1.463  0.4644 -0.5768 -1.6525
 1021MOL0     H37822  10.942   3.824   1.443  0.3511  0.3886 -0.0778
 1021MOL0     H37823  10.565   3.911   1.440  1.2729  3.2268  1.3340
 1021MOL0     H37824  10.704   3.874   1.506 -1.8961  0.5105  0.5505
 1021MOL0     H37825  10.759   3.690   1.356 -0.3473  0.3344 -1.0166
 1021MOL0     H37826  10.647   3.739   1.231 -0.5951 -1.3718 -0.8199
 1021MOL0     H37827  10.460   3.696   1.434  1.3768  0.2940  3.2829
 1021MOL0     H37828  10.599   3.618   1.509  0.5396 -1.5144 -0.4628
 1021MOL0     H37829  10.606   3.457   1.340 -1.7121 -1.5314 -2.9736
 1021MOL0     H37830  10.460   3.462   1.444 -2.6478  1.9596 -0.7217
 1021MOL0     H37831  10.301   3.489   1.044  0.2391  0.5651 -3.2145
 1021MOL0     H37832  10.844   4.182   1.222  0.9901  1.6868  2.0155
 1021MOL0     H37833  11.132   4.350   1.270  0.7750 -1.7235  1.9253
 1021MOL0     H37834  11.135   4.272   1.113 -1.4010 -2.8519  0.5023
 1021MOL0     H37835  10.978   4.330   1.175  0.6976  1.5361 -0.0545
 1022MOL0     O37836  11.018   2.490   5.225 -1.1381 -0.1257  0.8798
 1022MOL0     C37837  10.965   2.591   5.180 -0.2739 -1.1193 -0.2556
 1022MOL0     O37838  11.029   2.702   5.174 -0.0702  0.4171 -0.5707
 1022MOL0     C37839  11.165   2.717   5.200  0.6742  0.5342  0.2365
 1022MOL0     C37840  11.192   2.830   5.275 -0.0264  0.2870  1.1417
 1022MOL0     C37841  11.324   2.873   5.309  0.5082 -0.4790  0.0731
 1022MOL0     C37842  11.430   2.805   5.258  1.5059  1.3285 -0.5776
 1022MOL0     O37843  11.554   2.839   5.297 -0.2165  0.0169 -0.2916
 1022MOL0     C37844  11.593   2.982   5.301  0.2326  0.4223  0.7351
 1022MOL0     C37845  11.702   3.008   5.401  0.6971 -1.1763  0.0751
 1022MOL0     C37846  11.648   3.012   5.547  0.4089  0.0396  1.0275
 1022MOL0     C37847  11.754   2.970   5.649  0.1846 -0.1903  0.6881
 1022MOL0     C37848  11.774   2.815   5.648 -0.4252 -0.2282 -0.3266
 1022MOL0     C37849  11.882   2.756   5.739 -0.8259  0.5029 -0.1763
 1022MOL0     C37850  11.875   2.598   5.744  0.7117 -0.3439  0.4595
 1022MOL0     C37851  11.921   2.528   5.624  0.1944  0.6714 -0.2274
 1022MOL0     N37852  12.064   2.544   5.599 -0.8428 -0.4059 -0.2771
 1022MOL0     C37853  12.163   2.606   5.680  0.8823  0.5983 -0.0532
 1022MOL0     C37854  12.280   2.568   5.614 -0.8070  0.4294  0.2434
 1022MOL0     C37855  12.415   2.618   5.666 -0.0194  0.2645  0.6290
 1022MOL0     C37856  12.526   2.616   5.564 -0.1308  0.6602 -0.7177
 1022MOL0     C37857  12.495   2.718   5.450 -0.3616 -0.8683  0.2942
 1022MOL0     C37858  12.563   2.858   5.480 -1.1323 -0.2027 -0.6135
 1022MOL0     O37859  12.547   2.950   5.377  0.1918 -0.3590 -0.2682
 1022MOL0     C37860  12.591   3.076   5.392 -0.3796 -0.5999 -0.1575
 1022MOL0     C37861  12.570   3.174   5.283 -0.0250 -0.3639 -0.3806
 1022MOL0     C37862  12.621   3.301   5.283  0.5725  0.3249 -0.5855
 1022MOL0     C37863  12.675   3.350   5.403 -0.1644 -0.1764 -0.4216
 1022MOL0     C37864  12.697   3.497   5.425 -0.1121 -0.1067  0.1623
 1022MOL0     O37865  12.720   3.577   5.313 -0.6857  0.3929  0.1399
 1022MOL0     C37866  12.712   3.711   5.325  0.7740  0.7766  0.4433
 1022MOL0     C37867  12.618   3.784   5.391  0.8012 -0.1645 -0.8098
 1022MOL0     C37868  12.618   3.923   5.377  0.3391  0.8041 -0.4959
 1022MOL0     C37869  12.722   3.985   5.295  1.4452  0.4703 -0.4118
 1022MOL0     O37870  12.734   4.124   5.286 -0.3108 -0.1483  0.5463
 1022MOL0     C37871  12.663   4.201   5.375  1.2060 -0.8808  0.0600
 1022MOL0     C37872  12.683   4.350   5.328 -0.1832 -0.7306  0.7608
 1022MOL0     C37873  12.599   4.436   5.407  0.1139 -0.3527 -0.3948
 1022MOL0     C37874  12.646   4.585   5.383 -0.0387  0.0330  0.1825
 1022MOL0     C37875  12.558   4.693   5.445  0.6153  0.0770  0.1695
 1022MOL0     C37876  12.632   4.827   5.467  0.2136 -0.1551  0.5204
 1022MOL0     C37877  12.556   4.936   5.544 -0.7824  0.1043  0.4464
 1022MOL0     C37878  12.632   4.958   5.682 -0.4762  0.0546 -0.2365
 1022MOL0    Cl37879  12.506   5.001   5.808  0.1450 -0.1452 -0.3231
 1022MOL0     C37880  12.818   3.911   5.241 -0.7302  0.7935 -0.2714
 1022MOL0     C37881  12.812   3.771   5.260 -0.1097 -0.2059 -0.1215
 1022MOL0     O37882  12.702   3.540   5.540 -0.0566  0.1234  0.1401
 1022MOL0     C37883  12.706   3.256   5.504  0.7412 -0.9468 -0.0607
 1022MOL0     C37884  12.667   3.125   5.501 -0.1664 -0.7413 -1.5360
 1022MOL0     N37885  12.242   2.495   5.501  0.1603 -0.5728  0.0573
 1022MOL0     N37886  12.117   2.484   5.494  0.5688  0.0405 -0.3908
 1022MOL0     C37887  11.412   2.681   5.180  0.5618 -0.2133 -0.4165
 1022MOL0     C37888  11.276   2.640   5.143  0.2010 -0.0946 -0.2635
 1022MOL0     C37889  10.814   2.597   5.155 -0.0969  0.0195 -0.3184
 1022MOL0     C37890  10.769   2.706   5.087 -0.0474  0.3042 -0.0966
 1022MOL0     C37891  10.638   2.707   5.040  0.8946 -0.2434 -1.1561
 1022MOL0     C37892  10.545   2.616   5.080  0.2246  0.5119  0.3026
 1022MOL0     O37893  10.412   2.643   5.046  0.0780 -0.3442  0.7851
 1022MOL0     C37894  10.306   2.562   5.079  0.1884 -0.3951 -0.1946
 1022MOL0     C37895  10.182   2.595   4.986 -0.3024 -0.3763  0.7523
 1022MOL0     C37896  10.211   2.591   4.836 -0.3324  0.4830 -0.3655
 1022MOL0     C37897  10.121   2.688   4.748  0.3189 -0.3408 -0.7591
 1022MOL0     C37898   9.983   2.658   4.784  0.6094  0.0391 -0.1823
 1022MOL0     C37899   9.874   2.608   4.820  0.4080 -0.2850 -0.6313
 1022MOL0     C37900  10.586   2.511   5.160  0.1775  1.0860  0.4389
 1022MOL0     C37901  10.727   2.488   5.186 -0.3849  1.0476  0.0362
 1022MOL0     C37902  10.759   2.374   5.273 -0.3941 -0.0159 -0.3338
 1022MOL0     H37903  11.106   2.889   5.304 -0.6863 -0.1000  0.0266
 1022MOL0     H37904  11.339   2.960   5.372  3.3760  0.6370 -1.9410
 1022MOL0     H37905  11.617   3.003   5.196 -1.7913 -0.7650 -0.0264
 1022MOL0     H37906  11.504   3.042   5.319 -0.4889 -0.5407  0.4389
 1022MOL0     H37907  11.738   3.108   5.374  2.5938 -1.5341  1.0482
 1022MOL0     H37908  11.781   2.933   5.413 -0.3064 -2.0007  2.0602
 1022MOL0     H37909  11.569   2.937   5.557  1.3584 -0.9728  1.2009
 1022MOL0     H37910  11.618   3.115   5.566  1.1779  0.2689  1.0252
 1022MOL0     H37911  11.847   3.023   5.628  0.7370 -1.7250 -1.1054
 1022MOL0     H37912  11.705   3.004   5.740  0.2966 -1.4676  1.2559
 1022MOL0     H37913  11.682   2.769   5.685  0.5468 -1.3488  0.7934
 1022MOL0     H37914  11.789   2.790   5.543 -0.4683  2.1079 -0.9631
 1022MOL0     H37915  11.983   2.779   5.702  2.3415 -2.0618  5.4830
 1022MOL0     H37916  11.880   2.805   5.837 -1.1538  0.7700 -0.3152
 1022MOL0     H37917  11.772   2.575   5.771  1.3465 -1.7842  1.8386
 1022MOL0     H37918  11.944   2.573   5.826  1.8998  0.3442 -0.2998
 1022MOL0     H37919  11.893   2.422   5.629 -4.3688  1.5560 -2.5773
 1022MOL0     H37920  11.852   2.567   5.550 -2.6380  1.6334  2.6680
 1022MOL0     H37921  12.163   2.671   5.767 -0.4340 -0.3901  0.7303
 1022MOL0     H37922  12.410   2.722   5.699 -1.5524  0.5987 -0.5904
 1022MOL0     H37923  12.453   2.555   5.748  3.0373 -0.2119 -0.9941
 1022MOL0     H37924  12.629   2.631   5.599  1.2192  0.4050 -4.2380
 1022MOL0     H37925  12.517   2.518   5.517 -0.4576 -0.1439  0.9130
 1022MOL0     H37926  12.390   2.734   5.422  0.6864  0.3773 -3.5564
 1022MOL0     H37927  12.554   2.692   5.363  1.0289 -0.3740  1.0574
 1022MOL0     H37928  12.670   2.844   5.496 -0.9911 -2.1982 -2.6982
 1022MOL0     H37929  12.514   2.897   5.569  2.1077 -0.3872  1.3942
 1022MOL0     H37930  12.521   3.131   5.197  0.2489 -0.9369 -0.2556
 1022MOL0     H37931  12.606   3.364   5.196  0.2879  3.7879  1.7578
 1022MOL0     H37932  12.547   3.744   5.463  1.3922  4.0322  2.4469
 1022MOL0     H37933  12.545   3.977   5.437  0.8991  0.7697  0.2380
 1022MOL0     H37934  12.559   4.169   5.384  0.7324  0.2637 -1.0711
 1022MOL0     H37935  12.708   4.195   5.474 -0.1284  1.7687  0.9142
 1022MOL0     H37936  12.788   4.373   5.346 -0.4428 -0.7209  2.5181
 1022MOL0     H37937  12.655   4.356   5.223  0.5228 -0.0574  0.6069
 1022MOL0     H37938  12.494   4.429   5.380  0.1311 -0.9825 -0.3191
 1022MOL0     H37939  12.605   4.415   5.514  2.9347 -0.8544 -0.5672
 1022MOL0     H37940  12.642   4.602   5.275 -1.9281 -1.9912 -0.1367
 1022MOL0     H37941  12.748   4.590   5.423 -0.7736 -2.0127  2.5722
 1022MOL0     H37942  12.515   4.665   5.542 -1.3031 -4.1548 -1.6232
 1022MOL0     H37943  12.478   4.712   5.373  2.4561  0.1653 -1.9322
 1022MOL0     H37944  12.731   4.809   5.510 -0.2965 -0.0532  1.7679
 1022MOL0     H37945  12.635   4.867   5.365 -3.9538  0.4132  0.4480
 1022MOL0     H37946  12.456   4.904   5.575 -1.0827 -0.5151 -1.0914
 1022MOL0     H37947  12.564   5.035   5.497 -0.2119  0.8462  2.0175
 1022MOL0     H37948  12.663   4.863   5.727  0.5412  0.1707 -0.6710
 1022MOL0     H37949  12.718   5.025   5.674 -0.1818 -0.4951 -1.9543
 1022MOL0     H37950  12.898   3.949   5.179 -0.2034 -2.8631 -2.0962
 1022MOL0     H37951  12.875   3.707   5.199 -0.0157  0.4822 -0.7619
 1022MOL0     H37952  12.758   3.295   5.591 -0.6511  0.5783  0.1535
 1022MOL0     H37953  12.687   3.057   5.583  1.5717  0.0698 -1.2318
 1022MOL0     H37954  11.499   2.623   5.153  1.5113 -0.5529  2.9163
 1022MOL0     H37955  11.255   2.550   5.087  0.7546 -1.7761  2.0534
 1022MOL0     H37956  10.830   2.790   5.056 -1.8041  1.7173  0.1457
 1022MOL0     H37957  10.597   2.781   4.972 -2.0964 -0.9809 -0.2599
 1022MOL0     H37958  10.276   2.579   5.182 -0.9730  1.1091 -0.7429
 1022MOL0     H37959  10.329   2.457   5.060 -0.1662 -0.3735 -0.8061
 1022MOL0     H37960  10.150   2.696   5.010  0.7063  0.1177  0.0967
 1022MOL0     H37961  10.099   2.529   5.013 -0.0580 -0.8500  0.3606
 1022MOL0     H37962  10.213   2.486   4.805  2.0756  0.0823  0.9097
 1022MOL0     H37963  10.313   2.622   4.813 -0.3131  0.8200  0.1591
 1022MOL0     H37964  10.148   2.791   4.771  0.1981 -0.2963 -0.8155
 1022MOL0     H37965  10.138   2.657   4.644  0.1862  0.0373 -0.8939
 1022MOL0     H37966   9.776   2.567   4.836  0.2081 -0.0751 -1.2698
 1022MOL0     H37967  10.508   2.443   5.192 -0.0271  1.2058  0.2020
 1022MOL0     H37968  10.804   2.301   5.206  1.8239 -0.0427  1.0519
 1022MOL0     H37969  10.826   2.402   5.356 -0.8407  2.4874 -0.7415
 1022MOL0     H37970  10.665   2.338   5.317  1.6134 -0.8685  3.7942
 1023MOL0     O37971  11.541  10.695   7.290  0.7854 -0.0339 -0.5415
 1023MOL0     C37972  11.578  10.795   7.224  0.9417 -1.0730 -0.2633
 1023MOL0     O37973  11.707  10.841   7.221  0.4520  0.1513  0.1776
 1023MOL0     C37974  11.801  10.742   7.249 -0.2840 -0.0844  0.3814
 1023MOL0     C37975  11.830  10.633   7.166  0.4878  1.6831 -0.0912
 1023MOL0     C37976  11.940  10.545   7.188 -0.5232  0.2725  0.0978
 1023MOL0     C37977  12.029  10.571   7.293 -0.4031  0.2777 -0.2006
 1023MOL0     O37978  12.147  10.506   7.323  0.2092  1.2180  0.1745
 1023MOL0     C37979  12.224  10.482   7.203 -0.2202  0.2523  0.6670
 1023MOL0     C37980  12.277  10.607   7.133  0.8353  0.0007 -0.5232
 1023MOL0     C37981  12.317  10.583   6.987  0.4447  0.2341 -0.0090
 1023MOL0     C37982  12.194  10.584   6.895  0.5205  0.2396 -0.5898
 1023MOL0     C37983  12.223  10.511   6.756 -1.0946 -1.0332  0.6464
 1023MOL0     C37984  12.174  10.364   6.764  0.7140  0.6674 -0.4626
 1023MOL0     C37985  12.226  10.273   6.647  0.5496  0.0309 -0.3387
 1023MOL0     C37986  12.126  10.167   6.593  0.5700  0.5009  0.2739
 1023MOL0     N37987  12.083  10.060   6.686 -0.0002 -1.2426 -0.1602
 1023MOL0     C37988  11.979  10.070   6.774 -0.1723 -0.3781  0.5657
 1023MOL0     C37989  11.974   9.956   6.838 -0.4766  0.5671 -0.1893
 1023MOL0     C37990  11.862   9.920   6.938 -0.1891 -0.6366 -0.6807
 1023MOL0     C37991  11.903   9.909   7.084  0.3843 -0.1660 -0.5954
 1023MOL0     C37992  11.987  10.028   7.148  0.3610 -0.4509 -0.3797
 1023MOL0     C37993  11.979  10.015   7.299  0.2827 -0.3146  0.2940
 1023MOL0     O37994  12.044   9.895   7.341  0.1111 -0.4121 -0.5272
 1023MOL0     C37995  12.116   9.917   7.458  1.0195  0.0706 -0.6833
 1023MOL0     C37996  12.047   9.952   7.579  0.2773  0.1209  0.4511
 1023MOL0     C37997  12.108   9.942   7.703 -0.9374  0.3669 -0.1122
 1023MOL0     C37998  12.247   9.896   7.719  0.2906 -0.5575  0.0501
 1023MOL0     C37999  12.309   9.888   7.851  0.4104  0.2064  0.5259
 1023MOL0     O38000  12.445   9.861   7.848 -0.2229  0.4452 -0.5048
 1023MOL0     C38001  12.525   9.860   7.957 -0.6952  0.0954  0.8780
 1023MOL0     C38002  12.490   9.817   8.089 -0.9363 -0.3263  0.3654
 1023MOL0     C38003  12.589   9.807   8.189  0.0212  0.5190 -0.0120
 1023MOL0     C38004  12.723   9.834   8.167 -0.2311  1.3563 -0.0522
 1023MOL0     O38005  12.807   9.827   8.279  0.3370 -1.0589  0.6293
 1023MOL0     C38006  12.947   9.852   8.254 -0.4316 -0.4094 -1.0184
 1023MOL0     C38007  13.012   9.811   8.391  0.9325  0.3412 -0.1146
 1023MOL0     C38008  12.945   9.844   8.530 -0.2885  0.0172  0.6498
 1023MOL0     C38009  12.924   9.995   8.541  0.3866 -0.1857 -0.1029
 1023MOL0     C38010  12.853  10.049   8.664 -0.3908  0.3143  0.0118
 1023MOL0     C38011  12.721   9.976   8.691 -0.4926  0.4088  1.1159
 1023MOL0     C38012  12.648  10.003   8.816 -0.1946  0.4942  0.7546
 1023MOL0     C38013  12.604  10.152   8.841 -1.3155 -0.2821 -0.3675
 1023MOL0    Cl38014  12.607  10.190   9.004  0.0974 -0.1765  0.0174
 1023MOL0     C38015  12.759   9.879   8.039  0.1072 -0.0947  0.2221
 1023MOL0     C38016  12.667   9.892   7.939  0.0773  1.3273 -0.6270
 1023MOL0     O38017  12.239   9.911   7.952 -0.5698  0.5498  0.1959
 1023MOL0     C38018  12.305   9.858   7.599 -0.9072  0.0516  0.3468
 1023MOL0     C38019  12.238   9.862   7.475 -0.9458 -0.3130 -0.0101
 1023MOL0     N38020  12.076   9.876   6.789 -0.7844  0.0973  0.5773
 1023MOL0     N38021  12.139   9.941   6.705 -0.2590  0.8507 -0.5443
 1023MOL0     C38022  11.990  10.661   7.390  0.0806 -0.0278  0.5585
 1023MOL0     C38023  11.877  10.754   7.371 -0.1554 -0.5325 -0.0332
 1023MOL0     C38024  11.458  10.861   7.152  0.0183 -1.5575  0.1591
 1023MOL0     C38025  11.326  10.819   7.165  0.5387  0.3125  0.6142
 1023MOL0     C38026  11.210  10.886   7.103  0.1982  0.7689 -0.1790
 1023MOL0     C38027  11.238  10.998   7.022  0.7827 -0.2899  0.4717
 1023MOL0     O38028  11.125  11.059   6.959  0.0938 -1.1749  0.2048
 1023MOL0     C38029  11.143  11.140   6.842  0.2369 -0.2166 -0.2674
 1023MOL0     C38030  11.015  11.220   6.821  0.1417 -0.2834 -0.6487
 1023MOL0     C38031  10.881  11.140   6.797 -1.0915  0.0504 -0.2481
 1023MOL0     C38032  10.883  11.074   6.659 -0.3697  1.6369 -0.7557
 1023MOL0     C38033  10.744  11.025   6.632  0.8966 -0.3469 -0.3347
 1023MOL0     C38034  10.628  11.022   6.602  0.0210 -1.4418 -0.2966
 1023MOL0     C38035  11.368  11.044   7.010 -0.3803 -1.0471 -0.8947
 1023MOL0     C38036  11.478  10.979   7.074 -0.4255  0.0851 -0.1910
 1023MOL0     C38037  11.624  11.033   7.048  0.0465 -0.0535 -0.7494
 1023MOL0     H38038  11.770  10.611   7.078 -1.4683  1.1471  1.2937
 1023MOL0     H38039  11.958  10.472   7.110 -0.2024 -3.0775  3.0423
 1023MOL0     H38040  12.311  10.428   7.241 -2.3446 -3.9242  0.1372
 1023MOL0     H38041  12.175  10.414   7.133  0.4792  1.2603 -0.8804
 1023MOL0     H38042  12.358  10.644   7.196  1.0539  1.2390 -1.5118
 1023MOL0     H38043  12.204  10.686   7.151  2.1885  0.7684  2.1801
 1023MOL0     H38044  12.368  10.487   6.981  1.0128  0.5644 -0.5117
 1023MOL0     H38045  12.390  10.659   6.960  0.3873  1.5857  3.1809
 1023MOL0     H38046  12.114  10.537   6.952  2.1849 -1.3000  0.5611
 1023MOL0     H38047  12.170  10.688   6.870  0.7782  0.3359 -0.4326
 1023MOL0     H38048  12.171  10.567   6.678 -1.7378  1.9807  3.0526
 1023MOL0     H38049  12.330  10.507   6.732 -1.4986 -0.7159 -1.3141
 1023MOL0     H38050  12.197  10.309   6.856 -2.0037  0.0266 -0.0836
 1023MOL0     H38051  12.065  10.366   6.773  0.7865  2.2381  0.6248
 1023MOL0     H38052  12.320  10.229   6.680  0.7281  0.4014 -0.3535
 1023MOL0     H38053  12.227  10.336   6.558 -0.9141 -2.3834 -2.1655
 1023MOL0     H38054  12.044  10.214   6.539  1.3933  0.8685 -0.6764
 1023MOL0     H38055  12.182  10.116   6.515  0.9148 -1.9639  2.0381
 1023MOL0     H38056  11.898  10.141   6.787 -0.0632  0.0188 -0.7361
 1023MOL0     H38057  11.768   9.976   6.933  0.1886  0.1591  0.7244
 1023MOL0     H38058  11.835   9.816   6.915  0.4472 -1.3193  1.4488
 1023MOL0     H38059  11.810   9.889   7.139 -1.4996  2.7935 -2.3693
 1023MOL0     H38060  11.958   9.817   7.103  0.9100  0.3714  0.6311
 1023MOL0     H38061  11.954  10.124   7.108  1.4317  0.2670  0.3912
 1023MOL0     H38062  12.093  10.027   7.122  0.1011 -1.9249 -1.4919
 1023MOL0     H38063  11.873  10.009   7.323  0.3266 -0.1548  0.5428
 1023MOL0     H38064  12.018  10.105   7.348 -1.2289  0.1514  0.7017
 1023MOL0     H38065  11.944   9.982   7.561  0.3770 -0.1214 -0.5628
 1023MOL0     H38066  12.061   9.977   7.794 -0.8385 -0.8555  0.4201
 1023MOL0     H38067  12.394   9.770   8.106 -0.4990 -0.9557  1.1107
 1023MOL0     H38068  12.564   9.781   8.292 -0.7082  0.5746 -0.1726
 1023MOL0     H38069  12.977   9.791   8.168  1.4909 -1.7613  0.5016
 1023MOL0     H38070  12.967   9.958   8.235 -0.1061 -0.3338 -0.2846
 1023MOL0     H38071  13.034   9.704   8.389  2.4850  0.6481 -1.0428
 1023MOL0     H38072  13.104   9.870   8.394  1.8747 -1.0599 -0.8136
 1023MOL0     H38073  12.847   9.796   8.534 -0.9631  1.3199  0.2159
 1023MOL0     H38074  13.009   9.810   8.613  2.6945 -0.7478 -1.7455
 1023MOL0     H38075  12.864  10.022   8.454  0.6146 -0.3510 -0.3125
 1023MOL0     H38076  13.017  10.052   8.534  0.2782  0.2381  1.4357
 1023MOL0     H38077  12.844  10.158   8.667 -5.8397  0.1799 -1.0342
 1023MOL0     H38078  12.919  10.022   8.747 -0.4241 -0.4285 -0.1921
 1023MOL0     H38079  12.654  10.006   8.609  2.8949 -3.1050 -3.4754
 1023MOL0     H38080  12.739   9.868   8.694  2.6426  0.7597 -0.5972
 1023MOL0     H38081  12.710   9.957   8.893  0.2609  2.4138  1.5861
 1023MOL0     H38082  12.548   9.959   8.819  0.2933 -0.6148  1.1752
 1023MOL0     H38083  12.668  10.219   8.783 -0.3492 -0.4773  0.4566
 1023MOL0     H38084  12.506  10.175   8.796 -0.3123 -0.3268 -2.7245
 1023MOL0     H38085  12.861   9.907   8.016 -0.1175 -0.6382 -1.5589
 1023MOL0     H38086  12.700   9.919   7.839  2.2944  1.7503  0.1532
 1023MOL0     H38087  12.403   9.814   7.583 -1.2992 -0.4327 -0.8182
 1023MOL0     H38088  12.286   9.828   7.383 -1.4636 -2.1302  0.3489
 1023MOL0     H38089  12.056  10.676   7.475  0.3527 -4.8024  1.4505
 1023MOL0     H38090  11.867  10.843   7.432  3.9834  1.3059 -1.7019
 1023MOL0     H38091  11.306  10.732   7.228 -2.8460  1.1655  0.9144
 1023MOL0     H38092  11.113  10.840   7.117  0.7635 -0.8483 -1.2428
 1023MOL0     H38093  11.163  11.066   6.764 -0.4180  0.4991 -1.1472
 1023MOL0     H38094  11.233  11.202   6.857  1.2198 -1.1694 -1.9031
 1023MOL0     H38095  11.012  11.296   6.743 -3.2597 -0.1795 -0.5898
 1023MOL0     H38096  10.992  11.281   6.909 -1.7947 -0.5285 -0.9254
 1023MOL0     H38097  10.803  11.216   6.800 -1.1439  0.0101  2.4102
 1023MOL0     H38098  10.863  11.062   6.872 -0.4451 -0.7084 -0.8699
 1023MOL0     H38099  10.916  11.148   6.585  0.7087  1.6696 -0.2650
 1023MOL0     H38100  10.934  10.977   6.665 -1.8317  0.9305  3.1422
 1023MOL0     H38101  10.528  11.015   6.564 -0.5122 -0.2071  0.7705
 1023MOL0     H38102  11.397  11.134   6.956 -2.9847  1.1206  1.0752
 1023MOL0     H38103  11.628  11.116   6.977 -1.3103  3.0661  2.4811
 1023MOL0     H38104  11.659  11.070   7.145 -1.0713  1.0902 -0.7577
 1023MOL0     H38105  11.693  10.953   7.020  1.7180  0.3967  1.7586
 1024MOL0     O38106   0.361   2.819  11.153 -0.4751  0.0334 -0.8733
 1024MOL0     C38107   0.331   2.712  11.211 -0.4174  0.2683 -0.4767
 1024MOL0     O38108   0.297   2.700  11.339 -0.2455 -0.0720  0.9549
 1024MOL0     C38109   0.357   2.786  11.424 -0.1305  0.3183 -0.4293
 1024MOL0     C38110   0.494   2.791  11.446  0.6229 -0.1009  0.5520
 1024MOL0     C38111   0.552   2.870  11.552  0.9287 -0.5641  0.1262
 1024MOL0     C38112   0.467   2.946  11.634 -0.3653 -0.0653 -0.7081
 1024MOL0     O38113   0.538   3.009  11.737  0.0275 -0.0059 -0.2439
 1024MOL0     C38114   0.463   3.092  11.827  0.5957  0.1320  0.9355
 1024MOL0     C38115   0.442   3.226  11.764 -0.3152  0.4903  0.0911
 1024MOL0     C38116   0.568   3.312  11.762 -0.3483 -0.0525 -0.0205
 1024MOL0     C38117   0.629   3.308  11.624 -0.7485  0.1506 -0.1066
 1024MOL0     C38118   0.553   3.404  11.523 -0.1435  0.5469 -0.2427
 1024MOL0     C38119   0.568   3.549  11.541 -0.3164 -0.6619 -0.0177
 1024MOL0     C38120   0.717   3.601  11.515 -0.4812 -0.2990 -0.6344
 1024MOL0     C38121   0.732   3.756  11.554 -0.5219  0.1557 -0.0961
 1024MOL0     N38122   0.723   3.781  11.699  0.1438 -0.2905  0.1518
 1024MOL0     C38123   0.667   3.893  11.757 -0.3280 -0.3646  0.0299
 1024MOL0     C38124   0.669   3.874  11.888  1.0441  0.4557 -0.1949
 1024MOL0     C38125   0.627   3.969  11.997  0.5719 -0.9444 -0.7757
 1024MOL0     C38126   0.611   3.904  12.132 -0.5626 -0.8802 -0.1865
 1024MOL0     C38127   0.747   3.850  12.187  0.0596  0.4330  0.6339
 1024MOL0     C38128   0.739   3.789  12.332  0.3998 -1.4735  0.5354
 1024MOL0     O38129   0.651   3.674  12.360 -0.3833 -0.2983 -0.3465
 1024MOL0     C38130   0.674   3.630  12.485  0.3683  1.0493 -1.5611
 1024MOL0     C38131   0.787   3.554  12.518 -0.2001  0.0264 -1.0415
 1024MOL0     C38132   0.799   3.496  12.647  0.0706  0.2350  0.3812
 1024MOL0     C38133   0.698   3.523  12.741 -0.5239  0.3098 -0.6569
 1024MOL0     C38134   0.714   3.457  12.879  0.6023  0.0878 -0.3616
 1024MOL0     O38135   0.835   3.411  12.915 -0.3465 -0.3390  0.3906
 1024MOL0     C38136   0.849   3.330  13.020  0.0786 -0.1962  0.7799
 1024MOL0     C38137   0.769   3.336  13.144 -0.4178 -0.3984 -0.5260
 1024MOL0     C38138   0.798   3.256  13.258  0.8053 -0.2799 -0.1784
 1024MOL0     C38139   0.909   3.165  13.253  0.3416  0.3392 -0.5379
 1024MOL0     O38140   0.950   3.109  13.373  0.1651  0.0273 -0.4772
 1024MOL0     C38141   1.087   3.073  13.392 -0.3348  1.5992  0.2451
 1024MOL0     C38142   1.177   3.182  13.445 -0.0978 -0.0318  1.0616
 1024MOL0     C38143   1.127   3.272  13.553  0.5767 -1.1348 -0.0668
 1024MOL0     C38144   1.201   3.402  13.556  1.2164 -0.8046 -0.1366
 1024MOL0     C38145   1.146   3.490  13.672 -0.5514 -0.0041 -0.1581
 1024MOL0     C38146   1.226   3.627  13.671  0.0356 -0.5850  0.3075
 1024MOL0     C38147   1.187   3.718  13.556 -0.1020 -0.1906 -0.0707
 1024MOL0     C38148   1.304   3.766  13.471 -0.0489 -0.8174  0.1454
 1024MOL0    Cl38149   1.275   3.877  13.336  0.0925 -0.1965 -0.0638
 1024MOL0     C38150   0.993   3.161  13.140 -0.2995 -0.2260 -0.3833
 1024MOL0     C38151   0.952   3.236  13.020 -0.4737  1.3999  0.5742
 1024MOL0     O38152   0.617   3.469  12.954  0.1852  0.1819 -0.7987
 1024MOL0     C38153   0.588   3.598  12.712 -0.3502  0.2936 -0.1623
 1024MOL0     C38154   0.571   3.646  12.584 -0.4777 -1.2836  0.3367
 1024MOL0     N38155   0.714   3.744  11.906  0.0774  0.6533  0.0535
 1024MOL0     N38156   0.756   3.700  11.796  0.6677 -0.1519  0.7410
 1024MOL0     C38157   0.328   2.952  11.599 -0.1091  0.0150  0.4998
 1024MOL0     C38158   0.278   2.863  11.503  0.2352 -0.0136  0.2873
 1024MOL0     C38159   0.330   2.581  11.130  0.1250 -0.8450  0.4401
 1024MOL0     C38160   0.382   2.590  10.997 -0.0208 -0.4388  0.1399
 1024MOL0     C38161   0.363   2.483  10.909 -0.5043  0.0895 -0.6898
 1024MOL0     C38162   0.320   2.356  10.962 -0.4730 -0.8565  0.2586
 1024MOL0     O38163   0.333   2.243  10.877  0.8805 -0.6135 -0.0930
 1024MOL0     C38164   0.260   2.122  10.893 -1.0332  0.5773 -1.0152
 1024MOL0     C38165   0.344   2.004  10.860 -0.1670  0.3308 -0.3427
 1024MOL0     C38166   0.255   1.886  10.794  0.5028 -0.2055 -0.3633
 1024MOL0     C38167   0.158   1.833  10.917 -0.3363  1.0895 -0.5043
 1024MOL0     C38168   0.064   1.738  10.847  0.2528 -0.3066  0.0556
 1024MOL0     C38169  -0.010   1.660  10.785  0.1457 -1.0059  0.2045
 1024MOL0     C38170   0.282   2.347  11.096  0.3077 -0.3377  0.1207
 1024MOL0     C38171   0.291   2.456  11.181 -0.6296 -0.7522  0.0962
 1024MOL0     C38172   0.224   2.434  11.323 -0.1509 -0.0688 -0.0856
 1024MOL0     H38173   0.546   2.729  11.374  1.0633 -0.3856  1.1083
 1024MOL0     H38174   0.659   2.870  11.571  0.7329  0.7770  1.4323
 1024MOL0     H38175   0.368   3.050  11.860  0.3998 -1.8346 -1.7868
 1024MOL0     H38176   0.509   3.099  11.926  0.0075  0.6415  1.1795
 1024MOL0     H38177   0.374   3.280  11.831  2.2089  2.5380  1.1754
 1024MOL0     H38178   0.389   3.215  11.669  1.1658 -0.8315 -0.6387
 1024MOL0     H38179   0.644   3.275  11.832 -1.0458 -0.3939  0.5805
 1024MOL0     H38180   0.539   3.412  11.795 -4.1498 -1.6956  2.4422
 1024MOL0     H38181   0.736   3.331  11.629 -0.5009 -1.0453  0.7865
 1024MOL0     H38182   0.637   3.206  11.584 -2.7600  0.3230 -1.1012
 1024MOL0     H38183   0.583   3.401  11.417  2.6651  3.5217  0.3220
 1024MOL0     H38184   0.446   3.384  11.537  0.2429 -0.2109  2.0657
 1024MOL0     H38185   0.501   3.598  11.470 -0.5206 -0.6392  0.1894
 1024MOL0     H38186   0.526   3.578  11.638  0.7184 -0.7410  0.4748
 1024MOL0     H38187   0.727   3.584  11.407 -2.6132 -2.5685 -0.5727
 1024MOL0     H38188   0.792   3.533  11.556 -0.0155 -0.3937 -1.6076
 1024MOL0     H38189   0.839   3.778  11.546 -0.0089 -1.8238  0.7718
 1024MOL0     H38190   0.659   3.805  11.489 -2.0242  1.1424  2.2134
 1024MOL0     H38191   0.634   3.984  11.708  2.4821  0.8061  0.0807
 1024MOL0     H38192   0.700   4.049  12.015  0.4703 -1.6401  3.6893
 1024MOL0     H38193   0.531   4.016  11.972 -0.7373 -1.7502  2.2578
 1024MOL0     H38194   0.604   3.972  12.217  2.4084 -1.7978  0.9392
 1024MOL0     H38195   0.529   3.833  12.121 -0.7485 -0.9102  1.2083
 1024MOL0     H38196   0.829   3.921  12.197  1.6114 -1.4808  2.2276
 1024MOL0     H38197   0.794   3.785  12.113 -0.3878  1.5831 -0.7055
 1024MOL0     H38198   0.703   3.876  12.388 -2.3444 -1.1278 -1.5184
 1024MOL0     H38199   0.841   3.768  12.364  2.6419  3.4676 -2.2094
 1024MOL0     H38200   0.856   3.526  12.438  1.1683 -0.7094  0.3392
 1024MOL0     H38201   0.882   3.427  12.661  1.2133  1.4907  0.0837
 1024MOL0     H38202   0.687   3.407  13.150 -0.3641 -0.3007 -0.9072
 1024MOL0     H38203   0.744   3.280  13.349  0.5875  1.0834 -0.6452
 1024MOL0     H38204   1.085   2.997  13.472  0.1014  0.2295 -1.0054
 1024MOL0     H38205   1.136   3.029  13.305  1.0296 -1.1426  2.2435
 1024MOL0     H38206   1.277   3.141  13.462  1.9123  3.7560 -0.4648
 1024MOL0     H38207   1.192   3.243  13.356 -0.2658 -0.1482  0.9535
 1024MOL0     H38208   1.021   3.297  13.542  0.9251  1.0312  1.0508
 1024MOL0     H38209   1.145   3.213  13.643  0.6809 -1.4130 -0.2660
 1024MOL0     H38210   1.174   3.453  13.463 -2.9831 -0.6513  0.9843
 1024MOL0     H38211   1.309   3.391  13.573  0.7924 -0.2493  3.8424
 1024MOL0     H38212   1.158   3.442  13.769 -1.4822  0.9894  0.4758
 1024MOL0     H38213   1.038   3.505  13.674 -0.5684  0.0649  2.8162
 1024MOL0     H38214   1.202   3.689  13.758 -1.6516 -0.8938  0.0884
 1024MOL0     H38215   1.334   3.610  13.670  0.3759  1.2950 -0.2053
 1024MOL0     H38216   1.126   3.804  13.586 -0.7769  0.2022 -2.3347
 1024MOL0     H38217   1.113   3.655  13.504 -4.6977  1.4791  3.6688
 1024MOL0     H38218   1.388   3.807  13.529  1.7509  0.4522 -3.1013
 1024MOL0     H38219   1.355   3.684  13.419 -3.1386 -0.8058 -3.3228
 1024MOL0     H38220   1.076   3.091  13.130  0.3325  0.8480 -4.5146
 1024MOL0     H38221   1.015   3.227  12.932  1.0015 -1.4451  1.7893
 1024MOL0     H38222   0.509   3.612  12.785 -0.5974 -1.3715 -0.0678
 1024MOL0     H38223   0.487   3.712  12.565  0.9587  0.1581 -1.3448
 1024MOL0     H38224   0.257   3.023  11.640 -0.3494  0.4303 -0.6126
 1024MOL0     H38225   0.171   2.858  11.487  0.6547 -2.5296 -2.5851
 1024MOL0     H38226   0.415   2.689  10.968 -4.4099  0.6468 -1.8356
 1024MOL0     H38227   0.397   2.501  10.807 -3.4449 -0.3902 -1.8560
 1024MOL0     H38228   0.168   2.123  10.832 -2.9231 -2.7051  1.4112
 1024MOL0     H38229   0.218   2.102  10.992 -1.3762 -2.1230 -1.6154
 1024MOL0     H38230   0.382   1.973  10.958  0.1130 -0.4218 -0.6770
 1024MOL0     H38231   0.431   2.046  10.808  0.1099  0.8846  0.5430
 1024MOL0     H38232   0.323   1.802  10.778 -0.4642 -0.8607 -1.1677
 1024MOL0     H38233   0.194   1.912  10.707 -2.6589  0.4619  1.8717
 1024MOL0     H38234   0.213   1.776  10.992 -3.1390  0.9688  1.5926
 1024MOL0     H38235   0.102   1.902  10.980 -1.3506 -2.0546  2.2902
 1024MOL0     H38236  -0.080   1.601  10.729  1.0386 -0.2573 -1.7699
 1024MOL0     H38237   0.260   2.252  11.146  1.1530 -0.5309  0.1351
 1024MOL0     H38238   0.190   2.333  11.348 -1.2282 -0.9174 -4.2219
 1024MOL0     H38239   0.305   2.450  11.395 -0.8438 -2.4405  1.3436
 1024MOL0     H38240   0.139   2.499  11.346 -1.2025 -1.2999 -0.3466
  11.54196  11.54196  11.54196
